chitosan Film  in water:acetic acid 2%
97101
    1CHTO  H203    1   5.816   6.918   6.539  0.6810  2.3854 -1.5657
    1CHTO   O82    2   5.827   6.832   6.582  0.5462  0.2390  1.3820
    1CHTO  C123    3   5.896   6.753   6.487  0.2236  0.1857 -0.0750
    1CHTO  H227    4   5.986   6.701   6.539  3.9742 -1.9032 -1.1325
    1CHTO   O77    5   5.801   6.654   6.452  0.3948  0.4729  0.0075
    1CHTO  C118    6   5.863   6.538   6.390 -0.1635 -0.6929 -0.0070
    1CHTO  H222    7   5.955   6.509   6.445 -0.9550 -0.7045  0.7835
    1CHTO  C125    8   5.759   6.416   6.390 -0.2943  0.3498 -0.2177
    1CHTO   O84    9   5.733   6.385   6.531 -0.1557 -0.0185  0.3053
    1CHTO  H205   10   5.813   6.357   6.575  0.0353 -0.8537  0.6647
    1CHTO  C114   11   5.904   6.579   6.248  0.6539  0.2429  0.4164
    1CHTO  H218   12   5.818   6.612   6.197  2.2425  0.9264  1.2349
    1CHTO  C116   13   6.006   6.697   6.261 -0.5261 -1.1304 -0.0066
    1CHTO  H220   14   6.093   6.662   6.321 -0.5260 -1.4134 -3.1087
    1CHTO   O79   15   6.052   6.737   6.127  0.1327  0.8662 -0.0970
    1CHTO  H201   16   6.112   6.676   6.096 -0.7593 -0.1541 -3.9374
    1CHTO  C120   17   5.933   6.810   6.343  0.9107  0.4285  0.9074
    1CHTO  H224   18   5.839   6.835   6.281  1.4176  0.5799  0.2165
    1CHTO   N21   19   6.019   6.929   6.359  0.4832 -0.5337  0.8792
    1CHTO  H211   20   6.121   6.900   6.365  0.0854 -0.1123  0.7503
    1CHTO  H212   21   5.997   7.002   6.431  2.4240 -0.5600 -2.8543
    1CHTO   O75   22   5.965   6.459   6.190  0.0215 -0.8421  0.5567
    1CHTO  C112   23   5.918   6.434   6.054  0.5652 -0.1519  0.5667
    1CHTO  H216   24   5.926   6.530   5.993  0.5181  0.3857 -0.0211
    1CHTO   O73   25   5.782   6.379   6.056 -0.2963 -0.1756 -0.1590
    1CHTO  C113   26   5.728   6.327   5.935 -0.1439  0.0468  0.4056
    1CHTO  H217   27   5.697   6.410   5.867  0.2236 -1.3391 -1.1356
    1CHTO  C124   28   5.599   6.262   5.995  0.4602 -0.3736 -0.1537
    1CHTO   O83   29   5.503   6.225   5.898 -0.2739 -0.4118 -0.1397
    1CHTO  H204   30   5.458   6.150   5.922  1.6634  2.2331  2.1651
    1CHTO  C109   31   5.824   6.223   5.878  0.4988 -0.2807 -0.3589
    1CHTO  H213   32   5.825   6.141   5.950 -0.9732  0.3532 -0.8730
    1CHTO  C110   33   5.968   6.281   5.851 -0.3451 -0.1567 -0.3709
    1CHTO  H214   34   5.948   6.360   5.777  0.5074  0.1924  1.8952
    1CHTO   O78   35   6.052   6.174   5.805 -0.4935 -0.1697 -0.7043
    1CHTO  H200   36   6.057   6.159   5.716  2.9106 -1.5467  0.9847
    1CHTO  C111   37   6.027   6.339   5.985 -0.2782  0.7494 -0.1182
    1CHTO  H215   38   6.048   6.256   6.051  2.3171  0.3912  1.5692
    1CHTO   N19   39   6.161   6.407   5.964 -0.3683 -0.8170  0.4593
    1CHTO  H207   40   6.241   6.351   5.925  3.9081  0.9210 -1.2783
    1CHTO  H208   41   6.142   6.490   5.900  3.5162 -0.4142 -2.0898
    1CHTO   O74   42   5.767   6.171   5.750 -0.3252 -0.0298  0.7485
    1CHTO  C115   43   5.774   6.007   5.735  0.1461  0.5553 -0.3862
    1CHTO  H219   44   5.825   5.962   5.820  2.8465  1.2655  2.4049
    1CHTO   O76   45   5.635   5.944   5.742 -0.0843  0.6522 -0.7428
    1CHTO  C122   46   5.548   5.978   5.635  0.1342  0.0850 -0.1375
    1CHTO  H226   47   5.511   6.081   5.654  1.3090  1.8986 -0.3826
    1CHTO  C126   48   5.424   5.892   5.630  0.0610  0.2683 -0.6500
    1CHTO   O85   49   5.452   5.752   5.643  0.1982  0.4155  1.0010
    1CHTO  H206   50   5.546   5.734   5.657  3.6118  2.4710  0.9760
    1CHTO  C121   51   5.622   5.962   5.492 -0.5291 -0.4925 -0.5072
    1CHTO  H225   52   5.564   5.898   5.420 -1.1111  2.0339  1.1528
    1CHTO   O81   53   5.625   6.099   5.441 -0.2515 -0.4591 -0.5197
    1CHTO  H202   54   5.698   6.141   5.482  0.3047 -0.8954  2.8328
    1CHTO  C119   55   5.764   5.903   5.500  0.4890  0.3816  0.2089
    1CHTO  H223   56   5.752   5.802   5.523  0.0355 -1.6595  0.1253
    1CHTO  C117   57   5.850   5.975   5.609  0.5661 -0.0657  0.1428
    1CHTO  H221   58   5.885   6.072   5.586 -1.3565 -0.6210 -1.0415
    1CHTO   N20   59   5.978   5.895   5.636 -0.4171 -0.1615  0.0600
    1CHTO  H209   60   5.969   5.792   5.604  0.7793 -0.1953 -0.2411
    1CHTO  H210   61   6.071   5.949   5.622  1.0238  0.2527  0.4350
    1CHTO   O80   62   5.828   5.883   5.345  0.4969 -0.2661  0.1295
    1CHTO  C103   63   5.885   5.735   5.298 -0.4693 -0.2697  0.6460
    1CHTO  H190   64   5.910   5.677   5.386 -1.0866 -1.5563  0.0655
    1CHTO  C101   65   5.798   5.649   5.197 -0.1235 -0.2970  0.0552
    1CHTO  H188   66   5.780   5.703   5.108 -1.2357  0.4192  1.1944
    1CHTO   O68   67   5.661   5.627   5.267 -0.0221  0.5530  0.1573
    1CHTO  H168   68   5.634   5.541   5.279 -0.7861  0.4937 -1.9527
    1CHTO   C99   69   5.875   5.520   5.151  0.2548  0.2911 -0.1218
    1CHTO  H186   70   5.905   5.466   5.240  0.8455 -0.1120  0.6813
    1CHTO   N17   71   5.793   5.432   5.068 -0.0887  0.4230 -0.8216
    1CHTO  H174   72   5.767   5.482   4.979  1.4404  0.2514  0.5587
    1CHTO  H175   73   5.852   5.344   5.050 -0.0032  0.1043 -1.4831
    1CHTO   C97   74   6.009   5.569   5.084 -0.4505 -0.3675 -0.1711
    1CHTO  H184   75   5.982   5.623   4.993 -0.9728 -2.5180  0.2781
    1CHTO   O64   76   6.089   5.643   5.179  0.1654  0.4528  0.2855
    1CHTO  C104   77   6.026   5.761   5.226  0.1780 -0.3571  0.4849
    1CHTO  H191   78   6.009   5.834   5.148  0.0738  1.1717 -2.3979
    1CHTO  C108   79   6.118   5.833   5.325  0.3491  0.1039  0.2416
    1CHTO   O71   80   6.228   5.903   5.255  0.1157 -0.0701  0.3839
    1CHTO  H171   81   6.278   5.959   5.311  0.2615 -1.2247  0.7976
    1CHTO   O62   82   6.090   5.448   5.063  0.5247 -0.2730 -0.3312
    1CHTO   C91   83   6.187   5.465   4.955  0.0498 -0.7475  0.3654
    1CHTO  H178   84   6.215   5.572   4.961  1.8048  2.2500  1.3123
    1CHTO   C92   85   6.130   5.437   4.809  0.2764 -0.0439  0.5082
    1CHTO  H179   86   6.027   5.487   4.804  0.0121  3.6332  1.3527
    1CHTO   O66   87   6.224   5.510   4.729 -0.6186  0.3159  0.7544
    1CHTO  H166   88   6.258   5.466   4.652 -1.7105 -0.3957  0.5894
    1CHTO   C93   89   6.127   5.283   4.776  0.5009  0.4343 -0.4860
    1CHTO  H180   90   6.089   5.276   4.675 -3.4179  2.7176  0.6122
    1CHTO   N16   91   6.019   5.206   4.847  0.6382 -0.1004 -0.4039
    1CHTO  H172   92   5.946   5.174   4.775 -1.1100 -0.6693  3.1688
    1CHTO  H173   93   5.969   5.257   4.922  0.7837  0.9324 -0.9658
    1CHTO   C94   94   6.264   5.220   4.796 -0.3312  0.0044  0.1828
    1CHTO  H181   95   6.258   5.130   4.853 -4.4200  1.0057  1.1471
    1CHTO   O61   96   6.362   5.307   4.862  0.2963 -0.5163  0.2711
    1CHTO   C95   97   6.322   5.385   4.976  0.7014 -0.4650 -0.4393
    1CHTO  H182   98   6.308   5.321   5.061 -1.2876 -0.2272 -0.2011
    1CHTO  C106   99   6.434   5.484   5.024 -0.8043 -0.0436  0.1414
    1CHTO   O69  100   6.475   5.578   4.926 -0.3804  0.2672 -0.3195
    1CHTO  H169  101   6.491   5.540   4.842 -1.0063 -1.9302  3.1075
    1CHTO   O63  102   6.326   5.185   4.654  0.4521 -0.1980 -0.0227
    1CHTO   C96  103   6.426   5.073   4.657 -0.2005 -0.5259  0.2264
    1CHTO  H183  104   6.388   4.998   4.734 -1.5008 -0.9506  1.3956
    1CHTO   C98  105   6.567   5.128   4.699 -0.4271 -0.0217  0.3684
    1CHTO  H185  106   6.555   5.187   4.785 -0.8731  3.8866  0.2439
    1CHTO   O67  107   6.645   5.015   4.731  0.1642  1.0494  0.3562
    1CHTO  H167  108   6.651   4.949   4.668  1.3566 -1.8924  0.1895
    1CHTO  C102  109   6.634   5.218   4.582 -0.2743 -0.2800  0.3769
    1CHTO  H189  110   6.739   5.228   4.611 -0.6187 -1.6310  1.9699
    1CHTO   N18  111   6.588   5.358   4.582  0.3743  0.2036  0.2345
    1CHTO  H176  112   6.483   5.360   4.559  2.3868 -1.2972 -0.2881
    1CHTO  H177  113   6.614   5.411   4.669 -1.0883  0.6251 -0.9105
    1CHTO  C105  114   6.621   5.149   4.449 -0.6672  0.7311  0.3593
    1CHTO  H192  115   6.549   5.205   4.387 -0.1728  1.0758  1.1092
    1CHTO   O65  116   6.582   5.010   4.455 -0.4246  0.4813 -0.0433
    1CHTO  C100  117   6.452   5.001   4.515  1.1886 -0.2091 -0.9922
    1CHTO  H187  118   6.376   5.040   4.442 -1.9662  1.0075  1.3014
    1CHTO  C107  119   6.431   4.850   4.513 -0.4442  0.0667  0.2843
    1CHTO   O70  120   6.301   4.821   4.564 -0.1446 -0.0401  0.1459
    1CHTO  H170  121   6.244   4.864   4.501  0.9247 -0.4890 -0.8938
    1CHTO   O57  122   6.765   5.172   4.373  0.4821  0.1935 -0.8899
    1CHTO   C85  123   6.901   5.138   4.388  0.3188  0.4509 -0.0231
    1CHTO  H157  124   6.928   5.144   4.279 -1.4840 -0.5089 -0.5055
    1CHTO   C83  125   6.933   4.993   4.434 -0.1933  0.8725 -0.1455
    1CHTO  H155  126   6.897   4.923   4.354 -0.3672  1.8486 -2.1801
    1CHTO   O56  127   6.862   4.971   4.559 -0.2732  0.2242  0.1290
    1CHTO  H135  128   6.788   5.026   4.566  0.9912 -1.2519 -1.0226
    1CHTO   C81  129   7.092   4.972   4.427 -0.2421  0.0741  0.5286
    1CHTO  H153  130   7.132   4.973   4.322  1.8347  1.0781  2.3484
    1CHTO   N14  131   7.134   4.839   4.472 -0.0924 -0.0342  0.2871
    1CHTO  H141  132   7.132   4.838   4.579 -1.3478 -2.3516 -0.0666
    1CHTO  H142  133   7.077   4.753   4.436  3.7909  1.5155 -1.6625
    1CHTO   C79  134   7.164   5.087   4.513  0.1876  0.2725  0.5873
    1CHTO  H151  135   7.266   5.081   4.493 -1.9452  2.7112 -1.8512
    1CHTO   O52  136   7.131   5.219   4.459  0.7869 -0.2860  0.4348
    1CHTO   C86  137   6.987   5.243   4.475  0.4967  0.1007 -0.1197
    1CHTO  H158  138   6.966   5.236   4.572 -0.4819  0.8973 -1.5724
    1CHTO   C90  139   6.948   5.388   4.433 -0.0247 -0.3883  0.5564
    1CHTO   O60  140   7.003   5.490   4.517  0.3081 -0.1985 -0.2051
    1CHTO  H138  141   7.086   5.462   4.548 -0.3360 -1.8954 -2.7384
    1CHTO   O50  142   7.142   5.085   4.660 -0.1300 -0.7349 -0.1139
    1CHTO   C73  143   7.200   5.091   4.787 -0.5000 -0.2388 -0.4247
    1CHTO  H145  144   7.302   5.041   4.792  1.4360 -0.5044 -1.0900
    1CHTO   C74  145   7.115   5.021   4.898  0.6198  0.0357  0.1446
    1CHTO  H146  146   7.096   4.923   4.864 -1.4377 -1.1914  1.4373
    1CHTO   O54  147   7.195   5.011   5.014  0.0271 -0.0935 -0.2669
    1CHTO  H133  148   7.254   4.941   5.014 -2.3315 -0.7890 -0.7630
    1CHTO   C75  149   6.983   5.108   4.908  0.4125 -0.1873 -0.4963
    1CHTO  H147  150   6.936   5.113   4.815 -0.8463 -1.6660  2.0987
    1CHTO   N13  151   6.881   5.048   4.998 -0.6188 -0.2182 -0.6081
    1CHTO  H139  152   6.868   4.957   4.948  1.6140  1.9522  1.9802
    1CHTO  H140  153   6.793   5.108   4.992  0.8109  1.4341 -1.7173
    1CHTO   C76  154   7.008   5.258   4.937 -0.2596 -0.8349  0.1433
    1CHTO  H148  155   7.060   5.263   5.034  3.2423 -2.0918  0.0063
    1CHTO   O49  156   7.098   5.311   4.830 -0.5061  0.4925  0.1256
    1CHTO   C77  157   7.219   5.237   4.828 -0.4272  0.4658 -0.1477
    1CHTO  H149  158   7.251   5.240   4.935 -1.2520  1.8649  3.8885
    1CHTO   C88  159   7.324   5.312   4.743  0.3018  0.1102 -0.5566
    1CHTO   O58  160   7.447   5.332   4.817 -0.5138  0.7769  0.0038
    1CHTO  H136  161   7.488   5.247   4.829  0.1561 -2.6850 -2.7471
    1CHTO   O51  162   6.870   5.341   4.934 -0.6388  0.1578 -0.3952
    1CHTO   C78  163   6.885   5.469   5.021  0.0810 -1.1154 -0.0615
    1CHTO  H150  164   6.997   5.506   5.024 -0.8607 -1.1113 -0.8603
    1CHTO   C80  165   6.830   5.446   5.162 -0.1536  0.6360  0.0920
    1CHTO  H152  166   6.728   5.410   5.157  0.5769 -1.7785  0.0173
    1CHTO   O55  167   6.909   5.345   5.226  0.4606  0.9265  0.7100
    1CHTO  H134  168   6.866   5.296   5.292 -0.3230  0.6797 -2.1792
    1CHTO   C84  169   6.830   5.574   5.247  0.3856 -0.0868  0.9257
    1CHTO  H156  170   6.923   5.630   5.251  0.3005 -1.2252 -1.7103
    1CHTO   N15  171   6.774   5.560   5.383 -0.5958 -0.0887  0.3229
    1CHTO  H143  172   6.787   5.646   5.441  1.3822 -1.6743  1.4285
    1CHTO  H144  173   6.822   5.481   5.440 -1.7071 -0.9925 -2.1402
    1CHTO   C87  174   6.756   5.685   5.178  0.2389 -0.3378  0.2190
    1CHTO  H159  175   6.643   5.664   5.175 -2.6286 -0.3458 -0.2929
    1CHTO   O53  176   6.800   5.695   5.021 -0.4374 -0.0775 -0.1330
    1CHTO   C82  177   6.818   5.581   4.936  0.4791  0.3213 -0.9968
    1CHTO  H154  178   6.717   5.553   4.908 -1.0001  1.1702 -1.0489
    1CHTO   C89  179   6.892   5.612   4.810 -0.4611 -0.4600  0.3685
    1CHTO   O59  180   7.015   5.690   4.837  0.1979  0.7171 -0.2238
    1CHTO  H137  181   6.986   5.767   4.878 -0.4723  1.3978  0.9897
    1CHTO   O45  182   6.795   5.833   5.250 -0.0081  0.4886 -0.0613
    1CHTO   C67  183   6.731   5.941   5.177 -0.5540  0.3364 -0.5709
    1CHTO  H124  184   6.699   5.908   5.081  1.7145  0.4716  2.6625
    1CHTO   C65  185   6.606   5.990   5.252 -0.1912 -0.9881 -0.0200
    1CHTO  H122  186   6.620   5.950   5.355 -1.3333  0.1715  2.3087
    1CHTO   O44  187   6.496   5.925   5.195 -0.1679  0.4259 -0.2540
    1CHTO  H102  188   6.429   5.957   5.252  0.2754 -1.3719 -0.1909
    1CHTO   C63  189   6.600   6.148   5.265 -0.8555 -1.2513  0.0436
    1CHTO  H120  190   6.669   6.182   5.349  1.4153  1.5726  2.1788
    1CHTO   N11  191   6.471   6.206   5.319 -0.5334 -0.3286 -0.2891
    1CHTO  H108  192   6.481   6.240   5.421 -0.8810  0.1631 -0.0669
    1CHTO  H109  193   6.383   6.147   5.310 -0.3664  0.6305  1.4990
    1CHTO   C61  194   6.641   6.225   5.138  0.2775 -0.8248  0.2740
    1CHTO  H118  195   6.652   6.333   5.164 -0.5774  0.8158 -1.0053
    1CHTO   O40  196   6.776   6.174   5.096 -0.1202 -0.6694 -0.0350
    1CHTO   C68  197   6.837   6.060   5.151  0.1424  0.2531  0.1824
    1CHTO  H125  198   6.878   6.088   5.251  0.0952  0.4853  0.7155
    1CHTO   C72  199   6.960   6.005   5.068 -0.2384  0.2165  0.4204
    1CHTO   O48  200   6.952   6.010   4.925 -0.1677  0.0472  0.4275
    1CHTO  H105  201   6.994   5.927   4.896  1.8173 -2.6706  1.7826
    1CHTO   O38  202   6.553   6.219   5.024 -0.2192  0.0334 -0.2902
    1CHTO   C55  203   6.550   6.330   4.936  0.2885  0.2539 -0.1234
    1CHTO  H112  204   6.633   6.406   4.962 -0.5044  0.5264 -1.5873
    1CHTO   C56  205   6.408   6.391   4.957 -0.1776 -0.3119  0.4319
    1CHTO  H113  206   6.330   6.307   4.962  1.2098  1.1282  0.9857
    1CHTO   O42  207   6.401   6.442   5.091 -0.3940 -0.9041 -0.4814
    1CHTO  H100  208   6.440   6.377   5.151  2.1795 -3.0054 -1.3080
    1CHTO   C57  209   6.378   6.495   4.838 -0.2763 -0.2625 -0.3895
    1CHTO  H114  210   6.450   6.569   4.863 -0.4617  1.8266  0.8797
    1CHTO   N10  211   6.236   6.540   4.845 -0.0453  0.5769  0.0988
    1CHTO  H106  212   6.167   6.471   4.791 -2.2198  0.4342 -1.6046
    1CHTO  H107  213   6.228   6.644   4.806 -0.9713  0.0430  1.0315
    1CHTO   C58  214   6.410   6.441   4.697  0.0223 -0.0558  0.6583
    1CHTO  H115  215   6.343   6.353   4.678  0.7750 -4.5963  1.4480
    1CHTO   O37  216   6.545   6.395   4.697  0.1347  0.2967 -0.7146
    1CHTO   C59  217   6.559   6.282   4.791  0.2350  0.4539 -0.2165
    1CHTO  H116  218   6.476   6.215   4.781 -0.0607 -0.8401  1.5002
    1CHTO   C70  219   6.697   6.217   4.764 -0.2465  0.7901  0.1854
    1CHTO   O46  220   6.809   6.303   4.790  0.4992  0.3410 -0.5503
    1CHTO  H103  221   6.886   6.253   4.803 -0.4556  2.6293  1.4704
    1CHTO   O39  222   6.418   6.583   4.589  0.4254 -0.8506 -0.0214
    1CHTO   C60  223   6.346   6.559   4.468  0.7332 -0.2668 -0.1134
    1CHTO  H117  224   6.323   6.459   4.446  0.4037  1.9188 -1.0632
    1CHTO   C62  225   6.211   6.620   4.482  0.7814 -0.3098  0.0801
    1CHTO  H119  226   6.153   6.567   4.566 -0.5674  1.3556 -0.5079
    1CHTO   O43  227   6.221   6.756   4.527 -0.2228 -0.7282 -0.2698
    1CHTO  H101  228   6.277   6.810   4.474 -1.1107  2.3870  2.3957
    1CHTO   C66  229   6.123   6.594   4.349 -0.2521  0.0811 -0.5579
    1CHTO  H123  230   6.119   6.485   4.335 -0.7763 -1.9059  3.4042
    1CHTO   N12  231   5.984   6.643   4.356 -0.3330  0.8032 -0.3553
    1CHTO  H110  232   5.918   6.570   4.323 -0.4428  2.2574 -1.2798
    1CHTO  H111  233   5.958   6.667   4.458  2.1546 -1.3980 -1.3567
    1CHTO   C69  234   6.189   6.642   4.222  0.0327  0.3393 -0.8601
    1CHTO  H126  235   6.203   6.750   4.217 -0.6362  0.3815 -1.2180
    1CHTO   O41  236   6.340   6.584   4.210 -0.1433 -0.2547 -0.1153
    1CHTO   C64  237   6.419   6.618   4.347 -0.4506 -0.7001 -0.0892
    1CHTO  H121  238   6.434   6.719   4.366 -0.6616  1.9033 -0.1297
    1CHTO   C71  239   6.563   6.545   4.329 -0.0366 -0.2775 -0.0928
    1CHTO   O47  240   6.653   6.539   4.441 -0.4989  0.3040 -0.2143
    1CHTO  H104  241   6.664   6.625   4.477 -0.5481  2.5692 -0.6778
    1CHTO   O34  242   6.117   6.597   4.076 -0.3157 -0.3600  0.2137
    1CHTO   C49  243   6.103   6.697   3.966  1.1770 -0.2044  0.1144
    1CHTO   H91  244   6.050   6.773   4.014  2.0986  1.1210 -1.3509
    1CHTO   C47  245   6.023   6.636   3.848  0.5753  0.0807 -0.6815
    1CHTO   H89  246   6.009   6.724   3.785  1.3076  0.5948 -3.5506
    1CHTO   O33  247   5.890   6.595   3.893 -0.5367  0.3050  0.0899
    1CHTO   H70  248   5.818   6.644   3.862  0.6879 -3.8536 -0.9587
    1CHTO   C45  249   6.111   6.519   3.780  0.4157 -0.9069  0.7435
    1CHTO   H87  250   6.144   6.444   3.854 -1.5035 -0.9672 -1.9368
    1CHTO    N8  251   6.048   6.437   3.674 -0.5264 -0.1437  0.2345
    1CHTO   H75  252   5.948   6.422   3.707 -0.6314  1.1316  0.5950
    1CHTO   H76  253   6.044   6.504   3.589 -1.4564  0.2945 -2.1382
    1CHTO   C43  254   6.246   6.587   3.736  0.4299  0.4266 -0.2627
    1CHTO   H85  255   6.310   6.509   3.696  0.3271 -4.2993  1.8013
    1CHTO   O29  256   6.314   6.655   3.849 -0.1277  0.5802 -0.5755
    1CHTO   C50  257   6.239   6.756   3.926 -0.2061  0.8085  0.8336
    1CHTO   H92  258   6.294   6.776   4.020 -2.5987 -2.4063 -0.8861
    1CHTO   C54  259   6.229   6.897   3.857 -0.7954  0.7491 -0.1511
    1CHTO   O36  260   6.347   6.943   3.792  0.1836 -0.0637 -0.0017
    1CHTO   H72  261   6.328   7.022   3.744  0.4945 -0.4644  1.2907
    1CHTO   O27  262   6.224   6.681   3.622 -0.0431 -0.1916  0.2300
    1CHTO   C37  263   6.252   6.700   3.480  0.2170 -0.2142 -0.1011
    1CHTO   H79  264   6.238   6.603   3.430 -1.2624  1.6788  2.0538
    1CHTO   C38  265   6.148   6.797   3.421 -0.2220  0.3444  0.0154
    1CHTO   H80  266   6.156   6.891   3.473 -0.0027 -3.0879  2.3220
    1CHTO   O31  267   6.018   6.742   3.439 -0.1898  0.7530  0.0586
    1CHTO   H68  268   5.953   6.813   3.435  1.1292  1.6772  0.6809
    1CHTO   C39  269   6.174   6.829   3.272  0.0581 -0.2038  0.6946
    1CHTO   H81  270   6.167   6.730   3.225  2.8692  2.6589 -3.6919
    1CHTO    N7  271   6.077   6.929   3.210  0.5526  0.5871 -0.2825
    1CHTO   H73  272   6.021   6.910   3.119 -1.5535  1.0137 -1.0071
    1CHTO   H74  273   6.100   7.032   3.221  2.2854  0.5109 -0.3897
    1CHTO   C40  274   6.321   6.866   3.243 -0.6289  0.1051  0.4680
    1CHTO   H82  275   6.343   6.969   3.265  2.1673 -2.4777  2.6341
    1CHTO   O26  276   6.416   6.777   3.302  0.1813  0.4150 -0.1593
    1CHTO   C41  277   6.396   6.753   3.446 -0.0784  0.2418  0.8022
    1CHTO   H83  278   6.417   6.846   3.494 -0.6552  0.2228 -0.4409
    1CHTO   C52  279   6.505   6.662   3.502 -0.1959 -0.9765  0.4229
    1CHTO   O35  280   6.493   6.539   3.490  0.3584 -0.3430  0.0305
    1CHTO   H71  281   6.418   6.500   3.527 -0.2371  1.1168  1.2351
    1CHTO   O28  282   6.354   6.850   3.102 -0.1459 -0.1280  0.2896
    1CHTO   C42  283   6.469   6.900   3.029 -0.3775 -0.5908 -0.4242
    1CHTO   H84  284   6.472   6.836   2.946 -1.5650 -0.2788  1.9730
    1CHTO   C44  285   6.605   6.899   3.102  0.3464 -0.3735 -0.0199
    1CHTO   H86  286   6.598   6.958   3.192 -0.0628 -0.1477  0.1542
    1CHTO   O32  287   6.649   6.760   3.129  0.2313 -0.4952  0.2531
    1CHTO   H69  288   6.739   6.759   3.150 -0.3906  0.0257  1.6543
    1CHTO   C48  289   6.711   6.973   3.004 -0.1959 -0.1983 -0.3842
    1CHTO   H90  290   6.726   6.914   2.912  0.0248 -2.2987 -1.5263
    1CHTO    N9  291   6.843   6.982   3.068  0.9014 -0.2960 -0.2232
    1CHTO   H77  292   6.928   6.951   3.010  1.2822  2.5255 -0.4474
    1CHTO   H78  293   6.862   7.075   3.124 -0.1758  0.5419  2.1305
    1CHTO   C51  294   6.660   7.123   2.958  0.2202  1.1242  0.1983
    1CHTO   H93  295   6.652   7.196   3.037 -2.8680  1.9493 -1.3505
    1CHTO   O30  296   6.535   7.108   2.893  0.2695  0.5283 -0.0232
    1CHTO   C46  297   6.432   7.044   2.977  0.4674 -0.7066 -0.7541
    1CHTO   H88  298   6.422   7.112   3.055  0.6999  1.3328  0.3199
    1CHTO   C53  299   6.298   7.058   2.893 -0.5874 -0.0167  0.3719
    1CHTO   O72  300   6.243   7.192   2.900  0.6707  0.5747 -0.7189
    1CHTO  H199  301   6.176   7.200   2.830 -1.2106  0.6949 -0.9443
    1CHTO   O22  302   6.751   7.178   2.863  0.0092  0.1667 -0.2734
    1CHTO   C31  303   6.732   7.291   2.766  0.6060 -0.2532 -0.0061
    1CHTO   H59  304   6.661   7.255   2.692  0.4124 -0.5584 -0.4150
    1CHTO   C29  305   6.678   7.423   2.826  0.3851  0.6839 -0.1104
    1CHTO   H57  306   6.757   7.439   2.909  0.8986  1.9878  0.6982
    1CHTO   O21  307   6.556   7.401   2.890 -0.1473  0.9706 -0.2857
    1CHTO   H37  308   6.489   7.391   2.825  0.5181 -1.9995  0.2583
    1CHTO   C27  309   6.678   7.547   2.721  0.3519 -0.5893  0.3398
    1CHTO   H55  310   6.612   7.517   2.638 -0.6490  1.1770 -1.1169
    1CHTO    N5  311   6.627   7.675   2.766  0.2768  0.3443  0.8028
    1CHTO   H43  312   6.529   7.659   2.812 -3.6477 -0.5950  1.8468
    1CHTO   H44  313   6.690   7.703   2.848 -1.7981 -2.5301 -2.1058
    1CHTO   C25  314   6.821   7.563   2.661 -0.1334  0.3380 -0.2109
    1CHTO   H53  315   6.892   7.600   2.739  0.3700  2.0617 -1.1898
    1CHTO   O17  316   6.869   7.434   2.605  0.4900  0.0973 -0.6936
    1CHTO   C32  317   6.866   7.321   2.692  0.0363  0.0236  0.3410
    1CHTO   H60  318   6.946   7.334   2.767  1.0754 -0.1201 -0.0738
    1CHTO   C36  319   6.919   7.205   2.603 -0.1405 -1.0743  0.3502
    1CHTO   O25  320   7.041   7.230   2.539  0.0021  0.1587 -0.4334
    1CHTO   H40  321   7.101   7.273   2.604 -0.9903 -3.1293  2.6002
    1CHTO   O15  322   6.819   7.663   2.547  0.1153  0.2586  0.2690
    1CHTO   C19  323   6.754   7.713   2.425  0.6327 -0.1971 -0.3310
    1CHTO   H47  324   6.645   7.698   2.443 -0.8392 -3.2887 -0.0126
    1CHTO   C20  325   6.778   7.864   2.424  0.2881  0.3198  0.4915
    1CHTO   H48  326   6.890   7.887   2.428  1.4919  0.9693 -1.5455
    1CHTO   O19  327   6.733   7.921   2.547 -0.1567 -0.6295  0.2036
    1CHTO   H35  328   6.795   7.899   2.617  0.6737 -2.3292  0.0045
    1CHTO   C21  329   6.726   7.928   2.294  0.9096 -0.6551  0.7040
    1CHTO   H49  330   6.621   7.913   2.289  1.6313 -0.1483 -1.1948
    1CHTO    N4  331   6.739   8.076   2.285  0.1006 -0.3584  0.4959
    1CHTO   H41  332   6.847   8.096   2.290 -0.7929 -0.4243 -1.1533
    1CHTO   H42  333   6.691   8.138   2.363  2.3681  0.6334  0.6888
    1CHTO   C22  334   6.781   7.857   2.168  0.3560  0.3903 -0.5121
    1CHTO   H50  335   6.887   7.865   2.179  1.2149  0.1832  0.7042
    1CHTO   O14  336   6.739   7.714   2.173  0.2672 -0.0283 -0.1967
    1CHTO   C23  337   6.792   7.645   2.293 -0.0675  0.6591 -0.3691
    1CHTO   H51  338   6.894   7.639   2.283 -2.0648 -2.8737  0.6564
    1CHTO   C34  339   6.746   7.499   2.298  0.3765  0.2397  0.0581
    1CHTO   O23  340   6.608   7.483   2.268  0.4239  0.1107  0.6583
    1CHTO   H38  341   6.581   7.395   2.300 -0.3876 -2.4753 -0.1415
    1CHTO   O16  342   6.724   7.902   2.041 -0.4086  0.5202  0.1804
    1CHTO   C24  343   6.808   7.844   1.915  0.2137 -0.1587  0.4483
    1CHTO   H52  344   6.881   7.772   1.945  1.9389 -1.3347  1.2934
    1CHTO   C26  345   6.868   7.968   1.848  0.0409  0.4583  0.2323
    1CHTO   H54  346   6.779   8.044   1.823 -0.3667 -1.1798 -1.7700
    1CHTO   O20  347   6.960   8.036   1.937  0.1006  0.0905 -1.0702
    1CHTO   H36  348   6.920   8.118   1.953  0.2171  1.0603  1.1284
    1CHTO   C30  349   6.931   7.942   1.711 -0.4215  0.7327  0.0880
    1CHTO   H58  350   7.025   7.878   1.722  2.2515 -0.0380  3.8232
    1CHTO    N6  351   6.975   8.066   1.643 -0.9448 -0.6601  0.7182
    1CHTO   H45  352   6.916   8.088   1.555 -3.4256 -0.2072  1.3103
    1CHTO   H46  353   6.976   8.153   1.709  0.1410  2.5080  2.2653
    1CHTO   C33  354   6.840   7.860   1.617 -0.0596  0.7556  0.6518
    1CHTO   H61  355   6.748   7.917   1.594 -3.4280  1.6145  0.6639
    1CHTO   O18  356   6.800   7.745   1.697 -0.1322 -0.2016 -0.4357
    1CHTO   C28  357   6.714   7.770   1.812 -0.8076 -0.0866  0.1321
    1CHTO   H56  358   6.633   7.835   1.788  0.8075  1.2267  0.5312
    1CHTO   C35  359   6.650   7.637   1.876 -0.0636 -0.0470  0.6301
    1CHTO   O24  360   6.603   7.545   1.773  0.3430 -0.7298 -0.0654
    1CHTO   H39  361   6.593   7.456   1.800 -0.1700  0.2482  0.1833
    1CHTO    O9  362   6.888   7.816   1.486 -0.3491  0.2318 -0.1795
    1CHTO   C13  363   6.770   7.841   1.380  0.2781 -0.5270  0.2912
    1CHTO   H26  364   6.738   7.955   1.388 -0.9405  5.1099 -1.6452
    1CHTO   C11  365   6.644   7.749   1.404 -0.1572 -0.0072  0.1266
    1CHTO   H24  366   6.596   7.782   1.493 -0.2281  0.3532 -2.1309
    1CHTO    O8  367   6.693   7.618   1.427  0.4523 -0.1474 -0.2394
    1CHTO    H3  368   6.623   7.561   1.456 -2.7046 -2.2996 -1.8074
    1CHTO    C9  369   6.541   7.775   1.296  0.0393 -0.4906 -0.7861
    1CHTO   H22  370   6.517   7.881   1.298  2.1057  1.6281  0.0089
    1CHTO    N2  371   6.412   7.708   1.324  0.4141  0.0212  0.2226
    1CHTO   H10  372   6.406   7.606   1.341 -2.3474  2.5376  4.2696
    1CHTO   H11  373   6.390   7.752   1.417 -0.2665  2.0374 -1.8855
    1CHTO    C7  374   6.603   7.740   1.155 -0.1597 -0.8130  0.4767
    1CHTO   H20  375   6.519   7.776   1.088 -0.2721 -0.4539  1.4619
    1CHTO    O4  376   6.726   7.805   1.123  0.2920  0.1676  0.3365
    1CHTO   C14  377   6.823   7.826   1.228 -0.2091 -0.2153  0.4688
    1CHTO   H27  378   6.879   7.910   1.210  1.7801 -2.1996  4.4840
    1CHTO   C18  379   6.917   7.706   1.210  0.1970  0.3473  0.6221
    1CHTO   O13  380   7.002   7.727   1.093 -0.0770  0.2224  0.0827
    1CHTO    H7  381   7.058   7.657   1.079 -1.7271  1.7655  0.3323
    1CHTO    O2  382   6.617   7.573   1.139 -0.5145  1.2887  0.1175
    1CHTO    C1  383   6.695   7.525   1.031 -0.0737  0.2976  0.8429
    1CHTO   H14  384   6.801   7.553   1.042 -1.7041  0.8298 -0.8642
    1CHTO    C2  385   6.645   7.563   0.884  1.0867 -0.2626 -0.6351
    1CHTO   H15  386   6.539   7.532   0.895  2.7099 -2.1822  1.8597
    1CHTO    O6  387   6.651   7.704   0.852 -0.0114  0.0214 -0.4335
    1CHTO    H1  388   6.605   7.726   0.773  0.7015 -0.6361 -2.3223
    1CHTO    C3  389   6.709   7.481   0.767  0.3789  0.1208 -1.0118
    1CHTO   H16  390   6.808   7.513   0.750 -1.6086 -1.3210  1.9399
    1CHTO    N1  391   6.627   7.496   0.643 -0.4553 -0.2913  0.0444
    1CHTO    H8  392   6.678   7.443   0.568  0.8381 -2.2523  0.6659
    1CHTO    H9  393   6.611   7.592   0.595 -1.1343  0.0202  1.7405
    1CHTO    C4  394   6.712   7.332   0.810 -0.2970  0.1659 -0.5434
    1CHTO   H17  395   6.607   7.294   0.808 -2.6855 -1.0218 -2.1436
    1CHTO    O1  396   6.769   7.314   0.939 -0.2962  0.4510 -0.1890
    1CHTO    C5  397   6.696   7.368   1.052 -0.0896 -0.3574 -0.3806
    1CHTO   H18  398   6.587   7.338   1.057  0.0458  3.0374 -0.6572
    1CHTO   C16  399   6.760   7.335   1.194  0.1897  0.0435 -0.0104
    1CHTO   O11  400   6.770   7.191   1.210  0.4202  0.4633 -0.3985
    1CHTO    H5  401   6.811   7.174   1.297  0.3569 -0.3016  3.5506
    1CHTO    O3  402   6.793   7.256   0.720  0.5512 -0.0558  0.0941
    1CHTO    C6  403   6.773   7.111   0.736  0.4366  0.0927  0.3763
    1CHTO   H19  404   6.720   7.076   0.822 -1.1168 -2.8184 -0.7263
    1CHTO    C8  405   6.684   7.060   0.620 -0.5962 -0.6448 -0.1259
    1CHTO   H21  406   6.734   7.082   0.528  1.7058 -0.0430 -0.3289
    1CHTO    O7  407   6.554   7.118   0.633 -0.5334  0.2677  0.2602
    1CHTO    H2  408   6.564   7.204   0.675 -0.6070 -0.5106 -1.1108
    1CHTO   C12  409   6.678   6.899   0.634 -0.2202  0.1951 -0.0546
    1CHTO   H25  410   6.634   6.896   0.728  0.4711  2.7998  0.3166
    1CHTO    N3  411   6.586   6.837   0.529  0.2520 -0.0870  0.6265
    1CHTO   H12  412   6.543   6.744   0.565  0.0123 -0.5971  1.5973
    1CHTO   H13  413   6.516   6.907   0.477 -2.6059  0.9990 -0.3847
    1CHTO   C15  414   6.825   6.832   0.632 -0.4715 -0.4369 -0.6739
    1CHTO   H28  415   6.869   6.835   0.536 -1.7589  2.5845  1.7908
    1CHTO   O10  416   6.828   6.687   0.676  0.3805  0.1541  0.4585
    1CHTO    H4  417   6.766   6.678   0.746  1.5677  0.6366 -1.2080
    1CHTO    O5  418   6.906   6.889   0.734  0.6007 -0.1407  0.0884
    1CHTO   C10  419   6.916   7.037   0.731  0.3274 -0.0918 -0.1246
    1CHTO   H23  420   6.977   7.065   0.645 -0.2636  0.3561  0.8863
    1CHTO   C17  421   7.009   7.083   0.848  0.2935 -0.5455 -0.5610
    1CHTO   O12  422   7.127   7.011   0.843 -0.1239 -0.0013  0.1656
    1CHTO    H6  423   7.186   7.083   0.843 -0.5151  2.0814 -1.9588
    2CHTO  H203  424   5.109   5.835   6.942  3.7567  2.4101  1.0584
    2CHTO   O82  425   5.094   5.833   7.034  0.0987  0.1457  0.0441
    2CHTO  C123  426   4.958   5.873   7.066  0.3369  0.1223 -0.4845
    2CHTO  H227  427   4.942   5.859   7.175  1.1931  1.7469  1.8572
    2CHTO   O77  428   4.970   6.020   7.035 -0.2269 -0.3393  1.0944
    2CHTO  C118  429   4.860   6.104   7.070  0.5874 -0.2690 -0.0752
    2CHTO  H222  430   4.839   6.101   7.182  1.7106  1.5289 -0.0444
    2CHTO  C125  431   4.893   6.252   7.027  0.3508 -0.3847 -0.6603
    2CHTO   O84  432   4.843   6.289   6.905 -0.5573  0.0266  0.0018
    2CHTO  H205  433   4.832   6.208   6.858  1.7948 -1.4386 -2.3458
    2CHTO  C114  434   4.734   6.047   7.004  0.3439  0.3146  0.5714
    2CHTO  H218  435   4.742   6.067   6.898  0.0236 -1.2895 -0.2326
    2CHTO  C116  436   4.716   5.888   7.018 -0.0160 -0.2269  0.2506
    2CHTO  H220  437   4.689   5.859   7.114  2.3184  1.2727  0.7471
    2CHTO   O79  438   4.599   5.863   6.934  0.0982 -0.1726  0.0105
    2CHTO  H201  439   4.514   5.901   6.965 -2.9596  1.3743 -1.2931
    2CHTO  C120  440   4.847   5.819   6.972  0.5586 -0.6470  0.8005
    2CHTO  H224  441   4.862   5.849   6.869 -0.1607  1.5009  0.7023
    2CHTO   N21  442   4.839   5.671   6.976  0.1705  0.3597 -0.2411
    2CHTO  H211  443   4.923   5.624   6.924 -0.6426 -0.5612 -1.0020
    2CHTO  H212  444   4.747   5.629   6.940  0.2767  3.2645  1.0900
    2CHTO   O75  445   4.638   6.129   7.070  0.1209 -0.4511 -0.1922
    2CHTO  C112  446   4.520   6.178   6.974 -0.0021  0.0112 -0.4538
    2CHTO  H216  447   4.498   6.106   6.902 -2.6848  2.4951 -3.7533
    2CHTO   O73  448   4.566   6.301   6.917  0.1906 -0.5445  0.5597
    2CHTO  C113  449   4.468   6.344   6.817 -0.5437  0.0574 -0.3507
    2CHTO  H217  450   4.462   6.262   6.732  0.6834 -1.7975 -2.0982
    2CHTO  C124  451   4.547   6.464   6.756  0.4674  0.2612  0.3194
    2CHTO   O83  452   4.495   6.487   6.625 -0.4864 -0.0705 -0.2706
    2CHTO  H204  453   4.414   6.531   6.633  0.2735  0.1059 -1.9096
    2CHTO  C109  454   4.330   6.374   6.886 -0.6309  0.4988  0.4193
    2CHTO  H213  455   4.346   6.458   6.954  0.1732 -0.5668 -0.8985
    2CHTO  C110  456   4.273   6.248   6.964  0.5183  0.3774  0.0056
    2CHTO  H214  457   4.264   6.169   6.890  1.3869 -2.4266  1.7141
    2CHTO   O78  458   4.146   6.265   7.032 -0.1355 -0.7698 -0.2521
    2CHTO  H200  459   4.091   6.310   6.974  0.9504 -2.9603 -1.4890
    2CHTO  C111  460   4.393   6.203   7.058  0.6392  0.1510  0.3057
    2CHTO  H215  461   4.410   6.281   7.136 -2.0339  1.8531 -2.6784
    2CHTO   N19  462   4.357   6.078   7.128  0.3398 -0.1877  0.7167
    2CHTO  H207  463   4.295   6.106   7.215  2.1279  0.9653  2.5005
    2CHTO  H208  464   4.316   6.002   7.064 -0.5325  1.1366  0.2970
    2CHTO   O74  465   4.228   6.421   6.788  0.2059  0.0884 -0.1733
    2CHTO  C115  466   4.202   6.326   6.662 -0.1382  0.1857 -0.0589
    2CHTO  H219  467   4.292   6.284   6.624  3.8163 -0.3520 -0.2714
    2CHTO   O76  468   4.096   6.194   6.701 -0.0870 -0.0002  0.0213
    2CHTO  C122  469   3.976   6.246   6.743 -0.1210 -0.1622  0.3785
    2CHTO  H226  470   4.004   6.305   6.831  1.8656  0.2782  3.1114
    2CHTO  C126  471   3.890   6.128   6.796 -0.3671 -0.2252 -0.2591
    2CHTO   O85  472   3.853   6.046   6.687  0.0782  0.0702  0.0847
    2CHTO  H206  473   3.815   5.966   6.720  0.5648 -1.3980 -2.4468
    2CHTO  C121  474   3.908   6.342   6.627  0.0704 -0.1757 -0.1330
    2CHTO  H225  475   3.811   6.292   6.587 -4.0550 -2.2963 -1.0335
    2CHTO   O81  476   3.874   6.461   6.691  0.1516 -0.6233  0.1598
    2CHTO  H202  477   3.785   6.467   6.719  0.6022  1.0268 -1.3841
    2CHTO  C119  478   4.002   6.365   6.508  0.1858 -0.6568 -0.4674
    2CHTO  H223  479   4.012   6.267   6.463 -1.1535 -2.0610 -2.9504
    2CHTO  C117  480   4.141   6.414   6.555  0.8498 -0.9794  0.0524
    2CHTO  H221  481   4.140   6.518   6.595  0.5668  0.0740 -1.4958
    2CHTO   N20  482   4.227   6.423   6.429  0.4579 -0.4647 -0.3784
    2CHTO  H209  483   4.319   6.466   6.457  1.1553 -0.6106  3.0774
    2CHTO  H210  484   4.182   6.474   6.344 -2.8057  1.2550 -0.1701
    2CHTO   O80  485   3.931   6.455   6.394  0.0523  0.0308 -0.0407
    2CHTO  C103  486   3.829   6.393   6.300 -0.9659  0.5516  0.5089
    2CHTO  H190  487   3.874   6.304   6.247  2.6618 -0.9675 -0.1806
    2CHTO  C101  488   3.680   6.358   6.351 -0.0332 -0.0743  0.1155
    2CHTO  H188  489   3.659   6.433   6.432  0.0042  2.4315  4.2139
    2CHTO   O68  490   3.675   6.230   6.429  0.8373  0.7651 -0.4639
    2CHTO  H168  491   3.717   6.161   6.384 -1.2101  0.6791  2.0562
    2CHTO   C99  492   3.575   6.369   6.231  0.0713  0.2220  0.5294
    2CHTO  H186  493   3.613   6.289   6.159  1.4869  1.5249 -0.8851
    2CHTO   N17  494   3.433   6.339   6.270  0.1216 -0.1119  0.1193
    2CHTO  H174  495   3.376   6.305   6.185 -2.5425 -2.9606  0.1642
    2CHTO  H175  496   3.439   6.275   6.359 -1.0014  1.0814 -1.3028
    2CHTO   C97  497   3.591   6.497   6.153 -0.3086  0.3809 -0.1152
    2CHTO  H184  498   3.584   6.581   6.230 -0.5311  3.0347  0.0594
    2CHTO   O64  499   3.722   6.483   6.097 -0.3885 -0.0696  0.0296
    2CHTO  C104  500   3.823   6.509   6.192 -0.0050  0.1994 -0.2518
    2CHTO  H191  501   3.804   6.605   6.243 -2.3289  0.5112 -2.0655
    2CHTO  C108  502   3.955   6.524   6.116 -0.2902 -0.9753 -0.1850
    2CHTO   O71  503   3.941   6.644   6.038 -0.2720  0.0782 -0.4798
    2CHTO  H171  504   3.997   6.649   5.965  0.3052  2.0075  0.2464
    2CHTO   O62  505   3.514   6.520   6.034 -0.1483  0.1890 -0.1735
    2CHTO   C91  506   3.477   6.652   5.986  0.3257 -0.4772 -0.1492
    2CHTO  H178  507   3.404   6.687   6.063 -4.8257 -0.8121  0.0517
    2CHTO   C92  508   3.413   6.648   5.844  0.4051  0.1947  0.0645
    2CHTO  H179  509   3.342   6.566   5.843  3.1765  0.2450 -0.3654
    2CHTO   O66  510   3.335   6.767   5.824  0.1972  0.4033 -0.3368
    2CHTO  H166  511   3.351   6.835   5.885  1.0409 -0.3319 -0.2605
    2CHTO   C93  512   3.523   6.640   5.728  0.4701 -0.3165 -0.7332
    2CHTO  H180  513   3.494   6.708   5.643 -0.6049  0.3521 -0.8988
    2CHTO   N16  514   3.523   6.508   5.667  0.5199 -0.6041 -0.0284
    2CHTO  H172  515   3.576   6.506   5.575  0.7176  0.2089  0.7111
    2CHTO  H173  516   3.419   6.488   5.638 -2.2648 -1.1157 -1.8724
    2CHTO   C94  517   3.661   6.682   5.782 -0.2399  0.1551  0.0578
    2CHTO  H181  518   3.715   6.592   5.832 -3.2523 -1.0312 -0.4065
    2CHTO   O61  519   3.653   6.787   5.873 -0.1409  0.0227 -0.2889
    2CHTO   C95  520   3.594   6.759   5.997 -0.2518 -0.3151  0.0259
    2CHTO  H182  521   3.665   6.726   6.063 -1.9756  3.3901 -0.8648
    2CHTO  C106  522   3.530   6.893   6.046  0.0212  0.0736 -0.1649
    2CHTO   O69  523   3.622   6.979   6.115 -0.0840 -0.2186  0.0748
    2CHTO  H169  524   3.578   7.015   6.190  2.4569  0.0744  2.1945
    2CHTO   O63  525   3.750   6.729   5.662 -0.0170  0.3221  0.3088
    2CHTO   C96  526   3.877   6.800   5.691  0.3556  0.0400 -0.2322
    2CHTO  H183  527   3.890   6.799   5.804 -1.2618 -0.6607  0.6015
    2CHTO   C98  528   3.881   6.945   5.651 -0.5849  0.0266 -0.7145
    2CHTO  H185  529   3.867   6.944   5.541  0.7297 -1.1924  0.7317
    2CHTO   O67  530   3.771   7.020   5.711 -0.2309 -0.7285  0.3279
    2CHTO  H167  531   3.784   7.038   5.806  2.1992  1.6593 -0.5743
    2CHTO  C102  532   4.025   7.013   5.687  0.1449 -0.0046  0.2957
    2CHTO  H189  533   4.028   7.024   5.801  3.0915  0.0328  0.3393
    2CHTO   N18  534   4.045   7.153   5.638  0.8035 -0.6941 -0.0442
    2CHTO  H176  535   4.131   7.196   5.680  0.6990  0.7026 -0.7839
    2CHTO  H177  536   3.961   7.209   5.677  3.3542  0.4473 -1.2532
    2CHTO  C105  537   4.140   6.923   5.643 -0.0651  0.0052 -0.0258
    2CHTO  H192  538   4.136   6.918   5.538  1.0951 -0.2786 -0.8526
    2CHTO   O65  539   4.122   6.781   5.677  0.7730  0.0217  0.2445
    2CHTO  C100  540   4.004   6.719   5.628  0.4999 -0.8325  0.4922
    2CHTO  H187  541   4.000   6.708   5.514 -2.4779  0.3857 -2.4897
    2CHTO  C107  542   4.012   6.576   5.686  0.0227 -0.7752 -0.2612
    2CHTO   O70  543   3.900   6.491   5.654  0.5872  0.2147 -0.8739
    2CHTO  H170  544   3.907   6.478   5.561  1.3532  2.1789  0.0331
    2CHTO   O57  545   4.284   6.981   5.705  0.0661 -0.6149 -0.0790
    2CHTO   C85  546   4.352   6.894   5.799  0.4727 -0.0080  0.1280
    2CHTO  H157  547   4.336   6.797   5.766  0.3112  3.9496 -0.6938
    2CHTO   C83  548   4.285   6.895   5.938 -0.8683  0.5948 -0.5868
    2CHTO  H155  549   4.187   6.846   5.925 -2.1818 -0.8245  2.1902
    2CHTO   O56  550   4.271   7.036   5.982  0.4013 -0.2282 -0.6898
    2CHTO  H135  551   4.194   7.079   5.946 -0.4953 -0.0353 -0.5488
    2CHTO   C81  552   4.380   6.797   6.023  0.4185  0.4366  0.2048
    2CHTO  H153  553   4.374   6.700   5.981  1.3122 -0.8369 -0.3705
    2CHTO   N14  554   4.330   6.781   6.162 -0.5900 -0.5166  0.6207
    2CHTO  H141  555   4.402   6.792   6.233 -1.9587  1.7054 -4.0403
    2CHTO  H142  556   4.275   6.693   6.174  1.9055 -1.2401  1.6954
    2CHTO   C79  557   4.534   6.829   6.024  0.3449 -0.6193 -0.9307
    2CHTO  H151  558   4.583   6.743   6.073  0.0026 -0.0515 -2.9628
    2CHTO   O52  559   4.586   6.844   5.892 -0.6438  0.1974  0.7791
    2CHTO   C86  560   4.503   6.931   5.811  0.3313 -0.3824 -0.3631
    2CHTO  H158  561   4.503   7.032   5.867 -1.4771 -0.8941  1.0546
    2CHTO   C90  562   4.568   6.963   5.674  0.9658 -0.4091 -0.6006
    2CHTO   O60  563   4.590   6.850   5.589 -0.7820  0.3644 -0.0612
    2CHTO  H138  564   4.677   6.813   5.599 -2.3166 -1.9246 -1.2590
    2CHTO   O50  565   4.573   6.956   6.083  0.5630 -1.1514 -0.1363
    2CHTO   C73  566   4.683   7.036   6.131 -0.0692  0.2357  0.2218
    2CHTO  H145  567   4.653   7.138   6.129  2.8599 -3.5093  0.0704
    2CHTO   C74  568   4.803   7.026   6.038 -0.4255 -0.8803  0.6171
    2CHTO  H146  569   4.773   7.047   5.930 -1.3607 -5.1225  1.0119
    2CHTO   O54  570   4.895   7.131   6.072  0.0359 -0.0717  0.0137
    2CHTO  H133  571   4.965   7.145   6.013  2.7792 -1.7922 -1.8651
    2CHTO   C75  572   4.871   6.882   6.051 -0.5234 -0.2312  0.4217
    2CHTO  H147  573   4.798   6.806   6.032  2.3857  0.2666 -0.3206
    2CHTO   N13  574   4.987   6.860   5.957 -0.2928  0.1642 -0.7624
    2CHTO  H139  575   5.009   6.951   5.902 -1.4512 -2.1020  0.0459
    2CHTO  H140  576   4.956   6.782   5.881  1.4467 -0.3460  0.6053
    2CHTO   C76  577   4.906   6.871   6.208 -0.8690  0.1257 -0.3939
    2CHTO  H148  578   4.978   6.952   6.227  0.6002 -1.9879  0.4521
    2CHTO   O49  579   4.783   6.880   6.288 -0.3326 -0.0405  0.0114
    2CHTO   C77  580   4.722   7.004   6.276  0.2325  0.5656  0.3918
    2CHTO  H149  581   4.788   7.083   6.312 -1.8281  0.6895  0.1409
    2CHTO   C88  582   4.598   7.007   6.369  0.5383  0.3511 -0.5109
    2CHTO   O58  583   4.532   7.160   6.380  0.0867  0.4625  0.8650
    2CHTO  H136  584   4.586   7.221   6.334  1.9273 -0.8450  0.2539
    2CHTO   O51  585   4.971   6.735   6.262  0.2434  0.1712  0.6165
    2CHTO   C78  586   5.067   6.763   6.390 -0.0766 -0.0443  0.2508
    2CHTO  H150  587   5.032   6.849   6.457 -0.3286 -0.7174  1.2865
    2CHTO   C80  588   5.212   6.799   6.352 -0.1192  0.2061 -0.1665
    2CHTO  H152  589   5.257   6.720   6.299 -0.9929 -0.3027 -0.9113
    2CHTO   O55  590   5.195   6.911   6.260 -0.0967  0.0996  0.2525
    2CHTO  H134  591   5.275   6.948   6.242  0.8414 -0.4815 -0.6152
    2CHTO   C84  592   5.295   6.842   6.483 -0.5752 -0.1882  0.1949
    2CHTO  H156  593   5.250   6.938   6.518 -0.6132 -0.8196  1.1028
    2CHTO   N15  594   5.432   6.874   6.435 -0.1128  0.4148  0.1027
    2CHTO  H143  595   5.453   6.968   6.483  1.5082 -1.1765 -1.1999
    2CHTO  H144  596   5.496   6.794   6.473 -1.4092 -3.8429  1.3445
    2CHTO   C87  597   5.294   6.719   6.584 -0.0785  0.5398 -0.1674
    2CHTO  H159  598   5.363   6.642   6.553  0.7376  1.3667  0.5888
    2CHTO   O53  599   5.145   6.661   6.603 -0.9792  0.2029  0.2020
    2CHTO   C82  600   5.066   6.645   6.487 -0.2089  0.1219 -0.1207
    2CHTO  H154  601   5.115   6.562   6.429  1.6154  0.8859  0.1308
    2CHTO   C89  602   4.927   6.597   6.520 -0.7378 -0.0619  0.5833
    2CHTO   O59  603   4.852   6.669   6.616  0.5756 -0.0501  0.3009
    2CHTO  H137  604   4.769   6.622   6.618  0.4236  1.9811 -0.5403
    2CHTO   O45  605   5.361   6.771   6.726  0.2822  0.1329  0.1184
    2CHTO   C67  606   5.387   6.667   6.825 -0.4152  0.2504 -0.2242
    2CHTO  H124  607   5.306   6.613   6.827  2.2882 -0.1294 -0.5019
    2CHTO   C65  608   5.506   6.573   6.776 -0.1502  0.1286 -0.0478
    2CHTO  H122  609   5.557   6.634   6.701 -2.4752  0.1123 -0.0376
    2CHTO   O44  610   5.436   6.466   6.706  0.1007 -0.7029  0.0812
    2CHTO  H102  611   5.491   6.390   6.722 -0.6042  0.5146  1.3337
    2CHTO   C63  612   5.601   6.527   6.892 -0.3453  0.5742 -0.4196
    2CHTO  H120  613   5.685   6.600   6.907 -2.5636 -0.4352  0.5193
    2CHTO   N11  614   5.683   6.403   6.860 -0.2556 -0.8690 -0.1797
    2CHTO  H108  615   5.637   6.317   6.886 -0.1213  1.4459 -0.0013
    2CHTO  H109  616   5.792   6.412   6.891  3.5578  3.6950 -0.4803
    2CHTO   C61  617   5.532   6.512   7.033 -0.3212  0.6141  0.4231
    2CHTO  H118  618   5.615   6.501   7.105 -1.3917  0.0864 -0.6792
    2CHTO   O40  619   5.453   6.625   7.068 -1.0991  0.6642  0.2691
    2CHTO   C68  620   5.412   6.722   6.971 -0.3263  0.1211  0.2856
    2CHTO  H125  621   5.494   6.794   6.955 -1.8094 -1.9555  1.4418
    2CHTO   C72  622   5.284   6.801   7.013  0.1470 -0.3493  0.8404
    2CHTO   O48  623   5.312   6.890   7.121 -0.4294 -0.1795 -0.1064
    2CHTO  H105  624   5.310   6.837   7.194 -1.5765 -0.4107 -0.5585
    2CHTO   O38  625   5.444   6.399   7.037 -0.0560 -0.1515 -0.5297
    2CHTO   C55  626   5.410   6.349   7.168  0.7159 -0.7828  0.3751
    2CHTO  H112  627   5.421   6.423   7.252 -2.9828 -1.5899 -0.8323
    2CHTO   C56  628   5.493   6.212   7.195 -0.1512 -0.3099 -0.0885
    2CHTO  H113  629   5.490   6.163   7.097  0.5492 -1.5372  0.2590
    2CHTO   O42  630   5.632   6.248   7.210 -0.3938 -0.0329  0.1771
    2CHTO  H100  631   5.654   6.307   7.281  1.1663  1.4042 -0.3671
    2CHTO   C57  632   5.435   6.120   7.312  0.7588  0.4037 -0.3992
    2CHTO  H114  633   5.459   6.168   7.410  0.0387 -0.5269  0.2743
    2CHTO   N10  634   5.484   5.981   7.317  0.3164  0.2705  0.0800
    2CHTO  H106  635   5.512   5.953   7.219  0.0443  0.0587  1.9162
    2CHTO  H107  636   5.572   5.994   7.373 -1.2520 -0.5567 -0.5302
    2CHTO   C58  637   5.276   6.118   7.301  0.4086  0.5714 -0.1055
    2CHTO  H115  638   5.247   6.060   7.220  0.1767 -0.5274  0.3950
    2CHTO   O37  639   5.224   6.259   7.292  0.1939 -0.2340  0.3721
    2CHTO   C59  640   5.253   6.320   7.164 -0.9989  0.0178 -0.5416
    2CHTO  H116  641   5.223   6.265   7.076  0.1294  0.9578 -2.4760
    2CHTO   C70  642   5.184   6.459   7.150 -0.3395 -0.0141 -0.7878
    2CHTO   O46  643   5.192   6.543   7.262 -0.1500  0.3308  0.0320
    2CHTO  H103  644   5.126   6.526   7.324  1.1266  2.3218  2.1187
    2CHTO   O39  645   5.213   6.056   7.445  0.3419  0.4762 -0.4345
    2CHTO   C60  646   5.081   6.098   7.481  0.2834  0.0965  0.1564
    2CHTO  H117  647   5.053   6.178   7.406  2.1662 -0.2889  0.5999
    2CHTO   C62  648   4.969   5.986   7.468 -0.0875 -0.0379 -0.4139
    2CHTO  H119  649   4.984   5.931   7.372 -1.5742  0.5194  1.8024
    2CHTO   O43  650   5.003   5.889   7.570  0.8969 -0.3685 -0.5130
    2CHTO  H101  651   4.936   5.846   7.620  0.8816 -4.2983 -0.0272
    2CHTO   C66  652   4.823   6.045   7.467  0.5367 -0.0493  0.4504
    2CHTO  H123  653   4.821   6.120   7.386  0.1230  0.3073 -1.1625
    2CHTO   N12  654   4.712   5.952   7.436 -0.1511  0.2182  0.3427
    2CHTO  H110  655   4.704   5.883   7.516  2.1499  2.5846 -1.8475
    2CHTO  H111  656   4.617   6.005   7.431  0.8843 -0.5950 -1.0564
    2CHTO   C69  657   4.802   6.128   7.597 -0.3359  0.1778  0.7935
    2CHTO  H126  658   4.767   6.050   7.678  1.2818  0.5828  0.2463
    2CHTO   O41  659   4.957   6.203   7.661  0.0635  0.1321  0.3029
    2CHTO   C64  660   5.070   6.161   7.619  0.7146 -0.4331  0.3075
    2CHTO  H121  661   5.118   6.096   7.684 -1.9716  2.3785 -1.4446
    2CHTO   C71  662   5.173   6.280   7.633  0.2035  0.2170 -0.3489
    2CHTO   O47  663   5.185   6.324   7.768 -0.5026  0.4217  0.3425
    2CHTO  H104  664   5.209   6.257   7.822 -0.9750 -0.3297 -0.0298
    2CHTO   O34  665   4.671   6.246   7.562  0.6243  0.0955  0.6869
    2CHTO   C49  666   4.647   6.387   7.573 -0.2707  0.0047  0.3215
    2CHTO   H91  667   4.550   6.389   7.623  0.0132 -1.7374 -1.3320
    2CHTO   C47  668   4.622   6.447   7.431  0.1054 -0.1844 -0.6372
    2CHTO   H89  669   4.575   6.553   7.432  0.4714  1.2263 -0.6795
    2CHTO   O33  670   4.533   6.358   7.356 -0.2765 -0.0881 -0.1914
    2CHTO   H70  671   4.567   6.273   7.350  2.0903 -0.3226  0.0072
    2CHTO   C45  672   4.764   6.462   7.350 -0.1520  0.3694 -0.0812
    2CHTO   H87  673   4.813   6.373   7.330  1.9009  1.4653  1.6279
    2CHTO    N8  674   4.741   6.531   7.220  0.5705  0.0638 -0.1447
    2CHTO   H75  675   4.657   6.595   7.228 -0.4068 -0.7679 -0.4388
    2CHTO   H76  676   4.831   6.575   7.187  2.4689 -1.2821  0.2524
    2CHTO   C43  677   4.875   6.544   7.445  0.4977 -1.3285  0.4970
    2CHTO   H85  678   4.966   6.537   7.388 -0.0267  3.5653  0.6839
    2CHTO   O29  679   4.885   6.480   7.577 -0.2777  0.3414 -0.0025
    2CHTO   C50  680   4.764   6.457   7.646  0.1374  0.4414  0.8014
    2CHTO   H92  681   4.793   6.379   7.721  2.4643 -3.4210 -5.2315
    2CHTO   C54  682   4.710   6.587   7.720 -0.1744  0.5405  0.4617
    2CHTO   O36  683   4.811   6.611   7.816  0.4131 -0.8276  0.2195
    2CHTO   H72  684   4.780   6.664   7.879 -1.3849  1.2335  0.0124
    2CHTO   O27  685   4.843   6.684   7.458  0.8572  0.7939  0.1942
    2CHTO   C37  686   4.874   6.824   7.457 -0.0540 -0.4712 -0.6582
    2CHTO   H79  687   4.924   6.844   7.367 -2.9801 -0.9574  1.8964
    2CHTO   C38  688   4.740   6.902   7.471  0.4365 -0.1186 -0.4670
    2CHTO   H80  689   4.697   6.875   7.574  0.3634 -0.3474 -0.0056
    2CHTO   O31  690   4.657   6.862   7.364  0.4085 -0.1751  0.4687
    2CHTO   H68  691   4.659   6.773   7.338 -0.3494  0.8491  0.0902
    2CHTO   C39  692   4.763   7.061   7.473 -0.3616  0.2490  0.5406
    2CHTO   H81  693   4.806   7.105   7.377 -1.1736  0.9522 -0.7526
    2CHTO    N7  694   4.638   7.141   7.483  0.1254  0.4255  0.8599
    2CHTO   H73  695   4.603   7.209   7.399 -3.5337  0.3614 -0.1030
    2CHTO   H74  696   4.553   7.088   7.528 -2.2641 -0.9440 -0.7981
    2CHTO   C40  697   4.865   7.102   7.583 -0.1497  0.7120  0.2940
    2CHTO   H82  698   4.820   7.099   7.682 -0.6443 -1.4994  1.0640
    2CHTO   O26  699   4.989   7.019   7.568  0.5643  0.9087 -0.0600
    2CHTO   C41  700   4.963   6.870   7.577  0.5269 -0.1364 -0.0076
    2CHTO   H83  701   4.900   6.851   7.668 -2.2838 -1.7960 -0.0784
    2CHTO   C52  702   5.099   6.803   7.586  0.2343 -0.3534 -0.0601
    2CHTO   O35  703   5.214   6.805   7.480  0.3676  0.5754  0.1574
    2CHTO   H71  704   5.291   6.769   7.521 -0.1971  0.0791  0.5597
    2CHTO   O28  705   4.916   7.231   7.554  0.1710 -0.1567  0.2531
    2CHTO   C42  706   4.986   7.310   7.654 -0.5254 -0.8320 -1.3235
    2CHTO   H84  707   5.019   7.398   7.599  2.0015  4.2076 -0.6712
    2CHTO   C44  708   5.108   7.249   7.724  0.1096  0.1299 -0.1321
    2CHTO   H86  709   5.084   7.145   7.760 -4.8220  2.4138  0.5427
    2CHTO   O32  710   5.204   7.229   7.621  0.0896 -0.3025  0.2510
    2CHTO   H69  711   5.267   7.168   7.657 -0.2914  0.1264  3.4031
    2CHTO   C48  712   5.156   7.338   7.838 -0.6718 -0.1894 -0.5044
    2CHTO   H90  713   5.182   7.442   7.799  2.3492  2.5846  1.3259
    2CHTO    N9  714   5.283   7.300   7.903 -0.4425  0.4772  0.7393
    2CHTO   H77  715   5.297   7.370   7.989 -0.5100  0.0073  1.2624
    2CHTO   H78  716   5.360   7.312   7.829  1.1113  1.5258 -0.3544
    2CHTO   C51  717   5.035   7.363   7.942 -0.0677  0.3700  0.1249
    2CHTO   H93  718   4.997   7.259   7.964 -0.4770 -4.0956 -1.5575
    2CHTO   O30  719   4.942   7.438   7.868 -0.1166  0.2940  0.1161
    2CHTO   C46  720   4.877   7.359   7.748  0.3316  0.9683  0.8498
    2CHTO   H88  721   4.820   7.271   7.780 -0.3689 -0.2744 -0.9209
    2CHTO   C53  722   4.786   7.459   7.684  0.1677  0.4478  1.1473
    2CHTO   O72  723   4.672   7.515   7.755  0.2631 -0.5984  0.2447
    2CHTO  H199  724   4.605   7.454   7.783 -3.0182 -1.5743 -1.4025
    2CHTO   O22  725   5.053   7.445   8.057 -0.4962 -0.3425  0.0608
    2CHTO   C31  726   4.979   7.430   8.179  0.0629 -0.0290  0.4369
    2CHTO   H59  727   5.006   7.516   8.244 -0.8665 -3.1807 -4.5589
    2CHTO   C29  728   4.823   7.437   8.155  0.1587  0.0949  0.5937
    2CHTO   H57  729   4.793   7.361   8.081  1.8607  1.0302  0.5268
    2CHTO   O21  730   4.789   7.568   8.107 -0.3306  0.1840  0.0537
    2CHTO   H37  731   4.716   7.558   8.052  2.0916 -0.2780  0.6749
    2CHTO   C27  732   4.740   7.410   8.282 -0.3879 -0.6857 -0.7678
    2CHTO   H55  733   4.755   7.492   8.353  0.3878 -1.2873 -0.5602
    2CHTO    N5  734   4.591   7.397   8.262  0.0677  0.3296  0.2687
    2CHTO   H43  735   4.561   7.456   8.181  1.9885 -2.1054  2.7284
    2CHTO   H44  736   4.578   7.289   8.247 -0.4145 -1.5602 -1.0735
    2CHTO   C25  737   4.795   7.287   8.358 -0.8637  0.3951 -0.3239
    2CHTO   H53  738   4.776   7.199   8.293 -0.6345 -2.8078 -0.8009
    2CHTO   O17  739   4.934   7.292   8.382 -0.2426 -0.2671 -0.4023
    2CHTO   C32  740   5.019   7.304   8.262 -1.4659  0.5788 -0.1383
    2CHTO   H60  741   5.008   7.218   8.200  1.7572 -0.3109 -1.3202
    2CHTO   C36  742   5.170   7.306   8.298 -0.0655 -0.5977  0.3588
    2CHTO   O25  743   5.215   7.180   8.352  0.5787 -0.0669  0.2098
    2CHTO   H40  744   5.286   7.189   8.412  0.9040  0.7120  0.4817
    2CHTO   O15  745   4.720   7.253   8.494  0.7229  0.3447  0.2255
    2CHTO   C19  746   4.627   7.207   8.595 -0.2892  0.0071  0.4261
    2CHTO   H47  747   4.526   7.243   8.556  0.4017  0.6104 -4.0171
    2CHTO   C20  748   4.633   7.053   8.611 -0.4568  0.1874  0.1023
    2CHTO   H48  749   4.739   7.016   8.638  2.3763  2.1702 -1.7114
    2CHTO   O19  750   4.595   7.005   8.478  0.3049  0.4931  0.0056
    2CHTO   H35  751   4.667   7.025   8.420  1.0612 -0.9775 -0.7315
    2CHTO   C21  752   4.527   7.005   8.719 -0.6366  0.1927 -0.1508
    2CHTO   H49  753   4.426   7.032   8.689  2.8272 -2.9528  4.3159
    2CHTO    N4  754   4.543   6.856   8.736  0.2962  0.2417 -0.3670
    2CHTO   H41  755   4.505   6.826   8.830  1.0081 -0.8730 -3.7233
    2CHTO   H42  756   4.644   6.817   8.728 -2.8017 -0.7780 -0.7049
    2CHTO   C22  757   4.565   7.079   8.853  0.3837  0.1962  0.2677
    2CHTO   H50  758   4.662   7.044   8.884 -1.5056  0.4567  0.3737
    2CHTO   O14  759   4.569   7.221   8.830  0.8530 -0.3216 -0.1764
    2CHTO   C23  760   4.658   7.275   8.739  0.3972  0.2174 -0.3522
    2CHTO   H51  761   4.762   7.251   8.783 -0.6886 -0.5858  1.0099
    2CHTO   C34  762   4.644   7.424   8.744  0.3922  0.0794  0.2129
    2CHTO   O23  763   4.694   7.476   8.867 -0.0400  0.1461 -0.4191
    2CHTO   H38  764   4.662   7.563   8.885  1.6092 -0.3571 -1.3733
    2CHTO   O16  765   4.467   7.060   8.952 -0.2513  0.3958 -0.2511
    2CHTO   C24  766   4.533   7.084   9.102  0.0901 -0.2435 -0.0753
    2CHTO   H52  767   4.633   7.116   9.097 -0.6001  1.9001 -1.2433
    2CHTO   C26  768   4.523   6.946   9.168  0.1684  0.2790  0.9916
    2CHTO   H54  769   4.417   6.912   9.171  0.7135  0.7457  0.0071
    2CHTO   O20  770   4.600   6.852   9.086  0.4004  0.1629  0.0607
    2CHTO   H36  771   4.674   6.833   9.134 -0.5252  4.0237 -1.2826
    2CHTO   C30  772   4.575   6.950   9.316 -0.3010  0.0082  0.2779
    2CHTO   H58  773   4.687   6.962   9.319 -1.6049 -1.7918  0.3853
    2CHTO    N6  774   4.560   6.815   9.381  0.5043 -0.1486 -0.3217
    2CHTO   H45  775   4.453   6.800   9.411 -0.1440 -0.8919 -0.4970
    2CHTO   H46  776   4.622   6.819   9.464  0.1765 -1.2313  1.0970
    2CHTO   C33  777   4.510   7.064   9.391  0.2277 -0.3080  0.1395
    2CHTO   H61  778   4.401   7.042   9.411 -1.8517 -1.5504 -0.8695
    2CHTO   O18  779   4.518   7.189   9.321 -0.0035 -0.2309  0.3972
    2CHTO   C28  780   4.461   7.192   9.186 -0.2024  0.4586 -1.0164
    2CHTO   H56  781   4.354   7.169   9.192 -0.0939 -1.0703 -0.0644
    2CHTO   C35  782   4.474   7.327   9.110  0.1034  0.8091 -0.2753
    2CHTO   O24  783   4.413   7.441   9.163 -0.5645 -0.1211 -0.6770
    2CHTO   H39  784   4.321   7.427   9.147  1.7737 -0.1631  0.7605
    2CHTO    O9  785   4.566   7.077   9.525  0.3028  0.0971  0.0951
    2CHTO   C13  786   4.500   7.196   9.618 -0.4341  0.0866  0.6952
    2CHTO   H26  787   4.425   7.249   9.554 -0.0615  0.9862  1.7094
    2CHTO   C11  788   4.624   7.286   9.647  0.4000  0.0419 -0.2314
    2CHTO   H24  789   4.648   7.348   9.556 -0.1712  0.4037  0.5206
    2CHTO    O8  790   4.748   7.229   9.694 -0.0153 -0.2295 -0.4052
    2CHTO    H3  791   4.751   7.221   9.793 -4.2422  0.7678  3.5885
    2CHTO    C9  792   4.572   7.402   9.742 -0.4984  0.6945  0.2586
    2CHTO   H22  793   4.486   7.445   9.689 -2.8508 -1.7051  2.2036
    2CHTO    N2  794   4.662   7.523   9.752 -0.9036 -0.0353 -0.4107
    2CHTO   H10  795   4.606   7.606   9.727  0.7518 -1.2534 -0.8700
    2CHTO   H11  796   4.715   7.536   9.848 -1.0364 -0.9215 -0.4037
    2CHTO    C7  797   4.508   7.355   9.871 -0.0727 -0.0280  0.2325
    2CHTO   H20  798   4.458   7.448   9.918 -0.8588 -0.3725  2.5440
    2CHTO    O4  799   4.414   7.248   9.856 -0.6207 -0.0326  0.1565
    2CHTO   C14  800   4.438   7.144   9.752  0.1572 -0.1587 -0.3282
    2CHTO   H27  801   4.339   7.119   9.728 -1.0877  0.1987  2.1788
    2CHTO   C18  802   4.504   7.024   9.814 -0.0563  0.2616 -0.1388
    2CHTO   O13  803   4.420   6.970   9.916  0.6198 -0.5187  0.1487
    2CHTO    H7  804   4.348   6.928   9.871 -0.1347  4.4493  0.1481
    2CHTO    O2  805   4.636   7.299   9.978 -0.7253  0.0596 -0.4968
    2CHTO    C1  806   4.593   7.270  10.108 -0.1159 -0.2214 -0.3418
    2CHTO   H14  807   4.522   7.186  10.112 -0.2113 -0.4648  3.3867
    2CHTO    C2  808   4.535   7.398  10.192 -0.0995  0.1830  0.5079
    2CHTO   H15  809   4.611   7.476  10.171 -1.1112  0.7375 -0.3239
    2CHTO    O6  810   4.408   7.451  10.151  0.1867 -0.6893 -0.3287
    2CHTO    H1  811   4.352   7.386  10.120  0.2121  1.3947 -0.8869
    2CHTO    C3  812   4.533   7.364  10.348  0.2873  0.2797 -0.4099
    2CHTO   H16  813   4.442   7.301  10.368 -1.5296 -2.0867  2.5368
    2CHTO    N1  814   4.521   7.485  10.430  1.1762 -0.6673 -0.2577
    2CHTO    H8  815   4.612   7.542  10.425  3.6587  3.5026 -1.2573
    2CHTO    H9  816   4.445   7.547  10.384 -0.0695 -3.5995  0.7190
    2CHTO    C4  817   4.656   7.277  10.393 -0.2583 -0.7837 -0.0430
    2CHTO   H17  818   4.744   7.340  10.389  0.2598  1.3895  1.4394
    2CHTO    O1  819   4.681   7.166  10.307 -0.1769  0.4485  0.2903
    2CHTO    C5  820   4.717   7.209  10.174 -0.3024 -0.0890  0.2675
    2CHTO   H18  821   4.785   7.290  10.190 -0.9536  1.7539  1.1231
    2CHTO   C16  822   4.784   7.094  10.102 -0.6584  0.4199  0.2840
    2CHTO   O11  823   4.824   7.109   9.965  0.1688 -0.1956  0.1196
    2CHTO    H5  824   4.917   7.086   9.959 -1.6753  1.3757  2.2685
    2CHTO    O3  825   4.641   7.231  10.533 -0.0937  0.4780 -0.6816
    2CHTO    C6  826   4.768   7.199  10.590  0.1153  0.3802 -0.0152
    2CHTO   H19  827   4.842   7.185  10.507  0.1757 -0.9475 -1.6850
    2CHTO    C8  828   4.805   7.313  10.694  0.5396  0.2188  0.5506
    2CHTO   H21  829   4.721   7.329  10.762 -0.6905 -0.6521 -0.4140
    2CHTO    O7  830   4.821   7.435  10.619  0.0378 -0.3945  0.3187
    2CHTO    H2  831   4.898   7.425  10.559  1.5368 -1.0697  0.1327
    2CHTO   C12  832   4.925   7.277  10.792 -0.0184 -0.4286 -0.3543
    2CHTO   H25  833   5.015   7.299  10.722  0.0559  0.3151 -0.0573
    2CHTO    N3  834   4.928   7.382  10.905  0.6650  0.2690  0.7558
    2CHTO   H12  835   4.932   7.338  11.000 -3.4060 -3.2691 -2.7070
    2CHTO   H13  836   4.998   7.462  10.886  0.2765 -0.6600 -0.0224
    2CHTO   C15  837   4.920   7.128  10.844 -0.2580  0.1472 -0.2584
    2CHTO   H28  838   4.862   7.117  10.935  1.7860 -1.0314 -0.7307
    2CHTO   O10  839   5.065   7.056  10.887  0.0078 -0.8135 -0.4792
    2CHTO    H4  840   5.064   7.016  10.972  0.1061  1.6805  1.5219
    2CHTO    O5  841   4.879   7.040  10.738  0.1236  0.2991 -0.0824
    2CHTO   C10  842   4.758   7.067  10.667  0.2410  0.8962 -0.1745
    2CHTO   H23  843   4.685   7.076  10.751 -1.4291  0.8114 -0.1180
    2CHTO   C17  844   4.732   6.939  10.587  0.8454 -0.1009 -0.1646
    2CHTO   O12  845   4.703   6.832  10.677 -0.0776  0.2601 -0.1739
    2CHTO    H6  846   4.730   6.747  10.651  0.7090  0.4256  0.5080
    3CHTO  H203  847   6.325   2.977   5.403  0.9223  0.8286  3.9198
    3CHTO   O82  848   6.341   2.949   5.312 -0.2312  0.1193  0.4067
    3CHTO  C123  849   6.214   2.921   5.245  0.6060  0.0949  0.7667
    3CHTO  H227  850   6.137   2.892   5.316 -2.9598  1.1773 -0.0690
    3CHTO   O77  851   6.174   3.048   5.193 -0.7424 -0.4193  0.1182
    3CHTO  C118  852   6.062   3.055   5.102 -0.5156  0.0638  0.2347
    3CHTO  H222  853   5.972   3.016   5.150 -1.2794 -2.5972 -1.5463
    3CHTO  C125  854   6.028   3.207   5.057  0.0420  0.0126  0.1328
    3CHTO   O84  855   6.018   3.303   5.165  0.8619  0.2940  0.0408
    3CHTO  H205  856   5.990   3.392   5.137 -0.8278  1.5025  1.1796
    3CHTO  C114  857   6.089   2.965   4.978 -0.7295 -0.2531  0.6829
    3CHTO  H218  858   6.185   2.999   4.934  1.3107  2.0677 -0.3110
    3CHTO  C116  859   6.099   2.818   5.038 -0.4826  0.8705  0.1346
    3CHTO  H220  860   6.004   2.792   5.100 -0.0365 -0.3432 -0.9003
    3CHTO   O79  861   6.105   2.720   4.926  0.4295 -0.2331  0.3495
    3CHTO  H201  862   6.180   2.734   4.871  1.8916  1.5415  1.0875
    3CHTO  C120  863   6.232   2.818   5.130  0.0952 -0.2796 -0.8158
    3CHTO  H224  864   6.323   2.836   5.070 -0.6011  1.4900  0.7360
    3CHTO   N21  865   6.250   2.683   5.189  0.0303 -0.2248  0.2242
    3CHTO  H211  866   6.359   2.675   5.183  0.9105  1.4374 -0.2942
    3CHTO  H212  867   6.212   2.607   5.117  1.5435  0.0614  1.0418
    3CHTO   O75  868   5.982   2.978   4.883 -0.3858  0.5877 -0.3157
    3CHTO  C112  869   6.043   2.956   4.715 -0.4900 -0.0879  0.0159
    3CHTO  H216  870   6.036   2.847   4.697 -1.0209  1.2391 -1.6615
    3CHTO   O73  871   6.180   3.006   4.702  0.1570  0.0667 -0.6331
    3CHTO  C113  872   6.226   2.993   4.566 -0.2526 -0.2132  0.3392
    3CHTO  H217  873   6.228   2.882   4.540 -0.0176 -2.3381  0.6820
    3CHTO  C124  874   6.367   3.047   4.565 -0.4713  0.6736  0.1032
    3CHTO   O83  875   6.435   3.034   4.437  0.1835  0.3437 -0.4015
    3CHTO  H204  876   6.503   3.097   4.433 -2.6185 -2.1441 -0.6602
    3CHTO  C109  877   6.136   3.059   4.462  0.3234  0.4982 -0.0021
    3CHTO  H213  878   6.144   3.171   4.472 -0.4484 -3.6353 -0.0904
    3CHTO  C110  879   5.987   3.009   4.476  0.1467 -0.8038  0.4937
    3CHTO  H214  880   5.982   2.902   4.453  3.9513 -1.0410 -1.6679
    3CHTO   O78  881   5.906   3.084   4.384 -0.3166  0.1826 -0.0014
    3CHTO  H200  882   5.816   3.053   4.378 -0.2491 -0.3899  3.1455
    3CHTO  C111  883   5.944   3.035   4.623  0.1681 -0.1610 -0.2280
    3CHTO  H215  884   5.957   3.142   4.649 -1.8857  0.8352  0.4829
    3CHTO   N19  885   5.803   2.994   4.643  0.0153  0.1074 -0.7224
    3CHTO  H207  886   5.741   3.066   4.578 -1.9180  1.5766  1.0982
    3CHTO  H208  887   5.779   3.025   4.745 -1.7751  0.5367 -3.1976
    3CHTO   O74  888   6.188   3.013   4.332 -0.3012  0.1526  0.0700
    3CHTO  C115  889   6.164   3.115   4.202 -0.6187  0.1272  0.4039
    3CHTO  H219  890   6.120   3.208   4.235  0.1230  0.1294 -0.9700
    3CHTO   O76  891   6.303   3.149   4.129 -0.0412 -0.6972 -0.5195
    3CHTO  C122  892   6.384   3.031   4.107 -1.0012 -0.2906  0.5267
    3CHTO  H226  893   6.430   3.009   4.202 -0.5817  1.2173 -0.8813
    3CHTO  C126  894   6.503   3.083   4.014  0.0390  0.7089  0.3596
    3CHTO   O85  895   6.584   3.193   4.067 -0.3855  0.6222  0.1453
    3CHTO  H206  896   6.643   3.215   3.998 -1.5716  0.4270  2.4156
    3CHTO  C121  897   6.303   2.914   4.048 -0.1760  0.0760  0.3689
    3CHTO  H225  898   6.359   2.875   3.964 -1.8321  0.8111  1.9233
    3CHTO   O81  899   6.298   2.815   4.152  0.3179  0.3397 -0.3166
    3CHTO  H202  900   6.280   2.732   4.117  1.0990 -1.5916  0.1440
    3CHTO  C119  901   6.155   2.955   3.996 -0.7172 -0.7229 -0.7937
    3CHTO  H223  902   6.178   3.032   3.918 -2.1138  1.7304  0.5369
    3CHTO  C117  903   6.072   3.033   4.104 -0.5048 -0.5541  0.5729
    3CHTO  H221  904   6.016   2.967   4.170  1.2001 -1.0013  0.5878
    3CHTO   N20  905   5.966   3.125   4.039 -0.2244  0.7439 -0.2075
    3CHTO  H209  906   5.902   3.159   4.120  0.2014  2.9531 -1.8034
    3CHTO  H210  907   5.907   3.061   3.972 -1.9275  0.7630 -0.8042
    3CHTO   O80  908   6.081   2.843   3.905  0.7595 -0.7890  0.4584
    3CHTO  C103  909   6.027   2.713   3.965  0.0030  0.5912 -0.6660
    3CHTO  H190  910   6.088   2.670   4.047  0.1576  1.9372 -0.1959
    3CHTO  C101  911   5.873   2.712   4.015 -0.2873  0.2117 -0.3610
    3CHTO  H188  912   5.809   2.740   3.929 -0.2545 -1.8604  0.3220
    3CHTO   O68  913   5.867   2.804   4.149 -0.2813  0.3955  0.3045
    3CHTO  H168  914   5.776   2.806   4.173 -0.4620 -2.6701  1.5682
    3CHTO   C99  915   5.830   2.562   4.044 -0.4101  0.1449 -0.7646
    3CHTO  H186  916   5.881   2.522   4.133  3.3201 -0.0329 -1.0511
    3CHTO   N17  917   5.687   2.559   4.085  0.4698  0.5473 -0.9190
    3CHTO  H174  918   5.627   2.627   4.036  2.1544  0.0496 -3.1995
    3CHTO  H175  919   5.642   2.460   4.087 -1.6888  2.4358  1.6109
    3CHTO   C97  920   5.860   2.465   3.922  0.0201 -0.9748 -0.6393
    3CHTO  H184  921   5.796   2.491   3.841  4.2206  0.0690  0.5900
    3CHTO   O64  922   5.996   2.482   3.880  0.1793 -0.5978  0.0794
    3CHTO  C104  923   6.037   2.617   3.844 -0.6551  0.3473 -0.0710
    3CHTO  H191  924   5.982   2.657   3.762  1.5550 -0.3393  1.5112
    3CHTO  C108  925   6.182   2.591   3.789  0.5009 -0.2910 -0.5538
    3CHTO   O71  926   6.182   2.554   3.652 -0.1006  0.0807  0.4809
    3CHTO  H171  927   6.154   2.465   3.654 -2.2078 -0.0987  1.3847
    3CHTO   O62  928   5.845   2.322   3.949 -0.0364 -0.4419  0.3605
    3CHTO   C91  929   5.839   2.239   3.833 -0.2834  0.3654  1.3858
    3CHTO  H178  930   5.778   2.294   3.761  1.8205  0.0912  0.3241
    3CHTO   C92  931   5.766   2.107   3.874  0.0051  0.4524  0.0070
    3CHTO  H179  932   5.825   2.056   3.952  2.1081 -0.6807 -0.2851
    3CHTO   O66  933   5.643   2.139   3.940  0.5870 -0.1356 -0.2600
    3CHTO  H166  934   5.605   2.058   3.982 -2.9132 -2.5555 -0.7231
    3CHTO   C93  935   5.754   2.007   3.752 -0.1349 -0.0695 -0.0876
    3CHTO  H180  936   5.686   2.055   3.679 -0.6111  1.3688  0.7556
    3CHTO   N16  937   5.687   1.877   3.787 -0.3399 -0.0264  0.1983
    3CHTO  H172  938   5.724   1.798   3.716 -0.4111  1.6035 -0.0569
    3CHTO  H173  939   5.574   1.893   3.777  1.3477 -2.3907  0.5813
    3CHTO   C94  940   5.897   1.981   3.684  0.0157  0.1432 -0.0017
    3CHTO  H181  941   5.939   1.883   3.709 -1.0920  0.0915  2.5307
    3CHTO   O61  942   5.994   2.077   3.723  0.0387  0.5909 -0.4166
    3CHTO   C95  943   5.977   2.207   3.756 -0.3246  0.4478  0.3676
    3CHTO  H182  944   6.057   2.240   3.821 -3.4922  0.7093  0.4675
    3CHTO  C106  945   5.992   2.289   3.623 -0.0153  0.3348 -0.3890
    3CHTO   O69  946   6.122   2.277   3.567 -0.4822  0.1472 -0.3575
    3CHTO  H169  947   6.126   2.347   3.504  0.7317  1.1778  0.5228
    3CHTO   O63  948   5.880   1.999   3.517  0.4837  0.6639 -0.0942
    3CHTO   C96  949   5.802   1.877   3.448 -0.2156  0.5969 -0.7845
    3CHTO  H183  950   5.728   1.843   3.519  0.5223  1.3711 -2.1565
    3CHTO   C98  951   5.892   1.758   3.406  0.5586  0.3501 -0.1598
    3CHTO  H185  952   5.958   1.790   3.330  2.2391  0.8363  0.4299
    3CHTO   O67  953   5.979   1.706   3.508 -0.0054  0.0121 -0.0471
    3CHTO  H167  954   5.974   1.770   3.577  0.5065 -0.8694 -0.1901
    3CHTO  C102  955   5.810   1.632   3.348 -0.4766  0.3127  0.4099
    3CHTO  H189  956   5.778   1.571   3.438  0.3907 -1.7702  0.9951
    3CHTO   N18  957   5.897   1.543   3.274  0.1023  0.3979 -0.0816
    3CHTO  H176  958   5.969   1.495   3.339  0.3854 -1.2381 -2.7319
    3CHTO  H177  959   5.855   1.456   3.230  1.4740  0.2693 -0.9551
    3CHTO  C105  960   5.690   1.678   3.257 -0.3820  0.1761  0.5408
    3CHTO  H192  961   5.686   1.622   3.161  0.9932  1.3254  3.5758
    3CHTO   O65  962   5.697   1.820   3.226  0.0587 -0.1529 -0.4617
    3CHTO  C100  963   5.731   1.927   3.319  0.0384  0.2601  0.1522
    3CHTO  H187  964   5.805   1.995   3.271  0.3967  1.1109  0.3726
    3CHTO  C107  965   5.603   2.016   3.333  0.8796  0.0118  0.9956
    3CHTO   O70  966   5.579   2.083   3.208 -0.6782  0.6457 -0.5245
    3CHTO  H170  967   5.510   2.037   3.164  0.5864  0.6709  2.3361
    3CHTO   O57  968   5.570   1.636   3.343  0.1702 -0.1353 -0.0511
    3CHTO   C85  969   5.445   1.603   3.282  0.1673 -0.1610 -0.2802
    3CHTO  H157  970   5.457   1.550   3.182 -1.7832 -0.3925  2.6396
    3CHTO   C83  971   5.368   1.729   3.258 -0.3097  0.3468 -0.5369
    3CHTO  H155  972   5.426   1.793   3.195  1.2289 -0.0184 -1.3870
    3CHTO   O56  973   5.352   1.796   3.384  0.5758  0.1878 -0.1388
    3CHTO  H135  974   5.325   1.888   3.376  0.4224  4.7393 -1.0740
    3CHTO   C81  975   5.234   1.697   3.187  0.5454  0.3453  0.2591
    3CHTO  H153  976   5.253   1.635   3.103  1.2743  2.1148 -0.8924
    3CHTO   N14  977   5.170   1.809   3.118 -0.6779  0.2141  0.2342
    3CHTO  H141  978   5.070   1.832   3.147  1.0187  0.4802  2.4522
    3CHTO  H142  979   5.171   1.815   3.013 -2.7473  0.6934 -2.7380
    3CHTO   C79  980   5.140   1.612   3.291 -0.2411 -0.0148  0.2072
    3CHTO  H151  981   5.052   1.569   3.234 -0.3976  2.2019 -2.5105
    3CHTO   O52  982   5.218   1.500   3.348  0.3653  0.1525 -0.0484
    3CHTO   C86  983   5.359   1.517   3.379  0.2057 -0.7672 -0.0976
    3CHTO  H158  984   5.355   1.553   3.489  0.1701  0.3948  0.0403
    3CHTO   C90  985   5.427   1.371   3.388  0.1150 -0.3022  0.2734
    3CHTO   O60  986   5.379   1.298   3.499  0.1847 -0.3372  0.4515
    3CHTO  H138  987   5.428   1.324   3.575  0.1819 -2.3828  1.1436
    3CHTO   O50  988   5.096   1.683   3.406  0.4308  0.1050 -0.3041
    3CHTO   C73  989   4.960   1.709   3.429  0.1433  0.1181 -0.5671
    3CHTO  H145  990   4.903   1.621   3.386 -2.2889  0.8749 -1.5718
    3CHTO   C74  991   4.926   1.843   3.357  0.3040 -0.0594 -0.0769
    3CHTO  H146  992   4.949   1.831   3.254 -1.9112  0.1301 -2.1134
    3CHTO   O54  993   4.782   1.857   3.352  0.6288  0.3508 -0.3823
    3CHTO  H133  994   4.755   1.888   3.440 -2.0959  1.1228  3.0269
    3CHTO   C75  995   5.006   1.963   3.418  0.2155 -0.3607 -0.7734
    3CHTO  H147  996   5.113   1.947   3.425  0.0094  3.2004  1.6091
    3CHTO   N13  997   4.990   2.083   3.334  0.5008 -0.0981 -0.2573
    3CHTO  H139  998   4.937   2.171   3.370  1.1161  1.5652 -0.0407
    3CHTO  H140  999   5.085   2.120   3.299 -2.4049  0.0813  1.2778
    3CHTO   C76 1000   4.954   1.971   3.572 -0.2597  0.2282  0.4138
    3CHTO  H148 1001   4.847   1.982   3.562  1.2216  0.3000 -3.2200
    3CHTO   O49 1002   4.990   1.843   3.638  0.2039  0.2258 -0.1084
    3CHTO   C77 1003   4.938   1.718   3.585  0.6396 -0.4238 -0.0469
    3CHTO  H149 1004   4.831   1.704   3.605  2.4251 -4.1648  1.5898
    3CHTO   C88 1005   5.003   1.605   3.670  0.4946 -0.2592 -0.3344
    3CHTO   O58 1006   4.973   1.489   3.628 -0.3705 -0.5301 -0.5960
    3CHTO  H136 1007   5.019   1.418   3.664 -1.6480  1.6891 -1.6541
    3CHTO   O51 1008   5.016   2.077   3.659  0.0377  0.0441  0.4594
    3CHTO   C78 1009   4.919   2.114   3.782 -0.3966  0.0208 -0.0735
    3CHTO  H150 1010   4.864   2.038   3.806  3.2297  1.7332 -2.2709
    3CHTO   C80 1011   4.834   2.234   3.749  0.3806  0.1471  0.0947
    3CHTO  H152 1012   4.896   2.328   3.741 -0.7380 -2.6698 -0.2438
    3CHTO   O55 1013   4.765   2.204   3.633  0.3211 -0.3340 -0.5185
    3CHTO  H134 1014   4.701   2.268   3.603  1.9038  2.6091  0.1402
    3CHTO   C84 1015   4.735   2.263   3.865  1.2897 -0.2895  0.6886
    3CHTO  H156 1016   4.677   2.167   3.878  0.4794 -0.8609 -1.1890
    3CHTO   N15 1017   4.649   2.382   3.830 -0.4754  0.1603 -0.4979
    3CHTO  H143 1018   4.704   2.475   3.839 -1.1310  0.4953 -1.2279
    3CHTO  H144 1019   4.602   2.378   3.731 -0.8633 -0.7673 -5.4324
    3CHTO   C87 1020   4.821   2.278   3.992 -0.2667  0.4378 -0.2803
    3CHTO  H159 1021   4.879   2.368   3.981  1.9106 -1.7745 -1.3332
    3CHTO   O53 1022   4.907   2.155   4.017 -0.4399 -0.1082  0.5451
    3CHTO   C82 1023   4.998   2.136   3.906  0.3429  0.0286 -0.1917
    3CHTO  H154 1024   5.060   2.219   3.896 -1.5384 -1.0885 -0.6165
    3CHTO   C89 1025   5.091   2.020   3.934 -0.2237 -0.0201  0.6622
    3CHTO   O59 1026   5.138   2.023   4.073  0.4945  0.0641  0.0694
    3CHTO  H137 1027   5.218   2.074   4.082 -1.3675  2.5972 -0.3784
    3CHTO   O45 1028   4.738   2.290   4.124  0.0261 -0.2022 -0.3089
    3CHTO   C67 1029   4.825   2.366   4.216 -0.2623  0.8008 -0.0357
    3CHTO  H124 1030   4.931   2.362   4.193 -3.2002  1.4451  2.2731
    3CHTO   C65 1031   4.784   2.524   4.217 -0.1652  0.4088  0.5150
    3CHTO  H122 1032   4.671   2.523   4.196 -0.0776  0.4566  2.4940
    3CHTO   O44 1033   4.859   2.589   4.113  0.0625  0.5331  0.0538
    3CHTO  H102 1034   4.810   2.663   4.079  0.7296  2.0268 -0.8009
    3CHTO   C63 1035   4.797   2.587   4.367 -0.2656  1.1983 -0.2239
    3CHTO  H120 1036   4.705   2.563   4.420  0.7658  1.1789 -3.1119
    3CHTO   N11 1037   4.797   2.736   4.374 -0.8358 -0.6380  0.0458
    3CHTO  H108 1038   4.739   2.772   4.296  0.8780 -0.5949 -0.5392
    3CHTO  H109 1039   4.900   2.780   4.367 -1.3020  1.6200 -0.3519
    3CHTO   C61 1040   4.917   2.529   4.449 -0.3435 -0.1972 -0.5492
    3CHTO  H118 1041   4.922   2.572   4.554  1.8722  0.4398  0.6271
    3CHTO   O40 1042   4.896   2.384   4.467 -0.1240 -0.1852 -0.2662
    3CHTO   C68 1043   4.819   2.310   4.367  0.2450 -0.0685 -0.5668
    3CHTO  H125 1044   4.714   2.316   4.401  0.8507 -0.2532  0.2678
    3CHTO   C72 1045   4.857   2.161   4.383  0.1649 -0.2428  0.4097
    3CHTO   O48 1046   4.983   2.120   4.325  0.3671 -0.5439  0.1617
    3CHTO  H105 1047   4.973   2.104   4.232  0.8290  1.4206  0.4059
    3CHTO   O38 1048   5.043   2.560   4.377 -0.0595  0.2652  0.2361
    3CHTO   C55 1049   5.166   2.550   4.451 -0.0750 -0.4305 -0.4358
    3CHTO  H112 1050   5.146   2.475   4.526 -0.9779 -0.3558  0.6167
    3CHTO   C56 1051   5.216   2.688   4.511 -0.1478  0.5982 -0.0905
    3CHTO  H113 1052   5.248   2.750   4.422  0.4366  0.3931 -1.1480
    3CHTO   O42 1053   5.109   2.748   4.589 -0.0211  0.1295 -0.4004
    3CHTO  H100 1054   5.106   2.840   4.579  1.8736 -3.9025 -0.6566
    3CHTO   C57 1055   5.340   2.654   4.603  0.6816 -0.1623 -0.2672
    3CHTO  H114 1056   5.297   2.584   4.672  1.1596  0.6082  0.0295
    3CHTO   N10 1057   5.401   2.770   4.670  0.2700  0.3220  0.1676
    3CHTO  H106 1058   5.336   2.855   4.701 -0.4153  1.9236 -0.3805
    3CHTO  H107 1059   5.453   2.722   4.756 -0.6650 -0.2878  0.0605
    3CHTO   C58 1060   5.451   2.579   4.521  0.6833  0.7741  0.1722
    3CHTO  H115 1061   5.503   2.648   4.447 -3.0686 -0.4072 -1.6425
    3CHTO   O37 1062   5.398   2.475   4.441  0.4056 -0.6354  0.1053
    3CHTO   C59 1063   5.283   2.502   4.360 -0.4216  0.2496  0.3837
    3CHTO  H116 1064   5.311   2.579   4.298 -0.6936 -0.3229  1.0011
    3CHTO   C70 1065   5.240   2.377   4.290 -0.4612  0.2362 -0.5918
    3CHTO   O46 1066   5.305   2.345   4.167  0.4812  0.1403  0.5655
    3CHTO  H103 1067   5.244   2.364   4.096 -1.7562  1.3989  1.8409
    3CHTO   O39 1068   5.558   2.498   4.636  0.8571 -0.5101  0.1021
    3CHTO   C60 1069   5.678   2.462   4.560  0.6963 -0.4850  0.3514
    3CHTO  H117 1070   5.648   2.436   4.457 -1.4228  1.4273 -0.3589
    3CHTO   C62 1071   5.789   2.575   4.546 -0.6400 -0.3842  0.8801
    3CHTO  H119 1072   5.741   2.657   4.504  1.7393  0.2023  2.3284
    3CHTO   O43 1073   5.827   2.613   4.681  0.2125  0.3397  0.0763
    3CHTO  H101 1074   5.755   2.609   4.738  2.1234  1.0860 -1.3192
    3CHTO   C66 1075   5.906   2.518   4.456 -0.0192 -0.6016  0.0062
    3CHTO  H123 1076   5.862   2.487   4.363  0.2492  1.4394 -1.2974
    3CHTO   N12 1077   6.004   2.617   4.410 -0.6754  0.4477 -0.3692
    3CHTO  H110 1078   6.100   2.610   4.463 -0.8678  1.5745  1.6256
    3CHTO  H111 1079   5.957   2.710   4.413 -0.6983 -3.0840  1.6751
    3CHTO   C69 1080   5.971   2.387   4.511  0.7468 -0.4056 -0.5162
    3CHTO  H126 1081   6.023   2.405   4.608  2.0457  1.1728  0.3359
    3CHTO   O41 1082   5.877   2.298   4.530  0.5074 -0.6135 -0.0190
    3CHTO   C64 1083   5.749   2.335   4.613 -0.5061 -0.8808  0.9563
    3CHTO  H121 1084   5.782   2.355   4.714  0.3953  2.9198  0.1451
    3CHTO   C71 1085   5.669   2.203   4.616  0.2239  0.3620  0.2330
    3CHTO   O47 1086   5.654   2.138   4.487 -0.2211  0.6822  0.6164
    3CHTO  H104 1087   5.738   2.102   4.461 -1.9195  0.5135  1.0371
    3CHTO   O34 1088   6.076   2.316   4.411  0.0903  0.4253  0.1884
    3CHTO   C49 1089   6.105   2.320   4.263  0.1310  0.0986 -0.2751
    3CHTO   H91 1090   6.070   2.418   4.229 -1.0339 -0.3335  3.8158
    3CHTO   C47 1091   6.020   2.211   4.191 -0.2427  0.3482  0.1992
    3CHTO   H89 1092   6.034   2.223   4.079 -0.9086  1.4361  0.2625
    3CHTO   O33 1093   5.883   2.222   4.227  0.1389  0.1565 -0.2835
    3CHTO   H70 1094   5.841   2.161   4.176  0.7084 -3.2517  0.0392
    3CHTO   C45 1095   6.083   2.067   4.238 -0.2389 -0.0776  0.2071
    3CHTO   H87 1096   6.096   2.066   4.344  0.4676  2.0048  3.2118
    3CHTO    N8 1097   5.998   1.949   4.199  0.8407  0.5343  0.1508
    3CHTO   H75 1098   6.071   1.880   4.156 -0.2097 -0.5456  1.2245
    3CHTO   H76 1099   5.953   1.898   4.286 -1.4299 -0.8817 -0.1026
    3CHTO   C43 1100   6.226   2.063   4.180 -0.2520  0.1450  0.3011
    3CHTO   H85 1101   6.276   1.966   4.207  2.3534  1.7785  0.6731
    3CHTO   O29 1102   6.305   2.172   4.233  0.0467 -0.0036 -0.4895
    3CHTO   C50 1103   6.254   2.307   4.231 -0.1985  0.3754 -0.4055
    3CHTO   H92 1104   6.304   2.363   4.311 -2.4168 -1.2203 -0.1772
    3CHTO   C54 1105   6.297   2.374   4.109  0.5403 -0.0021 -0.2422
    3CHTO   O36 1106   6.268   2.515   4.120 -0.4653 -0.4239  0.8403
    3CHTO   H72 1107   6.334   2.565   4.075 -1.7706  0.3400 -0.4467
    3CHTO   O27 1108   6.220   2.068   4.038 -0.5165 -0.0741  0.4085
    3CHTO   C37 1109   6.298   1.985   3.949 -0.0342  0.5366  0.3128
    3CHTO   H79 1110   6.397   1.953   3.996  1.4299 -0.2603  2.7478
    3CHTO   C38 1111   6.220   1.846   3.919  0.6508 -0.7431 -0.4098
    3CHTO   H80 1112   6.115   1.874   3.886 -0.0551 -1.6454 -0.8561
    3CHTO   O31 1113   6.202   1.767   4.036  0.4048  0.9772  0.5003
    3CHTO   H68 1114   6.287   1.750   4.076 -2.4142 -0.4596 -3.4251
    3CHTO   C39 1115   6.290   1.766   3.804  0.3670  0.1159  0.0567
    3CHTO   H81 1116   6.389   1.749   3.845 -0.2806  1.5706  0.0212
    3CHTO    N7 1117   6.211   1.644   3.754  0.0791 -0.1486 -0.3478
    3CHTO   H73 1118   6.285   1.589   3.696  0.4737  1.2162  0.9723
    3CHTO   H74 1119   6.129   1.677   3.689 -0.5685 -0.0227  3.3542
    3CHTO   C40 1120   6.320   1.860   3.681 -0.2525  0.2949  0.1443
    3CHTO   H82 1121   6.226   1.883   3.628  2.7926  0.5660  3.2036
    3CHTO   O26 1122   6.397   1.975   3.719 -0.0947 -0.3384  1.0155
    3CHTO   C41 1123   6.327   2.060   3.813  0.0012  0.4986 -0.7699
    3CHTO   H83 1124   6.228   2.091   3.770 -3.6165  0.7678 -0.3487
    3CHTO   C52 1125   6.411   2.185   3.820 -0.0529 -0.0548  0.0278
    3CHTO   O35 1126   6.553   2.163   3.853 -0.7462  0.1933 -0.1198
    3CHTO   H71 1127   6.576   2.078   3.879  0.5124  1.6902 -0.4843
    3CHTO   O28 1128   6.399   1.804   3.572  0.1374  0.8846  0.0473
    3CHTO   C42 1129   6.388   1.826   3.427 -0.6193 -0.2622 -0.1404
    3CHTO   H84 1130   6.497   1.828   3.392 -0.3579 -0.5512  2.5351
    3CHTO   C44 1131   6.329   1.963   3.375  0.3513  0.1066 -0.0571
    3CHTO   H86 1132   6.233   1.985   3.434 -1.7993 -1.7726 -0.9384
    3CHTO   O32 1133   6.422   2.056   3.428 -0.5400 -0.2348 -0.6135
    3CHTO   H69 1134   6.510   2.050   3.403 -1.6921 -2.6216  0.3382
    3CHTO   C48 1135   6.312   1.975   3.218 -0.1251 -0.2773  0.2757
    3CHTO   H90 1136   6.418   1.989   3.180  0.6950  2.1445  0.5355
    3CHTO    N9 1137   6.245   2.104   3.173 -0.0683  0.2358 -0.6680
    3CHTO   H77 1138   6.261   2.184   3.251  2.0123  2.0947 -1.6287
    3CHTO   H78 1139   6.136   2.093   3.153  0.6115  0.5750  0.6933
    3CHTO   C51 1140   6.246   1.846   3.156  0.4445 -0.5239 -0.4468
    3CHTO   H93 1141   6.142   1.847   3.185 -0.5213  2.2838  0.8399
    3CHTO   O30 1142   6.313   1.735   3.201 -0.1961  0.0702 -0.3115
    3CHTO   C46 1143   6.310   1.708   3.354  0.9594 -0.2896 -0.4507
    3CHTO   H88 1144   6.201   1.719   3.374 -0.5824  0.9801  3.4667
    3CHTO   C53 1145   6.357   1.566   3.371  0.1763 -0.5154  0.7341
    3CHTO   O72 1146   6.498   1.568   3.332  0.2810 -0.1162 -0.1891
    3CHTO  H199 1147   6.550   1.487   3.347 -0.2310 -0.4167 -1.1168
    3CHTO   O22 1148   6.250   1.833   3.020  0.2827 -0.3415 -0.3184
    3CHTO   C31 1149   6.173   1.726   2.938 -0.0714  0.7004 -0.1055
    3CHTO   H59 1150   6.203   1.741   2.835  0.2297 -0.7641 -0.3461
    3CHTO   C29 1151   6.207   1.579   2.971  0.0139  0.5213 -0.5299
    3CHTO   H57 1152   6.170   1.560   3.077 -0.8570  0.8550  0.7059
    3CHTO   O21 1153   6.351   1.553   2.971  0.8991  0.0559 -0.4539
    3CHTO   H37 1154   6.369   1.530   2.879 -0.7521 -0.4112 -1.1527
    3CHTO   C27 1155   6.139   1.472   2.879  0.1535 -0.1905  0.4834
    3CHTO   H55 1156   6.177   1.492   2.778  1.5117  0.0941  0.5205
    3CHTO    N5 1157   6.169   1.329   2.905  0.2489  0.5533  0.7037
    3CHTO   H43 1158   6.273   1.325   2.945  0.1817 -0.3649  0.2261
    3CHTO   H44 1159   6.171   1.273   2.812 -1.2822 -2.3002 -0.3919
    3CHTO   C25 1160   5.990   1.508   2.893  0.3928 -0.4054  0.4646
    3CHTO   H53 1161   5.951   1.485   2.998 -0.3038  0.7789  0.8501
    3CHTO   O17 1162   5.953   1.644   2.855 -0.0744 -0.0688  0.0683
    3CHTO   C32 1163   6.014   1.737   2.935  0.4670 -0.1921 -0.1984
    3CHTO   H60 1164   5.975   1.727   3.038 -1.1149  1.1611  1.2812
    3CHTO   C36 1165   5.964   1.882   2.898  0.0395  0.0279 -0.1367
    3CHTO   O25 1166   6.001   1.906   2.765 -0.3111 -0.3185  0.0984
    3CHTO   H40 1167   5.940   1.866   2.710 -2.4256 -2.2891  0.2947
    3CHTO   O15 1168   5.897   1.415   2.797  0.3208 -0.7356  0.7009
    3CHTO   C19 1169   5.764   1.352   2.781 -0.1199 -0.2979 -0.0737
    3CHTO   H47 1170   5.691   1.430   2.796  0.9348 -0.0095 -0.8532
    3CHTO   C20 1171   5.746   1.296   2.639 -0.2815  0.2695 -0.0561
    3CHTO   H48 1172   5.825   1.220   2.611 -1.9650 -4.0647  1.2718
    3CHTO   O19 1173   5.751   1.409   2.553 -0.1365  0.2230 -0.1295
    3CHTO   H35 1174   5.759   1.382   2.460 -2.4082  0.3191 -2.8013
    3CHTO   C21 1175   5.603   1.234   2.621  0.5768  0.0464 -0.6523
    3CHTO   H49 1176   5.529   1.317   2.615  1.8304  3.3553 -0.5778
    3CHTO    N4 1177   5.587   1.171   2.491  0.2117 -0.0192 -0.0658
    3CHTO   H41 1178   5.548   1.249   2.428  1.6503  1.7402  2.7329
    3CHTO   H42 1179   5.512   1.097   2.495 -1.3049  2.9657 -0.6807
    3CHTO   C22 1180   5.546   1.148   2.742  0.4915 -0.7713  0.1077
    3CHTO   H50 1181   5.570   1.043   2.742  1.5473  0.9837  1.0055
    3CHTO   O14 1182   5.588   1.200   2.870 -0.1132  0.3304  0.0875
    3CHTO   C23 1183   5.728   1.240   2.887  0.4656  0.1061 -0.1048
    3CHTO   H51 1184   5.793   1.154   2.880  2.1234 -0.9088  1.6961
    3CHTO   C34 1185   5.738   1.291   3.035 -0.1868  0.1978  0.0142
    3CHTO   O23 1186   5.650   1.393   3.074  0.1399  0.3284  0.4226
    3CHTO   H38 1187   5.557   1.366   3.064 -0.7022  2.8712  1.9910
    3CHTO   O16 1188   5.405   1.151   2.736 -0.0244 -0.4590 -0.4417
    3CHTO   C24 1189   5.343   1.033   2.824  0.0650 -0.0544 -0.2493
    3CHTO   H52 1190   5.415   0.990   2.893 -2.2496 -0.1023 -0.6692
    3CHTO   C26 1191   5.298   0.918   2.733  0.0726  1.0115  0.1636
    3CHTO   H54 1192   5.254   0.953   2.645 -1.2924  1.1154  0.2687
    3CHTO   O20 1193   5.419   0.854   2.689  0.2401 -0.6803  0.0735
    3CHTO   H36 1194   5.435   0.767   2.727  1.0640 -2.3667 -0.9339
    3CHTO   C30 1195   5.205   0.821   2.809 -0.6315 -0.7009  0.0959
    3CHTO   H58 1196   5.256   0.781   2.894 -2.1815 -1.2201  0.6666
    3CHTO    N6 1197   5.161   0.702   2.730 -0.3750 -0.0673  0.5175
    3CHTO   H45 1198   5.096   0.637   2.790 -0.3209  1.1224  0.8745
    3CHTO   H46 1199   5.250   0.645   2.706  1.5131 -1.1328  0.5135
    3CHTO   C33 1200   5.087   0.898   2.874 -0.1867 -0.2439  0.5479
    3CHTO   H61 1201   5.029   0.960   2.795  1.0686 -0.8083 -1.0523
    3CHTO   O18 1202   5.139   0.992   2.970 -0.1899 -0.0728 -0.1636
    3CHTO   C28 1203   5.225   1.095   2.915  0.4810 -0.7615  0.1923
    3CHTO   H56 1204   5.161   1.160   2.852  0.8590  0.2144  1.5794
    3CHTO   C35 1205   5.296   1.175   3.029  0.5461  0.0543  0.2938
    3CHTO   O24 1206   5.214   1.260   3.114  0.3539  0.5559  0.2599
    3CHTO   H39 1207   5.123   1.225   3.112 -0.1620  1.4122  0.4425
    3CHTO    O9 1208   4.985   0.819   2.935 -0.0223  0.8403 -0.5444
    3CHTO   C13 1209   4.843   0.906   2.985  0.3105 -0.2572 -0.0071
    3CHTO   H26 1210   4.861   1.006   2.956  0.3498 -1.6544 -0.9750
    3CHTO   C11 1211   4.825   0.895   3.142  0.1883  0.3014 -0.7874
    3CHTO   H24 1212   4.921   0.922   3.189 -2.2662 -2.7550  1.4222
    3CHTO    O8 1213   4.806   0.763   3.195 -0.6314  0.1906  0.0604
    3CHTO    H3 1214   4.879   0.716   3.176 -1.6339  0.7169  0.9475
    3CHTO    C9 1215   4.712   0.994   3.177  0.0454 -0.5409  0.2490
    3CHTO   H22 1216   4.753   1.094   3.156  0.9489 -1.0420  1.3924
    3CHTO    N2 1217   4.679   1.012   3.320  0.2048  0.0986  0.0115
    3CHTO   H10 1218   4.629   1.105   3.331 -0.6522 -0.8610 -0.2840
    3CHTO   H11 1219   4.753   0.991   3.397 -0.1079 -0.8775 -1.8350
    3CHTO    C7 1220   4.582   0.970   3.083  0.0328  0.2037 -0.4360
    3CHTO   H20 1221   4.591   1.069   3.020 -2.0679  1.5848  0.1513
    3CHTO    O4 1222   4.600   0.852   3.003  0.0258  0.5062  0.2348
    3CHTO   C14 1223   4.711   0.857   2.911  0.4280  0.1571 -0.4727
    3CHTO   H27 1224   4.694   0.912   2.825  1.1012 -2.2868  2.6565
    3CHTO   C18 1225   4.728   0.711   2.856 -0.2753  0.3108  0.2392
    3CHTO   O13 1226   4.732   0.606   2.952  1.0492 -0.2279  0.2272
    3CHTO    H7 1227   4.819   0.569   2.967  1.7771  1.2061  0.4216
    3CHTO    O2 1228   4.431   0.960   3.156  0.1413  0.1052  0.1052
    3CHTO    C1 1229   4.345   1.066   3.124  0.5902  0.1802 -0.7463
    3CHTO   H14 1230   4.405   1.134   3.065 -0.7401 -2.7631  0.3170
    3CHTO    C2 1231   4.300   1.138   3.257 -1.1735 -0.0773  0.0100
    3CHTO   H15 1232   4.243   1.055   3.307  0.3808 -0.5305  0.5584
    3CHTO    O6 1233   4.414   1.189   3.329 -0.0277  0.0868  0.0801
    3CHTO    H1 1234   4.498   1.208   3.287  2.5476 -0.9697 -1.1438
    3CHTO    C3 1235   4.199   1.260   3.212  0.4520  0.0211 -0.6345
    3CHTO   H16 1236   4.254   1.330   3.145 -2.2132  1.2493  1.2456
    3CHTO    N1 1237   4.154   1.340   3.330  0.0841 -0.2167  0.3358
    3CHTO    H8 1238   4.042   1.344   3.334  0.5950 -0.0752 -0.2424
    3CHTO    H9 1239   4.216   1.429   3.336  0.7766 -0.3416 -0.7659
    3CHTO    C4 1240   4.082   1.195   3.121  0.1972  0.1999  0.4560
    3CHTO   H17 1241   4.032   1.119   3.178 -3.3748 -0.2181  0.5747
    3CHTO    O1 1242   4.136   1.134   3.001  0.5566 -0.5761 -0.9175
    3CHTO    C5 1243   4.225   1.021   3.034  0.1648 -0.7400  0.5976
    3CHTO   H18 1244   4.181   0.938   3.085  0.6151  0.1042  1.4188
    3CHTO   C16 1245   4.276   0.973   2.897  0.5544  0.1239  0.5182
    3CHTO   O11 1246   4.354   1.047   2.808  0.0452 -0.3545  0.1270
    3CHTO    H5 1247   4.383   0.987   2.738  3.6628  0.5139 -2.0689
    3CHTO    O3 1248   3.994   1.301   3.081  0.0992  0.0671  0.3977
    3CHTO    C6 1249   3.849   1.266   3.061 -0.2983 -0.4493  0.6058
    3CHTO   H19 1250   3.840   1.155   3.031  0.5153  2.4151 -0.5883
    3CHTO    C8 1251   3.771   1.291   3.192  0.0447 -0.0976 -0.6797
    3CHTO   H21 1252   3.781   1.394   3.224  0.5607 -1.4983  2.6609
    3CHTO    O7 1253   3.811   1.204   3.297  0.1225 -0.6689 -0.2158
    3CHTO    H2 1254   3.782   1.233   3.379  1.2275 -1.3974  0.3782
    3CHTO   C12 1255   3.612   1.287   3.171  0.1179 -0.5936 -0.0674
    3CHTO   H25 1256   3.597   1.174   3.161  0.6855  1.7395  0.2404
    3CHTO    N3 1257   3.543   1.351   3.279  0.1903 -0.2355  0.3419
    3CHTO   H12 1258   3.563   1.296   3.370 -0.0906 -2.2231  0.0134
    3CHTO   H13 1259   3.439   1.364   3.258 -0.3728 -0.4551 -0.5112
    3CHTO   C15 1260   3.561   1.352   3.032  0.1704  0.5323  0.0076
    3CHTO   H28 1261   3.558   1.459   3.031  0.5120 -3.3383  0.4518
    3CHTO   O10 1262   3.422   1.310   2.978  0.5493 -0.3123  0.4504
    3CHTO    H4 1263   3.405   1.216   2.973  0.0333 -2.1552 -2.1367
    3CHTO    O5 1264   3.646   1.306   2.928 -0.1668 -0.4301 -0.2081
    3CHTO   C10 1265   3.782   1.349   2.947  0.4158 -0.7351  0.2199
    3CHTO   H23 1266   3.779   1.457   2.969  0.9387  2.0097  0.6575
    3CHTO   C17 1267   3.876   1.341   2.823  0.6589 -0.2920  0.0525
    3CHTO   O12 1268   3.838   1.440   2.730 -0.4803  0.1503  0.1493
    3CHTO    H6 1269   3.917   1.470   2.689 -2.2354 -3.4860  1.1759
    4CHTO  H203 1270   6.069   8.760   2.525  0.0714  0.6972 -0.2244
    4CHTO   O82 1271   6.085   8.850   2.490 -0.2067 -0.2517  0.6867
    4CHTO  C123 1272   6.208   8.856   2.423 -0.4353  0.1615 -0.0838
    4CHTO  H227 1273   6.221   8.762   2.365 -1.0036 -1.0946 -0.1905
    4CHTO   O77 1274   6.195   8.980   2.347 -0.1627  0.1896  0.3606
    4CHTO  C118 1275   6.291   9.021   2.253 -0.1826 -0.3264 -0.0929
    4CHTO  H222 1276   6.301   8.943   2.185 -0.1900  3.5197 -1.5918
    4CHTO  C125 1277   6.246   9.153   2.183 -0.0940  0.1404  0.1101
    4CHTO   O84 1278   6.114   9.149   2.133  0.1639  0.1876  0.4938
    4CHTO  H205 1279   6.113   9.215   2.066 -1.6012 -0.2803  1.7348
    4CHTO  C114 1280   6.415   9.045   2.335  0.2984  0.4157  0.1939
    4CHTO  H218 1281   6.404   9.137   2.400 -0.3601 -0.6237 -0.5586
    4CHTO  C116 1282   6.457   8.924   2.432  0.1647  0.2599  0.2442
    4CHTO  H220 1283   6.493   8.847   2.366  1.4226  1.5013  2.1775
    4CHTO   O79 1284   6.569   8.959   2.510 -0.8851 -0.3461  0.3516
    4CHTO  H201 1285   6.556   8.979   2.600 -0.1334 -0.5955  1.3092
    4CHTO  C120 1286   6.330   8.879   2.522  0.3244  0.3875  0.1992
    4CHTO  H224 1287   6.305   8.961   2.588  1.4508 -2.1677 -0.5933
    4CHTO   N21 1288   6.362   8.756   2.606  0.7679 -0.0059 -0.1524
    4CHTO  H211 1289   6.465   8.748   2.634  1.4609 -0.9220 -1.9407
    4CHTO  H212 1290   6.305   8.735   2.701  1.1206 -1.5640 -0.7230
    4CHTO   O75 1291   6.522   9.078   2.239  0.4316  0.3470 -0.3953
    4CHTO  C112 1292   6.629   9.188   2.281  0.2453 -0.2558 -0.5943
    4CHTO  H216 1293   6.642   9.190   2.392  0.0672  1.7651  0.2394
    4CHTO   O73 1294   6.581   9.314   2.235 -0.1740 -0.2563  0.5427
    4CHTO  C113 1295   6.669   9.426   2.260  0.2439  0.0991 -0.4057
    4CHTO  H217 1296   6.682   9.423   2.372 -3.1013  1.1040  2.7038
    4CHTO  C124 1297   6.577   9.546   2.224  0.0297  0.4479  0.5528
    4CHTO   O83 1298   6.646   9.676   2.225 -0.2284 -0.5025  0.1676
    4CHTO  H204 1299   6.591   9.753   2.218 -1.3178  1.3641 -1.1629
    4CHTO  C109 1300   6.806   9.410   2.181 -0.8311 -0.6004 -0.4450
    4CHTO  H213 1301   6.777   9.410   2.076 -2.2523 -1.7619  0.6702
    4CHTO  C110 1302   6.871   9.271   2.216  0.0127 -0.1679 -0.1516
    4CHTO  H214 1303   6.927   9.282   2.306  2.0188  1.3246 -2.0180
    4CHTO   O78 1304   6.966   9.239   2.115  0.2895  0.1163  0.4557
    4CHTO  H200 1305   7.039   9.297   2.127  1.3476 -0.0663 -0.4258
    4CHTO  C111 1306   6.770   9.151   2.222 -0.4937  0.7760 -0.1942
    4CHTO  H215 1307   6.760   9.113   2.116  2.1487 -0.0908 -2.4570
    4CHTO   N19 1308   6.821   9.035   2.304  0.1570  0.1648  0.4475
    4CHTO  H207 1309   6.857   8.948   2.243  2.1188  1.0984 -0.5148
    4CHTO  H208 1310   6.900   9.048   2.378  1.1641  1.4425  0.4319
    4CHTO   O74 1311   6.889   9.527   2.216 -0.1365 -0.4273  0.2362
    4CHTO  C115 1312   6.974   9.571   2.084 -0.2333 -0.0743 -0.4143
    4CHTO  H219 1313   6.995   9.485   2.015  0.9084 -0.3984 -2.4906
    4CHTO   O76 1314   6.899   9.667   1.998 -0.3163 -0.1022  0.0629
    4CHTO  C122 1315   6.917   9.804   2.033 -0.1683 -0.1350  0.3958
    4CHTO  H226 1316   6.890   9.811   2.136  0.6061  0.2130  0.6583
    4CHTO  C126 1317   6.813   9.896   1.960 -0.0102 -0.5553 -0.4989
    4CHTO   O85 1318   6.715   9.942   2.049 -0.6377  0.1968 -0.1254
    4CHTO  H206 1319   6.717  10.032   2.075 -2.4527 -0.8685  0.9697
    4CHTO  C121 1320   7.070   9.868   2.028 -0.3864  0.3747  0.3203
    4CHTO  H225 1321   7.086   9.912   1.927 -1.0685  0.4780 -0.5161
    4CHTO   O81 1322   7.077   9.970   2.130 -0.3880  0.1057 -0.1977
    4CHTO  H202 1323   7.030  10.053   2.109 -1.9543  1.9694 -0.6453
    4CHTO  C119 1324   7.171   9.749   2.048 -0.4262  0.1850  0.7658
    4CHTO  H223 1325   7.181   9.709   1.948  1.6403  0.2738 -0.8993
    4CHTO  C117 1326   7.114   9.633   2.142  0.1616  0.9525  1.1748
    4CHTO  H221 1327   7.094   9.662   2.246 -2.1702  1.9167  1.0259
    4CHTO   N20 1328   7.215   9.520   2.151 -0.1913 -0.3344  0.0790
    4CHTO  H209 1329   7.172   9.423   2.174 -0.5255  2.1270 -3.3321
    4CHTO  H210 1330   7.288   9.543   2.222 -1.8717  0.8109 -0.3980
    4CHTO   O80 1331   7.329   9.802   2.081  0.4171  0.1201  0.5206
    4CHTO  C103 1332   7.375   9.953   2.025 -0.8106 -0.1127 -0.9541
    4CHTO  H190 1333   7.285  10.009   2.003  4.9213  3.2916  0.2405
    4CHTO  C101 1334   7.471  10.027   2.122 -0.9930 -0.1282 -0.3239
    4CHTO  H188 1335   7.557   9.965   2.131  0.4764  2.2562  0.1014
    4CHTO   O68 1336   7.401  10.059   2.264 -0.3378 -0.6398 -0.5858
    4CHTO  H168 1337   7.373   9.979   2.306 -1.4043  1.7602  1.7185
    4CHTO   C99 1338   7.534  10.163   2.048  0.9524  0.4524 -0.7099
    4CHTO  H186 1339   7.452  10.239   2.043 -1.7432  0.4812  0.9060
    4CHTO   N17 1340   7.636  10.225   2.129 -0.3533 -0.1196 -0.0306
    4CHTO  H174 1341   7.661  10.325   2.097  1.2748 -0.5932  0.1973
    4CHTO  H175 1342   7.619  10.221   2.237 -1.5173  0.7740  0.2720
    4CHTO   C97 1343   7.567  10.140   1.899 -0.0596  0.5739  0.1473
    4CHTO  H184 1344   7.673  10.100   1.889 -0.5702  0.8755 -2.0627
    4CHTO   O64 1345   7.472  10.058   1.829  0.5049  0.4655  0.2332
    4CHTO  C104 1346   7.446   9.925   1.882  0.8794 -0.2146 -0.3154
    4CHTO  H191 1347   7.532   9.859   1.893  0.2140  0.7405  2.6368
    4CHTO  C108 1348   7.357   9.856   1.783  0.6249  0.8693 -0.4259
    4CHTO   O71 1349   7.423   9.815   1.658  0.3343  0.4613  0.6371
    4CHTO  H171 1350   7.356   9.816   1.591  0.1701 -0.6030  0.4054
    4CHTO   O62 1351   7.557  10.263   1.830  0.5925 -0.0698  0.4802
    4CHTO   C91 1352   7.666  10.315   1.759  0.7846  0.6991 -0.5991
    4CHTO  H178 1353   7.747  10.316   1.826  0.8120 -1.5730 -3.3613
    4CHTO   C92 1354   7.622  10.455   1.715 -0.0934  0.2932 -0.3803
    4CHTO  H179 1355   7.585  10.507   1.804 -1.5734  0.7093 -0.2329
    4CHTO   O66 1356   7.734  10.536   1.681  0.6480  0.1454  0.3171
    4CHTO  H166 1357   7.774  10.517   1.595  1.3268  3.2502 -2.3816
    4CHTO   C93 1358   7.517  10.454   1.593  0.1872 -0.3746  0.2927
    4CHTO  H180 1359   7.531  10.549   1.534 -0.0378 -0.0932 -0.2155
    4CHTO   N16 1360   7.373  10.449   1.633 -1.0306  0.1537  0.3444
    4CHTO  H172 1361   7.329  10.551   1.649  0.5432 -2.9974  4.2185
    4CHTO  H173 1362   7.357  10.396   1.729 -1.0176 -0.1537  3.1206
    4CHTO   C94 1363   7.535  10.331   1.492 -0.0433  0.1531 -0.5359
    4CHTO  H181 1364   7.463  10.250   1.517  0.0935  3.0304  0.4701
    4CHTO   O61 1365   7.673  10.279   1.503  0.2142  0.7667 -0.2697
    4CHTO   C95 1366   7.698  10.226   1.632 -0.5130  0.1681  0.2372
    4CHTO  H182 1367   7.651  10.125   1.645  0.3534 -1.5294 -0.0493
    4CHTO  C106 1368   7.852  10.197   1.638 -0.6462  0.4173 -0.0338
    4CHTO   O69 1369   7.923  10.312   1.604  0.6420  0.2718  0.0105
    4CHTO  H169 1370   7.922  10.362   1.684 -1.1573 -0.9563  0.9710
    4CHTO   O63 1371   7.522  10.381   1.331  0.1810  0.5129 -0.1679
    4CHTO   C96 1372   7.385  10.357   1.268 -0.1542  0.4834 -0.2564
    4CHTO  H183 1373   7.309  10.366   1.345 -0.2352  1.0388 -1.3546
    4CHTO   C98 1374   7.370  10.220   1.204  0.8827 -0.9782 -0.1572
    4CHTO  H185 1375   7.459  10.207   1.136 -0.3923  0.1580  0.6238
    4CHTO   O67 1376   7.393  10.121   1.303  0.1245  0.3077  0.0038
    4CHTO  H167 1377   7.387  10.033   1.269 -1.1819 -1.7512  1.5354
    4CHTO  C102 1378   7.227  10.201   1.135  0.2350 -0.3289  0.6310
    4CHTO  H189 1379   7.152  10.192   1.214  0.4080 -0.1217 -2.5036
    4CHTO   N18 1380   7.194  10.087   1.042  0.0814 -0.0767 -0.8122
    4CHTO  H176 1381   7.261  10.099   0.961  2.6995  0.6986  2.1711
    4CHTO  H177 1382   7.230  10.004   1.102  0.8017  0.0768  0.4970
    4CHTO  C105 1383   7.185  10.332   1.061  0.0640 -0.3555  1.0913
    4CHTO  H192 1384   7.231  10.336   0.959 -2.0323  2.5986  0.3148
    4CHTO   O65 1385   7.214  10.444   1.140 -0.2842  0.3456  0.0475
    4CHTO  C100 1386   7.348  10.464   1.163 -0.2758  0.7382  0.0071
    4CHTO  H187 1387   7.405  10.448   1.075 -1.6603 -2.0770 -1.4362
    4CHTO  C107 1388   7.358  10.607   1.210  0.2914  0.5766  0.8073
    4CHTO   O70 1389   7.316  10.692   1.107 -0.5630  0.1296 -0.2327
    4CHTO  H170 1390   7.233  10.670   1.076  2.9561 -0.1702 -2.6398
    4CHTO   O57 1391   7.006  10.328   1.032  0.1540  0.4321 -0.0702
    4CHTO   C85 1392   6.906  10.389   1.115  0.7635 -0.7867  0.7732
    4CHTO  H157 1393   6.919  10.490   1.117 -0.1627 -0.8039 -0.1952
    4CHTO   C83 1394   6.922  10.350   1.265 -0.0401 -0.0692  0.8260
    4CHTO  H155 1395   7.020  10.389   1.298  0.8821  3.5678  0.8188
    4CHTO   O56 1396   6.914  10.207   1.276  0.2294  0.2490 -0.3133
    4CHTO  H135 1397   6.981  10.178   1.334 -2.9346  0.0566 -0.1748
    4CHTO   C81 1398   6.812  10.423   1.342 -0.0402  0.4613 -0.6870
    4CHTO  H153 1399   6.818  10.527   1.328  0.0597 -2.9277 -4.2391
    4CHTO   N14 1400   6.834  10.412   1.492 -0.3587 -0.5574 -0.4272
    4CHTO  H141 1401   6.767  10.469   1.555 -1.7003 -0.4598  0.6294
    4CHTO  H142 1402   6.855  10.310   1.530  2.5486  1.0441 -0.0678
    4CHTO   C79 1403   6.670  10.374   1.295  0.0601  0.1840  0.4472
    4CHTO  H151 1404   6.599  10.442   1.347 -0.1551 -0.7395  1.6042
    4CHTO   O52 1405   6.655  10.400   1.153 -0.3985  0.1469  0.4681
    4CHTO   C86 1406   6.765  10.347   1.070  0.3204 -0.0497  0.4921
    4CHTO  H158 1407   6.756  10.234   1.081 -0.4621  0.0934  1.7142
    4CHTO   C90 1408   6.738  10.375   0.917  0.2815 -0.7366  0.5494
    4CHTO   O60 1409   6.771  10.258   0.846 -0.6348  0.0053  0.3113
    4CHTO  H138 1410   6.730  10.182   0.881  1.7295  0.9966  1.3666
    4CHTO   O50 1411   6.624  10.236   1.332 -0.0741  0.1469  0.3982
    4CHTO   C73 1412   6.514  10.148   1.333  0.6423 -0.0633  0.2440
    4CHTO  H145 1413   6.437  10.178   1.252 -1.8162  0.7037 -1.8201
    4CHTO   C74 1414   6.449  10.156   1.473  0.2810 -0.0428  0.0322
    4CHTO  H146 1415   6.431  10.260   1.477  0.4344 -0.3112 -0.4405
    4CHTO   O54 1416   6.324  10.079   1.485 -0.8230 -0.0559  0.1183
    4CHTO  H133 1417   6.312  10.053   1.576 -1.8509  2.2337 -0.0768
    4CHTO   C75 1418   6.553  10.104   1.585 -1.1228  0.1645  0.3961
    4CHTO  H147 1419   6.644  10.164   1.572 -2.4426  1.3718  0.6615
    4CHTO   N13 1420   6.505  10.117   1.723 -0.8763  0.2929 -0.7215
    4CHTO  H139 1421   6.576  10.160   1.788  1.7946  1.7719  1.8098
    4CHTO  H140 1422   6.487  10.018   1.772 -1.0823  0.0034  2.3098
    4CHTO   C76 1423   6.606   9.958   1.540  0.8008 -0.2663  0.3875
    4CHTO  H148 1424   6.531   9.880   1.551 -0.4075  0.1403 -1.2117
    4CHTO   O49 1425   6.654   9.962   1.398 -0.2074  0.0825  0.2996
    4CHTO   C77 1426   6.557  10.003   1.296 -0.1782  0.2121  0.3903
    4CHTO  H149 1427   6.470   9.934   1.298 -0.1565 -3.8351 -1.2664
    4CHTO   C88 1428   6.623   9.992   1.154 -0.6174 -0.1229 -0.4133
    4CHTO   O58 1429   6.674   9.860   1.136 -0.0802  0.0326 -0.4086
    4CHTO  H136 1430   6.757   9.854   1.092 -4.7602 -1.5271 -0.5606
    4CHTO   O51 1431   6.744   9.923   1.639  0.0461  0.1278 -0.2484
    4CHTO   C78 1432   6.840   9.818   1.582  0.1938 -0.5030 -0.2023
    4CHTO  H150 1433   6.826   9.817   1.475 -1.1736  0.8055  1.8637
    4CHTO   C80 1434   6.796   9.679   1.642  0.3999 -0.0967  0.3848
    4CHTO  H152 1435   6.795   9.684   1.751 -0.2275  2.0904 -0.5079
    4CHTO   O55 1436   6.664   9.657   1.599  0.2962  0.1442  0.0167
    4CHTO  H134 1437   6.601   9.702   1.657 -1.2037 -3.2705 -1.1569
    4CHTO   C84 1438   6.897   9.560   1.607  0.3140  0.4711  0.4240
    4CHTO  H156 1439   6.898   9.532   1.501  1.4072  1.0310  0.9965
    4CHTO   N15 1440   6.860   9.430   1.685  0.4520 -0.1203 -0.4238
    4CHTO  H143 1441   6.937   9.365   1.713 -2.6805  0.2083  1.9804
    4CHTO  H144 1442   6.779   9.373   1.642 -1.8215 -1.0888  2.3028
    4CHTO   C87 1443   7.046   9.602   1.639 -0.2630 -0.0166 -0.3674
    4CHTO  H159 1444   7.057   9.616   1.747  0.5995  0.0883  1.4375
    4CHTO   O53 1445   7.069   9.740   1.568  0.4847  0.1342  0.1346
    4CHTO   C82 1446   6.984   9.848   1.615 -0.1994 -0.3127  0.2256
    4CHTO  H154 1447   6.997   9.870   1.720  1.6499  1.8136 -0.2770
    4CHTO   C89 1448   7.019   9.980   1.539 -0.0341 -0.4115 -0.0557
    4CHTO   O59 1449   7.155  10.017   1.555  0.0967 -0.2786 -0.1335
    4CHTO  H137 1450   7.204  10.037   1.471  3.1601  0.6791 -1.1642
    4CHTO   O45 1451   7.157   9.499   1.578  0.0973 -0.3490  0.4260
    4CHTO   C67 1452   7.289   9.482   1.646 -0.0924  0.3810 -0.6267
    4CHTO  H124 1453   7.356   9.572   1.650  1.6268  2.7944  0.1608
    4CHTO   C65 1454   7.283   9.421   1.781  0.8736  0.2505 -0.2842
    4CHTO  H122 1455   7.201   9.471   1.839  1.2548 -0.1117  2.1878
    4CHTO   O44 1456   7.407   9.438   1.847 -0.0602  0.4868 -0.1725
    4CHTO  H102 1457   7.395   9.514   1.907 -0.5365  0.5624 -0.4145
    4CHTO   C63 1458   7.228   9.273   1.767  0.5043  0.4214  0.3379
    4CHTO  H120 1459   7.130   9.277   1.726 -0.3743  1.6955  0.0291
    4CHTO   N11 1460   7.201   9.209   1.899 -0.0660 -0.3821 -0.2848
    4CHTO  H108 1461   7.274   9.218   1.980 -3.0725  1.3795  0.6286
    4CHTO  H109 1462   7.138   9.120   1.898 -0.7920  2.0777 -1.1167
    4CHTO   C61 1463   7.321   9.180   1.683  1.1265  1.0783 -0.1600
    4CHTO  H118 1464   7.257   9.095   1.654  3.2561 -0.4159 -1.9041
    4CHTO   O40 1465   7.354   9.244   1.552  0.2474 -0.1124  0.2650
    4CHTO   C68 1466   7.367   9.387   1.542  0.0142 -0.2016 -0.2412
    4CHTO  H125 1467   7.341   9.412   1.434 -0.1448  0.7436 -0.3415
    4CHTO   C72 1468   7.521   9.403   1.550 -0.1359 -0.5183  0.1965
    4CHTO   O48 1469   7.574   9.383   1.414 -0.0346  0.6266  0.3620
    4CHTO  H105 1470   7.666   9.364   1.416  1.8361  1.7511  2.3258
    4CHTO   O38 1471   7.448   9.141   1.741 -0.5213  0.0547 -0.0607
    4CHTO   C55 1472   7.502   9.006   1.709 -0.4668 -0.1564  0.1926
    4CHTO  H112 1473   7.468   8.986   1.608  0.1017 -0.4227 -0.4734
    4CHTO   C56 1474   7.453   8.896   1.809  0.0294  0.4579  0.0147
    4CHTO  H113 1475   7.502   8.925   1.900  1.3037  4.2477 -1.5483
    4CHTO   O42 1476   7.310   8.899   1.834 -0.0351 -0.2964 -0.0569
    4CHTO  H100 1477   7.287   8.958   1.905  0.0733  1.7191  0.3858
    4CHTO   C57 1478   7.511   8.759   1.757  0.9621  0.0307  0.3610
    4CHTO  H114 1479   7.465   8.743   1.656 -1.3153 -0.0660 -0.4414
    4CHTO   N10 1480   7.465   8.646   1.848  0.3262  0.6299  0.3723
    4CHTO  H106 1481   7.456   8.558   1.785 -1.8251  2.0595  2.9778
    4CHTO  H107 1482   7.537   8.626   1.927 -0.1918  0.7852 -1.3389
    4CHTO   C58 1483   7.670   8.771   1.732  0.0101 -0.3004  0.0059
    4CHTO  H115 1484   7.724   8.762   1.830  1.7697 -2.2020 -2.4961
    4CHTO   O37 1485   7.712   8.886   1.656  0.1930  0.5877 -0.4468
    4CHTO   C59 1486   7.657   9.008   1.697  0.3375  0.1823  0.1828
    4CHTO  H116 1487   7.707   9.037   1.786  0.2302  1.1602 -1.5742
    4CHTO   C70 1488   7.706   9.114   1.596  0.0266  0.2713 -0.1831
    4CHTO   O46 1489   7.847   9.156   1.608  0.1783  0.2894 -0.1440
    4CHTO  H103 1490   7.879   9.142   1.698  0.7228 -1.3007 -0.7634
    4CHTO   O39 1491   7.708   8.651   1.645 -1.0352  0.9457  0.2321
    4CHTO   C60 1492   7.814   8.557   1.684  0.0155 -0.4100 -0.8195
    4CHTO  H117 1493   7.878   8.606   1.760  1.4742 -0.3336  0.0119
    4CHTO   C62 1494   7.761   8.433   1.760 -0.1923 -1.2170  0.1138
    4CHTO  H119 1495   7.707   8.457   1.857  2.2367  0.4189 -1.4711
    4CHTO   O43 1496   7.663   8.365   1.681 -0.2400  0.2912  0.3192
    4CHTO  H101 1497   7.610   8.436   1.657  1.5154  2.2749  0.7585
    4CHTO   C66 1498   7.891   8.345   1.807 -0.3303 -0.1386 -0.1426
    4CHTO  H123 1499   7.956   8.416   1.870 -2.2565  1.3745  0.8609
    4CHTO   N12 1500   7.861   8.241   1.907 -0.9932  0.0798  0.8132
    4CHTO  H110 1501   7.772   8.189   1.871  2.0193  0.1253 -1.8458
    4CHTO  H111 1502   7.846   8.275   2.004 -0.7352  0.3787 -2.8240
    4CHTO   C69 1503   7.977   8.305   1.679  0.7769  0.3342  0.1340
    4CHTO  H126 1504   7.933   8.234   1.611 -0.0637 -0.1288 -1.6155
    4CHTO   O41 1505   8.028   8.436   1.610 -0.2301 -0.2605  0.1549
    4CHTO   C64 1506   7.911   8.515   1.569  1.0424 -0.0872 -0.3331
    4CHTO  H121 1507   7.858   8.461   1.491  0.5217  1.0313  1.5425
    4CHTO   C71 1508   7.967   8.647   1.506 -0.2547 -0.3640 -0.5575
    4CHTO   O47 1509   7.874   8.725   1.428  0.3999  0.0293  0.4113
    4CHTO  H104 1510   7.857   8.695   1.340  0.4239  1.8367  1.5106
    4CHTO   O34 1511   8.102   8.233   1.720  0.0677  0.1220  0.4862
    4CHTO   C49 1512   8.144   8.072   1.756  0.1527  0.8596 -0.1662
    4CHTO   H91 1513   8.131   8.072   1.860  0.5721 -0.2272 -0.9993
    4CHTO   C47 1514   8.292   8.044   1.705 -0.0924  0.1811 -0.0335
    4CHTO   H89 1515   8.327   7.957   1.763 -0.8063 -0.2384  1.2461
    4CHTO   O33 1516   8.356   8.160   1.762  0.3002 -0.6440  0.2523
    4CHTO   H70 1517   8.400   8.140   1.844  0.6702  1.9900 -0.6677
    4CHTO   C45 1518   8.297   8.024   1.545  0.6545  0.1301 -0.1190
    4CHTO   H87 1519   8.242   8.108   1.502  1.1482  0.2257  0.4297
    4CHTO    N8 1520   8.437   8.034   1.493 -0.3690 -0.0247 -0.6473
    4CHTO   H75 1521   8.446   8.135   1.463 -0.8396  0.2999 -1.4101
    4CHTO   H76 1522   8.455   7.973   1.404  0.1412 -0.0898 -0.7400
    4CHTO   C43 1523   8.202   7.905   1.508  0.2398  1.2076 -0.8234
    4CHTO   H85 1524   8.203   7.896   1.399  2.4775  1.9740 -0.2696
    4CHTO   O29 1525   8.069   7.938   1.555  0.1680  0.5831  0.0485
    4CHTO   C50 1526   8.049   7.968   1.696 -0.3320  0.8187  0.1904
    4CHTO   H92 1527   7.948   8.015   1.691 -0.2593  2.1841 -0.3553
    4CHTO   C54 1528   8.021   7.851   1.794  0.9923  0.3509 -0.0375
    4CHTO   O36 1529   7.899   7.785   1.772 -0.0242 -0.2016  0.2133
    4CHTO   H72 1530   7.923   7.704   1.729  2.4829  0.1556 -0.6696
    4CHTO   O27 1531   8.244   7.775   1.569 -0.0449  0.3650 -0.1351
    4CHTO   C37 1532   8.340   7.667   1.569 -0.4648 -0.9959  0.2541
    4CHTO   H79 1533   8.416   7.695   1.488  0.1977 -0.3846 -2.4643
    4CHTO   C38 1534   8.406   7.658   1.712  0.1140 -0.3389 -0.0736
    4CHTO   H80 1535   8.327   7.658   1.787  0.8912 -1.2548 -2.9255
    4CHTO   O31 1536   8.490   7.774   1.733  0.4137  0.9282  0.4512
    4CHTO   H68 1537   8.466   7.809   1.824 -1.6421  0.1419  2.6693
    4CHTO   C39 1538   8.495   7.522   1.738  0.4288  0.7269 -0.9166
    4CHTO   H81 1539   8.595   7.534   1.685  3.2707  0.0714  0.7292
    4CHTO    N7 1540   8.540   7.499   1.880 -0.7154  0.4306 -0.2432
    4CHTO   H73 1541   8.470   7.538   1.950  1.8593 -0.8055  0.5164
    4CHTO   H74 1542   8.561   7.388   1.895  2.9237 -0.1675  0.4623
    4CHTO   C40 1543   8.423   7.398   1.676 -0.3751  0.3466 -0.1986
    4CHTO   H82 1544   8.338   7.378   1.742 -1.9358 -0.6999 -2.2818
    4CHTO   O26 1545   8.378   7.429   1.543  0.0490  0.3509 -0.0778
    4CHTO   C41 1546   8.279   7.528   1.542  0.0286  0.3385  0.4598
    4CHTO   H83 1547   8.194   7.504   1.611 -0.5464 -2.4029  3.2451
    4CHTO   C52 1548   8.213   7.529   1.396  0.0774  0.0092  0.2437
    4CHTO   O35 1549   8.141   7.398   1.362  0.3275  0.3201 -0.4873
    4CHTO   H71 1550   8.066   7.405   1.309 -1.3157 -0.2779 -0.2258
    4CHTO   O28 1551   8.496   7.275   1.668  0.3751 -0.6852  0.4943
    4CHTO   C42 1552   8.435   7.154   1.711  0.0508  0.3960  0.0757
    4CHTO   H84 1553   8.339   7.140   1.662  0.4238 -0.5091 -0.5917
    4CHTO   C44 1554   8.407   7.130   1.867 -0.1853  0.0622  0.7567
    4CHTO   H86 1555   8.500   7.153   1.919 -2.6055  1.7668  2.5374
    4CHTO   O32 1556   8.317   7.228   1.918  0.2838  0.4767 -0.3440
    4CHTO   H69 1557   8.336   7.315   1.891  0.9084 -2.1394 -0.1905
    4CHTO   C48 1558   8.352   6.983   1.901  0.5141  0.0988  0.1335
    4CHTO   H90 1559   8.253   6.986   1.853  0.8957  0.5792 -1.8033
    4CHTO    N9 1560   8.332   6.955   2.048 -0.8926  0.7937  0.5333
    4CHTO   H77 1561   8.376   7.035   2.097 -0.0184  0.3032 -0.9883
    4CHTO   H78 1562   8.234   6.933   2.073  2.1012 -1.4694  0.0224
    4CHTO   C51 1563   8.439   6.876   1.830  0.1540 -0.4981 -0.2289
    4CHTO   H93 1564   8.532   6.873   1.884  1.4947  0.0873  1.6729
    4CHTO   O30 1565   8.458   6.914   1.692 -0.4624 -0.2530  0.4212
    4CHTO   C46 1566   8.522   7.036   1.661  0.1689  0.1583 -0.5103
    4CHTO   H88 1567   8.621   7.025   1.708  2.0568  3.2640 -1.0904
    4CHTO   C53 1568   8.521   7.026   1.506  0.0928  0.5089 -0.5195
    4CHTO   O72 1569   8.606   6.918   1.458  0.1389  0.2519 -0.7606
    4CHTO  H199 1570   8.560   6.838   1.426 -0.6517  1.5171  0.8080
    4CHTO   O22 1571   8.371   6.746   1.834  0.0798 -0.4705  0.5167
    4CHTO   C31 1572   8.446   6.627   1.792 -0.2038  0.5116 -0.4118
    4CHTO   H59 1573   8.551   6.664   1.750  1.2650  1.5893 -2.0506
    4CHTO   C29 1574   8.474   6.544   1.918  0.6108  0.1641  0.2375
    4CHTO   H57 1575   8.371   6.503   1.942 -1.4739  1.0358  1.5398
    4CHTO   O21 1576   8.534   6.636   2.010  0.0846 -0.1919  0.3562
    4CHTO   H37 1577   8.610   6.652   1.957  0.9656 -1.4270 -0.5900
    4CHTO   C27 1578   8.567   6.430   1.878  0.5938 -0.2563  0.3362
    4CHTO   H55 1579   8.654   6.475   1.836 -0.3848  2.5560  0.1302
    4CHTO    N5 1580   8.600   6.338   1.985  0.0750 -0.0518 -0.1753
    4CHTO   H43 1581   8.517   6.272   2.000 -0.6587  0.3946 -0.7924
    4CHTO   H44 1582   8.682   6.273   1.952  2.5395 -0.3859 -0.0012
    4CHTO   C25 1583   8.506   6.344   1.757  0.3967 -0.5305 -0.1100
    4CHTO   H53 1584   8.433   6.270   1.791  0.6696  0.8418  2.2061
    4CHTO   O17 1585   8.447   6.431   1.658  0.0799 -0.1068  0.1511
    4CHTO   C32 1586   8.372   6.551   1.677 -0.7056  0.1657 -0.0883
    4CHTO   H60 1587   8.277   6.522   1.714  0.1672 -0.7183  1.2874
    4CHTO   C36 1588   8.351   6.627   1.548  0.4949  0.4506 -0.6032
    4CHTO   O25 1589   8.272   6.743   1.563  0.0077 -0.4499 -0.2574
    4CHTO   H40 1590   8.255   6.793   1.480  0.3167  1.7628  0.7831
    4CHTO   O15 1591   8.633   6.279   1.691 -0.2011 -0.3221  0.0070
    4CHTO   C19 1592   8.752   6.332   1.623 -0.3193 -0.2545  0.4591
    4CHTO   H47 1593   8.762   6.260   1.543 -0.5483 -1.1150 -0.8831
    4CHTO   C20 1594   8.738   6.472   1.556 -0.2527  0.9095  1.0062
    4CHTO   H48 1595   8.726   6.546   1.634  0.4356 -0.4943 -1.1101
    4CHTO   O19 1596   8.627   6.465   1.471 -0.9077 -0.3022  0.7044
    4CHTO   H35 1597   8.640   6.409   1.399 -0.0208 -1.4587  0.5056
    4CHTO   C21 1598   8.874   6.516   1.485 -0.4196  0.2028  0.5811
    4CHTO   H49 1599   8.903   6.438   1.413  0.1713  0.9811  1.2113
    4CHTO    N4 1600   8.862   6.654   1.418 -0.1622 -0.1625  0.1326
    4CHTO   H41 1601   8.950   6.685   1.365 -1.1474  2.6064  5.1393
    4CHTO   H42 1602   8.835   6.722   1.494 -2.4663 -0.9261 -1.1688
    4CHTO   C22 1603   8.982   6.518   1.597  0.7872  0.0192 -0.4365
    4CHTO   H50 1604   8.958   6.586   1.677  0.6410  0.4632 -1.6830
    4CHTO   O14 1605   8.997   6.385   1.633 -0.1472 -0.3877 -0.3192
    4CHTO   C23 1606   8.887   6.330   1.708  0.0772  0.0247 -0.6689
    4CHTO   H51 1607   8.877   6.391   1.792  0.9123 -0.2689 -2.8693
    4CHTO   C34 1608   8.923   6.185   1.750 -0.1989 -0.5612  0.8856
    4CHTO   O23 1609   9.030   6.184   1.841  0.1423  0.0739 -0.5073
    4CHTO   H38 1610   9.039   6.095   1.872  1.6561 -1.0791 -0.2952
    4CHTO   O16 1611   9.115   6.538   1.548 -0.8315 -0.4029  0.8522
    4CHTO   C24 1612   9.209   6.628   1.652 -0.1453  0.2908 -0.2810
    4CHTO   H52 1613   9.159   6.636   1.751  1.6519 -1.1940 -0.3670
    4CHTO   C26 1614   9.234   6.765   1.584  0.6017  0.1085 -0.7209
    4CHTO   H54 1615   9.248   6.748   1.487  2.3241 -2.7863  2.0322
    4CHTO   O20 1616   9.105   6.836   1.596 -0.0233 -0.5520 -0.0974
    4CHTO   H36 1617   9.123   6.929   1.604  1.8312 -0.8171 -0.0785
    4CHTO   C30 1618   9.344   6.843   1.641 -0.0133  0.3731 -0.6894
    4CHTO   H58 1619   9.321   6.863   1.751  4.1246 -0.9122 -0.6098
    4CHTO    N6 1620   9.368   6.958   1.557  0.2838 -0.2523 -0.3842
    4CHTO   H45 1621   9.395   6.929   1.458  1.0177 -0.5682  1.6695
    4CHTO   H46 1622   9.449   7.013   1.597 -0.5778  0.1597  0.2558
    4CHTO   C33 1623   9.468   6.755   1.652 -0.3888 -0.5043 -0.9633
    4CHTO   H61 1624   9.495   6.717   1.555  0.3281 -0.3079  2.5881
    4CHTO   O18 1625   9.430   6.647   1.739 -0.3386  0.1517  0.3448
    4CHTO   C28 1626   9.347   6.556   1.676  0.0005 -0.0778  0.2035
    4CHTO   H56 1627   9.395   6.524   1.582  3.3005 -0.5923 -0.8823
    4CHTO   C35 1628   9.333   6.428   1.762  0.7288 -0.0429  0.7587
    4CHTO   O24 1629   9.277   6.323   1.690  0.3900 -0.1418 -0.0890
    4CHTO   H39 1630   9.193   6.295   1.723 -1.8938  0.2427 -0.2162
    4CHTO    O9 1631   9.580   6.825   1.702  0.0426  0.2086 -0.3562
    4CHTO   C13 1632   9.711   6.745   1.701 -0.2142  0.3215 -0.0854
    4CHTO   H26 1633   9.693   6.646   1.649  1.1944 -1.9616 -2.2825
    4CHTO   C11 1634   9.753   6.724   1.851 -0.6499 -0.0736  0.3943
    4CHTO   H24 1635   9.692   6.653   1.901  1.3927 -0.6283  2.1620
    4CHTO    O8 1636   9.740   6.843   1.930  0.1933 -0.0162 -0.1462
    4CHTO    H3 1637   9.805   6.852   1.994 -1.6245  0.6769 -1.3875
    4CHTO    C9 1638   9.896   6.666   1.845 -0.0792  0.3204 -0.3109
    4CHTO   H22 1639   9.897   6.585   1.778  1.2448  1.0651  0.3411
    4CHTO    N2 1640   9.943   6.601   1.968 -0.4290 -0.0954 -0.1346
    4CHTO   H10 1641   9.969   6.669   2.050 -0.2667 -2.2187 -0.7844
    4CHTO   H11 1642  10.031   6.548   1.941  0.6799  0.7209  1.4794
    4CHTO    C7 1643   9.994   6.784   1.800  0.0473  0.7695 -0.2005
    4CHTO   H20 1644  10.076   6.731   1.760  0.8414  0.7635 -3.4380
    4CHTO    O4 1645   9.931   6.872   1.707 -0.3877  0.3032  0.3031
    4CHTO   C14 1646   9.822   6.831   1.620  0.3983 -0.1609  0.5861
    4CHTO   H27 1647   9.863   6.774   1.546 -1.9663 -0.7563  2.9922
    4CHTO   C18 1648   9.772   6.962   1.547 -0.1369 -0.5232 -0.2101
    4CHTO   O13 1649   9.731   7.062   1.641  0.4026  0.1806 -0.5840
    4CHTO    H7 1650   9.668   7.029   1.709  1.8898 -0.0968 -1.4691
    4CHTO    O2 1651  10.041   6.884   1.935 -0.1233  0.3346 -0.1419
    4CHTO    C1 1652  10.129   6.991   1.887 -0.3002  0.0578 -0.4730
    4CHTO   H14 1653  10.066   7.060   1.817  0.8161  0.9034 -1.1964
    4CHTO    C2 1654  10.271   6.952   1.810 -0.5475  0.0892 -0.6061
    4CHTO   H15 1655  10.337   6.895   1.876 -1.8565  0.9560  0.3631
    4CHTO    O6 1656  10.247   6.891   1.684 -0.0957  0.0406  0.8720
    4CHTO    H1 1657  10.199   6.811   1.696  0.2132  1.1954 -0.3629
    4CHTO    C3 1658  10.362   7.087   1.781  0.0732 -0.2429  0.5590
    4CHTO   H16 1659  10.320   7.164   1.708  2.3330  0.1168 -3.9590
    4CHTO    N1 1660  10.498   7.052   1.718  0.2880  0.5697  0.5421
    4CHTO    H8 1661  10.494   6.961   1.668 -0.0430  2.6989 -1.8301
    4CHTO    H9 1662  10.580   7.057   1.784 -2.3044 -0.2684 -0.2177
    4CHTO    C4 1663  10.383   7.166   1.923 -0.6480 -0.5721  0.5953
    4CHTO   H17 1664  10.422   7.095   1.997 -2.4778 -2.6579 -0.0078
    4CHTO    O1 1665  10.245   7.197   1.962 -0.0800 -0.1918 -0.0011
    4CHTO    C5 1666  10.170   7.080   2.008  0.0397  0.2371 -0.8160
    4CHTO   H18 1667  10.233   7.020   2.079 -1.0033 -1.0775 -1.9079
    4CHTO   C16 1668  10.046   7.144   2.085 -0.2200  0.9440  0.1797
    4CHTO   O11 1669  10.097   7.218   2.193  0.2947 -0.3559  0.6502
    4CHTO    H5 1670  10.185   7.255   2.179  2.9904  2.5494 -1.9836
    4CHTO    O3 1671  10.463   7.283   1.911  0.0156  0.0161 -0.6135
    4CHTO    C6 1672  10.553   7.303   2.031 -0.3203 -0.1414 -0.5455
    4CHTO   H19 1673  10.533   7.229   2.110 -1.2794 -2.5843 -0.3084
    4CHTO    C8 1674  10.694   7.270   1.986 -0.1509  0.0044  0.2366
    4CHTO   H21 1675  10.713   7.320   1.893  3.5002  0.3026 -0.9927
    4CHTO    O7 1676  10.701   7.134   1.944 -0.1924  0.3103  0.2206
    4CHTO    H2 1677  10.670   7.120   1.855 -0.8101  0.4151 -2.2778
    4CHTO   C12 1678  10.801   7.308   2.097 -0.2505  0.1715  1.1844
    4CHTO   H25 1679  10.793   7.223   2.166  3.0448  0.6035 -3.8042
    4CHTO    N3 1680  10.940   7.298   2.038  0.2774 -0.3038  0.2961
    4CHTO   H12 1681  10.980   7.200   2.047 -0.1849  2.3274 -0.1208
    4CHTO   H13 1682  10.942   7.345   1.939 -1.1510  1.3589  4.4042
    4CHTO   C15 1683  10.767   7.449   2.164 -0.4477  0.1779 -0.1198
    4CHTO   H28 1684  10.783   7.537   2.105  0.0944  2.7333 -0.5548
    4CHTO   O10 1685  10.837   7.469   2.312  0.2210 -0.1708 -0.2198
    4CHTO    H4 1686  10.922   7.428   2.314  0.6492 -0.7784  1.5182
    4CHTO    O5 1687  10.625   7.447   2.200 -0.3644  0.1193  0.0454
    4CHTO   C10 1688  10.533   7.446   2.091 -0.2399 -0.1421  0.4260
    4CHTO   H23 1689  10.557   7.534   2.026 -0.8067 -0.2003 -0.4403
    4CHTO   C17 1690  10.393   7.472   2.147  0.5303 -0.2002  0.8579
    4CHTO   O12 1691  10.339   7.360   2.221  0.2539 -0.2442 -0.2177
    4CHTO    H6 1692  10.392   7.352   2.298 -1.4692 -0.8745  0.7875
    5CHTO  H203 1693   7.150   3.786   4.663  1.7606  0.5072 -2.3114
    5CHTO   O82 1694   7.214   3.851   4.680 -0.3636 -0.5058  0.2288
    5CHTO  C123 1695   7.238   3.912   4.807  0.2402 -0.3446 -0.4990
    5CHTO  H227 1696   7.333   3.972   4.790  0.2899  0.2261  0.8953
    5CHTO   O77 1697   7.120   3.999   4.831 -0.0718 -0.7486 -0.1170
    5CHTO  C118 1698   7.150   4.093   4.939  0.0988 -0.6112  0.0891
    5CHTO  H222 1699   7.250   4.137   4.920  1.2116 -0.7004  0.8468
    5CHTO  C125 1700   7.047   4.209   4.946  0.2001  0.0331  0.4796
    5CHTO   O84 1701   6.911   4.174   4.927  0.4644  0.0475 -0.1611
    5CHTO  H205 1702   6.900   4.179   4.828 -4.0979 -0.1458  0.0266
    5CHTO  C114 1703   7.147   4.013   5.069  0.4701 -0.3569 -1.0313
    5CHTO  H218 1704   7.044   3.974   5.079 -0.0791 -3.1032  1.8563
    5CHTO  C116 1705   7.248   3.903   5.064 -0.2908 -0.1102 -0.3158
    5CHTO  H220 1706   7.354   3.949   5.088  0.8386 -1.1568 -1.0675
    5CHTO   O79 1707   7.222   3.826   5.177  0.0114 -0.3283  0.0205
    5CHTO  H201 1708   7.218   3.733   5.153  0.7925  0.1501 -0.4096
    5CHTO  C120 1709   7.253   3.816   4.929 -1.1181 -0.7606  0.0142
    5CHTO  H224 1710   7.178   3.741   4.935  2.4651 -0.6286 -2.1807
    5CHTO   N21 1711   7.373   3.734   4.929 -0.2155 -0.4142 -0.3749
    5CHTO  H211 1712   7.401   3.707   5.031 -0.2752 -0.9938 -0.9482
    5CHTO  H212 1713   7.367   3.647   4.862 -1.4695 -0.7801  2.0533
    5CHTO   O75 1714   7.180   4.108   5.179 -0.1809  0.6352  0.1899
    5CHTO  C112 1715   7.072   4.078   5.316 -0.0931 -0.0135 -0.9897
    5CHTO  H216 1716   7.081   3.974   5.349 -2.1115 -1.3278 -0.0743
    5CHTO   O73 1717   6.942   4.104   5.262 -0.3397 -0.0655 -0.2342
    5CHTO  C113 1718   6.836   4.117   5.354 -0.5990 -0.4050  0.3413
    5CHTO  H217 1719   6.817   4.019   5.391  0.9497 -2.2579 -1.4857
    5CHTO  C124 1720   6.721   4.170   5.260 -0.2081 -0.5118 -0.3968
    5CHTO   O83 1721   6.735   4.302   5.210  0.1409  0.5754  0.5788
    5CHTO  H204 1722   6.722   4.313   5.117  0.6354  3.2574 -2.5681
    5CHTO  C109 1723   6.859   4.223   5.464  0.2769  0.7284  0.5193
    5CHTO  H213 1724   6.860   4.318   5.420 -0.5298  1.0273 -0.4606
    5CHTO  C110 1725   7.003   4.194   5.530 -0.4840  0.4999  0.4389
    5CHTO  H214 1726   6.996   4.109   5.598  0.3080  1.0714 -1.3228
    5CHTO   O78 1727   7.025   4.298   5.630 -0.0056 -0.2541 -0.4259
    5CHTO  H200 1728   6.951   4.305   5.694  0.1485  2.3293  1.1584
    5CHTO  C111 1729   7.121   4.180   5.432 -0.1758  0.8661 -0.5832
    5CHTO  H215 1730   7.146   4.276   5.389  2.4492 -1.8026 -1.8052
    5CHTO   N19 1731   7.249   4.131   5.495 -0.0140 -0.0184  0.0335
    5CHTO  H207 1732   7.323   4.113   5.418 -1.3130 -2.3385  0.4260
    5CHTO  H208 1733   7.237   4.030   5.546 -1.5548 -2.3234  0.1417
    5CHTO   O74 1734   6.741   4.210   5.557  0.0491  0.6715  0.1059
    5CHTO  C115 1735   6.682   4.370   5.598  0.2867 -0.7254  0.4890
    5CHTO  H219 1736   6.759   4.437   5.615 -2.9034  1.8343 -1.5463
    5CHTO   O76 1737   6.594   4.442   5.458 -0.0918 -0.4376  0.2968
    5CHTO  C122 1738   6.499   4.541   5.492  0.1435 -0.7292 -0.4739
    5CHTO  H226 1739   6.425   4.552   5.407 -0.8077  2.7686 -1.7390
    5CHTO  C126 1740   6.573   4.678   5.512  0.2647 -0.8085  0.0053
    5CHTO   O85 1741   6.648   4.700   5.397 -0.0282  0.0764 -0.1564
    5CHTO  H206 1742   6.608   4.762   5.343  1.0719 -1.3136  1.1160
    5CHTO  C121 1743   6.418   4.513   5.616 -0.0120 -0.1646 -1.5392
    5CHTO  H225 1744   6.348   4.593   5.638  0.9621  0.3752 -1.9746
    5CHTO   O81 1745   6.329   4.402   5.587 -0.1496  0.4534  0.2952
    5CHTO  H202 1746   6.236   4.422   5.589 -0.0442 -1.2959  0.5463
    5CHTO  C119 1747   6.506   4.489   5.743 -0.7016  0.0576 -0.2954
    5CHTO  H223 1748   6.572   4.573   5.750 -0.2449 -0.1088  2.5887
    5CHTO  C117 1749   6.583   4.355   5.724  0.8999  0.6728 -0.1134
    5CHTO  H221 1750   6.522   4.275   5.695 -0.9229  3.8558  1.7731
    5CHTO   N20 1751   6.662   4.307   5.847 -0.6341  0.2303 -0.0363
    5CHTO  H209 1752   6.702   4.207   5.821  2.7939  0.0126 -0.8601
    5CHTO  H210 1753   6.744   4.374   5.855 -0.5434 -0.2474 -0.2747
    5CHTO   O80 1754   6.429   4.496   5.890  0.1876 -0.1244 -0.5598
    5CHTO  C103 1755   6.296   4.429   5.908 -0.4768 -0.5114 -0.3171
    5CHTO  H190 1756   6.229   4.447   5.824 -0.0829 -0.4862 -0.8903
    5CHTO  C101 1757   6.294   4.274   5.942  0.2492  0.3975  0.5380
    5CHTO  H188 1758   6.370   4.268   6.018  0.1127  1.9299  0.9517
    5CHTO   O68 1759   6.339   4.186   5.811  1.0311 -0.2616 -0.0442
    5CHTO  H168 1760   6.394   4.118   5.840 -0.2044  2.6342  1.6060
    5CHTO   C99 1761   6.147   4.233   5.985  0.4444 -1.0432  0.0309
    5CHTO  H186 1762   6.083   4.256   5.896  0.5426  0.3045  2.7721
    5CHTO   N17 1763   6.131   4.090   6.025  0.4101 -0.0148  0.4792
    5CHTO  H174 1764   6.078   4.079   6.121 -0.2908  0.3767  0.7230
    5CHTO  H175 1765   6.083   4.037   5.944 -1.5720  0.4635  0.8364
    5CHTO   C97 1766   6.108   4.328   6.103  0.6533  0.3446  0.0107
    5CHTO  H184 1767   6.192   4.313   6.170  0.0281  1.9636  0.3914
    5CHTO   O64 1768   6.107   4.457   6.053  0.2950  0.5313 -0.2535
    5CHTO  C104 1769   6.235   4.511   6.028 -0.5571  0.4165  0.6701
    5CHTO  H191 1770   6.303   4.509   6.110 -2.3214  0.2865 -1.2519
    5CHTO  C108 1771   6.221   4.660   5.994  0.1448 -0.1357  0.2010
    5CHTO   O71 1772   6.346   4.720   6.030  0.3268 -0.9097  0.0361
    5CHTO  H171 1773   6.382   4.758   5.955  2.4907  1.2839  0.8935
    5CHTO   O62 1774   5.977   4.311   6.160  0.1299  0.5074 -0.1375
    5CHTO   C91 1775   5.851   4.345   6.086  0.0035 -0.6074  0.3002
    5CHTO  H178 1776   5.847   4.448   6.045  1.2404 -1.6724 -0.6039
    5CHTO   C92 1777   5.736   4.336   6.194  0.2181 -0.4691 -0.3899
    5CHTO  H179 1778   5.776   4.407   6.272  1.5932  2.9115  0.7416
    5CHTO   O66 1779   5.626   4.397   6.135 -0.1671 -0.1402  0.1859
    5CHTO  H166 1780   5.562   4.435   6.193 -2.0334 -2.6455  0.1659
    5CHTO   C93 1781   5.689   4.188   6.237 -0.6672  0.1775 -0.1182
    5CHTO  H180 1782   5.583   4.194   6.269  0.2240 -3.2350  2.6390
    5CHTO   N16 1783   5.769   4.131   6.352  0.2559  0.3015 -0.4369
    5CHTO  H172 1784   5.780   4.190   6.442 -2.5774  1.9115  3.8459
    5CHTO  H173 1785   5.729   4.034   6.370 -1.4045 -0.5577  4.1683
    5CHTO   C94 1786   5.704   4.100   6.107 -0.8332 -0.5335 -0.4237
    5CHTO  H181 1787   5.797   4.045   6.106  1.6398 -2.4993 -0.0352
    5CHTO   O61 1788   5.688   4.183   5.986 -0.5579 -0.3002 -0.6325
    5CHTO   C95 1789   5.804   4.261   5.955  0.0057  0.2384 -0.8556
    5CHTO  H182 1790   5.884   4.197   5.905  0.8285  1.4635 -2.0397
    5CHTO  C106 1791   5.775   4.358   5.834 -0.5792  0.3477  0.0475
    5CHTO   O69 1792   5.887   4.418   5.768 -0.0166 -0.4838  0.0945
    5CHTO  H169 1793   5.943   4.353   5.735  1.0984 -0.0479  0.3979
    5CHTO   O63 1794   5.576   3.994   6.096 -0.1443  0.3080  0.0989
    5CHTO   C96 1795   5.591   3.907   5.972  0.0008  0.1479  0.0021
    5CHTO  H183 1796   5.618   3.965   5.883 -4.3974  1.5673 -0.9429
    5CHTO   C98 1797   5.467   3.846   5.914  0.5773  0.0435  0.4345
    5CHTO  H185 1798   5.384   3.923   5.916  3.2447 -0.1216  1.6659
    5CHTO   O67 1799   5.489   3.817   5.776  0.0038 -0.2606  0.2557
    5CHTO  H167 1800   5.497   3.891   5.724 -1.0210 -1.8460  0.4212
    5CHTO  C102 1801   5.413   3.720   5.988 -0.1058 -0.2179 -0.4891
    5CHTO  H189 1802   5.344   3.675   5.914  0.6774  1.6275 -1.5385
    5CHTO   N18 1803   5.336   3.737   6.109 -0.4373 -0.4060  0.0310
    5CHTO  H176 1804   5.306   3.839   6.139  0.5112 -0.0859 -1.4449
    5CHTO  H177 1805   5.266   3.659   6.119  1.0634  2.4144  0.1891
    5CHTO  C105 1806   5.529   3.619   6.015 -0.7208  0.3596 -0.9999
    5CHTO  H192 1807   5.494   3.540   6.083 -0.4496  0.9421  0.1228
    5CHTO   O65 1808   5.646   3.689   6.072  0.2319 -0.4762  0.2346
    5CHTO  C100 1809   5.703   3.802   6.015  0.0549  0.2797 -0.1808
    5CHTO  H187 1810   5.765   3.837   6.104 -1.1353  0.2067  1.8639
    5CHTO  C107 1811   5.798   3.755   5.909 -0.2980  0.2801 -0.3207
    5CHTO   O70 1812   5.876   3.863   5.852  0.0338  0.1277  0.1302
    5CHTO  H170 1813   5.833   3.943   5.855  1.5856  0.3586 -1.9232
    5CHTO   O57 1814   5.568   3.548   5.878 -0.3655  0.1399  0.3781
    5CHTO   C85 1815   5.546   3.408   5.862 -0.0162 -0.3506 -0.6731
    5CHTO  H157 1816   5.468   3.388   5.935  0.7926 -0.8880 -0.1878
    5CHTO   C83 1817   5.674   3.336   5.901 -0.0567 -0.6085 -0.2110
    5CHTO  H155 1818   5.693   3.357   6.007  0.0757 -2.5455 -1.2475
    5CHTO   O56 1819   5.783   3.380   5.826  0.4353  0.6306  0.1891
    5CHTO  H135 1820   5.812   3.322   5.761 -2.3557 -0.2771  1.2919
    5CHTO   C81 1821   5.649   3.181   5.886  0.4536 -0.0744 -0.7409
    5CHTO  H153 1822   5.558   3.158   5.946  0.2482  2.3638  0.5956
    5CHTO   N14 1823   5.761   3.098   5.942 -0.7778 -0.1493 -0.0886
    5CHTO  H141 1824   5.809   3.149   6.025 -0.3222  1.3892  0.3694
    5CHTO  H142 1825   5.735   3.000   5.973 -0.9522  1.2841 -0.0804
    5CHTO   C79 1826   5.618   3.147   5.734  0.1755  0.0407  0.7404
    5CHTO  H151 1827   5.585   3.042   5.727  2.4167  0.2610  3.1318
    5CHTO   O52 1828   5.503   3.220   5.691  0.7326  0.0378 -0.2748
    5CHTO   C86 1829   5.508   3.364   5.707  0.0621 -0.0480  0.0647
    5CHTO  H158 1830   5.593   3.400   5.630  0.7895 -0.7417 -2.3252
    5CHTO   C90 1831   5.381   3.437   5.665 -0.2885  0.5175  0.8610
    5CHTO   O60 1832   5.372   3.418   5.518 -0.0223 -0.2985 -0.0750
    5CHTO  H138 1833   5.428   3.479   5.478 -1.4051  2.6860  1.8127
    5CHTO   O50 1834   5.721   3.155   5.633  0.0407 -0.5307  0.0907
    5CHTO   C73 1835   5.740   3.103   5.500  0.1044  0.6874  0.4328
    5CHTO  H145 1836   5.639   3.071   5.461  0.8018  1.1723 -0.7715
    5CHTO   C74 1837   5.827   2.977   5.505 -0.0180  0.1883 -0.2001
    5CHTO  H146 1838   5.776   2.901   5.569  0.0299  2.5562 -1.0499
    5CHTO   O54 1839   5.828   2.917   5.368 -0.0757  0.4096 -0.1481
    5CHTO  H133 1840   5.766   2.943   5.307  1.5630  1.4198  0.8157
    5CHTO   C75 1841   5.971   3.023   5.562 -0.7842  0.2723 -0.2542
    5CHTO  H147 1842   5.954   3.060   5.662 -2.8258 -1.9018 -0.2059
    5CHTO   N13 1843   6.062   2.905   5.580  0.4190 -0.3048 -0.0609
    5CHTO  H139 1844   6.016   2.841   5.655 -0.5913 -2.5468 -0.3353
    5CHTO  H140 1845   6.155   2.941   5.623  3.1903  1.3751  2.6350
    5CHTO   C76 1846   6.031   3.151   5.478  0.2153  0.2709  0.8938
    5CHTO  H148 1847   6.064   3.123   5.376  0.9909 -1.3381 -2.3460
    5CHTO   O49 1848   5.931   3.260   5.463 -0.1619  0.1664  0.1339
    5CHTO   C77 1849   5.803   3.210   5.407 -0.6399 -0.3560 -0.2614
    5CHTO  H149 1850   5.809   3.160   5.307  1.8411  2.3161 -2.5124
    5CHTO   C88 1851   5.710   3.332   5.387 -0.4774 -0.5642 -0.1319
    5CHTO   O58 1852   5.565   3.289   5.326 -0.2526  0.6265 -0.2994
    5CHTO  H136 1853   5.525   3.368   5.299  3.2304  1.8566 -2.2405
    5CHTO   O51 1854   6.155   3.220   5.546  0.4612  0.0180  0.4330
    5CHTO   C78 1855   6.204   3.359   5.476 -0.1509 -0.3191  0.0992
    5CHTO  H150 1856   6.136   3.390   5.392  0.7011 -1.7135  1.3820
    5CHTO   C80 1857   6.348   3.329   5.420  0.3234  0.0096 -1.2450
    5CHTO  H152 1858   6.406   3.282   5.503 -0.3812 -1.1355 -1.9084
    5CHTO   O55 1859   6.317   3.243   5.308 -0.3945  0.0770 -0.7573
    5CHTO  H134 1860   6.390   3.209   5.269 -0.5814  1.7368 -0.3691
    5CHTO   C84 1861   6.420   3.463   5.367 -0.3488  0.2844  0.7572
    5CHTO  H156 1862   6.384   3.501   5.273 -0.6473  4.1230 -1.8331
    5CHTO   N15 1863   6.562   3.422   5.332 -0.2837 -0.7978  0.1115
    5CHTO  H143 1864   6.605   3.506   5.276  2.8120 -1.1030 -1.0619
    5CHTO  H144 1865   6.564   3.339   5.270 -0.1375  1.7192  1.0327
    5CHTO   C87 1866   6.406   3.572   5.475  0.0067  0.4094 -0.5409
    5CHTO  H159 1867   6.463   3.521   5.558  0.4688 -0.5774  0.6257
    5CHTO   O53 1868   6.279   3.593   5.527 -0.3522 -0.3032 -0.6201
    5CHTO   C82 1869   6.217   3.477   5.577 -0.2149  0.4147  0.4384
    5CHTO  H154 1870   6.275   3.435   5.659  0.6240 -2.0348 -1.8217
    5CHTO   C89 1871   6.080   3.502   5.636  0.0465  1.0124 -0.1226
    5CHTO   O59 1872   6.106   3.566   5.769  0.1106 -0.4916 -0.0750
    5CHTO  H137 1873   6.195   3.567   5.788  2.4612 -2.0639 -1.6719
    5CHTO   O45 1874   6.475   3.719   5.448 -0.4076  0.4540  0.5077
    5CHTO   C67 1875   6.538   3.764   5.568  0.1794 -0.3863 -0.9858
    5CHTO  H124 1876   6.489   3.734   5.664 -1.2328 -0.1121 -1.1844
    5CHTO   C65 1877   6.698   3.723   5.577 -0.1206  0.0919 -0.0099
    5CHTO  H122 1878   6.734   3.716   5.475  1.7823  1.1074 -3.4134
    5CHTO   O44 1879   6.703   3.593   5.649  0.0378 -0.3877  0.0510
    5CHTO  H102 1880   6.767   3.599   5.710  1.1709  2.8592 -1.8235
    5CHTO   C63 1881   6.793   3.835   5.650 -0.2733 -0.5149  0.2468
    5CHTO  H120 1882   6.825   3.903   5.578 -1.2513 -2.8624  1.1143
    5CHTO   N11 1883   6.928   3.790   5.698 -0.5826 -0.4124  0.4576
    5CHTO  H108 1884   6.998   3.755   5.626  1.1181  2.8695 -0.3870
    5CHTO  H109 1885   6.914   3.702   5.760 -0.4877 -0.4473  0.4165
    5CHTO   C61 1886   6.705   3.915   5.747  0.9600  0.4592  0.6092
    5CHTO  H118 1887   6.768   3.988   5.793  0.7266 -2.5186  2.1138
    5CHTO   O40 1888   6.594   3.993   5.677 -0.3016  0.4891 -0.1989
    5CHTO   C68 1889   6.531   3.922   5.567  0.4603  0.0721 -0.2358
    5CHTO  H125 1890   6.562   3.966   5.472 -1.6201  2.3007 -2.7570
    5CHTO   C72 1891   6.382   3.970   5.590  0.1436  0.1441  0.7534
    5CHTO   O48 1892   6.296   3.952   5.480  0.2659 -0.0439 -0.6205
    5CHTO  H105 1893   6.259   4.029   5.445 -1.5029 -2.6888  0.5797
    5CHTO   O38 1894   6.656   3.824   5.853 -0.1737  0.5501 -0.0810
    5CHTO   C55 1895   6.593   3.891   5.962  0.5739  0.0548 -0.2832
    5CHTO  H112 1896   6.546   3.976   5.925 -0.7506 -0.8347  1.8555
    5CHTO   C56 1897   6.698   3.922   6.078  0.6669  0.0009  0.1766
    5CHTO  H113 1898   6.740   3.828   6.103  1.3425 -2.9308 -3.9802
    5CHTO   O42 1899   6.804   4.005   6.035  0.0775  0.2362 -0.6212
    5CHTO  H100 1900   6.878   4.006   6.094  2.0235 -0.1924  0.2341
    5CHTO   C57 1901   6.627   3.973   6.215  0.5591  0.0025 -0.1944
    5CHTO  H114 1902   6.603   4.079   6.208  1.0769  1.9206 -3.4634
    5CHTO   N10 1903   6.723   3.975   6.327  0.2596  0.0888 -0.3973
    5CHTO  H106 1904   6.696   3.917   6.417 -1.3029  0.5054  1.2956
    5CHTO  H107 1905   6.766   4.069   6.360 -1.1707  2.1996 -0.4722
    5CHTO   C58 1906   6.494   3.890   6.248  0.7335 -0.0985 -1.3096
    5CHTO  H115 1907   6.517   3.786   6.277 -0.2767 -1.1275 -3.8634
    5CHTO   O37 1908   6.411   3.874   6.134 -0.0544  0.0118  0.6232
    5CHTO   C59 1909   6.478   3.803   6.020 -0.2498  0.1041  0.8187
    5CHTO  H116 1910   6.514   3.704   6.060  1.1981 -0.8593  1.1893
    5CHTO   C70 1911   6.379   3.757   5.921 -0.3569 -0.5878 -0.2446
    5CHTO   O46 1912   6.299   3.868   5.885 -0.2917  0.5771  0.4105
    5CHTO  H103 1913   6.280   3.880   5.794  0.0193 -0.9947  1.5052
    5CHTO   O39 1914   6.403   3.973   6.365  0.2108 -0.1859 -0.4324
    5CHTO   C60 1915   6.312   3.891   6.436  0.0243 -0.6216 -0.2880
    5CHTO  H117 1916   6.254   3.833   6.364  0.3041 -0.0398  1.1306
    5CHTO   C62 1917   6.379   3.787   6.531  0.0583 -0.0839 -0.0317
    5CHTO  H119 1918   6.442   3.711   6.472  0.6404 -1.6820 -1.6874
    5CHTO   O43 1919   6.469   3.865   6.606 -0.4809  0.1321 -0.2869
    5CHTO  H101 1920   6.552   3.858   6.559 -2.6053 -1.4448  0.0242
    5CHTO   C66 1921   6.266   3.703   6.617 -0.1860 -0.2258 -0.7398
    5CHTO  H123 1922   6.197   3.651   6.552 -0.6382 -1.0465  1.9651
    5CHTO   N12 1923   6.333   3.599   6.692 -0.0413  0.3306 -0.1577
    5CHTO  H110 1924   6.285   3.587   6.785 -1.6773 -1.0478 -2.6778
    5CHTO  H111 1925   6.376   3.515   6.642  0.7596  2.9763  1.1969
    5CHTO   C69 1926   6.194   3.811   6.703  0.6873 -0.3989  0.6472
    5CHTO  H126 1927   6.270   3.865   6.767  1.6107 -1.8532  1.0532
    5CHTO   O41 1928   6.126   3.906   6.609  0.2339 -0.2371 -0.6102
    5CHTO   C64 1929   6.211   3.976   6.517  0.0070 -0.7590 -0.2022
    5CHTO  H121 1930   6.267   4.051   6.561  0.1839 -1.7674  2.9207
    5CHTO   C71 1931   6.116   4.052   6.416  0.7139  0.0209 -1.0629
    5CHTO   O47 1932   6.047   4.157   6.489 -0.2315 -0.7341 -0.2818
    5CHTO  H104 1933   6.101   4.232   6.519 -1.2311 -0.6037  0.4636
    5CHTO   O34 1934   6.073   3.751   6.797 -0.3337 -0.1776  0.1325
    5CHTO   C49 1935   6.052   3.838   6.942  0.5142  0.4480 -0.1487
    5CHTO   H91 1936   6.150   3.825   6.992  2.4840 -0.0632 -1.4876
    5CHTO   C47 1937   5.932   3.777   7.018 -0.5890  0.0699  1.0816
    5CHTO   H89 1938   5.921   3.813   7.113 -0.6188  0.7304  0.6874
    5CHTO   O33 1939   5.966   3.636   7.020  0.2564  0.3599  0.2518
    5CHTO   H70 1940   5.908   3.589   7.071  2.5799 -1.8095  1.4117
    5CHTO   C45 1941   5.787   3.786   6.938 -0.0826  0.0283 -0.0439
    5CHTO   H87 1942   5.813   3.745   6.837  1.0531 -0.4544  0.8322
    5CHTO    N8 1943   5.677   3.708   6.996 -0.1230 -0.3692 -0.1666
    5CHTO   H75 1944   5.631   3.651   6.914  0.7426 -1.6977  2.0050
    5CHTO   H76 1945   5.723   3.636   7.056 -0.5597  0.3960 -0.8426
    5CHTO   C43 1946   5.762   3.943   6.925 -0.3025  0.0723  0.2892
    5CHTO   H85 1947   5.687   3.954   6.857  3.2898  1.8225  2.2108
    5CHTO   O29 1948   5.887   4.010   6.879 -0.2143 -0.5446 -0.4748
    5CHTO   C50 1949   6.013   3.986   6.932  0.1395  0.0887  0.2719
    5CHTO   H92 1950   6.066   4.028   6.855 -0.3791 -0.3679  0.1964
    5CHTO   C54 1951   6.038   4.071   7.060 -0.4144  0.1206 -0.0655
    5CHTO   O36 1952   6.060   4.206   7.047 -0.4719 -0.2016 -0.1224
    5CHTO   H72 1953   6.070   4.241   7.137  0.3346 -0.4989  2.1756
    5CHTO   O27 1954   5.717   4.011   7.045  0.2146  0.0869  0.0024
    5CHTO   C37 1955   5.616   4.055   7.132  0.5397  0.1440  0.0309
    5CHTO   H79 1956   5.652   4.150   7.188 -2.8477 -0.8120  0.7543
    5CHTO   C38 1957   5.483   4.082   7.048 -0.1883  0.3204 -0.1800
    5CHTO   H80 1958   5.457   3.988   7.002  0.5620  0.1346  1.9807
    5CHTO   O31 1959   5.518   4.178   6.946  0.5282  0.1998  0.0437
    5CHTO   H68 1960   5.565   4.142   6.873 -1.3202  1.3761 -0.6904
    5CHTO   C39 1961   5.364   4.131   7.132  0.1896 -0.1206  0.1931
    5CHTO   H81 1962   5.386   4.235   7.164  2.7642  0.3221 -0.6239
    5CHTO    N7 1963   5.232   4.155   7.052  0.2273  0.1632  0.3325
    5CHTO   H73 1964   5.162   4.205   7.120  1.3584 -1.7068  0.6525
    5CHTO   H74 1965   5.198   4.068   6.997 -0.6304 -2.2977  0.7439
    5CHTO   C40 1966   5.354   4.044   7.266 -0.0370  0.8203 -0.1077
    5CHTO   H82 1967   5.305   3.949   7.239  2.4429 -0.5458  1.6958
    5CHTO   O26 1968   5.482   4.019   7.326 -0.1445  0.5250 -0.7668
    5CHTO   C41 1969   5.586   3.956   7.243  0.2123 -0.3603  0.1265
    5CHTO   H83 1970   5.541   3.865   7.199  1.6262  2.3330  0.1093
    5CHTO   C52 1971   5.714   3.925   7.327  0.0334  0.3832 -0.0104
    5CHTO   O35 1972   5.680   3.835   7.445  0.4511 -0.2699 -0.0487
    5CHTO   H71 1973   5.743   3.828   7.514 -0.8816  0.3944 -0.8148
    5CHTO   O28 1974   5.257   4.104   7.356 -0.1857 -0.2303  0.2865
    5CHTO   C42 1975   5.273   4.108   7.505  0.2700 -0.2449 -0.1389
    5CHTO   H84 1976   5.170   4.139   7.536 -2.0192 -1.3758 -0.9113
    5CHTO   C44 1977   5.372   4.222   7.552 -0.4104  0.0497 -0.0825
    5CHTO   H86 1978   5.462   4.207   7.504  0.2830 -0.1786 -1.7010
    5CHTO   O32 1979   5.316   4.353   7.516  0.2240 -0.4606 -0.0499
    5CHTO   H69 1980   5.225   4.348   7.491  0.9460  0.3257 -0.0205
    5CHTO   C48 1981   5.413   4.208   7.705  0.2781 -0.2422  0.5109
    5CHTO   H90 1982   5.324   4.234   7.770 -1.4697  1.5537  2.2591
    5CHTO    N9 1983   5.533   4.299   7.740 -0.8862  0.6752  0.4149
    5CHTO   H77 1984   5.544   4.387   7.680  0.8190  2.1502  1.2809
    5CHTO   H78 1985   5.534   4.317   7.847 -2.7085  1.1092 -0.6796
    5CHTO   C51 1986   5.456   4.061   7.734  0.3233  0.3201  0.7892
    5CHTO   H93 1987   5.536   4.026   7.670 -0.4771 -0.0508  0.7895
    5CHTO   O30 1988   5.334   3.976   7.721 -0.5683 -0.8366  0.3519
    5CHTO   C46 1989   5.302   3.965   7.565  0.4650  0.5685 -0.1742
    5CHTO   H88 1990   5.386   3.923   7.516 -0.0506  1.2983 -2.2032
    5CHTO   C53 1991   5.182   3.875   7.531 -0.1798  0.0242 -0.1489
    5CHTO   O72 1992   5.071   3.896   7.615  0.0696  0.4511 -0.2490
    5CHTO  H199 1993   4.993   3.854   7.589 -1.4984  1.8564 -1.4024
    5CHTO   O22 1994   5.501   4.026   7.871  0.4858 -0.4224 -0.3835
    5CHTO   C31 1995   5.617   3.931   7.895 -0.2436 -0.5161  0.2787
    5CHTO   H59 1996   5.608   3.906   8.000  2.0151  0.8988 -0.0224
    5CHTO   C29 1997   5.599   3.800   7.810  0.0448 -0.0224 -0.2589
    5CHTO   H57 1998   5.590   3.828   7.700 -1.9298  0.9600  0.0135
    5CHTO   O21 1999   5.473   3.734   7.849 -0.1004 -0.6049 -0.0846
    5CHTO   H37 2000   5.484   3.659   7.907 -1.5964  2.0491 -0.7134
    5CHTO   C27 2001   5.720   3.701   7.829 -0.2010  0.2549  0.1882
    5CHTO   H55 2002   5.722   3.677   7.934  3.3810  0.1134 -1.8834
    5CHTO    N5 2003   5.701   3.570   7.752 -0.0048  0.0788  0.1629
    5CHTO   H43 2004   5.632   3.587   7.672  0.3123 -0.3052 -0.1153
    5CHTO   H44 2005   5.798   3.532   7.727 -1.2542 -1.9353 -0.9331
    5CHTO   C25 2006   5.849   3.782   7.801  0.4313  0.1490 -0.2139
    5CHTO   H53 2007   5.838   3.810   7.698  4.3663 -3.3887  0.5963
    5CHTO   O17 2008   5.861   3.904   7.877  0.1426 -0.0925  0.3796
    5CHTO   C32 2009   5.752   3.999   7.872 -0.1120  0.9800 -0.2285
    5CHTO   H60 2010   5.751   4.048   7.775  2.8062 -0.3619  0.1703
    5CHTO   C36 2011   5.778   4.102   7.980  0.4743 -0.1254 -0.3478
    5CHTO   O25 2012   5.885   4.189   7.952  0.1483  0.0163 -0.3335
    5CHTO   H40 2013   5.961   4.135   7.940  0.1003 -0.3726  1.2332
    5CHTO   O15 2014   5.978   3.701   7.822 -0.2828  0.1157  0.2461
    5CHTO   C19 2015   6.109   3.749   7.778 -0.1704 -0.3153 -0.0005
    5CHTO   H47 2016   6.117   3.854   7.806 -0.4815  2.4012 -1.2357
    5CHTO   C20 2017   6.222   3.675   7.853  0.3131 -0.0116  0.0351
    5CHTO   H48 2018   6.197   3.569   7.858 -1.6081 -0.7630 -3.0110
    5CHTO   O19 2019   6.232   3.733   7.985  0.3827 -0.6587 -0.1171
    5CHTO   H35 2020   6.191   3.680   8.050  0.9411  2.2218  0.9853
    5CHTO   C21 2021   6.362   3.689   7.790  0.3037  1.1474 -0.4210
    5CHTO   H49 2022   6.394   3.792   7.808  2.8810 -2.3210  0.1064
    5CHTO    N4 2023   6.460   3.594   7.860 -0.1110 -0.1055 -0.1027
    5CHTO   H41 2024   6.527   3.568   7.779 -1.5099  0.8604  0.3512
    5CHTO   H42 2025   6.397   3.509   7.892  2.3566  1.5431 -0.4955
    5CHTO   C22 2026   6.368   3.675   7.640  0.1351  0.7069  0.4772
    5CHTO   H50 2027   6.352   3.568   7.612 -1.5503  0.3442 -2.5493
    5CHTO   O14 2028   6.265   3.752   7.582  0.1065 -0.2168  0.4773
    5CHTO   C23 2029   6.132   3.734   7.624 -0.6774  0.5509  0.0837
    5CHTO   H51 2030   6.087   3.638   7.588 -4.4721 -1.4671 -3.3303
    5CHTO   C34 2031   6.064   3.849   7.540 -0.3062  0.4636  0.5276
    5CHTO   O23 2032   6.019   3.800   7.410 -0.5648  0.0447  0.0330
    5CHTO   H38 2033   6.046   3.865   7.346 -3.8316 -0.4000 -0.7681
    5CHTO   O16 2034   6.489   3.739   7.589 -0.8676 -0.2436 -0.2954
    5CHTO   C24 2035   6.541   3.694   7.449 -0.0171  0.4262 -1.0392
    5CHTO   H52 2036   6.473   3.614   7.407 -0.8614  1.1277  0.5671
    5CHTO   C26 2037   6.685   3.637   7.468  0.4174  0.3611 -0.1189
    5CHTO   H54 2038   6.738   3.705   7.529 -0.8085 -1.3119 -0.7856
    5CHTO   O20 2039   6.684   3.513   7.545  0.0927  0.9765 -0.0584
    5CHTO   H36 2040   6.632   3.455   7.498 -0.8228 -1.5113  0.9267
    5CHTO   C30 2041   6.760   3.610   7.333  0.0954  0.3986 -0.4588
    5CHTO   H58 2042   6.724   3.518   7.288  1.0510  0.1117  1.7346
    5CHTO    N6 2043   6.907   3.599   7.354 -0.0905 -0.3801 -0.3145
    5CHTO   H45 2044   6.942   3.522   7.288 -0.0550  3.0800  0.5143
    5CHTO   H46 2045   6.940   3.581   7.458 -0.3457  1.7128  0.9279
    5CHTO   C33 2046   6.735   3.730   7.235  0.1461 -0.4295  0.3084
    5CHTO   H61 2047   6.783   3.824   7.280  1.5431  1.0108  1.8094
    5CHTO   O18 2048   6.592   3.756   7.225  0.4316 -0.5404 -0.2117
    5CHTO   C28 2049   6.542   3.810   7.350  0.1366  0.1606  0.0009
    5CHTO   H56 2050   6.610   3.891   7.392  0.9778  0.8774  1.2787
    5CHTO   C35 2051   6.413   3.880   7.302  0.0835  0.3169  0.6289
    5CHTO   O24 2052   6.307   3.791   7.259  0.4830  0.1698  0.3359
    5CHTO   H39 2053   6.334   3.705   7.226  0.2842 -1.1755 -0.4015
    5CHTO    O9 2054   6.794   3.717   7.102  0.1741 -0.0729  0.0898
    5CHTO   C13 2055   6.696   3.621   6.981  0.2696 -0.3219  0.4737
    5CHTO   H26 2056   6.605   3.595   7.026  1.2821  1.8021 -0.0997
    5CHTO   C11 2057   6.789   3.495   6.939 -0.3993 -0.0749  0.5425
    5CHTO   H24 2058   6.777   3.422   7.020  2.6119 -0.0512  3.3662
    5CHTO    O8 2059   6.926   3.545   6.940  0.2002 -0.3745 -0.2298
    5CHTO    H3 2060   6.972   3.482   6.993  0.0269  0.3765  1.1708
    5CHTO    C9 2061   6.745   3.438   6.807  0.3312  0.1716  0.2995
    5CHTO   H22 2062   6.639   3.413   6.828 -0.4371 -0.0533  0.6384
    5CHTO    N2 2063   6.808   3.311   6.772  0.3722  0.3862 -0.1552
    5CHTO   H10 2064   6.796   3.233   6.845  1.4222  2.4751 -0.2715
    5CHTO   H11 2065   6.767   3.284   6.676 -0.7663  0.8180  2.0132
    5CHTO    C7 2066   6.755   3.555   6.699  0.4650 -0.6276  0.1067
    5CHTO   H20 2067   6.720   3.516   6.597 -1.4481  2.4996 -0.7127
    5CHTO    O4 2068   6.666   3.664   6.732 -0.2383 -0.4607  0.3996
    5CHTO   C14 2069   6.661   3.717   6.863 -0.0595 -0.2958  0.8036
    5CHTO   H27 2070   6.555   3.744   6.873 -1.3352 -0.1284  0.8567
    5CHTO   C18 2071   6.743   3.853   6.867  0.0840 -0.6379  0.6552
    5CHTO   O13 2072   6.687   3.938   6.763  0.4502 -0.1260 -0.8916
    5CHTO    H7 2073   6.754   3.994   6.729 -1.7102  4.9186  1.6765
    5CHTO    O2 2074   6.903   3.615   6.673  0.7837 -0.2182  0.2732
    5CHTO    C1 2075   6.923   3.667   6.541  0.1381  0.0820 -1.2774
    5CHTO   H14 2076   6.827   3.720   6.510  0.0753 -0.1729 -2.3535
    5CHTO    C2 2077   6.959   3.553   6.434 -0.8033 -0.0136  0.5708
    5CHTO   H15 2078   7.052   3.499   6.460 -1.0990  0.2280 -2.4462
    5CHTO    O6 2079   6.850   3.461   6.423  0.6065 -0.1599 -0.0420
    5CHTO    H1 2080   6.893   3.385   6.453  4.0105  1.3658  0.9364
    5CHTO    C3 2081   6.983   3.619   6.296  0.0001 -0.3991  0.8450
    5CHTO   H16 2082   6.885   3.650   6.256 -1.7269 -0.7498  0.9252
    5CHTO    N1 2083   7.038   3.522   6.193  0.0389 -0.3778 -0.8486
    5CHTO    H8 2084   6.982   3.431   6.173  2.4435 -2.2568 -0.4626
    5CHTO    H9 2085   7.058   3.576   6.102  1.1328  0.0835 -0.8399
    5CHTO    C4 2086   7.073   3.756   6.305 -0.1017 -0.1799 -0.1802
    5CHTO   H17 2087   7.180   3.734   6.323 -0.6105  0.4418  0.5686
    5CHTO    O1 2088   7.030   3.844   6.408  0.0157 -0.2363 -0.1465
    5CHTO    C5 2089   7.036   3.773   6.534 -0.3745  0.5170 -0.4158
    5CHTO   H18 2090   7.128   3.720   6.530 -1.6720  2.6621  0.6954
    5CHTO   C16 2091   7.042   3.879   6.646  0.6297  0.4261 -0.2738
    5CHTO   O11 2092   6.930   3.970   6.654  0.2950 -0.3407  0.3153
    5CHTO    H5 2093   6.946   4.054   6.622  1.3959 -1.0835 -1.7450
    5CHTO    O3 2094   7.057   3.830   6.181 -0.2703  0.1074  0.2258
    5CHTO    C6 2095   7.178   3.895   6.128 -0.3041 -0.2763  0.1109
    5CHTO   H19 2096   7.252   3.923   6.210 -0.6149  1.1441 -0.1116
    5CHTO    C8 2097   7.246   3.803   6.022 -0.2910 -0.2324  0.1035
    5CHTO   H21 2098   7.168   3.770   5.956 -1.5600  1.0446  0.7765
    5CHTO    O7 2099   7.314   3.697   6.086  0.5417  0.0241 -0.1363
    5CHTO    H2 2100   7.345   3.636   6.022  0.5474 -0.9340  1.1407
    5CHTO   C12 2101   7.356   3.889   5.936 -0.2294  0.2937  0.3479
    5CHTO   H25 2102   7.443   3.896   6.006  2.6415 -2.0412 -0.2018
    5CHTO    N3 2103   7.419   3.809   5.823 -1.0894 -0.1981  0.2025
    5CHTO   H12 2104   7.453   3.714   5.864 -0.5828  1.8858 -1.9249
    5CHTO   H13 2105   7.351   3.782   5.744  0.6300 -0.9946 -1.0933
    5CHTO   C15 2106   7.310   4.031   5.900 -0.0064 -0.0673 -0.3080
    5CHTO   H28 2107   7.239   4.042   5.820 -0.1040  2.1522 -2.3399
    5CHTO   O10 2108   7.445   4.132   5.865 -0.0266 -0.8665 -0.3239
    5CHTO    H4 2109   7.512   4.084   5.824 -1.2706 -0.1989 -1.7312
    5CHTO    O5 2110   7.256   4.096   6.017 -0.3678  0.3975 -0.5289
    5CHTO   C10 2111   7.138   4.035   6.065 -0.6900  0.1483 -0.1990
    5CHTO   H23 2112   7.071   4.016   5.984  0.4982  1.1567  1.1177
    5CHTO   C17 2113   7.079   4.135   6.163 -0.0973  0.2480 -0.0696
    5CHTO   O12 2114   7.058   4.259   6.102 -0.6092  0.1110 -0.2945
    5CHTO    H6 2115   7.041   4.321   6.165 -1.8130 -1.3826 -2.2576
    6CHTO  H203 2116   6.374   6.068   2.612 -0.5733 -0.8248  0.4236
    6CHTO   O82 2117   6.433   6.039   2.682 -0.3571  0.1012 -0.0581
    6CHTO  C123 2118   6.356   5.983   2.790 -0.2623 -0.5083  0.3390
    6CHTO  H227 2119   6.341   5.875   2.770  0.7709 -0.6990 -0.8591
    6CHTO   O77 2120   6.443   5.995   2.910 -0.0677 -0.5547  0.6283
    6CHTO  C118 2121   6.394   5.914   3.020 -0.1532  0.6708 -0.4446
    6CHTO  H222 2122   6.386   5.807   2.992  1.3791  0.7789 -0.3547
    6CHTO  C125 2123   6.494   5.933   3.143 -0.0690 -0.2693 -0.2499
    6CHTO   O84 2124   6.627   5.913   3.094 -0.7889 -0.5211 -0.3998
    6CHTO  H205 2125   6.683   5.948   3.161 -2.7721  0.7398 -3.3045
    6CHTO  C114 2126   6.249   5.966   3.065  0.4513 -0.4790 -0.3921
    6CHTO  H218 2127   6.263   6.067   3.098  0.3144  0.5889 -2.7195
    6CHTO  C116 2128   6.153   5.958   2.940 -0.6667  0.5251 -0.4754
    6CHTO  H220 2129   6.140   5.854   2.899  0.6950  1.2914 -1.5700
    6CHTO   O79 2130   6.021   5.995   2.987 -0.0359  0.0937  0.2669
    6CHTO  H201 2131   5.963   6.001   2.915  1.7241  2.2549 -2.3331
    6CHTO  C120 2132   6.208   6.046   2.826 -0.3047 -0.3028  0.1762
    6CHTO  H224 2133   6.212   6.144   2.860 -2.1324 -1.2010 -1.2378
    6CHTO   N21 2134   6.117   6.035   2.703  0.5211  0.1512  0.0257
    6CHTO  H211 2135   6.117   6.126   2.646  0.7125  0.9484  0.3656
    6CHTO  H212 2136   6.133   5.950   2.639  1.0445 -1.5695  3.2639
    6CHTO   O75 2137   6.218   5.896   3.191  0.4484  0.3941 -0.3101
    6CHTO  C112 2138   6.203   5.719   3.181 -0.6094  0.0527 -0.8926
    6CHTO  H216 2139   6.290   5.676   3.137 -0.3937 -0.9259  0.5776
    6CHTO   O73 2140   6.080   5.690   3.107 -0.2297  0.5248  0.5796
    6CHTO  C113 2141   6.029   5.555   3.104 -0.9142  0.0615 -0.0239
    6CHTO  H217 2142   6.084   5.493   3.040 -2.5651  1.6967 -1.7673
    6CHTO  C124 2143   5.895   5.579   3.031  0.0307 -0.1988  0.3695
    6CHTO   O83 2144   5.826   5.464   2.986  0.2494  0.4142  0.0485
    6CHTO  H204 2145   5.872   5.422   2.921  1.7027 -1.2786  0.9004
    6CHTO  C109 2146   6.006   5.503   3.250 -0.1550 -0.3922  0.1090
    6CHTO  H213 2147   5.937   5.578   3.298 -1.4002  1.8182  2.2628
    6CHTO  C110 2148   6.142   5.518   3.327  0.5525 -0.4978  0.3349
    6CHTO  H214 2149   6.225   5.449   3.297  3.5792  2.4729 -3.0634
    6CHTO   O78 2150   6.116   5.477   3.462 -0.1705 -0.1935 -0.3162
    6CHTO  H200 2151   6.056   5.533   3.507  1.1905  1.3445 -0.8587
    6CHTO  C111 2152   6.189   5.663   3.329 -0.3424  0.2658 -0.0403
    6CHTO  H215 2153   6.114   5.728   3.372  0.8559  2.4775  1.8045
    6CHTO   N19 2154   6.317   5.693   3.398 -1.2753  0.0349 -0.1006
    6CHTO  H207 2155   6.289   5.737   3.491 -1.0728  0.3528 -2.8290
    6CHTO  H208 2156   6.369   5.607   3.413 -1.3771 -1.2284 -3.7056
    6CHTO   O74 2157   5.956   5.359   3.258  0.4708 -0.2736  0.3159
    6CHTO  C115 2158   5.797   5.349   3.278  0.2320 -0.3091 -0.8177
    6CHTO  H219 2159   5.750   5.446   3.264  1.2481 -2.3082  0.4386
    6CHTO   O76 2160   5.732   5.256   3.179  0.1787  0.2974  0.4967
    6CHTO  C122 2161   5.779   5.118   3.190 -0.6056 -0.4364 -0.1716
    6CHTO  H226 2162   5.894   5.118   3.168  2.0415 -0.8095  1.6628
    6CHTO  C126 2163   5.715   5.013   3.088  0.2994 -0.2247 -0.0254
    6CHTO   O85 2164   5.570   5.005   3.096  0.6539 -0.1090  0.0970
    6CHTO  H206 2165   5.534   4.957   3.024 -0.4931  1.7767 -0.3121
    6CHTO  C121 2166   5.756   5.058   3.339 -0.9074  0.2262  0.7375
    6CHTO  H225 2167   5.686   4.967   3.329 -0.7256 -1.3798  0.4977
    6CHTO   O81 2168   5.888   5.018   3.387  0.3644 -0.2296 -1.0007
    6CHTO  H202 2169   5.884   4.968   3.466 -1.5339 -1.1312  0.8028
    6CHTO  C119 2170   5.694   5.159   3.435  0.4511 -0.2657 -0.4800
    6CHTO  H223 2171   5.589   5.165   3.407 -1.1737  0.3186 -1.1649
    6CHTO  C117 2172   5.758   5.301   3.427 -0.4102  0.0241 -0.6184
    6CHTO  H221 2173   5.849   5.314   3.485  0.4666 -0.9709 -2.2050
    6CHTO   N20 2174   5.664   5.411   3.480  0.0484 -0.4671 -0.0423
    6CHTO  H209 2175   5.564   5.386   3.510 -0.6532  0.4741 -0.4598
    6CHTO  H210 2176   5.720   5.469   3.558 -0.6308 -0.4900  0.8533
    6CHTO   O80 2177   5.681   5.083   3.590 -0.2689  0.1414 -0.1391
    6CHTO  C103 2178   5.548   5.002   3.638  0.7583 -0.3961  0.4555
    6CHTO  H190 2179   5.550   5.000   3.747  0.9233 -2.0046 -0.1756
    6CHTO  C101 2180   5.408   5.061   3.573 -0.6061  0.0279 -0.0455
    6CHTO  H188 2181   5.415   5.080   3.471 -0.8567 -1.9666 -1.6875
    6CHTO   O68 2182   5.366   5.189   3.633 -0.7385  0.0346 -0.3896
    6CHTO  H168 2183   5.369   5.256   3.568  1.3399 -1.2289 -0.3749
    6CHTO   C99 2184   5.287   4.960   3.604  0.7167 -0.3848  0.6573
    6CHTO  H186 2185   5.274   4.959   3.712  0.3334 -2.3733 -1.4803
    6CHTO   N17 2186   5.158   4.989   3.537 -0.2844 -0.0659 -0.6140
    6CHTO  H174 2187   5.126   4.928   3.454  2.2416 -0.7404 -2.8174
    6CHTO  H175 2188   5.074   5.024   3.604  0.4454  1.2897  4.5766
    6CHTO   C97 2189   5.332   4.813   3.571 -0.4359  0.2308  0.2421
    6CHTO  H184 2190   5.335   4.810   3.455  0.2295  1.0470 -3.9974
    6CHTO   O64 2191   5.459   4.777   3.630  0.3867  0.1969  0.3422
    6CHTO  C104 2192   5.571   4.859   3.589 -0.7327  1.4730  0.3760
    6CHTO  H191 2193   5.588   4.860   3.479  0.9779 -2.0603  1.6057
    6CHTO  C108 2194   5.705   4.798   3.645 -0.0750 -0.4253  0.2700
    6CHTO   O71 2195   5.771   4.701   3.560  0.8997  0.0160  0.2845
    6CHTO  H171 2196   5.724   4.622   3.549 -2.0480  0.7297 -1.3374
    6CHTO   O62 2197   5.244   4.702   3.608  0.6769 -0.3014  0.6975
    6CHTO   C91 2198   5.214   4.671   3.750  0.3855 -0.1208 -0.7236
    6CHTO  H178 2199   5.248   4.751   3.818  0.2027  1.2790  3.5492
    6CHTO   C92 2200   5.278   4.540   3.792  0.3609 -0.4765  0.6170
    6CHTO  H179 2201   5.383   4.533   3.768 -0.9500  0.0396 -1.2935
    6CHTO   O66 2202   5.274   4.540   3.934 -0.3984 -0.2227 -0.5230
    6CHTO  H166 2203   5.339   4.600   3.972 -0.0214 -1.1277 -2.1443
    6CHTO   C93 2204   5.193   4.420   3.745  0.2471  0.5972 -0.2673
    6CHTO  H180 2205   5.249   4.329   3.782 -2.9993 -1.5747 -2.2158
    6CHTO   N16 2206   5.190   4.396   3.601  0.5176  0.1423 -0.4685
    6CHTO  H172 2207   5.282   4.432   3.556 -1.4413  0.2422 -0.1540
    6CHTO  H173 2208   5.097   4.447   3.561  0.4699  0.0174  1.3860
    6CHTO   C94 2209   5.052   4.424   3.808  0.7265 -0.2160 -0.0081
    6CHTO  H181 2210   4.971   4.382   3.739 -1.0114  3.2501 -0.1326
    6CHTO   O61 2211   5.005   4.560   3.838 -0.2199 -0.1445  0.2103
    6CHTO   C95 2212   5.062   4.676   3.780  0.1029  0.6171  1.0755
    6CHTO  H182 2213   5.018   4.688   3.680  0.7219  2.5770 -4.4200
    6CHTO  C106 2214   5.018   4.798   3.873  0.1731 -0.7731 -0.3249
    6CHTO   O69 2215   5.076   4.781   4.002 -0.6619 -0.0467  0.1990
    6CHTO  H169 2216   5.167   4.758   3.999  0.6867 -1.8630  0.1121
    6CHTO   O63 2217   5.061   4.342   3.938 -0.5230  0.3114  0.7203
    6CHTO   C96 2218   5.042   4.170   3.912 -0.2326 -0.1656 -0.6178
    6CHTO  H183 2219   5.086   4.151   3.817 -2.2262 -2.9984  0.4732
    6CHTO   C98 2220   4.901   4.110   3.906  0.5692  0.1317  0.0278
    6CHTO  H185 2221   4.833   4.167   3.841  0.7634  0.7958  1.3793
    6CHTO   O67 2222   4.904   3.973   3.844  0.2366 -0.4021 -0.0900
    6CHTO  H167 2223   4.954   3.912   3.892  0.4035 -1.4589  1.5367
    6CHTO  C102 2224   4.836   4.103   4.055  0.5330  0.4708  0.1376
    6CHTO  H189 2225   4.743   4.040   4.049 -1.0570  1.0252  1.9931
    6CHTO   N18 2226   4.786   4.238   4.104 -0.0000  0.3692  0.0348
    6CHTO  H176 2227   4.864   4.310   4.105 -1.0643 -0.8347  0.1859
    6CHTO  H177 2228   4.693   4.263   4.048 -0.6872 -0.0358 -0.7649
    6CHTO  C105 2229   4.935   4.044   4.159  0.4063  0.1222  0.4369
    6CHTO  H192 2230   4.957   4.121   4.236 -0.0195  2.4526 -0.7633
    6CHTO   O65 2231   5.064   4.001   4.101 -0.1255 -0.0285  0.0753
    6CHTO  C100 2232   5.133   4.095   4.016 -0.6312  0.2151 -0.9343
    6CHTO  H187 2233   5.169   4.173   4.075  0.8873 -1.5361  1.7732
    6CHTO  C107 2234   5.256   4.024   3.967  0.6556  0.1823 -0.2381
    6CHTO   O70 2235   5.354   3.987   4.063  0.0602  0.5379 -0.1092
    6CHTO  H170 2236   5.370   4.056   4.125 -0.5058 -1.2753  0.8581
    6CHTO   O57 2237   4.843   3.932   4.230 -0.3125  0.1562  0.4432
    6CHTO   C85 2238   4.827   3.926   4.367 -0.2032 -0.7136 -0.3511
    6CHTO  H157 2239   4.746   3.842   4.366  0.2268 -3.5024 -2.1305
    6CHTO   C83 2240   4.757   4.042   4.440 -0.1971  0.0155 -0.0219
    6CHTO  H155 2241   4.665   4.054   4.386 -2.5275 -1.5269 -0.1358
    6CHTO   O56 2242   4.833   4.167   4.430 -0.3068 -0.3169 -0.4260
    6CHTO  H135 2243   4.782   4.242   4.434  1.3619 -1.5869  2.3955
    6CHTO   C81 2244   4.728   4.004   4.588  1.3289  0.1185  0.3712
    6CHTO  H153 2245   4.668   3.913   4.586 -2.9133  0.4700 -0.0733
    6CHTO   N14 2246   4.630   4.102   4.643 -0.4379 -0.6818 -0.1542
    6CHTO  H141 2247   4.602   4.079   4.743 -0.4765  1.0319 -1.0774
    6CHTO  H142 2248   4.539   4.103   4.579 -2.0466 -1.0846  0.0259
    6CHTO   C79 2249   4.865   3.974   4.657 -0.7395 -0.2005 -0.0682
    6CHTO  H151 2250   4.847   3.952   4.762  1.6163 -1.9635  0.4232
    6CHTO   O52 2251   4.928   3.868   4.587 -0.3080  0.5382 -0.4652
    6CHTO   C86 2252   4.957   3.883   4.443  0.3215  0.2471 -0.1589
    6CHTO  H158 2253   5.039   3.949   4.428  0.7866  0.7464  1.2815
    6CHTO   C90 2254   5.002   3.735   4.395  0.8517  0.5879  0.0920
    6CHTO   O60 2255   5.101   3.750   4.290 -0.3604 -0.1269 -0.4549
    6CHTO  H138 2256   5.086   3.678   4.239 -0.3481  1.5768 -1.7234
    6CHTO   O50 2257   4.952   4.088   4.666  0.7195  0.2821 -0.0990
    6CHTO   C73 2258   5.020   4.171   4.761  0.3793  0.4707 -0.5183
    6CHTO  H145 2259   5.049   4.109   4.845 -0.5343  0.9229 -0.2592
    6CHTO   C74 2260   4.932   4.292   4.806 -0.0438  0.4283  0.6173
    6CHTO  H146 2261   4.838   4.250   4.849  0.4072  0.3720 -0.6604
    6CHTO   O54 2262   5.006   4.352   4.916 -0.0128 -0.0357 -0.0393
    6CHTO  H133 2263   4.973   4.434   4.945  2.6296  1.0815 -0.4313
    6CHTO   C75 2264   4.900   4.376   4.681  0.9944  0.1890  0.0208
    6CHTO  H147 2265   4.842   4.313   4.607  0.9813 -0.9195 -2.1766
    6CHTO   N13 2266   4.810   4.498   4.702 -0.4412  0.4714 -0.1104
    6CHTO  H139 2267   4.712   4.460   4.708 -1.3347  0.5968 -1.2002
    6CHTO  H140 2268   4.841   4.548   4.789  0.0416  1.7250 -2.1759
    6CHTO   C76 2269   5.041   4.412   4.609 -0.1145  0.0940  0.2632
    6CHTO  H148 2270   5.098   4.463   4.681 -1.0249  0.7137 -1.2392
    6CHTO   O49 2271   5.118   4.293   4.573  0.4818 -0.8943  0.8914
    6CHTO   C77 2272   5.147   4.219   4.692 -0.1155 -0.9511  0.2116
    6CHTO  H149 2273   5.205   4.288   4.758  1.3292  0.5206 -0.5379
    6CHTO   C88 2274   5.247   4.112   4.654  0.5198 -0.0118  0.2665
    6CHTO   O58 2275   5.366   4.175   4.605  0.4822  0.1347  0.5061
    6CHTO  H136 2276   5.387   4.257   4.640 -1.2657  0.7458  0.6180
    6CHTO   O51 2277   5.019   4.491   4.489  0.0411  0.0510 -0.3520
    6CHTO   C78 2278   5.127   4.592   4.460 -0.0742 -0.0557  0.0922
    6CHTO  H150 2279   5.203   4.588   4.547  1.0521  0.5793 -0.8104
    6CHTO   C80 2280   5.083   4.736   4.444  0.6509  0.6761 -0.3765
    6CHTO  H152 2281   5.009   4.744   4.359  0.1102  1.4362  0.5811
    6CHTO   O55 2282   5.008   4.756   4.564 -0.6944 -0.4943  0.4582
    6CHTO  H134 2283   4.938   4.692   4.566  0.8361 -0.7313 -0.0739
    6CHTO   C84 2284   5.212   4.833   4.424 -0.6320  0.0598 -0.0030
    6CHTO  H156 2285   5.276   4.826   4.510  3.0947 -1.5138 -1.0646
    6CHTO   N15 2286   5.171   4.978   4.420 -0.7541  0.4778  0.4312
    6CHTO  H143 2287   5.101   5.000   4.342  0.5321  1.4704 -0.3463
    6CHTO  H144 2288   5.263   5.036   4.403 -0.4454  0.2577  0.8521
    6CHTO   C87 2289   5.290   4.784   4.303  0.7723 -0.1540 -0.1217
    6CHTO  H159 2290   5.230   4.787   4.209 -0.1509 -2.1313  1.2752
    6CHTO   O53 2291   5.315   4.628   4.319  0.1625  0.0191  0.2631
    6CHTO   C82 2292   5.193   4.559   4.321  0.0144 -0.5359  1.1994
    6CHTO  H154 2293   5.131   4.597   4.242  0.1119  2.4244 -1.0334
    6CHTO   C89 2294   5.250   4.421   4.285  0.0888  0.0212  0.8152
    6CHTO   O59 2295   5.145   4.327   4.290 -0.2941  0.3677  0.0619
    6CHTO  H137 2296   5.121   4.293   4.376  0.3374 -2.7192  0.7330
    6CHTO   O45 2297   5.422   4.843   4.289  0.2397  0.1184 -0.2315
    6CHTO   C67 2298   5.506   4.810   4.179 -0.6199 -0.4349 -0.1606
    6CHTO  H124 2299   5.489   4.702   4.145 -1.6205 -0.7602  0.0058
    6CHTO   C65 2300   5.465   4.901   4.060 -0.1703 -0.1799 -0.6781
    6CHTO  H122 2301   5.354   4.901   4.059  0.1584  0.2014  1.0705
    6CHTO   O44 2302   5.511   4.837   3.943 -0.2354  0.6959 -0.0148
    6CHTO  H102 2303   5.602   4.832   3.946  0.6021 -0.3176  1.5750
    6CHTO   C63 2304   5.509   5.045   4.091 -0.0373  0.0345 -0.5513
    6CHTO  H120 2305   5.471   5.079   4.194 -0.4269  0.3072  1.9423
    6CHTO   N11 2306   5.447   5.141   3.998  0.4402  0.1004 -1.0152
    6CHTO  H108 2307   5.517   5.212   3.959 -0.5752  1.4148 -0.9937
    6CHTO  H109 2308   5.352   5.173   4.031  2.1894  1.8652 -1.1971
    6CHTO   C61 2309   5.668   5.054   4.098  0.3569  0.0014 -0.4828
    6CHTO  H118 2310   5.691   5.157   4.121  0.3550 -0.3898 -1.2080
    6CHTO   O40 2311   5.715   4.970   4.207 -0.0993  0.0580  0.1532
    6CHTO   C68 2312   5.661   4.832   4.213 -0.6969  0.1078  0.5640
    6CHTO  H125 2313   5.672   4.803   4.320 -1.4244 -0.2470  0.8918
    6CHTO   C72 2314   5.757   4.740   4.134 -0.0386 -0.6200  0.7272
    6CHTO   O48 2315   5.886   4.747   4.193 -0.4317 -0.6036  0.3100
    6CHTO  H105 2316   5.897   4.677   4.256 -2.1864 -0.5113 -2.9526
    6CHTO   O38 2317   5.737   5.027   3.970  0.2927  0.2932 -0.4129
    6CHTO   C55 2318   5.850   5.107   3.945  0.0254 -0.1987 -0.0870
    6CHTO  H112 2319   5.901   5.128   4.043 -1.2687 -0.9093 -1.4933
    6CHTO   C56 2320   5.805   5.246   3.873 -0.2633  0.2768  0.6538
    6CHTO  H113 2321   5.743   5.222   3.791  1.4340 -0.0391 -1.3027
    6CHTO   O42 2322   5.731   5.321   3.966 -0.7198  0.2301 -0.5173
    6CHTO  H100 2323   5.672   5.378   3.922 -1.8429 -1.4729 -0.3436
    6CHTO   C57 2324   5.939   5.327   3.825 -0.2234 -0.6990 -0.8573
    6CHTO  H114 2325   5.989   5.355   3.919 -0.1699  1.8541 -2.2637
    6CHTO   N10 2326   5.909   5.454   3.755  0.2851  0.1614  0.4395
    6CHTO  H106 2327   5.915   5.535   3.829 -1.0605  1.1682  1.8848
    6CHTO  H107 2328   5.808   5.449   3.720  0.0006 -2.3849  0.3394
    6CHTO   C58 2329   6.029   5.228   3.745 -0.4203 -0.1099  0.3811
    6CHTO  H115 2330   5.975   5.197   3.654 -1.3515 -0.3242  1.4018
    6CHTO   O37 2331   6.056   5.120   3.829 -0.1084 -0.4528 -0.2524
    6CHTO   C59 2332   5.947   5.031   3.849 -0.3735 -0.5875 -0.0901
    6CHTO  H116 2333   5.906   4.998   3.754  0.1804  0.7651  0.7399
    6CHTO   C70 2334   5.999   4.905   3.918 -0.3069 -0.0243 -0.0142
    6CHTO   O46 2335   6.058   4.814   3.825 -0.3565  0.8113 -0.1489
    6CHTO  H103 2336   6.139   4.794   3.867  1.4218  2.1956  1.7509
    6CHTO   O39 2337   6.164   5.278   3.689 -0.0398  0.2125 -0.1686
    6CHTO   C60 2338   6.267   5.183   3.660  0.0637 -0.3357  0.2541
    6CHTO  H117 2339   6.300   5.132   3.750  1.1268 -0.2546  1.9682
    6CHTO   C62 2340   6.227   5.077   3.555  0.2091  0.8841  0.3846
    6CHTO  H119 2341   6.167   5.004   3.610 -1.0260 -2.6333 -0.6869
    6CHTO   O43 2342   6.167   5.136   3.443  0.2208 -0.0371  0.0884
    6CHTO  H101 2343   6.070   5.136   3.447  0.8010 -0.3629  0.2330
    6CHTO   C66 2344   6.351   4.976   3.513  0.5470 -0.7531  0.4400
    6CHTO  H123 2345   6.396   4.936   3.599  1.5589  0.4795  2.0693
    6CHTO   N12 2346   6.309   4.866   3.416 -0.5793  0.0635 -0.1376
    6CHTO  H110 2347   6.258   4.902   3.326 -0.5201 -3.4262  1.7387
    6CHTO  H111 2348   6.402   4.823   3.386  0.1164 -0.3047 -0.1252
    6CHTO   C69 2349   6.450   5.078   3.456  0.6171 -0.1012  0.1257
    6CHTO  H126 2350   6.402   5.136   3.366  1.6819  1.2074  0.8587
    6CHTO   O41 2351   6.495   5.182   3.582  0.2985 -0.2010 -0.2519
    6CHTO   C64 2352   6.391   5.265   3.611  0.1869  0.0741 -0.1099
    6CHTO  H121 2353   6.358   5.322   3.519 -1.4363 -0.2113  1.3742
    6CHTO   C71 2354   6.431   5.374   3.715  0.3298  0.0876  0.3973
    6CHTO   O47 2355   6.516   5.475   3.669  0.2159 -0.3255 -1.2480
    6CHTO  H104 2356   6.581   5.506   3.735 -1.4278  0.1318 -0.8066
    6CHTO   O34 2357   6.577   5.016   3.421 -0.4378  0.6933  0.7861
    6CHTO   C49 2358   6.683   4.921   3.446 -0.4147  0.1882 -0.4266
    6CHTO   H91 2359   6.643   4.826   3.429 -0.4559  1.9934  0.3739
    6CHTO   C47 2360   6.725   4.923   3.597  0.0711 -0.4449 -0.7790
    6CHTO   H89 2361   6.781   4.836   3.600  0.2260  0.9808 -2.1478
    6CHTO   O33 2362   6.618   4.903   3.691 -0.1918 -0.0867  0.4710
    6CHTO   H70 2363   6.605   4.809   3.697  0.1962  1.5753 -0.8723
    6CHTO   C45 2364   6.805   5.052   3.639 -0.3596  0.3220  0.7058
    6CHTO   H87 2365   6.730   5.117   3.677  2.6022 -0.1771  3.2457
    6CHTO    N8 2366   6.908   5.019   3.747 -0.2344  0.4516 -0.4817
    6CHTO   H75 2367   6.957   4.928   3.736 -1.7130  2.4387 -0.0091
    6CHTO   H76 2368   6.860   5.025   3.847 -0.6005 -0.2992  1.6376
    6CHTO   C43 2369   6.862   5.129   3.503 -0.2502  0.6019  0.2540
    6CHTO   H85 2370   6.778   5.182   3.452 -0.5341 -1.1842  3.3717
    6CHTO   O29 2371   6.916   5.030   3.416 -0.2970 -0.1072 -0.3499
    6CHTO   C50 2372   6.811   4.952   3.357 -0.3451  0.0888 -0.0091
    6CHTO   H92 2373   6.791   4.998   3.263 -1.9298 -2.5192  0.3954
    6CHTO   C54 2374   6.880   4.816   3.327 -0.1968  0.0044 -0.0567
    6CHTO   O36 2375   6.802   4.714   3.248  0.2568 -0.1556  0.5958
    6CHTO   H72 2376   6.846   4.635   3.220  0.4788  1.7685 -3.8923
    6CHTO   O27 2377   6.953   5.236   3.541 -0.1640 -0.2627  0.2333
    6CHTO   C37 2378   6.969   5.379   3.564  0.4575 -0.4793 -0.3606
    6CHTO   H79 2379   7.062   5.414   3.522 -0.5697  1.2430  1.7406
    6CHTO   C38 2380   6.855   5.461   3.489 -0.2296 -0.4026 -0.1574
    6CHTO   H80 2381   6.762   5.412   3.509  1.4890  1.0346 -0.0795
    6CHTO   O31 2382   6.883   5.460   3.347  0.8588 -0.3828  0.0277
    6CHTO   H68 2383   6.962   5.511   3.338  1.7780  0.9069  3.6389
    6CHTO   C39 2384   6.843   5.618   3.537  0.1092  0.0079  0.1890
    6CHTO   H81 2385   6.916   5.678   3.491  1.4591  0.7985  1.1995
    6CHTO    N7 2386   6.717   5.688   3.490  0.5691  0.0944 -0.0285
    6CHTO   H73 2387   6.648   5.630   3.426 -1.9236 -2.6097  0.0196
    6CHTO   H74 2388   6.736   5.787   3.445  0.2106  1.9432  0.5257
    6CHTO   C40 2389   6.865   5.623   3.689 -0.2960 -0.1631 -0.2158
    6CHTO   H82 2390   6.784   5.595   3.754 -1.1969 -2.1387 -2.1578
    6CHTO   O26 2391   6.979   5.557   3.733  0.3250  0.4932  0.7301
    6CHTO   C41 2392   6.964   5.408   3.720 -0.3735  0.1103 -0.4323
    6CHTO   H83 2393   6.870   5.361   3.756  2.2269 -2.0652 -0.4669
    6CHTO   C52 2394   7.081   5.341   3.800  0.5042  0.5393  0.3344
    6CHTO   O35 2395   7.225   5.358   3.741  0.1713 -0.4822 -0.5965
    6CHTO   H71 2396   7.293   5.312   3.786 -2.5449  1.3143  1.5270
    6CHTO   O28 2397   6.919   5.750   3.719 -0.1474  0.2036 -0.0366
    6CHTO   C42 2398   6.898   5.809   3.854 -0.8505  0.2146  0.0640
    6CHTO   H84 2399   6.960   5.900   3.854  1.7393 -0.5357 -0.5334
    6CHTO   C44 2400   6.961   5.730   3.971 -0.3513 -0.3125  0.3668
    6CHTO   H86 2401   6.902   5.639   3.984 -1.1819 -1.3003 -1.5194
    6CHTO   O32 2402   7.094   5.698   3.945  0.5589 -0.1654  0.2658
    6CHTO   H69 2403   7.117   5.642   4.020 -2.2288 -1.2432  3.4435
    6CHTO   C48 2404   6.949   5.818   4.103  0.3263  0.5573 -0.7592
    6CHTO   H90 2405   7.008   5.905   4.094  1.2804 -0.7828  0.1102
    6CHTO    N9 2406   7.007   5.754   4.228  0.2036 -0.4396  0.3009
    6CHTO   H77 2407   7.087   5.815   4.268  0.5522  1.5798  0.5919
    6CHTO   H78 2408   6.926   5.756   4.306 -3.0232  1.9837  1.2812
    6CHTO   C51 2409   6.798   5.861   4.120 -0.3017  0.0586  0.3608
    6CHTO   H93 2410   6.746   5.774   4.132  0.5400 -1.2402  0.1101
    6CHTO   O30 2411   6.750   5.931   4.005 -0.0686 -0.0548 -0.2001
    6CHTO   C46 2412   6.751   5.859   3.877 -0.1710 -0.4241 -0.9496
    6CHTO   H88 2413   6.678   5.775   3.885  1.4710  2.1673  1.9523
    6CHTO   C53 2414   6.710   5.952   3.766 -0.1244  0.5722  0.1915
    6CHTO   O72 2415   6.730   6.087   3.792 -0.0928 -0.1811  0.0889
    6CHTO  H199 2416   6.710   6.139   3.716  0.1581  1.0376 -2.2497
    6CHTO   O22 2417   6.787   5.957   4.225 -0.3771 -0.7142  0.3723
    6CHTO   C31 2418   6.667   5.998   4.292 -0.3591  0.0113  0.1541
    6CHTO   H59 2419   6.695   6.070   4.377 -1.3489  1.2179  2.7655
    6CHTO   C29 2420   6.571   6.072   4.196  0.2532  0.1486 -0.2427
    6CHTO   H57 2421   6.549   6.003   4.116 -4.1871 -0.3809 -1.0708
    6CHTO   O21 2422   6.635   6.179   4.129  0.6623  0.2556 -0.3682
    6CHTO   H37 2423   6.712   6.146   4.088 -0.5683  1.3324  0.9272
    6CHTO   C27 2424   6.437   6.116   4.270  0.2248 -0.3412 -0.3949
    6CHTO   H55 2425   6.462   6.195   4.346 -0.1713 -1.0815  1.9880
    6CHTO    N5 2426   6.345   6.173   4.172 -0.1496  0.1347  0.1289
    6CHTO   H43 2427   6.285   6.244   4.224 -0.6324  1.6098  2.4416
    6CHTO   H44 2428   6.399   6.218   4.089 -0.9524  1.2658 -0.9376
    6CHTO   C25 2429   6.368   5.992   4.335  0.1180  0.1121 -0.2535
    6CHTO   H53 2430   6.342   5.919   4.255  0.3518  0.5239  0.8084
    6CHTO   O17 2431   6.473   5.928   4.418 -0.0565  0.0609 -0.4709
    6CHTO   C32 2432   6.591   5.879   4.357 -0.7443  0.0083  0.4404
    6CHTO   H60 2433   6.560   5.811   4.275 -0.4347 -1.1913  0.6174
    6CHTO   C36 2434   6.678   5.801   4.458  0.6977 -0.1045  0.0760
    6CHTO   O25 2435   6.587   5.728   4.540  0.1685 -0.6161  0.1709
    6CHTO   H40 2436   6.557   5.648   4.498  0.0001 -0.5941 -0.1578
    6CHTO   O15 2437   6.234   6.027   4.420 -0.7723 -0.3148 -0.3138
    6CHTO   C19 2438   6.149   6.019   4.534 -0.1879  0.1852 -1.0364
    6CHTO   H47 2439   6.056   5.971   4.499  1.5032  0.5404 -1.9518
    6CHTO   C20 2440   6.208   5.945   4.658 -0.5196  0.4198  0.6838
    6CHTO   H48 2441   6.313   5.984   4.681 -0.4025  1.4210  3.5284
    6CHTO   O19 2442   6.221   5.800   4.628 -0.3076 -0.0864  0.0386
    6CHTO   H35 2443   6.134   5.761   4.626 -0.5350 -0.2404 -2.5108
    6CHTO   C21 2444   6.120   5.953   4.790  1.0717 -0.5730 -0.0251
    6CHTO   H49 2445   6.038   5.873   4.773  2.2197 -6.2158  0.5185
    6CHTO    N4 2446   6.187   5.897   4.910 -0.2762 -0.1108  1.1990
    6CHTO   H41 2447   6.263   5.971   4.938 -1.0995 -0.6399 -0.9571
    6CHTO   H42 2448   6.117   5.886   4.990  0.3519  0.9115  0.1977
    6CHTO   C22 2449   6.070   6.097   4.824 -0.0390  0.2110 -0.4594
    6CHTO   H50 2450   6.155   6.152   4.873  0.2274 -2.0604  3.8141
    6CHTO   O14 2451   6.026   6.161   4.702  0.2451 -0.3596 -0.4487
    6CHTO   C23 2452   6.104   6.162   4.588  0.5158  0.4629  0.3787
    6CHTO   H51 2453   6.192   6.220   4.620  1.3934  1.8983  2.8905
    6CHTO   C34 2454   6.025   6.235   4.478 -0.8449  0.7991 -0.0646
    6CHTO   O23 2455   5.973   6.362   4.526 -0.7912 -0.1457  0.5389
    6CHTO   H38 2456   6.041   6.428   4.533  0.4036 -1.5879  2.2575
    6CHTO   O16 2457   5.957   6.102   4.910  0.0835  0.3566 -0.1814
    6CHTO   C24 2458   5.956   6.224   5.001 -0.4246  0.4629 -0.5186
    6CHTO   H52 2459   6.013   6.306   4.960  0.4813 -0.5036  2.2382
    6CHTO   C26 2460   6.015   6.181   5.141 -0.1656 -0.5732  0.3655
    6CHTO   H54 2461   5.986   6.076   5.169  1.1917  3.1657 -0.2254
    6CHTO   O20 2462   6.160   6.173   5.138  0.1750 -0.7060  0.2831
    6CHTO   H36 2463   6.175   6.096   5.085 -1.0062 -2.0031 -3.3320
    6CHTO   C30 2464   5.973   6.285   5.254  0.4573 -1.0661 -0.0387
    6CHTO   H58 2465   6.029   6.382   5.251 -2.2836  1.0800 -4.0062
    6CHTO    N6 2466   6.007   6.235   5.390 -0.0842  0.4576 -0.1120
    6CHTO   H45 2467   5.951   6.147   5.423  0.6325  0.4868 -2.3530
    6CHTO   H46 2468   6.110   6.213   5.395 -1.5684 -0.3002 -0.8715
    6CHTO   C33 2469   5.830   6.339   5.252  0.4374 -0.5764  0.3217
    6CHTO   H61 2470   5.769   6.255   5.290 -1.7276 -1.9540 -0.3250
    6CHTO   O18 2471   5.790   6.373   5.116 -0.7232 -0.1209  0.3119
    6CHTO   C28 2472   5.807   6.269   5.014 -0.4434 -0.4213  0.0883
    6CHTO   H56 2473   5.745   6.181   5.046 -1.1342  1.1794 -0.6248
    6CHTO   C35 2474   5.747   6.321   4.887  0.0803  0.7996  0.2878
    6CHTO   O24 2475   5.759   6.237   4.778  0.0329 -0.0811  0.6368
    6CHTO   H39 2476   5.848   6.234   4.746  1.8709  2.0955  1.2498
    6CHTO    O9 2477   5.810   6.454   5.341  0.0497  0.2636  0.6880
    6CHTO   C13 2478   5.668   6.453   5.438  0.7698 -0.2209 -0.8578
    6CHTO   H26 2479   5.624   6.347   5.447 -1.7342 -0.1463 -0.3467
    6CHTO   C11 2480   5.562   6.552   5.365  0.3689 -0.4777  0.3243
    6CHTO   H24 2481   5.551   6.517   5.258  1.6274  2.7531  1.3659
    6CHTO    O8 2482   5.618   6.685   5.349 -0.1545 -0.2287 -0.2519
    6CHTO    H3 2483   5.676   6.679   5.275  0.1478 -1.8964  0.3715
    6CHTO    C9 2484   5.428   6.549   5.450 -0.5694  0.0048  0.2498
    6CHTO   H22 2485   5.400   6.439   5.454  3.6566  0.0035 -0.5205
    6CHTO    N2 2486   5.322   6.622   5.387 -0.1989 -0.1857 -0.6337
    6CHTO   H10 2487   5.225   6.579   5.396  2.3449 -0.1272  2.6381
    6CHTO   H11 2488   5.337   6.678   5.293 -2.7886 -0.3715  0.7173
    6CHTO    C7 2489   5.454   6.578   5.601  0.1024 -0.3918 -0.1271
    6CHTO   H20 2490   5.438   6.480   5.650 -1.6931 -1.9209 -0.4460
    6CHTO    O4 2491   5.594   6.612   5.629  0.4978  0.1637 -0.7107
    6CHTO   C14 2492   5.691   6.510   5.588  0.2139  0.6384  0.3052
    6CHTO   H27 2493   5.671   6.428   5.662  2.1274  0.0940 -2.7275
    6CHTO   C18 2494   5.836   6.562   5.606  0.6877  0.1257 -0.1306
    6CHTO   O13 2495   5.856   6.576   5.747  0.3022 -0.6535  0.1136
    6CHTO    H7 2496   5.877   6.665   5.767 -0.8330  0.8281 -0.2448
    6CHTO    O2 2497   5.358   6.694   5.675  0.0676 -0.0724 -0.1010
    6CHTO    C1 2498   5.321   6.665   5.812  0.1697 -0.1292 -0.2304
    6CHTO   H14 2499   5.251   6.753   5.849 -1.5846  1.7763  1.0364
    6CHTO    C2 2500   5.442   6.664   5.915  0.7198  0.3441  0.0323
    6CHTO   H15 2501   5.522   6.592   5.883 -3.9062 -0.1247  0.2598
    6CHTO    O6 2502   5.495   6.797   5.926  0.2300 -0.0310 -0.1218
    6CHTO    H1 2503   5.552   6.819   5.852  1.9297 -2.7291 -0.9277
    6CHTO    C3 2504   5.388   6.618   6.056  0.1928 -0.2192  0.0299
    6CHTO   H16 2505   5.322   6.705   6.087  2.5556 -0.1140  0.0151
    6CHTO    N1 2506   5.502   6.596   6.156  0.5771 -0.2454 -0.6539
    6CHTO    H8 2507   5.470   6.549   6.247 -3.1060 -0.6038 -2.0674
    6CHTO    H9 2508   5.550   6.695   6.179 -1.1405  2.0747 -0.7950
    6CHTO    C4 2509   5.300   6.494   6.052  0.2070 -0.2801 -0.4605
    6CHTO   H17 2510   5.359   6.411   6.021 -0.7139  1.6223  2.3214
    6CHTO    O1 2511   5.192   6.514   5.956  0.4440  0.2209  0.2776
    6CHTO    C5 2512   5.238   6.535   5.823  0.0195 -0.4704  0.1652
    6CHTO   H18 2513   5.304   6.445   5.799  1.0412 -0.6263 -0.2612
    6CHTO   C16 2514   5.113   6.543   5.733  0.2671 -0.1214  0.2649
    6CHTO   O11 2515   5.039   6.420   5.725  0.1336  0.1245  0.3034
    6CHTO    H5 2516   4.964   6.429   5.775  2.8107  0.1635 -1.0090
    6CHTO    O3 2517   5.236   6.475   6.183  0.0372 -0.1967  0.2667
    6CHTO    C6 2518   5.152   6.358   6.221 -1.4950  0.5618  0.3469
    6CHTO   H19 2519   5.105   6.386   6.310  0.2020  2.3739 -0.2202
    6CHTO    C8 2520   5.036   6.330   6.130 -0.0104  0.8759 -0.2151
    6CHTO   H21 2521   5.079   6.319   6.030  1.4868  2.8020 -0.6027
    6CHTO    O7 2522   4.948   6.440   6.133 -0.6057  0.0967  0.2775
    6CHTO    H2 2523   4.857   6.413   6.138 -0.1597  3.2286 -2.7401
    6CHTO   C12 2524   4.966   6.195   6.174  0.4145 -0.2045 -0.3392
    6CHTO   H25 2525   4.914   6.206   6.276  0.6138 -2.2437  0.6833
    6CHTO    N3 2526   4.858   6.160   6.077 -0.2583 -0.1127 -0.2276
    6CHTO   H12 2527   4.779   6.225   6.094  2.7251 -2.1812  2.3979
    6CHTO   H13 2528   4.816   6.062   6.097 -1.2337  1.0506 -1.3051
    6CHTO   C15 2529   5.075   6.081   6.181  0.2273 -0.5707 -0.6891
    6CHTO   H28 2530   5.117   6.080   6.080 -0.8182  0.9863 -2.3900
    6CHTO   O10 2531   5.027   5.951   6.226 -0.5277 -0.2163 -0.1613
    6CHTO    H4 2532   5.042   5.873   6.170 -0.4583  0.2131 -0.3708
    6CHTO    O5 2533   5.171   6.126   6.279 -0.1800 -0.3335 -0.0280
    6CHTO   C10 2534   5.251   6.242   6.253 -0.1640  0.4080  0.3162
    6CHTO   H23 2535   5.323   6.220   6.174 -0.6394  0.2300 -0.9893
    6CHTO   C17 2536   5.325   6.285   6.386 -0.4158 -0.0711  0.0358
    6CHTO   O12 2537   5.414   6.175   6.428 -0.7063 -0.4338 -0.4152
    6CHTO    H6 2538   5.473   6.160   6.359 -0.7234  0.8507  0.8440
    7CHTO  H203 2539   5.381   3.694   6.624  3.3904 -1.2872  1.7666
    7CHTO   O82 2540   5.390   3.608   6.587  0.4065 -0.0312  0.2421
    7CHTO  C123 2541   5.497   3.604   6.488  0.5272 -0.3138 -0.5824
    7CHTO  H227 2542   5.478   3.680   6.412  2.7304  0.6981 -0.5303
    7CHTO   O77 2543   5.620   3.654   6.552  0.2944 -0.5878  0.2006
    7CHTO  C118 2544   5.720   3.684   6.453  0.1741 -0.1385 -0.1989
    7CHTO  H222 2545   5.683   3.760   6.379 -1.7481  1.9977  0.3724
    7CHTO  C125 2546   5.853   3.740   6.516 -0.1317 -1.2461 -0.3773
    7CHTO   O84 2547   5.817   3.866   6.582 -0.3827 -0.0003  0.0866
    7CHTO  H205 2548   5.850   3.861   6.668 -0.0973 -0.0715 -1.0693
    7CHTO  C114 2549   5.758   3.551   6.376 -0.5513  0.1099 -0.6032
    7CHTO  H218 2550   5.814   3.487   6.444 -0.0994 -2.1053  0.2733
    7CHTO  C116 2551   5.643   3.470   6.321  0.5155  0.3607  0.2578
    7CHTO  H220 2552   5.608   3.520   6.231  1.9123 -0.2529 -0.8212
    7CHTO   O79 2553   5.688   3.336   6.282 -0.2325  0.0557  0.3519
    7CHTO  H201 2554   5.694   3.281   6.362  2.3801 -2.9180 -0.9605
    7CHTO  C120 2555   5.525   3.462   6.424  0.3584 -0.2536  0.1185
    7CHTO  H224 2556   5.560   3.403   6.502 -1.4393 -1.4665 -1.6102
    7CHTO   N21 2557   5.398   3.405   6.371  0.0535  0.0407  0.1163
    7CHTO  H211 2558   5.394   3.294   6.376  0.3771 -1.4252  0.1439
    7CHTO  H212 2559   5.319   3.444   6.432  2.6308  1.4227  0.1749
    7CHTO   O75 2560   5.848   3.594   6.271 -0.2332  0.2827 -0.0354
    7CHTO  C112 2561   5.982   3.502   6.198  0.3580  0.2033 -0.1364
    7CHTO  H216 2562   5.953   3.479   6.101  3.0023  1.8163 -2.2109
    7CHTO   O73 2563   5.989   3.386   6.277  0.1883  0.0979 -0.6881
    7CHTO  C113 2564   6.090   3.295   6.226  0.5373 -0.7177 -0.4957
    7CHTO  H217 2565   6.056   3.280   6.119 -1.9178  1.6372 -3.1783
    7CHTO  C124 2566   6.073   3.162   6.300 -0.3314 -0.2773  0.1318
    7CHTO   O83 2567   6.155   3.058   6.243  0.5685 -0.2527  0.3600
    7CHTO  H204 2568   6.244   3.061   6.269  0.8823  1.7039 -2.4797
    7CHTO  C109 2569   6.232   3.367   6.248  0.2973 -0.0098  0.2900
    7CHTO  H213 2570   6.251   3.370   6.357 -0.9436  0.5779 -1.9044
    7CHTO  C110 2571   6.234   3.511   6.187  0.6276  0.6242 -0.5885
    7CHTO  H214 2572   6.254   3.503   6.081 -2.2204 -0.5807 -0.6988
    7CHTO   O78 2573   6.349   3.580   6.236  0.0486 -0.5391  0.4779
    7CHTO  H200 2574   6.356   3.668   6.214  0.1811  0.3805  2.1219
    7CHTO  C111 2575   6.104   3.600   6.208  0.1244 -0.0756 -0.1968
    7CHTO  H215 2576   6.106   3.638   6.310  1.2755 -0.3209 -3.8238
    7CHTO   N19 2577   6.085   3.714   6.122  0.5853 -0.9848 -1.0138
    7CHTO  H207 2578   6.151   3.702   6.031 -1.2059 -1.3582  1.2481
    7CHTO  H208 2579   6.107   3.807   6.172  0.1870 -0.5241  0.2712
    7CHTO   O74 2580   6.333   3.283   6.190  0.7290  0.5142  1.0795
    7CHTO  C115 2581   6.492   3.307   6.252 -0.2122  0.0014 -0.0660
    7CHTO  H219 2582   6.523   3.415   6.247  0.1302  3.3676 -0.8308
    7CHTO   O76 2583   6.496   3.287   6.390 -0.2450 -0.7339  0.0042
    7CHTO  C122 2584   6.481   3.155   6.438 -0.0185  0.3017  0.7699
    7CHTO  H226 2585   6.378   3.129   6.430 -0.0432 -1.2456  1.1428
    7CHTO  C126 2586   6.515   3.156   6.588 -0.5131 -0.6520 -0.4635
    7CHTO   O85 2587   6.525   3.020   6.639 -0.3505  0.2705 -0.2690
    7CHTO  H206 2588   6.554   2.967   6.562  1.0882  1.7595  0.0957
    7CHTO  C121 2589   6.554   3.051   6.348 -0.0675 -0.4330 -0.2681
    7CHTO  H225 2590   6.599   2.979   6.408  1.2485 -0.4831 -0.2988
    7CHTO   O81 2591   6.457   2.993   6.263  0.4780 -0.3940 -0.3165
    7CHTO  H202 2592   6.490   2.909   6.238 -0.1547 -1.1293 -0.1835
    7CHTO  C119 2593   6.666   3.124   6.264  0.2624 -0.2411  0.8425
    7CHTO  H223 2594   6.717   3.177   6.342  0.2102  1.9303 -1.8470
    7CHTO  C117 2595   6.603   3.225   6.175 -0.3882  0.1001 -0.1727
    7CHTO  H221 2596   6.535   3.202   6.092 -1.1049  2.3027 -2.8777
    7CHTO   N20 2597   6.710   3.311   6.109  0.4325 -0.0760 -0.2126
    7CHTO  H209 2598   6.767   3.345   6.185  0.4823 -3.7178  0.9671
    7CHTO  H210 2599   6.774   3.242   6.055  0.6026 -3.2064  1.0184
    7CHTO   O80 2600   6.791   3.027   6.197 -0.2904  0.1512  0.0817
    7CHTO  C103 2601   6.886   2.962   6.291  0.0961 -0.4218 -0.1742
    7CHTO  H190 2602   6.984   2.944   6.246  0.4247  1.2293  0.9193
    7CHTO  C101 2603   6.911   3.036   6.431 -0.5434  0.1797 -0.1657
    7CHTO  H188 2604   6.822   3.073   6.480  1.4383  1.3170  0.2949
    7CHTO   O68 2605   6.992   3.182   6.407  0.3828 -0.4354  0.0640
    7CHTO  H168 2606   6.935   3.243   6.364 -0.2655 -1.3116  1.2556
    7CHTO   C99 2607   6.980   2.935   6.521 -0.3704  0.3821 -0.3178
    7CHTO  H186 2608   7.064   2.883   6.476  0.7752 -1.7757 -0.3611
    7CHTO   N17 2609   7.027   2.983   6.652  0.0679 -0.1222 -0.4388
    7CHTO  H174 2610   7.095   3.063   6.642 -1.0958 -1.6519  2.4300
    7CHTO  H175 2611   6.946   3.008   6.717 -0.1398 -3.7557 -0.9024
    7CHTO   C97 2612   6.880   2.819   6.539  0.7058  0.7301  0.0990
    7CHTO  H184 2613   6.780   2.867   6.575 -0.7016  4.8226  0.4452
    7CHTO   O64 2614   6.867   2.743   6.414 -0.0650 -0.3910  0.2992
    7CHTO  C104 2615   6.820   2.820   6.297 -0.0331  0.1765 -0.8945
    7CHTO  H191 2616   6.712   2.826   6.300  0.7990  1.7251 -1.8855
    7CHTO  C108 2617   6.860   2.739   6.172  0.4338 -0.9942 -0.5256
    7CHTO   O71 2618   6.766   2.644   6.123  0.3958 -0.8059 -0.2324
    7CHTO  H171 2619   6.801   2.596   6.049 -0.3264 -1.1891  2.0298
    7CHTO   O62 2620   6.933   2.710   6.625  0.6633  0.6592  0.5294
    7CHTO   C91 2621   6.827   2.636   6.694 -0.0299 -0.3236  0.5192
    7CHTO  H178 2622   6.783   2.707   6.762 -0.8565  0.9584  0.2812
    7CHTO   C92 2623   6.898   2.534   6.787  0.4020  0.2171 -0.7310
    7CHTO  H179 2624   6.985   2.577   6.835 -0.4836  1.4602 -2.1024
    7CHTO   O66 2625   6.815   2.499   6.894 -0.1288 -0.3366 -0.1385
    7CHTO  H166 2626   6.728   2.483   6.864  3.8749 -0.5852 -1.2967
    7CHTO   C93 2627   6.936   2.399   6.712  0.0591 -0.4902 -0.5296
    7CHTO  H180 2628   6.958   2.325   6.799  4.0059  0.1684 -0.0637
    7CHTO   N16 2629   7.070   2.414   6.639 -0.1218  0.1596 -0.0714
    7CHTO  H172 2630   7.101   2.324   6.593 -0.0131  1.2446 -1.7091
    7CHTO  H173 2631   7.055   2.492   6.565  2.1272 -1.9174  0.1085
    7CHTO   C94 2632   6.813   2.338   6.632  0.4257  0.3209 -0.0004
    7CHTO  H181 2633   6.840   2.320   6.526  2.8759 -1.9880  0.8230
    7CHTO   O61 2634   6.702   2.421   6.625  0.2367  0.5601  0.5246
    7CHTO   C95 2635   6.717   2.563   6.608 -0.4919 -0.0049  0.5236
    7CHTO  H182 2636   6.726   2.586   6.499  1.1444  0.8483 -1.1825
    7CHTO  C106 2637   6.574   2.613   6.645 -0.1378 -0.4276 -0.2594
    7CHTO   O69 2638   6.527   2.736   6.592 -0.3237 -0.0808  0.1917
    7CHTO  H169 2639   6.435   2.745   6.591  0.8539 -0.2487 -2.7378
    7CHTO   O63 2640   6.764   2.206   6.701 -0.0192  0.1117 -0.2796
    7CHTO   C96 2641   6.814   2.078   6.684  0.3423 -0.0810  0.2170
    7CHTO  H183 2642   6.868   2.080   6.593 -2.5008 -0.9828 -2.5925
    7CHTO   C98 2643   6.702   1.965   6.687 -0.7352 -1.0965 -0.6616
    7CHTO  H185 2644   6.625   1.990   6.612 -0.1139  2.4613  2.8078
    7CHTO   O67 2645   6.773   1.855   6.636  0.7380 -0.1547  0.2068
    7CHTO  H167 2646   6.790   1.790   6.699  1.2814 -1.3854  0.8881
    7CHTO  C102 2647   6.635   1.932   6.832 -0.2052 -0.0608 -0.2005
    7CHTO  H189 2648   6.605   1.830   6.827  0.2532 -1.2945  0.5669
    7CHTO   N18 2649   6.514   2.006   6.862 -0.1712 -0.0674  0.1971
    7CHTO  H176 2650   6.451   2.006   6.768 -1.3936  0.3272 -0.6638
    7CHTO  H177 2651   6.544   2.108   6.887  2.0154  1.7769 -1.4630
    7CHTO  C105 2652   6.745   1.954   6.936 -0.2517  0.0506 -0.1397
    7CHTO  H192 2653   6.731   2.055   6.970 -2.1181  2.4294 -1.7553
    7CHTO   O65 2654   6.883   1.947   6.892  0.2508  0.6761 -0.1207
    7CHTO  C100 2655   6.916   2.056   6.807 -0.0196  0.0201 -0.1850
    7CHTO  H187 2656   6.902   2.140   6.875  0.6295 -2.0680 -1.6405
    7CHTO  C107 2657   7.073   2.054   6.769 -0.4791  0.2252 -0.5662
    7CHTO   O70 2658   7.166   2.083   6.873  0.5840  0.5825 -0.0521
    7CHTO  H170 2659   7.123   2.117   6.945  3.0035  3.4106 -2.6345
    7CHTO   O57 2660   6.729   1.840   7.050  0.2463  0.3986  0.5980
    7CHTO   C85 2661   6.763   1.887   7.178  0.2068  0.0374 -0.0583
    7CHTO  H157 2662   6.741   2.004   7.187  0.2005  0.3701  1.8258
    7CHTO   C83 2663   6.921   1.864   7.197  0.3439 -0.4022  0.2262
    7CHTO  H155 2664   6.978   1.927   7.124 -0.6861  1.0371  3.5746
    7CHTO   O56 2665   6.957   1.727   7.166  0.2600 -0.5420 -0.7729
    7CHTO  H135 2666   6.943   1.709   7.076  0.3738  3.2706 -1.0252
    7CHTO   C81 2667   6.967   1.904   7.340 -0.0237 -0.3337  0.1724
    7CHTO  H153 2668   6.938   2.008   7.357 -1.6068 -1.4535 -0.3198
    7CHTO   N14 2669   7.116   1.894   7.367 -0.3481  0.4177  0.7310
    7CHTO  H141 2670   7.143   1.846   7.463 -0.9660  0.4643 -0.5403
    7CHTO  H142 2671   7.148   1.995   7.370  0.1666 -1.8403 -0.1366
    7CHTO   C79 2672   6.887   1.815   7.447 -0.3879  0.3698  0.1209
    7CHTO  H151 2673   6.907   1.855   7.545  0.4960  2.0130  1.2109
    7CHTO   O52 2674   6.736   1.816   7.425 -0.2153  0.1670 -0.6576
    7CHTO   C86 2675   6.684   1.804   7.287 -0.2296  0.6686 -0.6317
    7CHTO  H158 2676   6.692   1.694   7.269 -0.2264 -0.4031 -1.1619
    7CHTO   C90 2677   6.529   1.830   7.285 -0.3480  0.8813 -0.4199
    7CHTO   O60 2678   6.460   1.728   7.356 -0.0884  0.4170 -0.1292
    7CHTO  H138 2679   6.409   1.775   7.417  0.3072 -0.2116  3.0148
    7CHTO   O50 2680   6.931   1.677   7.453 -0.8431  0.2962  0.6363
    7CHTO   C73 2681   6.940   1.535   7.492 -0.9953 -0.3994 -0.5765
    7CHTO  H145 2682   7.017   1.482   7.429  2.0364 -2.0193 -3.8205
    7CHTO   C74 2683   6.812   1.449   7.473 -0.1901  1.6533  0.4086
    7CHTO  H146 2684   6.787   1.444   7.362  1.6442 -2.5193 -0.7458
    7CHTO   O54 2685   6.837   1.312   7.507  0.0378 -0.4012 -0.1631
    7CHTO  H133 2686   6.757   1.268   7.534  1.3385  1.4555  2.4604
    7CHTO   C75 2687   6.696   1.510   7.556 -0.4020 -0.7914  0.2003
    7CHTO  H147 2688   6.680   1.616   7.525 -1.0918 -2.6377  3.3135
    7CHTO   N13 2689   6.560   1.446   7.543  0.5765  0.4333 -0.6592
    7CHTO  H139 2690   6.531   1.441   7.445  0.0052  3.7908  0.3544
    7CHTO  H140 2691   6.573   1.349   7.589  1.8094 -3.2553  0.9594
    7CHTO   C76 2692   6.747   1.520   7.710  0.7105 -0.0716  1.0488
    7CHTO  H148 2693   6.746   1.413   7.740  0.8151 -0.1896 -0.3391
    7CHTO   O49 2694   6.879   1.579   7.720 -0.2197  0.4137 -0.6055
    7CHTO   C77 2695   6.982   1.529   7.634  0.7143  0.3132 -0.5425
    7CHTO  H149 2696   7.002   1.422   7.662  0.7758 -2.5897 -1.1875
    7CHTO   C88 2697   7.113   1.603   7.663  0.5488  0.1846 -0.2122
    7CHTO   O58 2698   7.178   1.566   7.790 -0.1030 -0.3606  0.0079
    7CHTO  H136 2699   7.266   1.593   7.784  0.5987 -1.8443  4.6182
    7CHTO   O51 2700   6.656   1.610   7.790 -0.1597 -0.0036  0.1535
    7CHTO   C78 2701   6.665   1.604   7.935 -0.1976 -0.1039 -1.0211
    7CHTO  H150 2702   6.755   1.561   7.973  0.3749 -0.8089 -3.3379
    7CHTO   C80 2703   6.547   1.512   7.983 -0.1361  0.5398 -0.8039
    7CHTO  H152 2704   6.456   1.543   7.942  0.7833  3.4366  0.1077
    7CHTO   O55 2705   6.583   1.382   7.933 -0.6098 -0.3609 -0.0852
    7CHTO  H134 2706   6.670   1.365   7.963  0.5023  3.1878  1.2028
    7CHTO   C84 2707   6.523   1.527   8.142 -0.3046  0.9629 -0.4695
    7CHTO  H156 2708   6.612   1.495   8.195 -1.5193  1.4183 -3.5100
    7CHTO   N15 2709   6.414   1.443   8.198 -0.4528  0.1217  0.5040
    7CHTO  H143 2710   6.419   1.433   8.302 -2.3610  1.6568 -0.4393
    7CHTO  H144 2711   6.406   1.348   8.153  1.6603  2.0095  0.2353
    7CHTO   C87 2712   6.506   1.677   8.167  0.1913 -0.0925 -0.6640
    7CHTO  H159 2713   6.422   1.723   8.106  0.5749 -1.9020 -2.1558
    7CHTO   O53 2714   6.622   1.747   8.133 -0.5023 -0.2383  0.0468
    7CHTO   C82 2715   6.642   1.748   7.991  0.3812 -0.3345 -1.0427
    7CHTO  H154 2716   6.556   1.804   7.946  2.3603  0.6170  1.0752
    7CHTO   C89 2717   6.766   1.821   7.957 -0.3581  0.4913 -0.6352
    7CHTO   O59 2718   6.876   1.777   8.039  0.2561 -0.1519  0.2320
    7CHTO  H137 2719   6.896   1.837   8.114 -0.4322  1.9658  3.6826
    7CHTO   O45 2720   6.481   1.725   8.341  0.5130 -0.7983 -0.0561
    7CHTO   C67 2721   6.403   1.843   8.351 -0.2884 -0.3825  0.5453
    7CHTO  H124 2722   6.407   1.896   8.253 -0.6973  2.4137 -1.1427
    7CHTO   C65 2723   6.250   1.803   8.372  0.0590 -0.0348  0.2746
    7CHTO  H122 2724   6.249   1.715   8.437 -0.8248 -0.5733  0.3840
    7CHTO   O44 2725   6.205   1.757   8.247  0.5067 -0.1638 -0.0130
    7CHTO  H102 2726   6.262   1.693   8.200  0.8936 -1.1407 -0.2890
    7CHTO   C63 2727   6.173   1.927   8.437 -0.3538  0.5317 -0.1774
    7CHTO  H120 2728   6.183   1.918   8.547  0.7134 -1.6522  0.9724
    7CHTO   N11 2729   6.022   1.932   8.420 -0.0094  0.0592  0.1036
    7CHTO  H108 2730   6.016   1.975   8.327 -0.3711  0.0048 -0.6940
    7CHTO  H109 2731   5.973   1.984   8.499 -2.4197 -0.9193 -0.6477
    7CHTO   C61 2732   6.247   2.067   8.398  1.0718  0.6586 -0.5282
    7CHTO  H118 2733   6.183   2.147   8.448 -3.0651  3.5569  0.0363
    7CHTO   O40 2734   6.372   2.062   8.467  0.2454  0.5396  0.2211
    7CHTO   C68 2735   6.458   1.947   8.463 -0.3952 -0.2078  1.0628
    7CHTO  H125 2736   6.473   1.898   8.558  0.3827 -1.8350  0.5117
    7CHTO   C72 2737   6.594   2.010   8.416  0.1475 -0.2327  0.5730
    7CHTO   O48 2738   6.704   1.918   8.424 -0.2409  0.2641  0.4081
    7CHTO  H105 2739   6.720   1.896   8.516  2.8835  0.6343 -0.3483
    7CHTO   O38 2740   6.254   2.096   8.256 -0.0370 -0.2380  0.4138
    7CHTO   C55 2741   6.179   2.208   8.204 -0.7439  0.3497  0.0268
    7CHTO  H112 2742   6.108   2.244   8.278  0.1483 -2.8150 -0.2081
    7CHTO   C56 2743   6.103   2.164   8.067  0.1393  0.0461 -0.7696
    7CHTO  H113 2744   6.176   2.108   8.007  2.8487 -3.6192  1.4403
    7CHTO   O42 2745   6.018   2.055   8.093 -0.7562 -0.2287 -0.2584
    7CHTO  H100 2746   6.052   2.004   8.165  0.3368  0.7523  0.1020
    7CHTO   C57 2747   6.022   2.281   7.997 -0.0740  0.2248  0.6882
    7CHTO  H114 2748   5.937   2.316   8.061  0.2293  2.7877  0.0747
    7CHTO   N10 2749   5.966   2.242   7.863 -0.1879 -0.3117 -0.3552
    7CHTO  H106 2750   5.877   2.303   7.844 -0.0813 -1.5350  1.8736
    7CHTO  H107 2751   5.933   2.138   7.865 -0.3932 -0.5834  0.2486
    7CHTO   C58 2752   6.118   2.400   7.989  0.1215 -0.3045 -0.2392
    7CHTO  H115 2753   6.196   2.377   7.903  1.6685  0.9078  0.3424
    7CHTO   O37 2754   6.193   2.429   8.113  0.9161  0.0045 -0.2807
    7CHTO   C59 2755   6.275   2.324   8.161  0.6555  0.3217 -0.2332
    7CHTO  H116 2756   6.333   2.292   8.076 -1.7542 -1.4541 -2.0110
    7CHTO   C70 2757   6.355   2.383   8.276  0.2754 -0.8342  0.0036
    7CHTO   O46 2758   6.443   2.291   8.331 -0.1306 -0.2084  0.1398
    7CHTO  H103 2759   6.393   2.241   8.387  0.2376 -1.9687 -3.8656
    7CHTO   O39 2760   6.035   2.544   7.951  0.5539 -0.4345  0.2669
    7CHTO   C60 2761   6.120   2.630   7.866 -0.0316 -0.5153  0.6630
    7CHTO  H117 2762   6.223   2.614   7.873 -0.8783 -1.6360  1.5238
    7CHTO   C62 2763   6.078   2.608   7.718 -1.0644  0.8395  0.4033
    7CHTO  H119 2764   6.107   2.509   7.699 -0.8188 -0.8625  2.7331
    7CHTO   O43 2765   5.939   2.607   7.699  0.2647  1.0605  0.5185
    7CHTO  H101 2766   5.902   2.685   7.728  0.3824  0.0556  0.6856
    7CHTO   C66 2767   6.159   2.711   7.625  0.1803  0.3452 -0.2468
    7CHTO  H123 2768   6.259   2.704   7.659  2.0125  0.4795 -1.7158
    7CHTO   N12 2769   6.151   2.685   7.478  0.0831  0.2000  0.0116
    7CHTO  H110 2770   6.200   2.590   7.456  1.5255 -0.5405 -2.5494
    7CHTO  H111 2771   6.048   2.681   7.444 -0.0498  0.7076 -0.8700
    7CHTO   C69 2772   6.120   2.854   7.673 -0.8875 -1.3789 -0.1476
    7CHTO  H126 2773   6.011   2.865   7.663 -2.2193 -1.1537 -0.0302
    7CHTO   O41 2774   6.153   2.880   7.812  0.3434  1.3736  0.4984
    7CHTO   C64 2775   6.085   2.772   7.912 -0.5211 -0.3582  0.1966
    7CHTO  H121 2776   5.980   2.795   7.927  0.3119  1.5934  1.6577
    7CHTO   C71 2777   6.149   2.794   8.054 -0.0926  0.1986 -0.3489
    7CHTO   O47 2778   6.096   2.905   8.128  0.0316 -0.4540 -0.7552
    7CHTO  H104 2779   6.115   2.875   8.217  2.7106  0.4510 -1.8897
    7CHTO   O34 2780   6.188   2.970   7.603 -0.8096  0.0811  0.3342
    7CHTO   C49 2781   6.278   3.064   7.574 -0.1448 -0.5545 -0.3037
    7CHTO   H91 2782   6.222   3.148   7.531 -0.6628  0.3272  0.3131
    7CHTO   C47 2783   6.368   3.025   7.459  0.3547 -0.0443 -0.0090
    7CHTO   H89 2784   6.435   3.114   7.430  0.9221 -2.0307 -1.4033
    7CHTO   O33 2785   6.296   2.983   7.343  0.0855  0.1446 -0.1267
    7CHTO   H70 2786   6.357   2.981   7.274 -0.6352  0.8187  0.9533
    7CHTO   C45 2787   6.459   2.902   7.523  0.0056  0.4254  0.3448
    7CHTO   H87 2788   6.408   2.802   7.512  0.2056 -1.6210 -2.6306
    7CHTO    N8 2789   6.584   2.877   7.449  0.1611  0.0334 -0.4844
    7CHTO   H75 2790   6.664   2.935   7.497  0.9358  0.7505 -2.5188
    7CHTO   H76 2791   6.620   2.770   7.457  0.5731  3.0561  2.9383
    7CHTO   C43 2792   6.485   2.923   7.681 -0.5372  0.2186  0.2441
    7CHTO   H85 2793   6.398   2.875   7.719  0.7112 -0.5516  1.7659
    7CHTO   O29 2794   6.495   3.061   7.709 -0.0228 -0.3814  0.5722
    7CHTO   C50 2795   6.363   3.122   7.696 -0.7959  0.1055  0.6710
    7CHTO   H92 2796   6.314   3.097   7.790 -0.1589  2.1056  0.4884
    7CHTO   C54 2797   6.369   3.279   7.692 -0.3975  1.1774  0.0742
    7CHTO   O36 2798   6.238   3.342   7.679  0.8150  1.0130 -0.5173
    7CHTO   H72 2799   6.181   3.295   7.620 -0.4812 -2.2306 -0.4436
    7CHTO   O27 2800   6.596   2.851   7.730 -0.1412 -0.3179 -0.6558
    7CHTO   C37 2801   6.649   2.789   7.850  0.9385 -0.2270 -0.8433
    7CHTO   H79 2802   6.751   2.822   7.874 -0.3161 -0.5842  1.1806
    7CHTO   C38 2803   6.559   2.823   7.975 -0.4515 -0.4443  0.0165
    7CHTO   H80 2804   6.454   2.806   7.936 -4.1924  1.2204 -0.9564
    7CHTO   O31 2805   6.574   2.960   8.011  0.8472 -0.6508  1.1993
    7CHTO   H68 2806   6.666   2.970   8.041  1.2325  2.7983  0.0749
    7CHTO   C39 2807   6.586   2.730   8.099 -1.1904  0.6593  0.1905
    7CHTO   H81 2808   6.688   2.747   8.140 -0.9980 -0.7427  1.0508
    7CHTO    N7 2809   6.497   2.747   8.216  0.1323 -0.7373 -0.0973
    7CHTO   H73 2810   6.512   2.673   8.290  1.6728  0.2933  1.0115
    7CHTO   H74 2811   6.509   2.845   8.252  1.9672 -0.0969  3.5704
    7CHTO   C40 2812   6.596   2.582   8.055 -0.8873  0.7051  0.4631
    7CHTO   H82 2813   6.494   2.545   8.035  0.0183 -3.1084 -1.1678
    7CHTO   O26 2814   6.682   2.568   7.939 -0.3718 -0.3996 -0.2910
    7CHTO   C41 2815   6.641   2.638   7.820  0.2274 -0.3418  0.0623
    7CHTO   H83 2816   6.538   2.612   7.792  0.1079  0.9362 -0.6758
    7CHTO   C52 2817   6.739   2.601   7.710 -0.1566 -0.2751  0.5837
    7CHTO   O35 2818   6.886   2.607   7.743  0.1993  0.9702 -0.6242
    7CHTO   H71 2819   6.929   2.660   7.680  1.9833 -1.7123 -0.1168
    7CHTO   O28 2820   6.648   2.494   8.159 -0.5786 -0.1201  0.1441
    7CHTO   C42 2821   6.782   2.447   8.187  0.4064 -0.1994  0.0150
    7CHTO   H84 2822   6.764   2.387   8.277  2.0496  0.4926  0.4054
    7CHTO   C44 2823   6.883   2.559   8.229 -0.4139  0.2850  0.5042
    7CHTO   H86 2824   6.894   2.627   8.142  1.0525 -0.4151  1.1592
    7CHTO   O32 2825   6.834   2.628   8.353  0.0091 -0.3189  0.5970
    7CHTO   H69 2826   6.860   2.718   8.347 -1.6389  2.0592 -2.1045
    7CHTO   C48 2827   7.027   2.498   8.258 -0.3335  0.7784  0.1183
    7CHTO   H90 2828   7.017   2.446   8.352  2.5454 -1.0151 -0.7168
    7CHTO    N9 2829   7.131   2.603   8.285  0.3474  0.0463  0.4480
    7CHTO   H77 2830   7.119   2.681   8.208 -0.4504 -2.4400 -0.9513
    7CHTO   H78 2831   7.107   2.656   8.377 -1.5532 -2.0473 -1.7966
    7CHTO   C51 2832   7.076   2.397   8.140  0.1413 -0.5708 -0.2531
    7CHTO   H93 2833   7.084   2.454   8.048 -1.7401  0.0740 -2.4275
    7CHTO   O30 2834   6.975   2.287   8.124 -0.2342  0.1598 -0.4935
    7CHTO   C46 2835   6.835   2.347   8.081  0.0960  1.1937 -0.3002
    7CHTO   H88 2836   6.846   2.401   7.983  0.8738 -1.3515 -0.8047
    7CHTO   C53 2837   6.741   2.226   8.056 -0.1091  0.1289  0.5734
    7CHTO   O72 2838   6.621   2.248   7.983 -0.2326 -0.0808  0.6733
    7CHTO  H199 2839   6.630   2.299   7.904 -0.7106  1.7789 -1.7193
    7CHTO   O22 2840   7.203   2.341   8.167 -0.2599  0.2779 -0.1884
    7CHTO   C31 2841   7.298   2.298   8.058 -0.4118 -0.8114  0.0823
    7CHTO   H59 2842   7.386   2.249   8.115 -1.3927  1.7600 -0.1498
    7CHTO   C29 2843   7.243   2.194   7.958  1.0484  0.0450  0.0453
    7CHTO   H57 2844   7.166   2.246   7.909  1.5265  2.1139  2.2879
    7CHTO   O21 2845   7.173   2.088   8.030 -0.2089  0.2213  0.4096
    7CHTO   H37 2846   7.211   2.003   8.022  0.9987  0.0607 -0.9947
    7CHTO   C27 2847   7.355   2.141   7.856 -0.2826 -0.1369  0.3794
    7CHTO   H55 2848   7.432   2.083   7.898  0.8120 -1.4552 -3.9357
    7CHTO    N5 2849   7.288   2.059   7.745  0.4615 -0.5400  0.9803
    7CHTO   H43 2850   7.283   2.117   7.649 -1.0285 -0.4524 -1.4111
    7CHTO   H44 2851   7.195   2.003   7.774  0.7283 -3.4089 -3.8723
    7CHTO   C25 2852   7.417   2.272   7.791  0.3076  0.4802 -0.5025
    7CHTO   H53 2853   7.335   2.327   7.747 -0.3071  1.2060  1.7665
    7CHTO   O17 2854   7.464   2.363   7.893  0.4598  0.0371  0.2430
    7CHTO   C32 2855   7.360   2.414   7.977 -0.2959 -0.0797 -0.1788
    7CHTO   H60 2856   7.281   2.458   7.917 -0.4489  1.4864  2.7762
    7CHTO   C36 2857   7.428   2.534   8.058 -0.0696  0.3853 -0.0890
    7CHTO   O25 2858   7.435   2.649   7.972  1.1990 -0.3290  0.1785
    7CHTO   H40 2859   7.448   2.733   8.023  0.9189 -1.6672  1.4878
    7CHTO   O15 2860   7.521   2.234   7.688 -0.6423 -0.2168 -0.0160
    7CHTO   C19 2861   7.535   2.284   7.553  0.1222 -0.0051  0.2123
    7CHTO   H47 2862   7.629   2.227   7.528 -0.2943 -3.4628  0.0626
    7CHTO   C20 2863   7.422   2.247   7.458  0.4759 -0.0742  0.5804
    7CHTO   H48 2864   7.318   2.265   7.502 -0.9553 -1.6132 -1.7439
    7CHTO   O19 2865   7.418   2.103   7.459  0.2861  0.3020 -0.0962
    7CHTO   H35 2866   7.496   2.078   7.420 -0.2050 -2.3666  0.8627
    7CHTO   C21 2867   7.438   2.301   7.310  0.1247  0.1588 -0.1541
    7CHTO   H49 2868   7.515   2.248   7.259 -0.7551  0.7786  0.4921
    7CHTO    N4 2869   7.317   2.274   7.235  0.0440 -0.2809 -0.1460
    7CHTO   H41 2870   7.311   2.166   7.222  0.8408 -1.9306  1.3570
    7CHTO   H42 2871   7.319   2.322   7.134  2.4535  0.6516 -3.8402
    7CHTO   C22 2872   7.482   2.450   7.318 -0.6456  0.3285 -0.5892
    7CHTO   H50 2873   7.396   2.497   7.358  2.1360  1.9503 -1.1202
    7CHTO   O14 2874   7.595   2.469   7.404  0.1908  0.0596  0.0735
    7CHTO   C23 2875   7.585   2.428   7.543  0.1900 -0.5340 -0.7710
    7CHTO   H51 2876   7.513   2.498   7.599 -4.1279 -0.9865 -0.3537
    7CHTO   C34 2877   7.728   2.445   7.604  0.4149 -0.9480 -0.1905
    7CHTO   O23 2878   7.711   2.457   7.746  0.2384 -0.1831 -0.2730
    7CHTO   H38 2879   7.663   2.388   7.788 -0.4697  2.0815 -1.2564
    7CHTO   O16 2880   7.507   2.501   7.184 -0.3342 -0.2800  0.2055
    7CHTO   C24 2881   7.440   2.660   7.149  0.9143 -0.0570  0.0518
    7CHTO   H52 2882   7.359   2.681   7.212  1.2816 -0.2793 -1.1689
    7CHTO   C26 2883   7.386   2.650   7.011  0.5417 -0.4312 -0.4145
    7CHTO   H54 2884   7.472   2.605   6.947 -0.4467  0.5153 -1.7920
    7CHTO   O20 2885   7.272   2.564   7.016 -0.0366 -0.2678  0.0791
    7CHTO   H36 2886   7.295   2.480   7.053  2.2427 -1.8142  2.9627
    7CHTO   C30 2887   7.351   2.791   6.954  1.0779 -0.0198  0.1503
    7CHTO   H58 2888   7.258   2.815   7.020  1.0159  1.4185  1.0775
    7CHTO    N6 2889   7.306   2.790   6.813 -0.4454 -0.2423  0.0961
    7CHTO   H45 2890   7.360   2.849   6.743  0.0355  2.2852 -1.5658
    7CHTO   H46 2891   7.202   2.813   6.807  0.5340 -0.9147  1.9695
    7CHTO   C33 2892   7.453   2.905   6.975 -0.2082  0.1637 -0.0758
    7CHTO   H61 2893   7.540   2.888   6.912  0.1181 -1.0122 -0.2696
    7CHTO   O18 2894   7.499   2.902   7.113  0.2168 -0.2817  0.2831
    7CHTO   C28 2895   7.548   2.778   7.162  0.5114  0.7191  0.0234
    7CHTO   H56 2896   7.640   2.755   7.106 -0.7630 -0.1928  0.7166
    7CHTO   C35 2897   7.589   2.800   7.306  0.8663  0.5555  0.0936
    7CHTO   O24 2898   7.680   2.903   7.345 -0.4235 -0.2088  0.3812
    7CHTO   H39 2899   7.773   2.878   7.343  0.3523 -1.6472 -0.3273
    7CHTO    O9 2900   7.395   3.036   6.938  0.1013  1.1399  0.2054
    7CHTO   C13 2901   7.494   3.157   6.947  0.0301 -0.3642  0.3307
    7CHTO   H26 2902   7.598   3.135   6.901 -1.2684 -1.0839 -2.8166
    7CHTO   C11 2903   7.507   3.202   7.096 -0.0763 -0.2552 -0.0786
    7CHTO   H24 2904   7.567   3.121   7.141 -0.7947  1.3944 -1.8825
    7CHTO    O8 2905   7.376   3.201   7.162 -0.1595 -0.3537 -0.2697
    7CHTO    H3 2906   7.336   3.116   7.157 -0.7596 -1.2730 -1.0383
    7CHTO    C9 2907   7.592   3.336   7.089 -0.6824 -0.1635  0.4945
    7CHTO   H22 2908   7.683   3.316   7.027 -1.2285  2.9746  0.6563
    7CHTO    N2 2909   7.643   3.364   7.228 -0.8983  0.1797 -0.6366
    7CHTO   H10 2910   7.702   3.454   7.247  1.0304  0.6910  2.5622
    7CHTO   H11 2911   7.686   3.280   7.277 -3.2036  0.4321 -3.0400
    7CHTO    C7 2912   7.515   3.447   7.015  0.1230  0.3427  0.6119
    7CHTO   H20 2913   7.581   3.532   7.010  1.2273 -0.4201 -2.5234
    7CHTO    O4 2914   7.474   3.409   6.884 -0.3234 -0.6542 -0.3223
    7CHTO   C14 2915   7.428   3.278   6.859 -0.1940 -0.1287 -0.0174
    7CHTO   H27 2916   7.462   3.264   6.752 -1.1070 -1.3435 -4.2250
    7CHTO   C18 2917   7.272   3.285   6.856 -0.4040  0.1887 -0.2902
    7CHTO   O13 2918   7.209   3.343   6.743 -0.6302 -0.0731  0.3479
    7CHTO    H7 2919   7.221   3.441   6.750 -0.9978  3.5831 -0.3755
    7CHTO    O2 2920   7.379   3.478   7.090  0.5622 -0.7922 -0.0935
    7CHTO    C1 2921   7.347   3.621   7.119 -0.3773 -0.2182  0.0368
    7CHTO   H14 2922   7.431   3.688   7.082  0.3588 -1.1613  0.1984
    7CHTO    C2 2923   7.336   3.649   7.277  0.3165 -0.1770  0.8197
    7CHTO   H15 2924   7.257   3.581   7.311  0.5312 -0.8540 -1.4403
    7CHTO    O6 2925   7.458   3.623   7.348 -0.2689 -0.2718 -0.0770
    7CHTO    H1 2926   7.478   3.670   7.427  0.9843  1.0201  3.3093
    7CHTO    C3 2927   7.294   3.805   7.296 -0.5151  0.3097 -0.5661
    7CHTO   H16 2928   7.374   3.863   7.268 -0.6418 -0.6679  0.8717
    7CHTO    N1 2929   7.277   3.837   7.440  0.1075 -0.2473  0.0131
    7CHTO    H8 2930   7.370   3.841   7.493 -1.1026  2.8778 -0.7171
    7CHTO    H9 2931   7.204   3.771   7.483  0.7892 -0.6195 -0.6322
    7CHTO    C4 2932   7.174   3.854   7.206  0.0260 -0.1496  0.4506
    7CHTO   H17 2933   7.082   3.810   7.239 -0.1276  0.3116  0.3622
    7CHTO    O1 2934   7.199   3.817   7.066  0.1114 -0.0646 -0.1889
    7CHTO    C5 2935   7.222   3.673   7.043 -0.0396 -0.4616  0.4141
    7CHTO   H18 2936   7.135   3.626   7.083  1.6359 -1.7275  0.2944
    7CHTO   C16 2937   7.228   3.661   6.887 -0.0851 -0.0433  0.1156
    7CHTO   O11 2938   7.340   3.734   6.833  0.4989 -0.4647 -0.5608
    7CHTO    H5 2939   7.391   3.683   6.782 -2.8120  0.7212  1.3760
    7CHTO    O3 2940   7.160   3.997   7.205  0.2360  0.1909  0.1470
    7CHTO    C6 2941   7.021   4.038   7.187 -0.4901 -0.3718 -0.4509
    7CHTO   H19 2942   6.957   3.965   7.142 -1.7687 -2.6438  0.1678
    7CHTO    C8 2943   6.961   4.075   7.320 -0.8670 -0.2901 -0.3408
    7CHTO   H21 2944   7.029   4.149   7.373 -0.4913  0.4450  0.4322
    7CHTO    O7 2945   6.957   3.952   7.392 -0.0004  0.7248  0.8616
    7CHTO    H2 2946   7.018   3.954   7.460 -0.4365  1.3648 -1.4202
    7CHTO   C12 2947   6.818   4.132   7.304  0.0468  0.2131 -0.1318
    7CHTO   H25 2948   6.751   4.054   7.275  0.1055 -0.2785 -1.0753
    7CHTO    N3 2949   6.758   4.182   7.427  0.3233 -0.1028 -0.4231
    7CHTO   H12 2950   6.658   4.145   7.426 -0.7066  1.1724 -1.0692
    7CHTO   H13 2951   6.791   4.138   7.520 -1.1155 -2.5082 -0.2379
    7CHTO   C15 2952   6.814   4.235   7.195  0.0272 -0.2392 -0.1348
    7CHTO   H28 2953   6.831   4.345   7.229 -2.0305  2.0960 -0.8628
    7CHTO   O10 2954   6.662   4.237   7.141  0.5777 -0.5243  0.1602
    7CHTO    H4 2955   6.614   4.284   7.205  0.2474 -1.6588  3.7776
    7CHTO    O5 2956   6.889   4.215   7.076 -0.6069  0.0654 -0.2427
    7CHTO   C10 2957   7.020   4.161   7.099  0.4010 -0.2410 -0.3497
    7CHTO   H23 2958   7.080   4.237   7.152  0.5801  0.7567 -0.5880
    7CHTO   C17 2959   7.093   4.137   6.961 -0.1856  0.0341  0.4961
    7CHTO   O12 2960   7.236   4.110   6.967 -0.0463 -0.0959  0.8261
    7CHTO    H6 2961   7.283   4.193   6.962  0.2060  2.6750  0.7414
    8CHTO  H203 2962   7.480   8.449   2.088  2.4163 -2.1554  0.4532
    8CHTO   O82 2963   7.432   8.395   2.144  0.0450  0.1100 -0.3945
    8CHTO  C123 2964   7.304   8.430   2.187 -0.3966  0.2656 -0.3613
    8CHTO  H227 2965   7.303   8.404   2.294 -0.3082 -1.5758  0.8853
    8CHTO   O77 2966   7.289   8.571   2.148  0.3577  0.5950 -0.3479
    8CHTO  C118 2967   7.174   8.644   2.191 -0.1915  0.1098  0.6218
    8CHTO  H222 2968   7.165   8.644   2.302  2.5177  0.4968 -1.5818
    8CHTO  C125 2969   7.183   8.792   2.140 -0.3813  0.0365  0.3731
    8CHTO   O84 2970   7.309   8.864   2.158 -0.4126  0.0713 -0.0057
    8CHTO  H205 2971   7.381   8.808   2.141 -0.4972 -1.5841  2.1151
    8CHTO  C114 2972   7.052   8.577   2.129  0.5504 -0.0328 -0.3509
    8CHTO  H218 2973   7.059   8.583   2.021  1.2929 -1.3491 -1.6203
    8CHTO  C116 2974   7.044   8.421   2.161 -0.8121 -0.4987 -0.1367
    8CHTO  H220 2975   7.032   8.405   2.265  0.2920 -0.1148 -1.6664
    8CHTO   O79 2976   6.929   8.363   2.093 -0.1021 -0.1712  0.0194
    8CHTO  H201 2977   6.947   8.380   2.000  1.9758 -0.9711 -2.5496
    8CHTO  C120 2978   7.184   8.357   2.121 -0.2616  0.3833 -0.4075
    8CHTO  H224 2979   7.193   8.372   2.010 -0.2249 -1.1344 -0.4123
    8CHTO   N21 2980   7.190   8.208   2.144 -0.2062 -0.1798 -0.3558
    8CHTO  H211 2981   7.228   8.184   2.243  0.4014 -0.7783  0.2053
    8CHTO  H212 2982   7.090   8.173   2.126 -1.8124 -1.3603 -1.5210
    8CHTO   O75 2983   6.945   8.656   2.174  0.3691 -0.4808 -0.1694
    8CHTO  C112 2984   6.828   8.689   2.086  0.2083 -0.1500 -0.2328
    8CHTO  H216 2985   6.839   8.612   2.007 -2.3604 -1.7779 -0.3441
    8CHTO   O73 2986   6.852   8.824   2.042 -0.0457  1.0165 -0.2388
    8CHTO  C113 2987   6.765   8.860   1.937  0.2997  0.3308 -0.2389
    8CHTO  H217 2988   6.768   8.782   1.862  0.2861 -1.7060 -0.8937
    8CHTO  C124 2989   6.817   8.989   1.883  0.0611 -0.6153 -0.5200
    8CHTO   O83 2990   6.757   9.035   1.763 -0.1252  0.3024  0.6006
    8CHTO  H204 2991   6.795   9.126   1.746  0.9407  0.6852  0.2621
    8CHTO  C109 2992   6.615   8.852   1.977  0.5360  0.3752  0.1681
    8CHTO  H213 2993   6.601   8.936   2.048 -0.1315  3.1351  0.9200
    8CHTO  C110 2994   6.579   8.722   2.056 -0.0493 -0.4914 -0.1029
    8CHTO  H214 2995   6.570   8.635   1.988  1.4434  2.7809 -0.3353
    8CHTO   O78 2996   6.452   8.730   2.117 -0.0010 -0.3209 -0.3779
    8CHTO  H200 2997   6.387   8.691   2.071  1.4036  3.0196  1.7093
    8CHTO  C111 2998   6.686   8.681   2.162 -0.4984  0.3374  0.0761
    8CHTO  H215 2999   6.692   8.754   2.241  4.9440 -0.6870 -1.9443
    8CHTO   N19 3000   6.667   8.545   2.230  0.1111 -0.5709  0.3082
    8CHTO  H207 3001   6.630   8.557   2.331  1.4949 -0.8388 -1.1656
    8CHTO  H208 3002   6.602   8.487   2.166  1.8004 -2.5200 -2.8025
    8CHTO   O74 3003   6.534   8.879   1.854  0.2931  0.7169  0.5062
    8CHTO  C115 3004   6.396   8.954   1.889 -0.7871  0.7236 -0.1134
    8CHTO  H219 3005   6.360   8.924   1.984  1.0289 -0.1929 -0.7311
    8CHTO   O76 3006   6.419   9.105   1.897 -0.0386  0.2852 -0.5121
    8CHTO  C122 3007   6.441   9.186   1.776  0.2526  0.2449  0.0874
    8CHTO  H226 3008   6.538   9.157   1.730  1.3627 -2.7567 -1.7205
    8CHTO  C126 3009   6.457   9.338   1.816  0.1334 -0.5434 -0.0987
    8CHTO   O85 3010   6.573   9.338   1.903  0.2478 -0.2399 -0.0579
    8CHTO  H206 3011   6.649   9.334   1.855  0.8681 -0.2914  0.4090
    8CHTO  C121 3012   6.326   9.160   1.673  0.0989  0.1001 -0.4399
    8CHTO  H225 3013   6.277   9.256   1.660 -1.5100 -1.2485 -0.6425
    8CHTO   O81 3014   6.388   9.119   1.550  0.2202  0.0714 -0.1881
    8CHTO  H202 3015   6.341   9.154   1.472  0.0694 -0.2963 -2.3729
    8CHTO  C119 3016   6.228   9.053   1.716  0.0956  0.2929 -0.5046
    8CHTO  H223 3017   6.183   9.105   1.803 -0.7134  1.7917  0.7264
    8CHTO  C117 3018   6.297   8.920   1.774 -0.3744 -0.2753  0.1148
    8CHTO  H221 3019   6.357   8.870   1.702 -0.9568 -0.3988 -0.5958
    8CHTO   N20 3020   6.190   8.831   1.809  0.1876  0.0452  0.3126
    8CHTO  H209 3021   6.185   8.742   1.745 -2.0026 -0.3666  0.7476
    8CHTO  H210 3022   6.184   8.824   1.916 -2.0725  1.0863 -1.4859
    8CHTO   O80 3023   6.097   9.048   1.607 -0.5177 -0.3917 -0.3099
    8CHTO  C103 3024   5.992   9.196   1.594 -0.1843 -0.2549  0.1615
    8CHTO  H190 3025   5.890   9.162   1.559 -2.2823 -2.0598 -1.8912
    8CHTO  C101 3026   5.984   9.285   1.725 -0.1838  0.1831 -0.1028
    8CHTO  H188 3027   6.085   9.317   1.748  0.7602  1.1242  0.4578
    8CHTO   O68 3028   5.916   9.207   1.858 -0.3856  0.5007  0.0932
    8CHTO  H168 3029   5.925   9.251   1.937 -2.2344 -0.7682 -0.9678
    8CHTO   C99 3030   5.914   9.426   1.691  0.5552  0.7908  0.1997
    8CHTO  H186 3031   5.814   9.401   1.659  0.3036  0.0628  0.8534
    8CHTO   N17 3032   5.909   9.518   1.805  0.8326 -0.0555  0.4052
    8CHTO  H174 3033   5.873   9.467   1.889 -2.9792  0.7253 -2.6460
    8CHTO  H175 3034   5.835   9.594   1.781  1.5317 -0.2658 -0.1932
    8CHTO   C97 3035   5.988   9.491   1.569  1.0263  0.9401 -0.2869
    8CHTO  H184 3036   6.089   9.533   1.603  1.6014  1.5991 -1.4774
    8CHTO   O64 3037   5.994   9.401   1.451 -0.2080  0.0474  0.0828
    8CHTO  C104 3038   6.054   9.275   1.471 -0.6984  0.4271  0.1423
    8CHTO  H191 3039   6.159   9.295   1.495 -3.1943  0.0592  3.7798
    8CHTO  C108 3040   6.047   9.202   1.338  0.7550  0.5241  0.1128
    8CHTO   O71 3041   6.126   9.259   1.237  0.6355  0.5983 -0.0478
    8CHTO  H171 3042   6.111   9.222   1.151  0.9702 -3.4156 -0.8660
    8CHTO   O62 3043   5.905   9.591   1.505 -0.1077 -0.1723 -0.2724
    8CHTO   C91 3044   5.970   9.718   1.470  0.4838 -0.3275  0.2229
    8CHTO  H178 3045   6.050   9.744   1.537 -1.0572  0.9943 -0.3808
    8CHTO   C92 3046   5.859   9.819   1.486 -0.2312  0.1535 -0.3584
    8CHTO  H179 3047   5.770   9.793   1.430  0.3574 -2.2255 -1.1069
    8CHTO   O66 3048   5.828   9.821   1.627 -0.1895 -0.1196  0.1148
    8CHTO  H166 3049   5.734   9.836   1.636  1.0043 -1.1804  1.1924
    8CHTO   C93 3050   5.906   9.965   1.445 -0.5059  0.2375  0.0309
    8CHTO  H180 3051   5.979   9.994   1.518  0.8618  2.5615 -1.4952
    8CHTO   N16 3052   5.796  10.061   1.459 -0.9589 -0.9023  0.1576
    8CHTO  H172 3053   5.840  10.155   1.487  0.1608 -0.5661 -0.1674
    8CHTO  H173 3054   5.731  10.034   1.538 -0.5008 -1.1090  2.5584
    8CHTO   C94 3055   5.960   9.964   1.304 -0.2884  0.0028 -0.2382
    8CHTO  H181 3056   5.884   9.929   1.230  0.2357  1.3192 -0.1428
    8CHTO   O61 3057   6.071   9.869   1.292  0.2523  0.6122 -0.4574
    8CHTO   C95 3058   6.040   9.735   1.325  0.0771  0.2853  0.6206
    8CHTO  H182 3059   5.974   9.700   1.246  0.7772  2.0227 -3.4838
    8CHTO  C106 3060   6.162   9.634   1.319  0.5672 -0.4390 -0.2718
    8CHTO   O69 3061   6.294   9.692   1.310 -0.0538 -0.9282 -1.1227
    8CHTO  H169 3062   6.316   9.710   1.223  1.6506 -0.1667 -0.0866
    8CHTO   O63 3063   6.019  10.115   1.261 -0.0475  0.9135 -0.1733
    8CHTO   C96 3064   6.041  10.134   1.105 -0.0912  0.4629  0.6409
    8CHTO  H183 3065   5.984  10.062   1.049 -0.5843  3.8726 -0.9533
    8CHTO   C98 3066   6.194  10.121   1.068 -0.1049  0.6065 -0.2233
    8CHTO  H185 3067   6.258  10.173   1.140  1.2765 -0.9666  0.4200
    8CHTO   O67 3068   6.235   9.978   1.079  0.1347  0.0050 -0.1610
    8CHTO  H167 3069   6.159   9.921   1.105 -0.4860 -1.4707  1.4583
    8CHTO  C102 3070   6.229  10.173   0.919  0.6251 -0.3773  0.3331
    8CHTO  H189 3071   6.193  10.098   0.853 -2.1536 -0.2819 -1.0558
    8CHTO   N18 3072   6.374  10.184   0.902 -0.0745  0.0253 -0.3798
    8CHTO  H176 3073   6.394  10.233   0.809  2.2862 -2.8952  2.2986
    8CHTO  H177 3074   6.409  10.249   0.984  1.0630 -0.0260  0.4620
    8CHTO  C105 3075   6.161  10.314   0.889  0.0323  0.8481 -0.4642
    8CHTO  H192 3076   6.207  10.392   0.943  0.7534 -0.6039 -0.8108
    8CHTO   O65 3077   6.025  10.304   0.928 -0.1668  0.3390  0.4436
    8CHTO  C100 3078   5.984  10.270   1.059  0.0498 -0.2264  0.1891
    8CHTO  H187 3079   6.015  10.343   1.129 -1.7372 -2.0100  1.2800
    8CHTO  C107 3080   5.830  10.272   1.076 -0.1891  0.3016  0.6339
    8CHTO   O70 3081   5.781  10.404   1.045  0.1017  1.0282  0.1492
    8CHTO  H170 3082   5.759  10.448   1.121  0.2306 -1.6906 -4.5361
    8CHTO   O57 3083   6.173  10.326   0.734 -0.3203  0.1179  0.1436
    8CHTO   C85 3084   6.231  10.442   0.663  0.2291 -0.2758  0.0828
    8CHTO  H157 3085   6.335  10.449   0.715  0.9028  3.2687  0.3321
    8CHTO   C83 3086   6.164  10.573   0.699  0.6213 -0.0486 -0.6112
    8CHTO  H155 3087   6.177  10.587   0.806  0.4315 -1.1569 -1.8893
    8CHTO   O56 3088   6.020  10.561   0.688  0.0033  0.2529  0.2119
    8CHTO  H135 3089   5.981  10.614   0.749 -3.1521  1.5536 -1.6893
    8CHTO   C81 3090   6.227  10.692   0.622  1.2489  0.4726  0.5831
    8CHTO  H153 3091   6.330  10.693   0.649 -0.9245  1.6587 -0.3791
    8CHTO   N14 3092   6.177  10.828   0.656 -0.1440 -0.4052 -0.1254
    8CHTO  H141 3093   6.253  10.899   0.653 -0.6835 -1.5167  0.1509
    8CHTO  H142 3094   6.144  10.826   0.757 -0.4338 -0.8529 -1.6410
    8CHTO   C79 3095   6.214  10.665   0.471 -0.9658  0.1023  0.6499
    8CHTO  H151 3096   6.250  10.752   0.421 -0.1173 -0.3089 -0.5168
    8CHTO   O52 3097   6.298  10.547   0.439  0.3969  0.2193 -0.3662
    8CHTO   C86 3098   6.240  10.424   0.501 -0.1923 -0.5854 -0.2395
    8CHTO  H158 3099   6.145  10.406   0.456  0.1888 -1.6601  1.3128
    8CHTO   C90 3100   6.333  10.309   0.449 -0.0068  0.2501  0.7211
    8CHTO   O60 3101   6.441  10.271   0.537  0.0838  0.8432 -0.4516
    8CHTO  H138 3102   6.487  10.198   0.498 -0.4854  1.1232  0.0399
    8CHTO   O50 3103   6.076  10.651   0.426 -0.5296 -0.7174  0.4507
    8CHTO   C73 3104   5.991  10.691   0.318 -0.1719  0.0521 -0.2631
    8CHTO  H145 3105   6.048  10.714   0.227  0.6245 -0.2555  0.2578
    8CHTO   C74 3106   5.921  10.815   0.363  0.3869 -0.3358 -0.3390
    8CHTO  H146 3107   5.993  10.894   0.380  0.9540 -3.2051  0.9117
    8CHTO   O54 3108   5.828  10.863   0.253  0.0046 -0.1255 -0.3943
    8CHTO  H133 3109   5.740  10.855   0.271  1.0223 -0.7955 -0.7003
    8CHTO   C75 3110   5.841  10.785   0.496 -0.5216  0.0657  0.8058
    8CHTO  H147 3111   5.916  10.769   0.576  0.4686 -0.0137 -3.8797
    8CHTO   N13 3112   5.756  10.898   0.549 -0.1178  0.2336  0.0319
    8CHTO  H139 3113   5.714  10.849   0.633  0.3089  0.3392 -1.2141
    8CHTO  H140 3114   5.818  10.981   0.579 -0.3322  0.2549 -2.4268
    8CHTO   C76 3115   5.751  10.649   0.487 -0.9186  0.4640 -0.0911
    8CHTO  H148 3116   5.661  10.683   0.437 -1.3667 -0.3306 -1.8650
    8CHTO   O49 3117   5.813  10.548   0.400  0.2549  0.6487 -0.7096
    8CHTO   C77 3118   5.896  10.579   0.284 -0.1338 -0.1586  0.1948
    8CHTO  H149 3119   5.837  10.608   0.201 -1.3760 -2.1612 -2.4689
    8CHTO   C88 3120   5.965  10.449   0.235  0.2310  0.3293  1.1104
    8CHTO   O58 3121   5.846  10.325   0.244  0.0260 -0.0037  0.2157
    8CHTO  H136 3122   5.800  10.340   0.324  0.4843 -3.8655 -2.3552
    8CHTO   O51 3123   5.736  10.580   0.618  0.3568 -0.1364  0.0512
    8CHTO   C78 3124   5.613  10.497   0.632 -0.2379 -0.7153  0.4114
    8CHTO  H150 3125   5.581  10.459   0.527 -0.0758 -0.2036  0.0040
    8CHTO   C80 3126   5.502  10.587   0.691  0.0078  1.1572 -0.5868
    8CHTO  H152 3127   5.543  10.642   0.776  0.4350 -0.4189 -0.1053
    8CHTO   O55 3128   5.447  10.670   0.590 -0.1683 -0.3132 -0.2540
    8CHTO  H134 3129   5.401  10.741   0.634  0.5751  0.5211 -1.0147
    8CHTO   C84 3130   5.382  10.506   0.768  0.2032  0.1465  0.0186
    8CHTO  H156 3131   5.314  10.459   0.688 -1.4158 -1.7240 -2.9669
    8CHTO   N15 3132   5.292  10.593   0.850  0.7873 -0.0864 -0.2180
    8CHTO  H143 3133   5.289  10.573   0.953  2.3416  0.7209 -1.5371
    8CHTO  H144 3134   5.192  10.575   0.810  0.1657 -0.1824  1.1525
    8CHTO   C87 3135   5.440  10.381   0.841  0.2647  0.7040  0.0594
    8CHTO  H159 3136   5.484  10.396   0.938 -2.9502 -1.6900 -1.1059
    8CHTO   O53 3137   5.519  10.311   0.751 -0.2260  0.2443 -0.1360
    8CHTO   C82 3138   5.643  10.374   0.721  0.7027 -0.6530 -0.2495
    8CHTO  H154 3139   5.689  10.410   0.811  0.4671 -0.0101 -0.0124
    8CHTO   C89 3140   5.739  10.274   0.660 -0.0716 -0.8182  0.2067
    8CHTO   O59 3141   5.695  10.232   0.529 -0.4016  0.1859  0.1740
    8CHTO  H137 3142   5.638  10.161   0.544  0.4898 -1.2012  0.7873
    8CHTO   O45 3143   5.313  10.279   0.870 -0.2192 -0.2623 -0.6435
    8CHTO   C67 3144   5.342  10.172   0.957 -0.8570  0.6778 -1.3694
    8CHTO  H124 3145   5.433  10.133   0.921 -0.7396  1.5892 -3.2829
    8CHTO   C65 3146   5.364  10.212   1.105 -0.5996  0.2546  0.1973
    8CHTO  H122 3147   5.314  10.309   1.111  1.1995 -1.2958 -0.7540
    8CHTO   O44 3148   5.502  10.218   1.128 -0.0242 -0.4936 -0.3262
    8CHTO  H102 3149   5.515  10.244   1.213 -0.5436 -0.7017 -0.5610
    8CHTO   C63 3150   5.286  10.118   1.210 -0.8607  0.1634 -0.8085
    8CHTO  H120 3151   5.176  10.125   1.195  0.9469 -2.3101 -0.8818
    8CHTO   N11 3152   5.303  10.145   1.355  0.2855  0.6574  0.2504
    8CHTO  H108 3153   5.328  10.240   1.377 -0.6815 -2.3249 -1.9925
    8CHTO  H109 3154   5.390  10.096   1.388  0.2629  1.1316 -0.7998
    8CHTO   C61 3155   5.310   9.966   1.165 -0.6959  0.0156  0.7236
    8CHTO  H118 3156   5.244   9.900   1.221  0.2900  0.1001 -0.6717
    8CHTO   O40 3157   5.288   9.946   1.027 -0.1720  0.0039 -0.0553
    8CHTO   C68 3158   5.237  10.058   0.949 -1.0073 -0.0526  0.2610
    8CHTO  H125 3159   5.139  10.101   0.995 -1.6464  0.2091  0.4893
    8CHTO   C72 3160   5.199  10.011   0.803 -0.0696  0.1010  0.0913
    8CHTO   O48 3161   5.099  10.098   0.741 -0.1438  0.1684 -0.6039
    8CHTO  H105 3162   5.142  10.183   0.725 -0.3648 -1.9142  0.5819
    8CHTO   O38 3163   5.445   9.928   1.191  0.1709 -0.4110  0.2486
    8CHTO   C55 3164   5.487   9.790   1.188  0.1615  0.2515 -0.0032
    8CHTO  H112 3165   5.426   9.739   1.115  2.0489  1.7535  0.6710
    8CHTO   C56 3166   5.485   9.718   1.330  0.8433  0.2865  0.1718
    8CHTO  H113 3167   5.544   9.781   1.397 -1.0072  1.3010 -2.7297
    8CHTO   O42 3168   5.356   9.721   1.393 -0.5737  0.2511 -0.1913
    8CHTO  H100 3169   5.313   9.805   1.387 -1.1810  1.1532  0.0719
    8CHTO   C57 3170   5.552   9.574   1.330  0.6084 -1.1258 -0.3666
    8CHTO  H114 3171   5.485   9.504   1.282  1.7955  1.4707  0.3763
    8CHTO   N10 3172   5.576   9.520   1.469  0.4037  0.9651  0.1080
    8CHTO  H106 3173   5.581   9.411   1.460 -1.3712  1.1694  1.5768
    8CHTO  H107 3174   5.499   9.545   1.540  1.0651  1.4293  1.2748
    8CHTO   C58 3175   5.687   9.572   1.254 -0.0842  1.0069 -0.4955
    8CHTO  H115 3176   5.768   9.623   1.310 -0.8100 -0.6796  1.1492
    8CHTO   O37 3177   5.661   9.647   1.137  0.3417 -0.0081 -0.1018
    8CHTO   C59 3178   5.630   9.786   1.127  0.4020  0.0293  0.2213
    8CHTO  H116 3179   5.697   9.834   1.197  2.7989 -0.5166 -1.1628
    8CHTO   C70 3180   5.638   9.825   0.982 -0.6144 -0.0258  0.0520
    8CHTO   O46 3181   5.612   9.967   0.954 -0.3120 -0.1480  0.1866
    8CHTO  H103 3182   5.690  10.016   0.964  0.7105  2.8363  0.9055
    8CHTO   O39 3183   5.730   9.408   1.221 -0.1582  0.1826 -0.1447
    8CHTO   C60 3184   5.716   9.373   1.084  0.4419  0.6744 -0.2952
    8CHTO  H117 3185   5.613   9.395   1.049  3.0966 -0.7150 -2.1842
    8CHTO   C62 3186   5.812   9.442   0.976  0.3875  0.1079  0.5004
    8CHTO  H119 3187   5.795   9.552   0.987 -0.9424  0.4449 -2.7920
    8CHTO   O43 3188   5.946   9.412   1.009  0.1403  0.7032 -0.1040
    8CHTO  H101 3189   5.967   9.435   1.099 -0.5176  4.1742  0.6064
    8CHTO   C66 3190   5.771   9.380   0.839 -0.1150  0.5722 -1.0320
    8CHTO  H123 3191   5.661   9.374   0.829  0.2494 -1.1726 -1.7232
    8CHTO   N12 3192   5.822   9.466   0.726 -0.3204 -0.1946 -0.1477
    8CHTO  H110 3193   5.746   9.456   0.646 -4.0068 -1.2836  2.4928
    8CHTO  H111 3194   5.822   9.570   0.769  1.0389  0.3072 -1.7442
    8CHTO   C69 3195   5.815   9.229   0.830  0.3536  0.3835  0.6197
    8CHTO  H126 3196   5.924   9.224   0.855 -1.5326  1.8294 -0.0561
    8CHTO   O41 3197   5.723   9.154   0.942  0.1441 -0.3954 -0.3374
    8CHTO   C64 3198   5.723   9.218   1.077 -0.4963 -0.4111  0.0427
    8CHTO  H121 3199   5.822   9.189   1.123 -0.2083  1.5931  1.2808
    8CHTO   C71 3200   5.614   9.157   1.164 -0.3061 -0.6939 -0.3343
    8CHTO   O47 3201   5.618   9.010   1.168 -0.2741  0.1117  0.3961
    8CHTO  H104 3202   5.542   8.986   1.118  0.8798  1.1186  1.4615
    8CHTO   O34 3203   5.775   9.161   0.698 -0.1408  0.5348  0.0054
    8CHTO   C49 3204   5.655   9.069   0.626 -0.7075 -0.1993  0.2610
    8CHTO   H91 3205   5.668   8.967   0.660 -2.4351  0.8169 -1.0443
    8CHTO   C47 3206   5.673   9.075   0.470 -0.5483  0.7319 -0.2590
    8CHTO   H89 3207   5.605   8.997   0.426  0.2970 -0.5680 -0.1466
    8CHTO   O33 3208   5.807   9.040   0.437 -0.7006 -0.5637 -0.2708
    8CHTO   H70 3209   5.875   9.092   0.476 -0.4320  0.4325 -1.6186
    8CHTO   C45 3210   5.627   9.219   0.420 -0.0547  0.1460 -0.1263
    8CHTO   H87 3211   5.721   9.274   0.445 -0.0885 -2.8946  0.3444
    8CHTO    N8 3212   5.613   9.213   0.267 -0.9977 -0.4319 -0.3246
    8CHTO   H75 3213   5.566   9.306   0.235 -2.0758  0.8997  0.4932
    8CHTO   H76 3214   5.551   9.132   0.229  0.0076 -0.3662  0.9900
    8CHTO   C43 3215   5.518   9.280   0.508  0.4929 -0.3978  0.1256
    8CHTO   H85 3216   5.567   9.341   0.589 -1.9272 -0.2629  1.4476
    8CHTO   O29 3217   5.435   9.182   0.567  0.3501  0.5496 -0.5812
    8CHTO   C50 3218   5.502   9.104   0.664  0.0165  0.0143  1.0397
    8CHTO   H92 3219   5.513   9.159   0.760 -1.9361 -3.0543  1.6606
    8CHTO   C54 3220   5.428   8.973   0.700 -0.2453  0.0264 -0.3308
    8CHTO   O36 3221   5.484   8.914   0.820 -0.8450 -0.3401 -0.0078
    8CHTO   H72 3222   5.446   8.834   0.846  1.4015 -0.8900  2.4784
    8CHTO   O27 3223   5.446   9.381   0.438  0.3943 -0.1097 -0.0033
    8CHTO   C37 3224   5.368   9.499   0.469 -0.0976 -0.4178  0.5789
    8CHTO   H79 3225   5.279   9.479   0.523 -1.7137 -1.5950 -0.4962
    8CHTO   C38 3226   5.457   9.594   0.556  0.2287 -0.8089 -0.1469
    8CHTO   H80 3227   5.556   9.609   0.505 -0.6800  0.4079  0.6109
    8CHTO   O31 3228   5.483   9.527   0.680 -0.2135  0.1302 -0.5719
    8CHTO   H68 3229   5.431   9.561   0.752  1.6581  0.4610 -0.0024
    8CHTO   C39 3230   5.384   9.733   0.566  0.0730  0.5471  0.1955
    8CHTO   H81 3231   5.303   9.713   0.631  0.7567 -2.7162  1.1633
    8CHTO    N7 3232   5.475   9.835   0.631 -0.2321  0.4400 -0.0911
    8CHTO   H73 3233   5.413   9.909   0.686 -0.8528 -1.5769 -0.6960
    8CHTO   H74 3234   5.533   9.791   0.707  0.1747 -2.3008 -0.4057
    8CHTO   C40 3235   5.323   9.792   0.433  0.2600 -0.4481  0.1013
    8CHTO   H82 3236   5.403   9.838   0.371  1.9647  0.8144 -0.9259
    8CHTO   O26 3237   5.248   9.699   0.359  0.4714  0.3104 -0.4611
    8CHTO   C41 3238   5.327   9.573   0.337 -0.1937 -0.2027  0.3081
    8CHTO   H83 3239   5.412   9.602   0.274  0.5648  0.0412 -4.5935
    8CHTO   C52 3240   5.243   9.475   0.246  0.2124 -0.4995  0.1025
    8CHTO   O35 3241   5.220   9.514   0.121 -0.0105 -0.6671 -0.3963
    8CHTO   H71 3242   5.139   9.487   0.088  0.7551  0.6974 -0.6898
    8CHTO   O28 3243   5.218   9.879   0.458 -0.7294  0.0852 -0.2600
    8CHTO   C42 3244   5.157   9.982   0.373 -0.9291 -0.1220  0.6568
    8CHTO   H84 3245   5.083  10.021   0.436  0.3059 -1.1237  0.2336
    8CHTO   C44 3246   5.086   9.929   0.242  0.4460  0.2907 -0.2699
    8CHTO   H86 3247   5.155   9.867   0.185 -1.7104  0.2158  0.2503
    8CHTO   O32 3248   4.992   9.826   0.290  0.5313  0.1450  0.4326
    8CHTO   H69 3249   4.925   9.807   0.226 -0.7670 -0.2546  1.1145
    8CHTO   C48 3250   5.033  10.034   0.141 -0.5386 -0.1161 -0.4862
    8CHTO   H90 3251   4.955  10.097   0.190 -0.6244  1.1505  0.0775
    8CHTO    N9 3252   4.965   9.978   0.021  0.1706  0.2847 -0.2030
    8CHTO   H77 3253   4.944  10.047  -0.051 -0.0196  0.3535 -0.9925
    8CHTO   H78 3254   4.867   9.938   0.057  0.1230 -1.1842  2.0172
    8CHTO   C51 3255   5.155  10.131   0.118 -0.4724 -0.1468 -0.1584
    8CHTO   H93 3256   5.235  10.072   0.081  0.4123  1.5009  0.8506
    8CHTO   O30 3257   5.193  10.189   0.241  0.1930  0.3512  0.4448
    8CHTO   C46 3258   5.251  10.100   0.330  0.3721 -0.0531 -0.4521
    8CHTO   H88 3259   5.342  10.057   0.281 -0.5589 -0.0031 -1.7415
    8CHTO   C53 3260   5.293  10.181   0.457  0.5118  0.3445  0.0166
    8CHTO   O72 3261   5.363  10.305   0.426 -0.6477  0.9927 -0.0246
    8CHTO  H199 3262   5.389  10.339   0.509 -0.6089  1.0723  1.5675
    8CHTO   O22 3263   5.125  10.247   0.041  0.0180  0.1030 -0.0223
    8CHTO   C31 3264   5.218  10.342  -0.011 -1.0972 -0.1751 -0.4534
    8CHTO   H59 3265   5.164  10.392  -0.081  2.2065  1.0348  1.9519
    8CHTO   C29 3266   5.262  10.448   0.091 -0.2774 -0.6519 -0.3076
    8CHTO   H57 3267   5.313  10.393   0.171  0.2964 -0.4564  0.2734
    8CHTO   O21 3268   5.143  10.512   0.149 -0.5169 -0.3851  0.2467
    8CHTO   H37 3269   5.128  10.480   0.239  0.4652 -2.5029  1.4625
    8CHTO   C27 3270   5.366  10.557   0.034  0.1493  0.2604 -0.0959
    8CHTO   H55 3271   5.312  10.611  -0.046 -2.5428 -1.9361  0.2302
    8CHTO    N5 3272   5.416  10.647   0.140 -0.3729 -0.1065  0.5914
    8CHTO   H43 3273   5.524  10.653   0.134 -2.5734  2.2455 -0.0906
    8CHTO   H44 3274   5.354  10.736   0.149  2.4025  2.1366  0.4316
    8CHTO   C25 3275   5.477  10.478  -0.051  0.6450  0.3444  0.1437
    8CHTO   H53 3276   5.540  10.427   0.027 -0.4597  0.0674 -1.2890
    8CHTO   O17 3277   5.426  10.376  -0.141  0.1102 -0.2213 -0.1666
    8CHTO   C32 3278   5.342  10.278  -0.080  0.0141 -0.2542  0.4202
    8CHTO   H60 3279   5.396  10.216  -0.008 -1.8226  0.3688  0.8230
    8CHTO   C36 3280   5.305  10.175  -0.188 -0.2584 -0.0086 -0.5555
    8CHTO   O25 3281   5.433  10.123  -0.236 -0.1665 -0.0634 -0.2183
    8CHTO   H40 3282   5.484  10.188  -0.274 -0.9112  0.4159  2.0914
    8CHTO   O15 3283   5.568  10.562  -0.123 -0.4592 -0.4062  0.9238
    8CHTO   C19 3284   5.700  10.590  -0.155 -0.2555  0.0808  0.7160
    8CHTO   H47 3285   5.695  10.574  -0.264  2.7421  1.6373  2.3080
    8CHTO   C20 3286   5.759  10.732  -0.121  0.2434 -0.6988  0.3265
    8CHTO   H48 3287   5.748  10.756  -0.016 -0.8517  0.9401  0.2545
    8CHTO   O19 3288   5.681  10.821  -0.193 -0.2717 -0.0670  0.4637
    8CHTO   H35 3289   5.727  10.901  -0.196  1.8542  0.7400 -1.9559
    8CHTO   C21 3290   5.916  10.746  -0.153  0.7995 -0.7434 -0.1694
    8CHTO   H49 3291   5.931  10.760  -0.259 -2.5400 -1.3919  2.0450
    8CHTO    N4 3292   5.976  10.875  -0.109  0.3809 -0.1372  0.4265
    8CHTO   H41 3293   5.910  10.943  -0.061 -0.0432  0.2861 -1.1894
    8CHTO   H42 3294   6.016  10.922  -0.196  3.2377  2.9334  4.3202
    8CHTO   C22 3295   6.003  10.626  -0.106 -0.5864 -0.6868  0.8118
    8CHTO   H50 3296   6.015  10.637   0.004  3.6243  3.7954 -2.6286
    8CHTO   O14 3297   5.928  10.509  -0.144  0.6941  0.3997  0.2716
    8CHTO   C23 3298   5.791  10.480  -0.103 -0.8029 -0.3913 -0.5919
    8CHTO   H51 3299   5.792  10.481   0.008  0.9197 -0.6686 -0.0242
    8CHTO   C34 3300   5.758  10.337  -0.154  0.4131 -0.4178  0.2684
    8CHTO   O23 3301   5.837  10.240  -0.081  0.3143  0.0154  0.1639
    8CHTO   H38 3302   5.829  10.155  -0.122 -0.2507 -3.4288 -0.2857
    8CHTO   O16 3303   6.127  10.618  -0.174  0.1294 -0.0500  0.6465
    8CHTO   C24 3304   6.232  10.505  -0.100 -0.3888  0.4278  0.0385
    8CHTO   H52 3305   6.175  10.424  -0.050 -1.6697  5.0471  2.4573
    8CHTO   C26 3306   6.333  10.574  -0.001 -0.0334  0.2294 -0.5542
    8CHTO   H54 3307   6.395  10.655  -0.056  0.5036  2.1724 -1.7383
    8CHTO   O20 3308   6.256  10.635   0.101  0.0041  0.0771  0.3988
    8CHTO   H36 3309   6.278  10.728   0.094 -2.0865 -0.8543 -0.5910
    8CHTO   C30 3310   6.431  10.460   0.044  0.1270 -0.3055  0.5771
    8CHTO   H58 3311   6.380  10.381   0.102 -0.5099 -1.2083  0.6205
    8CHTO    N6 3312   6.534  10.500   0.141  0.4841 -0.5194 -0.1608
    8CHTO   H45 3313   6.514  10.603   0.169  1.4138  0.4499  1.5209
    8CHTO   H46 3314   6.537  10.432   0.226  1.6298 -1.1623 -0.1618
    8CHTO   C33 3315   6.494  10.378  -0.071  0.5660 -0.5286 -0.1430
    8CHTO   H61 3316   6.569  10.439  -0.116  1.7786  0.6588  0.9777
    8CHTO   O18 3317   6.399  10.342  -0.170  0.4168  0.5972 -0.0666
    8CHTO   C28 3318   6.314  10.445  -0.225 -0.2003 -0.2422  0.1744
    8CHTO   H56 3319   6.379  10.521  -0.269  2.0203 -1.7493 -0.8861
    8CHTO   C35 3320   6.230  10.398  -0.339 -0.5137  0.0251 -0.0192
    8CHTO   O24 3321   6.151  10.288  -0.311  0.4385 -0.1797  0.4202
    8CHTO   H39 3322   6.081  10.314  -0.257  0.2059  0.8738 -1.5515
    8CHTO    O9 3323   6.568  10.265  -0.024  0.2348  0.3276  0.0648
    8CHTO   C13 3324   6.633  10.161  -0.141  0.3066 -0.0470 -0.0408
    8CHTO   H26 3325   6.605  10.206  -0.238  0.4171 -0.8830  1.9348
    8CHTO   C11 3326   6.575  10.013  -0.128  0.2492  0.2610 -0.3858
    8CHTO   H24 3327   6.477  10.014  -0.174 -1.2273 -0.0125  2.6925
    8CHTO    O8 3328   6.550   9.984   0.013 -0.3336 -0.7417 -0.1660
    8CHTO    H3 3329   6.496   9.913   0.028  2.8651 -0.2777 -1.8625
    8CHTO    C9 3330   6.674   9.912  -0.195  0.6651  0.1560  0.5583
    8CHTO   H22 3331   6.691   9.953  -0.294 -0.6964  1.7467 -0.2037
    8CHTO    N2 3332   6.618   9.777  -0.218  0.1243  0.1448  0.1092
    8CHTO   H10 3333   6.685   9.719  -0.280 -0.7406  2.6440  1.6880
    8CHTO   H11 3334   6.523   9.795  -0.268  2.1619  1.7838  1.4736
    8CHTO    C7 3335   6.819   9.925  -0.123  0.2037  0.8080  0.1059
    8CHTO   H20 3336   6.899   9.930  -0.203  1.2549  0.1563  1.6053
    8CHTO    O4 3337   6.830  10.044  -0.050 -0.2740  0.2884  0.1747
    8CHTO   C14 3338   6.796  10.162  -0.123 -0.1485  0.3383 -0.0077
    8CHTO   H27 3339   6.848  10.176  -0.220 -0.0924  0.3282  1.2293
    8CHTO   C18 3340   6.840  10.277  -0.031  0.3779  0.0267 -0.1387
    8CHTO   O13 3341   6.857  10.402  -0.106  0.3877 -0.3940 -0.2184
    8CHTO    H7 3342   6.936  10.400  -0.159  0.6603 -2.5120  1.2633
    8CHTO    O2 3343   6.851   9.804  -0.026 -0.4121 -0.1572 -0.1838
    8CHTO    C1 3344   6.920   9.823   0.099  0.0378  0.9415  0.9748
    8CHTO   H14 3345   6.890   9.920   0.157 -1.1884 -1.3947  0.7670
    8CHTO    C2 3346   7.081   9.840   0.073  0.1237  0.2913  0.2628
    8CHTO   H15 3347   7.101   9.764  -0.006 -2.6350  0.5559 -2.2716
    8CHTO    O6 3348   7.094   9.976   0.013  0.5662  0.0083 -0.2270
    8CHTO    H1 3349   7.183   9.996  -0.001 -1.6139 -2.5424  0.8881
    8CHTO    C3 3350   7.167   9.812   0.210 -0.1994 -0.5514 -0.4483
    8CHTO   H16 3351   7.160   9.889   0.281  0.5883 -0.5297 -3.2616
    8CHTO    N1 3352   7.314   9.804   0.180  0.2959  0.1604 -0.0987
    8CHTO    H8 3353   7.358   9.850   0.089  0.2694  1.1175  0.6742
    8CHTO    H9 3354   7.346   9.700   0.190  0.4876 -3.7432 -1.8116
    8CHTO    C4 3355   7.112   9.687   0.284  0.1587  0.7659 -0.5963
    8CHTO   H17 3356   7.125   9.598   0.228  1.0919 -1.4421 -0.4660
    8CHTO    O1 3357   6.970   9.703   0.310 -0.3386  0.1057  0.6020
    8CHTO    C5 3358   6.890   9.699   0.194  0.1900 -0.0223 -0.1188
    8CHTO   H18 3359   6.912   9.610   0.134  0.4885  1.0661  0.2274
    8CHTO   C16 3360   6.742   9.701   0.244 -0.0688 -0.1178  0.1893
    8CHTO   O11 3361   6.720   9.581   0.323 -0.2132  0.3188 -0.0687
    8CHTO    H5 3362   6.637   9.581   0.366 -2.3159  1.8704  3.8721
    8CHTO    O3 3363   7.178   9.658   0.414  0.3446 -0.7091 -0.7806
    8CHTO    C6 3364   7.177   9.518   0.453 -0.0707  0.5391  0.8003
    8CHTO   H19 3365   7.120   9.449   0.387  1.9096 -2.1069 -1.7952
    8CHTO    C8 3366   7.324   9.470   0.465 -0.0550  0.4108  0.4800
    8CHTO   H21 3367   7.371   9.546   0.523  0.2323  1.1436 -1.5352
    8CHTO    O7 3368   7.374   9.452   0.329  0.1782  0.1989 -0.0571
    8CHTO    H2 3369   7.470   9.449   0.323 -1.1195 -0.9939 -0.5159
    8CHTO   C12 3370   7.341   9.344   0.544  0.2693 -0.0879 -0.2038
    8CHTO   H25 3371   7.286   9.260   0.476  1.5663 -1.0760 -1.0825
    8CHTO    N3 3372   7.483   9.287   0.561  0.4429 -0.5333 -0.6709
    8CHTO   H12 3373   7.491   9.177   0.578 -1.1661  0.8880  0.3754
    8CHTO   H13 3374   7.535   9.343   0.637  1.3735 -2.9183 -0.7368
    8CHTO   C15 3375   7.267   9.352   0.680  0.2330  0.4617 -0.2818
    8CHTO   H28 3376   7.314   9.423   0.751  0.8262  0.0475 -0.5675
    8CHTO   O10 3377   7.246   9.213   0.761 -0.5897  0.1243  0.3431
    8CHTO    H4 3378   7.222   9.138   0.709 -0.1077 -1.7584 -2.2440
    8CHTO    O5 3379   7.129   9.392   0.672 -0.6765 -0.2074 -0.6523
    8CHTO   C10 3380   7.106   9.513   0.595  0.1183 -0.6346  0.0861
    8CHTO   H23 3381   7.153   9.601   0.644  2.3722  0.3648 -0.1326
    8CHTO   C17 3382   6.952   9.524   0.583  0.2977  0.0661 -0.4845
    8CHTO   O12 3383   6.902   9.549   0.716  0.3847 -0.0532 -0.1479
    8CHTO    H6 3384   6.860   9.471   0.741 -0.5019 -1.2482  1.0837
    9CHTO  H203 3385   7.065   5.620   5.971  1.6424  0.3032 -1.3378
    9CHTO   O82 3386   7.114   5.546   6.000  0.7009  0.6710  0.2249
    9CHTO  C123 3387   7.168   5.490   5.881  0.1014  0.7894 -0.6320
    9CHTO  H227 3388   7.274   5.517   5.881 -0.5743 -1.3092 -0.0727
    9CHTO   O77 3389   7.157   5.348   5.915 -0.2247  0.2604 -0.0160
    9CHTO  C118 3390   7.234   5.270   5.829 -0.1134 -0.1822 -0.2085
    9CHTO  H222 3391   7.337   5.313   5.853 -0.8549  0.5940 -0.9081
    9CHTO  C125 3392   7.222   5.127   5.893  1.0734  0.4073 -0.2757
    9CHTO   O84 3393   7.090   5.070   5.913  0.0076  0.0034  0.1015
    9CHTO  H205 3394   7.069   5.094   6.001  1.4398  0.3127  1.4425
    9CHTO  C114 3395   7.187   5.293   5.679  0.3500 -0.2546 -0.3060
    9CHTO  H218 3396   7.104   5.227   5.654  1.2332 -1.7434 -0.8444
    9CHTO  C116 3397   7.162   5.438   5.637 -0.3247  0.7326  0.3777
    9CHTO  H220 3398   7.259   5.482   5.615 -2.0308 -1.8048 -0.6417
    9CHTO   O79 3399   7.087   5.433   5.510  0.1742 -0.1702  0.2702
    9CHTO  H201 3400   7.095   5.510   5.458  0.2856  0.8587  1.8176
    9CHTO  C120 3401   7.085   5.512   5.752 -0.1986  0.1855 -0.9690
    9CHTO  H224 3402   6.992   5.475   5.757  0.3118 -0.6104 -0.0854
    9CHTO   N21 3403   7.058   5.654   5.720 -0.4328 -0.0267 -0.3903
    9CHTO  H211 3404   6.970   5.658   5.666  1.0628  1.1806  0.4769
    9CHTO  H212 3405   7.137   5.705   5.664  0.3896  1.1430  2.2186
    9CHTO   O75 3406   7.297   5.232   5.602  0.4432  0.0465 -0.3221
    9CHTO  C112 3407   7.271   5.109   5.513 -0.2179  0.0708 -0.4529
    9CHTO  H216 3408   7.161   5.115   5.489 -0.2607  0.7515 -2.1463
    9CHTO   O73 3409   7.302   4.994   5.592  0.0950 -0.2080 -0.7415
    9CHTO  C113 3410   7.290   4.870   5.514  0.6596  0.1720  0.0335
    9CHTO  H217 3411   7.190   4.862   5.493  2.3365 -0.1487 -0.8469
    9CHTO  C124 3412   7.319   4.754   5.610 -0.5456 -0.0123 -0.1704
    9CHTO   O83 3413   7.225   4.743   5.721  0.3043 -0.0230  0.2140
    9CHTO  H204 3414   7.275   4.743   5.798  1.6718 -3.1279 -3.5261
    9CHTO  C109 3415   7.384   4.873   5.392  0.3295  0.3004  0.7390
    9CHTO  H213 3416   7.484   4.875   5.432 -1.0502  1.4427  1.7045
    9CHTO  C110 3417   7.348   4.999   5.306 -0.0744 -1.0368  0.8588
    9CHTO  H214 3418   7.247   4.983   5.264  0.8151 -2.1073  3.6128
    9CHTO   O78 3419   7.439   5.005   5.193 -0.2848  0.1705 -0.3639
    9CHTO  H200 3420   7.409   5.066   5.129 -0.4672  0.9739 -0.9607
    9CHTO  C111 3421   7.353   5.129   5.384 -0.5970  0.5573 -0.5792
    9CHTO  H215 3422   7.461   5.157   5.413 -2.4099  2.0497  0.6603
    9CHTO   N19 3423   7.306   5.246   5.302 -0.3083 -0.1037 -0.2616
    9CHTO  H207 3424   7.366   5.330   5.306 -3.4237  0.5480 -2.2883
    9CHTO  H208 3425   7.294   5.218   5.200  1.5159  0.8920  0.1946
    9CHTO   O74 3426   7.364   4.746   5.323 -0.0140 -0.0505  0.5185
    9CHTO  C115 3427   7.475   4.700   5.220 -0.6549  0.0889  0.3634
    9CHTO  H219 3428   7.549   4.779   5.202  1.6242 -1.0367 -0.4102
    9CHTO   O76 3429   7.556   4.584   5.280  0.0714 -0.4634 -0.0338
    9CHTO  C122 3430   7.483   4.456   5.283  0.3919 -0.4913  0.6460
    9CHTO  H226 3431   7.397   4.476   5.350 -0.8706  2.3608  2.7057
    9CHTO  C126 3432   7.565   4.348   5.355  0.3013  0.3876  0.5221
    9CHTO   O85 3433   7.568   4.352   5.495  0.2251 -0.2027 -0.1887
    9CHTO  H206 3434   7.598   4.437   5.529 -0.9638  3.4953  1.0864
    9CHTO  C121 3435   7.454   4.418   5.135 -0.4144  0.1475 -0.8810
    9CHTO  H225 3436   7.545   4.435   5.076 -1.1273 -0.5249  1.1577
    9CHTO   O81 3437   7.390   4.290   5.125 -0.5201 -0.3013 -0.1259
    9CHTO  H202 3438   7.452   4.222   5.155 -0.8778  0.8211  1.4984
    9CHTO  C119 3439   7.345   4.525   5.089  0.3820  0.4898 -0.5341
    9CHTO  H223 3440   7.323   4.497   4.989 -0.0497 -0.4009  3.3504
    9CHTO  C117 3441   7.407   4.671   5.084  0.4681 -0.3118 -0.0327
    9CHTO  H221 3442   7.329   4.740   5.062  0.6144  0.2271  0.2624
    9CHTO   N20 3443   7.505   4.698   4.970 -0.3738  0.2834 -0.4472
    9CHTO  H209 3444   7.576   4.615   4.965 -0.3422 -0.4089  0.4682
    9CHTO  H210 3445   7.453   4.717   4.882 -0.8950  1.9793  0.6096
    9CHTO   O80 3446   7.192   4.513   5.174  0.0826 -0.0363 -0.4688
    9CHTO  C103 3447   7.081   4.609   5.130 -0.3031  0.4359  0.0968
    9CHTO  H190 3448   7.113   4.714   5.136  0.9265  2.2035  1.1707
    9CHTO  C101 3449   7.031   4.589   4.980  0.6155 -0.0310 -0.5904
    9CHTO  H188 3450   6.993   4.489   4.971  1.6678 -0.1450  2.9754
    9CHTO   O68 3451   7.133   4.619   4.884  0.8064  0.4134 -0.2444
    9CHTO  H168 3452   7.152   4.533   4.852  0.1686  0.7575 -0.1250
    9CHTO   C99 3453   6.893   4.685   4.956 -0.2140 -0.0416  0.7101
    9CHTO  H186 3454   6.918   4.794   4.975 -0.8609  3.1159  1.4758
    9CHTO   N17 3455   6.838   4.680   4.816 -0.0401  0.7019  0.2326
    9CHTO  H174 3456   6.928   4.710   4.757  1.8698  0.9527  0.2820
    9CHTO  H175 3457   6.766   4.757   4.794 -2.8179 -0.5474 -2.4073
    9CHTO   C97 3458   6.785   4.647   5.062  0.6715 -0.3613  0.4319
    9CHTO  H184 3459   6.754   4.542   5.038  0.4579  0.2525  1.2471
    9CHTO   O64 3460   6.840   4.657   5.193  0.7429  0.0586 -0.5336
    9CHTO  C104 3461   6.964   4.586   5.229 -0.1052  0.7972  0.0805
    9CHTO  H191 3462   6.944   4.481   5.244 -0.6633 -1.1644 -1.6407
    9CHTO  C108 3463   7.008   4.645   5.368  0.5054 -0.6031  0.0226
    9CHTO   O71 3464   7.117   4.575   5.435 -0.4427 -0.0272 -0.4744
    9CHTO  H171 3465   7.182   4.569   5.379 -2.0168 -1.6565  2.3359
    9CHTO   O62 3466   6.676   4.742   5.063 -0.1057 -0.5006 -0.4113
    9CHTO   C91 3467   6.549   4.685   5.026  0.0890 -0.2621 -0.1975
    9CHTO  H178 3468   6.551   4.623   4.937 -0.2186  0.2110 -2.0190
    9CHTO   C92 3469   6.450   4.796   4.976  0.2446 -0.1339  0.1361
    9CHTO  H179 3470   6.510   4.857   4.900  2.3092 -2.2203 -0.2910
    9CHTO   O66 3471   6.347   4.732   4.907  0.1848  0.1051 -0.1845
    9CHTO  H166 3472   6.286   4.683   4.957 -0.6677  1.2055  0.5423
    9CHTO   C93 3473   6.383   4.867   5.106  0.8348 -0.2508 -1.1261
    9CHTO  H180 3474   6.294   4.921   5.081  0.5280 -3.4353 -0.8266
    9CHTO   N16 3475   6.466   4.975   5.160 -0.1280 -0.5151 -0.1188
    9CHTO  H172 3476   6.502   5.048   5.087  5.1314 -0.3741  0.7313
    9CHTO  H173 3477   6.553   4.932   5.209 -2.1509  0.5481  0.5448
    9CHTO   C94 3478   6.343   4.766   5.217 -0.5511 -0.3452  0.0085
    9CHTO  H181 3479   6.407   4.772   5.307 -1.9163  0.5287 -1.0559
    9CHTO   O61 3480   6.345   4.631   5.166  0.3223 -0.0491 -0.3031
    9CHTO   C95 3481   6.481   4.594   5.138 -0.1633 -1.1665 -0.5657
    9CHTO  H182 3482   6.532   4.586   5.229 -1.4733  1.6983 -2.1434
    9CHTO  C106 3483   6.469   4.449   5.088  0.0050 -0.0456 -0.2048
    9CHTO   O69 3484   6.413   4.371   5.199  0.0122 -0.8471  0.2787
    9CHTO  H169 3485   6.392   4.287   5.160 -5.0447 -2.3962  1.8823
    9CHTO   O63 3486   6.186   4.795   5.257  0.5635 -0.3063  0.7770
    9CHTO   C96 3487   6.153   4.880   5.387  0.1139  0.3761  0.7901
    9CHTO  H183 3488   6.227   4.959   5.392  2.0859  0.7525  0.7536
    9CHTO   C98 3489   6.183   4.797   5.515 -0.6197  0.1021 -0.0850
    9CHTO  H185 3490   6.271   4.734   5.512 -2.0265 -0.6539  1.3686
    9CHTO   O67 3491   6.211   4.893   5.615  0.0366  0.0674  0.0038
    9CHTO  H167 3492   6.298   4.893   5.652 -2.9339 -0.8445  0.5250
    9CHTO  C102 3493   6.059   4.718   5.572 -0.1084  0.2901 -0.5898
    9CHTO  H189 3494   6.081   4.697   5.676 -0.2457 -0.5469  1.3098
    9CHTO   N18 3495   6.030   4.581   5.511 -0.2745 -0.4715 -0.4775
    9CHTO  H176 3496   6.110   4.512   5.522 -1.3304 -0.8196  0.9282
    9CHTO  H177 3497   5.943   4.537   5.570  1.0730  0.1469  0.3694
    9CHTO  C105 3498   5.930   4.809   5.567  0.4037  0.1747  0.2202
    9CHTO  H192 3499   5.845   4.759   5.513 -0.9271  0.5661 -0.8762
    9CHTO   O65 3500   5.951   4.943   5.517  0.0595 -0.2458 -0.3251
    9CHTO  C100 3501   6.012   4.946   5.391 -0.2296 -0.4200 -0.1368
    9CHTO  H187 3502   5.946   4.902   5.319 -0.0912  0.0908 -2.6833
    9CHTO  C107 3503   6.027   5.094   5.338 -0.0845 -0.1426  0.9263
    9CHTO   O70 3504   5.908   5.165   5.345  0.2097 -0.3116 -0.0009
    9CHTO  H170 3505   5.884   5.189   5.256 -0.4307  1.0549 -0.4518
    9CHTO   O57 3506   5.883   4.826   5.735 -0.0035  0.2526  0.4083
    9CHTO   C85 3507   5.753   4.861   5.787  0.0194 -0.4574 -0.2704
    9CHTO  H157 3508   5.702   4.770   5.766 -0.2774 -1.2919 -0.1740
    9CHTO   C83 3509   5.685   4.977   5.702 -0.7385  0.3661 -0.9979
    9CHTO  H155 3510   5.670   4.937   5.603 -2.9751  0.8326  0.8846
    9CHTO   O56 3511   5.783   5.086   5.696  0.4931  0.7198 -0.0156
    9CHTO  H135 3512   5.780   5.127   5.776 -2.7697  0.7126 -0.6823
    9CHTO   C81 3513   5.547   5.016   5.763  0.3615  0.7582  0.1288
    9CHTO  H153 3514   5.485   4.925   5.768  1.4425  0.6673 -1.4640
    9CHTO   N14 3515   5.470   5.107   5.675 -0.3170 -0.8077  0.0276
    9CHTO  H141 3516   5.424   5.181   5.736  2.2986  0.0524 -3.1519
    9CHTO  H142 3517   5.395   5.053   5.620 -1.3220 -2.0577  2.5297
    9CHTO   C79 3518   5.567   5.076   5.907  0.5230 -0.3429  0.4386
    9CHTO  H151 3519   5.466   5.086   5.944  1.6632 -2.6939 -0.5081
    9CHTO   O52 3520   5.614   4.969   5.988 -0.1233 -0.0630 -1.0802
    9CHTO   C86 3521   5.743   4.904   5.942  0.0861 -0.4223  1.0075
    9CHTO  H158 3522   5.823   4.988   5.954  0.3621 -1.0515  2.5856
    9CHTO   C90 3523   5.785   4.798   6.035 -0.1310 -0.4705  0.5560
    9CHTO   O60 3524   5.691   4.695   6.032  0.0185 -0.1300  0.2824
    9CHTO  H138 3525   5.731   4.615   6.039  0.4338  0.7872 -1.6933
    9CHTO   O50 3526   5.645   5.197   5.915 -0.5032  0.8017  0.7700
    9CHTO   C73 3527   5.673   5.320   5.980 -0.0553  0.6712 -0.4887
    9CHTO  H145 3528   5.617   5.334   6.076  1.5402  1.2763 -2.5265
    9CHTO   C74 3529   5.636   5.441   5.889  0.2386  0.3827  0.2908
    9CHTO  H146 3530   5.531   5.422   5.881  1.4119 -0.7726 -0.4781
    9CHTO   O54 3531   5.668   5.558   5.959  0.2854 -0.2990  0.4570
    9CHTO  H133 3532   5.759   5.588   5.944 -0.4244  2.9345 -0.6239
    9CHTO   C75 3533   5.714   5.421   5.752  0.0772  0.4527 -0.0323
    9CHTO  H147 3534   5.696   5.320   5.720 -1.6027 -2.1193  1.5962
    9CHTO   N13 3535   5.685   5.522   5.651 -0.3982  0.3508  0.2220
    9CHTO  H139 3536   5.751   5.502   5.562 -0.2395  1.2158  0.2360
    9CHTO  H140 3537   5.701   5.625   5.694  0.2577  0.4893 -0.4659
    9CHTO   C76 3538   5.873   5.411   5.780  0.1494  0.2570  0.1257
    9CHTO  H148 3539   5.911   5.505   5.806 -0.8682 -0.2633  1.0802
    9CHTO   O49 3540   5.903   5.310   5.889  0.0515  0.0149 -0.5904
    9CHTO   C77 3541   5.826   5.329   6.008  0.0202  0.3297  0.2131
    9CHTO  H149 3542   5.853   5.426   6.058  4.4864 -2.4507  2.1786
    9CHTO   C88 3543   5.860   5.212   6.111 -0.2265 -0.2566  0.3697
    9CHTO   O58 3544   5.990   5.218   6.146  0.2598  0.1342 -0.6069
    9CHTO  H136 3545   6.015   5.193   6.234 -2.1393  0.8184  0.1347
    9CHTO   O51 3546   5.950   5.353   5.653  0.3877 -0.8280 -0.0232
    9CHTO   C78 3547   6.125   5.385   5.669 -0.0272  0.2294  0.0021
    9CHTO  H150 3548   6.142   5.440   5.763 -1.2627  0.7225  3.5433
    9CHTO   C80 3549   6.166   5.474   5.553  0.1017 -0.5634 -0.3255
    9CHTO  H152 3550   6.127   5.420   5.455  0.7280 -3.5185  0.2576
    9CHTO   O55 3551   6.095   5.599   5.569 -0.2323  0.0683  0.4653
    9CHTO  H134 3552   6.122   5.661   5.504 -0.8564  0.7527 -0.7454
    9CHTO   C84 3553   6.325   5.496   5.553  0.6904  0.3003 -0.2153
    9CHTO  H156 3554   6.346   5.561   5.634  0.2471  2.9965  1.7642
    9CHTO   N15 3555   6.355   5.575   5.428  0.1589 -0.2311  0.3687
    9CHTO  H143 3556   6.419   5.652   5.448 -0.6654 -0.3378  1.5365
    9CHTO  H144 3557   6.398   5.510   5.362  1.7605  0.1056  0.8073
    9CHTO   C87 3558   6.400   5.365   5.561 -0.9678  0.2543  0.1471
    9CHTO  H159 3559   6.391   5.298   5.472  2.6159 -3.4371  0.5338
    9CHTO   O53 3560   6.351   5.309   5.686 -0.3148 -0.2370  0.0032
    9CHTO   C82 3561   6.215   5.259   5.669 -0.2152 -0.1137  0.0115
    9CHTO  H154 3562   6.208   5.195   5.583 -0.3299  0.7095  0.3731
    9CHTO   C89 3563   6.185   5.174   5.789 -0.1446  0.2247  0.0647
    9CHTO   O59 3564   6.066   5.094   5.777  0.3145 -0.5631  0.3521
    9CHTO  H137 3565   6.050   5.044   5.857 -1.3745 -0.0810  1.0097
    9CHTO   O45 3566   6.579   5.393   5.561 -0.3045  0.5669  0.0388
    9CHTO   C67 3567   6.648   5.277   5.606 -0.1384 -0.1486 -0.0108
    9CHTO  H124 3568   6.581   5.209   5.652  1.1345  2.3105 -0.4398
    9CHTO   C65 3569   6.709   5.194   5.485  0.0226 -0.9548 -0.9677
    9CHTO  H122 3570   6.717   5.256   5.395 -2.9996  1.4834 -1.1165
    9CHTO   O44 3571   6.603   5.103   5.452 -0.1515  0.2258  0.6332
    9CHTO  H102 3572   6.547   5.151   5.395  0.8137  2.0374  2.2054
    9CHTO   C63 3573   6.848   5.127   5.508  0.5640 -0.0251  0.4195
    9CHTO  H120 3574   6.927   5.202   5.497  1.7631  1.9389  0.0560
    9CHTO   N11 3575   6.891   5.022   5.407 -0.5269 -0.1763  0.1870
    9CHTO  H108 3576   6.874   5.046   5.302 -1.5028  1.5617 -0.2735
    9CHTO  H109 3577   6.841   4.925   5.429 -1.1396  0.9062  0.6506
    9CHTO   C61 3578   6.853   5.079   5.655 -0.1732 -0.9940  0.2954
    9CHTO  H118 3579   6.946   5.034   5.679  0.8212 -1.4902  2.2589
    9CHTO   O40 3580   6.831   5.190   5.757 -0.0641  0.2165 -0.6852
    9CHTO   C68 3581   6.760   5.303   5.711  0.8255  0.4113  0.9904
    9CHTO  H125 3582   6.840   5.373   5.678  0.4448  0.1905  1.5040
    9CHTO   C72 3583   6.701   5.370   5.841 -0.0264 -0.4923  0.0655
    9CHTO   O48 3584   6.640   5.499   5.824  0.0587 -0.3416 -0.6821
    9CHTO  H105 3585   6.577   5.506   5.890  2.9821 -0.6345  0.2502
    9CHTO   O38 3586   6.745   4.985   5.678  0.0668 -0.0780  0.4326
    9CHTO   C55 3587   6.754   4.920   5.805  0.0387  0.0613  0.5213
    9CHTO  H112 3588   6.806   4.987   5.879 -0.3666 -0.1239 -0.3013
    9CHTO   C56 3589   6.831   4.787   5.785 -0.4033  0.1808  0.0974
    9CHTO  H113 3590   6.768   4.728   5.721  1.8667 -2.4677  0.8545
    9CHTO   O42 3591   6.958   4.804   5.718  0.1517  0.2660 -0.0847
    9CHTO  H100 3592   7.028   4.788   5.781 -0.9290 -1.1980 -0.5389
    9CHTO   C57 3593   6.848   4.721   5.934  0.0400  0.1528  0.5321
    9CHTO  H114 3594   6.908   4.795   5.986  0.3395  0.4788 -1.2742
    9CHTO   N10 3595   6.919   4.595   5.934  0.5290 -0.1219 -0.6127
    9CHTO  H106 3596   7.019   4.618   5.962 -2.9832 -0.8537  0.9012
    9CHTO  H107 3597   6.919   4.545   5.844 -1.1299  2.8936 -0.3377
    9CHTO   C58 3598   6.706   4.717   6.004 -0.4882 -0.2507  0.3173
    9CHTO  H115 3599   6.635   4.640   5.955 -1.1408 -0.2382 -0.3634
    9CHTO   O37 3600   6.647   4.847   6.001 -0.2924  0.2463  0.3204
    9CHTO   C59 3601   6.616   4.883   5.867  0.7735  0.1912  0.0012
    9CHTO  H116 3602   6.567   4.809   5.815  0.2788  0.1736 -0.2772
    9CHTO   C70 3603   6.520   5.005   5.871  0.3166 -0.0268 -0.5049
    9CHTO   O46 3604   6.448   5.017   5.752  0.0299 -0.3144 -0.3693
    9CHTO  H103 3605   6.439   5.109   5.735  0.1088  0.7540  1.2956
    9CHTO   O39 3606   6.722   4.678   6.168  0.2536 -0.3317 -0.1558
    9CHTO   C60 3607   6.604   4.656   6.256  0.0065 -0.3453  0.3705
    9CHTO  H117 3608   6.517   4.712   6.215 -1.9740  1.1919 -3.9841
    9CHTO   C62 3609   6.568   4.502   6.263  0.1817 -0.5927 -0.8786
    9CHTO  H119 3610   6.532   4.484   6.164  0.3788  1.1216 -3.7664
    9CHTO   O43 3611   6.693   4.431   6.297  0.1965  0.2695  0.6168
    9CHTO  H101 3612   6.697   4.423   6.390  1.3971 -0.7315 -0.5052
    9CHTO   C66 3613   6.451   4.477   6.367 -0.8358  0.3910 -0.8939
    9CHTO  H123 3614   6.367   4.540   6.339 -0.2705 -0.9657  0.7474
    9CHTO   N12 3615   6.410   4.337   6.366  0.2722 -0.2894 -0.2627
    9CHTO  H110 3616   6.325   4.317   6.428 -0.8764  1.1686  0.8414
    9CHTO  H111 3617   6.376   4.305   6.265 -0.4622 -1.4256 -2.1189
    9CHTO   C69 3618   6.487   4.530   6.511 -0.0252 -0.7040 -0.5926
    9CHTO  H126 3619   6.577   4.478   6.548  1.0164 -0.8607  1.7403
    9CHTO   O41 3620   6.517   4.684   6.494 -0.2013 -0.1401  0.2981
    9CHTO   C64 3621   6.637   4.711   6.399 -0.5556  1.0910 -0.5867
    9CHTO  H121 3622   6.733   4.666   6.445  2.7919  4.2455 -1.8935
    9CHTO   C71 3623   6.653   4.867   6.408  0.1645  0.9460 -0.1086
    9CHTO   O47 3624   6.788   4.914   6.398 -0.1876 -0.5443  0.0624
    9CHTO  H104 3625   6.820   4.902   6.310  2.4626  2.6494  0.1176
    9CHTO   O34 3626   6.365   4.511   6.607 -0.1350 -0.4801  0.3869
    9CHTO   C49 3627   6.322   4.424   6.745 -0.0546  0.4938  0.2208
    9CHTO   H91 3628   6.218   4.392   6.729 -1.8160 -0.3366 -0.5304
    9CHTO   C47 3629   6.338   4.514   6.873 -0.6023 -1.0248  0.0354
    9CHTO   H89 3630   6.297   4.454   6.950  0.1492  0.5949  0.3063
    9CHTO   O33 3631   6.258   4.638   6.862 -0.1724 -0.0338 -0.3860
    9CHTO   H70 3632   6.289   4.702   6.930  0.9965 -0.6440 -0.4012
    9CHTO   C45 3633   6.486   4.544   6.907 -0.1448 -0.6523  0.1001
    9CHTO   H87 3634   6.516   4.636   6.845  2.8236  1.7183 -1.5591
    9CHTO    N8 3635   6.496   4.576   7.050 -0.2203 -0.2108 -0.3601
    9CHTO   H75 3636   6.600   4.588   7.086  1.4613  0.2477 -2.0095
    9CHTO   H76 3637   6.426   4.511   7.111 -0.8551  1.9487  0.9266
    9CHTO   C43 3638   6.587   4.434   6.842  0.9258 -0.2085  0.3424
    9CHTO   H85 3639   6.595   4.468   6.744 -3.6594 -0.5979  1.0110
    9CHTO   O29 3640   6.527   4.307   6.847  0.1729  0.3808  0.4951
    9CHTO   C50 3641   6.406   4.293   6.767 -0.7426 -0.6488 -0.0405
    9CHTO   H92 3642   6.439   4.239   6.674  0.3605  0.2622 -1.1080
    9CHTO   C54 3643   6.326   4.184   6.823 -0.5526  0.2183 -0.0005
    9CHTO   O36 3644   6.386   4.050   6.827  0.7271 -0.1762  0.1474
    9CHTO   H72 3645   6.447   4.041   6.900  0.2478  1.9572  0.3875
    9CHTO   O27 3646   6.722   4.434   6.896 -0.3596 -0.2332 -0.3226
    9CHTO   C37 3647   6.850   4.457   6.824  0.1503 -0.3175 -0.3358
    9CHTO   H79 3648   6.933   4.425   6.898  0.0493  1.2597  0.2733
    9CHTO   C38 3649   6.865   4.353   6.705  0.0960 -0.0738  0.0769
    9CHTO   H80 3650   6.788   4.374   6.632  2.7714  0.2093 -0.1683
    9CHTO   O31 3651   6.849   4.219   6.755 -0.3286  0.2162 -0.4221
    9CHTO   H68 3652   6.870   4.158   6.691  0.4902 -3.0069  0.0485
    9CHTO   C39 3653   6.997   4.372   6.634  0.4243  0.1415 -0.1551
    9CHTO   H81 3654   7.072   4.339   6.698 -1.1784 -1.7311 -1.6794
    9CHTO    N7 3655   7.000   4.294   6.506  0.2319 -0.3983 -0.2381
    9CHTO   H73 3656   7.087   4.226   6.506 -1.4286 -1.8760 -1.3217
    9CHTO   H74 3657   6.991   4.359   6.421  0.4133  0.1771 -1.0175
    9CHTO   C40 3658   7.030   4.524   6.601 -0.2391 -1.0211  0.3865
    9CHTO   H82 3659   6.963   4.567   6.520 -2.4018 -1.8180  1.6861
    9CHTO   O26 3660   7.012   4.592   6.728 -0.3181  0.0089 -0.3832
    9CHTO   C41 3661   6.877   4.596   6.778 -0.7881  0.5747 -0.5181
    9CHTO   H83 3662   6.809   4.617   6.700  1.0040 -1.0154 -0.6072
    9CHTO   C52 3663   6.873   4.701   6.890  0.5399  0.0042  0.0803
    9CHTO   O35 3664   6.911   4.813   6.863 -0.2715  0.1276  0.6156
    9CHTO   H71 3665   6.853   4.877   6.894 -0.9628 -5.1319  0.7737
    9CHTO   O28 3666   7.168   4.558   6.572 -0.3341 -0.4754 -0.0556
    9CHTO   C42 3667   7.210   4.693   6.548  0.2234 -0.7638  0.0731
    9CHTO   H84 3668   7.302   4.682   6.484 -0.3549  0.2435 -1.8930
    9CHTO   C44 3669   7.266   4.764   6.677 -0.3902  0.5968  0.4610
    9CHTO   H86 3670   7.193   4.745   6.760 -1.5090 -0.2488  3.6246
    9CHTO   O32 3671   7.382   4.690   6.731  0.0104 -0.1536  0.5002
    9CHTO   H69 3672   7.354   4.639   6.804 -0.9851  0.7647 -0.8280
    9CHTO   C48 3673   7.300   4.913   6.655 -0.2591 -0.1536  0.4966
    9CHTO   H90 3674   7.385   4.919   6.587 -1.0232 -1.8096  1.0271
    9CHTO    N9 3675   7.347   4.979   6.783  0.4397 -0.1362  0.1833
    9CHTO   H77 3676   7.378   5.078   6.779 -1.6872  0.6044  0.8286
    9CHTO   H78 3677   7.420   4.915   6.823 -0.3282  2.4021  0.2155
    9CHTO   C51 3678   7.167   4.981   6.591  0.1338  0.0057  0.1207
    9CHTO   H93 3679   7.081   4.966   6.653 -1.0490 -1.0510  0.7263
    9CHTO   O30 3680   7.148   4.919   6.462 -0.3429 -0.4685  0.2203
    9CHTO   C46 3681   7.114   4.776   6.461  0.1263  0.5684 -0.1708
    9CHTO   H88 3682   7.015   4.753   6.502  0.4374 -2.1583  3.4312
    9CHTO   C53 3683   7.115   4.713   6.322 -0.4139  0.0178  0.4620
    9CHTO   O72 3684   7.031   4.779   6.229  0.1504 -0.0619  0.4771
    9CHTO  H199 3685   6.992   4.731   6.164  2.0406  1.3510  1.3060
    9CHTO   O22 3686   7.183   5.122   6.561 -0.4733  0.1889  0.0003
    9CHTO   C31 3687   7.075   5.202   6.498 -0.2072 -0.4712  1.1971
    9CHTO   H59 3688   7.113   5.302   6.499  0.6021 -0.1115 -0.3607
    9CHTO   C29 3689   7.046   5.173   6.351 -0.3277  0.2346 -0.4714
    9CHTO   H57 3690   7.015   5.068   6.342  0.6700 -0.2592 -0.2851
    9CHTO   O21 3691   7.169   5.200   6.285  0.2482  0.2713 -0.2379
    9CHTO   H37 3692   7.231   5.129   6.302  0.0739  0.6133  1.7844
    9CHTO   C27 3693   6.932   5.265   6.281 -0.8898 -0.9016  0.1694
    9CHTO   H55 3694   6.972   5.367   6.280  3.5781 -0.1311  0.4877
    9CHTO    N5 3695   6.906   5.228   6.142 -0.1302  0.3829  0.0964
    9CHTO   H43 3696   6.977   5.281   6.080  1.3883 -0.3311 -3.0272
    9CHTO   H44 3697   6.909   5.124   6.118 -0.5669 -0.3361  0.7358
    9CHTO   C25 3698   6.805   5.261   6.374 -0.6684  0.1660 -0.1148
    9CHTO   H53 3699   6.778   5.155   6.370  1.0330 -1.8496 -1.3690
    9CHTO   O17 3700   6.846   5.297   6.508  0.4641  0.1494 -0.0283
    9CHTO   C32 3701   6.933   5.203   6.571 -0.0919 -0.2794  0.7659
    9CHTO   H60 3702   6.889   5.102   6.571 -0.4743  0.9522  0.5561
    9CHTO   C36 3703   6.945   5.246   6.717  0.4414  0.1896  0.0227
    9CHTO   O25 3704   7.019   5.159   6.805  0.1303 -0.1326  0.0547
    9CHTO   H40 3705   7.065   5.209   6.871 -1.9493  0.3826  1.1861
    9CHTO   O15 3706   6.665   5.360   6.329 -0.1482 -0.1593 -0.2175
    9CHTO   C19 3707   6.528   5.315   6.351 -0.6201  0.1855  0.5639
    9CHTO   H47 3708   6.471   5.411   6.341  0.8577 -1.7571  1.0884
    9CHTO   C20 3709   6.483   5.210   6.248 -0.5182 -0.2042 -0.1689
    9CHTO   H48 3710   6.554   5.127   6.244 -1.6032  1.1042  0.3924
    9CHTO   O19 3711   6.485   5.274   6.123 -0.4560 -0.2091  0.1191
    9CHTO   H35 3712   6.559   5.250   6.073 -1.8586  1.4163  0.0737
    9CHTO   C21 3713   6.336   5.157   6.281 -0.1745  0.5696 -0.0352
    9CHTO   H49 3714   6.262   5.234   6.265  0.2639  1.9347 -0.8891
    9CHTO    N4 3715   6.302   5.038   6.190 -0.5112 -0.5858  0.1140
    9CHTO   H41 3716   6.218   4.970   6.215  0.4988 -0.4230 -0.8003
    9CHTO   H42 3717   6.303   5.070   6.087  2.1341 -2.6976  0.1275
    9CHTO   C22 3718   6.329   5.115   6.429 -0.4417 -0.1604 -0.9655
    9CHTO   H50 3719   6.407   5.038   6.450 -0.8337  1.0747 -2.1610
    9CHTO   O14 3720   6.367   5.229   6.506 -0.2111  0.1052  0.5969
    9CHTO   C23 3721   6.503   5.272   6.502 -0.3067  0.1830  0.3238
    9CHTO   H51 3722   6.570   5.195   6.531 -2.9956 -0.2069  0.1803
    9CHTO   C34 3723   6.530   5.388   6.597  0.4270  0.1393  0.2031
    9CHTO   O23 3724   6.538   5.334   6.728  0.2637  1.0757  0.6492
    9CHTO   H38 3725   6.613   5.287   6.755  0.2802 -1.0080  2.2393
    9CHTO   O16 3726   6.192   5.090   6.468 -0.5541  0.3560  0.3926
    9CHTO   C24 3727   6.166   4.921   6.541  0.2457 -0.0563 -0.6786
    9CHTO   H52 3728   6.260   4.875   6.585 -0.9647 -1.6057 -0.6962
    9CHTO   C26 3729   6.099   4.820   6.445  0.2655 -0.0043 -0.0853
    9CHTO   H54 3730   6.009   4.860   6.406  0.3321  1.0711  0.2621
    9CHTO   O20 3731   6.179   4.793   6.331  0.8054 -0.1590 -0.2812
    9CHTO   H36 3732   6.125   4.749   6.271 -1.9880 -0.8421 -1.8933
    9CHTO   C30 3733   6.075   4.685   6.522 -0.1643 -0.0308  0.7960
    9CHTO   H58 3734   6.171   4.641   6.558  0.1789  0.6084  1.3841
    9CHTO    N6 3735   6.021   4.578   6.431 -0.3659  0.2193  0.2715
    9CHTO   H45 3736   6.086   4.576   6.342 -0.8638 -0.1028  2.0551
    9CHTO   H46 3737   5.923   4.618   6.397 -2.7490  2.8506  0.4845
    9CHTO   C33 3738   5.989   4.712   6.645 -0.4524 -0.4122 -0.4481
    9CHTO   H61 3739   5.886   4.744   6.612 -0.9769 -1.3163 -0.9481
    9CHTO   O18 3740   6.044   4.809   6.727  0.4343 -0.2408  0.1082
    9CHTO   C28 3741   6.061   4.932   6.654  0.1626  0.0625  0.1082
    9CHTO   H56 3742   5.969   4.974   6.613  1.1016  0.8355 -2.3327
    9CHTO   C35 3743   6.113   5.038   6.752  0.0091  0.1187  0.0677
    9CHTO   O24 3744   6.028   5.048   6.866 -0.1703  0.3490  0.6033
    9CHTO   H39 3745   6.047   4.976   6.923 -1.8874 -1.0722 -1.4166
    9CHTO    O9 3746   5.967   4.585   6.717 -0.2617 -0.2166 -0.0540
    9CHTO   C13 3747   5.821   4.562   6.780 -0.2302  0.1559  0.1064
    9CHTO   H26 3748   5.755   4.570   6.693  2.8538  0.5164  2.5586
    9CHTO   C11 3749   5.785   4.674   6.892  0.1317 -1.1098 -0.0592
    9CHTO   H24 3750   5.742   4.759   6.837  2.2390  2.1970  1.5443
    9CHTO    O8 3751   5.904   4.712   6.962 -0.4256  0.1472 -0.2948
    9CHTO    H3 3752   5.973   4.737   6.901  2.5214  1.8243 -3.0651
    9CHTO    C9 3753   5.676   4.617   6.985  0.1056  0.2652  0.0123
    9CHTO   H22 3754   5.590   4.579   6.918 -1.4502 -1.9770 -0.3217
    9CHTO    N2 3755   5.613   4.723   7.066  0.0383  0.6031  0.1132
    9CHTO   H10 3756   5.521   4.758   7.023  1.8052 -1.3706  2.3396
    9CHTO   H11 3757   5.678   4.807   7.088  3.3304  0.6168  1.6222
    9CHTO    C7 3758   5.730   4.494   7.066  0.0765 -0.0685 -0.0126
    9CHTO   H20 3759   5.643   4.433   7.092 -0.3366  1.1481 -0.2722
    9CHTO    O4 3760   5.828   4.426   6.984 -0.0003  0.0043 -0.5813
    9CHTO   C14 3761   5.808   4.420   6.841  0.0704 -0.3709  0.9095
    9CHTO   H27 3762   5.710   4.394   6.815 -2.4411 -0.9775  1.0785
    9CHTO   C18 3763   5.903   4.323   6.770  0.3646  0.3432 -0.0551
    9CHTO   O13 3764   5.863   4.300   6.636  0.6182 -0.9284  0.2217
    9CHTO    H7 3765   5.936   4.270   6.583 -0.4352  0.3002 -1.3423
    9CHTO    O2 3766   5.797   4.535   7.198  0.2503 -0.1902  0.2174
    9CHTO    C1 3767   5.880   4.428   7.264 -0.1556  0.9077 -0.0174
    9CHTO   H14 3768   5.896   4.352   7.197 -0.8313  0.1937 -2.8899
    9CHTO    C2 3769   5.810   4.359   7.390 -0.3258 -0.1159  0.1462
    9CHTO   H15 3770   5.799   4.442   7.461 -1.9062 -1.5370 -1.1744
    9CHTO    O6 3771   5.679   4.306   7.353 -0.5272 -0.3116  0.0512
    9CHTO    H1 3772   5.663   4.224   7.391 -0.3626  1.4414 -0.8806
    9CHTO    C3 3773   5.898   4.244   7.453 -0.0380  0.5548  0.9489
    9CHTO   H16 3774   5.917   4.162   7.380  1.5412  1.1917 -0.1883
    9CHTO    N1 3775   5.846   4.176   7.575 -0.4198  0.3356 -0.1013
    9CHTO    H8 3776   5.860   4.072   7.549  2.2853 -1.0804  0.5845
    9CHTO    H9 3777   5.909   4.182   7.665 -0.7885  2.0163  2.6673
    9CHTO    C4 3778   6.037   4.308   7.475 -0.5795 -0.7401  0.9650
    9CHTO   H17 3779   6.025   4.374   7.563 -0.1026  1.0536  0.0153
    9CHTO    O1 3780   6.090   4.385   7.367 -0.0016  0.0267  0.7415
    9CHTO    C5 3781   6.017   4.487   7.304  0.4595  0.3682  0.1924
    9CHTO   H18 3782   5.998   4.568   7.368  1.5793 -0.9374  2.5028
    9CHTO   C16 3783   6.096   4.526   7.175 -0.0876 -0.5576  0.1772
    9CHTO   O11 3784   6.202   4.614   7.227 -0.2513  0.4083 -0.1040
    9CHTO    H5 3785   6.167   4.689   7.264 -1.4565  0.4736 -0.3702
    9CHTO    O3 3786   6.141   4.210   7.503  0.7123  0.0291 -0.1062
    9CHTO    C6 3787   6.245   4.252   7.589 -0.2233 -0.7015 -0.0272
    9CHTO   H19 3788   6.245   4.362   7.611 -0.3452 -0.5571  1.1208
    9CHTO    C8 3789   6.236   4.175   7.723  0.2185  0.6185  0.5470
    9CHTO   H21 3790   6.234   4.067   7.695  0.7487 -2.1164  2.3787
    9CHTO    O7 3791   6.113   4.216   7.790 -0.4672 -0.1645  0.7129
    9CHTO    H2 3792   6.034   4.200   7.743 -0.2495 -0.0301 -2.0377
    9CHTO   C12 3793   6.360   4.204   7.817 -0.4847 -1.2453  0.4472
    9CHTO   H25 3794   6.350   4.310   7.837  1.0677  0.3033  1.3053
    9CHTO    N3 3795   6.358   4.135   7.957  0.0114 -0.5633 -0.3418
    9CHTO   H12 3796   6.257   4.095   7.964  0.1467  1.8158 -2.0783
    9CHTO   H13 3797   6.434   4.053   7.972  0.0406 -0.1643 -0.8754
    9CHTO   C15 3798   6.493   4.182   7.735  0.2876 -0.7775 -0.3507
    9CHTO   H28 3799   6.513   4.076   7.722 -0.1240 -0.5966  2.0849
    9CHTO   O10 3800   6.602   4.250   7.798  0.3929 -0.5839  0.3118
    9CHTO    H4 3801   6.674   4.194   7.808 -0.0946 -3.4714  1.7023
    9CHTO    O5 3802   6.489   4.251   7.605 -0.3854 -0.2506 -0.1483
    9CHTO   C10 3803   6.382   4.216   7.523 -0.0039  0.6583 -0.0265
    9CHTO   H23 3804   6.386   4.106   7.511  2.1461  1.2181 -0.2625
    9CHTO   C17 3805   6.402   4.282   7.392  0.0951 -0.5816  0.0748
    9CHTO   O12 3806   6.339   4.205   7.286  0.8399 -0.2205 -0.2151
    9CHTO    H6 3807   6.402   4.192   7.217 -0.4475 -0.2214 -2.2636
   10CHTO  H203 3808   6.345   7.127   6.612 -1.4354 -1.9276 -0.0108
   10CHTO   O82 3809   6.263   7.083   6.618  0.5842 -0.6467 -0.1336
   10CHTO  C123 3810   6.181   7.127   6.726 -0.5410  0.1546 -0.0722
   10CHTO  H227 3811   6.111   7.202   6.687 -3.9364 -1.3987 -2.5306
   10CHTO   O77 3812   6.107   7.004   6.761  0.7356 -0.0607  0.0397
   10CHTO  C118 3813   6.017   7.009   6.877 -0.8557  0.1150  0.4501
   10CHTO  H222 3814   5.935   7.070   6.842 -1.6608 -1.2083 -0.9488
   10CHTO  C125 3815   5.962   6.862   6.897 -0.1221 -0.1961 -0.1306
   10CHTO   O84 3816   6.069   6.767   6.903 -0.3750  0.0397  0.0193
   10CHTO  H205 3817   6.065   6.731   6.821 -0.8253 -1.3036  2.2752
   10CHTO  C114 3818   6.087   7.065   7.005 -0.0118  0.2250 -0.3785
   10CHTO  H218 3819   6.176   7.001   7.027 -0.1534  0.3634 -1.9481
   10CHTO  C116 3820   6.152   7.195   6.969  1.1324  0.1470  0.0652
   10CHTO  H220 3821   6.081   7.272   6.926 -0.9366 -0.3705 -2.3036
   10CHTO   O79 3822   6.207   7.244   7.093  0.1082  0.0755  0.2366
   10CHTO  H201 3823   6.274   7.184   7.123 -0.6517  2.0376  0.4505
   10CHTO  C120 3824   6.262   7.173   6.853  0.9055 -0.3489 -0.4081
   10CHTO  H224 3825   6.329   7.090   6.885 -1.3155  1.2271 -0.5313
   10CHTO   N21 3826   6.342   7.297   6.840 -0.0284 -0.2928  0.2167
   10CHTO  H211 3827   6.428   7.283   6.909 -1.9939 -0.9655  2.8835
   10CHTO  H212 3828   6.281   7.376   6.874  1.1419  1.0929  3.0833
   10CHTO   O75 3829   5.995   7.067   7.120  0.4010  0.4604  0.1585
   10CHTO  C112 3830   6.056   6.971   7.245 -0.2867  0.0845 -0.0805
   10CHTO  H216 3831   6.159   7.002   7.259  0.4880 -0.6584 -2.1494
   10CHTO   O73 3832   6.050   6.832   7.202  0.1338  0.0872  0.1277
   10CHTO  C113 3833   6.080   6.734   7.299 -0.4372  0.4642 -0.3099
   10CHTO  H217 3834   6.185   6.746   7.330 -0.1803 -1.1332 -1.0725
   10CHTO  C124 3835   6.064   6.595   7.236  0.4280 -0.2005 -0.5180
   10CHTO   O83 3836   5.952   6.572   7.149 -0.2362 -0.0837 -0.0268
   10CHTO  H204 3837   5.951   6.622   7.070 -2.6459  2.0594  2.5125
   10CHTO  C109 3838   5.979   6.749   7.425 -0.4543  0.1519  0.5724
   10CHTO  H213 3839   5.873   6.743   7.389 -0.6201 -0.7197 -2.0990
   10CHTO  C110 3840   6.008   6.889   7.490  0.4179  0.8082  0.0892
   10CHTO  H214 3841   6.112   6.895   7.515  0.3382  2.0710  0.7438
   10CHTO   O78 3842   5.932   6.914   7.614 -0.0017  0.2070 -0.2788
   10CHTO  H200 3843   5.949   6.853   7.683 -0.9466  0.2057  0.5073
   10CHTO  C111 3844   5.978   6.999   7.381 -1.1534  0.5002 -0.2301
   10CHTO  H215 3845   5.870   7.001   7.367  1.3095  0.6219 -0.5365
   10CHTO   N19 3846   6.016   7.135   7.426 -0.2147 -0.1277  0.0950
   10CHTO  H207 3847   5.992   7.209   7.361 -1.7174 -2.3435 -0.3074
   10CHTO  H208 3848   5.954   7.153   7.512 -2.3580  2.0165 -0.8925
   10CHTO   O74 3849   6.001   6.641   7.524  0.4311 -0.1472 -0.2169
   10CHTO  C115 3850   5.847   6.591   7.576  0.5571  0.0188  0.2149
   10CHTO  H219 3851   5.777   6.675   7.587 -1.9841 -1.3042  4.3396
   10CHTO   O76 3852   5.776   6.495   7.475 -0.0731  0.5646  0.2321
   10CHTO  C122 3853   5.655   6.434   7.509 -0.1856  0.8431  0.2973
   10CHTO  H226 3854   5.642   6.353   7.438  0.8917  2.8117  4.6274
   10CHTO  C126 3855   5.536   6.533   7.482 -0.7650 -0.8163 -0.4420
   10CHTO   O85 3856   5.416   6.460   7.495  0.2842 -0.0693  0.4790
   10CHTO  H206 3857   5.381   6.420   7.412 -1.0472 -0.5796 -1.8007
   10CHTO  C121 3858   5.650   6.374   7.647 -0.4566  0.6178 -0.1401
   10CHTO  H225 3859   5.551   6.357   7.675 -0.6007 -1.1650  0.1127
   10CHTO   O81 3860   5.730   6.253   7.648  0.0830  0.4834  0.1141
   10CHTO  H202 3861   5.700   6.202   7.569  1.4144 -3.3603 -2.9321
   10CHTO  C119 3862   5.714   6.472   7.756  0.1563  0.0092 -0.6231
   10CHTO  H223 3863   5.647   6.563   7.762 -2.1693 -4.3851 -1.2227
   10CHTO  C117 3864   5.854   6.530   7.726 -0.0667  1.0650  0.5370
   10CHTO  H221 3865   5.930   6.451   7.717 -0.7007 -1.6120  0.6687
   10CHTO   N20 3866   5.904   6.628   7.828  0.6853  0.1445 -0.2506
   10CHTO  H209 3867   6.004   6.601   7.867 -1.2125  1.6140 -1.4288
   10CHTO  H210 3868   5.834   6.624   7.911  1.4086  1.3894  1.6732
   10CHTO   O80 3869   5.693   6.406   7.898  0.0714  0.1179 -0.2470
   10CHTO  C103 3870   5.567   6.475   8.009 -0.0469  0.2013 -0.2477
   10CHTO  H190 3871   5.589   6.573   8.037 -0.9321  1.1642 -0.5067
   10CHTO  C101 3872   5.422   6.470   7.961 -0.1056  0.0969  0.3083
   10CHTO  H188 3873   5.400   6.376   7.918  2.0934  0.0288  0.5757
   10CHTO   O68 3874   5.405   6.572   7.848 -0.1772  0.0216  0.5173
   10CHTO  H168 3875   5.317   6.601   7.824 -1.2688  0.4197  0.8558
   10CHTO   C99 3876   5.327   6.493   8.093  0.4569 -0.1099  0.5473
   10CHTO  H186 3877   5.348   6.597   8.135  0.8138  2.3344  0.7551
   10CHTO   N17 3878   5.183   6.488   8.053 -0.0747  0.2127 -0.3010
   10CHTO  H174 3879   5.145   6.589   8.024  0.4038  0.4815 -1.3867
   10CHTO  H175 3880   5.131   6.447   8.140 -0.7517 -1.1173  1.4399
   10CHTO   C97 3881   5.358   6.397   8.209  1.2770  0.1096 -0.2007
   10CHTO  H184 3882   5.343   6.298   8.178  0.7963 -0.7695 -0.7725
   10CHTO   O64 3883   5.494   6.423   8.239 -0.0676  0.1869 -0.8039
   10CHTO  C104 3884   5.587   6.390   8.132 -0.0278  0.3153  0.2348
   10CHTO  H191 3885   5.565   6.295   8.099 -0.5840  1.1001 -2.4353
   10CHTO  C108 3886   5.725   6.380   8.185 -0.3127 -0.0785 -0.0596
   10CHTO   O71 3887   5.784   6.494   8.245  0.0347  0.2343  0.1048
   10CHTO  H171 3888   5.878   6.503   8.245  0.3681  0.9529  0.2785
   10CHTO   O62 3889   5.276   6.421   8.326 -0.0030 -0.4559 -0.0386
   10CHTO   C91 3890   5.286   6.325   8.434  0.2368  0.7256  0.0758
   10CHTO  H178 3891   5.339   6.233   8.393  1.4789 -1.4396 -0.2962
   10CHTO   C92 3892   5.141   6.266   8.455  0.0482  0.2311  0.1092
   10CHTO  H179 3893   5.096   6.238   8.358 -1.1819 -0.4567 -0.9123
   10CHTO   O66 3894   5.136   6.140   8.534  0.0462 -0.9405  0.5853
   10CHTO  H166 3895   5.154   6.082   8.465 -0.6114  0.5300 -0.7266
   10CHTO   C93 3896   5.042   6.377   8.524 -0.5230 -0.2789 -0.2860
   10CHTO  H180 3897   4.962   6.315   8.563  2.3392 -1.9212  1.0165
   10CHTO   N16 3898   4.991   6.477   8.435  0.6448 -0.3508 -0.1722
   10CHTO  H172 3899   4.892   6.528   8.464 -2.9650 -1.8003  0.7078
   10CHTO  H173 3900   4.979   6.448   8.336 -3.0255  2.3572  1.5890
   10CHTO   C94 3901   5.113   6.446   8.648 -0.3577  0.6999  0.6005
   10CHTO  H181 3902   5.141   6.546   8.628  0.1624 -2.5562 -1.5507
   10CHTO   O61 3903   5.241   6.390   8.678 -0.7345 -0.4015  0.0803
   10CHTO   C95 3904   5.336   6.380   8.569 -0.0581  0.6313 -0.2211
   10CHTO  H182 3905   5.363   6.487   8.541  0.0191  1.7690 -0.4346
   10CHTO  C106 3906   5.456   6.300   8.630 -0.1984 -0.1126  0.3680
   10CHTO   O69 3907   5.547   6.255   8.529  0.0909  0.1635 -0.1365
   10CHTO  H169 3908   5.595   6.184   8.554 -2.5969  2.9959  2.1179
   10CHTO   O63 3909   5.032   6.422   8.786  0.2237 -0.1724  0.1240
   10CHTO   C96 3910   4.940   6.542   8.831  0.6714  0.2444  0.3375
   10CHTO  H183 3911   4.868   6.551   8.752  1.3587 -2.0264  1.9927
   10CHTO   C98 3912   5.002   6.685   8.841 -0.1343 -0.1030  0.4924
   10CHTO  H185 3913   5.045   6.720   8.744  0.9574  0.7511  2.9544
   10CHTO   O67 3914   4.889   6.781   8.868 -0.0456  1.3693  0.4822
   10CHTO  H167 3915   4.811   6.733   8.885  0.8882 -2.3737  1.1893
   10CHTO  C102 3916   5.105   6.680   8.967  0.6984  0.0046  0.0513
   10CHTO  H189 3917   5.108   6.786   9.006 -3.1563 -1.0821  1.6232
   10CHTO   N18 3918   5.248   6.649   8.933  0.0068  0.4371  0.3951
   10CHTO  H176 3919   5.266   6.637   8.827 -2.3522 -0.1479  2.1329
   10CHTO  H177 3920   5.289   6.562   8.993  0.3062 -0.6340 -1.3484
   10CHTO  C105 3921   5.051   6.591   9.082  0.6659  0.0364  0.3950
   10CHTO  H192 3922   5.091   6.492   9.073  0.2103  2.1685  0.9262
   10CHTO   O65 3923   4.907   6.579   9.077  0.2264  0.1445  0.5843
   10CHTO  C100 3924   4.857   6.508   8.963 -0.8039  0.3213 -0.0413
   10CHTO  H187 3925   4.865   6.398   8.985  0.7288  1.7890 -0.2768
   10CHTO  C107 3926   4.708   6.533   8.971  0.1436  0.1255  0.2665
   10CHTO   O70 3927   4.635   6.467   8.868  0.5027 -0.4929  0.0832
   10CHTO  H170 3928   4.548   6.470   8.889  0.0147  1.3247 -2.1582
   10CHTO   O57 3929   5.106   6.672   9.213 -0.5733 -0.1423  0.5957
   10CHTO   C85 3930   5.069   6.616   9.335  0.2322  0.0541 -0.5074
   10CHTO  H157 3931   4.986   6.542   9.304 -0.2459 -1.3293 -0.0436
   10CHTO   C83 3932   5.001   6.730   9.423 -0.0378  0.4781  0.5197
   10CHTO  H155 3933   4.903   6.757   9.378  0.8878  2.7063 -0.5970
   10CHTO   O56 3934   5.079   6.851   9.407  0.4018 -0.0080  0.1733
   10CHTO  H135 3935   5.025   6.925   9.440 -2.6297  0.4474  0.9865
   10CHTO   C81 3936   4.969   6.676   9.564  0.3670  0.7485  0.0846
   10CHTO  H153 3937   4.917   6.579   9.545  2.5173 -0.2233 -0.9921
   10CHTO   N14 3938   4.880   6.770   9.640  0.6673 -0.2014 -0.7045
   10CHTO  H141 3939   4.849   6.728   9.732 -3.2385  0.9167 -0.8230
   10CHTO  H142 3940   4.787   6.793   9.584 -0.8200  1.1875  1.1932
   10CHTO   C79 3941   5.103   6.635   9.634  0.4464  0.7882 -0.3578
   10CHTO  H151 3942   5.079   6.595   9.733  0.7914 -1.1369  0.3345
   10CHTO   O52 3943   5.168   6.523   9.555 -0.4548 -0.1020  0.0228
   10CHTO   C86 3944   5.189   6.546   9.411 -0.1419 -0.0321 -0.3212
   10CHTO  H158 3945   5.286   6.612   9.406  1.6331 -0.3201  0.6867
   10CHTO   C90 3946   5.229   6.410   9.343  0.4086 -0.3029 -0.3761
   10CHTO   O60 3947   5.122   6.315   9.324  0.1549 -0.7454 -0.0930
   10CHTO  H138 3948   5.148   6.254   9.260 -0.0588 -1.6651 -1.1898
   10CHTO   O50 3949   5.202   6.735   9.650  0.0353 -0.1047 -0.2255
   10CHTO   C73 3950   5.331   6.757   9.709 -1.3588 -0.3774  0.6303
   10CHTO  H145 3951   5.413   6.684   9.674 -0.0715 -1.2880  0.2736
   10CHTO   C74 3952   5.321   6.739   9.863 -0.6670  0.7433  0.9050
   10CHTO  H146 3953   5.306   6.631   9.890  3.3715 -2.2353 -3.0852
   10CHTO   O54 3954   5.449   6.760   9.927 -0.2182  0.2486 -0.2878
   10CHTO  H133 3955   5.466   6.711  10.001 -1.2787  2.7465 -0.0132
   10CHTO   C75 3956   5.214   6.838   9.921 -0.1351 -0.0362 -0.1895
   10CHTO  H147 3957   5.125   6.822   9.868  1.8155  1.5842 -0.4608
   10CHTO   N13 3958   5.192   6.822  10.065 -0.1069  0.0146  0.2695
   10CHTO  H139 3959   5.093   6.875  10.082 -1.2757  0.0634  1.5482
   10CHTO  H140 3960   5.182   6.723  10.085 -3.3823 -2.2059 -0.9655
   10CHTO   C76 3961   5.251   6.995   9.881  0.2487  0.7011  0.2765
   10CHTO  H148 3962   5.337   7.034   9.940 -0.7478 -0.3829  1.1666
   10CHTO   O49 3963   5.269   6.991   9.738 -0.2703 -0.1994  0.3568
   10CHTO   C77 3964   5.369   6.905   9.681 -0.0737  0.7728  0.5042
   10CHTO  H149 3965   5.473   6.919   9.710 -1.4885 -0.0504 -0.5869
   10CHTO   C88 3966   5.364   6.935   9.528 -0.1689 -0.8895 -0.6477
   10CHTO   O58 3967   5.476   6.886   9.438  0.0984  0.5257  0.4309
   10CHTO  H136 3968   5.500   6.954   9.375  1.8845 -1.4177  0.0098
   10CHTO   O51 3969   5.125   7.089   9.915  0.6327  0.0313  0.1380
   10CHTO   C78 3970   5.166   7.222   9.987  0.2563 -0.0237  0.5755
   10CHTO  H150 3971   5.270   7.248   9.964 -1.2565 -0.2633 -1.4894
   10CHTO   C80 3972   5.153   7.206  10.136 -0.0910 -0.7414  0.0949
   10CHTO  H152 3973   5.063   7.151  10.155  2.3488 -1.4167 -0.6095
   10CHTO   O55 3974   5.261   7.120  10.190  0.5612 -0.5090 -0.1213
   10CHTO  H134 3975   5.336   7.171  10.226 -0.5307  2.5655  1.0631
   10CHTO   C84 3976   5.157   7.345  10.224  0.1130 -0.2380 -0.2774
   10CHTO  H156 3977   5.263   7.369  10.238 -1.8648  0.5114  0.4542
   10CHTO   N15 3978   5.105   7.321  10.361  0.1807  0.2451  0.1591
   10CHTO  H143 3979   5.064   7.219  10.382  0.4405  0.4686 -2.0470
   10CHTO  H144 3980   5.172   7.352  10.434 -0.5224  0.7364 -0.4607
   10CHTO   C87 3981   5.070   7.454  10.149 -0.6657  0.1961  0.2662
   10CHTO  H159 3982   4.966   7.444  10.169  0.7208  2.8793 -3.0510
   10CHTO   O53 3983   5.102   7.452   9.993  0.0397 -0.4855  0.4449
   10CHTO   C82 3984   5.069   7.326   9.934  0.3222 -0.3208  0.2688
   10CHTO  H154 3985   4.964   7.304   9.957 -1.8810 -1.9547  0.2936
   10CHTO   C89 3986   5.077   7.360   9.786 -0.2754  0.2762  0.3729
   10CHTO   O59 3987   5.212   7.398   9.749 -0.3260  0.0336 -0.0484
   10CHTO  H137 3988   5.275   7.331   9.755 -0.6328  0.2171 -0.9785
   10CHTO   O45 3989   5.118   7.591  10.199 -0.1953  0.2725  0.1172
   10CHTO   C67 3990   5.010   7.687  10.219  0.0768  0.1838  0.7384
   10CHTO  H124 3991   4.919   7.668  10.162  1.2538 -1.4045  0.7789
   10CHTO   C65 3992   4.970   7.692  10.370 -0.2669 -0.4340  0.2901
   10CHTO  H122 3993   4.950   7.593  10.403 -1.4770 -2.6077  0.5781
   10CHTO   O44 3994   4.847   7.769  10.386 -0.0729 -0.3019 -0.2421
   10CHTO  H102 3995   4.786   7.763  10.313 -0.0801 -1.5258 -0.8552
   10CHTO   C63 3996   5.091   7.738  10.454  0.2286 -0.8621  0.5231
   10CHTO  H120 3997   5.181   7.675  10.433  1.4026 -0.8127 -1.7326
   10CHTO   N11 3998   5.079   7.731  10.603  0.2206 -0.4399  0.0455
   10CHTO  H108 3999   5.053   7.633  10.630  1.8779  0.7181 -0.8638
   10CHTO  H109 4000   4.989   7.786  10.629 -1.2231  0.8074 -0.3459
   10CHTO   C61 4001   5.136   7.878  10.411  0.3952 -0.4400 -0.8494
   10CHTO  H118 4002   5.235   7.887  10.467 -1.1724  1.2060  1.2263
   10CHTO   O40 4003   5.160   7.885  10.265  0.3066  0.2588 -0.5461
   10CHTO   C68 4004   5.060   7.832  10.170 -1.1909  0.4997  0.4502
   10CHTO  H125 4005   5.110   7.814  10.077  1.2272 -0.7492 -1.6645
   10CHTO   C72 4006   4.956   7.937  10.142 -0.3194  0.0397 -0.1171
   10CHTO   O48 4007   4.851   7.897  10.058 -0.0008  0.1373 -0.0613
   10CHTO  H105 4008   4.879   7.888   9.970 -2.7513 -2.2027  0.5666
   10CHTO   O38 4009   5.050   7.992  10.447 -0.3267  0.2699  0.2462
   10CHTO   C55 4010   5.111   8.117  10.499  0.7543  0.1525  0.2405
   10CHTO  H112 4011   5.205   8.133  10.447 -1.9828 -0.5310 -0.3624
   10CHTO   C56 4012   5.128   8.120  10.661  0.7391 -0.8320  0.0202
   10CHTO  H113 4013   5.026   8.091  10.699 -1.8114  1.6950  3.2369
   10CHTO   O42 4014   5.224   8.020  10.695 -0.3777 -0.1862 -0.2906
   10CHTO  H100 4015   5.286   8.054  10.752 -0.8706 -0.7993 -2.4640
   10CHTO   C57 4016   5.164   8.268  10.710  0.4908  0.4646 -0.0189
   10CHTO  H114 4017   5.273   8.274  10.682  0.3201  0.8553 -1.9898
   10CHTO   N10 4018   5.153   8.297  10.858 -0.1134  0.4915  0.2825
   10CHTO  H106 4019   5.181   8.212  10.914 -0.8665  0.7755  1.0670
   10CHTO  H107 4020   5.056   8.336  10.888  1.5094  0.0960 -0.2885
   10CHTO   C58 4021   5.088   8.380  10.626  0.1143  0.4048  0.2230
   10CHTO  H115 4022   4.983   8.399  10.660  3.1658 -0.3306 -0.0395
   10CHTO   O37 4023   5.081   8.364  10.485 -0.3688 -0.3355  0.1417
   10CHTO   C59 4024   5.024   8.240  10.446  0.5070 -0.2086 -0.0981
   10CHTO  H116 4025   4.919   8.226  10.488 -3.2032 -2.3332 -3.6001
   10CHTO   C70 4026   5.013   8.243  10.292 -0.3079  0.1963  0.3801
   10CHTO   O46 4027   4.938   8.353  10.242  0.4840  0.0060  0.0443
   10CHTO  H103 4028   4.849   8.333  10.215  1.5322  1.4002 -2.0428
   10CHTO   O39 4029   5.180   8.524  10.638 -0.4097 -0.3168 -0.3546
   10CHTO   C60 4030   5.100   8.642  10.634 -0.0125  0.2575 -0.6236
   10CHTO  H117 4031   5.010   8.627  10.564 -2.8609 -2.1630  0.4713
   10CHTO   C62 4032   5.039   8.666  10.779  0.0562  0.1146  0.1444
   10CHTO  H119 4033   4.975   8.579  10.795  1.1022 -2.5368  1.3191
   10CHTO   O43 4034   5.144   8.673  10.875 -0.4613 -0.0558 -0.0112
   10CHTO  H101 4035   5.205   8.597  10.875 -0.5188 -2.6227 -0.0842
   10CHTO   C66 4036   4.951   8.793  10.777  0.3252  0.3097 -0.1931
   10CHTO  H123 4037   4.885   8.789  10.694 -1.2865  0.8623  0.6256
   10CHTO   N12 4038   4.868   8.807  10.898 -0.7300 -0.0626 -0.2667
   10CHTO  H110 4039   4.941   8.804  10.984  1.1546 -1.9398 -1.8104
   10CHTO  H111 4040   4.797   8.721  10.905 -0.7419 -3.4127 -0.4601
   10CHTO   C69 4041   5.045   8.918  10.748  0.4639 -0.1475  0.9566
   10CHTO  H126 4042   5.127   8.922  10.814  1.8800 -0.1079 -0.2201
   10CHTO   O41 4043   5.092   8.902  10.614 -0.0905  0.3257  0.1283
   10CHTO   C64 4044   5.179   8.770  10.589 -0.0736  0.2329  0.2044
   10CHTO  H121 4045   5.279   8.763  10.651 -0.7168 -0.6609 -0.5427
   10CHTO   C71 4046   5.199   8.769  10.435 -0.3156 -0.2244 -0.3498
   10CHTO   O47 4047   5.318   8.832  10.391  0.2804  0.0842 -0.0697
   10CHTO  H104 4048   5.365   8.787  10.325  1.6414  3.5722  1.5592
   10CHTO   O34 4049   4.956   9.047  10.752  0.3985  0.3465 -0.3325
   10CHTO   C49 4050   4.929   9.192  10.818 -0.1618 -0.0575  0.9703
   10CHTO   H91 4051   4.857   9.252  10.758 -2.0111  0.7596  0.7599
   10CHTO   C47 4052   5.058   9.270  10.827  0.0818  0.0888 -0.1582
   10CHTO   H89 4053   5.025   9.370  10.850  1.4327  1.3626  0.2495
   10CHTO   O33 4054   5.118   9.269  10.696  0.2813 -0.1979 -0.5834
   10CHTO   H70 4055   5.103   9.348  10.645 -0.0560 -0.1243  0.2322
   10CHTO   C45 4056   5.159   9.226  10.943  0.3649  0.1357  0.3280
   10CHTO   H87 4057   5.198   9.123  10.917 -1.0491 -1.3751 -2.7030
   10CHTO    N8 4058   5.271   9.324  10.954 -0.0755  0.1753  0.1770
   10CHTO   H75 4059   5.324   9.337  11.045 -0.7585  1.6069 -1.1902
   10CHTO   H76 4060   5.334   9.317  10.867  1.3023  0.0894 -0.0340
   10CHTO   C43 4061   5.076   9.195  11.070 -0.2090 -0.2850  0.3132
   10CHTO   H85 4062   5.146   9.143  11.132  2.3697 -2.5767 -1.3151
   10CHTO   O29 4063   4.954   9.119  11.045 -0.6480  0.1489 -0.3051
   10CHTO   C50 4064   4.859   9.169  10.950 -0.0439  0.1530 -1.2982
   10CHTO   H92 4065   4.779   9.094  10.944  0.9884  1.5558  0.0656
   10CHTO   C54 4066   4.785   9.292  10.998 -0.1769 -0.1507 -0.2256
   10CHTO   O36 4067   4.688   9.344  10.908  0.1732  0.1456 -0.4836
   10CHTO   H72 4068   4.726   9.353  10.825  0.8491 -2.3635  1.3614
   10CHTO   O27 4069   5.039   9.303  11.152 -0.5479 -0.4886  0.8011
   10CHTO   C37 4070   4.985   9.385  11.258  0.3990  0.1005  0.5779
   10CHTO   H79 4071   4.878   9.414  11.228 -1.8845  0.1619 -2.6212
   10CHTO   C38 4072   4.981   9.314  11.393  0.3830  0.2990 -0.1073
   10CHTO   H80 4073   5.084   9.278  11.418  0.8568  0.0212  0.1089
   10CHTO   O31 4074   4.894   9.196  11.388  0.0706 -0.2971  0.6336
   10CHTO   H68 4075   4.812   9.222  11.360 -1.8162  1.2552  3.0141
   10CHTO   C39 4076   4.932   9.415  11.500  0.1069 -0.0472 -0.5653
   10CHTO   H81 4077   4.836   9.453  11.462 -0.3739 -0.7744 -1.9697
   10CHTO    N7 4078   4.918   9.344  11.636  0.0890 -0.1505 -0.0231
   10CHTO   H73 4079   4.916   9.425  11.708 -0.4886  1.4830  0.0867
   10CHTO   H74 4080   4.982   9.264  11.669 -1.8207  3.3492  2.5366
   10CHTO   C40 4081   5.034   9.536  11.509  0.8857 -0.8138  0.1428
   10CHTO   H82 4082   5.127   9.492  11.547  0.3004 -0.5435  1.1301
   10CHTO   O26 4083   5.053   9.599  11.376 -0.0847  0.2208  0.1126
   10CHTO   C41 4084   5.080   9.511  11.268  0.1405 -0.6450  0.4447
   10CHTO   H83 4085   5.187   9.485  11.278  1.0807  2.3835 -1.6279
   10CHTO   C52 4086   5.076   9.595  11.137 -0.1704 -0.4233 -0.2973
   10CHTO   O35 4087   5.201   9.667  11.112  0.1337 -0.9145  0.0438
   10CHTO   H71 4088   5.278   9.617  11.129  1.5738  0.9699  1.4020
   10CHTO   O28 4089   4.980   9.634  11.598 -0.9357  0.5521 -0.3679
   10CHTO   C42 4090   5.069   9.727  11.675 -0.2622  0.2772  0.7904
   10CHTO   H84 4091   5.157   9.745  11.612  0.9111  3.4165  2.4548
   10CHTO   C44 4092   5.130   9.676  11.812 -1.0166  0.0463  0.3787
   10CHTO   H86 4093   5.046   9.657  11.884  0.9652 -0.5112  2.1741
   10CHTO   O32 4094   5.206   9.554  11.791  0.0074 -0.3470  0.0961
   10CHTO   H69 4095   5.162   9.471  11.801  0.7678 -1.4520 -0.6671
   10CHTO   C48 4096   5.223   9.782  11.887 -0.8600 -0.9141 -0.6831
   10CHTO   H90 4097   5.322   9.797  11.845 -0.4926  2.9270 -1.9391
   10CHTO    N9 4098   5.241   9.730  12.031 -0.3042  0.4448  0.1488
   10CHTO   H77 4099   5.284   9.814  12.084 -1.0039  0.0438  0.6757
   10CHTO   H78 4100   5.141   9.706  12.070  1.4568  0.7725  4.0444
   10CHTO   C51 4101   5.153   9.922  11.876  0.4111  1.0412 -0.3110
   10CHTO   H93 4102   5.058   9.921  11.938 -2.3245 -1.5932 -1.9158
   10CHTO   O30 4103   5.127   9.956  11.743  0.0016 -0.5982  0.4775
   10CHTO   C46 4104   5.005   9.868  11.697  0.5083  0.0354 -0.5703
   10CHTO   H88 4105   4.918   9.867  11.772  0.8857  0.4885  2.7810
   10CHTO   C53 4106   4.941   9.921  11.557 -0.3923 -0.1645 -0.8068
   10CHTO   O72 4107   4.824   9.854  11.511 -0.6283  0.0032 -0.2454
   10CHTO  H199 4108   4.789   9.806  11.579  3.5280  1.7504 -1.0702
   10CHTO   O22 4109   5.238  10.026  11.925  0.0622  0.6595 -0.0298
   10CHTO   C31 4110   5.181  10.140  12.005 -0.7748  0.2090 -0.2496
   10CHTO   H59 4111   5.074  10.141  11.977  0.2578 -1.2165 -1.0618
   10CHTO   C29 4112   5.187  10.115  12.156  0.1456 -0.0563 -0.0944
   10CHTO   H57 4113   5.286  10.105  12.195  3.6920  1.3476  0.8170
   10CHTO   O21 4114   5.105   9.999  12.189 -0.0693 -0.5220  0.2138
   10CHTO   H37 4115   5.113   9.983  12.282  1.8695 -0.3616  0.8756
   10CHTO   C27 4116   5.114  10.239  12.232 -0.3221 -0.4195 -0.4169
   10CHTO   H55 4117   5.010  10.245  12.196 -0.2570 -0.9353 -0.4511
   10CHTO    N5 4118   5.118  10.237  12.379 -0.3797  0.9372 -0.3533
   10CHTO   H43 4119   5.054  10.314  12.414 -1.6134  0.6156 -1.8643
   10CHTO   H44 4120   5.085  10.143  12.409 -0.0671  3.8137 -1.8499
   10CHTO   C25 4121   5.177  10.374  12.191  0.5119 -0.3789  1.1588
   10CHTO   H53 4122   5.279  10.397  12.222 -0.0416 -1.3247 -0.0978
   10CHTO   O17 4123   5.189  10.393  12.049  0.1287  0.3201 -0.9981
   10CHTO   C32 4124   5.236  10.283  11.967 -0.5124 -0.0889 -0.8650
   10CHTO   H60 4125   5.349  10.280  11.984 -0.3818 -1.7229 -0.7950
   10CHTO   C36 4126   5.216  10.316  11.819  0.2586  0.2480 -0.5078
   10CHTO   O25 4127   5.305  10.424  11.771 -0.3546  0.0192  0.0319
   10CHTO   H40 4128   5.394  10.400  11.793  2.7764 -0.5470  0.5488
   10CHTO   O15 4129   5.093  10.504  12.256  0.1283 -0.1414  0.2525
   10CHTO   C19 4130   5.105  10.608  12.359 -0.4115  0.0095 -0.0549
   10CHTO   H47 4131   5.156  10.563  12.444 -0.8293 -2.7055 -1.4156
   10CHTO   C20 4132   5.190  10.731  12.310  0.1775  0.5909 -0.1705
   10CHTO   H48 4133   5.142  10.776  12.216 -2.7407  0.4555  1.2482
   10CHTO   O19 4134   5.320  10.676  12.277  0.2698  0.5057 -0.4730
   10CHTO   H35 4135   5.377  10.740  12.234  1.5744 -1.3393 -0.9819
   10CHTO   C21 4136   5.192  10.838  12.419  0.1502 -0.2356  0.0899
   10CHTO   H49 4137   5.247  10.798  12.498  1.4495  0.2401  0.8888
   10CHTO    N4 4138   5.274  10.957  12.380 -0.3643 -0.4823  0.8737
   10CHTO   H41 4139   5.195  11.035  12.358 -0.0283  4.0312 -2.3387
   10CHTO   H42 4140   5.330  10.943  12.290  2.0856 -0.0220 -1.4567
   10CHTO   C22 4141   5.050  10.876  12.464  0.3522  0.6932  0.4339
   10CHTO   H50 4142   4.986  10.911  12.382 -0.7400  0.0253 -1.6697
   10CHTO   O14 4143   4.987  10.759  12.516  0.0628 -0.0739  0.2223
   10CHTO   C23 4144   4.964  10.657  12.415  0.0028 -0.3430 -0.0267
   10CHTO   H51 4145   4.905  10.706  12.339  1.0151 -0.9276  2.5184
   10CHTO   C34 4146   4.875  10.555  12.478  0.3192  0.5540 -0.2625
   10CHTO   O23 4147   4.932  10.487  12.589  0.1896 -1.0231 -0.1289
   10CHTO   H38 4148   4.913  10.545  12.665 -2.0939  0.3215 -0.1435
   10CHTO   O16 4149   5.045  10.972  12.571  0.2752 -0.2454 -0.1318
   10CHTO   C24 4150   4.943  11.097  12.562 -0.1807  0.3172  0.2376
   10CHTO   H52 4151   4.899  11.108  12.461 -0.0276 -1.9859  3.5874
   10CHTO   C26 4152   5.022  11.219  12.599 -0.0269 -0.2246 -0.1215
   10CHTO   H54 4153   5.089  11.201  12.687  0.2255  1.3538 -1.2723
   10CHTO   O20 4154   5.104  11.254  12.488 -0.8923  0.4339 -0.0480
   10CHTO   H36 4155   5.147  11.339  12.505  1.1181  2.7307 -2.6330
   10CHTO   C30 4156   4.946  11.350  12.640 -0.8449 -0.6457 -0.4886
   10CHTO   H58 4157   4.905  11.386  12.539 -1.1332 -2.5080  0.1395
   10CHTO    N6 4158   5.028  11.467  12.690 -0.2339 -0.2335  0.5502
   10CHTO   H45 4159   5.084  11.454  12.785  4.1058  1.3788  2.0301
   10CHTO   H46 4160   4.961  11.555  12.704 -0.4396 -1.0126 -1.8376
   10CHTO   C33 4161   4.825  11.308  12.729  0.6620 -0.5277  0.2317
   10CHTO   H61 4162   4.860  11.268  12.826 -2.2100  2.0339 -1.4429
   10CHTO   O18 4163   4.746  11.198  12.673  0.1260 -0.6651  0.1340
   10CHTO   C28 4164   4.817  11.069  12.657  0.3021 -0.3878  1.5381
   10CHTO   H56 4165   4.846  11.019  12.750 -0.1376 -3.6882 -0.3801
   10CHTO   C35 4166   4.713  10.971  12.586 -0.7375 -0.8449 -0.3649
   10CHTO   O24 4167   4.726  10.830  12.580 -0.0046  0.7496 -0.5669
   10CHTO   H39 4168   4.761  10.804  12.504  0.2082  2.1614  1.5942
   10CHTO    O9 4169   4.746  11.426  12.764 -0.3918 -0.2988  0.7186
   10CHTO   C13 4170   4.638  11.385  12.885  0.2317  0.6953  0.5659
   10CHTO   H26 4171   4.575  11.294  12.859 -0.7019 -0.5550  0.5808
   10CHTO   C11 4172   4.549  11.513  12.920 -0.5170 -0.7083 -0.1593
   10CHTO   H24 4173   4.480  11.534  12.836 -1.2748  1.3517  0.4826
   10CHTO    O8 4174   4.638  11.626  12.927  1.4125 -0.1156  0.2877
   10CHTO    H3 4175   4.608  11.707  12.882  2.2581 -0.0464 -0.3098
   10CHTO    C9 4176   4.454  11.491  13.040  0.8289 -0.8768 -0.3287
   10CHTO   H22 4177   4.382  11.413  13.015 -1.0447  1.1641  0.8003
   10CHTO    N2 4178   4.362  11.607  13.076 -0.4415 -0.1484  0.2839
   10CHTO   H10 4179   4.282  11.581  13.142 -1.1995  2.0314 -1.0571
   10CHTO   H11 4180   4.324  11.655  12.983 -0.6001 -0.9585  0.4813
   10CHTO    C7 4181   4.532  11.441  13.168  0.3736  0.2328  0.2537
   10CHTO   H20 4182   4.456  11.404  13.232 -5.0604  1.1252  0.9201
   10CHTO    O4 4183   4.623  11.340  13.131 -0.4813 -0.1958  0.3562
   10CHTO   C14 4184   4.712  11.337  13.018  0.6946 -0.8313 -0.6267
   10CHTO   H27 4185   4.744  11.230  13.006 -0.8156  0.6730 -0.1659
   10CHTO   C18 4186   4.846  11.421  13.050 -0.2313 -0.3450  0.2125
   10CHTO   O13 4187   4.917  11.371  13.164  0.2245  0.6034 -0.0737
   10CHTO    H7 4188   4.992  11.419  13.177 -1.7923 -2.0673 -3.7576
   10CHTO    O2 4189   4.616  11.573  13.267  0.1340  0.1582  0.0341
   10CHTO    C1 4190   4.623  11.552  13.406 -0.3533  0.6062  0.3242
   10CHTO   H14 4191   4.690  11.636  13.436  1.1006  0.3850 -1.5045
   10CHTO    C2 4192   4.679  11.415  13.461 -0.8535 -0.2751  0.4368
   10CHTO   H15 4193   4.622  11.339  13.410 -1.2615  2.7042 -2.7672
   10CHTO    O6 4194   4.818  11.408  13.430 -0.0189  0.2867 -0.1145
   10CHTO    H1 4195   4.867  11.485  13.464  1.0305 -2.1964 -0.0101
   10CHTO    C3 4196   4.647  11.394  13.617 -0.2179  0.5335  0.0526
   10CHTO   H16 4197   4.714  11.466  13.663  2.1993 -1.7082  1.5907
   10CHTO    N1 4198   4.691  11.263  13.661  0.2559  0.3944  0.7373
   10CHTO    H8 4199   4.753  11.272  13.752 -1.8481  2.4778  2.2522
   10CHTO    H9 4200   4.729  11.198  13.583  2.8188 -2.3769 -3.5314
   10CHTO    C4 4201   4.503  11.442  13.660  0.2441  0.3060  0.0694
   10CHTO   H17 4202   4.436  11.374  13.615  1.0352 -0.8360  0.6634
   10CHTO    O1 4203   4.491  11.575  13.614 -0.1155  0.2968  0.1847
   10CHTO    C5 4204   4.484  11.588  13.465  0.4981  0.1730  0.2896
   10CHTO   H18 4205   4.410  11.520  13.432 -0.4273  0.4008 -0.5644
   10CHTO   C16 4206   4.440  11.729  13.424  0.0257  0.5956  0.3859
   10CHTO   O11 4207   4.294  11.735  13.419  0.0105 -0.5919 -0.4615
   10CHTO    H5 4208   4.270  11.816  13.463 -1.2059  0.1828 -0.6671
   10CHTO    O3 4209   4.486  11.458  13.799 -0.1345 -0.1555  0.0435
   10CHTO    C6 4210   4.357  11.418  13.856  0.0934 -0.3049  0.3902
   10CHTO   H19 4211   4.356  11.448  13.958  0.4801 -1.7830 -0.1014
   10CHTO    C8 4212   4.241  11.490  13.781  0.1009  0.5558 -0.0652
   10CHTO   H21 4213   4.237  11.463  13.675  0.2005  0.9618 -0.0421
   10CHTO    O7 4214   4.274  11.631  13.781 -0.4158  0.8577  0.3598
   10CHTO    H2 4215   4.193  11.677  13.790  0.6145  0.7382 -1.3883
   10CHTO   C12 4216   4.099  11.460  13.839 -0.0630  0.5357 -0.8885
   10CHTO   H25 4217   4.098  11.502  13.943  0.1428  0.3681 -1.3013
   10CHTO    N3 4218   3.988  11.536  13.764 -0.9246  0.2819  0.2158
   10CHTO   H12 4219   3.890  11.538  13.813  0.7831  0.3079 -1.0150
   10CHTO   H13 4220   3.978  11.500  13.656 -4.8322 -0.9742 -0.7686
   10CHTO   C15 4221   4.078  11.305  13.854 -0.6900 -0.0816  0.1646
   10CHTO   H28 4222   4.054  11.254  13.761 -3.4499 -2.4400  0.5857
   10CHTO   O10 4223   3.969  11.279  13.959  0.8238  0.0108 -0.9735
   10CHTO    H4 4224   4.004  11.303  14.042  0.8165 -0.3932 -0.7001
   10CHTO    O5 4225   4.194  11.245  13.914 -0.2713  0.1569  0.1689
   10CHTO   C10 4226   4.322  11.268  13.849  0.5523 -0.3871 -0.0696
   10CHTO   H23 4227   4.308  11.232  13.746  3.0135  1.6142 -3.1053
   10CHTO   C17 4228   4.426  11.188  13.928  0.1203 -0.0388 -0.0036
   10CHTO   O12 4229   4.427  11.048  13.910  0.3468 -0.3642  0.0674
   10CHTO    H6 4230   4.468  11.025  13.829  0.4457 -0.3097  1.1826
   11CHTO  H203 4231   7.125   6.147   4.107 -0.8040 -2.5093  1.5949
   11CHTO   O82 4232   7.073   6.110   4.038  0.3303  0.3776 -0.6041
   11CHTO  C123 4233   7.093   6.182   3.920 -0.6246  0.0353  0.0890
   11CHTO  H227 4234   7.190   6.231   3.919  1.0287  1.3033 -0.1916
   11CHTO   O77 4235   7.096   6.082   3.820  0.1466  0.2565  0.2617
   11CHTO  C118 4236   7.142   6.133   3.694  0.3373 -0.1613  0.1880
   11CHTO  H222 4237   7.233   6.182   3.714 -0.8907 -1.3151 -1.7095
   11CHTO  C125 4238   7.170   6.011   3.609 -0.0168  0.6767 -0.1983
   11CHTO   O84 4239   7.265   5.924   3.673  0.0622 -0.4474  0.1409
   11CHTO  H205 4240   7.319   5.966   3.734 -1.0970  2.9175 -1.3088
   11CHTO  C114 4241   7.039   6.229   3.639 -0.1426  0.1734  0.2259
   11CHTO  H218 4242   6.942   6.174   3.638  1.0192  0.8753 -0.1453
   11CHTO  C116 4243   7.005   6.355   3.736 -0.5127  1.2219  0.1825
   11CHTO  H220 4244   7.091   6.421   3.734 -0.4608  2.9572 -1.2763
   11CHTO   O79 4245   6.897   6.432   3.683  0.0336 -0.1934 -0.1312
   11CHTO  H201 4246   6.895   6.517   3.718  2.2532 -0.2993 -1.5742
   11CHTO  C120 4247   6.982   6.288   3.883  0.2728 -0.3996  0.5560
   11CHTO  H224 4248   6.886   6.235   3.883  0.0640  1.9261 -1.1246
   11CHTO   N21 4249   6.956   6.386   3.996 -0.4913 -0.0854  0.4252
   11CHTO  H211 4250   6.911   6.471   3.957  0.9193  0.0667  0.1371
   11CHTO  H212 4251   6.880   6.346   4.063  2.7773 -0.8229  0.0970
   11CHTO   O75 4252   7.079   6.248   3.503  0.7701 -0.6629  0.3196
   11CHTO  C112 4253   6.966   6.316   3.413  0.6864 -0.6033  0.1930
   11CHTO  H216 4254   6.953   6.418   3.441  1.1618 -1.3273 -2.1236
   11CHTO   O73 4255   6.838   6.240   3.425 -0.7318 -0.1116  0.0911
   11CHTO  C113 4256   6.729   6.304   3.364 -0.0262  0.4314 -0.7090
   11CHTO  H217 4257   6.717   6.403   3.418  2.1017  0.4053 -1.6683
   11CHTO  C124 4258   6.601   6.227   3.404 -0.4196  0.0312  1.0110
   11CHTO   O83 4259   6.570   6.242   3.543 -0.2531  0.4344  0.6084
   11CHTO  H204 4260   6.536   6.327   3.556  3.1308 -1.4295 -2.5205
   11CHTO  C109 4261   6.748   6.315   3.208  0.1292 -0.1398 -0.2271
   11CHTO  H213 4262   6.746   6.211   3.167  0.2607 -1.7760 -1.7935
   11CHTO  C110 4263   6.889   6.376   3.177 -0.8816  0.1564 -0.3634
   11CHTO  H214 4264   6.889   6.481   3.207  1.8305  2.5388  0.3249
   11CHTO   O78 4265   6.916   6.389   3.034  0.2015 -0.1830 -0.0461
   11CHTO  H200 4266   6.962   6.314   2.998 -1.7498  0.4171  2.3380
   11CHTO  C111 4267   6.999   6.313   3.260 -0.6619 -0.1746  0.4991
   11CHTO  H215 4268   6.995   6.212   3.231  0.3281  3.7698 -0.6562
   11CHTO   N19 4269   7.134   6.367   3.236 -0.7130  0.1352  0.0057
   11CHTO  H207 4270   7.205   6.309   3.294  1.0922  1.9234 -1.5151
   11CHTO  H208 4271   7.139   6.471   3.275 -0.4650  0.3906  2.0475
   11CHTO   O74 4272   6.639   6.390   3.150 -0.6780  0.2602 -0.1850
   11CHTO  C115 4273   6.547   6.297   3.036  0.1645  0.0367 -0.2466
   11CHTO  H219 4274   6.594   6.196   3.013 -2.0534  0.8526 -0.0627
   11CHTO   O76 4275   6.414   6.261   3.089  0.1187 -0.3643  0.3081
   11CHTO  C122 4276   6.339   6.378   3.108 -0.7135  0.1907 -0.1794
   11CHTO  H226 4277   6.389   6.437   3.187 -1.4571  1.4634  1.7118
   11CHTO  C126 4278   6.206   6.320   3.176 -0.1714  0.1622  0.0729
   11CHTO   O85 4279   6.117   6.423   3.202 -0.3713  0.4451  0.8221
   11CHTO  H206 4280   6.074   6.464   3.132 -0.6055  1.6529 -0.2367
   11CHTO  C121 4281   6.318   6.470   2.983 -0.1820  1.1202  0.1756
   11CHTO  H225 4282   6.207   6.464   2.954  0.6989  0.3879 -2.2568
   11CHTO   O81 4283   6.372   6.595   3.015  0.4434  0.0574 -0.8989
   11CHTO  H202 4284   6.353   6.653   2.940  1.1459  0.8910  0.5259
   11CHTO  C119 4285   6.389   6.413   2.858  0.3866  0.3303 -0.0850
   11CHTO  H223 4286   6.350   6.313   2.840  1.5171 -2.0239  1.8997
   11CHTO  C117 4287   6.542   6.380   2.899 -0.1327 -0.3694  0.4588
   11CHTO  H221 4288   6.608   6.465   2.910  1.2613 -0.3682 -0.7702
   11CHTO   N20 4289   6.614   6.300   2.786  0.4897 -0.1346  0.2865
   11CHTO  H209 4290   6.678   6.362   2.727 -0.3280 -2.1047  0.3448
   11CHTO  H210 4291   6.543   6.253   2.721  1.6783  0.3598  0.0605
   11CHTO   O80 4292   6.359   6.480   2.723 -0.3532  0.4341  0.2311
   11CHTO  C103 4293   6.389   6.639   2.710  0.0029  0.2461  0.1054
   11CHTO  H190 4294   6.355   6.697   2.801  3.1827 -0.5179  2.8844
   11CHTO  C101 4295   6.529   6.695   2.673  0.3629 -0.2559 -0.3318
   11CHTO  H188 4296   6.569   6.646   2.584 -2.7943 -1.4941 -2.6778
   11CHTO   O68 4297   6.627   6.668   2.792 -0.3303  0.2255  0.1204
   11CHTO  H168 4298   6.709   6.678   2.767 -2.3269 -1.5082 -0.5161
   11CHTO   C99 4299   6.533   6.855   2.646 -0.2381 -0.0624 -0.4178
   11CHTO  H186 4300   6.492   6.900   2.734 -0.3500  2.2107 -0.3402
   11CHTO   N17 4301   6.668   6.905   2.605 -0.3374  0.4637 -0.1123
   11CHTO  H174 4302   6.699   6.841   2.526  0.2700  0.6938 -1.4767
   11CHTO  H175 4303   6.731   6.888   2.688  1.8588  1.4462 -0.4790
   11CHTO   C97 4304   6.424   6.880   2.534  0.5331 -0.2669  0.0806
   11CHTO  H184 4305   6.468   6.830   2.445 -0.2645 -2.7117  0.2217
   11CHTO   O64 4306   6.303   6.816   2.571  0.0432  0.8849 -0.2244
   11CHTO  C104 4307   6.298   6.677   2.593 -0.9934 -0.6314  0.3345
   11CHTO  H191 4308   6.336   6.628   2.500  1.9423 -2.4974 -2.3073
   11CHTO  C108 4309   6.151   6.631   2.619 -0.0705 -0.0631 -0.6651
   11CHTO   O71 4310   6.055   6.664   2.515  0.0944 -0.3819  0.2378
   11CHTO  H171 4311   6.084   6.743   2.474 -0.7484  1.2811  1.5793
   11CHTO   O62 4312   6.392   7.016   2.497 -0.2733 -0.5407 -0.4000
   11CHTO   C91 4313   6.343   7.033   2.363 -0.1605 -0.3454 -0.6175
   11CHTO  H178 4314   6.379   6.952   2.303 -1.3688  1.7705 -0.9057
   11CHTO   C92 4315   6.403   7.163   2.294  0.3310  0.2489 -0.3599
   11CHTO  H179 4316   6.511   7.153   2.289 -0.0523 -1.4747 -0.0922
   11CHTO   O66 4317   6.366   7.170   2.154  0.1750 -0.4920  0.3781
   11CHTO  H166 4318   6.367   7.080   2.124 -2.9900  0.6492  0.3375
   11CHTO   C93 4319   6.344   7.294   2.368  1.4232 -0.7571 -0.1323
   11CHTO  H180 4320   6.369   7.378   2.301  0.7039  1.0949  0.1772
   11CHTO   N16 4321   6.395   7.328   2.502 -0.1889 -0.0877  0.2779
   11CHTO  H172 4322   6.370   7.252   2.566 -0.2567  0.9137 -0.6214
   11CHTO  H173 4323   6.356   7.417   2.542  0.4830 -1.7199  1.4671
   11CHTO   C94 4324   6.189   7.291   2.375  0.2758  0.6644  0.5272
   11CHTO  H181 4325   6.151   7.296   2.475 -2.4118  0.9026  0.7256
   11CHTO   O61 4326   6.144   7.171   2.312  0.4748  0.3064  0.4430
   11CHTO   C95 4327   6.185   7.044   2.366  0.4152  0.1145 -0.0995
   11CHTO  H182 4328   6.152   7.035   2.469  2.5485  1.0462 -1.5782
   11CHTO  C106 4329   6.137   6.928   2.282 -0.0406  0.3715 -0.0833
   11CHTO   O69 4330   5.996   6.928   2.239 -0.6664 -0.3029 -0.1516
   11CHTO  H169 4331   5.985   6.865   2.172  1.0489  1.7094 -1.7177
   11CHTO   O63 4332   6.141   7.420   2.298  0.4902 -0.5095 -0.1091
   11CHTO   C96 4333   6.144   7.553   2.385 -0.2429  0.3345  0.0080
   11CHTO  H183 4334   6.224   7.539   2.454 -1.4481  1.6645 -0.8990
   11CHTO   C98 4335   6.020   7.592   2.469 -0.3182 -0.4417  0.0045
   11CHTO  H185 4336   5.981   7.513   2.529 -0.9578 -0.4952 -2.9229
   11CHTO   O67 4337   6.062   7.695   2.559  0.1627 -0.6486 -0.3501
   11CHTO  H167 4338   5.996   7.709   2.621  3.0764 -1.3935 -1.0377
   11CHTO  C102 4339   5.899   7.651   2.371  0.8084 -0.4773 -0.4237
   11CHTO  H189 4340   5.838   7.721   2.434 -0.1537 -2.5236 -0.0917
   11CHTO   N18 4341   5.802   7.555   2.317 -0.3612  0.9342  0.2831
   11CHTO  H176 4342   5.724   7.516   2.386 -3.6354 -2.3834  0.2871
   11CHTO  H177 4343   5.844   7.482   2.249  0.8401  1.2486 -0.0043
   11CHTO  C105 4344   5.960   7.736   2.255  0.0399  0.4963 -0.0776
   11CHTO  H192 4345   5.974   7.676   2.171  2.0890  0.8791  0.6299
   11CHTO   O65 4346   6.088   7.789   2.289  0.1205 -0.3328 -0.3667
   11CHTO  C100 4347   6.184   7.682   2.293 -0.5906 -0.1658  0.0554
   11CHTO  H187 4348   6.209   7.652   2.188 -1.2294 -0.7164  0.7368
   11CHTO  C107 4349   6.324   7.740   2.335 -0.1416 -0.5712  0.4328
   11CHTO   O70 4350   6.381   7.812   2.226  0.5013  0.8590  0.1889
   11CHTO  H170 4351   6.465   7.850   2.246  0.3377 -1.0802  1.5648
   11CHTO   O57 4352   5.845   7.871   2.221 -1.0289  0.0454  0.2259
   11CHTO   C85 4353   5.866   7.955   2.113 -0.8776 -0.5553  0.0304
   11CHTO  H157 4354   5.784   8.036   2.115 -1.6602 -2.1472  0.7132
   11CHTO   C83 4355   5.833   7.883   1.980  0.2283  0.1669  0.3882
   11CHTO  H155 4356   5.739   7.829   1.988  1.5919 -2.1857  0.1943
   11CHTO   O56 4357   5.922   7.772   1.946 -0.7961  0.0807 -0.5063
   11CHTO  H135 4358   6.013   7.797   1.964  0.4025  0.3047  1.1265
   11CHTO   C81 4359   5.822   7.999   1.876  0.1500  0.4965 -0.2210
   11CHTO  H153 4360   5.746   8.068   1.909  2.6510 -0.4911 -0.7152
   11CHTO   N14 4361   5.772   7.962   1.743 -0.1256 -0.6182 -0.4590
   11CHTO  H141 4362   5.821   7.998   1.653  1.9720 -0.3343 -3.3934
   11CHTO  H142 4363   5.663   7.944   1.722 -1.0339  0.7310 -2.0968
   11CHTO   C79 4364   5.959   8.069   1.857  0.4159 -0.3851 -0.0585
   11CHTO  H151 4365   5.949   8.155   1.784 -1.6559 -0.5015 -0.0233
   11CHTO   O52 4366   6.012   8.128   1.983 -0.1419  0.2229  0.9103
   11CHTO   C86 4367   6.005   8.024   2.093  0.1519 -0.0332  1.0824
   11CHTO  H158 4368   6.080   7.953   2.076 -1.6680  0.4609 -0.1843
   11CHTO   C90 4369   6.049   8.101   2.222 -0.1018  0.9983 -0.6567
   11CHTO   O60 4370   6.189   8.125   2.209  0.3603 -0.4043  0.4585
   11CHTO  H138 4371   6.208   8.204   2.159  0.9643 -0.8574 -3.0212
   11CHTO   O50 4372   6.061   7.977   1.804 -0.0011 -0.1938 -0.3690
   11CHTO   C73 4373   6.171   7.970   1.709 -0.8414  0.9739  0.1040
   11CHTO  H145 4374   6.210   8.069   1.690  0.8825  1.2998  1.4662
   11CHTO   C74 4375   6.114   7.904   1.584 -0.3991 -0.8185  0.3159
   11CHTO  H146 4376   6.029   7.967   1.547  1.0977  1.8678  0.1920
   11CHTO   O54 4377   6.209   7.915   1.474 -0.2036  0.2648  0.2280
   11CHTO  H133 4378   6.184   7.867   1.399  1.8861 -1.0094  0.0151
   11CHTO   C75 4379   6.070   7.756   1.618 -0.0095  1.4670 -0.4636
   11CHTO  H147 4380   6.007   7.756   1.708 -0.1525  1.4242  0.0550
   11CHTO   N13 4381   5.998   7.690   1.508  0.2857 -0.0783  0.1672
   11CHTO  H139 4382   6.062   7.703   1.420 -1.3588 -0.5775  1.1875
   11CHTO  H140 4383   5.903   7.738   1.478 -3.9948 -1.0263  1.0079
   11CHTO   C76 4384   6.204   7.679   1.666 -0.3775  0.6996  0.7549
   11CHTO  H148 4385   6.276   7.689   1.580 -0.7082 -1.7868  0.0579
   11CHTO   O49 4386   6.257   7.740   1.785 -0.4487  0.0874 -0.9661
   11CHTO   C77 4387   6.294   7.877   1.759  0.3963 -0.6478 -0.1916
   11CHTO  H149 4388   6.372   7.886   1.680 -1.5937  2.1855  0.6231
   11CHTO   C88 4389   6.359   7.925   1.892 -0.1649 -0.4149 -0.2783
   11CHTO   O58 4390   6.403   8.054   1.881 -0.4470 -0.7926  0.0355
   11CHTO  H136 4391   6.486   8.067   1.927  1.8634 -1.1769 -0.5587
   11CHTO   O51 4392   6.172   7.545   1.681 -0.0655  0.4026  0.3331
   11CHTO   C78 4393   6.300   7.449   1.700  0.7434 -0.3184 -0.4160
   11CHTO  H150 4394   6.381   7.507   1.713 -0.2854  0.6446 -1.5582
   11CHTO   C80 4395   6.322   7.356   1.581  0.3182  0.5146 -0.4675
   11CHTO  H152 4396   6.234   7.280   1.576 -0.1154 -2.1346  0.3950
   11CHTO   O55 4397   6.308   7.430   1.464 -0.6299 -0.6514  0.3232
   11CHTO  H134 4398   6.327   7.377   1.389  1.3950 -0.9470 -1.1984
   11CHTO   C84 4399   6.456   7.267   1.594  0.5381  0.2353  0.0584
   11CHTO  H156 4400   6.545   7.328   1.607 -0.1276  0.0833  1.4846
   11CHTO   N15 4401   6.487   7.175   1.480 -0.1260  0.3750  0.2073
   11CHTO  H143 4402   6.458   7.234   1.391 -0.1650  1.5499 -1.8671
   11CHTO  H144 4403   6.424   7.091   1.486 -3.2990  0.1947 -1.3604
   11CHTO   C87 4404   6.445   7.191   1.724 -0.2730  0.2989 -0.5154
   11CHTO  H159 4405   6.365   7.121   1.706  1.2975  1.1686  0.2890
   11CHTO   O53 4406   6.410   7.292   1.842  0.0748 -0.0021  0.1708
   11CHTO   C82 4407   6.290   7.361   1.825  0.5485 -0.0118  0.5524
   11CHTO  H154 4408   6.208   7.287   1.822 -0.1431 -0.8672  0.5433
   11CHTO   C89 4409   6.259   7.453   1.946 -0.1696 -0.7060 -0.3520
   11CHTO   O59 4410   6.199   7.385   2.052  0.0722  0.3404  0.4463
   11CHTO  H137 4411   6.214   7.419   2.138 -3.1976 -1.0935 -0.5107
   11CHTO   O45 4412   6.586   7.096   1.744  0.0667  0.3214 -0.5770
   11CHTO   C67 4413   6.704   7.161   1.804 -0.0830 -0.1694  0.1906
   11CHTO  H124 4414   6.706   7.264   1.768  0.6334  2.2522  1.2243
   11CHTO   C65 4415   6.692   7.162   1.958 -0.6429  0.8350  0.4686
   11CHTO  H122 4416   6.629   7.076   1.979 -1.3367  0.4012 -0.9180
   11CHTO   O44 4417   6.638   7.287   2.000  0.4863 -0.0022 -0.0918
   11CHTO  H102 4418   6.684   7.361   1.958  3.2554 -0.1073  0.9172
   11CHTO   C63 4419   6.829   7.131   2.028  0.0724 -0.3537  0.2755
   11CHTO  H120 4420   6.851   7.028   2.010  1.8259 -0.6639  0.0699
   11CHTO   N11 4421   6.827   7.140   2.180  0.4718  0.3313  0.3645
   11CHTO  H108 4422   6.874   7.223   2.223 -0.4696 -1.8936 -0.7387
   11CHTO  H109 4423   6.731   7.118   2.207  1.5004  0.6523 -1.2262
   11CHTO   C61 4424   6.950   7.203   1.955 -0.2756 -0.0927  0.6682
   11CHTO  H118 4425   7.042   7.177   2.008 -2.2227  0.8859  1.2659
   11CHTO   O40 4426   6.955   7.157   1.820  0.3259 -0.0193  0.2411
   11CHTO   C68 4427   6.840   7.094   1.754  0.0563  0.5189 -0.3275
   11CHTO  H125 4428   6.840   6.988   1.771  0.1854 -0.9169 -0.2545
   11CHTO   C72 4429   6.878   7.115   1.606  0.0307 -0.3239  0.7277
   11CHTO   O48 4430   6.791   7.057   1.507  0.4535  0.2589 -0.2873
   11CHTO  H105 4431   6.770   6.968   1.531  1.5459 -2.5225  2.0342
   11CHTO   O38 4432   6.936   7.349   1.937  0.0472 -0.4953 -0.0953
   11CHTO   C55 4433   7.061   7.426   1.939  0.3079  0.0557 -0.0083
   11CHTO  H112 4434   7.144   7.356   1.922 -1.2007 -3.6804 -3.3640
   11CHTO   C56 4435   7.073   7.504   2.079 -0.8665 -0.0529 -0.0864
   11CHTO  H113 4436   6.973   7.553   2.087  1.0878  2.8475 -2.0430
   11CHTO   O42 4437   7.080   7.401   2.176 -0.0428 -0.1074  0.3749
   11CHTO  H100 4438   7.081   7.445   2.262 -1.8961  1.7658 -0.6890
   11CHTO   C57 4439   7.182   7.621   2.085  0.5433  1.2070 -0.7478
   11CHTO  H114 4440   7.276   7.561   2.096 -1.6067 -2.2123 -0.3096
   11CHTO   N10 4441   7.164   7.706   2.206 -0.6811  0.6968 -0.4083
   11CHTO  H106 4442   7.259   7.738   2.236  1.1634 -0.2252 -2.9423
   11CHTO  H107 4443   7.120   7.655   2.289 -2.1328 -1.5190 -2.2427
   11CHTO   C58 4444   7.185   7.699   1.949 -0.1212 -1.0625  0.6696
   11CHTO  H115 4445   7.103   7.775   1.944  0.2022 -0.2540  0.7790
   11CHTO   O37 4446   7.185   7.614   1.829 -0.0383  0.8189  0.0209
   11CHTO   C59 4447   7.069   7.532   1.820 -0.9244 -0.0137 -0.4733
   11CHTO  H116 4448   6.974   7.581   1.822  4.0555 -4.0388 -0.2032
   11CHTO   C70 4449   7.081   7.456   1.687 -0.7762  0.3134  0.2527
   11CHTO   O46 4450   7.053   7.536   1.574 -0.0587 -0.3124  0.9388
   11CHTO  H103 4451   7.130   7.548   1.531  1.1480  3.5642  0.9728
   11CHTO   O39 4452   7.342   7.781   1.949 -0.1730 -0.0464  0.1628
   11CHTO   C60 4453   7.385   7.839   1.825  0.1318  0.7718 -0.5603
   11CHTO  H117 4454   7.336   7.797   1.735  0.3803  0.8162 -0.6276
   11CHTO   C62 4455   7.356   7.988   1.835 -0.5676  0.1244 -0.3371
   11CHTO  H119 4456   7.245   7.993   1.843 -0.4364  1.2062  1.6079
   11CHTO   O43 4457   7.428   8.056   1.944  0.0977  0.4061  0.3446
   11CHTO  H101 4458   7.392   8.140   1.957 -1.3987 -0.4326  1.6075
   11CHTO   C66 4459   7.400   8.049   1.691  0.2155  0.6996 -0.3574
   11CHTO  H123 4460   7.340   8.003   1.615 -0.1708  1.0078  1.0144
   11CHTO   N12 4461   7.369   8.194   1.685 -0.4365 -0.0095 -0.1797
   11CHTO  H110 4462   7.315   8.222   1.598  0.5935  0.2530  0.3926
   11CHTO  H111 4463   7.321   8.237   1.770 -0.1436 -0.4842  3.8296
   11CHTO   C69 4464   7.553   8.023   1.658 -0.0264  0.5263  0.3126
   11CHTO  H126 4465   7.612   8.092   1.735  0.6275  1.3275 -0.5002
   11CHTO   O41 4466   7.593   7.859   1.693  0.1413 -0.1453 -0.0909
   11CHTO   C64 4467   7.540   7.811   1.809  0.0016  0.2906 -0.0268
   11CHTO  H121 4468   7.589   7.855   1.893 -0.9477  0.6757 -2.7422
   11CHTO   C71 4469   7.559   7.661   1.808  0.0560  0.8867  0.4115
   11CHTO   O47 4470   7.484   7.585   1.715  0.1495  0.5705  0.7650
   11CHTO  H104 4471   7.508   7.497   1.737 -0.5673  3.2794  0.7250
   11CHTO   O34 4472   7.599   8.060   1.500 -0.3655 -0.4393 -0.1346
   11CHTO   C49 4473   7.658   7.981   1.376 -0.2571 -0.1828 -0.4088
   11CHTO   H91 4474   7.730   8.051   1.327  1.3230  5.2480 -0.6681
   11CHTO   C47 4475   7.544   7.939   1.280 -0.4583  0.0036  0.2223
   11CHTO   H89 4476   7.600   7.891   1.191  0.1853 -1.1130 -0.2140
   11CHTO   O33 4477   7.477   8.056   1.229  0.2370  0.2190 -0.6704
   11CHTO   H70 4478   7.466   8.047   1.136 -0.0972  1.9691  2.1602
   11CHTO   C45 4479   7.451   7.826   1.355  0.2078  1.1150 -0.0467
   11CHTO   H87 4480   7.418   7.861   1.458 -0.2676  0.7761 -0.6453
   11CHTO    N8 4481   7.329   7.801   1.272 -0.7682 -0.0277 -0.2159
   11CHTO   H75 4482   7.349   7.803   1.167 -0.6874  2.0146  1.4196
   11CHTO   H76 4483   7.259   7.886   1.274  0.3239  1.9257  0.4464
   11CHTO   C43 4484   7.536   7.693   1.394 -0.0343 -0.3947  0.2946
   11CHTO   H85 4485   7.476   7.634   1.463  0.4884  1.7199 -0.1542
   11CHTO   O29 4486   7.661   7.731   1.453 -0.1476 -0.1643 -0.1411
   11CHTO   C50 4487   7.740   7.848   1.412  0.5363 -0.2469 -0.5284
   11CHTO   H92 4488   7.794   7.869   1.506 -1.2794 -0.5795  2.1116
   11CHTO   C54 4489   7.854   7.792   1.325 -0.1363 -0.8776 -0.3593
   11CHTO   O36 4490   7.921   7.692   1.408 -0.2050 -0.5433  0.7791
   11CHTO   H72 4491   7.906   7.604   1.381  1.6832  0.2110 -1.2550
   11CHTO   O27 4492   7.558   7.607   1.282  0.0097 -0.4451 -0.3885
   11CHTO   C37 4493   7.502   7.503   1.199 -0.1845  0.4100  0.0470
   11CHTO   H79 4494   7.562   7.413   1.202  1.2494  0.5625 -0.0972
   11CHTO   C38 4495   7.366   7.440   1.256  0.0602 -0.0893  0.2197
   11CHTO   H80 4496   7.298   7.521   1.286  2.8986  1.0913  4.3194
   11CHTO   O31 4497   7.403   7.361   1.373 -0.2898 -0.3758  0.3184
   11CHTO   H68 4498   7.338   7.296   1.389  1.1346 -1.3037 -0.1823
   11CHTO   C39 4499   7.299   7.344   1.143 -0.3096  0.3392  0.4288
   11CHTO   H81 4500   7.363   7.251   1.133  0.4761 -0.9302 -1.7062
   11CHTO    N7 4501   7.167   7.283   1.186  0.3198 -0.8710 -1.0249
   11CHTO   H73 4502   7.100   7.365   1.197  0.2285 -1.7088  0.9254
   11CHTO   H74 4503   7.175   7.241   1.287 -0.0356 -0.2271  1.3127
   11CHTO   C40 4504   7.292   7.419   1.006  0.3777  0.6985 -0.1473
   11CHTO   H82 4505   7.227   7.506   1.006  0.1535  0.0609  1.8262
   11CHTO   O26 4506   7.433   7.454   0.974 -0.2775 -0.6326 -0.1323
   11CHTO   C41 4507   7.493   7.563   1.057  0.5516 -0.4031  0.0061
   11CHTO   H83 4508   7.420   7.643   1.059 -0.8976  0.7111  1.7946
   11CHTO   C52 4509   7.630   7.612   1.002  0.3598 -0.3498  0.1257
   11CHTO   O35 4510   7.747   7.508   1.018  0.7371  1.1198 -0.1109
   11CHTO   H71 4511   7.751   7.454   0.938 -1.8163 -1.8831 -1.7478
   11CHTO   O28 4512   7.257   7.332   0.900 -0.2881 -0.3776 -0.7425
   11CHTO   C42 4513   7.253   7.371   0.762 -0.1601  0.2677 -0.3429
   11CHTO   H84 4514   7.331   7.447   0.746 -1.0598  1.7287  0.4962
   11CHTO   C44 4515   7.121   7.437   0.706 -0.3046  0.5521 -0.4617
   11CHTO   H86 4516   7.035   7.374   0.734  0.3800  1.8838  0.3644
   11CHTO   O32 4517   7.092   7.558   0.771  0.1830  0.2245  0.0107
   11CHTO   H69 4518   7.027   7.608   0.734  0.7409  1.8508  0.0160
   11CHTO   C48 4519   7.120   7.444   0.546  0.4794  0.6213 -0.2581
   11CHTO   H90 4520   7.197   7.520   0.528  0.3088 -0.1604 -0.3634
   11CHTO    N9 4521   6.991   7.503   0.498 -0.6789  0.0245 -0.4646
   11CHTO   H77 4522   6.911   7.440   0.519 -1.2528 -2.4946  0.7887
   11CHTO   H78 4523   6.975   7.595   0.553  0.7306 -2.0014  0.1381
   11CHTO   C51 4524   7.157   7.304   0.494  0.2916 -0.2658 -0.7093
   11CHTO   H93 4525   7.088   7.230   0.546  1.5314 -1.3216  1.7485
   11CHTO   O30 4526   7.294   7.288   0.537  0.0901  0.4807  0.4744
   11CHTO   C46 4527   7.292   7.252   0.677  0.9699  0.5831  0.4686
   11CHTO   H88 4528   7.221   7.170   0.692  0.2412  0.3452  1.2475
   11CHTO   C53 4529   7.427   7.192   0.714 -0.0950 -0.0863  0.1930
   11CHTO   O72 4530   7.522   7.297   0.717 -0.4731 -0.8150 -0.6929
   11CHTO  H199 4531   7.541   7.345   0.639  1.1610  1.1951 -0.3753
   11CHTO   O22 4532   7.158   7.301   0.354 -0.3812  0.3457 -0.3176
   11CHTO   C31 4533   7.056   7.233   0.271  0.1686 -0.3986  0.3213
   11CHTO   H59 4534   6.960   7.240   0.327  0.0476  2.0380  2.2417
   11CHTO   C29 4535   7.040   7.295   0.130  0.5269  0.4242 -0.3869
   11CHTO   H57 4536   7.135   7.296   0.073 -0.1857 -0.4249  0.4891
   11CHTO   O21 4537   7.008   7.435   0.146  0.2935  0.0975  0.1999
   11CHTO   H37 4538   6.998   7.472   0.065 -1.7618 -2.9765 -0.7820
   11CHTO   C27 4539   6.930   7.222   0.048 -0.3247  0.3623  0.1155
   11CHTO   H55 4540   6.833   7.237   0.105  1.7882  1.0265  3.1356
   11CHTO    N5 4541   6.918   7.272  -0.091 -0.2597 -0.4934 -0.8552
   11CHTO   H43 4542   6.948   7.374  -0.093  0.1903 -0.6168 -0.7552
   11CHTO   H44 4543   6.818   7.270  -0.115 -1.6767 -0.3098  0.5121
   11CHTO   C25 4544   6.959   7.069   0.041  0.6682  0.1229 -0.2975
   11CHTO   H53 4545   7.055   7.053  -0.009 -0.0318  0.5446 -0.5733
   11CHTO   O17 4546   6.971   7.011   0.177  0.0766 -0.2086  0.0584
   11CHTO   C32 4547   7.084   7.072   0.251 -0.1943  0.0391  0.8970
   11CHTO   H60 4548   7.168   7.062   0.199  0.5812  1.8852 -1.2557
   11CHTO   C36 4549   7.076   6.977   0.373 -0.2113 -0.4010 -0.6407
   11CHTO   O25 4550   7.204   6.978   0.438  0.9381  0.0782  0.0740
   11CHTO   H40 4551   7.196   6.926   0.516  3.7668  0.7136 -0.1000
   11CHTO   O15 4552   6.843   6.983  -0.044  0.0253  0.8868  0.7143
   11CHTO   C19 4553   6.864   6.846  -0.079 -0.0365 -0.5077  0.2053
   11CHTO   H47 4554   6.961   6.827  -0.044 -1.0326  3.3432 -2.0006
   11CHTO   C20 4555   6.768   6.746  -0.004  0.2349  0.0759  0.2162
   11CHTO   H48 4556   6.662   6.770  -0.021  0.2019  2.1017  2.4940
   11CHTO   O19 4557   6.788   6.772   0.138 -0.2409  0.4126 -0.1344
   11CHTO   H35 4558   6.736   6.841   0.163  1.1574 -1.9794  1.6793
   11CHTO   C21 4559   6.786   6.588  -0.046  0.6691 -0.0413  0.5627
   11CHTO   H49 4560   6.873   6.543  -0.008  0.7135 -1.5858  1.3149
   11CHTO    N4 4561   6.680   6.502   0.010  1.1673 -0.0558  0.2291
   11CHTO   H41 4562   6.679   6.516   0.117  0.6006 -1.2649  0.9081
   11CHTO   H42 4563   6.588   6.531  -0.032  0.2889  0.8926  1.2696
   11CHTO   C22 4564   6.801   6.592  -0.201  1.0218 -0.3780 -0.7661
   11CHTO   H50 4565   6.705   6.627  -0.244 -1.5615 -4.1672 -1.0543
   11CHTO   O14 4566   6.900   6.680  -0.245 -0.1791  0.1757  0.1544
   11CHTO   C23 4567   6.871   6.816  -0.230  0.1107  0.3003 -0.3884
   11CHTO   H51 4568   6.781   6.837  -0.278  0.8937 -2.2126  0.3886
   11CHTO   C34 4569   6.975   6.900  -0.301  0.2917  0.3742 -0.5868
   11CHTO   O23 4570   6.942   7.036  -0.328  0.1257 -0.2859  0.3414
   11CHTO   H38 4571   6.936   7.076  -0.245 -1.6200 -0.9971 -1.0551
   11CHTO   O16 4572   6.834   6.456  -0.239 -0.2552  0.5590  0.3239
   11CHTO   C24 4573   6.806   6.408  -0.371  0.0821  0.0196  0.0114
   11CHTO   H52 4574   6.778   6.492  -0.434  0.5542  1.6259  1.0142
   11CHTO   C26 4575   6.691   6.300  -0.357 -0.3996 -0.1453  0.0742
   11CHTO   H54 4576   6.710   6.240  -0.270 -0.5292 -0.6289 -1.7185
   11CHTO   O20 4577   6.567   6.367  -0.327 -0.0879 -0.2652 -0.3585
   11CHTO   H36 4578   6.549   6.432  -0.391  3.1350  0.7214 -3.1016
   11CHTO   C30 4579   6.676   6.215  -0.484  0.6054  0.2198 -0.6455
   11CHTO   H58 4580   6.636   6.268  -0.570  2.0035  2.2384 -1.6001
   11CHTO    N6 4581   6.574   6.103  -0.462  0.0267 -0.0411  0.2125
   11CHTO   H45 4582   6.471   6.144  -0.441 -1.5145  0.5807  1.2417
   11CHTO   H46 4583   6.569   6.030  -0.539 -1.2537 -1.5366  1.4205
   11CHTO   C33 4584   6.818   6.164  -0.529  0.5903 -0.0568  0.0520
   11CHTO   H61 4585   6.859   6.101  -0.449 -0.7298 -3.4528 -0.5527
   11CHTO   O18 4586   6.902   6.283  -0.549  0.0933 -0.4491  0.2811
   11CHTO   C28 4587   6.933   6.347  -0.425 -0.0425 -0.0134  0.5369
   11CHTO   H56 4588   6.967   6.270  -0.362  1.0336  0.9434 -1.9563
   11CHTO   C35 4589   7.049   6.459  -0.444 -0.1012  0.3536  0.4167
   11CHTO   O24 4590   7.165   6.392  -0.474  0.4660  0.2512  0.0126
   11CHTO   H39 4591   7.232   6.448  -0.449  0.5957 -2.1625 -3.6732
   11CHTO    O9 4592   6.818   6.078  -0.640  0.0335 -0.1414  0.3822
   11CHTO   C13 4593   6.804   6.129  -0.791 -0.1223  0.4452 -0.4391
   11CHTO   H26 4594   6.722   6.191  -0.791 -3.2977 -0.6867  0.7605
   11CHTO   C11 4595   6.775   5.998  -0.876  0.9123  0.3221  0.2266
   11CHTO   H24 4596   6.674   5.968  -0.837 -2.6232 -0.0128 -1.2014
   11CHTO    O8 4597   6.876   5.898  -0.853  0.1708  0.0734  0.2128
   11CHTO    H3 4598   6.849   5.818  -0.890 -1.2059 -1.1637 -0.2458
   11CHTO    C9 4599   6.756   6.043  -1.019  0.6331 -0.0680  0.2665
   11CHTO   H22 4600   6.675   6.120  -1.019 -0.0386 -0.2425 -0.3611
   11CHTO    N2 4601   6.719   5.938  -1.118 -0.1093  0.1152  0.2774
   11CHTO   H10 4602   6.615   5.936  -1.138 -1.5141 -0.0727  1.0927
   11CHTO   H11 4603   6.757   5.839  -1.077  1.1531  0.2485  1.9345
   11CHTO    C7 4604   6.886   6.119  -1.069 -0.7173 -0.8639 -0.4337
   11CHTO   H20 4605   6.849   6.178  -1.159 -2.0500  0.0663  1.1862
   11CHTO    O4 4606   6.935   6.222  -0.982 -0.2847  0.4439  0.2144
   11CHTO   C14 4607   6.927   6.211  -0.842 -0.0785 -0.2080 -0.1179
   11CHTO   H27 4608   6.907   6.311  -0.800  1.3434  1.2373  0.5831
   11CHTO   C18 4609   7.062   6.154  -0.783 -0.2943  0.1614  0.6764
   11CHTO   O13 4610   7.174   6.212  -0.836  0.1999  0.3356 -0.2664
   11CHTO    H7 4611   7.171   6.306  -0.818  0.1834  3.7298 -1.6845
   11CHTO    O2 4612   7.005   6.012  -1.107  0.4381  0.1128 -0.1816
   11CHTO    C1 4613   7.111   6.053  -1.191  0.3301  0.3036  0.8912
   11CHTO   H14 4614   7.139   6.147  -1.154 -0.1687 -0.9039 -0.2385
   11CHTO    C2 4615   7.073   6.064  -1.342 -0.5410  0.0458 -0.9029
   11CHTO   H15 4616   7.028   5.965  -1.364  2.9339 -1.1804 -0.8765
   11CHTO    O6 4617   6.974   6.166  -1.363 -0.5799 -0.2288  0.2451
   11CHTO    H1 4618   6.982   6.196  -1.454 -0.1079  1.1275  2.4471
   11CHTO    C3 4619   7.208   6.101  -1.433 -0.0431 -0.5878  0.0074
   11CHTO   H16 4620   7.225   6.214  -1.415  0.0241  0.5223 -1.3806
   11CHTO    N1 4621   7.164   6.078  -1.582  0.2053 -0.4445  0.3330
   11CHTO    H8 4622   7.205   5.984  -1.628 -1.8413  4.2903  1.4024
   11CHTO    H9 4623   7.201   6.158  -1.639  0.7580 -2.6931  0.5508
   11CHTO    C4 4624   7.341   6.024  -1.383 -0.8996 -0.4460  0.7215
   11CHTO   H17 4625   7.346   5.927  -1.446  0.4747  0.3033 -2.7186
   11CHTO    O1 4626   7.353   6.016  -1.243  0.2467 -0.7191 -0.3867
   11CHTO    C5 4627   7.234   5.962  -1.175 -0.2008 -0.0975 -0.3875
   11CHTO   H18 4628   7.213   5.864  -1.224 -0.3715  1.1429  0.1444
   11CHTO   C16 4629   7.272   5.932  -1.024  0.6170  0.0683  0.2572
   11CHTO   O11 4630   7.360   5.826  -1.003 -0.0609 -0.3735 -0.2726
   11CHTO    H5 4631   7.315   5.749  -0.979  0.8071  0.8845  2.3727
   11CHTO    O3 4632   7.454   6.101  -1.427  0.4499 -0.0025  0.4599
   11CHTO    C6 4633   7.558   6.020  -1.495  0.5385 -0.0010 -0.1356
   11CHTO   H19 4634   7.543   5.916  -1.486  0.7781  0.8264  0.0949
   11CHTO    C8 4635   7.555   6.048  -1.648 -0.0032  0.3244  0.5910
   11CHTO   H21 4636   7.552   6.159  -1.668  0.0169  1.6385 -1.1180
   11CHTO    O7 4637   7.441   5.979  -1.703 -0.3048  0.3582  0.1342
   11CHTO    H2 4638   7.459   5.961  -1.794 -2.4400 -0.3980 -2.6961
   11CHTO   C12 4639   7.688   6.007  -1.721  0.0274  0.2161  0.0365
   11CHTO   H25 4640   7.684   5.900  -1.721  0.3871 -1.5733 -2.2306
   11CHTO    N3 4641   7.695   6.070  -1.861 -0.0099 -0.2619  0.1608
   11CHTO   H12 4642   7.664   6.004  -1.942  0.7433  2.1584 -1.1167
   11CHTO   H13 4643   7.800   6.095  -1.886  2.9365  1.6056  1.2327
   11CHTO   C15 4644   7.812   6.052  -1.640 -0.2713 -0.0710  0.1124
   11CHTO   H28 4645   7.832   6.161  -1.645  1.1888  0.7655 -0.1079
   11CHTO   O10 4646   7.945   5.976  -1.686 -0.1784  0.6537 -0.0340
   11CHTO    H4 4647   8.012   5.996  -1.621 -1.7196 -0.3989  0.7218
   11CHTO    O5 4648   7.799   6.009  -1.501  0.6459 -0.6840 -0.4257
   11CHTO   C10 4649   7.692   6.060  -1.417  0.5605 -0.3507  0.9472
   11CHTO   H23 4650   7.691   6.172  -1.399  0.8757 -0.4794  0.2221
   11CHTO   C17 4651   7.705   5.990  -1.286  0.2913 -0.1812  0.6957
   11CHTO   O12 4652   7.629   6.058  -1.180 -0.0844 -0.0732  0.2697
   11CHTO    H6 4653   7.546   6.070  -1.217 -0.1349  1.5050  1.9995
   12CHTO  H203 4654   5.704   2.026   7.140  1.9040  0.3466 -1.2458
   12CHTO   O82 4655   5.695   1.933   7.163  0.1023 -0.7066  0.3689
   12CHTO  C123 4656   5.626   1.917   7.288 -0.0405 -0.5812  0.1900
   12CHTO  H227 4657   5.553   2.000   7.295 -1.5407 -0.2870 -2.5406
   12CHTO   O77 4658   5.560   1.793   7.267  0.1879 -0.2328  0.2237
   12CHTO  C118 4659   5.493   1.736   7.385  0.3634 -0.0603  0.4655
   12CHTO  H222 4660   5.413   1.797   7.424  0.2266 -2.0362  0.8045
   12CHTO  C125 4661   5.437   1.591   7.346  0.0648  0.1078  0.2544
   12CHTO   O84 4662   5.545   1.502   7.303 -0.1842 -0.1344 -0.5196
   12CHTO  H205 4663   5.564   1.522   7.218  3.6615 -0.5304  0.2347
   12CHTO  C114 4664   5.591   1.714   7.507  0.1766 -0.4237  1.0366
   12CHTO  H218 4665   5.673   1.660   7.474  0.6577 -0.3772  1.0324
   12CHTO  C116 4666   5.651   1.853   7.540  0.3943  0.4352  0.0659
   12CHTO  H220 4667   5.569   1.917   7.580  2.0523 -1.2464 -0.4737
   12CHTO   O79 4668   5.747   1.840   7.648 -0.0475 -1.1259  0.0888
   12CHTO  H201 4669   5.832   1.824   7.619 -0.5979  2.9055 -0.7050
   12CHTO  C120 4670   5.718   1.922   7.411 -0.3069 -0.3795 -0.9389
   12CHTO  H224 4671   5.805   1.867   7.397  1.9812  0.1084  0.7435
   12CHTO   N21 4672   5.763   2.059   7.448  0.2872  0.3813 -0.2775
   12CHTO  H211 4673   5.689   2.126   7.411 -0.5698 -1.0250  0.9066
   12CHTO  H212 4674   5.858   2.066   7.398 -0.9064  0.5057  0.3704
   12CHTO   O75 4675   5.512   1.644   7.608 -0.0290 -0.0072 -0.0078
   12CHTO  C112 4676   5.602   1.562   7.714 -0.3650 -1.0092  0.3589
   12CHTO  H216 4677   5.678   1.622   7.757  1.4779  0.0390 -1.7077
   12CHTO   O73 4678   5.660   1.444   7.655  0.3214 -0.0399 -0.2745
   12CHTO  C113 4679   5.733   1.354   7.743  0.4876 -0.7271  0.2560
   12CHTO  H217 4680   5.811   1.413   7.801 -1.9443  0.1857  2.0198
   12CHTO  C124 4681   5.799   1.248   7.652  0.0404  0.0664 -0.0743
   12CHTO   O83 4682   5.907   1.167   7.704  0.3799  0.3984 -0.4448
   12CHTO  H204 4683   5.962   1.222   7.763  1.2427  1.4379  1.9599
   12CHTO  C109 4684   5.640   1.300   7.853 -0.3210  0.2506  0.4595
   12CHTO  H213 4685   5.564   1.240   7.809  2.0892  0.1850  2.0663
   12CHTO  C110 4686   5.587   1.419   7.933  0.0768 -0.0670  0.2384
   12CHTO  H214 4687   5.674   1.474   7.970 -1.2045  0.4542 -0.3474
   12CHTO   O78 4688   5.508   1.374   8.039 -0.4615 -0.1263 -0.2426
   12CHTO  H200 4689   5.561   1.332   8.102  0.0017 -0.7437  1.1906
   12CHTO  C111 4690   5.513   1.515   7.832 -0.3442  0.2038  0.2721
   12CHTO  H215 4691   5.429   1.457   7.785 -2.2027 -1.4536  2.0240
   12CHTO   N19 4692   5.447   1.635   7.896 -0.1293 -0.6941  0.1737
   12CHTO  H207 4693   5.451   1.725   7.833  0.4463 -2.3446 -0.4112
   12CHTO  H208 4694   5.496   1.659   7.993 -3.2288 -3.9692  0.6318
   12CHTO   O74 4695   5.724   1.221   7.942 -0.8516 -0.4558  0.0098
   12CHTO  C115 4696   5.642   1.111   8.018  0.4671  0.4213 -0.6685
   12CHTO  H219 4697   5.535   1.132   8.021  1.7455  0.6484 -1.7935
   12CHTO   O76 4698   5.650   0.966   7.949  0.1113  0.4193 -0.1720
   12CHTO  C122 4699   5.781   0.913   7.962 -0.3755  0.6982 -0.0242
   12CHTO  H226 4700   5.849   0.984   7.921 -1.6339 -0.9000  3.2574
   12CHTO  C126 4701   5.801   0.782   7.872 -0.9280 -0.7233  0.1527
   12CHTO   O85 4702   5.810   0.811   7.726 -0.4029 -0.1568 -0.1475
   12CHTO  H206 4703   5.728   0.784   7.687  3.7311 -0.1872 -0.3049
   12CHTO  C121 4704   5.814   0.883   8.108  0.2875  0.3378 -0.6152
   12CHTO  H225 4705   5.799   0.772   8.117  0.3395 -0.0678 -1.2441
   12CHTO   O81 4706   5.953   0.927   8.135 -0.0156  0.7392  0.1863
   12CHTO  H202 4707   5.966   1.007   8.185  0.0370 -1.9718  0.8116
   12CHTO  C119 4708   5.715   0.955   8.209 -0.6856  0.9556 -0.1934
   12CHTO  H223 4709   5.611   0.906   8.190  0.2824  0.3568 -2.5135
   12CHTO  C117 4710   5.694   1.109   8.170 -0.4228  0.7760  0.2191
   12CHTO  H221 4711   5.785   1.176   8.174  1.8435  2.5548  1.0208
   12CHTO   N20 4712   5.603   1.176   8.269  0.5935 -0.0190 -0.6686
   12CHTO  H209 4713   5.610   1.281   8.279 -2.1666 -0.6826  1.6348
   12CHTO  H210 4714   5.506   1.175   8.225  1.0722  0.2112  3.7792
   12CHTO   O80 4715   5.743   0.935   8.374  0.6175  0.2120 -0.7964
   12CHTO  C103 4716   5.617   0.874   8.475 -0.2470  0.0705 -0.1533
   12CHTO  H190 4717   5.530   0.943   8.470 -4.8917 -0.5905 -0.5059
   12CHTO  C101 4718   5.566   0.731   8.448 -0.4341 -0.8931  0.4821
   12CHTO  H188 4719   5.649   0.672   8.449 -3.6297  2.0607 -3.4210
   12CHTO   O68 4720   5.512   0.738   8.329  0.6611 -0.0219  0.4225
   12CHTO  H168 4721   5.570   0.710   8.260  0.2229 -1.8946 -0.9486
   12CHTO   C99 4722   5.467   0.688   8.554  0.1156 -0.0771  0.4409
   12CHTO  H186 4723   5.382   0.768   8.564  3.7833  0.2121 -1.2646
   12CHTO   N17 4724   5.401   0.552   8.534  0.1011  0.3732 -0.0932
   12CHTO  H174 4725   5.293   0.569   8.539 -0.2227  1.1927  0.9258
   12CHTO  H175 4726   5.426   0.481   8.611 -1.6020 -0.5115 -1.8437
   12CHTO   C97 4727   5.544   0.687   8.684  0.2983  0.6508 -0.3245
   12CHTO  H184 4728   5.632   0.622   8.672  2.7806 -1.2537  2.7712
   12CHTO   O64 4729   5.580   0.823   8.705 -0.0446  0.4962 -0.3145
   12CHTO  C104 4730   5.668   0.879   8.614 -0.5367 -0.4986 -0.4850
   12CHTO  H191 4731   5.770   0.837   8.623 -1.8350 -0.0964 -1.5451
   12CHTO  C108 4732   5.692   1.018   8.665  0.0125  0.1435  0.3141
   12CHTO   O71 4733   5.785   1.023   8.778  0.3270 -0.1033 -0.2769
   12CHTO  H171 4734   5.802   1.113   8.797 -0.8408  1.4225 -0.1853
   12CHTO   O62 4735   5.477   0.645   8.805  0.5258 -0.1238 -0.5596
   12CHTO   C91 4736   5.556   0.567   8.895  0.7983 -0.5682 -0.5530
   12CHTO  H178 4737   5.660   0.594   8.872 -0.2202  0.8442  1.2186
   12CHTO   C92 4738   5.528   0.415   8.890 -1.0547  0.7732 -0.2048
   12CHTO  H179 4739   5.417   0.400   8.902  0.3517  2.3655 -2.5359
   12CHTO   O66 4740   5.554   0.374   8.754 -0.5979 -0.7689  0.8562
   12CHTO  H166 4741   5.567   0.281   8.736  0.1041 -0.2404 -1.0281
   12CHTO   C93 4742   5.609   0.328   8.989  0.2767  0.4628  0.7426
   12CHTO  H180 4743   5.713   0.340   8.956  0.3521 -0.5136 -0.7506
   12CHTO   N16 4744   5.568   0.180   8.984 -0.1636 -0.3804  0.1598
   12CHTO  H172 4745   5.472   0.162   8.943 -0.1738  0.0993 -1.2431
   12CHTO  H173 4746   5.643   0.116   8.936  1.6647  1.0913 -1.6422
   12CHTO   C94 4747   5.600   0.383   9.130  0.6214 -0.1894 -0.2268
   12CHTO  H181 4748   5.501   0.372   9.171 -0.2349  2.0556  1.1457
   12CHTO   O61 4749   5.637   0.524   9.128  0.8764  0.0476  0.3455
   12CHTO   C95 4750   5.556   0.611   9.048  0.5306  0.0768  0.3879
   12CHTO  H182 4751   5.448   0.602   9.084  0.8047  0.4477 -0.2713
   12CHTO  C106 4752   5.609   0.761   9.067  0.5733 -0.4726  0.1942
   12CHTO   O69 4753   5.596   0.807   9.198  0.2654 -0.0669 -0.0202
   12CHTO  H169 4754   5.597   0.900   9.205  0.0013 -1.4366  0.0454
   12CHTO   O63 4755   5.697   0.308   9.230  0.8125 -0.4839 -0.1401
   12CHTO   C96 4756   5.661   0.349   9.386  0.2309  0.2913  0.0593
   12CHTO  H183 4757   5.612   0.446   9.382 -1.9966  0.2203  0.1805
   12CHTO   C98 4758   5.789   0.374   9.472 -0.2909 -0.0778  0.3747
   12CHTO  H185 4759   5.846   0.449   9.427 -2.8787 -0.4022  0.0959
   12CHTO   O67 4760   5.751   0.432   9.590 -0.5315  0.0545 -0.5148
   12CHTO  H167 4761   5.820   0.433   9.652 -0.2540 -0.2782 -0.5334
   12CHTO  C102 4762   5.867   0.238   9.507  0.9390 -0.1407  0.2945
   12CHTO  H189 4763   5.930   0.259   9.597 -0.4558 -2.1131  1.5953
   12CHTO   N18 4764   5.958   0.199   9.398 -0.2112 -0.2921 -0.1921
   12CHTO  H176 4765   5.923   0.209   9.299  3.2012  1.7628  2.1707
   12CHTO  H177 4766   6.034   0.276   9.404 -0.0770 -3.5214  0.2498
   12CHTO  C105 4767   5.766   0.119   9.546 -0.9436  0.2815 -0.1079
   12CHTO  H192 4768   5.765   0.035   9.474  0.4249 -0.8635  3.3949
   12CHTO   O65 4769   5.624   0.153   9.559 -0.0027  0.3164  0.3789
   12CHTO  C100 4770   5.574   0.228   9.449  0.2411 -0.3192 -0.2694
   12CHTO  H187 4771   5.546   0.150   9.380  0.2004 -0.3232 -0.1960
   12CHTO  C107 4772   5.437   0.271   9.500  0.4334  0.1804  0.0990
   12CHTO   O70 4773   5.452   0.369   9.607 -0.0178 -0.4435  0.3967
   12CHTO  H170 4774   5.422   0.452   9.573 -0.5107  2.6171  0.6416
   12CHTO   O57 4775   5.811   0.072   9.692 -0.1842  0.1335 -0.3704
   12CHTO   C85 4776   5.847  -0.065   9.714 -0.3571  0.3624 -0.7885
   12CHTO  H157 4777   5.905  -0.108   9.627  0.0100 -1.1152 -1.1751
   12CHTO   C83 4778   5.713  -0.155   9.721  0.2647 -0.1904 -0.1419
   12CHTO  H155 4779   5.674  -0.154   9.620  0.9138 -0.5136 -0.8544
   12CHTO   O56 4780   5.620  -0.079   9.804  0.2356 -0.1672  0.6149
   12CHTO  H135 4781   5.614  -0.122   9.885 -3.5859  1.6098 -0.4073
   12CHTO   C81 4782   5.746  -0.303   9.771 -0.8488 -0.0467  0.4904
   12CHTO  H153 4783   5.820  -0.352   9.696 -0.8741 -3.1946 -0.7283
   12CHTO   N14 4784   5.622  -0.390   9.762  0.0500 -0.3356  0.1716
   12CHTO  H141 4785   5.546  -0.366   9.694  0.1424  1.8379  1.1004
   12CHTO  H142 4786   5.646  -0.497   9.764 -4.5057 -0.8826 -2.2332
   12CHTO   C79 4787   5.818  -0.295   9.911  0.1091  0.0101 -0.1586
   12CHTO  H151 4788   5.852  -0.394   9.934 -0.0541  0.1436  2.1247
   12CHTO   O52 4789   5.943  -0.227   9.899 -0.2539 -0.2797 -0.1702
   12CHTO   C86 4790   5.931  -0.088   9.856 -0.0828  0.6091 -0.4415
   12CHTO  H158 4791   5.881  -0.040   9.945 -1.4818 -1.6485  1.1548
   12CHTO   C90 4792   6.073  -0.030   9.847  0.2527  0.0259  0.2179
   12CHTO   O60 4793   6.116  -0.011   9.989  0.0279 -0.4209  0.4680
   12CHTO  H138 4794   6.145   0.078  10.003 -0.4421 -0.8315  3.1696
   12CHTO   O50 4795   5.732  -0.248  10.016  0.1629 -0.1512  0.4821
   12CHTO   C73 4796   5.632  -0.272  10.115 -0.4464  0.3705 -1.0401
   12CHTO  H145 4797   5.555  -0.346  10.069 -5.2061 -0.0457  1.3112
   12CHTO   C74 4798   5.559  -0.131  10.122 -0.2985 -0.2661 -0.6678
   12CHTO  H146 4799   5.531  -0.088  10.025  0.7090 -2.4932 -0.0157
   12CHTO   O54 4800   5.441  -0.164  10.194  0.5165 -0.9376  0.3487
   12CHTO  H133 4801   5.460  -0.182  10.280  0.3654 -1.7369  0.6946
   12CHTO   C75 4802   5.653  -0.033  10.202 -0.5459  0.0912 -0.4565
   12CHTO  H147 4803   5.737  -0.006  10.138  1.5766  0.3726 -0.6465
   12CHTO   N13 4804   5.585   0.094  10.231 -0.2268  0.1977 -0.0572
   12CHTO  H139 4805   5.603   0.113  10.336  0.5782 -0.4627  1.9288
   12CHTO  H140 4806   5.629   0.172  10.175 -0.1044  0.6002  2.5027
   12CHTO   C76 4807   5.721  -0.092  10.329 -1.0199  0.4614  0.0068
   12CHTO  H148 4808   5.641  -0.094  10.404  0.3541 -0.3057 -2.1865
   12CHTO   O49 4809   5.771  -0.219  10.300 -0.1454 -0.1771 -0.0970
   12CHTO   C77 4810   5.685  -0.318  10.255  0.2028 -0.0223  0.4882
   12CHTO  H149 4811   5.603  -0.347  10.314  1.0971 -0.1633 -3.0336
   12CHTO   C88 4812   5.765  -0.449  10.238 -0.1229  0.3253  0.5444
   12CHTO   O58 4813   5.823  -0.504  10.359 -0.0722  0.1302 -0.0357
   12CHTO  H136 4814   5.755  -0.518  10.421 -0.8672 -0.6889  0.0241
   12CHTO   O51 4815   5.847   0.003  10.361  0.1837 -0.4585 -1.1531
   12CHTO   C78 4816   5.940  -0.057  10.454 -0.3942  0.5562 -0.4419
   12CHTO  H150 4817   5.990  -0.151  10.409  0.2536 -1.4722  0.7580
   12CHTO   C80 4818   5.908  -0.092  10.603  0.3258  0.8865  0.3941
   12CHTO  H152 4819   5.863  -0.005  10.648  1.4222  1.6181 -0.5903
   12CHTO   O55 4820   5.802  -0.185  10.600  0.0451 -0.0250 -0.0428
   12CHTO  H134 4821   5.837  -0.264  10.575 -1.5490  1.0248  2.2726
   12CHTO   C84 4822   6.036  -0.145  10.679 -0.0403  0.8266 -0.3028
   12CHTO  H156 4823   6.082  -0.228  10.625 -0.2333  1.2696 -1.2333
   12CHTO   N15 4824   6.005  -0.191  10.821  0.7430  0.4146  0.4612
   12CHTO  H143 4825   5.918  -0.246  10.820 -1.5438 -1.8681  2.2622
   12CHTO  H144 4826   6.011  -0.141  10.907 -2.3898  1.3725  0.2815
   12CHTO   C87 4827   6.125  -0.027  10.676  1.5141  0.0543  0.0351
   12CHTO  H159 4828   6.078   0.059  10.719  0.8411 -3.3726  1.2300
   12CHTO   O53 4829   6.166   0.007  10.541 -0.2963 -0.0991 -0.2487
   12CHTO   C82 4830   6.054   0.043  10.454 -0.7946 -1.0063 -0.4058
   12CHTO  H154 4831   6.013   0.142  10.476 -1.2387  0.7681 -0.9078
   12CHTO   C89 4832   6.114   0.048  10.315 -0.5994 -0.0543 -0.3120
   12CHTO   O59 4833   6.218   0.144  10.298  0.6701 -0.2816  0.1626
   12CHTO  H137 4834   6.177   0.227  10.286  2.0463  1.9281 -3.7966
   12CHTO   O45 4835   6.274  -0.066  10.767  0.4993 -0.0855  0.3194
   12CHTO   C67 4836   6.366  -0.167  10.734  0.1692 -0.4734 -0.2117
   12CHTO  H124 4837   6.321  -0.265  10.753  1.3724  0.3563  2.8897
   12CHTO   C65 4838   6.421  -0.165  10.591 -0.8339 -1.1126  0.1839
   12CHTO  H122 4839   6.333  -0.159  10.524  1.0347  2.7868  3.3272
   12CHTO   O44 4840   6.497  -0.285  10.553 -0.0112 -0.1838 -0.1178
   12CHTO  H102 4841   6.555  -0.276  10.482  3.4272  1.0347 -0.0271
   12CHTO   C63 4842   6.502  -0.032  10.571 -0.0515 -0.0440 -0.5573
   12CHTO  H120 4843   6.434   0.048  10.581  0.8498 -5.2125 -0.0612
   12CHTO   N11 4844   6.541   0.003  10.430  0.4468  0.5281 -0.1095
   12CHTO  H108 4845   6.513   0.102  10.408 -0.2202 -0.8891 -1.8746
   12CHTO  H109 4846   6.644  -0.019  10.413  1.3506  0.9202 -0.2047
   12CHTO   C61 4847   6.618  -0.012  10.679 -0.5732 -0.0743  0.2657
   12CHTO  H118 4848   6.633   0.093  10.683  5.0318 -0.4186 -0.7813
   12CHTO   O40 4849   6.582  -0.051  10.819  0.0721 -0.3043  0.6890
   12CHTO   C68 4850   6.486  -0.162  10.837 -0.2664 -0.5258  0.2626
   12CHTO  H125 4851   6.432  -0.140  10.936 -2.7952 -0.5102 -0.0889
   12CHTO   C72 4852   6.564  -0.296  10.849  0.0918  0.3136 -0.7743
   12CHTO   O48 4853   6.658  -0.315  10.963 -0.4985 -0.5190 -0.0860
   12CHTO  H105 4854   6.735  -0.273  10.946  1.9903 -0.8806 -0.5154
   12CHTO   O38 4855   6.746  -0.074  10.655 -0.1403  0.4999  0.3249
   12CHTO   C55 4856   6.867   0.004  10.668 -0.3726  0.2638 -0.0455
   12CHTO  H112 4857   6.844   0.086  10.745  0.2877  3.1460  0.2109
   12CHTO   C56 4858   6.916   0.074  10.531  0.4636  0.3639 -0.9999
   12CHTO  H113 4859   6.895  -0.004  10.453 -1.3823 -1.5852 -1.4913
   12CHTO   O42 4860   6.826   0.186  10.498  0.0836  0.5335 -0.2413
   12CHTO  H100 4861   6.856   0.240  10.430  2.5488  1.5970 -1.4190
   12CHTO   C57 4862   7.059   0.126  10.541  0.3067  1.1540 -0.0843
   12CHTO  H114 4863   7.080   0.220  10.590  0.6522 -3.0706  0.0142
   12CHTO   N10 4864   7.107   0.173  10.406  0.1777  0.3553  0.1454
   12CHTO  H106 4865   7.035   0.233  10.344  0.6540  3.0409 -0.3609
   12CHTO  H107 4866   7.151   0.093  10.343  1.9765 -0.8321 -1.3253
   12CHTO   C58 4867   7.155   0.017  10.598  0.6038  0.6843 -0.5981
   12CHTO  H115 4868   7.166  -0.076  10.530  1.2760 -1.8849 -1.8550
   12CHTO   O37 4869   7.109  -0.025  10.727 -0.6668  0.0813 -0.1861
   12CHTO   C59 4870   6.985  -0.091  10.720  0.5501  0.2848  0.0139
   12CHTO  H116 4871   6.998  -0.175  10.662 -0.2911 -0.8558  0.2167
   12CHTO   C70 4872   6.941  -0.134  10.860 -0.0165  0.1959 -0.3871
   12CHTO   O46 4873   6.911  -0.038  10.963  0.1208 -0.4212  0.1766
   12CHTO  H103 4874   6.871   0.035  10.927 -0.5410 -1.6799  1.7803
   12CHTO   O39 4875   7.304   0.093  10.617 -0.0935 -0.1994 -0.1232
   12CHTO   C60 4876   7.384   0.036  10.722 -0.0991 -0.7769  0.4386
   12CHTO  H117 4877   7.323   0.010  10.807 -2.2608  1.1138  2.0032
   12CHTO   C62 4878   7.452  -0.089  10.664 -0.9292 -0.4884  0.5880
   12CHTO  H119 4879   7.372  -0.159  10.626 -0.2574  1.7555 -1.5887
   12CHTO   O43 4880   7.525  -0.057  10.541 -0.2500  0.7649  0.1173
   12CHTO  H101 4881   7.572   0.027  10.558  0.0172  0.7508 -0.8422
   12CHTO   C66 4882   7.536  -0.155  10.784  0.0504 -0.7664  0.4455
   12CHTO  H123 4883   7.472  -0.172  10.866 -1.4870  1.1050  0.7844
   12CHTO   N12 4884   7.596  -0.287  10.753  0.2328  0.0765 -0.0602
   12CHTO  H110 4885   7.652  -0.322  10.834  0.2583 -0.1147 -1.9682
   12CHTO  H111 4886   7.518  -0.361  10.727 -0.7709 -1.9009 -0.1892
   12CHTO   C69 4887   7.644  -0.062  10.845  0.4605 -0.2281  0.2535
   12CHTO  H126 4888   7.727  -0.039  10.773 -0.4787 -0.7327 -0.3018
   12CHTO   O41 4889   7.578   0.066  10.883 -0.3097 -0.0517  0.2603
   12CHTO   C64 4890   7.490   0.141  10.777  0.3277  0.0145 -0.6302
   12CHTO  H121 4891   7.549   0.179  10.690  0.6765  2.7994 -2.5039
   12CHTO   C71 4892   7.425   0.259  10.849 -0.2499 -0.4350 -0.2822
   12CHTO   O47 4893   7.518   0.345  10.914  0.2342 -0.1985  0.0725
   12CHTO  H104 4894   7.559   0.414  10.865  0.0642  0.1738  2.3332
   12CHTO   O34 4895   7.721  -0.105  10.969  0.0708  0.1301 -0.0636
   12CHTO   C49 4896   7.777  -0.066  11.097  0.1121  0.4421  0.0252
   12CHTO   H91 4897   7.859   0.006  11.074  2.4003 -1.4751 -1.1381
   12CHTO   C47 4898   7.834  -0.193  11.153 -0.3039 -0.7191  0.1021
   12CHTO   H89 4899   7.893  -0.157  11.239 -1.9454 -3.4682  3.0632
   12CHTO   O33 4900   7.931  -0.245  11.058 -0.1974 -0.0617  0.0657
   12CHTO   H70 4901   8.013  -0.247  11.099 -2.0841 -0.1425 -0.3468
   12CHTO   C45 4902   7.724  -0.307  11.190 -0.9172  0.0489  0.2816
   12CHTO   H87 4903   7.722  -0.381  11.104  1.2709  0.1430 -1.6980
   12CHTO    N8 4904   7.778  -0.380  11.308 -0.1536  0.0907  0.6546
   12CHTO   H75 4905   7.711  -0.461  11.334  1.1402  0.4139  0.7283
   12CHTO   H76 4906   7.793  -0.314  11.387  2.1333  2.8788  1.8728
   12CHTO   C43 4907   7.576  -0.242  11.207  0.1696 -0.3980 -0.1216
   12CHTO   H85 4908   7.543  -0.229  11.108 -0.4523 -0.3493  2.1369
   12CHTO   O29 4909   7.595  -0.117  11.278  0.3351 -0.2786 -0.3436
   12CHTO   C50 4910   7.664  -0.019  11.201  0.9970 -0.4422  0.1156
   12CHTO   H92 4911   7.588   0.027  11.137  0.5095  0.3935  0.6904
   12CHTO   C54 4912   7.720   0.093  11.295  0.6316  0.0380  0.2177
   12CHTO   O36 4913   7.773   0.200  11.218 -0.6872  0.0259 -0.1812
   12CHTO   H72 4914   7.710   0.240  11.163  0.5889  2.2581  0.8596
   12CHTO   O27 4915   7.485  -0.332  11.273 -0.1334 -0.4118  0.4463
   12CHTO   C37 4916   7.352  -0.384  11.286  0.5594  0.2750 -0.2560
   12CHTO   H79 4917   7.342  -0.441  11.378  0.4401 -1.9347 -0.4789
   12CHTO   C38 4918   7.245  -0.269  11.299  0.3093  0.2129 -0.0928
   12CHTO   H80 4919   7.259  -0.203  11.215 -0.5587 -2.6930 -1.3199
   12CHTO   O31 4920   7.269  -0.196  11.420 -0.3411  0.2452  0.1868
   12CHTO   H68 4921   7.364  -0.179  11.431  1.9196  1.2696  2.1268
   12CHTO   C39 4922   7.099  -0.329  11.293 -0.4874  0.3137  0.0290
   12CHTO   H81 4923   7.081  -0.366  11.392  0.1468 -1.2249  0.3708
   12CHTO    N7 4924   7.002  -0.216  11.276  0.2995  0.2447 -0.6441
   12CHTO   H73 4925   6.986  -0.160  11.372 -0.5849  1.3848 -0.8604
   12CHTO   H74 4926   6.913  -0.237  11.224  1.3741  1.5545  1.0960
   12CHTO   C40 4927   7.071  -0.460  11.200  0.2307 -0.1884 -0.4326
   12CHTO   H82 4928   7.036  -0.423  11.103 -0.8253 -1.0628 -1.4142
   12CHTO   O26 4929   7.190  -0.542  11.192  0.3981  0.2911  0.0765
   12CHTO   C41 4930   7.314  -0.473  11.166  0.2372 -0.4745 -0.2907
   12CHTO   H83 4931   7.300  -0.399  11.081 -1.1906 -0.1486  2.8281
   12CHTO   C52 4932   7.433  -0.567  11.122  1.0774  0.2028  0.1713
   12CHTO   O35 4933   7.399  -0.677  11.077  0.1595 -0.1933  0.1500
   12CHTO   H71 4934   7.377  -0.742  11.139 -0.8232  0.5183  0.8211
   12CHTO   O28 4935   6.971  -0.540  11.269  0.0560  0.3925  0.0521
   12CHTO   C42 4936   6.892  -0.641  11.202  0.1399 -0.6230  0.0731
   12CHTO   H84 4937   6.886  -0.718  11.274  2.2550  0.5100 -1.5495
   12CHTO   C44 4938   6.943  -0.702  11.071 -0.6091  0.1560 -0.9115
   12CHTO   H86 4939   6.969  -0.622  11.001 -2.5894  0.2285 -0.5017
   12CHTO   O32 4940   7.059  -0.767  11.103  0.1427  0.5690 -0.0575
   12CHTO   H69 4941   7.103  -0.793  11.022 -2.0128 -1.1174 -2.1800
   12CHTO   C48 4942   6.840  -0.796  11.007  0.3112 -0.5179 -0.4383
   12CHTO   H90 4943   6.815  -0.872  11.082  1.1344  0.7377 -0.8033
   12CHTO    N9 4944   6.887  -0.851  10.878  0.2305  0.0591 -0.4059
   12CHTO   H77 4945   6.810  -0.871  10.800 -1.3559 -0.9903  0.2340
   12CHTO   H78 4946   6.970  -0.796  10.835 -0.2030 -2.4911  1.2098
   12CHTO   C51 4947   6.704  -0.718  10.983 -0.4355  0.1056  0.9553
   12CHTO   H93 4948   6.722  -0.631  10.914  0.7629  0.4062  3.1146
   12CHTO   O30 4949   6.657  -0.671  11.111  0.3140 -0.1420  0.0087
   12CHTO   C46 4950   6.748  -0.583  11.183  0.5130 -0.2124 -0.7139
   12CHTO   H88 4951   6.761  -0.496  11.129 -0.5136  0.0835 -0.8409
   12CHTO   C53 4952   6.688  -0.541  11.322  0.8545  0.2244  0.0932
   12CHTO   O72 4953   6.653  -0.651  11.399  0.0492  0.3066 -0.2804
   12CHTO  H199 4954   6.611  -0.621  11.481  0.5041 -2.1599  1.6666
   12CHTO   O22 4955   6.602  -0.807  10.937 -0.2813 -0.2283  0.2313
   12CHTO   C31 4956   6.489  -0.773  10.838 -0.0974 -0.8234  0.1050
   12CHTO   H59 4957   6.424  -0.862  10.834  2.2777 -0.9340  1.8492
   12CHTO   C29 4958   6.402  -0.653  10.890  0.1971 -0.5368 -0.1042
   12CHTO   H57 4959   6.454  -0.557  10.893 -1.0728 -0.6265  1.6898
   12CHTO   O21 4960   6.370  -0.688  11.032 -0.1440  0.6484  0.3247
   12CHTO   H37 4961   6.310  -0.628  11.073 -1.1739 -0.6249  2.6665
   12CHTO   C27 4962   6.273  -0.643  10.797  0.8603 -0.4198 -1.2156
   12CHTO   H55 4963   6.218  -0.735  10.805  2.8998  4.3230  0.5538
   12CHTO    N5 4964   6.182  -0.540  10.842  0.9104 -0.1395 -0.3343
   12CHTO   H43 4965   6.239  -0.446  10.838  1.6300  0.2775  1.6679
   12CHTO   H44 4966   6.157  -0.561  10.943  4.0146 -1.1765 -1.5459
   12CHTO   C25 4967   6.323  -0.622  10.647  0.0527  0.2636  0.8928
   12CHTO   H53 4968   6.379  -0.528  10.644 -1.6938  0.5051  0.2811
   12CHTO   O17 4969   6.411  -0.737  10.611  0.4629 -0.0381 -0.0908
   12CHTO   C32 4970   6.530  -0.748  10.690  0.5561  0.1732  0.7165
   12CHTO   H60 4971   6.570  -0.648  10.686 -2.9061  1.1835  2.4706
   12CHTO   C36 4972   6.618  -0.862  10.627  0.2283  0.3415  0.4711
   12CHTO   O25 4973   6.637  -0.849  10.492 -0.6767 -0.5906 -0.1791
   12CHTO   H40 4974   6.687  -0.915  10.455  0.1351  3.7674 -1.6990
   12CHTO   O15 4975   6.190  -0.631  10.542  0.6406  0.1568 -0.2025
   12CHTO   C19 4976   6.141  -0.591  10.410 -0.3299 -0.8176 -0.5548
   12CHTO   H47 4977   6.037  -0.555  10.433 -2.0154  1.8114  1.2733
   12CHTO   C20 4978   6.210  -0.465  10.354  0.0445  0.0200 -0.7689
   12CHTO   H48 4979   6.322  -0.483  10.343  0.8114 -2.1427 -0.8536
   12CHTO   O19 4980   6.183  -0.353  10.448  0.4777 -0.0878 -0.4201
   12CHTO   H35 4981   6.260  -0.341  10.505  1.9054  0.6653 -0.3009
   12CHTO   C21 4982   6.156  -0.423  10.208 -0.1968  0.4967 -0.3718
   12CHTO   H49 4983   6.054  -0.395  10.226 -0.9257 -1.0645 -0.5274
   12CHTO    N4 4984   6.223  -0.304  10.152  0.6500 -0.4993 -0.2638
   12CHTO   H41 4985   6.317  -0.324  10.103  0.0888  0.9972  0.2163
   12CHTO   H42 4986   6.243  -0.232  10.236  2.1911 -4.1890  1.9224
   12CHTO   C22 4987   6.142  -0.544  10.112  0.1121 -0.6520  0.0304
   12CHTO   H50 4988   6.245  -0.580  10.090 -1.0492 -1.6748  0.6543
   12CHTO   O14 4989   6.071  -0.650  10.178  0.0926  0.1011 -0.4739
   12CHTO   C23 4990   6.141  -0.694  10.299 -0.5273  0.3349  0.0216
   12CHTO   H51 4991   6.246  -0.725  10.269  0.0004  0.0719  0.5519
   12CHTO   C34 4992   6.072  -0.826  10.349  0.2650 -0.3365 -0.1434
   12CHTO   O23 4993   6.164  -0.894  10.431  0.2054 -0.3338 -0.1135
   12CHTO   H38 4994   6.130  -0.984  10.456 -3.7640  0.6230 -0.9336
   12CHTO   O16 4995   6.082  -0.516   9.987  0.1875 -0.2151  0.3159
   12CHTO   C24 4996   6.108  -0.621   9.875 -0.2025 -0.4010 -0.2028
   12CHTO   H52 4997   6.150  -0.711   9.911 -0.0007 -1.5068  0.5921
   12CHTO   C26 4998   6.180  -0.551   9.758  0.2975  0.8041 -0.5218
   12CHTO   H54 4999   6.115  -0.471   9.714  0.4093  0.3787 -2.4913
   12CHTO   O20 5000   6.304  -0.514   9.812  1.1984  0.4460  0.0913
   12CHTO   H36 5001   6.362  -0.478   9.753  0.5330  0.2155  1.6321
   12CHTO   C30 5002   6.210  -0.651   9.635 -0.2493 -1.2887 -0.7033
   12CHTO   H58 5003   6.268  -0.734   9.676 -1.5478  0.0141 -1.9173
   12CHTO    N6 5004   6.274  -0.574   9.523 -0.4573 -0.2169 -0.0118
   12CHTO   H45 5005   6.310  -0.640   9.442 -0.2074  0.6678 -1.4348
   12CHTO   H46 5006   6.213  -0.498   9.486  0.9370 -0.8241  1.2238
   12CHTO   C33 5007   6.077  -0.713   9.590 -0.2032 -0.5223 -0.1666
   12CHTO   H61 5008   6.018  -0.638   9.533  0.6300 -1.6839  1.9459
   12CHTO   O18 5009   6.002  -0.752   9.704  0.2987  0.5313 -0.1025
   12CHTO   C28 5010   5.974  -0.661   9.812  0.0889  0.0382  0.0835
   12CHTO   H56 5011   5.924  -0.573   9.777 -1.4785 -1.7620  0.9946
   12CHTO   C35 5012   5.865  -0.723   9.915  0.3677 -0.1562 -0.6294
   12CHTO   O24 5013   5.903  -0.829  10.002 -0.3274  0.3632 -0.2459
   12CHTO   H39 5014   5.994  -0.821  10.008 -1.8681  0.6140 -2.1651
   12CHTO    O9 5015   6.103  -0.823   9.502 -0.2610 -0.1654  0.3834
   12CHTO   C13 5016   6.200  -0.947   9.531  0.4509 -0.2077 -0.0579
   12CHTO   H26 5017   6.234  -0.949   9.636  2.7311 -2.3206 -2.5763
   12CHTO   C11 5018   6.320  -0.943   9.432 -0.4479  0.0749  0.3895
   12CHTO   H24 5019   6.377  -0.847   9.455  0.6610 -1.9011 -0.1704
   12CHTO    O8 5020   6.265  -0.921   9.294  0.0713 -0.4613  0.1165
   12CHTO    H3 5021   6.182  -0.965   9.285 -1.6937 -1.6225  2.9441
   12CHTO    C9 5022   6.412  -1.068   9.447  0.4689 -0.4431 -0.5518
   12CHTO   H22 5023   6.439  -1.073   9.550 -0.6491  1.2945  1.7540
   12CHTO    N2 5024   6.537  -1.055   9.383  0.3805  0.2726  0.3746
   12CHTO   H10 5025   6.527  -1.036   9.280  3.4370  0.7503  1.4993
   12CHTO   H11 5026   6.604  -1.138   9.411  0.6532 -1.1132  2.6735
   12CHTO    C7 5027   6.336  -1.204   9.417  0.3578  0.4308 -0.3001
   12CHTO   H20 5028   6.389  -1.291   9.470  1.9101 -0.2315  2.4249
   12CHTO    O4 5029   6.198  -1.204   9.470  0.2453  0.3023 -0.5179
   12CHTO   C14 5030   6.133  -1.087   9.515 -0.0672 -0.1581 -0.2086
   12CHTO   H27 5031   6.097  -1.112   9.622 -0.9899  0.3044 -3.7208
   12CHTO   C18 5032   6.008  -1.076   9.434  0.3982  0.5087 -0.2132
   12CHTO   O13 5033   5.924  -1.193   9.436  0.3016  0.0918  0.8413
   12CHTO    H7 5034   5.837  -1.168   9.417 -0.6079  1.4909 -0.0967
   12CHTO    O2 5035   6.327  -1.225   9.263 -0.5280 -0.1802 -0.3547
   12CHTO    C1 5036   6.336  -1.360   9.221 -0.2406  0.4894 -0.1280
   12CHTO   H14 5037   6.312  -1.428   9.296  0.0775  1.0023  2.2175
   12CHTO    C2 5038   6.479  -1.395   9.151  0.4058 -0.6209 -0.2743
   12CHTO   H15 5039   6.502  -1.303   9.091 -0.3845 -1.1530 -0.3469
   12CHTO    O6 5040   6.571  -1.421   9.261  0.0475  0.2006  0.3936
   12CHTO    H1 5041   6.659  -1.436   9.235  1.9855  1.1482  1.8564
   12CHTO    C3 5042   6.474  -1.522   9.054 -0.0842  0.2464 -0.2494
   12CHTO   H16 5043   6.481  -1.602   9.130  2.0698  0.7292 -0.4234
   12CHTO    N1 5044   6.593  -1.537   8.967  0.0035 -0.1218  0.2651
   12CHTO    H8 5045   6.667  -1.502   9.030 -0.8943 -3.1470 -0.6310
   12CHTO    H9 5046   6.588  -1.476   8.877  1.4113 -0.0250 -3.9518
   12CHTO    C4 5047   6.337  -1.540   8.978 -0.3600  0.4983 -0.3271
   12CHTO   H17 5048   6.333  -1.470   8.885 -0.6826  1.8539 -3.7001
   12CHTO    O1 5049   6.234  -1.518   9.074  0.0524 -1.1879 -0.2601
   12CHTO    C5 5050   6.220  -1.381   9.115 -0.5725  0.4258  0.6806
   12CHTO   H18 5051   6.234  -1.314   9.033 -3.6445  4.5065  2.0402
   12CHTO   C16 5052   6.087  -1.354   9.178 -0.5131 -0.3970  0.1229
   12CHTO   O11 5053   5.979  -1.385   9.097 -0.0300  0.2273 -0.2128
   12CHTO    H5 5054   5.961  -1.310   9.040  2.0597  1.9302  2.1256
   12CHTO    O3 5055   6.315  -1.679   8.935 -0.4667  0.4521 -0.1082
   12CHTO    C6 5056   6.232  -1.690   8.812 -0.7261 -0.1923  0.3342
   12CHTO   H19 5057   6.202  -1.596   8.768  1.5208 -1.3649  1.3370
   12CHTO    C8 5058   6.315  -1.767   8.702 -0.0872 -0.0265 -0.1914
   12CHTO   H21 5059   6.346  -1.860   8.745 -0.1865  0.1740 -0.4025
   12CHTO    O7 5060   6.428  -1.686   8.665  0.6860  0.5527  0.2554
   12CHTO    H2 5061   6.403  -1.596   8.659  0.6153  0.8829 -1.6018
   12CHTO   C12 5062   6.225  -1.798   8.577  0.1762 -0.2340 -0.0229
   12CHTO   H25 5063   6.203  -1.696   8.531 -1.9058 -0.2711  0.3187
   12CHTO    N3 5064   6.285  -1.872   8.467 -0.6451 -0.0698 -0.2613
   12CHTO   H12 5065   6.219  -1.850   8.380 -2.5012 -1.1668 -0.2959
   12CHTO   H13 5066   6.397  -1.850   8.455 -0.2792 -1.6628  0.4076
   12CHTO   C15 5067   6.086  -1.866   8.628 -0.4260  0.3168 -0.0903
   12CHTO   H28 5068   6.114  -1.957   8.676  0.3070 -1.4020 -1.8684
   12CHTO   O10 5069   5.976  -1.881   8.533  0.2717 -0.3306  0.7174
   12CHTO    H4 5070   5.991  -1.956   8.481  1.7702 -0.5841 -2.5571
   12CHTO    O5 5071   6.021  -1.788   8.726 -0.6781  0.5192  0.0271
   12CHTO   C10 5072   6.101  -1.767   8.844  0.2243  0.0572 -0.4193
   12CHTO   H23 5073   6.122  -1.857   8.889  1.7634 -1.3597  0.0430
   12CHTO   C17 5074   6.018  -1.697   8.952 -0.3490  0.3593 -0.5668
   12CHTO   O12 5075   5.893  -1.767   8.991 -0.0232 -0.7944 -0.7508
   12CHTO    H6 5076   5.829  -1.699   9.011 -0.0944 -0.9152 -0.2933
   13CHTO  H203 5077   6.747   4.815   4.045 -1.1411  0.8048 -0.8595
   13CHTO   O82 5078   6.771   4.906   4.048 -0.1613 -0.1446 -0.3747
   13CHTO  C123 5079   6.664   4.984   4.102 -0.0142 -0.1257 -0.7272
   13CHTO  H227 5080   6.682   5.000   4.208  1.5422 -0.7914 -0.9394
   13CHTO   O77 5081   6.681   5.105   4.033  0.0543 -0.1939  0.3093
   13CHTO  C118 5082   6.598   5.210   4.086 -0.2576  0.1834 -0.2692
   13CHTO  H222 5083   6.599   5.205   4.192  1.9074 -0.2074 -4.3205
   13CHTO  C125 5084   6.653   5.343   4.033 -0.6451  0.3411 -0.2543
   13CHTO   O84 5085   6.769   5.385   4.107  0.4260  0.1657  0.5877
   13CHTO  H205 5086   6.844   5.338   4.085  0.1272 -0.6195  0.3028
   13CHTO  C114 5087   6.462   5.182   4.030 -0.1528 -0.7338 -0.5834
   13CHTO  H218 5088   6.467   5.169   3.924 -1.8021 -5.2523  1.1857
   13CHTO  C116 5089   6.413   5.046   4.076  0.1304 -0.2500 -0.2834
   13CHTO  H220 5090   6.400   5.060   4.181 -0.5554  0.1206 -0.0082
   13CHTO   O79 5091   6.286   5.016   4.012 -0.8606 -0.7377  0.4452
   13CHTO  H201 5092   6.295   5.027   3.922 -1.0623  1.2952  0.2607
   13CHTO  C120 5093   6.522   4.931   4.050 -0.5467  0.1048  0.1789
   13CHTO  H224 5094   6.523   4.897   3.937 -2.7132  0.5766  3.9370
   13CHTO   N21 5095   6.478   4.809   4.126 -0.0355  0.1610  0.1652
   13CHTO  H211 5096   6.523   4.723   4.080  1.2068  0.3447  0.1798
   13CHTO  H212 5097   6.372   4.797   4.131 -1.8086 -0.3794  0.2109
   13CHTO   O75 5098   6.381   5.297   4.055  0.3027  0.2023  0.2399
   13CHTO  C112 5099   6.320   5.318   4.209  0.2642  0.0950  0.1620
   13CHTO  H216 5100   6.391   5.290   4.280 -0.5840  0.2959 -3.5434
   13CHTO   O73 5101   6.200   5.235   4.219  0.1781  0.6946 -0.1180
   13CHTO  C113 5102   6.133   5.262   4.348  0.2501  0.1441  0.1242
   13CHTO  H217 5103   6.205   5.256   4.433 -1.9322  0.0504 -2.5270
   13CHTO  C124 5104   6.018   5.163   4.384  0.3564  0.3172 -0.3169
   13CHTO   O83 5105   5.907   5.182   4.289 -0.1474  0.1379 -0.6194
   13CHTO  H204 5106   5.860   5.264   4.298 -0.7735  0.1866 -0.7113
   13CHTO  C109 5107   6.078   5.414   4.342 -0.9703 -0.8781  0.0834
   13CHTO  H213 5108   6.025   5.427   4.246 -2.0333 -0.9172  0.4820
   13CHTO  C110 5109   6.207   5.504   4.348  0.4463 -0.5137  0.1735
   13CHTO  H214 5110   6.256   5.480   4.438  2.1306  0.8403  0.8531
   13CHTO   O78 5111   6.162   5.641   4.357 -0.3219  0.2535  0.7076
   13CHTO  H200 5112   6.222   5.699   4.318 -1.9416 -2.1032 -1.7739
   13CHTO  C111 5113   6.293   5.477   4.215  0.0616  0.2543  0.2842
   13CHTO  H215 5114   6.237   5.502   4.124  0.0978 -1.0339 -0.1196
   13CHTO   N19 5115   6.421   5.553   4.211  0.1654 -0.3122 -0.1874
   13CHTO  H207 5116   6.458   5.551   4.310 -1.7381  2.8030  0.9765
   13CHTO  H208 5117   6.409   5.647   4.168 -1.6620 -0.8994 -0.4426
   13CHTO   O74 5118   5.988   5.434   4.457 -0.2699  0.1105 -0.5991
   13CHTO  C115 5119   5.874   5.532   4.412 -0.0096 -0.2097  0.6058
   13CHTO  H219 5120   5.906   5.593   4.329  0.1209  0.2969 -3.3035
   13CHTO   O76 5121   5.750   5.455   4.360 -0.0546  0.1834  0.0007
   13CHTO  C122 5122   5.688   5.372   4.459  0.1688  0.2773  0.2137
   13CHTO  H226 5123   5.751   5.287   4.464 -0.5333  0.3215 -2.1191
   13CHTO  C126 5124   5.550   5.317   4.398 -0.0723 -0.4450  0.7030
   13CHTO   O85 5125   5.495   5.199   4.453 -0.4083  0.0175 -0.1391
   13CHTO  H206 5126   5.553   5.128   4.432 -0.7560 -0.8162 -2.4086
   13CHTO  C121 5127   5.673   5.442   4.599 -0.3232  0.0940  0.4339
   13CHTO  H225 5128   5.568   5.421   4.643 -2.6131  0.3716 -1.1699
   13CHTO   O81 5129   5.768   5.396   4.700  0.1521 -0.1659  0.3017
   13CHTO  H202 5130   5.775   5.297   4.698  2.9902 -0.2412 -2.2256
   13CHTO  C119 5131   5.698   5.597   4.590  0.0664 -0.1876  0.1619
   13CHTO  H223 5132   5.623   5.637   4.518 -0.2444  0.5841  2.8576
   13CHTO  C117 5133   5.842   5.626   4.534  0.1598  0.9983  0.4703
   13CHTO  H221 5134   5.921   5.610   4.607 -1.9442 -0.1594  1.1941
   13CHTO   N20 5135   5.857   5.770   4.500  0.3139 -0.1635 -0.0140
   13CHTO  H209 5136   5.786   5.797   4.417 -1.4655 -1.2441  2.1061
   13CHTO  H210 5137   5.954   5.780   4.460 -0.3724  0.4829  2.0994
   13CHTO   O80 5138   5.657   5.663   4.724  0.1353 -0.2563 -0.3334
   13CHTO  C103 5139   5.536   5.716   4.739 -0.1770  0.5137 -0.2369
   13CHTO  H190 5140   5.520   5.794   4.663 -0.2980  0.2481  0.2316
   13CHTO  C101 5141   5.408   5.617   4.761 -0.9264  0.1822 -0.3171
   13CHTO  H188 5142   5.446   5.542   4.830 -0.0446 -2.4713  0.0620
   13CHTO   O68 5143   5.372   5.557   4.600  0.2761 -0.0340  0.2044
   13CHTO  H168 5144   5.280   5.529   4.584 -4.1567 -0.2000  1.7632
   13CHTO   C99 5145   5.286   5.688   4.825 -0.1450  0.3253 -0.2929
   13CHTO  H186 5146   5.261   5.772   4.755 -1.9254 -1.2260 -0.6579
   13CHTO   N17 5147   5.170   5.602   4.838  0.1718  0.0672  0.1427
   13CHTO  H174 5148   5.097   5.647   4.768  1.5974  0.7454 -0.2344
   13CHTO  H175 5149   5.138   5.589   4.941 -2.4236 -1.2597  2.1544
   13CHTO   C97 5150   5.339   5.757   4.959  0.8351 -0.0782 -0.4008
   13CHTO  H184 5151   5.372   5.677   5.027 -0.3758 -0.0046 -0.1078
   13CHTO   O64 5152   5.439   5.848   4.936  0.1015 -0.3041 -0.5657
   13CHTO  C104 5153   5.557   5.788   4.880 -0.7263  0.3862 -0.0797
   13CHTO  H191 5154   5.595   5.716   4.944  1.9630 -0.2543 -0.4187
   13CHTO  C108 5155   5.668   5.896   4.871  0.1626  0.5265 -0.2886
   13CHTO   O71 5156   5.695   5.948   5.002 -0.2387 -0.2729  0.3880
   13CHTO  H171 5157   5.675   5.894   5.072 -1.6861  0.5684  0.4836
   13CHTO   O62 5158   5.235   5.837   5.017  0.1799  0.3501  0.3976
   13CHTO   C91 5159   5.245   5.855   5.155  0.2136 -0.3983  0.0653
   13CHTO  H178 5160   5.346   5.842   5.192 -1.8733 -1.1222  1.4073
   13CHTO   C92 5161   5.167   5.740   5.226  0.0345 -0.2163 -0.5042
   13CHTO  H179 5162   5.191   5.638   5.184  1.1835  0.1713  0.0321
   13CHTO   O66 5163   5.202   5.739   5.367 -0.5204 -0.1569  0.5080
   13CHTO  H166 5164   5.275   5.682   5.387  1.4933  0.7401  1.3501
   13CHTO   C93 5165   5.015   5.773   5.229 -0.0589 -0.7445  0.4130
   13CHTO  H180 5166   4.969   5.693   5.291 -1.4683 -0.4099 -2.1691
   13CHTO   N16 5167   4.935   5.767   5.105 -0.2941  0.7510 -0.2753
   13CHTO  H172 5168   4.837   5.767   5.141  3.8150 -0.0436 -2.4390
   13CHTO  H173 5169   4.955   5.674   5.064  1.9731  1.0232  1.4863
   13CHTO   C94 5170   4.987   5.909   5.298  0.8423 -0.1792 -0.6148
   13CHTO  H181 5171   4.911   5.965   5.248  0.3954 -1.5114  2.2779
   13CHTO   O61 5172   5.102   5.998   5.301  0.4310 -0.7098 -0.0156
   13CHTO   C95 5173   5.196   5.995   5.192  0.8260  0.5004 -0.1656
   13CHTO  H182 5174   5.154   6.046   5.109 -0.0038 -0.5388  0.4020
   13CHTO  C106 5175   5.309   6.092   5.237  0.1161  0.0681 -0.5769
   13CHTO   O69 5176   5.434   6.070   5.180 -0.0145  0.3291  0.0309
   13CHTO  H169 5177   5.453   6.136   5.120 -1.1637  1.0743  1.0905
   13CHTO   O63 5178   4.953   5.881   5.441  0.5178 -0.1103  0.2845
   13CHTO   C96 5179   4.885   5.986   5.516 -0.3465  0.5081 -0.1321
   13CHTO  H183 5180   4.864   6.065   5.447  0.1546 -2.8513  1.0154
   13CHTO   C98 5181   4.963   6.044   5.635 -0.4482 -0.2212 -0.3635
   13CHTO  H185 5182   5.065   6.070   5.592 -2.3604 -0.6586 -1.5755
   13CHTO   O67 5183   4.901   6.164   5.678  0.1346  0.2718 -0.3530
   13CHTO  H167 5184   4.966   6.232   5.679 -1.8097  0.0316  0.4702
   13CHTO  C102 5185   4.964   5.955   5.766 -0.0955 -0.2953 -0.2125
   13CHTO  H189 5186   4.977   6.029   5.851 -2.9657  0.9399  2.6886
   13CHTO   N18 5187   5.079   5.869   5.771 -0.0622 -0.2141 -0.0410
   13CHTO  H176 5188   5.111   5.833   5.871  0.5096 -2.8159 -0.7772
   13CHTO  H177 5189   5.073   5.791   5.704  0.7161  0.5405 -0.0637
   13CHTO  C105 5190   4.831   5.878   5.785  0.3281  0.1249  0.0274
   13CHTO  H192 5191   4.842   5.774   5.758 -1.2254 -1.1693  1.4614
   13CHTO   O65 5192   4.732   5.941   5.702  0.3222  0.6680  0.1695
   13CHTO  C100 5193   4.743   5.928   5.557 -0.4679 -0.4248  0.0093
   13CHTO  H187 5194   4.747   5.822   5.539 -0.0761 -0.7699 -3.0049
   13CHTO  C107 5195   4.619   5.987   5.487  0.0083  0.3362 -0.3029
   13CHTO   O70 5196   4.610   5.938   5.350  0.1683 -0.6600  0.2777
   13CHTO  H170 5197   4.627   6.017   5.298 -2.4938 -0.4712 -0.8192
   13CHTO   O57 5198   4.786   5.898   5.924 -0.1179 -0.0610  0.6471
   13CHTO   C85 5199   4.693   5.806   5.983 -0.6179 -0.1852  0.8175
   13CHTO  H157 5200   4.674   5.732   5.912 -0.3848 -4.2879 -3.3283
   13CHTO   C83 5201   4.551   5.868   6.006 -1.0187  0.3066  0.2660
   13CHTO  H155 5202   4.513   5.898   5.911  0.4405  2.1610  0.2928
   13CHTO   O56 5203   4.568   5.985   6.080  0.4521  0.0827  0.4122
   13CHTO  H135 5204   4.526   6.058   6.040 -1.9271  1.0515 -0.4110
   13CHTO   C81 5205   4.455   5.762   6.067 -0.4063  0.3420 -0.1322
   13CHTO  H153 5206   4.456   5.672   6.002  0.7814  2.0763 -1.5161
   13CHTO   N14 5207   4.313   5.800   6.067  0.5206 -0.2829  0.3253
   13CHTO  H141 5208   4.280   5.827   5.968 -1.1814  2.0875  0.7601
   13CHTO  H142 5209   4.250   5.727   6.108  0.4687 -0.3142 -0.3987
   13CHTO   C79 5210   4.511   5.713   6.201  0.8331  0.5156  0.0677
   13CHTO  H151 5211   4.444   5.632   6.235 -0.5936  3.6044  1.6566
   13CHTO   O52 5212   4.647   5.663   6.189 -0.3273  0.6105 -0.2131
   13CHTO   C86 5213   4.744   5.748   6.116  0.3420 -0.2873  0.4577
   13CHTO  H158 5214   4.777   5.833   6.177 -2.0074 -0.8265  1.5194
   13CHTO   C90 5215   4.875   5.665   6.089  1.0010  0.3716  0.9779
   13CHTO   O60 5216   4.846   5.539   6.023  0.1778 -0.4898  0.7445
   13CHTO  H138 5217   4.875   5.528   5.935  1.2116 -1.9322 -0.3746
   13CHTO   O50 5218   4.518   5.812   6.302  0.2796  0.1041  0.1556
   13CHTO   C73 5219   4.476   5.856   6.432 -0.5842  0.2762 -1.0004
   13CHTO  H145 5220   4.375   5.829   6.456  0.3544  2.1373 -0.4468
   13CHTO   C74 5221   4.483   6.011   6.442 -0.4311 -0.3700  0.1177
   13CHTO  H146 5222   4.419   6.050   6.364  1.0334 -2.0790 -1.0135
   13CHTO   O54 5223   4.421   6.046   6.570  0.2286  0.3297 -0.0074
   13CHTO  H133 5224   4.490   6.042   6.638  1.7057 -2.4340  1.4099
   13CHTO   C75 5225   4.634   6.069   6.426  0.1605 -0.0012 -0.0996
   13CHTO  H147 5226   4.672   6.036   6.330  0.6654 -3.2710  2.0838
   13CHTO   N13 5227   4.652   6.218   6.438 -0.1833  0.0194 -0.2843
   13CHTO  H139 5228   4.734   6.253   6.375 -0.5201 -0.5504  2.7862
   13CHTO  H140 5229   4.560   6.260   6.402  1.3553  0.5527  0.2321
   13CHTO   C76 5230   4.733   5.990   6.529 -0.6578  0.0872 -0.0292
   13CHTO  H148 5231   4.722   6.025   6.633 -0.8850  0.4843 -1.5987
   13CHTO   O49 5232   4.708   5.850   6.524  0.1780 -0.6166  0.5448
   13CHTO   C77 5233   4.570   5.806   6.548 -0.6957 -0.3162  0.3830
   13CHTO  H149 5234   4.539   5.839   6.644  1.8550 -1.3362  3.2516
   13CHTO   C88 5235   4.573   5.651   6.550 -0.1220  0.3472  0.5036
   13CHTO   O58 5236   4.431   5.605   6.596  0.1137  0.7361  0.0810
   13CHTO  H136 5237   4.438   5.553   6.673  1.0544 -0.6334  0.2178
   13CHTO   O51 5238   4.873   6.006   6.487 -0.8187  0.2157  0.1304
   13CHTO   C78 5239   4.983   5.978   6.599  0.5364  0.1647 -0.5607
   13CHTO  H150 5240   4.941   5.929   6.698  2.2325  1.5197 -1.3984
   13CHTO   C80 5241   5.062   6.104   6.625 -0.4791  0.4621  0.3871
   13CHTO  H152 5242   5.116   6.135   6.533  0.9985 -0.0577  0.9830
   13CHTO   O55 5243   4.965   6.208   6.648  0.0637 -0.0157 -0.2921
   13CHTO  H134 5244   5.006   6.279   6.685 -4.6229 -2.9278 -0.7616
   13CHTO   C84 5245   5.166   6.079   6.746  0.7475  0.2796 -0.2808
   13CHTO  H156 5246   5.100   6.045   6.829 -0.7521  2.8968 -2.1396
   13CHTO   N15 5247   5.237   6.202   6.797  0.3458  0.1250 -0.4009
   13CHTO  H143 5248   5.306   6.184   6.872 -1.4511 -0.5799 -2.0126
   13CHTO  H144 5249   5.289   6.241   6.714 -1.3925 -1.0280 -0.8653
   13CHTO   C87 5250   5.261   5.961   6.711  0.2961  0.3698  0.2338
   13CHTO  H159 5251   5.335   5.998   6.644 -2.6950  1.6485 -3.5584
   13CHTO   O53 5252   5.181   5.837   6.649  0.2392 -0.2811  0.2456
   13CHTO   C82 5253   5.078   5.865   6.556 -0.9713 -0.0745  0.6259
   13CHTO  H154 5254   5.122   5.883   6.456 -0.7691 -1.6849 -1.6414
   13CHTO   C89 5255   5.002   5.731   6.545  0.2377  0.6294  0.2781
   13CHTO   O59 5256   5.039   5.665   6.421  0.0061  0.6209  0.2541
   13CHTO  H137 5257   5.100   5.596   6.428 -1.3407  0.6854 -1.1796
   13CHTO   O45 5258   5.310   5.909   6.830 -0.0154  0.5688 -0.1826
   13CHTO   C67 5259   5.436   5.847   6.827 -0.5833 -0.5102  0.1847
   13CHTO  H124 5260   5.466   5.841   6.721 -2.5773  0.7826 -0.7465
   13CHTO   C65 5261   5.539   5.922   6.909  0.2385 -0.6530  0.3512
   13CHTO  H122 5262   5.482   5.959   7.001  1.1716  1.8286  0.4731
   13CHTO   O44 5263   5.571   6.044   6.833  0.5663 -0.0391  1.1198
   13CHTO  H102 5264   5.609   6.106   6.889  0.2725 -0.7165  1.2603
   13CHTO   C63 5265   5.656   5.834   6.961 -0.1493 -0.6572 -0.3853
   13CHTO  H120 5266   5.616   5.788   7.051 -0.2400  0.2888 -1.7050
   13CHTO   N11 5267   5.794   5.895   7.003  0.3958  0.3331  0.0597
   13CHTO  H108 5268   5.853   5.930   6.923 -0.0895 -1.2372  2.6644
   13CHTO  H109 5269   5.803   5.944   7.095 -3.1258 -1.6454  2.5808
   13CHTO   C61 5270   5.681   5.716   6.859 -0.2421  0.3618 -0.0805
   13CHTO  H118 5271   5.757   5.652   6.907 -0.7321 -0.7744 -1.1806
   13CHTO   O40 5272   5.560   5.633   6.848  0.1804 -0.6046 -0.3983
   13CHTO   C68 5273   5.426   5.695   6.875  0.9696  0.1900 -0.2695
   13CHTO  H125 5274   5.401   5.680   6.993  0.8700  1.8599  1.1253
   13CHTO   C72 5275   5.318   5.610   6.799  0.1536  0.2758 -0.5399
   13CHTO   O48 5276   5.286   5.493   6.865 -0.4176 -0.2410  0.2139
   13CHTO  H105 5277   5.267   5.526   6.948 -0.1920 -1.9218 -0.5138
   13CHTO   O38 5278   5.726   5.772   6.734  0.2384 -0.0351  0.3170
   13CHTO   C55 5279   5.731   5.693   6.613  0.2836  0.1548  0.1894
   13CHTO  H112 5280   5.631   5.664   6.588  0.3612  4.1145  3.2748
   13CHTO   C56 5281   5.831   5.572   6.614 -0.0309 -0.4983 -0.7412
   13CHTO  H113 5282   5.920   5.605   6.665 -1.2189  1.7792 -2.7974
   13CHTO   O42 5283   5.782   5.466   6.697 -0.3444 -0.0132 -0.3164
   13CHTO  H100 5284   5.695   5.444   6.681  0.8047  0.9621 -1.6301
   13CHTO   C57 5285   5.869   5.512   6.473  0.8094 -0.5706  0.4039
   13CHTO  H114 5286   5.778   5.465   6.440 -0.5242 -0.1541  0.5816
   13CHTO   N10 5287   5.975   5.409   6.478 -0.7843 -0.4782 -0.3285
   13CHTO  H106 5288   5.947   5.335   6.405 -0.2332 -0.2889  0.9029
   13CHTO  H107 5289   5.968   5.364   6.573  1.0340 -2.7946 -1.2556
   13CHTO   C58 5290   5.898   5.631   6.379  0.5452 -0.0964 -0.5507
   13CHTO  H115 5291   5.990   5.695   6.414  2.2630 -0.1584 -2.8859
   13CHTO   O37 5292   5.788   5.729   6.381  0.1184  1.0794 -0.1925
   13CHTO   C59 5293   5.772   5.792   6.504  0.1926  0.3157 -0.7857
   13CHTO  H116 5294   5.867   5.837   6.541 -0.1191 -1.8586  0.9943
   13CHTO   C70 5295   5.675   5.906   6.481 -0.1205  0.0562  0.0674
   13CHTO   O46 5296   5.731   6.026   6.422  0.0388  0.0342 -0.3517
   13CHTO  H103 5297   5.677   6.098   6.446 -0.7937  2.0948 -0.1631
   13CHTO   O39 5298   5.919   5.593   6.236  0.0635 -0.1186  0.8038
   13CHTO   C60 5299   6.030   5.667   6.174  0.6564  0.1461 -0.3778
   13CHTO  H117 5300   6.067   5.739   6.241 -1.4976 -0.5128 -0.5176
   13CHTO   C62 5301   6.158   5.582   6.145  0.2000  0.0242 -0.3941
   13CHTO  H119 5302   6.199   5.551   6.249  2.3119 -1.5578  2.8364
   13CHTO   O43 5303   6.121   5.460   6.079 -0.4605  0.0849 -0.1048
   13CHTO  H101 5304   6.073   5.406   6.137  0.6956 -0.2369 -1.6189
   13CHTO   C66 5305   6.265   5.664   6.065 -0.2868  0.2259  0.0950
   13CHTO  H123 5306   6.295   5.751   6.127  3.7626 -0.2698 -3.0785
   13CHTO   N12 5307   6.391   5.592   6.040  0.3091 -0.7269 -0.0526
   13CHTO  H110 5308   6.377   5.496   5.989  0.0394  2.4255 -0.4812
   13CHTO  H111 5309   6.450   5.584   6.131  1.3927 -2.8368 -0.4779
   13CHTO   C69 5310   6.202   5.723   5.937 -0.2460  0.0369  0.0745
   13CHTO  H126 5311   6.157   5.639   5.881  1.5925  2.7252  0.6376
   13CHTO   O41 5312   6.086   5.813   5.979 -0.4663 -0.3027  0.0605
   13CHTO   C64 5313   5.977   5.745   6.050 -0.0141 -0.6848  0.1482
   13CHTO  H121 5314   5.942   5.674   5.982  2.6750  2.2312 -0.3130
   13CHTO   C71 5315   5.870   5.856   6.070  0.4706 -0.1430 -0.4453
   13CHTO   O47 5316   5.744   5.809   6.116  0.1662  0.0680 -0.3125
   13CHTO  H104 5317   5.684   5.873   6.151  0.6298  0.0719 -0.8716
   13CHTO   O34 5318   6.320   5.818   5.855  0.1484 -0.3966  0.2884
   13CHTO   C49 5319   6.420   5.928   5.807 -0.3236 -0.6512  0.2415
   13CHTO   H91 5320   6.438   5.906   5.698  3.1006  0.9654  0.9525
   13CHTO   C47 5321   6.553   5.920   5.879  0.2185  0.2348 -0.0543
   13CHTO   H89 5322   6.611   5.978   5.819  0.1558 -0.3953  0.3013
   13CHTO   O33 5323   6.603   5.787   5.874  0.5476 -0.7440 -0.0557
   13CHTO   H70 5324   6.594   5.739   5.956 -0.9010  0.4342  0.1507
   13CHTO   C45 5325   6.541   5.977   6.028 -0.5197  0.7223  0.4015
   13CHTO   H87 5326   6.520   5.900   6.099 -0.6707  0.0361  0.1770
   13CHTO    N8 5327   6.672   6.040   6.064  0.3876 -0.6666  0.6481
   13CHTO   H75 5328   6.657   6.090   6.158  1.2413 -3.3042 -1.8802
   13CHTO   H76 5329   6.753   5.966   6.087  0.0808  1.0019  1.0916
   13CHTO   C43 5330   6.415   6.071   6.054 -0.0724  0.2727 -0.3949
   13CHTO   H85 5331   6.336   6.001   6.067  1.3447  0.9193 -2.9441
   13CHTO   O29 5332   6.394   6.149   5.934 -0.0239  0.5430 -0.3103
   13CHTO   C50 5333   6.358   6.067   5.820 -0.4556 -0.7794  0.3069
   13CHTO   H92 5334   6.251   6.052   5.802 -1.1010 -2.6703 -0.5382
   13CHTO   C54 5335   6.379   6.153   5.693  0.3265  0.2423  0.0291
   13CHTO   O36 5336   6.282   6.263   5.671  0.0052 -0.0425  0.2078
   13CHTO   H72 5337   6.236   6.285   5.743 -0.7061 -1.6229 -2.5130
   13CHTO   O27 5338   6.416   6.146   6.178 -0.3497  0.2813 -0.2408
   13CHTO   C37 5339   6.316   6.222   6.249  0.6263 -0.4152 -0.4017
   13CHTO   H79 5340   6.236   6.264   6.186 -2.5276  1.2774  0.8847
   13CHTO   C38 5341   6.244   6.141   6.360  0.1737  0.0336  0.0045
   13CHTO   H80 5342   6.314   6.091   6.422 -0.3176  3.3686  2.7747
   13CHTO   O31 5343   6.162   6.033   6.302 -0.1311 -0.2748  0.8340
   13CHTO   H68 5344   6.087   6.075   6.267 -1.0152 -1.6008 -2.7734
   13CHTO   C39 5345   6.157   6.237   6.451 -0.1457 -0.1893  0.1889
   13CHTO   H81 5346   6.081   6.280   6.390 -0.3033  0.5944  1.8609
   13CHTO    N7 5347   6.092   6.172   6.566  0.0077 -0.5569 -0.1300
   13CHTO   H73 5348   6.122   6.071   6.575 -0.5942  2.1771 -0.4271
   13CHTO   H74 5349   5.984   6.173   6.561  1.1432  0.0198 -3.8004
   13CHTO   C40 5350   6.237   6.364   6.500 -0.9813 -0.1843  0.1007
   13CHTO   H82 5351   6.307   6.333   6.568 -2.0191 -0.7956 -2.1588
   13CHTO   O26 5352   6.299   6.429   6.386  0.0091 -0.0477  0.1251
   13CHTO   C41 5353   6.388   6.342   6.318  0.3415 -0.9610 -0.2713
   13CHTO   H83 5354   6.460   6.300   6.385  1.5410  1.4040  0.8316
   13CHTO   C52 5355   6.462   6.421   6.205 -0.2794  0.3170  0.2837
   13CHTO   O35 5356   6.559   6.514   6.257 -0.5451 -0.0711  0.3306
   13CHTO   H71 5357   6.522   6.601   6.275  0.5626  2.7623 -0.3097
   13CHTO   O28 5358   6.152   6.461   6.558 -0.3734  0.1054  0.2633
   13CHTO   C42 5359   6.212   6.550   6.660  0.1640 -0.1323  0.4098
   13CHTO   H84 5360   6.142   6.634   6.675 -0.9456 -0.0252  0.5351
   13CHTO   C44 5361   6.347   6.619   6.616  0.6808 -0.1274 -0.5650
   13CHTO   H86 5362   6.415   6.538   6.608  1.3291 -0.2027  1.5237
   13CHTO   O32 5363   6.323   6.693   6.491  0.0418 -0.4543  0.1775
   13CHTO   H69 5364   6.295   6.638   6.419  0.4029 -1.0993 -0.8440
   13CHTO   C48 5365   6.412   6.711   6.731 -0.2354 -0.1326  0.4452
   13CHTO   H90 5366   6.344   6.793   6.755  0.9736  0.2988  2.7445
   13CHTO    N9 5367   6.549   6.760   6.681  0.8459  0.4326 -0.2915
   13CHTO   H77 5368   6.554   6.869   6.681  2.8024 -0.4087  0.8154
   13CHTO   H78 5369   6.637   6.712   6.734  1.2468 -0.4121  1.5186
   13CHTO   C51 5370   6.413   6.637   6.866  0.0943 -0.2646 -0.1390
   13CHTO   H93 5371   6.489   6.557   6.868 -1.9839  0.8528 -1.2197
   13CHTO   O30 5372   6.282   6.588   6.897  0.0479  0.0101 -0.1692
   13CHTO   C46 5373   6.228   6.473   6.794  0.6957 -0.1284 -0.0484
   13CHTO   H88 5374   6.307   6.395   6.788 -1.0448  0.1174 -0.3164
   13CHTO   C53 5375   6.096   6.413   6.858 -0.0054 -0.1310 -0.4960
   13CHTO   O72 5376   6.115   6.329   6.971 -0.7880 -0.2509  0.8615
   13CHTO  H199 5377   6.154   6.246   6.948  0.0618  0.6622 -2.1727
   13CHTO   O22 5378   6.452   6.726   6.962  0.2414  0.3426  0.1724
   13CHTO   C31 5379   6.423   6.706   7.107 -0.1272  0.5645  1.0889
   13CHTO   H59 5380   6.315   6.715   7.120  0.2001  2.7095 -0.9589
   13CHTO   C29 5381   6.467   6.570   7.171  0.4488 -0.7421  0.4069
   13CHTO   H57 5382   6.574   6.554   7.141 -0.9501 -1.6708  0.9567
   13CHTO   O21 5383   6.394   6.459   7.112 -0.4459 -0.0143 -0.0520
   13CHTO   H37 5384   6.421   6.389   7.165 -0.0560  5.3420 -1.5075
   13CHTO   C27 5385   6.454   6.570   7.329  0.2513 -0.0611 -0.7222
   13CHTO   H55 5386   6.351   6.572   7.361 -0.2755  2.1873  1.8355
   13CHTO    N5 5387   6.517   6.446   7.384  0.0845  0.2756 -0.4656
   13CHTO   H43 5388   6.527   6.444   7.489 -0.1974 -2.3219 -1.5979
   13CHTO   H44 5389   6.451   6.361   7.357  1.8252  1.8752  0.4152
   13CHTO   C25 5390   6.509   6.709   7.388 -0.4071 -0.5762  0.4839
   13CHTO   H53 5391   6.615   6.723   7.361 -0.0562  0.7097  0.9377
   13CHTO   O17 5392   6.434   6.814   7.321  0.7320 -0.0767 -0.2094
   13CHTO   C32 5393   6.477   6.828   7.181  0.8044  0.5528  0.1179
   13CHTO   H60 5394   6.590   6.829   7.174  1.0077  0.7248 -1.4589
   13CHTO   C36 5395   6.423   6.960   7.128  0.3573  0.4829 -0.1349
   13CHTO   O25 5396   6.471   7.079   7.195  0.6178 -0.0165  0.3453
   13CHTO   H40 5397   6.496   7.149   7.135  0.7073  2.3430 -1.8073
   13CHTO   O15 5398   6.495   6.711   7.538  0.6252  0.1406  0.1202
   13CHTO   C19 5399   6.443   6.766   7.664 -0.1939 -0.1663  0.2562
   13CHTO   H47 5400   6.524   6.724   7.731 -1.8281 -0.3470 -1.2462
   13CHTO   C20 5401   6.452   6.917   7.676  0.0869 -0.6553  0.4154
   13CHTO   H48 5402   6.401   6.967   7.591  0.0638 -2.0542 -3.5643
   13CHTO   O19 5403   6.593   6.960   7.665 -0.4498  0.4131  0.1109
   13CHTO   H35 5404   6.617   6.952   7.578 -0.6838  0.0418 -0.2174
   13CHTO   C21 5405   6.388   6.970   7.808 -0.4183 -0.5039  0.3617
   13CHTO   H49 5406   6.462   6.955   7.885  1.2326  0.0245  0.6195
   13CHTO    N4 5407   6.368   7.122   7.786  0.2800 -0.3368 -0.3280
   13CHTO   H41 5408   6.333   7.174   7.876  3.4394  3.7342 -0.4814
   13CHTO   H42 5409   6.287   7.127   7.716  0.4116  4.1644 -1.1591
   13CHTO   C22 5410   6.259   6.899   7.848 -0.2805  0.3922 -0.6267
   13CHTO   H50 5411   6.173   6.943   7.798 -0.4715 -0.4575 -1.8861
   13CHTO   O14 5412   6.254   6.756   7.831 -0.9696  0.0223  0.0380
   13CHTO   C23 5413   6.304   6.707   7.704 -0.5111  0.3764 -0.0445
   13CHTO   H51 5414   6.229   6.731   7.632 -1.5389  1.6715 -0.8900
   13CHTO   C34 5415   6.310   6.558   7.708  0.1369 -0.3549 -0.8536
   13CHTO   O23 5416   6.182   6.501   7.669  0.5371 -0.1185 -0.6058
   13CHTO   H38 5417   6.137   6.451   7.734  0.4102  0.6945  0.9142
   13CHTO   O16 5418   6.256   6.912   7.991 -0.6143  0.4040 -0.5868
   13CHTO   C24 5419   6.114   6.939   8.057  0.3855  0.1288  0.2119
   13CHTO   H52 5420   6.034   6.902   7.998  0.7755 -1.1122  1.1808
   13CHTO   C26 5421   6.098   7.088   8.074  0.1687 -0.5072 -0.0539
   13CHTO   H54 5422   6.200   7.130   8.103  1.2979 -1.6318  1.8841
   13CHTO   O20 5423   6.060   7.150   7.950 -0.0601 -0.2399 -0.0428
   13CHTO   H36 5424   6.127   7.214   7.934 -1.6045 -1.5682  2.8546
   13CHTO   C30 5425   5.982   7.117   8.168  0.3397 -0.5123 -0.8208
   13CHTO   H58 5426   5.888   7.109   8.115 -1.0131 -0.1426 -0.0770
   13CHTO    N6 5427   5.972   7.259   8.211 -0.0060 -0.2214 -0.5624
   13CHTO   H45 5428   5.988   7.326   8.125 -1.5575  2.2122 -1.2808
   13CHTO   H46 5429   5.879   7.281   8.260 -0.0877  0.8687  0.1185
   13CHTO   C33 5430   5.977   7.025   8.295  1.2095 -0.0886 -0.4297
   13CHTO   H61 5431   6.048   7.063   8.371  0.2642 -0.3728 -1.7614
   13CHTO   O18 5432   5.998   6.885   8.259 -0.8969 -0.1341  0.0078
   13CHTO   C28 5433   6.115   6.859   8.195 -0.3304 -0.0128  0.4068
   13CHTO   H56 5434   6.199   6.893   8.257  0.7564 -0.1224  0.1804
   13CHTO   C35 5435   6.129   6.708   8.178  0.3637 -0.1086  0.2145
   13CHTO   O24 5436   6.250   6.678   8.107  0.0196  0.3131  0.1730
   13CHTO   H39 5437   6.262   6.583   8.119  3.1362 -2.0014 -2.3519
   13CHTO    O9 5438   5.846   7.042   8.354 -0.1208  0.0550  0.0135
   13CHTO   C13 5439   5.827   6.968   8.480 -0.2175 -0.1949 -0.4321
   13CHTO   H26 5440   5.923   6.973   8.538  0.2801  2.3696 -0.2646
   13CHTO   C11 5441   5.779   6.820   8.460 -0.2667  0.0148 -0.7896
   13CHTO   H24 5442   5.862   6.757   8.452 -0.2595 -1.9943  1.6673
   13CHTO    O8 5443   5.707   6.813   8.331 -0.3778  0.3562 -0.6866
   13CHTO    H3 5444   5.647   6.886   8.336  0.1293  3.2094 -1.3285
   13CHTO    C9 5445   5.695   6.769   8.578 -0.5775  0.0492  0.4431
   13CHTO   H22 5446   5.748   6.795   8.669 -0.1422 -1.8826 -0.2668
   13CHTO    N2 5447   5.677   6.622   8.594 -0.4502 -0.0349 -0.1196
   13CHTO   H10 5448   5.597   6.601   8.659 -0.2997  0.4325  0.0865
   13CHTO   H11 5449   5.667   6.586   8.488 -2.0233 -0.2663  0.5489
   13CHTO    C7 5450   5.559   6.851   8.576 -0.1353  0.8803  0.1649
   13CHTO   H20 5451   5.519   6.839   8.675  0.6264  0.5774  1.0584
   13CHTO    O4 5452   5.581   6.988   8.548  0.1552 -0.4299 -0.7507
   13CHTO   C14 5453   5.709   7.044   8.565  0.1835  0.4948 -0.3478
   13CHTO   H27 5454   5.743   7.021   8.661  1.5591  1.8803 -0.4362
   13CHTO   C18 5455   5.704   7.196   8.553 -0.4158 -0.0347 -0.1246
   13CHTO   O13 5456   5.833   7.251   8.593 -0.1493 -0.1131  0.1053
   13CHTO    H7 5457   5.817   7.330   8.635  0.1581 -0.6702  1.3604
   13CHTO    O2 5458   5.455   6.799   8.462  0.5985  0.2281 -0.6734
   13CHTO    C1 5459   5.336   6.873   8.439 -0.4894 -0.4101 -0.4278
   13CHTO   H14 5460   5.361   6.983   8.446 -1.7924  0.1004 -1.6148
   13CHTO    C2 5461   5.215   6.843   8.530 -0.0514 -0.0926  0.1479
   13CHTO   H15 5462   5.206   6.736   8.546  2.0627  1.9000  0.8652
   13CHTO    O6 5463   5.235   6.903   8.655  0.4319 -0.0656  0.3988
   13CHTO    H1 5464   5.253   6.996   8.642  0.9517 -0.0475 -0.4005
   13CHTO    C3 5465   5.074   6.898   8.456 -0.0436 -0.5185 -0.6352
   13CHTO   H16 5466   5.079   7.008   8.462 -0.2670  1.5885 -2.6342
   13CHTO    N1 5467   4.956   6.867   8.535 -0.3054 -0.4478  0.3082
   13CHTO    H8 5468   4.946   6.757   8.527  1.2540 -0.7488 -2.0714
   13CHTO    H9 5469   4.964   6.913   8.635  0.4584  1.0092  0.8088
   13CHTO    C4 5470   5.070   6.862   8.304  0.1890  0.2209  0.7777
   13CHTO   H17 5471   5.052   6.750   8.296  2.4078 -1.5726 -0.4221
   13CHTO    O1 5472   5.192   6.914   8.241  0.5321  1.1726 -0.2102
   13CHTO    C5 5473   5.303   6.844   8.288  0.2933  0.6022 -0.2846
   13CHTO   H18 5474   5.270   6.738   8.289  0.2255 -1.0397  0.7562
   13CHTO   C16 5475   5.419   6.858   8.193  0.5266 -0.0800  0.3431
   13CHTO   O11 5476   5.457   6.997   8.184  0.3197 -0.5068  0.2572
   13CHTO    H5 5477   5.499   7.003   8.105  2.1111 -0.5471 -0.1579
   13CHTO    O3 5478   4.963   6.939   8.243 -0.7156  0.1201  0.2016
   13CHTO    C6 5479   4.885   6.890   8.135 -0.0683 -0.1945  0.1283
   13CHTO   H19 5480   4.901   6.786   8.103 -0.2450  3.2350 -1.2323
   13CHTO    C8 5481   4.733   6.910   8.182  0.4062 -0.1873  0.1168
   13CHTO   H21 5482   4.723   7.007   8.220  2.5638  0.6447  0.8186
   13CHTO    O7 5483   4.702   6.815   8.285 -0.3417 -0.0970  0.9594
   13CHTO    H2 5484   4.715   6.857   8.364 -0.6927 -3.0089  1.1898
   13CHTO   C12 5485   4.631   6.893   8.056 -0.4829 -1.1684 -0.1735
   13CHTO   H25 5486   4.642   6.780   8.036 -0.7646 -0.9487  0.4143
   13CHTO    N3 5487   4.496   6.932   8.099 -0.4017  0.2031 -0.5102
   13CHTO   H12 5488   4.491   7.010   8.173 -0.3316 -1.4695 -0.2074
   13CHTO   H13 5489   4.437   6.849   8.136  0.7581  0.8517  1.3087
   13CHTO   C15 5490   4.679   6.977   7.934 -0.3673  0.7617 -0.1170
   13CHTO   H28 5491   4.674   7.083   7.939 -0.7470  0.5027 -0.9213
   13CHTO   O10 5492   4.606   6.931   7.801 -0.6022  0.3084  0.2670
   13CHTO    H4 5493   4.550   7.000   7.769  0.3877 -1.8295 -2.3602
   13CHTO    O5 5494   4.822   6.950   7.900 -0.5343  0.1745 -0.3492
   13CHTO   C10 5495   4.909   6.974   8.017  0.3420 -0.0546 -0.0933
   13CHTO   H23 5496   4.897   7.076   8.034  4.4408 -0.9612  0.9843
   13CHTO   C17 5497   5.054   6.962   7.964 -0.4879  0.1770 -0.1076
   13CHTO   O12 5498   5.106   6.827   7.948  0.1366 -0.3138  0.5588
   13CHTO    H6 5499   5.090   6.808   7.858  0.7104  1.1714 -2.2556
   14CHTO  H203 5500   5.365   5.924   6.337 -0.7228  0.6230  0.1371
   14CHTO   O82 5501   5.335   5.842   6.369  0.1227  0.1310  0.1506
   14CHTO  C123 5502   5.390   5.743   6.289  0.1155  0.0939  0.2001
   14CHTO  H227 5503   5.500   5.757   6.281  0.8032  1.7798  0.2621
   14CHTO   O77 5504   5.381   5.628   6.380  0.2475  0.3223 -0.1980
   14CHTO  C118 5505   5.403   5.496   6.322 -0.3001 -0.2947 -0.1074
   14CHTO  H222 5506   5.517   5.496   6.288  4.0813 -3.4518 -1.5469
   14CHTO  C125 5507   5.394   5.388   6.434  0.1169  0.0535 -0.1524
   14CHTO   O84 5508   5.506   5.393   6.516 -0.1768  0.0824  0.0092
   14CHTO  H205 5509   5.547   5.311   6.517 -0.4161  1.3795  0.4818
   14CHTO  C114 5510   5.307   5.472   6.204  0.5741 -0.8705  0.3008
   14CHTO  H218 5511   5.205   5.496   6.238  1.7173  1.0191  0.6904
   14CHTO  C116 5512   5.353   5.569   6.093 -0.3092  0.0166 -0.3232
   14CHTO  H220 5513   5.462   5.552   6.081 -2.1353  5.1829 -0.7361
   14CHTO   O79 5514   5.294   5.548   5.965 -0.0456 -0.1500 -0.2608
   14CHTO  H201 5515   5.321   5.600   5.892 -4.1379  0.6253 -0.1490
   14CHTO  C120 5516   5.325   5.717   6.146  0.2683 -0.3954  0.3765
   14CHTO  H224 5517   5.215   5.712   6.158  0.6423 -0.1487 -1.5676
   14CHTO   N21 5518   5.377   5.830   6.064 -0.2302 -0.2913 -0.3192
   14CHTO  H211 5519   5.297   5.876   6.004  2.7823 -1.1005 -0.6976
   14CHTO  H212 5520   5.443   5.905   6.114  0.6913 -3.0065  1.6177
   14CHTO   O75 5521   5.325   5.337   6.170 -0.6078 -0.1944 -0.0064
   14CHTO  C112 5522   5.194   5.241   6.090  0.1298 -0.0743  0.4877
   14CHTO  H216 5523   5.214   5.130   6.101 -2.8930 -1.2277 -1.0193
   14CHTO   O73 5524   5.193   5.277   5.947  0.3865  0.4184 -0.0997
   14CHTO  C113 5525   5.099   5.215   5.862 -0.0259  0.4885  0.0027
   14CHTO  H217 5526   5.108   5.102   5.861  1.3345  0.9598  0.0996
   14CHTO  C124 5527   5.126   5.254   5.711  0.0281  0.7998 -0.7459
   14CHTO   O83 5528   5.112   5.393   5.677 -0.1284 -0.0819  0.0405
   14CHTO  H204 5529   5.161   5.442   5.738 -1.4417  1.2617  1.3801
   14CHTO  C109 5530   4.962   5.246   5.912 -0.0606  0.2683  0.1347
   14CHTO  H213 5531   4.945   5.353   5.891 -2.2880 -0.3383 -1.2991
   14CHTO  C110 5532   4.940   5.212   6.069 -0.5897 -0.2965  0.2230
   14CHTO  H214 5533   4.931   5.106   6.084 -0.3181  0.7067 -0.6619
   14CHTO   O78 5534   4.815   5.276   6.114 -0.3975  0.0024  0.0437
   14CHTO  H200 5535   4.797   5.343   6.050 -0.1583  1.0341 -2.2900
   14CHTO  C111 5536   5.057   5.276   6.152  0.4398  0.1759 -0.1264
   14CHTO  H215 5537   5.051   5.389   6.145  1.1511 -0.0484 -2.6948
   14CHTO   N19 5538   5.057   5.243   6.296 -0.9809 -0.2362 -0.6344
   14CHTO  H207 5539   5.152   5.202   6.343  0.3886 -2.2383 -1.2952
   14CHTO  H208 5540   5.004   5.325   6.351 -3.9443  1.1611  0.1303
   14CHTO   O74 5541   4.870   5.174   5.827 -0.2614 -0.6755 -0.1396
   14CHTO  C115 5542   4.741   5.271   5.797  0.1890  0.4413  0.0555
   14CHTO  H219 5543   4.730   5.350   5.872 -0.1594  0.1138  0.0033
   14CHTO   O76 5544   4.758   5.347   5.655 -0.8049 -0.4942  0.6186
   14CHTO  C122 5545   4.640   5.422   5.622 -0.4599 -0.1461 -0.3709
   14CHTO  H226 5546   4.653   5.442   5.513 -0.1383  0.2573  0.4340
   14CHTO  C126 5547   4.639   5.560   5.703  1.0082 -0.7294 -0.1317
   14CHTO   O85 5548   4.541   5.655   5.645 -0.2390  0.0457 -0.2382
   14CHTO  H206 5549   4.468   5.601   5.616  0.6347  2.1357 -1.0241
   14CHTO  C121 5550   4.499   5.345   5.636  0.3023 -0.0129 -0.2198
   14CHTO  H225 5551   4.420   5.423   5.624  1.9903  2.1716 -1.7987
   14CHTO   O81 5552   4.489   5.253   5.528  0.0996  0.3031 -0.1011
   14CHTO  H202 5553   4.405   5.226   5.508  0.6951 -0.3808  3.3753
   14CHTO  C119 5554   4.491   5.280   5.778  0.0338  0.0080 -0.7058
   14CHTO  H223 5555   4.503   5.364   5.853 -0.0581  1.0740  0.5386
   14CHTO  C117 5556   4.617   5.183   5.796 -0.5858  0.0242 -0.6619
   14CHTO  H221 5557   4.638   5.108   5.727  0.3717  0.1963  2.1683
   14CHTO   N20 5558   4.604   5.108   5.923  0.0927  0.3524  0.3515
   14CHTO  H209 5559   4.579   5.002   5.923  2.2664 -0.1415 -0.3807
   14CHTO  H210 5560   4.683   5.132   5.990  0.3242 -0.3656  1.1219
   14CHTO   O80 5561   4.358   5.233   5.808  0.4754  0.4224  0.1411
   14CHTO  C103 5562   4.222   5.352   5.817 -0.4096  0.6395 -0.1112
   14CHTO  H190 5563   4.251   5.451   5.786 -1.3237 -1.0420 -1.2207
   14CHTO  C101 5564   4.088   5.301   5.749 -0.6755  0.7992  0.3407
   14CHTO  H188 5565   4.072   5.191   5.745  1.1472 -1.8296 -0.5972
   14CHTO   O68 5566   4.103   5.329   5.595 -0.3652 -0.1718  0.0238
   14CHTO  H168 5567   4.123   5.252   5.541 -0.6677 -2.6824 -0.4680
   14CHTO   C99 5568   3.964   5.380   5.802  0.7923  0.6445  0.5911
   14CHTO  H186 5569   3.994   5.480   5.774 -0.7285  2.4644 -0.6067
   14CHTO   N17 5570   3.830   5.341   5.739  0.9693 -0.4068  0.2893
   14CHTO  H174 5571   3.854   5.273   5.667  3.8525  1.5367  2.3792
   14CHTO  H175 5572   3.767   5.292   5.806 -1.1362 -1.0509 -0.0888
   14CHTO   C97 5573   3.956   5.383   5.956 -0.1363 -0.0900 -0.3670
   14CHTO  H184 5574   3.930   5.281   5.993  0.1568  1.6973  1.3511
   14CHTO   O64 5575   4.084   5.427   6.004 -0.0459  0.4313  0.1098
   14CHTO  C104 5576   4.202   5.351   5.972 -0.1975  0.1718 -1.1703
   14CHTO  H191 5577   4.189   5.245   6.007 -0.2722  1.8173  3.6420
   14CHTO  C108 5578   4.323   5.410   6.057  0.0057  0.4863 -0.3826
   14CHTO   O71 5579   4.304   5.404   6.199  0.5163  0.0150 -0.1694
   14CHTO  H171 5580   4.386   5.393   6.244  0.5869 -0.0988  0.4021
   14CHTO   O62 5581   3.868   5.481   6.004 -0.3017 -0.1909 -0.5563
   14CHTO   C91 5582   3.871   5.487   6.149 -0.0769 -0.0671  0.4535
   14CHTO  H178 5583   3.900   5.393   6.193 -0.8016  1.2271  1.6632
   14CHTO   C92 5584   3.718   5.505   6.196  0.2345 -0.8589 -0.0437
   14CHTO  H179 5585   3.659   5.419   6.157 -0.5846 -0.4154  1.9310
   14CHTO   O66 5586   3.705   5.492   6.341  0.7838  0.2594  0.2465
   14CHTO  H166 5587   3.784   5.447   6.366  1.0229  0.0424 -0.8464
   14CHTO   C93 5588   3.662   5.651   6.159  0.4767  0.9436 -0.1822
   14CHTO  H180 5589   3.586   5.677   6.233  0.9339 -1.8184  1.3100
   14CHTO   N16 5590   3.613   5.672   6.025 -0.0926  0.4951 -0.0398
   14CHTO  H172 5591   3.700   5.677   5.962 -1.2503 -0.1564 -1.0136
   14CHTO  H173 5592   3.558   5.579   5.998 -0.0974 -1.3385  4.5037
   14CHTO   C94 5593   3.780   5.754   6.179 -0.2533 -0.0974 -0.3789
   14CHTO  H181 5594   3.829   5.775   6.091  2.5466  0.9406  1.0931
   14CHTO   O61 5595   3.882   5.709   6.270  0.2397  1.0669  0.4844
   14CHTO   C95 5596   3.959   5.604   6.210  0.2213  0.1561 -0.1488
   14CHTO  H182 5597   4.010   5.643   6.125  0.4050 -1.1702  0.2216
   14CHTO  C106 5598   4.061   5.553   6.316 -0.0396 -0.2821  0.0819
   14CHTO   O69 5599   4.175   5.637   6.317 -0.4352  0.1978  0.0412
   14CHTO  H169 5600   4.254   5.586   6.334 -0.8634  0.9468 -2.0693
   14CHTO   O63 5601   3.737   5.882   6.236 -0.1693 -0.0193 -0.0142
   14CHTO   C96 5602   3.803   6.013   6.187  0.0593 -0.3232 -0.0026
   14CHTO  H183 5603   3.768   6.089   6.249  0.1847  0.1281  0.1500
   14CHTO   C98 5604   3.763   6.038   6.040 -0.9441  0.3837 -0.1170
   14CHTO  H185 5605   3.779   5.953   5.978  0.4021  0.7479 -2.1837
   14CHTO   O67 5606   3.620   6.058   6.039 -0.7176 -0.6223 -0.3335
   14CHTO  H167 5607   3.585   6.047   5.952 -0.2710 -1.4933 -0.2828
   14CHTO  C102 5608   3.849   6.161   5.984  0.8061  0.0428 -0.0471
   14CHTO  H189 5609   3.817   6.249   6.050 -1.2883  1.6348  1.7877
   14CHTO   N18 5610   3.818   6.200   5.842 -0.1265 -0.3916 -0.2816
   14CHTO  H176 5611   3.903   6.238   5.795 -1.8280  1.0484 -1.2488
   14CHTO  H177 5612   3.743   6.277   5.828 -2.0122 -1.1729  1.6678
   14CHTO  C105 5613   4.003   6.145   6.007  0.5408 -0.2704  0.4834
   14CHTO  H192 5614   4.029   6.047   5.961  1.7012 -1.1076  3.5914
   14CHTO   O65 5615   4.023   6.130   6.150  0.0340 -0.6329  0.4254
   14CHTO  C100 5616   3.962   6.015   6.205  0.1326  0.3157 -0.3069
   14CHTO  H187 5617   3.996   5.920   6.146  2.5839 -2.7668 -1.4750
   14CHTO  C107 5618   4.016   5.988   6.357 -0.2678  0.5843 -0.7629
   14CHTO   O70 5619   4.159   5.980   6.361 -0.3802  0.7003 -0.1806
   14CHTO  H170 5620   4.194   5.891   6.373  2.2549 -0.5340  0.5789
   14CHTO   O57 5621   4.089   6.251   5.945 -0.4640  0.1965  0.0319
   14CHTO   C85 5622   4.229   6.240   5.963 -0.6102 -1.0220 -0.1504
   14CHTO  H157 5623   4.253   6.163   6.042 -0.6576  0.4028 -1.2931
   14CHTO   C83 5624   4.289   6.374   6.019  0.5485  0.1110  0.7345
   14CHTO  H155 5625   4.253   6.386   6.117  0.1132  1.6131 -2.7918
   14CHTO   O56 5626   4.264   6.486   5.929  0.1283 -0.1861  0.2437
   14CHTO  H135 5627   4.179   6.523   5.938 -0.2535 -3.0091  0.7812
   14CHTO   C81 5628   4.442   6.353   6.030 -0.6213 -0.2398 -0.6754
   14CHTO  H153 5629   4.465   6.263   6.092  0.7407 -1.6408 -0.4752
   14CHTO   N14 5630   4.519   6.455   6.107 -0.6016  0.2087 -0.2986
   14CHTO  H141 5631   4.462   6.473   6.192 -2.4677 -1.0381 -0.7416
   14CHTO  H142 5632   4.531   6.546   6.046  2.2309  0.2344 -0.3652
   14CHTO   C79 5633   4.504   6.326   5.880 -0.9603 -0.2579 -0.1896
   14CHTO  H151 5634   4.604   6.306   5.888 -3.5642 -2.0635 -1.3186
   14CHTO   O52 5635   4.452   6.202   5.824  0.8962 -0.0471 -0.0898
   14CHTO   C86 5636   4.303   6.203   5.827 -0.3958  0.4773  0.3039
   14CHTO  H158 5637   4.274   6.280   5.749 -2.1478 -0.9643 -0.1118
   14CHTO   C90 5638   4.251   6.072   5.773 -0.3914  0.0788  0.0218
   14CHTO   O60 5639   4.289   6.064   5.633 -0.1508  0.0016 -0.0510
   14CHTO  H138 5640   4.227   6.118   5.594  2.6635 -0.3435 -0.3374
   14CHTO   O50 5641   4.489   6.439   5.783 -0.1192 -0.0886 -0.2873
   14CHTO   C73 5642   4.483   6.537   5.680  1.0399 -0.0836 -0.1502
   14CHTO  H145 5643   4.469   6.632   5.722  0.6672  3.2334 -0.9375
   14CHTO   C74 5644   4.361   6.514   5.580 -0.0978  0.3768 -0.4398
   14CHTO  H146 5645   4.264   6.501   5.640 -2.1021  1.1990  0.8678
   14CHTO   O54 5646   4.348   6.632   5.506  0.5030  0.1603  0.1414
   14CHTO  H133 5647   4.304   6.634   5.422  0.7181  0.2748  0.5390
   14CHTO   C75 5648   4.394   6.391   5.486 -0.2723  0.7392  0.0576
   14CHTO  H147 5649   4.397   6.296   5.548  1.7414 -1.9869 -0.7626
   14CHTO   N13 5650   4.291   6.361   5.385  0.4780  0.1286  1.0714
   14CHTO  H139 5651   4.195   6.331   5.423 -0.8519 -1.1430 -1.0295
   14CHTO  H140 5652   4.279   6.441   5.316 -0.1608  1.4418  3.0366
   14CHTO   C76 5653   4.542   6.394   5.419  0.1046 -0.2360 -0.0663
   14CHTO  H148 5654   4.546   6.494   5.370  0.5757  1.1608  0.2158
   14CHTO   O49 5655   4.634   6.412   5.537  0.2969 -0.0481  0.1065
   14CHTO   C77 5656   4.621   6.534   5.610 -0.3931 -0.0847  0.2162
   14CHTO  H149 5657   4.630   6.624   5.543  1.6772 -1.4043 -0.2763
   14CHTO   C88 5658   4.747   6.547   5.702 -0.3239  0.6091 -0.0552
   14CHTO   O58 5659   4.742   6.663   5.766  0.5370  0.6040 -0.0402
   14CHTO  H136 5660   4.811   6.717   5.734 -0.7039  1.1603  0.6431
   14CHTO   O51 5661   4.586   6.266   5.333  0.1388  0.0802  0.0608
   14CHTO   C78 5662   4.662   6.303   5.206 -0.6609  0.0455 -0.2876
   14CHTO  H150 5663   4.665   6.415   5.190 -0.4508  0.0351 -0.6838
   14CHTO   C80 5664   4.588   6.229   5.092 -0.4140  0.0604  0.3764
   14CHTO  H152 5665   4.591   6.120   5.116 -0.0049 -0.3119  1.3381
   14CHTO   O55 5666   4.447   6.261   5.087  0.1086 -0.0803 -0.2954
   14CHTO  H134 5667   4.414   6.325   5.157  2.8936  0.7703  0.9935
   14CHTO   C84 5668   4.657   6.241   4.956 -0.4539  0.4332 -0.0862
   14CHTO  H156 5669   4.638   6.347   4.918 -2.3710 -0.4931 -2.6073
   14CHTO   N15 5670   4.587   6.158   4.852 -0.4289  0.2366 -0.0100
   14CHTO  H143 5671   4.638   6.072   4.816 -0.8516 -0.5273 -1.9970
   14CHTO  H144 5672   4.492   6.131   4.889  0.8480  0.5793 -1.9520
   14CHTO   C87 5673   4.805   6.198   4.972  0.1805  0.3692 -0.2473
   14CHTO  H159 5674   4.801   6.092   5.001  1.0186  0.5155 -3.7140
   14CHTO   O53 5675   4.879   6.280   5.073 -0.0333  1.0490 -0.0648
   14CHTO   C82 5676   4.813   6.260   5.203 -0.0937  0.2645  0.2892
   14CHTO  H154 5677   4.823   6.151   5.232  0.2220 -1.9889 -1.8594
   14CHTO   C89 5678   4.882   6.341   5.310  0.2970  0.2969  0.6873
   14CHTO   O59 5679   5.014   6.284   5.330  0.2950  0.1234 -0.9411
   14CHTO  H137 5680   5.061   6.351   5.383 -0.1248  1.1917  0.2365
   14CHTO   O45 5681   4.889   6.220   4.825 -0.1427 -0.2946 -0.0505
   14CHTO   C67 5682   5.002   6.132   4.816  0.0571  1.1058 -0.0286
   14CHTO  H124 5683   5.025   6.083   4.915 -0.4561 -3.2239 -0.1336
   14CHTO   C65 5684   4.974   6.025   4.708 -0.5697  0.2443  0.5848
   14CHTO  H122 5685   4.879   5.980   4.732  2.9802 -1.6177 -0.2245
   14CHTO   O44 5686   5.073   5.922   4.718  0.4133  0.2848  0.0169
   14CHTO  H102 5687   5.061   5.871   4.789 -0.6190 -0.0545 -3.4735
   14CHTO   C63 5688   4.968   6.099   4.575  0.5974  0.1724  0.3310
   14CHTO  H120 5689   4.905   6.185   4.587 -2.9039 -4.4648 -1.9091
   14CHTO   N11 5690   4.903   6.021   4.463 -0.4721 -0.1923  0.1313
   14CHTO  H108 5691   4.834   6.091   4.412  0.6058 -1.1916  0.4045
   14CHTO  H109 5692   4.860   5.938   4.513 -1.4687  3.9910  0.7315
   14CHTO   C61 5693   5.113   6.158   4.551 -0.2477  0.0289 -0.1477
   14CHTO  H118 5694   5.103   6.213   4.458 -1.5507 -0.2832 -1.0324
   14CHTO   O40 5695   5.160   6.254   4.652  0.1087  0.5564  0.1241
   14CHTO   C68 5696   5.134   6.211   4.789  0.2061 -0.2349  0.1697
   14CHTO  H125 5697   5.113   6.303   4.830 -1.3532 -1.1315 -3.3844
   14CHTO   C72 5698   5.266   6.159   4.860  0.9337  0.6093  0.3075
   14CHTO   O48 5699   5.359   6.069   4.797 -0.0067 -0.1973 -0.6994
   14CHTO  H105 5700   5.415   6.039   4.864  0.8387 -0.4956 -1.8231
   14CHTO   O38 5701   5.217   6.057   4.527  0.6990  0.9457  0.0051
   14CHTO   C55 5702   5.298   6.043   4.406  0.5286  1.1002 -0.5578
   14CHTO  H112 5703   5.245   6.095   4.326  1.1330 -0.4044  0.7670
   14CHTO   C56 5704   5.308   5.889   4.375  0.2100  0.4892 -0.5648
   14CHTO  H113 5705   5.359   5.850   4.459 -0.4009  1.2629 -1.1313
   14CHTO   O42 5706   5.178   5.826   4.383  0.1268 -0.0510  0.1620
   14CHTO  H100 5707   5.177   5.741   4.356  1.2655 -1.1653 -0.3904
   14CHTO   C57 5708   5.387   5.860   4.241 -0.7738  0.3084 -0.7475
   14CHTO  H114 5709   5.315   5.905   4.178 -1.4240  1.6137  3.0405
   14CHTO   N10 5710   5.418   5.718   4.210  0.7781 -0.4303  0.2112
   14CHTO  H106 5711   5.333   5.689   4.141 -3.8577  0.5152  1.7039
   14CHTO  H107 5712   5.411   5.666   4.302 -1.0910  1.2600  3.8995
   14CHTO   C58 5713   5.518   5.945   4.240 -0.4014  0.5464 -0.1618
   14CHTO  H115 5714   5.611   5.886   4.294  1.7233  0.3491  1.1118
   14CHTO   O37 5715   5.504   6.082   4.291  0.2800  0.6180  0.3030
   14CHTO   C59 5716   5.439   6.108   4.416  0.2920 -0.0425  0.4996
   14CHTO  H116 5717   5.501   6.059   4.482 -1.9023  0.6520  1.3226
   14CHTO   C70 5718   5.437   6.260   4.452  0.4951  0.7704  0.4753
   14CHTO   O46 5719   5.570   6.306   4.496  0.1003 -0.0645 -0.1940
   14CHTO  H103 5720   5.642   6.301   4.439  1.8373  1.8661  5.1583
   14CHTO   O39 5721   5.561   5.951   4.096  0.6714 -0.1133  0.3591
   14CHTO   C60 5722   5.700   5.982   4.059 -0.8911  0.3677  0.1207
   14CHTO  H117 5723   5.688   5.979   3.954 -0.9741  0.5104  0.4801
   14CHTO   C62 5724   5.751   6.123   4.100  0.1131  0.3060 -0.6064
   14CHTO  H119 5725   5.683   6.193   4.063  1.4770  0.6919 -0.3255
   14CHTO   O43 5726   5.765   6.139   4.243 -0.0348 -0.1156  0.8852
   14CHTO  H101 5727   5.795   6.229   4.272 -0.0541  4.2752 -0.6098
   14CHTO   C66 5728   5.891   6.152   4.024 -0.1780 -0.4271 -0.6010
   14CHTO  H123 5729   5.872   6.148   3.912 -0.6256 -0.2934  2.1310
   14CHTO   N12 5730   5.952   6.289   4.048  0.3026 -0.7836  0.1718
   14CHTO  H110 5731   6.032   6.309   3.978 -0.1911 -0.4299  1.4302
   14CHTO  H111 5732   5.981   6.294   4.148  1.4067  1.0767 -0.5151
   14CHTO   C69 5733   5.998   6.048   4.057 -0.0821  0.9019 -1.3245
   14CHTO  H126 5734   6.048   6.041   4.166  1.2756  1.3595  0.3722
   14CHTO   O41 5735   5.941   5.911   4.026 -0.0222 -0.2572  0.3329
   14CHTO   C64 5736   5.802   5.868   4.093  0.7363 -0.1901  0.7712
   14CHTO  H121 5737   5.798   5.855   4.191 -1.3427  0.3630 -2.8485
   14CHTO   C71 5738   5.764   5.731   4.046  0.6363  0.2676 -0.4424
   14CHTO   O47 5739   5.859   5.630   4.090 -0.4130  0.0854 -0.3401
   14CHTO  H104 5740   5.845   5.599   4.181 -0.7077 -0.5628  1.5369
   14CHTO   O34 5741   6.125   6.063   3.955 -0.0917  0.1493 -0.1203
   14CHTO   C49 5742   6.242   5.974   3.895  0.4920 -0.2315 -0.9762
   14CHTO   H91 5743   6.305   5.955   3.983 -0.6937 -2.4195  0.9437
   14CHTO   C47 5744   6.316   6.055   3.786 -0.1213  0.4093 -0.4952
   14CHTO   H89 5745   6.420   6.006   3.774 -1.4982  2.0230 -0.6053
   14CHTO   O33 5746   6.339   6.185   3.839 -0.5429 -0.4634  0.2962
   14CHTO   H70 5747   6.265   6.249   3.836  0.7073  1.4306  0.8676
   14CHTO   C45 5748   6.249   6.061   3.641 -0.4356 -0.2307  0.2898
   14CHTO   H87 5749   6.216   6.163   3.613 -1.0387 -2.1672 -0.3191
   14CHTO    N8 5750   6.346   6.022   3.533  0.0472  0.2175 -0.3332
   14CHTO   H75 5751   6.378   5.920   3.553 -2.9479  1.8314  0.1020
   14CHTO   H76 5752   6.309   6.042   3.434 -2.7629 -0.8115 -1.9026
   14CHTO   C43 5753   6.111   5.970   3.651 -0.1233 -0.4901  0.1179
   14CHTO   H85 5754   6.043   6.025   3.715 -0.9865  0.9126  0.4925
   14CHTO   O29 5755   6.137   5.834   3.701  0.5792 -0.2408 -0.3243
   14CHTO   C50 5756   6.204   5.832   3.832  1.1615 -0.7033  1.0038
   14CHTO   H92 5757   6.142   5.792   3.901  0.4425  2.3445 -1.2042
   14CHTO   C54 5758   6.327   5.741   3.831 -0.3193  1.0579  0.5041
   14CHTO   O36 5759   6.387   5.724   3.963  0.0818 -0.4956  0.2176
   14CHTO   H72 5760   6.328   5.754   4.030 -0.2650 -1.4022  1.0473
   14CHTO   O27 5761   6.047   5.973   3.517 -0.2029 -0.2383 -0.1401
   14CHTO   C37 5762   5.910   5.961   3.477 -0.0669 -0.3611 -0.0968
   14CHTO   H79 5763   5.906   5.928   3.379 -0.6724 -1.1712  2.2602
   14CHTO   C38 5764   5.839   5.843   3.562 -0.1367 -0.0854 -0.0914
   14CHTO   H80 5765   5.886   5.844   3.657 -0.3815 -2.3418 -3.0113
   14CHTO   O31 5766   5.878   5.718   3.492 -0.5248  0.0868  0.4343
   14CHTO   H68 5767   5.878   5.648   3.547 -3.0461  1.9528 -0.3254
   14CHTO   C39 5768   5.685   5.856   3.582 -0.0964 -0.3764  0.3249
   14CHTO   H81 5769   5.630   5.829   3.495  0.3820  2.1336  1.0391
   14CHTO    N7 5770   5.632   5.762   3.695  0.0168 -0.5019  0.2052
   14CHTO   H73 5771   5.682   5.666   3.702 -2.0718 -1.5477 -3.9654
   14CHTO   H74 5772   5.527   5.736   3.674 -1.3958  1.8404 -0.2385
   14CHTO   C40 5773   5.653   6.010   3.609 -0.2041  0.3298  0.5173
   14CHTO   H82 5774   5.698   6.047   3.705 -0.8965  2.1132  1.2331
   14CHTO   O26 5775   5.694   6.087   3.494  0.3348  0.4280 -0.1776
   14CHTO   C41 5776   5.838   6.094   3.498  0.2039 -0.7037 -0.1783
   14CHTO   H83 5777   5.869   6.145   3.592  2.0042  0.8515  0.5349
   14CHTO   C52 5778   5.877   6.205   3.398 -0.0903 -0.9609  0.8625
   14CHTO   O35 5779   5.801   6.341   3.427  0.0565 -0.2542  0.4679
   14CHTO   H71 5780   5.714   6.339   3.392 -0.3658  1.9693  0.5455
   14CHTO   O28 5781   5.519   6.041   3.611  0.0391 -0.2805 -0.5400
   14CHTO   C42 5782   5.447   6.165   3.668 -0.2714  0.0483  0.2522
   14CHTO   H84 5783   5.350   6.165   3.618 -1.0403 -1.1073  1.0856
   14CHTO   C44 5784   5.514   6.292   3.627 -0.4346 -0.5316  0.4524
   14CHTO   H86 5785   5.622   6.289   3.647 -2.3634  0.1793  0.8040
   14CHTO   O32 5786   5.502   6.324   3.485  0.2365 -0.1881  0.0643
   14CHTO   H69 5787   5.534   6.410   3.468 -4.0251  0.1168 -2.6101
   14CHTO   C48 5788   5.469   6.420   3.708  0.2903 -0.0100 -0.7485
   14CHTO   H90 5789   5.367   6.444   3.674 -2.5636 -0.9896  0.4724
   14CHTO    N9 5790   5.564   6.539   3.685  0.6783 -0.1531  0.4844
   14CHTO   H77 5791   5.562   6.617   3.759  0.9535 -1.7416  0.6205
   14CHTO   H78 5792   5.565   6.590   3.588  2.4550  0.0151 -0.5505
   14CHTO   C51 5793   5.462   6.393   3.865  0.4274  0.2227 -0.2391
   14CHTO   H93 5794   5.563   6.381   3.906 -1.3385 -0.6481 -0.5018
   14CHTO   O30 5795   5.379   6.279   3.888  0.0475 -0.1430 -0.1125
   14CHTO   C46 5796   5.419   6.151   3.821  0.3056  0.3994 -0.1213
   14CHTO   H88 5797   5.496   6.098   3.868 -1.2918 -0.7548  0.7465
   14CHTO   C53 5798   5.297   6.056   3.838  0.4368  0.5136 -0.3775
   14CHTO   O72 5799   5.242   6.025   3.967  0.7151 -0.4660  0.1153
   14CHTO  H199 5800   5.157   6.070   3.977  0.1922  1.2705  1.7931
   14CHTO   O22 5801   5.395   6.486   3.949 -0.3610  0.0653  0.5780
   14CHTO   C31 5802   5.411   6.500   4.088  0.5769  0.5098 -0.7900
   14CHTO   H59 5803   5.444   6.402   4.133 -0.7823 -0.3073 -1.1746
   14CHTO   C29 5804   5.522   6.597   4.130  0.6123  1.0790 -0.5066
   14CHTO   H57 5805   5.502   6.692   4.074 -0.0823 -1.1343 -0.5892
   14CHTO   O21 5806   5.648   6.535   4.103 -0.4070 -0.4177  0.0128
   14CHTO   H37 5807   5.671   6.572   4.019 -0.7082 -1.1811  0.6535
   14CHTO   C27 5808   5.512   6.621   4.285 -0.3801  0.1785 -0.1164
   14CHTO   H55 5809   5.536   6.527   4.339  1.0413 -1.2951  0.0725
   14CHTO    N5 5810   5.615   6.724   4.322 -0.2780 -0.0220  0.2695
   14CHTO   H43 5811   5.586   6.831   4.302  0.0957  2.9381  0.4839
   14CHTO   H44 5812   5.653   6.715   4.422 -1.0866 -1.1386 -0.6670
   14CHTO   C25 5813   5.371   6.659   4.330  0.4540 -0.4563  0.0948
   14CHTO   H53 5814   5.329   6.752   4.279 -1.8858 -1.4759 -3.3925
   14CHTO   O17 5815   5.292   6.541   4.294 -0.0718  0.1851  0.6284
   14CHTO   C32 5816   5.271   6.534   4.155 -1.2288 -0.0992 -0.6061
   14CHTO   H60 5817   5.235   6.627   4.111 -0.0743 -0.7381 -1.0968
   14CHTO   C36 5818   5.175   6.413   4.117 -0.3954  0.5224  0.2995
   14CHTO   O25 5819   5.048   6.432   4.183 -0.1499  0.6594  0.0385
   14CHTO   H40 5820   5.005   6.346   4.189  0.7992  0.0942 -0.1978
   14CHTO   O15 5821   5.355   6.685   4.485 -0.3379  0.1293  0.7421
   14CHTO   C19 5822   5.277   6.629   4.593  0.0143  0.1769 -0.0800
   14CHTO   H47 5823   5.255   6.523   4.562  0.8222  1.9653 -0.1366
   14CHTO   C20 5824   5.367   6.638   4.724  0.2464  0.3793 -0.5458
   14CHTO   H48 5825   5.395   6.743   4.742 -1.0793 -0.5613 -0.7780
   14CHTO   O19 5826   5.483   6.561   4.691 -0.1715  0.1316  0.1603
   14CHTO   H35 5827   5.518   6.517   4.768  1.1754 -0.9828  0.2125
   14CHTO   C21 5828   5.285   6.574   4.847 -0.3412 -0.6172  0.5040
   14CHTO   H49 5829   5.260   6.475   4.831 -0.1599 -1.5085  2.0333
   14CHTO    N4 5830   5.363   6.572   4.978  0.8613  1.0530  0.1886
   14CHTO   H41 5831   5.298   6.573   5.061  2.0616  1.6608 -0.8559
   14CHTO   H42 5832   5.436   6.492   4.988  0.2399  0.8175  3.0463
   14CHTO   C22 5833   5.155   6.648   4.863 -0.2441 -0.9356 -0.1612
   14CHTO   H50 5834   5.176   6.752   4.890  0.1804  1.4116  1.6597
   14CHTO   O14 5835   5.082   6.647   4.737  0.0707 -0.0742  0.2764
   14CHTO   C23 5836   5.136   6.698   4.617 -0.0414  0.3712 -0.1647
   14CHTO   H51 5837   5.148   6.804   4.640 -3.2175 -1.1256  0.6980
   14CHTO   C34 5838   5.035   6.673   4.504 -0.4262  0.4315 -0.8959
   14CHTO   O23 5839   4.998   6.539   4.481 -0.3983 -0.2135 -0.6182
   14CHTO   H38 5840   4.964   6.492   4.553 -3.0859 -2.1805  0.7068
   14CHTO   O16 5841   5.064   6.591   4.961  0.0654 -0.4755  0.7005
   14CHTO   C24 5842   4.934   6.715   5.005 -0.0237 -0.8135 -0.8105
   14CHTO   H52 5843   4.948   6.804   4.950 -2.6809  0.2767  0.6307
   14CHTO   C26 5844   4.959   6.749   5.151  0.9471  0.6942 -0.2793
   14CHTO   H54 5845   4.974   6.654   5.210 -0.8640  1.1029  1.0130
   14CHTO   O20 5846   5.080   6.817   5.157 -0.1636  0.1784 -0.4055
   14CHTO   H36 5847   5.151   6.757   5.167 -3.6745 -1.0403 -0.1120
   14CHTO   C30 5848   4.853   6.849   5.209  0.6624 -0.6107 -0.3836
   14CHTO   H58 5849   4.865   6.947   5.158 -1.8926 -0.9773  1.3692
   14CHTO    N6 5850   4.863   6.878   5.356  0.1484 -0.2653  0.5568
   14CHTO   H45 5851   4.927   6.803   5.394  1.7483  0.1865 -0.0977
   14CHTO   H46 5852   4.768   6.879   5.407 -0.3032 -1.0258 -1.8194
   14CHTO   C33 5853   4.710   6.801   5.169  0.7379 -0.2521 -0.2574
   14CHTO   H61 5854   4.685   6.709   5.222 -0.7770  0.2525  0.1219
   14CHTO   O18 5855   4.701   6.770   5.027 -0.3903 -0.1115 -0.2558
   14CHTO   C28 5856   4.788   6.664   4.982 -0.0624 -0.3366 -0.0756
   14CHTO   H56 5857   4.769   6.578   5.049 -2.4375 -0.3904  0.1218
   14CHTO   C35 5858   4.759   6.622   4.830 -0.6954  0.2325  0.2058
   14CHTO   O24 5859   4.838   6.503   4.780  0.0729  0.1942  0.2823
   14CHTO   H39 5860   4.922   6.522   4.737  2.6161  2.0122  1.9258
   14CHTO    O9 5861   4.607   6.892   5.208  0.3188 -0.3256 -0.0330
   14CHTO   C13 5862   4.462   6.813   5.239  0.1299  0.6053  0.5797
   14CHTO   H26 5863   4.489   6.742   5.330 -2.5272  0.1317 -0.0202
   14CHTO   C11 5864   4.410   6.729   5.117  0.4923 -0.1949  0.6144
   14CHTO   H24 5865   4.466   6.633   5.111 -2.3539 -0.0765 -1.8013
   14CHTO    O8 5866   4.415   6.806   4.999  0.4212 -0.1083  0.1312
   14CHTO    H3 5867   4.412   6.747   4.930  3.0888  1.8098  0.6273
   14CHTO    C9 5868   4.264   6.682   5.137  0.7577  0.3454  0.0520
   14CHTO   H22 5869   4.271   6.607   5.214  1.1836  1.1663 -1.0448
   14CHTO    N2 5870   4.203   6.610   5.023 -0.0624 -0.0850  0.9359
   14CHTO   H10 5871   4.196   6.686   4.946  1.4451  1.9168  0.9381
   14CHTO   H11 5872   4.109   6.581   5.055  1.0562  0.6624 -0.6464
   14CHTO    C7 5873   4.170   6.790   5.204  0.3802 -0.4232 -0.4753
   14CHTO   H20 5874   4.162   6.752   5.313  0.0166 -1.7126  0.7452
   14CHTO    O4 5875   4.236   6.919   5.203  0.2426 -0.6234  0.3830
   14CHTO   C14 5876   4.351   6.912   5.290  0.4916 -0.4599  0.0113
   14CHTO   H27 5877   4.325   6.887   5.395  1.8400 -0.1185  0.5918
   14CHTO   C18 5878   4.391   7.067   5.294  0.8229  0.2657  0.1854
   14CHTO   O13 5879   4.455   7.100   5.420  0.2398 -0.0517  0.2219
   14CHTO    H7 5880   4.539   7.142   5.408 -0.0148  1.7215 -1.2900
   14CHTO    O2 5881   4.009   6.803   5.146 -0.5411 -0.1753  0.6379
   14CHTO    C1 5882   3.902   6.789   5.244 -0.3912 -0.4837  0.1430
   14CHTO   H14 5883   3.938   6.824   5.346  1.1636 -0.5606 -0.4854
   14CHTO    C2 5884   3.863   6.636   5.246  0.4744 -0.3189  0.6768
   14CHTO   H15 5885   3.848   6.611   5.143  2.9979  1.0779 -1.0018
   14CHTO    O6 5886   3.971   6.557   5.296 -0.0931  0.1106 -0.2475
   14CHTO    H1 5887   3.954   6.523   5.382 -2.3690  0.1134  0.5110
   14CHTO    C3 5888   3.727   6.608   5.322  0.1912 -0.4444  0.2556
   14CHTO   H16 5889   3.755   6.614   5.428 -0.4860 -0.9454  0.3748
   14CHTO    N1 5890   3.665   6.477   5.308 -0.2573  0.1901  0.7253
   14CHTO    H8 5891   3.743   6.404   5.280  2.1609  1.3169 -0.5682
   14CHTO    H9 5892   3.578   6.466   5.239  1.8427 -0.7730 -1.0427
   14CHTO    C4 5893   3.615   6.723   5.306 -0.8691 -0.4118 -0.3730
   14CHTO   H17 5894   3.566   6.710   5.205 -1.3290 -1.9577 -1.9487
   14CHTO    O1 5895   3.682   6.853   5.313 -0.1879  0.5286 -0.1276
   14CHTO    C5 5896   3.785   6.878   5.220 -0.3214 -0.7254 -0.2499
   14CHTO   H18 5897   3.740   6.850   5.125 -1.3079  0.5294 -0.6046
   14CHTO   C16 5898   3.818   7.032   5.213 -0.1490  0.3347 -0.6168
   14CHTO   O11 5899   3.877   7.081   5.330  0.1980 -0.4030 -0.2721
   14CHTO    H5 5900   3.835   7.163   5.360  1.9721 -0.8912 -1.2070
   14CHTO    O3 5901   3.513   6.717   5.405  0.5107  0.8594  0.3254
   14CHTO    C6 5902   3.396   6.787   5.356  0.7134  0.2508  0.7447
   14CHTO   H19 5903   3.407   6.833   5.258 -0.5216 -3.0441 -0.8788
   14CHTO    C8 5904   3.282   6.678   5.339  0.0517 -0.3989 -0.6668
   14CHTO   H21 5905   3.264   6.632   5.433 -1.7682  1.5077  2.0845
   14CHTO    O7 5906   3.321   6.582   5.243  0.1114 -0.3644  0.3443
   14CHTO    H2 5907   3.251   6.549   5.186 -0.0618 -2.3852  0.4725
   14CHTO   C12 5908   3.142   6.752   5.313 -0.5690  0.2483 -0.9227
   14CHTO   H25 5909   3.153   6.774   5.206 -2.3659  0.9190  1.3369
   14CHTO    N3 5910   3.029   6.652   5.307 -0.6426 -0.8103  0.2266
   14CHTO   H12 5911   3.027   6.602   5.401  1.5770  1.1608 -0.1530
   14CHTO   H13 5912   3.032   6.575   5.224 -1.4237 -0.8758 -0.1791
   14CHTO   C15 5913   3.122   6.886   5.391 -0.8640 -0.1513  0.1280
   14CHTO   H28 5914   3.072   6.869   5.491 -2.0464 -0.5531  0.9917
   14CHTO   O10 5915   3.033   6.973   5.310  0.0019 -0.0286  0.0102
   14CHTO    H4 5916   3.062   6.985   5.226 -0.5078  1.8657  1.8773
   14CHTO    O5 5917   3.241   6.966   5.399 -0.0001 -0.7691 -0.5234
   14CHTO   C10 5918   3.347   6.897   5.459  0.8130  0.4126  0.0297
   14CHTO   H23 5919   3.309   6.860   5.556 -3.8216  2.0560  2.5781
   14CHTO   C17 5920   3.454   6.997   5.486 -0.0485  0.3728 -0.3500
   14CHTO   O12 5921   3.560   6.943   5.562  0.0080 -0.2956 -0.0867
   14CHTO    H6 5922   3.525   6.911   5.641  2.9272 -2.2170  0.5239
   15CHTO  H203 5923   5.371   5.569   5.235  0.8717 -0.7091  1.4822
   15CHTO   O82 5924   5.422   5.509   5.180  0.6252 -0.3782 -0.4463
   15CHTO  C123 5925   5.342   5.409   5.115  0.1605 -0.2561  0.0728
   15CHTO  H227 5926   5.242   5.450   5.103  1.0696  0.3767 -1.2113
   15CHTO   O77 5927   5.404   5.378   4.987 -0.1234  0.1063 -0.0580
   15CHTO  C118 5928   5.333   5.284   4.906 -0.4016  0.3980  0.0413
   15CHTO  H222 5929   5.221   5.299   4.913 -0.8283 -0.2041 -0.7327
   15CHTO  C125 5930   5.377   5.280   4.759  0.3489 -0.1614  0.5936
   15CHTO   O84 5931   5.273   5.230   4.674 -0.6084  0.2001 -0.1567
   15CHTO  H205 5932   5.289   5.255   4.582 -0.5351 -2.7097 -2.5302
   15CHTO  C114 5933   5.341   5.149   4.978 -0.4050  0.0273  0.1159
   15CHTO  H218 5934   5.447   5.117   4.989 -2.4223 -0.3249 -1.5935
   15CHTO  C116 5935   5.274   5.162   5.117 -0.1394  0.6104  0.2213
   15CHTO  H220 5936   5.165   5.174   5.092 -1.2544 -1.4991 -0.1474
   15CHTO   O79 5937   5.285   5.041   5.192  0.2984  0.3148  0.0365
   15CHTO  H201 5938   5.377   5.020   5.186  0.3496 -0.0803  2.0782
   15CHTO  C120 5939   5.332   5.276   5.200 -0.1857 -0.3930 -0.1599
   15CHTO  H224 5940   5.431   5.239   5.207  0.0210  0.8502 -1.5335
   15CHTO   N21 5941   5.267   5.291   5.332  0.2812  0.3505 -0.3468
   15CHTO  H211 5942   5.163   5.265   5.332  1.7855 -1.0722  0.2928
   15CHTO  H212 5943   5.326   5.239   5.408  1.5964  0.1419  0.1446
   15CHTO   O75 5944   5.279   5.055   4.882 -0.1187 -0.1589  0.3956
   15CHTO  C112 5945   5.367   4.927   4.862 -0.4060 -0.0092 -0.3855
   15CHTO  H216 5946   5.433   4.900   4.947  0.0498  0.0168  2.8700
   15CHTO   O73 5947   5.446   4.942   4.739 -0.4689  0.0555 -0.2129
   15CHTO  C113 5948   5.538   4.835   4.709 -0.5895  0.4215  0.5029
   15CHTO  H217 5949   5.613   4.829   4.788  0.5056  3.5277  1.9110
   15CHTO  C124 5950   5.613   4.885   4.588 -0.2673  0.5086 -0.4475
   15CHTO   O83 5951   5.711   4.984   4.632 -0.0598 -0.9095  0.4471
   15CHTO  H204 5952   5.759   5.012   4.554  2.4390  1.5173  0.8934
   15CHTO  C109 5953   5.470   4.700   4.685  0.4871 -0.4242  0.5054
   15CHTO  H213 5954   5.427   4.707   4.585  0.2182  1.4394  1.1751
   15CHTO  C110 5955   5.361   4.674   4.797 -0.4437 -0.2192 -0.0182
   15CHTO  H214 5956   5.419   4.655   4.886  0.2975 -1.3565  1.0426
   15CHTO   O78 5957   5.280   4.563   4.773 -0.4174 -0.3134  0.3408
   15CHTO  H200 5958   5.324   4.484   4.768 -2.0094  1.2058 -0.3315
   15CHTO  C111 5959   5.268   4.798   4.829 -0.3442  0.2323  0.2221
   15CHTO  H215 5960   5.208   4.819   4.739  0.5519  1.6119  0.6607
   15CHTO   N19 5961   5.177   4.780   4.945  0.4774 -0.4999  0.5806
   15CHTO  H207 5962   5.234   4.777   5.035 -0.3725  0.0999 -0.3913
   15CHTO  H208 5963   5.114   4.697   4.934 -0.1096 -0.2660 -1.2678
   15CHTO   O74 5964   5.574   4.602   4.685 -0.1146  0.4691 -0.0424
   15CHTO  C115 5965   5.553   4.459   4.678  0.8114 -0.1741  0.4308
   15CHTO  H219 5966   5.454   4.430   4.706 -0.0610 -0.8168 -2.6754
   15CHTO   O76 5967   5.558   4.408   4.527 -0.4176  0.2130  0.2648
   15CHTO  C122 5968   5.696   4.387   4.492 -0.5357  0.5857  0.7372
   15CHTO  H226 5969   5.742   4.487   4.501 -1.0106 -0.4580  3.1362
   15CHTO  C126 5970   5.714   4.344   4.334 -0.3383 -0.0828 -0.2809
   15CHTO   O85 5971   5.609   4.258   4.285 -0.2120 -0.4729  0.1359
   15CHTO  H206 5972   5.633   4.236   4.201 -3.4247  0.9605  1.0742
   15CHTO  C121 5973   5.765   4.274   4.588  0.0554 -0.1907  0.7133
   15CHTO  H225 5974   5.747   4.186   4.524  0.4099 -0.7215 -4.7321
   15CHTO   O81 5975   5.903   4.306   4.601  0.0988  0.3113  0.4971
   15CHTO  H202 5976   5.923   4.311   4.693  0.1969  2.1418  0.5947
   15CHTO  C119 5977   5.689   4.256   4.726 -0.4278 -0.0041 -0.0975
   15CHTO  H223 5978   5.601   4.197   4.710  1.8618 -2.6114  0.2615
   15CHTO  C117 5979   5.649   4.393   4.782  0.2964  0.1568  0.8802
   15CHTO  H221 5980   5.730   4.461   4.795 -1.8803 -1.9318  1.1781
   15CHTO   N20 5981   5.586   4.377   4.918 -0.0668  0.1360  0.5735
   15CHTO  H209 5982   5.615   4.282   4.966  1.8769 -1.1683 -1.9044
   15CHTO  H210 5983   5.479   4.388   4.917  1.7330  2.4389  0.7999
   15CHTO   O80 5984   5.775   4.158   4.825  0.0990  0.8157  0.0780
   15CHTO  C103 5985   5.718   4.004   4.853  0.7370  0.4509 -0.2401
   15CHTO  H190 5986   5.785   3.956   4.919 -0.7143  2.5567  2.2964
   15CHTO  C101 5987   5.572   3.993   4.915  0.3897  0.3728  0.4538
   15CHTO  H188 5988   5.510   4.078   4.878 -1.4278 -0.7560 -0.1161
   15CHTO   O68 5989   5.582   4.026   5.076 -0.3252 -0.1158 -0.3768
   15CHTO  H168 5990   5.492   4.015   5.110 -0.0045  1.7881  0.5825
   15CHTO   C99 5991   5.494   3.857   4.885 -0.5141 -0.0431 -0.9633
   15CHTO  H186 5992   5.531   3.774   4.942 -1.3035  0.5412 -2.2976
   15CHTO   N17 5993   5.345   3.869   4.924  0.0592 -0.5448  0.1658
   15CHTO  H174 5994   5.286   3.845   4.841 -4.0700  1.4061  0.4482
   15CHTO  H175 5995   5.328   3.969   4.966 -2.0701 -0.9412 -0.2994
   15CHTO   C97 5996   5.518   3.815   4.740 -0.1975 -0.0792  0.4433
   15CHTO  H184 5997   5.472   3.891   4.678  0.8363  1.5696  1.9332
   15CHTO   O64 5998   5.661   3.802   4.720 -0.2310 -0.5329 -0.4524
   15CHTO  C104 5999   5.729   3.930   4.711 -0.0357 -0.4613 -0.1367
   15CHTO  H191 6000   5.688   3.990   4.634 -0.5551 -0.2548  0.7924
   15CHTO  C108 6001   5.876   3.901   4.678 -0.0548  0.6033 -0.0563
   15CHTO   O71 6002   5.944   4.021   4.653 -0.7573 -0.1277 -0.1415
   15CHTO  H171 6003   5.903   4.075   4.586 -1.1145  1.6043  0.5100
   15CHTO   O62 6004   5.473   3.680   4.703  0.1297 -0.2658 -0.3226
   15CHTO   C91 6005   5.362   3.657   4.620  0.9682  0.2947 -0.2959
   15CHTO  H178 6006   5.301   3.747   4.608 -2.6516  0.1792 -0.9810
   15CHTO   C92 6007   5.276   3.546   4.693  0.5060  0.6416 -0.2847
   15CHTO  H179 6008   5.299   3.553   4.796 -1.7943  1.6176 -1.0399
   15CHTO   O66 6009   5.134   3.583   4.684  0.1916  0.5308  0.1758
   15CHTO  H166 6010   5.071   3.527   4.731 -2.0708 -0.4291 -2.4190
   15CHTO   C93 6011   5.301   3.404   4.640  0.4850  0.1799  0.4282
   15CHTO  H180 6012   5.218   3.349   4.690 -0.2469  1.2868  1.3654
   15CHTO   N16 6013   5.431   3.332   4.673  0.5151  0.0798  1.2000
   15CHTO  H172 6014   5.476   3.362   4.770  1.1404  1.7590  0.2124
   15CHTO  H173 6015   5.413   3.227   4.664 -1.7267  0.0016 -1.7776
   15CHTO   C94 6016   5.271   3.410   4.483 -0.1487 -0.0785  0.6045
   15CHTO  H181 6017   5.341   3.351   4.425  1.6382  0.2823 -2.0022
   15CHTO   O61 6018   5.291   3.541   4.430  0.3372 -0.5440 -0.3213
   15CHTO   C95 6019   5.402   3.623   4.475 -0.1317  0.8970  0.4090
   15CHTO  H182 6020   5.495   3.566   4.467 -0.3635  0.5717 -2.6995
   15CHTO  C106 6021   5.399   3.756   4.385 -0.0207  0.2877  0.2318
   15CHTO   O69 6022   5.515   3.836   4.399  0.0503  0.1992 -0.2213
   15CHTO  H169 6023   5.589   3.806   4.444 -1.8507  1.1957 -0.4953
   15CHTO   O63 6024   5.128   3.367   4.454  0.1129  0.0258 -0.4204
   15CHTO   C96 6025   5.106   3.279   4.306  0.4148  0.0971 -0.4595
   15CHTO  H183 6026   5.198   3.278   4.246  1.6713  0.8076 -0.6587
   15CHTO   C98 6027   5.008   3.334   4.201 -0.3261 -0.2543 -0.0031
   15CHTO  H185 6028   4.907   3.349   4.246  0.6659 -1.5785  0.3187
   15CHTO   O67 6029   5.050   3.470   4.164 -0.3281  0.2942 -0.4597
   15CHTO  H167 6030   5.046   3.528   4.235  1.5479  1.1971  0.3371
   15CHTO  C102 6031   4.993   3.242   4.072  0.0481 -0.5154  0.3634
   15CHTO  H189 6032   5.084   3.255   4.018  1.0100  0.3113 -3.2011
   15CHTO   N18 6033   4.889   3.283   3.981  0.1872  0.4452 -0.3248
   15CHTO  H176 6034   4.837   3.372   4.009  0.7265  0.4031  0.3768
   15CHTO  H177 6035   4.812   3.210   3.962 -0.9716  2.0420  0.7645
   15CHTO  C105 6036   4.983   3.089   4.107 -0.0291 -0.2343 -0.3908
   15CHTO  H192 6037   4.881   3.072   4.155 -2.1865  1.3361 -0.5838
   15CHTO   O65 6038   5.075   3.056   4.219 -0.9306  1.1193  0.5162
   15CHTO  C100 6039   5.065   3.129   4.341  1.0327  0.3374 -0.2913
   15CHTO  H187 6040   4.964   3.120   4.384 -1.5969 -3.4926 -1.2031
   15CHTO  C107 6041   5.151   3.065   4.449  0.1179  0.2300  0.0109
   15CHTO   O70 6042   5.103   3.105   4.578  0.3141  0.7148  0.3536
   15CHTO  H170 6043   5.057   3.040   4.621  1.3241 -1.4066  0.2771
   15CHTO   O57 6044   5.006   3.010   3.962  0.1811 -0.6674 -0.4822
   15CHTO   C85 6045   5.003   2.867   3.957 -0.6771  0.4908 -0.8946
   15CHTO  H157 6046   4.950   2.832   4.043 -0.5324  0.6297  0.6056
   15CHTO   C83 6047   5.154   2.817   3.969 -1.0189 -0.0978 -0.6173
   15CHTO  H155 6048   5.188   2.846   4.065  0.5790  2.3660 -2.4883
   15CHTO   O56 6049   5.231   2.892   3.872  0.2978  0.2556  0.1002
   15CHTO  H135 6050   5.196   2.886   3.783 -0.3332 -2.6951  1.1168
   15CHTO   C81 6051   5.157   2.664   3.962  0.1493  0.7151 -0.1431
   15CHTO  H153 6052   5.101   2.628   4.045 -0.0468  0.3683 -1.9115
   15CHTO   N14 6053   5.293   2.601   3.979 -0.1079 -0.3609  0.6766
   15CHTO  H141 6054   5.370   2.675   3.960 -0.6624  0.3571 -0.3306
   15CHTO  H142 6055   5.300   2.563   4.080  2.9075 -0.9462  0.3242
   15CHTO   C79 6056   5.089   2.608   3.828  0.5095  0.2961  0.1895
   15CHTO  H151 6057   5.072   2.502   3.851 -2.7612  2.7588  1.0010
   15CHTO   O52 6058   4.950   2.662   3.808  0.2452 -0.2074  0.2641
   15CHTO   C86 6059   4.945   2.808   3.823 -0.1592 -0.5635  0.1559
   15CHTO  H158 6060   5.003   2.843   3.741 -2.9026  1.3230 -1.2031
   15CHTO   C90 6061   4.800   2.846   3.784  0.0688 -0.3749  0.2350
   15CHTO   O60 6062   4.781   2.987   3.776  0.5810 -0.2049 -0.1545
   15CHTO  H138 6063   4.696   3.017   3.805  1.8086 -2.4521  1.4461
   15CHTO   O50 6064   5.157   2.630   3.711 -0.6639  0.2494 -0.6132
   15CHTO   C73 6065   5.143   2.618   3.575 -0.6549 -0.8098 -0.5968
   15CHTO  H145 6066   5.047   2.657   3.547  0.7096 -0.0553 -1.8031
   15CHTO   C74 6067   5.152   2.470   3.541 -0.3826  0.6742 -0.5705
   15CHTO  H146 6068   5.078   2.415   3.602  0.9304  1.3722 -0.3202
   15CHTO   O54 6069   5.115   2.446   3.398 -0.0158  0.0472  0.3927
   15CHTO  H133 6070   5.037   2.492   3.373  0.4643 -1.0892 -0.2453
   15CHTO   C75 6071   5.302   2.416   3.571  0.2343 -0.1941 -0.2893
   15CHTO  H147 6072   5.323   2.432   3.675 -0.5301  0.4935  1.1860
   15CHTO   N13 6073   5.322   2.271   3.558  0.0317  0.1656 -0.2319
   15CHTO  H139 6074   5.230   2.212   3.580 -0.0265 -2.6301 -1.1295
   15CHTO  H140 6075   5.355   2.257   3.452 -0.3979  1.4029 -1.7091
   15CHTO   C76 6076   5.406   2.513   3.483 -0.3023 -0.0212 -0.0972
   15CHTO  H148 6077   5.376   2.492   3.380  0.0967 -1.5905 -1.8684
   15CHTO   O49 6078   5.389   2.655   3.518  0.2447  0.3090 -0.3384
   15CHTO   C77 6079   5.254   2.698   3.501 -0.5131  0.3518  0.5389
   15CHTO  H149 6080   5.243   2.692   3.389  2.3066 -0.1278 -1.7628
   15CHTO   C88 6081   5.252   2.841   3.542  0.0651 -1.1244 -0.2208
   15CHTO   O58 6082   5.135   2.911   3.479 -0.3881  0.1707 -0.3511
   15CHTO  H136 6083   5.065   2.908   3.546 -2.2373 -1.4176 -1.0912
   15CHTO   O51 6084   5.560   2.470   3.507  0.0336  0.4557 -0.1603
   15CHTO   C78 6085   5.651   2.535   3.404 -0.9966  0.3088  0.4405
   15CHTO  H150 6086   5.595   2.616   3.345 -1.7744  1.1943  0.2552
   15CHTO   C80 6087   5.699   2.431   3.305 -0.3300  0.2382 -0.4060
   15CHTO  H152 6088   5.744   2.350   3.361 -0.3420 -1.3705  2.0259
   15CHTO   O55 6089   5.578   2.398   3.233  0.2856  1.0500 -0.4487
   15CHTO  H134 6090   5.587   2.310   3.197 -2.0563 -0.1422 -1.1352
   15CHTO   C84 6091   5.798   2.499   3.205 -1.2287 -0.1341  0.2735
   15CHTO  H156 6092   5.751   2.575   3.147 -1.2526  2.8468 -0.5677
   15CHTO   N15 6093   5.851   2.397   3.102 -0.9585  0.3537  0.2029
   15CHTO  H143 6094   5.888   2.442   3.009  2.6234 -1.0936  0.6388
   15CHTO  H144 6095   5.785   2.319   3.071  0.6864  3.0398 -0.1816
   15CHTO   C87 6096   5.911   2.566   3.280 -0.5182 -0.1307 -0.1565
   15CHTO  H159 6097   5.969   2.485   3.332 -1.8435 -0.5306  0.3097
   15CHTO   O53 6098   5.848   2.661   3.383 -0.7083  0.6648 -0.1280
   15CHTO   C82 6099   5.767   2.600   3.484  0.3627 -0.3593 -0.1595
   15CHTO  H154 6100   5.836   2.536   3.541  0.3244 -1.0628  0.2114
   15CHTO   C89 6101   5.712   2.707   3.580 -0.8113  0.1757  0.3331
   15CHTO   O59 6102   5.635   2.680   3.693  0.7866 -0.6589  0.5880
   15CHTO  H137 6103   5.609   2.588   3.697 -1.9413 -0.4712 -0.2859
   15CHTO   O45 6104   6.000   2.656   3.172  0.0663 -0.1731  0.0321
   15CHTO   C67 6105   6.100   2.749   3.231  0.6081 -0.2483  0.9312
   15CHTO  H124 6106   6.060   2.773   3.325  0.8584 -1.1707  1.5158
   15CHTO   C65 6107   6.246   2.688   3.254 -0.0823  0.4354 -0.3614
   15CHTO  H122 6108   6.251   2.592   3.195 -0.9259 -1.4510 -1.3839
   15CHTO   O44 6109   6.256   2.643   3.391  0.0075 -0.5545  0.0981
   15CHTO  H102 6110   6.196   2.570   3.411 -0.0153 -1.4979  0.9942
   15CHTO   C63 6111   6.363   2.772   3.189  0.0949  0.6374 -0.6042
   15CHTO  H120 6112   6.351   2.763   3.078 -2.4644 -3.6428  1.1700
   15CHTO   N11 6113   6.504   2.726   3.206  0.0329  1.1950  0.2510
   15CHTO  H108 6114   6.544   2.703   3.109  3.3374 -1.6618 -1.0385
   15CHTO  H109 6115   6.509   2.640   3.265 -0.3179  0.4793 -0.1715
   15CHTO   C61 6116   6.335   2.926   3.236  0.1988 -0.5583  0.5932
   15CHTO  H118 6117   6.407   2.990   3.191 -0.0293 -0.1795  2.5736
   15CHTO   O40 6118   6.202   2.978   3.199  0.0495  0.3285 -0.0732
   15CHTO   C68 6119   6.109   2.878   3.147 -0.3862 -0.5492  0.0506
   15CHTO  H125 6120   6.135   2.853   3.041 -1.4737 -0.5811  3.7694
   15CHTO   C72 6121   5.968   2.950   3.148  0.7221 -0.2973  0.6603
   15CHTO   O48 6122   5.929   2.998   3.284 -0.6672 -0.2238 -0.3281
   15CHTO  H105 6123   5.949   3.084   3.285  1.1566 -1.6021  0.6537
   15CHTO   O38 6124   6.353   2.941   3.381 -0.0202  0.0377 -0.1965
   15CHTO   C55 6125   6.336   3.072   3.433  0.8840  0.0901 -0.2084
   15CHTO  H112 6126   6.278   3.132   3.360  2.6795 -0.9770 -1.6917
   15CHTO   C56 6127   6.472   3.139   3.472  0.6206 -0.1761  0.3694
   15CHTO  H113 6128   6.524   3.079   3.544 -1.8627  0.9027  3.8871
   15CHTO   O42 6129   6.554   3.157   3.355 -0.3150 -0.3684 -0.0600
   15CHTO  H100 6130   6.505   3.210   3.294 -0.1026 -1.5782  1.4535
   15CHTO   C57 6131   6.440   3.279   3.542  0.8249  0.0145 -0.2861
   15CHTO  H114 6132   6.404   3.361   3.467  0.5666  3.0697 -1.3570
   15CHTO   N10 6133   6.556   3.343   3.608 -0.2925  0.6991 -0.3110
   15CHTO  H106 6134   6.657   3.321   3.576  1.8603  0.9477 -0.7248
   15CHTO  H107 6135   6.537   3.451   3.602 -0.7007 -0.3368  0.5994
   15CHTO   C58 6136   6.326   3.269   3.647  0.1003  1.5664  0.6638
   15CHTO  H115 6137   6.365   3.230   3.732  1.1129 -0.7410 -2.4229
   15CHTO   O37 6138   6.215   3.185   3.603 -0.3007 -0.2655  0.1047
   15CHTO   C59 6139   6.254   3.054   3.570  0.5973 -0.0718  0.3524
   15CHTO  H116 6140   6.314   3.003   3.645  2.7529  0.3809 -1.7150
   15CHTO   C70 6141   6.117   2.983   3.558 -0.4555 -0.3199 -0.5332
   15CHTO   O46 6142   6.135   2.840   3.564  0.2830  0.2275 -0.6315
   15CHTO  H103 6143   6.057   2.790   3.542 -1.2051  1.3248  0.6936
   15CHTO   O39 6144   6.255   3.421   3.670  0.2076  0.0673 -0.6351
   15CHTO   C60 6145   6.201   3.431   3.801 -0.0884  0.1930  0.8336
   15CHTO  H117 6146   6.148   3.337   3.820 -1.3631 -0.1702 -1.5991
   15CHTO   C62 6147   6.305   3.477   3.907 -0.7383 -0.8913  0.4363
   15CHTO  H119 6148   6.379   3.388   3.924 -0.4104 -0.2078 -0.1712
   15CHTO   O43 6149   6.381   3.597   3.854 -0.2303 -0.2358 -0.4237
   15CHTO  H101 6150   6.433   3.632   3.924  2.8070 -0.4711  0.5336
   15CHTO   C66 6151   6.226   3.490   4.046 -0.1536 -0.0115 -0.0241
   15CHTO  H123 6152   6.164   3.393   4.065 -2.2343 -2.5989  2.2942
   15CHTO   N12 6153   6.324   3.507   4.157  0.1298  0.4157  0.2985
   15CHTO  H110 6154   6.339   3.609   4.183  1.1435 -0.4257  1.9650
   15CHTO  H111 6155   6.409   3.441   4.144  0.3437  2.5946  3.9505
   15CHTO   C69 6156   6.123   3.607   4.038 -0.3395  1.1575 -0.6506
   15CHTO  H126 6157   6.176   3.706   4.012 -0.9291  3.0333 -1.8783
   15CHTO   O41 6158   6.023   3.571   3.936  0.2630  0.5175 -0.5211
   15CHTO   C64 6159   6.086   3.540   3.787  0.5191 -0.5903  0.5508
   15CHTO  H121 6160   6.128   3.631   3.751  0.4779 -2.3894  0.2669
   15CHTO   C71 6161   5.974   3.497   3.694  0.4175  0.0867  0.3649
   15CHTO   O47 6162   5.871   3.592   3.700  0.1629 -0.4641 -0.2219
   15CHTO  H104 6163   5.847   3.592   3.607  3.5795 -0.9760 -3.8203
   15CHTO   O34 6164   6.060   3.619   4.170  0.0597  0.4966  0.0011
   15CHTO   C49 6165   6.002   3.692   4.270 -0.5227  0.9947 -0.4082
   15CHTO   H91 6166   6.072   3.769   4.281 -0.8194 -2.5162  0.3310
   15CHTO   C47 6167   5.985   3.609   4.402 -0.2993  0.4459 -0.4700
   15CHTO   H89 6168   5.936   3.671   4.481 -0.2590  2.9707 -2.1124
   15CHTO   O33 6169   6.109   3.573   4.455 -0.7835 -0.0502 -0.5454
   15CHTO   H70 6170   6.144   3.648   4.491 -2.3128 -1.7027  0.1854
   15CHTO   C45 6171   5.881   3.481   4.376 -0.2530 -0.8004 -0.3914
   15CHTO   H87 6172   5.942   3.391   4.346  1.1676 -2.6992 -2.9279
   15CHTO    N8 6173   5.819   3.446   4.507  0.4008 -0.2631 -0.0928
   15CHTO   H75 6174   5.762   3.536   4.540  3.3017  2.5103 -0.4612
   15CHTO   H76 6175   5.888   3.410   4.581 -1.7106 -0.9958  0.9217
   15CHTO   C43 6176   5.783   3.518   4.252 -1.1308 -0.1604 -0.1958
   15CHTO   H85 6177   5.842   3.492   4.165  0.4361  3.6491  0.8064
   15CHTO   O29 6178   5.759   3.656   4.253 -0.0542 -0.3182  0.6399
   15CHTO   C50 6179   5.867   3.745   4.222  0.4495 -0.3754 -0.3017
   15CHTO   H92 6180   5.877   3.771   4.114  3.4563 -2.5060  1.8524
   15CHTO   C54 6181   5.849   3.889   4.279  0.0273  0.3930  0.6815
   15CHTO   O36 6182   5.956   3.990   4.253  0.5865  0.4076  0.7394
   15CHTO   H72 6183   5.951   4.044   4.327  0.0766 -0.8732  1.3785
   15CHTO   O27 6184   5.666   3.437   4.248 -0.0156  0.3671 -0.2673
   15CHTO   C37 6185   5.614   3.357   4.135 -0.2546  0.1507  0.0541
   15CHTO   H79 6186   5.702   3.329   4.067 -0.9885 -0.3685 -1.3669
   15CHTO   C38 6187   5.558   3.219   4.195 -0.6150  0.0676 -0.0703
   15CHTO   H80 6188   5.482   3.245   4.262  0.1425 -0.3926 -2.1332
   15CHTO   O31 6189   5.656   3.145   4.269  0.1806  0.5767  0.6393
   15CHTO   H68 6190   5.705   3.088   4.215 -1.2398 -1.2180 -1.0033
   15CHTO   C39 6191   5.499   3.137   4.074  0.3291 -0.4826 -0.3268
   15CHTO   H81 6192   5.575   3.116   4.000  0.1272 -0.3626 -3.5342
   15CHTO    N7 6193   5.433   3.006   4.119 -0.5199 -0.1212  0.0005
   15CHTO   H73 6194   5.399   2.956   4.027  0.0464  0.5086  3.6290
   15CHTO   H74 6195   5.344   3.028   4.177  0.1305  0.1976  0.4365
   15CHTO   C40 6196   5.391   3.229   3.998 -0.4740 -0.4712  0.1245
   15CHTO   H82 6197   5.308   3.246   4.061 -0.9306 -1.1139 -1.7208
   15CHTO   O26 6198   5.453   3.355   3.952 -0.1147 -0.0442  0.1108
   15CHTO   C41 6199   5.516   3.438   4.055 -0.0802  0.1861  0.1658
   15CHTO   H83 6200   5.432   3.460   4.126 -1.0269 -0.7194 -3.2627
   15CHTO   C52 6201   5.564   3.568   3.992  0.0909  0.2893  0.5193
   15CHTO   O35 6202   5.465   3.638   3.934  0.4510  0.3052  0.3533
   15CHTO   H71 6203   5.477   3.642   3.840 -0.5714 -3.2119  1.1149
   15CHTO   O28 6204   5.327   3.176   3.887 -0.3764  0.4098 -0.2514
   15CHTO   C42 6205   5.372   3.163   3.752 -0.6055 -0.1781  0.7707
   15CHTO   H84 6206   5.300   3.088   3.716 -2.0177 -0.1669  0.7949
   15CHTO   C44 6207   5.517   3.110   3.735  0.6484 -0.0611 -0.2258
   15CHTO   H86 6208   5.584   3.181   3.796  0.4346 -1.0754  1.4345
   15CHTO   O32 6209   5.520   2.982   3.805  0.2152 -0.0649 -0.1022
   15CHTO   H69 6210   5.596   2.968   3.852  0.0115  2.7556 -1.8020
   15CHTO   C48 6211   5.564   3.097   3.583  0.1186  0.1054 -0.5392
   15CHTO   H90 6212   5.524   3.006   3.554  0.5064  0.4165  0.8974
   15CHTO    N9 6213   5.720   3.081   3.579 -0.6337  0.4369 -0.6033
   15CHTO   H77 6214   5.772   3.174   3.558  2.5420  1.7084  3.2745
   15CHTO   H78 6215   5.749   3.010   3.506  1.1977  1.7766  0.1645
   15CHTO   C51 6216   5.503   3.215   3.493  0.7544  0.0651 -0.3046
   15CHTO   H93 6217   5.566   3.302   3.496  2.5925 -0.4396 -2.9754
   15CHTO   O30 6218   5.368   3.244   3.523 -0.1833 -0.2057 -0.1541
   15CHTO   C46 6219   5.345   3.290   3.669  0.4777  0.7227 -0.5032
   15CHTO   H88 6220   5.416   3.373   3.694  1.2221  1.5669  3.4089
   15CHTO   C53 6221   5.201   3.336   3.691  0.1826 -0.4429 -0.2534
   15CHTO   O72 6222   5.180   3.464   3.634 -0.5418  0.4974  0.3034
   15CHTO  H199 6223   5.220   3.527   3.690 -1.1100  0.2108  0.8631
   15CHTO   O22 6224   5.490   3.172   3.360  0.2930  0.0842  0.3823
   15CHTO   C31 6225   5.475   3.247   3.239 -0.5277  0.5721 -0.4262
   15CHTO   H59 6226   5.481   3.170   3.154  0.8295 -2.2466 -0.0538
   15CHTO   C29 6227   5.343   3.320   3.223  0.7364 -0.7166 -0.1523
   15CHTO   H57 6228   5.342   3.383   3.312  0.8061 -1.8391  0.3641
   15CHTO   O21 6229   5.242   3.222   3.237 -0.4662  0.5891 -0.2222
   15CHTO   H37 6230   5.165   3.243   3.194 -1.3867 -1.4593 -0.6680
   15CHTO   C27 6231   5.337   3.410   3.095  0.0987  0.3125 -0.2410
   15CHTO   H55 6232   5.348   3.351   3.003  0.1715  2.5268  0.8197
   15CHTO    N5 6233   5.210   3.483   3.091 -0.8368 -0.8021  0.3382
   15CHTO   H43 6234   5.196   3.536   2.994 -1.6548 -0.2475  0.4831
   15CHTO   H44 6235   5.132   3.412   3.103  0.3051 -1.4719  0.3661
   15CHTO   C25 6236   5.451   3.509   3.100 -1.2959  0.1870  0.5453
   15CHTO   H53 6237   5.443   3.578   3.186  0.2739  2.8293  2.7066
   15CHTO   O17 6238   5.578   3.439   3.109 -0.6451  0.0834  0.1508
   15CHTO   C32 6239   5.593   3.344   3.216  0.1804  0.3515  0.0626
   15CHTO   H60 6240   5.622   3.393   3.308  1.5740  3.0605  2.1393
   15CHTO   C36 6241   5.725   3.269   3.185 -0.0885 -0.3405 -0.1974
   15CHTO   O25 6242   5.718   3.183   3.071 -0.4477  0.1583 -0.2086
   15CHTO   H40 6243   5.741   3.226   2.996  1.9247  0.0745 -0.9362
   15CHTO   O15 6244   5.456   3.601   2.983 -0.0358  0.5581  0.2201
   15CHTO   C19 6245   5.497   3.739   2.975 -0.1504 -0.3524  0.0146
   15CHTO   H47 6246   5.529   3.743   2.872 -0.8345  1.5536 -0.3910
   15CHTO   C20 6247   5.375   3.837   3.007 -0.4173 -0.1329  0.0652
   15CHTO   H48 6248   5.332   3.825   3.111 -0.8433 -0.7712  0.7761
   15CHTO   O19 6249   5.282   3.811   2.901  0.7296 -0.4606 -0.0332
   15CHTO   H35 6250   5.215   3.870   2.915  1.7021 -1.7328  1.3939
   15CHTO   C21 6251   5.410   3.991   3.015  0.3139  0.7643 -0.1238
   15CHTO   H49 6252   5.439   4.026   2.923 -0.6399  1.3466  0.0351
   15CHTO    N4 6253   5.296   4.075   3.057 -0.5734 -0.1455 -0.3491
   15CHTO   H41 6254   5.250   4.061   3.153 -0.6356 -0.6442 -0.0854
   15CHTO   H42 6255   5.217   4.079   2.982 -1.5910  0.5360  1.0946
   15CHTO   C22 6256   5.541   3.998   3.104 -0.2411 -1.1633 -0.1989
   15CHTO   H50 6257   5.508   3.959   3.206  1.5162 -1.9105 -1.0366
   15CHTO   O14 6258   5.649   3.914   3.066 -0.7257 -0.0012 -0.5275
   15CHTO   C23 6259   5.626   3.774   3.058  0.9642 -0.1759 -0.2853
   15CHTO   H51 6260   5.618   3.735   3.162 -0.7688 -2.6261 -2.5608
   15CHTO   C34 6261   5.755   3.717   2.998  0.3904 -0.0096  0.7456
   15CHTO   O23 6262   5.883   3.733   3.066  0.1235 -0.8186 -0.4557
   15CHTO   H38 6263   5.909   3.822   3.054  1.5788  1.3464 -2.5773
   15CHTO   O16 6264   5.590   4.134   3.109  0.2509  0.0449  0.3367
   15CHTO   C24 6265   5.684   4.164   3.243 -0.1974  0.1189  0.2384
   15CHTO   H52 6266   5.698   4.074   3.297  0.5994  1.0293 -0.9390
   15CHTO   C26 6267   5.605   4.259   3.338  0.2884  0.2897  0.0768
   15CHTO   H54 6268   5.569   4.353   3.284 -0.2248 -0.7054  0.6554
   15CHTO   O20 6269   5.479   4.193   3.379 -0.2997 -0.0233 -0.3812
   15CHTO   H36 6270   5.429   4.158   3.305  0.1092  0.1475 -0.5035
   15CHTO   C30 6271   5.679   4.302   3.464 -0.7132  0.1269  0.1522
   15CHTO   H58 6272   5.687   4.216   3.534 -0.4732  0.8014  1.4116
   15CHTO    N6 6273   5.607   4.414   3.538  0.9337 -0.1657  0.9187
   15CHTO   H45 6274   5.506   4.398   3.521 -0.2097 -0.5846  0.2848
   15CHTO   H46 6275   5.639   4.516   3.510 -0.9756  1.4689  2.9582
   15CHTO   C33 6276   5.827   4.343   3.427 -0.7926 -0.2354  0.2441
   15CHTO   H61 6277   5.837   4.439   3.365 -3.8395 -1.9474  2.1815
   15CHTO   O18 6278   5.886   4.230   3.348 -0.3826  0.2071 -0.2120
   15CHTO   C28 6279   5.824   4.217   3.218  0.0544 -0.8257 -0.1443
   15CHTO   H56 6280   5.816   4.317   3.178  0.6513  0.0309  4.3307
   15CHTO   C35 6281   5.911   4.121   3.148 -0.3826  0.0839 -0.7021
   15CHTO   O24 6282   6.033   4.175   3.098  0.2976 -0.1011  1.1600
   15CHTO   H39 6283   6.019   4.258   3.054 -2.3264  1.3351 -3.7322
   15CHTO    O9 6284   5.909   4.373   3.536 -0.0370 -0.2344  0.0791
   15CHTO   C13 6285   6.050   4.452   3.516  0.0970  0.4558  0.2379
   15CHTO   H26 6286   6.044   4.535   3.448  0.2303  0.5951  2.6834
   15CHTO   C11 6287   6.170   4.353   3.476  0.0961 -0.9503 -0.0059
   15CHTO   H24 6288   6.149   4.307   3.377 -1.3816  0.4089 -1.6531
   15CHTO    O8 6289   6.195   4.251   3.571 -0.3057 -0.1880 -0.1732
   15CHTO    H3 6290   6.121   4.216   3.614  3.2310  2.4954 -2.3423
   15CHTO    C9 6291   6.299   4.442   3.454  0.0759 -0.1108  0.4695
   15CHTO   H22 6292   6.272   4.515   3.372 -1.8285  0.4954 -1.9672
   15CHTO    N2 6293   6.416   4.368   3.396 -0.0517 -0.7035 -0.7079
   15CHTO   H10 6294   6.384   4.307   3.318  2.0602  0.5971  1.8540
   15CHTO   H11 6295   6.450   4.295   3.471  0.2177  1.7359  2.2025
   15CHTO    C7 6296   6.328   4.518   3.592 -0.2433 -0.3006 -0.2152
   15CHTO   H20 6297   6.407   4.603   3.572 -0.8688  0.2853 -3.4933
   15CHTO    O4 6298   6.219   4.590   3.649  0.2913 -0.2052  0.1902
   15CHTO   C14 6299   6.087   4.530   3.652 -0.2908 -0.5167  0.7208
   15CHTO   H27 6300   6.015   4.613   3.664  1.0367  0.4078  0.1927
   15CHTO   C18 6301   6.080   4.443   3.787 -0.5911 -0.1205  0.2507
   15CHTO   O13 6302   6.047   4.535   3.892 -0.0679  0.0081 -0.0627
   15CHTO    H7 6303   5.956   4.518   3.915 -1.3461  0.3783 -1.0213
   15CHTO    O2 6304   6.385   4.413   3.706  0.2951 -0.2442 -0.3215
   15CHTO    C1 6305   6.491   4.455   3.791  0.0680  0.4298 -0.1119
   15CHTO   H14 6306   6.453   4.553   3.817  1.8683 -1.5430 -0.1178
   15CHTO    C2 6307   6.636   4.467   3.726 -0.2952  0.3459  0.0010
   15CHTO   H15 6308   6.667   4.377   3.675  0.9903  0.6881 -0.0854
   15CHTO    O6 6309   6.634   4.577   3.631  0.0592  1.3408 -0.3607
   15CHTO    H1 6310   6.645   4.656   3.677  1.5571 -1.0846 -0.1744
   15CHTO    C3 6311   6.747   4.510   3.839 -0.0647 -0.2517  0.0516
   15CHTO   H16 6312   6.730   4.613   3.867  0.7359 -2.3204  0.1617
   15CHTO    N1 6313   6.887   4.513   3.781 -0.6074  0.0484  0.3011
   15CHTO    H8 6314   6.961   4.582   3.828  1.1381  1.7567 -0.6590
   15CHTO    H9 6315   6.929   4.419   3.776  2.0020  2.5324 -1.5997
   15CHTO    C4 6316   6.732   4.429   3.968 -0.4784 -0.7687 -0.4381
   15CHTO   H17 6317   6.772   4.324   3.944  1.7090 -0.0248  0.4355
   15CHTO    O1 6318   6.596   4.434   4.009  0.2168  0.0495  0.0037
   15CHTO    C5 6319   6.505   4.369   3.922  0.8914  0.4336  0.2060
   15CHTO   H18 6320   6.537   4.270   3.898 -2.4463 -0.3753  2.6955
   15CHTO   C16 6321   6.369   4.353   4.000 -0.1453 -0.2245 -0.0277
   15CHTO   O11 6322   6.339   4.483   4.055 -0.0766  0.0291  0.2412
   15CHTO    H5 6323   6.263   4.510   4.020  0.0263 -0.0552  0.3769
   15CHTO    O3 6324   6.808   4.494   4.075  0.7135 -0.6083 -0.5040
   15CHTO    C6 6325   6.836   4.418   4.195 -0.3003  0.5293 -0.4806
   15CHTO   H19 6326   6.751   4.349   4.222  1.4569 -1.3385  0.8819
   15CHTO    C8 6327   6.968   4.343   4.196 -0.1665 -0.5003  0.5224
   15CHTO   H21 6328   7.047   4.417   4.188  0.1676  0.5476  1.9968
   15CHTO    O7 6329   6.964   4.244   4.096  0.6077  0.7259 -0.2195
   15CHTO    H2 6330   7.012   4.261   4.015  0.2844 -0.3724 -0.4558
   15CHTO   C12 6331   7.000   4.274   4.344 -0.0962  0.2986  0.8083
   15CHTO   H25 6332   6.925   4.193   4.362  1.4523  0.1908  0.5561
   15CHTO    N3 6333   7.135   4.201   4.351 -0.7140 -0.6963  0.1466
   15CHTO   H12 6334   7.171   4.181   4.254 -1.3398  1.6622 -0.6726
   15CHTO   H13 6335   7.123   4.103   4.407  1.0798 -2.0793  1.8070
   15CHTO   C15 6336   6.988   4.382   4.455 -0.5036  0.3610  0.3849
   15CHTO   H28 6337   7.060   4.457   4.471 -1.1054  1.9676  1.7664
   15CHTO   O10 6338   6.972   4.311   4.591  0.2163  0.1530  0.0880
   15CHTO    H4 6339   7.042   4.258   4.614 -3.2600  0.5815 -0.0789
   15CHTO    O5 6340   6.863   4.452   4.443  0.0762 -0.3358 -0.8829
   15CHTO   C10 6341   6.841   4.523   4.316  0.3418  0.5265  0.9976
   15CHTO   H23 6342   6.928   4.593   4.303 -1.4683  2.9546  1.0890
   15CHTO   C17 6343   6.717   4.618   4.333  0.0998  0.5713 -0.3932
   15CHTO   O12 6344   6.599   4.540   4.359  0.1058 -0.1964  0.0259
   15CHTO    H6 6345   6.531   4.593   4.383  0.0218 -0.8555  1.7015
   16CHTO  H203 6346   5.109   3.813   3.256 -1.8356  0.2325 -1.8034
   16CHTO   O82 6347   5.187   3.770   3.287  0.0226 -0.4759 -0.6364
   16CHTO  C123 6348   5.215   3.790   3.426  0.3756  1.1896 -0.5731
   16CHTO  H227 6349   5.138   3.745   3.493 -1.1665 -0.2501  2.3175
   16CHTO   O77 6350   5.331   3.706   3.442  0.7321  0.2536  0.6357
   16CHTO  C118 6351   5.399   3.714   3.568 -0.1959  0.4485 -0.2341
   16CHTO  H222 6352   5.327   3.694   3.646  0.7584  1.8298 -1.5160
   16CHTO  C125 6353   5.514   3.603   3.574 -0.5508  0.3347 -0.4427
   16CHTO   O84 6354   5.610   3.642   3.481 -0.4520 -0.5177  0.2488
   16CHTO  H205 6355   5.588   3.599   3.402  0.5689  0.4862 -1.2662
   16CHTO  C114 6356   5.446   3.851   3.607 -0.8637 -0.1724  0.1930
   16CHTO  H218 6357   5.516   3.890   3.531 -1.8751  0.4402  4.9547
   16CHTO  C116 6358   5.327   3.944   3.608  0.5822 -0.1974  0.8661
   16CHTO  H220 6359   5.257   3.918   3.696  0.0613 -0.7295 -0.0096
   16CHTO   O79 6360   5.372   4.075   3.650  0.1469 -0.0116  0.3983
   16CHTO  H201 6361   5.441   4.107   3.601  1.1018 -1.8941 -2.2743
   16CHTO  C120 6362   5.249   3.937   3.464 -0.5765  0.8036 -0.7709
   16CHTO  H224 6363   5.312   3.986   3.381 -0.2891  0.5353 -0.8872
   16CHTO   N21 6364   5.127   4.022   3.465 -0.2928  0.2164  0.6872
   16CHTO  H211 6365   5.078   4.022   3.560 -3.6773  0.3194 -0.7356
   16CHTO  H212 6366   5.147   4.122   3.440 -0.6397  0.0431 -0.9134
   16CHTO   O75 6367   5.520   3.834   3.726 -0.2071 -0.1825  0.3319
   16CHTO  C112 6368   5.663   3.936   3.718 -0.4302 -0.0688  0.9014
   16CHTO  H216 6369   5.629   4.032   3.683  1.9125  1.3291 -3.0075
   16CHTO   O73 6370   5.752   3.875   3.619 -0.2973 -0.4492 -0.3307
   16CHTO  C113 6371   5.881   3.940   3.592 -0.3026 -0.0363 -0.5595
   16CHTO  H217 6372   5.863   4.045   3.549 -1.5096  3.8539  0.3399
   16CHTO  C124 6373   5.959   3.860   3.485 -0.4431  0.0642  0.0266
   16CHTO   O83 6374   5.891   3.843   3.364  0.2279  0.0559 -0.0275
   16CHTO  H204 6375   5.810   3.802   3.371  1.7435 -3.0320  1.6050
   16CHTO  C109 6376   5.964   3.954   3.722 -0.4833 -0.0514  0.6812
   16CHTO  H213 6377   5.988   3.851   3.756 -2.2073 -0.0138 -0.2951
   16CHTO  C110 6378   5.875   4.020   3.833 -0.0024 -0.2583 -0.0807
   16CHTO  H214 6379   5.847   4.122   3.806 -1.2898 -0.5912  0.3374
   16CHTO   O78 6380   5.956   4.022   3.955  0.4289 -0.3456  0.6994
   16CHTO  H200 6381   5.903   4.019   4.030 -0.0784  0.7223 -3.2518
   16CHTO  C111 6382   5.736   3.946   3.849 -0.5893 -0.1915 -0.2257
   16CHTO  H215 6383   5.758   3.842   3.888 -1.3726 -1.5458  0.2572
   16CHTO   N19 6384   5.650   4.006   3.954  0.4850 -0.0681  0.4006
   16CHTO  H207 6385   5.697   4.099   3.987 -0.9364 -1.7166  0.9870
   16CHTO  H208 6386   5.547   4.001   3.920  1.2981  1.9077  3.0070
   16CHTO   O74 6387   6.086   4.030   3.698 -0.2066  0.7199  0.2608
   16CHTO  C115 6388   6.224   3.940   3.686  0.5175  0.0189  0.3415
   16CHTO  H219 6389   6.199   3.834   3.701 -2.6654  0.1443 -0.4250
   16CHTO   O76 6390   6.284   3.954   3.537  0.6698 -0.3381 -0.5948
   16CHTO  C122 6391   6.407   3.884   3.510 -0.5472  0.1692  0.6505
   16CHTO  H226 6392   6.439   3.912   3.405 -3.0333  1.0188 -2.7894
   16CHTO  C126 6393   6.401   3.733   3.506  0.0445 -0.3831  0.3218
   16CHTO   O85 6394   6.289   3.701   3.423  0.8739 -0.4052 -0.3071
   16CHTO  H206 6395   6.252   3.618   3.439  0.9233 -2.0553  1.7495
   16CHTO  C121 6396   6.518   3.928   3.612  0.3524 -0.1050 -0.6285
   16CHTO  H225 6397   6.615   3.867   3.607  2.1522 -0.4721 -3.1776
   16CHTO   O81 6398   6.553   4.061   3.577  0.0468 -0.4198  0.3459
   16CHTO  H202 6399   6.630   4.048   3.527  0.5297 -0.4189  1.5951
   16CHTO  C119 6400   6.469   3.913   3.762  0.0400 -0.3638 -0.4653
   16CHTO  H223 6401   6.456   3.808   3.769  0.4466  0.4563  1.3797
   16CHTO  C117 6402   6.331   3.987   3.789 -0.2100  0.2675 -0.0911
   16CHTO  H221 6403   6.340   4.093   3.780  2.5388 -1.5402 -1.3829
   16CHTO   N20 6404   6.284   3.961   3.925  0.5783 -0.2700 -0.5406
   16CHTO  H209 6405   6.359   3.957   4.007  0.6751 -0.0749 -0.7084
   16CHTO  H210 6406   6.208   4.032   3.949  0.6368  2.4010  2.3734
   16CHTO   O80 6407   6.584   3.936   3.860  0.0430 -0.0155 -0.0973
   16CHTO  C103 6408   6.629   3.812   3.960 -0.1182  0.1543 -0.4566
   16CHTO  H190 6409   6.544   3.771   4.005 -2.4647  2.4468 -0.6173
   16CHTO  C101 6410   6.709   3.693   3.899 -0.0693 -0.1937  0.2805
   16CHTO  H188 6411   6.804   3.741   3.864  0.7219 -1.6771 -0.0716
   16CHTO   O68 6412   6.649   3.647   3.767  0.4802  0.0033 -0.0228
   16CHTO  H168 6413   6.577   3.589   3.776 -1.3836  2.2228 -0.0721
   16CHTO   C99 6414   6.708   3.583   4.008  0.2437  0.1479 -0.5986
   16CHTO  H186 6415   6.600   3.565   4.044 -1.9091 -0.1834  1.6229
   16CHTO   N17 6416   6.756   3.449   3.967 -0.1472 -0.1192 -0.4075
   16CHTO  H174 6417   6.838   3.419   4.040 -1.9660 -1.8515  2.1477
   16CHTO  H175 6418   6.792   3.453   3.865 -0.0225  0.4844  0.0796
   16CHTO   C97 6419   6.784   3.645   4.131 -0.2600 -0.0630 -0.2259
   16CHTO  H184 6420   6.895   3.643   4.109 -1.8670  3.6002 -0.5310
   16CHTO   O64 6421   6.737   3.777   4.174  0.1269 -0.7006 -0.0976
   16CHTO  C104 6422   6.707   3.873   4.073  0.4432  0.3739 -0.5094
   16CHTO  H191 6423   6.799   3.927   4.035  0.8474 -0.9863  0.1455
   16CHTO  C108 6424   6.624   3.979   4.151 -0.3787  0.2879 -0.0751
   16CHTO   O71 6425   6.703   4.093   4.193 -0.2096 -0.0286  0.2220
   16CHTO  H171 6426   6.679   4.137   4.272  2.1298  2.0912 -3.3602
   16CHTO   O62 6427   6.753   3.562   4.248 -0.1697  0.1294 -0.1146
   16CHTO   C91 6428   6.844   3.555   4.357 -0.4830 -0.0369  0.7329
   16CHTO  H178 6429   6.944   3.546   4.307  0.4826  0.7294 -3.7034
   16CHTO   C92 6430   6.815   3.411   4.411  0.0629  0.0193  0.2971
   16CHTO  H179 6431   6.823   3.333   4.329 -0.7319  1.5626 -0.2350
   16CHTO   O66 6432   6.926   3.380   4.499  0.4486  0.5282  0.0928
   16CHTO  H166 6433   6.914   3.317   4.568 -0.2655 -0.0498  1.9037
   16CHTO   C93 6434   6.684   3.399   4.493  0.2806  0.4118  0.1551
   16CHTO  H180 6435   6.710   3.324   4.571  1.0422  0.9191  0.2667
   16CHTO   N16 6436   6.575   3.334   4.424 -0.2751  0.1870  0.4553
   16CHTO  H172 6437   6.585   3.231   4.419 -2.3472 -0.7255  0.5583
   16CHTO  H173 6438   6.565   3.377   4.326  1.9385  0.4254 -0.3975
   16CHTO   C94 6439   6.641   3.527   4.565  0.1743 -0.2345  0.0803
   16CHTO  H181 6440   6.571   3.590   4.503  1.3821  0.4710 -1.3436
   16CHTO   O61 6441   6.756   3.614   4.588  0.3876 -0.1288  0.1599
   16CHTO   C95 6442   6.835   3.662   4.473 -0.3370 -0.2649  0.5681
   16CHTO  H182 6443   6.793   3.756   4.444  0.1702 -0.1751  2.4608
   16CHTO  C106 6444   6.965   3.700   4.551  0.0888  0.4128  0.1572
   16CHTO   O69 6445   7.062   3.750   4.462 -0.3108  0.2288 -0.1556
   16CHTO  H169 6446   7.062   3.841   4.448  4.4630 -0.9117  2.1469
   16CHTO   O63 6447   6.574   3.485   4.714  0.0381 -0.2554  0.4161
   16CHTO   C96 6448   6.465   3.389   4.734  0.1940  0.0121 -0.2219
   16CHTO  H183 6449   6.500   3.301   4.688 -1.5611  0.4008 -1.4938
   16CHTO   C98 6450   6.328   3.437   4.672 -0.4339  0.9250  0.1730
   16CHTO  H185 6451   6.337   3.478   4.569  1.5870 -1.3193 -0.6255
   16CHTO   O67 6452   6.230   3.334   4.651 -0.3739  0.1643 -0.5887
   16CHTO  H167 6453   6.210   3.321   4.562  0.3832  0.2819  1.4135
   16CHTO  C102 6454   6.267   3.552   4.766  0.2923  0.6715  0.3518
   16CHTO  H189 6455   6.157   3.552   4.748  0.7420 -0.9285 -0.1265
   16CHTO   N18 6456   6.307   3.695   4.737  0.0378  0.5656 -0.0626
   16CHTO  H176 6457   6.227   3.760   4.765  3.3600  0.9789 -0.7755
   16CHTO  H177 6458   6.326   3.700   4.629  0.7295  0.2716 -1.6712
   16CHTO  C105 6459   6.276   3.510   4.914  0.0808 -0.4958  0.2013
   16CHTO  H192 6460   6.348   3.576   4.970 -1.0497  0.0521  1.9657
   16CHTO   O65 6461   6.327   3.376   4.928 -0.7191 -0.1013 -0.3054
   16CHTO  C100 6462   6.454   3.355   4.886  0.3161  0.6698  0.2528
   16CHTO  H187 6463   6.539   3.404   4.935 -0.6958  2.4458  0.2562
   16CHTO  C107 6464   6.492   3.203   4.916 -0.0415 -0.0564 -0.1272
   16CHTO   O70 6465   6.466   3.163   5.051 -0.7731  0.4097  0.0284
   16CHTO  H170 6466   6.419   3.224   5.100  2.4795 -0.3804 -0.3364
   16CHTO   O57 6467   6.113   3.531   4.975 -0.7871  0.1437  0.6644
   16CHTO   C85 6468   6.053   3.663   4.993 -0.3304 -0.5709  0.4301
   16CHTO  H157 6469   6.032   3.709   4.901  0.6569  0.9078  0.3574
   16CHTO   C83 6470   6.140   3.775   5.057 -0.1012 -0.4650  0.4326
   16CHTO  H155 6471   6.224   3.792   4.994  2.1823 -0.1807 -0.1767
   16CHTO   O56 6472   6.196   3.731   5.185 -0.0886  0.0902 -0.1396
   16CHTO  H135 6473   6.217   3.797   5.247  1.0232 -2.5303 -0.2746
   16CHTO   C81 6474   6.054   3.905   5.072 -0.1393 -1.1330 -0.1616
   16CHTO  H153 6475   6.023   3.941   4.977 -0.2342  1.0171  2.4877
   16CHTO   N14 6476   6.132   4.015   5.133  0.2683  0.5719  0.1305
   16CHTO  H141 6477   6.061   4.087   5.169  0.0053  2.6892 -0.4624
   16CHTO  H142 6478   6.181   4.060   5.051 -3.0479 -1.0950 -2.7420
   16CHTO   C79 6479   5.922   3.871   5.153 -0.2148 -0.0966 -0.0182
   16CHTO  H151 6480   5.859   3.967   5.166 -1.6122 -0.7161 -0.7978
   16CHTO   O52 6481   5.847   3.759   5.087  0.6280 -0.5476 -0.2656
   16CHTO   C86 6482   5.920   3.632   5.076  0.2051  0.0559 -0.2794
   16CHTO  H158 6483   5.958   3.592   5.170  0.8418 -1.0328 -0.2930
   16CHTO   C90 6484   5.828   3.526   5.027  0.3762 -0.4851  0.7502
   16CHTO   O60 6485   5.769   3.568   4.900  0.0940 -0.0024 -0.0014
   16CHTO  H138 6486   5.741   3.491   4.853 -1.0960  0.0315  2.0370
   16CHTO   O50 6487   5.944   3.835   5.299  0.4667  0.1265  0.1697
   16CHTO   C73 6488   5.900   3.793   5.428 -0.7908 -0.3125 -0.1233
   16CHTO  H145 6489   5.975   3.745   5.484  1.2970 -0.1892 -1.9785
   16CHTO   C74 6490   5.777   3.698   5.418  0.0398 -0.3439  0.1764
   16CHTO  H146 6491   5.813   3.620   5.346 -0.1744 -0.6935  0.6790
   16CHTO   O54 6492   5.760   3.636   5.548 -0.2651  0.4496 -0.1237
   16CHTO  H133 6493   5.673   3.637   5.577 -0.2003  1.6918 -2.5320
   16CHTO   C75 6494   5.645   3.766   5.361 -0.3542  0.5478 -0.2266
   16CHTO  H147 6495   5.656   3.780   5.256  2.5902  0.3119  0.7703
   16CHTO   N13 6496   5.529   3.676   5.369  0.1496 -0.5249 -0.3651
   16CHTO  H139 6497   5.488   3.644   5.270  0.0987 -0.6764  1.7141
   16CHTO  H140 6498   5.452   3.712   5.433 -1.1024 -0.5095  2.1572
   16CHTO   C76 6499   5.625   3.903   5.448  0.3621  0.2113  0.2330
   16CHTO  H148 6500   5.602   3.874   5.553 -0.5577  1.3289 -3.1026
   16CHTO   O49 6501   5.747   3.984   5.442  0.5656  0.5764 -1.0731
   16CHTO   C77 6502   5.857   3.921   5.506  0.6314  0.0330  0.7235
   16CHTO  H149 6503   5.835   3.886   5.600  3.6608 -1.5702 -0.4746
   16CHTO   C88 6504   5.966   4.022   5.512 -0.2033 -0.1714  0.0627
   16CHTO   O58 6505   5.943   4.136   5.621  0.1561  0.1246 -0.2027
   16CHTO  H136 6506   5.881   4.197   5.589  1.0237  2.2195  0.4075
   16CHTO   O51 6507   5.504   3.982   5.390 -0.0261 -0.2236  0.0770
   16CHTO   C78 6508   5.451   4.118   5.453 -0.1341 -0.4547  0.5410
   16CHTO  H150 6509   5.523   4.194   5.425 -1.0669 -1.0435  2.0618
   16CHTO   C80 6510   5.447   4.109   5.612 -0.0149 -0.5175  0.2118
   16CHTO  H152 6511   5.379   4.025   5.631  0.7608 -0.4785 -1.3426
   16CHTO   O55 6512   5.574   4.073   5.662  0.1409 -0.4145 -0.3357
   16CHTO  H134 6513   5.594   3.989   5.699 -0.5916  1.8593 -0.3449
   16CHTO   C84 6514   5.396   4.241   5.687  0.4512  0.3481  0.6731
   16CHTO  H156 6515   5.484   4.311   5.671  1.4157  3.2958 -0.0329
   16CHTO   N15 6516   5.381   4.232   5.835  0.2025  0.2170 -0.4266
   16CHTO  H143 6517   5.473   4.230   5.885 -0.0803  2.1810 -0.7081
   16CHTO  H144 6518   5.314   4.158   5.872 -2.4598 -0.4858  2.3262
   16CHTO   C87 6519   5.270   4.293   5.614 -0.0628  0.1380  0.4624
   16CHTO  H159 6520   5.192   4.229   5.636 -0.1674 -0.7603  2.7952
   16CHTO   O53 6521   5.287   4.299   5.444  1.0222 -0.1195  0.1896
   16CHTO   C82 6522   5.314   4.168   5.390 -0.0242  1.2694  0.5943
   16CHTO  H154 6523   5.239   4.088   5.411 -0.0693 -0.3838  1.2908
   16CHTO   C89 6524   5.336   4.161   5.236  0.3883 -0.0779  0.1174
   16CHTO   O59 6525   5.213   4.188   5.165 -0.1946 -0.1822  0.0803
   16CHTO  H137 6526   5.168   4.262   5.205 -0.6097  0.2155  0.5785
   16CHTO   O45 6527   5.239   4.445   5.658  0.6991  0.4635  0.1158
   16CHTO   C67 6528   5.288   4.549   5.571  0.0725  0.0713  0.5598
   16CHTO  H124 6529   5.363   4.503   5.507  1.6769 -1.2608 -0.0683
   16CHTO   C65 6530   5.174   4.614   5.480 -0.9693 -0.0393  0.2638
   16CHTO  H122 6531   5.097   4.610   5.544  1.7803  0.3924  1.5157
   16CHTO   O44 6532   5.137   4.522   5.376 -0.1975 -0.2935  0.2259
   16CHTO  H102 6533   5.201   4.509   5.313 -0.2949 -1.8410 -1.7409
   16CHTO   C63 6534   5.205   4.769   5.453  0.0469  0.3693 -0.1436
   16CHTO  H120 6535   5.185   4.825   5.549 -1.1273  0.7368 -0.8656
   16CHTO   N11 6536   5.121   4.835   5.357  0.1697  0.1469  0.2952
   16CHTO  H108 6537   5.120   4.939   5.378 -0.9010  0.2228 -0.5890
   16CHTO  H109 6538   5.023   4.798   5.375  0.2242 -2.7603  1.0601
   16CHTO   C61 6539   5.354   4.797   5.443  0.9309  0.4313  0.1977
   16CHTO  H118 6540   5.368   4.911   5.437  2.2418 -1.6157  1.4426
   16CHTO   O40 6541   5.429   4.756   5.559  0.1495  0.7551 -0.2546
   16CHTO   C68 6542   5.363   4.661   5.649  0.1883 -0.9556  0.0892
   16CHTO  H125 6543   5.292   4.731   5.701 -0.7314 -1.2191 -0.9470
   16CHTO   C72 6544   5.469   4.613   5.750 -0.3688  0.1635 -0.4650
   16CHTO   O48 6545   5.416   4.567   5.880 -0.1177  0.5194 -0.4729
   16CHTO  H105 6546   5.487   4.558   5.935 -1.6925 -0.7260 -0.2010
   16CHTO   O38 6547   5.407   4.729   5.331 -0.3819  0.0667 -0.0134
   16CHTO   C55 6548   5.553   4.739   5.300 -0.7551 -0.2497 -0.2255
   16CHTO  H112 6549   5.597   4.761   5.396  0.7587  1.6886 -0.2890
   16CHTO   C56 6550   5.576   4.857   5.199 -0.6199  0.2128 -0.1921
   16CHTO  H113 6551   5.506   4.839   5.118  0.8291 -1.4451  0.4647
   16CHTO   O42 6552   5.542   4.980   5.258 -0.4794  0.1646 -0.0515
   16CHTO  H100 6553   5.451   5.002   5.253 -0.2186  2.0099 -0.0885
   16CHTO   C57 6554   5.725   4.859   5.137  0.9618  0.5005 -0.4941
   16CHTO  H114 6555   5.793   4.886   5.218  3.5708  1.0925 -2.6192
   16CHTO   N10 6556   5.731   4.955   5.018 -0.1259  0.1401 -0.8618
   16CHTO  H106 6557   5.631   4.963   4.976  0.6262 -0.4927  0.7057
   16CHTO  H107 6558   5.759   5.049   5.065 -1.0147  0.2696 -0.0183
   16CHTO   C58 6559   5.757   4.719   5.088  0.2676  0.0153 -0.2381
   16CHTO  H115 6560   5.684   4.695   4.997 -1.0406  1.6897 -2.7170
   16CHTO   O37 6561   5.739   4.623   5.198  0.8122 -0.0706  0.1990
   16CHTO   C59 6562   5.600   4.608   5.242 -0.3767 -0.0336  0.4257
   16CHTO  H116 6563   5.535   4.571   5.163 -0.2348  0.6174  0.1657
   16CHTO   C70 6564   5.588   4.497   5.348  0.6627  0.3216 -0.6780
   16CHTO   O46 6565   5.595   4.365   5.297 -0.1979 -0.5829  0.0332
   16CHTO  H103 6566   5.539   4.307   5.340  1.1787  0.4391 -1.6301
   16CHTO   O39 6567   5.919   4.722   5.054 -0.4701  0.1338  0.3702
   16CHTO   C60 6568   5.934   4.639   4.936  0.1799  0.0262 -0.2048
   16CHTO  H117 6569   5.843   4.583   4.908  0.5301 -0.0337 -0.1513
   16CHTO   C62 6570   5.955   4.728   4.809 -0.2616 -0.4286  0.2191
   16CHTO  H119 6571   5.859   4.783   4.794  0.5751  0.1925  2.2652
   16CHTO   O43 6572   6.075   4.819   4.831  0.2905  0.2519  0.1385
   16CHTO  H101 6573   6.056   4.861   4.913  0.1226  1.3149 -0.4422
   16CHTO   C66 6574   5.984   4.623   4.683  0.1044  0.0074  0.7670
   16CHTO  H123 6575   5.901   4.554   4.673 -0.6219  1.5185  1.2857
   16CHTO   N12 6576   5.991   4.699   4.548  0.7625 -0.2821 -0.0277
   16CHTO  H110 6577   5.997   4.631   4.461 -0.3582  0.8990 -1.0897
   16CHTO  H111 6578   5.904   4.761   4.542  0.8903  0.8991 -1.2165
   16CHTO   C69 6579   6.102   4.536   4.725  0.2487 -0.4530 -0.0089
   16CHTO  H126 6580   6.173   4.602   4.759 -1.4979  0.6483 -1.4021
   16CHTO   O41 6581   6.057   4.445   4.847 -0.4689 -0.0177  0.1036
   16CHTO   C64 6582   6.046   4.538   4.971 -0.2659 -0.2728  0.5067
   16CHTO  H121 6583   6.138   4.592   4.987 -1.5065 -0.4223 -1.4514
   16CHTO   C71 6584   5.998   4.456   5.092 -0.0584  1.1889 -0.4238
   16CHTO   O47 6585   6.079   4.342   5.124  0.0745 -0.2329  0.2871
   16CHTO  H104 6586   6.171   4.359   5.123  1.7563 -1.8761  1.5591
   16CHTO   O34 6587   6.148   4.431   4.616 -0.1003 -0.1339 -0.3823
   16CHTO   C49 6588   6.314   4.394   4.581 -0.5157  0.5295 -0.0217
   16CHTO   H91 6589   6.354   4.478   4.530 -2.0037 -0.9357  0.4785
   16CHTO   C47 6590   6.323   4.266   4.502  0.2257 -0.1390  0.1606
   16CHTO   H89 6591   6.427   4.247   4.473 -1.6339  0.8886 -0.7064
   16CHTO   O33 6592   6.249   4.291   4.371  0.4025 -0.5026 -0.2362
   16CHTO   H70 6593   6.306   4.344   4.314  2.6332  2.4928  1.5696
   16CHTO   C45 6594   6.269   4.138   4.598  0.4265 -0.1903 -0.2104
   16CHTO   H87 6595   6.163   4.157   4.635 -1.4710 -0.1756 -0.3978
   16CHTO    N8 6596   6.265   4.017   4.503 -0.2643 -0.6514  0.1013
   16CHTO   H75 6597   6.363   3.969   4.498 -0.2613  0.0050  0.5182
   16CHTO   H76 6598   6.188   3.947   4.542  0.1968 -1.5189  1.7696
   16CHTO   C43 6599   6.351   4.135   4.744 -0.4989  0.2593 -0.3285
   16CHTO   H85 6600   6.302   4.066   4.816 -2.1358  3.9358 -6.5430
   16CHTO   O29 6601   6.366   4.269   4.797 -0.0168 -0.1962 -0.6536
   16CHTO   C50 6602   6.394   4.383   4.718 -0.3156  0.1884  0.7348
   16CHTO   H92 6603   6.367   4.465   4.781  1.4145  1.0745  0.7941
   16CHTO   C54 6604   6.547   4.397   4.690  0.6768  0.3892 -0.1530
   16CHTO   O36 6605   6.620   4.387   4.811 -0.4331  0.2575 -0.5046
   16CHTO   H72 6606   6.699   4.344   4.808  0.3484  0.8019  1.8069
   16CHTO   O27 6607   6.480   4.077   4.727 -0.9454  0.0034  0.0246
   16CHTO   C37 6608   6.584   4.016   4.811  0.3153  0.2703  0.0598
   16CHTO   H79 6609   6.644   4.096   4.856 -1.6191 -0.1703  3.0640
   16CHTO   C38 6610   6.528   3.934   4.931  1.1048 -0.2085 -0.4325
   16CHTO   H80 6611   6.453   3.861   4.889  2.5517 -0.2592  0.6020
   16CHTO   O31 6612   6.452   4.026   5.028 -0.5204  0.8608  0.4774
   16CHTO   H68 6613   6.362   4.022   5.012  0.2552 -3.0294 -0.3628
   16CHTO   C39 6614   6.635   3.848   5.001 -0.2033 -0.9904 -0.1020
   16CHTO   H81 6615   6.692   3.922   5.062 -0.0504 -0.5839  0.1383
   16CHTO    N7 6616   6.564   3.745   5.091 -0.7519 -0.1329  0.3023
   16CHTO   H73 6617   6.637   3.714   5.155 -1.3916 -1.3043  0.1524
   16CHTO   H74 6618   6.538   3.658   5.029 -2.3733 -0.2897 -2.4137
   16CHTO   C40 6619   6.740   3.782   4.906  0.3119  0.0005 -0.2598
   16CHTO   H82 6620   6.698   3.689   4.853  0.0594 -2.5698  0.8837
   16CHTO   O26 6621   6.794   3.878   4.812  0.0752 -0.7944  0.0626
   16CHTO   C41 6622   6.680   3.934   4.721  0.5311 -0.0932 -0.0022
   16CHTO   H83 6623   6.619   3.843   4.689 -1.8919 -0.0292  1.0284
   16CHTO   C52 6624   6.746   4.006   4.602 -0.0164  0.0863  0.2931
   16CHTO   O35 6625   6.663   4.119   4.513 -0.0706  0.0218 -0.1965
   16CHTO   H71 6626   6.575   4.089   4.506  2.8133  0.5572  0.5918
   16CHTO   O28 6627   6.851   3.768   4.997  0.0182  0.0859  0.2147
   16CHTO   C42 6628   6.894   3.631   5.033 -0.0901 -0.2750  0.4147
   16CHTO   H84 6629   7.002   3.650   5.010 -2.1806 -3.0301  0.1052
   16CHTO   C44 6630   6.856   3.504   4.942  0.2032  0.1879  0.0449
   16CHTO   H86 6631   6.753   3.503   4.933  0.5409  3.3627  1.9341
   16CHTO   O32 6632   6.914   3.529   4.816  0.6413 -0.3660  0.0077
   16CHTO   H69 6633   6.857   3.495   4.751  1.0609 -0.5749  2.1332
   16CHTO   C48 6634   6.913   3.364   4.991  0.7430 -0.4533  0.1012
   16CHTO   H90 6635   7.017   3.358   4.966  0.4660 -0.8531  1.1653
   16CHTO    N9 6636   6.857   3.251   4.918  0.4549 -0.2409  0.4138
   16CHTO   H77 6637   6.891   3.258   4.818 -0.4475  1.7464  0.5902
   16CHTO   H78 6638   6.752   3.232   4.924  0.8763  1.4428 -0.5100
   16CHTO   C51 6639   6.898   3.349   5.141 -0.4270  0.5063  0.1875
   16CHTO   H93 6640   6.788   3.343   5.159 -2.2609 -2.6118 -1.6093
   16CHTO   O30 6641   6.954   3.460   5.201 -0.0638  0.8023 -0.0209
   16CHTO   C46 6642   6.883   3.591   5.184  0.6043  0.1873  0.1957
   16CHTO   H88 6643   6.779   3.568   5.208 -1.1379 -1.7075  0.1711
   16CHTO   C53 6644   6.946   3.689   5.280 -0.0239  0.0693 -0.0475
   16CHTO   O72 6645   6.900   3.821   5.260 -0.6842 -0.8645 -0.2588
   16CHTO  H199 6646   6.811   3.809   5.248  1.4616 -0.6439  1.6776
   16CHTO   O22 6647   6.970   3.238   5.194  0.2460 -0.0361 -0.1756
   16CHTO   C31 6648   6.912   3.160   5.310 -0.1506 -0.1120 -0.1455
   16CHTO   H59 6649   6.982   3.076   5.320  1.9676 -1.6631 -0.4797
   16CHTO   C29 6650   6.916   3.242   5.447 -0.2167 -0.4917 -0.0316
   16CHTO   H57 6651   6.871   3.343   5.425 -1.0389  1.9888  2.3924
   16CHTO   O21 6652   7.056   3.252   5.476  0.1447 -0.3550  0.6452
   16CHTO   H37 6653   7.069   3.323   5.529  1.9751 -0.2258 -1.5732
   16CHTO   C27 6654   6.833   3.180   5.570 -0.2728 -0.4838  0.9174
   16CHTO   H55 6655   6.885   3.089   5.598 -2.3323  1.4305 -1.1457
   16CHTO    N5 6656   6.815   3.269   5.687  0.6194 -0.2139 -0.1088
   16CHTO   H43 6657   6.747   3.350   5.671  3.8330 -0.7349 -2.3598
   16CHTO   H44 6658   6.812   3.221   5.787 -0.4174 -0.2833 -1.3818
   16CHTO   C25 6659   6.697   3.124   5.516  0.0113 -0.1796 -0.2016
   16CHTO   H53 6660   6.622   3.207   5.490 -1.6835  0.1103 -0.5587
   16CHTO   O17 6661   6.721   3.033   5.407 -0.2862 -0.1510 -0.1228
   16CHTO   C32 6662   6.763   3.094   5.287 -0.2193 -0.2598  0.1881
   16CHTO   H60 6663   6.690   3.175   5.262 -1.6403 -0.4734  1.5074
   16CHTO   C36 6664   6.773   2.976   5.185 -0.5617 -0.0466 -0.0502
   16CHTO   O25 6665   6.645   2.913   5.185  0.2899 -0.5005  0.3946
   16CHTO   H40 6666   6.656   2.838   5.125  1.2084  0.3779 -1.1895
   16CHTO   O15 6667   6.627   3.043   5.634 -0.4858 -0.0068  0.6477
   16CHTO   C19 6668   6.548   3.032   5.757 -0.4572  0.0935  0.2261
   16CHTO   H47 6669   6.618   3.066   5.836  2.4491 -0.7766 -0.6425
   16CHTO   C20 6670   6.418   3.112   5.762 -0.0955 -0.1633  0.2723
   16CHTO   H48 6671   6.365   3.111   5.673  1.4383 -0.4647 -1.2761
   16CHTO   O19 6672   6.467   3.247   5.776  0.0571 -0.3161  0.5349
   16CHTO   H35 6673   6.410   3.312   5.738  1.5691  0.5091 -1.2781
   16CHTO   C21 6674   6.325   3.082   5.889 -0.5856 -0.2612 -0.1675
   16CHTO   H49 6675   6.376   3.115   5.978 -0.3686 -2.6316  0.4040
   16CHTO    N4 6676   6.198   3.154   5.890  0.4743  0.3198 -0.4126
   16CHTO   H41 6677   6.126   3.089   5.932  1.0589  1.9075 -0.0613
   16CHTO   H42 6678   6.202   3.238   5.962 -1.2366  0.6752 -0.5746
   16CHTO   C22 6679   6.310   2.929   5.905 -0.0122 -0.0841  0.7015
   16CHTO   H50 6680   6.263   2.894   5.813  2.2457  2.9471 -3.0097
   16CHTO   O14 6681   6.448   2.879   5.919  0.0961 -0.1449  0.2469
   16CHTO   C23 6682   6.512   2.889   5.791 -0.0630  0.2576 -0.2124
   16CHTO   H51 6683   6.448   2.836   5.712  0.5041 -2.7006  0.4514
   16CHTO   C34 6684   6.639   2.810   5.812 -0.0326 -0.4207  0.3611
   16CHTO   O23 6685   6.622   2.673   5.804  0.0622 -0.0658  0.0801
   16CHTO   H38 6686   6.646   2.637   5.719  0.5497  2.7109 -1.6644
   16CHTO   O16 6687   6.231   2.887   6.018  1.1277 -0.6207  0.1680
   16CHTO   C24 6688   6.195   2.744   6.039  0.1355 -0.1619 -0.0699
   16CHTO   H52 6689   6.245   2.675   5.969  2.0289 -0.4189  2.3778
   16CHTO   C26 6690   6.044   2.730   6.032 -0.7083 -0.4453 -0.1268
   16CHTO   H54 6691   5.998   2.817   6.091  2.4132  2.7442 -2.0282
   16CHTO   O20 6692   5.994   2.751   5.903 -0.3315  0.2970  0.4886
   16CHTO   H36 6693   6.041   2.821   5.869  0.5107 -0.4663  1.7944
   16CHTO   C30 6694   5.987   2.601   6.096  0.8242 -0.4150 -0.1006
   16CHTO   H58 6695   6.005   2.506   6.041  1.6984 -1.8505  0.2030
   16CHTO    N6 6696   5.833   2.604   6.113  0.5754  0.1982  0.2944
   16CHTO   H45 6697   5.790   2.507   6.154  1.2711 -0.9758 -0.1751
   16CHTO   H46 6698   5.789   2.684   6.168  1.1328  1.4367 -1.8330
   16CHTO   C33 6699   6.052   2.574   6.230  0.6082  0.2481  0.4131
   16CHTO   H61 6700   6.033   2.659   6.292 -1.2219 -0.9368 -1.6429
   16CHTO   O18 6701   6.196   2.570   6.204 -0.0345  0.2021 -0.3965
   16CHTO   C28 6702   6.244   2.702   6.174 -0.1357  0.1754  0.4671
   16CHTO   H56 6703   6.220   2.774   6.250 -0.5059  0.6267 -0.5312
   16CHTO   C35 6704   6.400   2.700   6.175  0.5073  0.4376 -0.2245
   16CHTO   O24 6705   6.463   2.663   6.299 -0.2406 -0.1769 -0.4893
   16CHTO   H39 6706   6.528   2.600   6.285 -1.2237  0.1542  1.8118
   16CHTO    O9 6707   6.012   2.458   6.309 -0.0471  0.1534  0.3383
   16CHTO   C13 6708   6.062   2.463   6.459  0.1053  0.5027  0.2267
   16CHTO   H26 6709   6.080   2.571   6.484  0.1206 -1.5213 -0.4897
   16CHTO   C11 6710   6.195   2.374   6.465  0.4468  0.0356 -0.6968
   16CHTO   H24 6711   6.270   2.429   6.417 -0.3007 -1.6514  1.3512
   16CHTO    O8 6712   6.170   2.247   6.400 -0.7837  0.1095 -0.2880
   16CHTO    H3 6713   6.150   2.261   6.310  0.5158 -0.9117  2.8125
   16CHTO    C9 6714   6.221   2.359   6.620  0.5862 -0.6176  0.4371
   16CHTO   H22 6715   6.226   2.460   6.661  1.0855  0.1644  1.5509
   16CHTO    N2 6716   6.359   2.309   6.661 -0.4865  0.2629  0.1275
   16CHTO   H10 6717   6.428   2.392   6.668 -0.0590 -1.1458  0.8916
   16CHTO   H11 6718   6.341   2.266   6.754 -1.2017  1.5269  0.2381
   16CHTO    C7 6719   6.103   2.276   6.689 -0.2117  0.1566  0.4089
   16CHTO   H20 6720   6.087   2.326   6.791  2.5457 -0.0039  0.3393
   16CHTO    O4 6721   5.980   2.271   6.619 -0.4249  0.4839  0.0459
   16CHTO   C14 6722   5.949   2.399   6.557  0.2199 -0.5785  0.1860
   16CHTO   H27 6723   5.924   2.473   6.637 -1.7870 -0.4632  2.3115
   16CHTO   C18 6724   5.819   2.365   6.488  0.0160  0.2737 -0.3904
   16CHTO   O13 6725   5.754   2.469   6.412 -0.6045 -0.0069  0.8160
   16CHTO    H7 6726   5.760   2.475   6.321  2.3294 -1.4413  1.3784
   16CHTO    O2 6727   6.155   2.113   6.723  0.1984  0.3127 -0.3216
   16CHTO    C1 6728   6.095   2.061   6.841  0.4614 -0.5931 -0.9966
   16CHTO   H14 6729   5.989   2.098   6.847 -2.0511 -0.7449  1.1324
   16CHTO    C2 6730   6.170   2.099   6.980  1.3118  0.2085  0.5609
   16CHTO   H15 6731   6.273   2.066   6.970 -0.7727  0.1893 -1.4640
   16CHTO    O6 6732   6.170   2.240   6.988 -0.3978 -0.3573 -0.0927
   16CHTO    H1 6733   6.233   2.269   7.050  0.8201 -1.5208  2.1600
   16CHTO    C3 6734   6.098   2.030   7.108 -0.6748  0.3859 -0.6618
   16CHTO   H16 6735   5.998   2.073   7.124 -1.1317  1.1069  0.9938
   16CHTO    N1 6736   6.167   2.044   7.243  0.3827  0.3324 -0.0541
   16CHTO    H8 6737   6.174   2.156   7.268 -0.1037  0.3317  0.0782
   16CHTO    H9 6738   6.124   1.989   7.320  2.8826 -0.1622 -0.4027
   16CHTO    C4 6739   6.074   1.876   7.083  1.0415  0.1581 -0.3661
   16CHTO   H17 6740   6.164   1.821   7.107 -0.0935 -1.0177 -1.0978
   16CHTO    O1 6741   6.020   1.849   6.950  0.1732 -0.8399  0.1553
   16CHTO    C5 6742   6.080   1.908   6.837 -0.7698 -0.4208 -0.3267
   16CHTO   H18 6743   6.182   1.871   6.829 -2.4865  1.2123 -0.5637
   16CHTO   C16 6744   5.999   1.854   6.713 -0.2844 -0.4868  0.1552
   16CHTO   O11 6745   5.853   1.849   6.722 -0.2048  0.5233  0.2135
   16CHTO    H5 6746   5.824   1.818   6.638 -2.0682  0.3645 -1.7645
   16CHTO    O3 6747   5.964   1.829   7.162 -0.1177 -0.1561 -0.1128
   16CHTO    C6 6748   5.974   1.681   7.191  0.1638 -0.3360 -0.2202
   16CHTO   H19 6749   6.034   1.628   7.113  2.6564 -0.5808  0.0106
   16CHTO    C8 6750   6.031   1.653   7.336  0.1270 -0.2201 -0.0044
   16CHTO   H21 6751   5.975   1.711   7.404 -0.8802 -0.4993 -0.9725
   16CHTO    O7 6752   6.166   1.696   7.322 -0.2750 -0.4961  0.0158
   16CHTO    H2 6753   6.188   1.729   7.401  0.4212 -0.6929 -1.9039
   16CHTO   C12 6754   6.028   1.501   7.371 -0.1999 -0.2938 -0.3815
   16CHTO   H25 6755   6.088   1.462   7.288 -1.3682  0.8954 -2.1481
   16CHTO    N3 6756   6.091   1.455   7.501  0.1977 -0.0368 -0.6681
   16CHTO   H12 6757   6.177   1.387   7.476  0.5689  1.0797 -1.0467
   16CHTO   H13 6758   6.131   1.545   7.550 -0.4539  1.9258  0.2456
   16CHTO   C15 6759   5.884   1.447   7.347  0.2617  0.0230  0.1287
   16CHTO   H28 6760   5.821   1.473   7.429 -1.5727 -0.8927  2.8003
   16CHTO   O10 6761   5.873   1.294   7.335 -0.1788  0.4580 -1.0807
   16CHTO    H4 6762   5.946   1.257   7.289  0.0011  1.2828 -0.0554
   16CHTO    O5 6763   5.826   1.485   7.222 -0.4893  0.2149  0.1661
   16CHTO   C10 6764   5.830   1.626   7.182  0.1601 -0.0863 -0.3181
   16CHTO   H23 6765   5.753   1.664   7.253 -0.9140 -0.8732  1.6743
   16CHTO   C17 6766   5.771   1.636   7.040  0.4183  0.2558  0.1366
   16CHTO   O12 6767   5.633   1.600   7.048 -0.1230 -0.3933 -0.5012
   16CHTO    H6 6768   5.620   1.519   7.001  0.1957 -0.5996  2.8959
   17CHTO  H203 6769   7.786   6.164   9.044  0.2548 -1.9591  2.3422
   17CHTO   O82 6770   7.741   6.129   9.119  0.1299 -0.0611 -0.1779
   17CHTO  C123 6771   7.639   6.218   9.165  0.2123  0.1614  0.1701
   17CHTO  H227 6772   7.545   6.185   9.131 -1.0435 -3.0462 -0.9584
   17CHTO   O77 6773   7.629   6.185   9.307 -0.1183  0.1564  0.2649
   17CHTO  C118 6774   7.525   6.253   9.376 -0.2245  0.2920  0.4151
   17CHTO  H222 6775   7.429   6.236   9.318 -0.9479 -0.2304 -0.1425
   17CHTO  C125 6776   7.507   6.190   9.519 -0.3203 -0.3445  0.2592
   17CHTO   O84 6777   7.582   6.265   9.616 -0.3101 -0.0467  0.1097
   17CHTO  H205 6778   7.602   6.225   9.697 -0.6954  0.6912 -0.9382
   17CHTO  C114 6779   7.554   6.403   9.369 -0.0138  0.7048  0.3346
   17CHTO  H218 6780   7.649   6.422   9.417  1.0371 -0.0500  0.8194
   17CHTO  C116 6781   7.566   6.457   9.221 -0.1501  0.1169 -0.3243
   17CHTO  H220 6782   7.458   6.454   9.177  2.3630  1.2900 -1.6232
   17CHTO   O79 6783   7.606   6.594   9.215 -0.7121 -0.0903  0.4108
   17CHTO  H201 6784   7.619   6.627   9.130 -1.1898 -1.8481  0.7688
   17CHTO  C120 6785   7.666   6.370   9.134  0.3383 -0.0989  0.1393
   17CHTO  H224 6786   7.768   6.399   9.169 -2.2224 -0.4947 -2.1102
   17CHTO   N21 6787   7.670   6.397   8.988  0.0754  0.2569  0.5189
   17CHTO  H211 6788   7.717   6.496   8.968  0.9359  0.6485  2.5077
   17CHTO  H212 6789   7.579   6.384   8.926 -0.8436 -0.1014 -1.5354
   17CHTO   O75 6790   7.446   6.467   9.446 -0.2678  0.4859 -0.6072
   17CHTO  C112 6791   7.487   6.585   9.538  0.1783  0.4353  0.4356
   17CHTO  H216 6792   7.579   6.636   9.501  0.4975 -1.3042 -0.7492
   17CHTO   O73 6793   7.504   6.535   9.671  0.0775 -0.0502 -0.2097
   17CHTO  C113 6794   7.547   6.635   9.762 -0.1022 -0.1572  0.0727
   17CHTO  H217 6795   7.648   6.669   9.730 -3.2238 -1.7930  1.2313
   17CHTO  C124 6796   7.557   6.562   9.895  0.6784 -0.0806  0.2728
   17CHTO   O83 6797   7.654   6.458   9.892  0.1635 -0.2967  0.3517
   17CHTO  H204 6798   7.599   6.383   9.885  2.2217 -0.9221  0.9968
   17CHTO  C109 6799   7.456   6.759   9.784 -0.3118  0.1525 -0.4859
   17CHTO  H213 6800   7.370   6.729   9.843 -1.3981 -2.4646 -0.0413
   17CHTO  C110 6801   7.416   6.814   9.642  0.3369  0.6233 -0.2103
   17CHTO  H214 6802   7.509   6.868   9.618 -0.6242 -2.0802  0.4619
   17CHTO   O78 6803   7.305   6.904   9.662  0.2783 -0.2574  0.6243
   17CHTO  H200 6804   7.335   6.976   9.713  0.5875  1.7704  1.5100
   17CHTO  C111 6805   7.376   6.701   9.548  0.1119 -0.2728 -0.2926
   17CHTO  H215 6806   7.285   6.655   9.585 -0.8656  1.8978  0.1282
   17CHTO   N19 6807   7.350   6.760   9.414  0.0464 -0.5732 -0.5326
   17CHTO  H207 6808   7.435   6.815   9.373  0.6198  2.3416 -2.7306
   17CHTO  H208 6809   7.264   6.822   9.425 -0.1452 -0.9232 -2.5373
   17CHTO   O74 6810   7.525   6.868   9.858  0.2727  0.1602  0.4443
   17CHTO  C115 6811   7.442   6.934   9.977  0.2788 -0.9716  0.4309
   17CHTO  H219 6812   7.337   6.896   9.980  0.0385  1.2598  1.1633
   17CHTO   O76 6813   7.499   6.894  10.109 -0.1176  0.2830 -0.8003
   17CHTO  C122 6814   7.610   6.956  10.172 -0.7021  0.5783 -0.0756
   17CHTO  H226 6815   7.699   6.896  10.154 -0.3386  0.8636  2.0411
   17CHTO  C126 6816   7.581   6.929  10.327  0.6139  0.6582  0.0415
   17CHTO   O85 6817   7.549   6.789  10.356  0.0987 -0.0580 -0.3752
   17CHTO  H206 6818   7.494   6.785  10.438 -2.6813  0.2543  4.7029
   17CHTO  C121 6819   7.635   7.103  10.132  0.2211 -0.2835 -0.5129
   17CHTO  H225 6820   7.681   7.165  10.217  1.0768  3.0956 -0.6341
   17CHTO   O81 6821   7.733   7.091  10.027 -0.3261 -0.5231 -0.5798
   17CHTO  H202 6822   7.770   7.173  10.000 -0.8307  0.8308 -1.5882
   17CHTO  C119 6823   7.507   7.170  10.087  0.2354  0.3893 -0.6423
   17CHTO  H223 6824   7.440   7.156  10.173 -0.0758 -3.5335 -0.2128
   17CHTO  C117 6825   7.444   7.094   9.962  0.0079 -0.5021  0.6949
   17CHTO  H221 6826   7.493   7.105   9.867  1.7237 -1.2783  1.9952
   17CHTO   N20 6827   7.303   7.144   9.933 -0.0792  0.0814  0.2549
   17CHTO  H209 6828   7.320   7.242   9.889  2.0646  1.1384  0.3536
   17CHTO  H210 6829   7.259   7.170  10.027  2.3623 -0.7229 -2.3682
   17CHTO   O80 6830   7.526   7.326  10.085 -0.9946 -0.1092 -0.4665
   17CHTO  C103 6831   7.444   7.407  10.200 -0.0852 -0.1455 -0.6970
   17CHTO  H190 6832   7.361   7.352  10.240 -1.7606  0.5827 -1.9268
   17CHTO  C101 6833   7.535   7.442  10.322 -0.3943  0.2951  0.8954
   17CHTO  H188 6834   7.621   7.492  10.274  0.3205 -1.3774 -1.4840
   17CHTO   O68 6835   7.578   7.301  10.382 -0.2591  0.3468 -0.8511
   17CHTO  H168 6836   7.672   7.297  10.382 -0.4653  0.4062  0.6278
   17CHTO   C99 6837   7.460   7.539  10.414  0.8064 -0.7215 -0.4025
   17CHTO  H186 6838   7.367   7.498  10.468 -2.1562  1.9989  1.9677
   17CHTO   N17 6839   7.545   7.586  10.529  0.1735  0.6583  0.2257
   17CHTO  H174 6840   7.554   7.693  10.523 -0.8783 -1.0060 -1.8000
   17CHTO  H175 6841   7.510   7.558  10.626 -1.1924  0.9062  0.4113
   17CHTO   C97 6842   7.397   7.662  10.335 -0.1287  0.7011  0.8667
   17CHTO  H184 6843   7.478   7.730  10.305 -1.5869 -0.9529 -2.2165
   17CHTO   O64 6844   7.315   7.628  10.226  0.1550  0.6242  0.2163
   17CHTO  C104 6845   7.381   7.536  10.135  0.4490 -0.5128  0.3304
   17CHTO  H191 6846   7.459   7.598  10.095  2.0764  0.1362  2.1869
   17CHTO  C108 6847   7.282   7.499  10.022 -0.0488 -0.3788  0.4359
   17CHTO   O71 6848   7.333   7.531   9.894 -0.4382 -0.2607 -0.0226
   17CHTO  H171 6849   7.278   7.491   9.826  3.2177  3.8678  2.7217
   17CHTO   O62 6850   7.304   7.740  10.419 -0.6913  0.0317 -0.3657
   17CHTO   C91 6851   7.272   7.876  10.378 -0.4083  0.7188 -0.3865
   17CHTO  H178 6852   7.342   7.898  10.296 -0.6726 -3.2542  1.0004
   17CHTO   C92 6853   7.293   7.991  10.479 -0.1586 -0.2919 -0.4333
   17CHTO  H179 6854   7.396   8.003  10.520 -0.1696  2.2989  2.1631
   17CHTO   O66 6855   7.269   8.115  10.407  0.2160  0.0916  0.5889
   17CHTO  H166 6856   7.338   8.126  10.348 -1.3248  2.5388  0.5725
   17CHTO   C93 6857   7.191   7.984  10.603 -0.4129  0.5822 -0.2862
   17CHTO  H180 6858   7.188   8.085  10.641 -1.9651 -1.7203  0.8505
   17CHTO   N16 6859   7.230   7.899  10.719  0.6042  0.1406  0.2080
   17CHTO  H172 6860   7.197   7.796  10.692 -1.8982 -3.2812 -1.8586
   17CHTO  H173 6861   7.340   7.890  10.734  0.3408 -1.3333  1.6800
   17CHTO   C94 6862   7.050   7.943  10.546 -1.1215  0.5347  0.1189
   17CHTO  H181 6863   7.029   7.838  10.566 -0.0578 -0.1474  2.2386
   17CHTO   O61 6864   7.040   7.961  10.404 -0.0023 -0.5897  0.4800
   17CHTO   C95 6865   7.125   7.881  10.319 -0.1293 -0.2691  0.0994
   17CHTO  H182 6866   7.087   7.774  10.317 -0.8070 -0.8385  0.6494
   17CHTO  C106 6867   7.137   7.928  10.170  0.2736 -0.2913  0.2475
   17CHTO   O69 6868   7.006   7.920  10.104  0.3561  0.7695 -0.1278
   17CHTO  H169 6869   6.943   7.963  10.158 -0.5247 -1.9374  1.3789
   17CHTO   O63 6870   6.947   8.031  10.612 -0.2825  0.1281  0.1961
   17CHTO   C96 6871   6.814   7.958  10.634  0.3873 -0.8282 -0.8387
   17CHTO  H183 6872   6.836   7.858  10.668 -2.2265 -3.3822 -0.3603
   17CHTO   C98 6873   6.733   7.948  10.508 -0.4463 -0.0646 -0.2724
   17CHTO  H185 6874   6.750   8.041  10.447 -1.7830  2.8926  0.1746
   17CHTO   O67 6875   6.786   7.844  10.429 -0.8809  0.4277 -0.5340
   17CHTO  H167 6876   6.772   7.856  10.343  0.1566  2.9125  2.0196
   17CHTO  C102 6877   6.573   7.918  10.544 -0.8737  0.3649 -0.5332
   17CHTO  H189 6878   6.562   7.808  10.556 -3.2391 -0.6125  1.2395
   17CHTO   N18 6879   6.481   7.957  10.432  0.4493  0.5404 -0.3074
   17CHTO  H176 6880   6.375   7.952  10.465  2.6224  1.8599 -0.1267
   17CHTO  H177 6881   6.493   8.060  10.407  0.4918  0.1936 -1.1853
   17CHTO  C105 6882   6.530   7.977  10.681 -0.3261 -0.0188  0.0720
   17CHTO  H192 6883   6.507   8.082  10.670  3.4360 -1.2620  0.4525
   17CHTO   O65 6884   6.626   7.973  10.782  0.3269 -0.3959 -0.1117
   17CHTO  C100 6885   6.734   8.050  10.740 -0.0928 -0.0184 -0.3462
   17CHTO  H187 6886   6.706   8.137  10.681  0.0147  1.1135  0.6006
   17CHTO  C107 6887   6.820   8.094  10.868  0.4534  0.5982 -0.4247
   17CHTO   O70 6888   6.894   7.984  10.931  0.7102  0.9155 -0.5970
   17CHTO  H170 6889   6.982   7.996  10.954 -3.1591  0.2502 -0.1999
   17CHTO   O57 6890   6.388   7.892  10.723 -0.4405  0.2939 -0.5527
   17CHTO   C85 6891   6.288   7.952  10.805  0.1926 -0.0064  0.0118
   17CHTO  H157 6892   6.288   8.065  10.801  2.6440  1.6410  3.0904
   17CHTO   C83 6893   6.327   7.938  10.962  0.2468 -0.3521  0.0397
   17CHTO  H155 6894   6.413   8.003  10.988  0.0897 -0.9354  0.4990
   17CHTO   O56 6895   6.354   7.804  10.993 -0.1456 -0.4724  0.4336
   17CHTO  H135 6896   6.378   7.801  11.083 -2.7857 -0.7401  0.7160
   17CHTO   C81 6897   6.206   7.993  11.048  0.0765 -0.5731 -0.4571
   17CHTO  H153 6898   6.196   8.097  11.025 -1.6216 -0.4636  1.9842
   17CHTO   N14 6899   6.234   8.001  11.193  0.4847  0.0279  0.2674
   17CHTO  H141 6900   6.333   8.037  11.209 -0.9298 -0.4766  0.4336
   17CHTO  H142 6901   6.235   7.900  11.236 -0.4928  0.0124  0.5830
   17CHTO   C79 6902   6.069   7.920  11.010 -0.0868  0.3843  0.9886
   17CHTO  H151 6903   5.992   7.964  11.076 -0.7023 -0.5650 -1.4346
   17CHTO   O52 6904   6.046   7.950  10.868 -0.4355 -0.1207 -0.4389
   17CHTO   C86 6905   6.148   7.889  10.785 -0.2787 -1.1369 -0.5068
   17CHTO  H158 6906   6.144   7.774  10.809  1.6957  2.7470 -1.3165
   17CHTO   C90 6907   6.105   7.912  10.638  0.1401  0.0898 -0.3959
   17CHTO   O60 6908   6.075   8.053  10.609  0.4521 -0.6297 -0.0184
   17CHTO  H138 6909   6.050   8.060  10.519  2.6098 -0.9585 -2.4223
   17CHTO   O50 6910   6.072   7.776  11.036 -0.0271  0.0769  0.6969
   17CHTO   C73 6911   5.972   7.685  11.084  0.5162 -1.2197  0.3737
   17CHTO  H145 6912   5.887   7.734  11.139 -0.9756  0.9188  2.2438
   17CHTO   C74 6913   6.042   7.585  11.178  0.1429  0.0252 -0.3539
   17CHTO  H146 6914   6.089   7.640  11.264  1.7331 -0.8617 -2.3974
   17CHTO   O54 6915   5.945   7.496  11.235 -0.2207  0.1174 -0.1972
   17CHTO  H133 6916   5.895   7.462  11.161  0.5418  2.2221 -2.7055
   17CHTO   C75 6917   6.149   7.506  11.091  0.0795 -0.1667 -0.0049
   17CHTO  H147 6918   6.236   7.580  11.075  1.6443  1.0717 -1.7331
   17CHTO   N13 6919   6.221   7.402  11.171 -0.2970  0.6109  0.9174
   17CHTO  H139 6920   6.319   7.375  11.136 -1.4896  0.2672  0.4453
   17CHTO  H140 6921   6.157   7.313  11.173 -1.2144  0.2026  2.4965
   17CHTO   C76 6922   6.094   7.449  10.957 -0.4831 -0.0163  0.0444
   17CHTO  H148 6923   6.033   7.365  10.970  0.9357 -1.9708 -3.0308
   17CHTO   O49 6924   6.014   7.545  10.877  0.7020  0.5701 -0.4244
   17CHTO   C77 6925   5.909   7.609  10.961 -0.6543 -0.1317 -0.4781
   17CHTO  H149 6926   5.844   7.531  10.987  3.0124 -0.0475  1.6866
   17CHTO   C88 6927   5.824   7.696  10.865  0.2046  0.6392 -0.0870
   17CHTO   O58 6928   5.742   7.763  10.924  0.1018  0.3373  0.1242
   17CHTO  H136 6929   5.746   7.857  10.916  2.0556  0.3914  2.0788
   17CHTO   O51 6930   6.218   7.410  10.855  0.1993  0.2138 -0.3716
   17CHTO   C78 6931   6.181   7.332  10.744 -0.0789 -0.9347  0.6533
   17CHTO  H150 6932   6.072   7.344  10.727 -0.2108 -0.7773  0.5212
   17CHTO   C80 6933   6.215   7.191  10.773  0.1110  0.6175  0.0058
   17CHTO  H152 6934   6.311   7.188  10.824  0.2144 -4.1148 -1.3822
   17CHTO   O55 6935   6.111   7.156  10.862  0.4990  0.3022  0.4006
   17CHTO  H134 6936   6.098   7.222  10.928  0.0698  0.7807 -1.0999
   17CHTO   C84 6937   6.198   7.098  10.642  0.0654  0.2550 -0.2491
   17CHTO  H156 6938   6.100   7.108  10.606  0.3170  2.3146 -0.6294
   17CHTO   N15 6939   6.223   6.952  10.667  0.3124 -0.3346 -0.2220
   17CHTO  H143 6940   6.321   6.931  10.712  1.6151 -0.6125 -0.5243
   17CHTO  H144 6941   6.151   6.912  10.733  0.3485 -0.3824  3.1776
   17CHTO   C87 6942   6.271   7.158  10.526 -0.3236  0.0939 -0.8212
   17CHTO  H159 6943   6.385   7.176  10.536 -0.5580  0.4749 -2.9077
   17CHTO   O53 6944   6.215   7.299  10.500  0.1210 -0.9412 -0.4699
   17CHTO   C82 6945   6.251   7.383  10.609  0.9695 -0.0812 -0.7977
   17CHTO  H154 6946   6.359   7.374  10.624  0.6570  0.8321  0.9911
   17CHTO   C89 6947   6.219   7.532  10.581 -0.5240 -0.5325 -0.5161
   17CHTO   O59 6948   6.332   7.622  10.580  0.0524 -0.3601 -0.7073
   17CHTO  H137 6949   6.298   7.709  10.600 -1.2089  0.3548 -1.1413
   17CHTO   O45 6950   6.248   7.075  10.377  0.1598  0.5118 -0.2137
   17CHTO   C67 6951   6.361   7.009  10.325 -0.8188  0.0695  1.0075
   17CHTO  H124 6952   6.433   6.993  10.401 -2.3501 -4.1145  2.2014
   17CHTO   C65 6953   6.318   6.876  10.269  0.2827 -0.1744 -0.2326
   17CHTO  H122 6954   6.249   6.846  10.346 -0.4309  1.6647 -2.0774
   17CHTO   O44 6955   6.428   6.789  10.252  0.4010  0.0668 -0.1502
   17CHTO  H102 6956   6.399   6.701  10.244  0.1759  1.5413  0.5678
   17CHTO   C63 6957   6.236   6.894  10.141 -0.1235  0.4223  0.9362
   17CHTO  H120 6958   6.144   6.953  10.165  1.4136  0.2937 -0.3752
   17CHTO   N11 6959   6.179   6.772  10.072 -0.3074 -0.2933  0.6063
   17CHTO  H108 6960   6.210   6.773   9.970 -1.1688 -0.0635 -0.5733
   17CHTO  H109 6961   6.078   6.740  10.081 -1.0931 -3.0092 -0.1066
   17CHTO   C61 6962   6.321   6.987  10.041 -0.3149 -0.7726 -0.5753
   17CHTO  H118 6963   6.256   7.010   9.957  2.7199 -2.2782  1.3837
   17CHTO   O40 6964   6.375   7.109  10.095 -0.6763 -0.3550  0.0235
   17CHTO   C68 6965   6.435   7.109  10.228 -0.7699 -0.8735 -1.4529
   17CHTO  H125 6966   6.425   7.206  10.271 -0.5423  0.5460  0.8235
   17CHTO   C72 6967   6.594   7.080  10.224  0.0553 -0.3058  0.0757
   17CHTO   O48 6968   6.660   7.075  10.353 -0.6132 -0.2163  0.1225
   17CHTO  H105 6969   6.694   7.154  10.381 -0.1605 -1.8254 -1.3231
   17CHTO   O38 6970   6.438   6.912   9.994  0.3422 -0.1007  0.4649
   17CHTO   C55 6971   6.490   6.917   9.859  1.2141 -0.4007  0.2914
   17CHTO  H112 6972   6.581   6.858   9.855  0.7341 -0.2371 -0.0747
   17CHTO   C56 6973   6.517   7.072   9.817 -0.0873 -0.2703 -0.0482
   17CHTO  H113 6974   6.420   7.124   9.848 -0.1634 -0.9437  1.1667
   17CHTO   O42 6975   6.619   7.123   9.905 -0.3383 -0.5833 -0.0050
   17CHTO  H100 6976   6.595   7.182   9.971 -1.1617  1.5467 -1.5326
   17CHTO   C57 6977   6.552   7.086   9.663  0.1295  0.8547 -0.3896
   17CHTO  H114 6978   6.655   7.049   9.646  2.6890  0.8798  0.7342
   17CHTO   N10 6979   6.575   7.229   9.627 -0.3277  0.1540 -0.2279
   17CHTO  H106 6980   6.686   7.249   9.636  1.4600 -0.2801  1.3967
   17CHTO  H107 6981   6.541   7.242   9.525 -0.4240  2.3214  0.3016
   17CHTO   C58 6982   6.453   7.009   9.567  0.2568  0.1594 -0.2661
   17CHTO  H115 6983   6.351   7.057   9.581 -1.1620 -2.0487  0.7006
   17CHTO   O37 6984   6.439   6.873   9.615 -0.8506 -0.0418 -0.3053
   17CHTO   C59 6985   6.395   6.855   9.752 -0.2726  0.1873  0.2981
   17CHTO  H116 6986   6.299   6.900   9.766  1.4563  1.5541  0.2369
   17CHTO   C70 6987   6.379   6.704   9.777 -0.1064  0.0921  0.2201
   17CHTO   O46 6988   6.277   6.642   9.694  0.4628 -0.5950 -0.2165
   17CHTO  H103 6989   6.200   6.648   9.745 -0.4342  0.4603 -1.8608
   17CHTO   O39 6990   6.507   7.000   9.432 -0.4102 -0.9848  0.0768
   17CHTO   C60 6991   6.428   7.046   9.327  0.3552 -0.1147  0.6917
   17CHTO  H117 6992   6.335   7.090   9.370 -3.9639  1.3717 -0.9054
   17CHTO   C62 6993   6.508   7.157   9.252  0.1729 -0.0882 -0.5191
   17CHTO  H119 6994   6.535   7.234   9.330  0.8622  1.1922  1.3606
   17CHTO   O43 6995   6.628   7.096   9.197 -0.2066  0.2768  0.5054
   17CHTO  H101 6996   6.702   7.158   9.209 -0.3343 -1.8790 -1.0516
   17CHTO   C66 6997   6.407   7.231   9.149 -0.3478 -0.1508 -0.0116
   17CHTO  H123 6998   6.315   7.244   9.196  0.3491  0.5006 -0.1992
   17CHTO   N12 6999   6.460   7.362   9.107 -0.2365 -0.5468 -0.4229
   17CHTO  H110 7000   6.554   7.354   9.056 -1.5674  0.5986 -2.6454
   17CHTO  H111 7001   6.460   7.422   9.193 -1.6634 -0.5831 -0.0096
   17CHTO   C69 7002   6.372   7.124   9.035  0.0522 -0.0010  0.5522
   17CHTO  H126 7003   6.463   7.111   8.974  1.7389 -0.4810 -1.1570
   17CHTO   O41 7004   6.309   6.982   9.113  0.1713 -0.4164  0.0238
   17CHTO   C64 7005   6.384   6.934   9.234  0.0984  0.5428 -0.1064
   17CHTO  H121 7006   6.474   6.882   9.198  1.0122 -2.0185  0.7218
   17CHTO   C71 7007   6.298   6.833   9.310  0.1275  0.0251  0.4843
   17CHTO   O47 7008   6.192   6.902   9.383 -0.1482 -0.4574  0.3391
   17CHTO  H104 7009   6.204   6.881   9.472  1.8757  1.0605  0.4914
   17CHTO   O34 7010   6.269   7.183   8.954  0.1092 -0.0448 -0.2200
   17CHTO   C49 7011   6.182   7.231   8.855  0.0537 -0.3332  0.0759
   17CHTO   H91 7012   6.189   7.345   8.856 -0.2058 -0.7090  1.4679
   17CHTO   C47 7013   6.041   7.181   8.909 -0.1314  0.2596 -0.2235
   17CHTO   H89 7014   5.977   7.234   8.843  0.3172 -0.3505  0.4708
   17CHTO   O33 7015   6.016   7.227   9.042  0.0573 -0.5888  0.3130
   17CHTO   H70 7016   6.033   7.154   9.096 -1.2669  1.8075 -2.5485
   17CHTO   C45 7017   6.015   7.023   8.903  0.4644 -0.2453 -0.4129
   17CHTO   H87 7018   6.050   6.968   8.991  2.4938  0.3040  1.2345
   17CHTO    N8 7019   5.866   7.004   8.891  0.1491  0.4373  0.4202
   17CHTO   H75 7020   5.839   6.897   8.887  1.1444  2.1034  1.7387
   17CHTO   H76 7021   5.804   7.042   8.971 -2.5880  3.9932 -1.2737
   17CHTO   C43 7022   6.106   6.962   8.791 -0.0618  0.0203 -0.4880
   17CHTO   H85 7023   6.207   6.947   8.848  0.5903 -0.7476  2.0415
   17CHTO   O29 7024   6.120   7.048   8.676 -0.9667 -0.2499 -0.3093
   17CHTO   C50 7025   6.188   7.171   8.710  0.2270 -0.3790 -0.2231
   17CHTO   H92 7026   6.298   7.166   8.690 -0.7588  0.1754 -1.0958
   17CHTO   C54 7027   6.148   7.281   8.605 -0.3587  0.0223  0.8448
   17CHTO   O36 7028   6.187   7.238   8.474 -0.3422  0.0730 -0.3413
   17CHTO   H72 7029   6.213   7.310   8.424  0.4022  1.9693  1.3250
   17CHTO   O27 7030   6.071   6.834   8.742 -0.5319 -0.2781  0.5381
   17CHTO   C37 7031   6.113   6.715   8.803  0.3940  0.3223  0.4833
   17CHTO   H79 7032   6.145   6.734   8.908  1.4530 -1.0014 -3.5788
   17CHTO   C38 7033   5.986   6.618   8.813 -0.1244 -0.2880 -0.8149
   17CHTO   H80 7034   5.946   6.593   8.714 -2.4435  0.5434 -0.2290
   17CHTO   O31 7035   5.879   6.693   8.886 -0.8263  0.0761  0.8026
   17CHTO   H68 7036   5.899   6.703   8.974 -0.3951  1.5613 -0.9185
   17CHTO   C39 7037   6.027   6.481   8.882  0.0273 -0.6442  0.3032
   17CHTO   H81 7038   6.062   6.506   8.976 -0.2939 -0.6624 -0.2222
   17CHTO    N7 7039   5.909   6.392   8.906 -0.3951 -0.1830  0.4202
   17CHTO   H73 7040   5.947   6.299   8.946 -2.5260  1.4357 -1.8793
   17CHTO   H74 7041   5.823   6.396   8.838 -0.0345 -1.0384 -0.3353
   17CHTO   C40 7042   6.145   6.407   8.805  0.7154  0.5358 -0.1211
   17CHTO   H82 7043   6.105   6.375   8.711 -0.8931 -1.4516  0.5350
   17CHTO   O26 7044   6.248   6.509   8.791  0.4994  0.5913 -0.2198
   17CHTO   C41 7045   6.225   6.634   8.721 -0.0114 -0.1792 -0.0756
   17CHTO   H83 7046   6.187   6.618   8.613 -1.2243 -1.1076 -1.3862
   17CHTO   C52 7047   6.358   6.714   8.721  0.1995  0.3971  0.4042
   17CHTO   O35 7048   6.475   6.633   8.661  0.0368 -0.1212 -0.2513
   17CHTO   H71 7049   6.507   6.675   8.582  1.8085  0.1165  0.8553
   17CHTO   O28 7050   6.194   6.291   8.878  0.1318  0.2684 -0.0057
   17CHTO   C42 7051   6.315   6.288   8.971  0.1076  0.4260 -0.8362
   17CHTO   H84 7052   6.321   6.182   8.989  0.4399 -0.2467  1.0747
   17CHTO   C44 7053   6.287   6.360   9.108 -0.0089 -0.0526 -0.3044
   17CHTO   H86 7054   6.254   6.461   9.091 -1.4252 -2.3483  0.1987
   17CHTO   O32 7055   6.182   6.280   9.174 -0.0176 -0.1831 -0.2194
   17CHTO   H69 7056   6.124   6.248   9.108 -1.6114  0.3857 -3.3186
   17CHTO   C48 7057   6.416   6.379   9.202 -0.2636  0.0986  0.3812
   17CHTO   H90 7058   6.454   6.288   9.243 -4.5563 -1.0186 -2.3078
   17CHTO    N9 7059   6.375   6.471   9.323  0.3598  0.1859 -1.0719
   17CHTO   H77 7060   6.336   6.419   9.413  3.1378  1.1017  0.0504
   17CHTO   H78 7061   6.469   6.513   9.363 -0.8765 -0.5666  2.6333
   17CHTO   C51 7062   6.527   6.443   9.113 -0.0792  0.5139 -0.2097
   17CHTO   H93 7063   6.500   6.547   9.072 -0.8662  3.8775 -2.8211
   17CHTO   O30 7064   6.559   6.352   9.008 -0.0359  0.2007 -0.1610
   17CHTO   C46 7065   6.460   6.333   8.906  0.2262 -0.7760 -0.5042
   17CHTO   H88 7066   6.449   6.427   8.858 -0.4142 -0.7290 -1.0901
   17CHTO   C53 7067   6.505   6.218   8.817 -0.8955  0.3810 -0.0693
   17CHTO   O72 7068   6.419   6.219   8.700  0.1510 -0.6012 -0.0082
   17CHTO  H199 7069   6.466   6.277   8.637  0.5609  2.5967 -1.1033
   17CHTO   O22 7070   6.653   6.456   9.186 -0.1044 -0.1058 -0.4750
   17CHTO   C31 7071   6.747   6.562   9.171 -0.5501  0.2525 -1.1959
   17CHTO   H59 7072   6.841   6.516   9.215  0.6653  1.4415  0.4600
   17CHTO   C29 7073   6.775   6.589   9.020  0.3392 -0.3643 -0.1583
   17CHTO   H57 7074   6.681   6.618   8.976  0.9388  3.1067 -1.4113
   17CHTO   O21 7075   6.824   6.469   8.957  0.5235 -0.5161 -0.3550
   17CHTO   H37 7076   6.758   6.403   8.958 -0.5012 -2.5104 -2.3617
   17CHTO   C27 7077   6.886   6.706   8.992 -0.2003  0.3285 -0.1635
   17CHTO   H55 7078   6.983   6.665   9.013  1.0812 -3.8504 -1.8075
   17CHTO    N5 7079   6.889   6.770   8.863 -0.0386 -1.0934  0.7287
   17CHTO   H43 7080   6.799   6.822   8.826 -1.9791  2.2968  0.1593
   17CHTO   H44 7081   6.939   6.701   8.790  1.0780  0.3277  0.2532
   17CHTO   C25 7082   6.859   6.822   9.098 -0.5349 -0.4001 -0.4349
   17CHTO   H53 7083   6.764   6.875   9.069  0.9405 -0.5752 -0.9812
   17CHTO   O17 7084   6.839   6.772   9.235 -0.6442 -0.0339 -0.1532
   17CHTO   C32 7085   6.726   6.685   9.255  1.3423  0.2020  0.1891
   17CHTO   H60 7086   6.630   6.734   9.224  0.2830 -0.5705  0.1508
   17CHTO   C36 7087   6.714   6.660   9.406  0.0603 -0.0701 -0.2733
   17CHTO   O25 7088   6.692   6.788   9.469 -0.1838 -0.2151 -0.1710
   17CHTO   H40 7089   6.613   6.794   9.523  0.0538 -1.1574  0.1529
   17CHTO   O15 7090   6.968   6.925   9.094  0.6008 -0.2119 -0.3063
   17CHTO   C19 7091   6.997   7.068   9.144 -0.6140  0.1960  0.4613
   17CHTO   H47 7092   7.105   7.081   9.137 -0.2433  2.4580 -0.4799
   17CHTO   C20 7093   6.922   7.173   9.056  0.3207 -0.3998  0.2816
   17CHTO   H48 7094   6.817   7.152   9.052  0.8481 -0.8842 -0.2148
   17CHTO   O19 7095   6.978   7.156   8.923 -0.0127  0.3986 -0.0973
   17CHTO   H35 7096   6.938   7.210   8.863  0.2384 -1.9961  0.5391
   17CHTO   C21 7097   6.933   7.322   9.110  0.0784  0.1374 -0.4459
   17CHTO   H49 7098   7.035   7.355   9.098 -2.8688  1.6672  1.4857
   17CHTO    N4 7099   6.856   7.415   9.025  0.3606 -0.2013 -0.2045
   17CHTO   H41 7100   6.908   7.431   8.934 -1.5214 -1.8840  1.4246
   17CHTO   H42 7101   6.841   7.510   9.082 -1.3183 -0.2813  1.9552
   17CHTO   C22 7102   6.903   7.321   9.264  0.5016  0.2026  0.1566
   17CHTO   H50 7103   6.795   7.295   9.265 -0.6048 -0.2488  0.0672
   17CHTO   O14 7104   6.981   7.222   9.338 -0.1138  0.1130  0.0309
   17CHTO   C23 7105   6.959   7.086   9.292 -0.3728 -0.3399 -0.4367
   17CHTO   H51 7106   6.851   7.064   9.310 -1.4626  0.4306 -1.2988
   17CHTO   C34 7107   7.045   6.988   9.379  0.3380 -0.3073 -0.0046
   17CHTO   O23 7108   7.179   7.027   9.406  0.2083  0.0252 -0.4970
   17CHTO   H38 7109   7.216   6.978   9.476 -2.4212  2.5276 -1.0534
   17CHTO   O16 7110   6.942   7.440   9.326 -0.2723  0.0330  0.5748
   17CHTO   C24 7111   6.849   7.493   9.441  0.3881 -0.1947  0.3671
   17CHTO   H52 7112   6.767   7.425   9.466 -1.2036  0.1498  1.8453
   17CHTO   C26 7113   6.784   7.625   9.389  0.1290  0.4095  0.3750
   17CHTO   H54 7114   6.866   7.691   9.359  0.6722  0.9370  0.3496
   17CHTO   O20 7115   6.702   7.604   9.275  0.5960  0.3830 -0.3096
   17CHTO   H36 7116   6.721   7.538   9.208 -0.7969  2.8609 -0.0762
   17CHTO   C30 7117   6.705   7.692   9.502  0.8843  0.0265  0.2819
   17CHTO   H58 7118   6.605   7.639   9.505  0.7701 -1.7153  1.1789
   17CHTO    N6 7119   6.672   7.835   9.462 -0.6697 -0.3674  0.1253
   17CHTO   H45 7120   6.622   7.889   9.543 -1.2274 -0.9875  2.0720
   17CHTO   H46 7121   6.772   7.886   9.441  0.4390 -3.0008  2.6764
   17CHTO   C33 7122   6.767   7.688   9.647  0.2074 -0.8072  0.0910
   17CHTO   H61 7123   6.834   7.773   9.668 -0.6799 -1.6943  0.1484
   17CHTO   O18 7124   6.836   7.561   9.678 -0.5779  0.0105 -0.3063
   17CHTO   C28 7125   6.928   7.516   9.574  0.9077 -0.3365 -0.0402
   17CHTO   H56 7126   7.004   7.589   9.561 -0.9994 -0.6865  0.6556
   17CHTO   C35 7127   7.002   7.393   9.624 -0.6232 -0.0965  0.4701
   17CHTO   O24 7128   7.121   7.420   9.693  0.0179 -0.1412 -0.4524
   17CHTO   H39 7129   7.144   7.340   9.738 -1.5728 -0.5363 -0.6972
   17CHTO    O9 7130   6.652   7.705   9.737  0.1048 -0.0887 -1.0955
   17CHTO   C13 7131   6.687   7.721   9.893  0.0369 -0.5074 -0.6318
   17CHTO   H26 7132   6.791   7.747   9.900  2.9438 -2.9287 -1.0817
   17CHTO   C11 7133   6.653   7.585   9.969 -0.0200  0.0799 -1.5638
   17CHTO   H24 7134   6.735   7.519   9.955 -0.5124  1.0717  0.5369
   17CHTO    O8 7135   6.538   7.525   9.907 -0.2535 -0.1249 -0.0510
   17CHTO    H3 7136   6.556   7.511   9.817  0.1066 -2.5693 -1.0698
   17CHTO    C9 7137   6.634   7.609  10.125  0.6236  0.0726  0.2582
   17CHTO   H22 7138   6.725   7.654  10.155 -1.7684 -0.4636 -1.0715
   17CHTO    N2 7139   6.631   7.488  10.205  0.0516  0.4030  0.5187
   17CHTO   H10 7140   6.616   7.408  10.134 -1.4653  1.1123 -1.2528
   17CHTO   H11 7141   6.541   7.490  10.264 -0.6744  0.0300  4.0236
   17CHTO    C7 7142   6.520   7.715  10.149  0.4312 -0.6469 -0.1182
   17CHTO   H20 7143   6.502   7.716  10.259 -0.2981  0.2967  1.1426
   17CHTO    O4 7144   6.566   7.839  10.092 -0.8399  0.3707 -0.4695
   17CHTO   C14 7145   6.607   7.846   9.953 -0.7722 -0.9710 -0.0812
   17CHTO   H27 7146   6.672   7.934   9.956 -1.5010 -0.5866  2.0510
   17CHTO   C18 7147   6.481   7.893   9.873 -0.3083  0.3188 -0.4787
   17CHTO   O13 7148   6.455   8.031   9.884  0.3622  0.2398  0.7390
   17CHTO    H7 7149   6.531   8.074   9.844  1.5748  0.5414  0.3617
   17CHTO    O2 7150   6.371   7.676  10.080  0.1527 -0.2670  0.0187
   17CHTO    C1 7151   6.274   7.595  10.146  0.1053  0.1914 -0.2305
   17CHTO   H14 7152   6.302   7.557  10.250 -0.8260  0.7134  1.8943
   17CHTO    C2 7153   6.228   7.478  10.063 -0.4672  0.2632  0.0202
   17CHTO   H15 7154   6.207   7.504   9.959  1.8820 -2.3776  2.8496
   17CHTO    O6 7155   6.331   7.387  10.062  0.1513  0.1006  0.2950
   17CHTO    H1 7156   6.297   7.308  10.019 -0.7027  1.5353  0.1340
   17CHTO    C3 7157   6.095   7.404  10.120  0.0582  0.5742 -0.2265
   17CHTO   H16 7158   6.120   7.353  10.215 -0.7944 -0.1607  1.3825
   17CHTO    N1 7159   6.042   7.293  10.040 -0.0181 -0.7290 -0.0473
   17CHTO    H8 7160   5.942   7.316  10.010  0.1615 -0.6576  0.0458
   17CHTO    H9 7161   6.028   7.199  10.097 -1.6670  0.7473 -0.0062
   17CHTO    C4 7162   5.986   7.509  10.158  0.3191  0.4941 -0.0872
   17CHTO   H17 7163   5.943   7.536  10.072  0.5180 -3.0126 -1.0606
   17CHTO    O1 7164   6.043   7.620  10.236 -0.4077  0.4161  0.4897
   17CHTO    C5 7165   6.149   7.687  10.167 -0.2293 -0.5577  0.2452
   17CHTO   H18 7166   6.109   7.725  10.069 -5.1041 -0.6435 -1.3690
   17CHTO   C16 7167   6.189   7.812  10.254  0.1183  0.3978 -0.4414
   17CHTO   O11 7168   6.077   7.903  10.274  0.1364 -0.0929 -0.0443
   17CHTO    H5 7169   6.116   7.986  10.293 -0.4050  1.0304 -0.9270
   17CHTO    O3 7170   5.880   7.457  10.242  0.3948  0.5151 -0.9174
   17CHTO    C6 7171   5.761   7.541  10.255  0.1758 -0.0971  0.1024
   17CHTO   H19 7172   5.792   7.645  10.256  0.6184  1.7700  1.8671
   17CHTO    C8 7173   5.650   7.510  10.138 -0.2693 -0.7381 -0.2176
   17CHTO   H21 7174   5.602   7.419  10.161  0.7348 -2.0506 -0.2330
   17CHTO    O7 7175   5.708   7.518  10.008 -0.1085  0.5606 -0.5006
   17CHTO    H2 7176   5.786   7.459  10.006  3.0399 -0.5697 -0.8347
   17CHTO   C12 7177   5.537   7.612  10.153 -0.4709  0.2204  0.6169
   17CHTO   H25 7178   5.581   7.712  10.143  2.4810  1.5502 -0.4106
   17CHTO    N3 7179   5.424   7.595  10.048 -0.4021 -0.3204 -0.2598
   17CHTO   H12 7180   5.345   7.663  10.080 -0.3314  1.1496  0.9529
   17CHTO   H13 7181   5.466   7.626   9.951 -1.1708  0.1423 -0.4351
   17CHTO   C15 7182   5.483   7.593  10.303 -0.0040  1.2195 -0.3067
   17CHTO   H28 7183   5.437   7.498  10.327 -1.2650  2.5492 -1.8891
   17CHTO   O10 7184   5.402   7.684  10.339 -0.6083  0.2035  0.1015
   17CHTO    H4 7185   5.322   7.688  10.287  1.2446 -0.9574 -0.6697
   17CHTO    O5 7186   5.590   7.616  10.396 -0.4133  0.5027 -0.1057
   17CHTO   C10 7187   5.694   7.518  10.386 -0.5662  0.5635 -0.1094
   17CHTO   H23 7188   5.669   7.417  10.391 -1.6445 -0.4801  0.3329
   17CHTO   C17 7189   5.779   7.527  10.515 -0.4251  0.1036  0.0134
   17CHTO   O12 7190   5.707   7.499  10.637  0.3534  0.0789  0.1852
   17CHTO    H6 7191   5.685   7.406  10.629  0.1216 -0.9779 -0.4604
   18CHTO  H203 7192   5.760   8.528   1.880 -3.6955  1.1003 -1.6462
   18CHTO   O82 7193   5.843   8.571   1.878 -0.2140 -0.5531  0.0420
   18CHTO  C123 7194   5.949   8.473   1.875  0.2371  0.4815 -0.0480
   18CHTO  H227 7195   5.908   8.376   1.895  1.2127 -0.6308 -2.4042
   18CHTO   O77 7196   5.998   8.489   1.736 -0.0331  0.1626  0.2086
   18CHTO  C118 7197   6.116   8.411   1.710  0.1689  0.3255  0.4398
   18CHTO  H222 7198   6.092   8.314   1.727 -0.1953  0.6872  0.4428
   18CHTO  C125 7199   6.149   8.425   1.553  1.1672 -0.2127 -0.3804
   18CHTO   O84 7200   6.257   8.349   1.491 -0.1779  0.3015 -0.1920
   18CHTO  H205 7201   6.338   8.388   1.507  1.5309 -1.0410  0.0388
   18CHTO  C114 7202   6.235   8.460   1.791 -0.5330 -0.3448 -0.1262
   18CHTO  H218 7203   6.258   8.566   1.763 -0.3106 -0.0796 -3.2031
   18CHTO  C116 7204   6.202   8.445   1.935 -0.7073  0.3823  0.0012
   18CHTO  H220 7205   6.190   8.336   1.966  0.7821  0.9588 -0.2794
   18CHTO   O79 7206   6.313   8.490   2.008 -0.7659 -0.2449  0.3186
   18CHTO  H201 7207   6.357   8.562   1.970  0.8771  1.7645  1.3332
   18CHTO  C120 7208   6.067   8.518   1.972  0.1309 -1.0064  0.6987
   18CHTO  H224 7209   6.076   8.631   1.950  0.1667 -3.1205  0.1596
   18CHTO   N21 7210   6.023   8.495   2.110 -0.1039 -0.1118  0.9621
   18CHTO  H211 7211   6.066   8.568   2.175  1.1190  0.9996 -2.2645
   18CHTO  H212 7212   6.027   8.389   2.137 -2.4161  1.2005  0.6464
   18CHTO   O75 7213   6.354   8.377   1.756  0.1336  0.1157  0.0216
   18CHTO  C112 7214   6.496   8.476   1.747 -0.2355  0.0650  0.2179
   18CHTO  H216 7215   6.494   8.540   1.834  1.1027  1.8496 -0.2220
   18CHTO   O73 7216   6.498   8.548   1.623  0.4168  0.1175 -0.2699
   18CHTO  C113 7217   6.599   8.651   1.627  0.3586 -0.0068 -0.0178
   18CHTO  H217 7218   6.593   8.706   1.718  2.2059  0.6752 -0.2358
   18CHTO  C124 7219   6.561   8.751   1.521 -0.4452 -0.4170 -0.3052
   18CHTO   O83 7220   6.596   8.885   1.557 -0.6542  0.4401 -0.2837
   18CHTO  H204 7221   6.527   8.927   1.600  4.1833 -2.0636 -0.0154
   18CHTO  C109 7222   6.739   8.591   1.619  0.8746 -1.0455  0.1385
   18CHTO  H213 7223   6.745   8.549   1.517  1.1558  0.1625  1.4526
   18CHTO  C110 7224   6.750   8.483   1.730  0.0822 -0.0878 -0.8061
   18CHTO  H214 7225   6.767   8.538   1.819  1.3502 -1.6457 -1.0966
   18CHTO   O78 7226   6.870   8.408   1.707  0.2599  0.0210 -0.4794
   18CHTO  H200 7227   6.857   8.319   1.689 -1.7789 -0.5212  4.0189
   18CHTO  C111 7228   6.627   8.389   1.746  1.0398  0.2053  0.0498
   18CHTO  H215 7229   6.630   8.323   1.658 -0.7555  1.9874  1.3096
   18CHTO   N19 7230   6.632   8.304   1.867 -0.5722  0.1489 -0.3646
   18CHTO  H207 7231   6.548   8.336   1.930 -3.8826 -1.9960 -0.4748
   18CHTO  H208 7232   6.726   8.316   1.918  3.1128 -0.8419  3.0225
   18CHTO   O74 7233   6.844   8.697   1.636  0.3787 -0.0643 -0.0305
   18CHTO  C115 7234   6.939   8.699   1.517 -0.8404  0.7653 -0.1565
   18CHTO  H219 7235   6.949   8.598   1.473  0.8694  0.5554 -0.2705
   18CHTO   O76 7236   6.879   8.791   1.383 -0.4361  0.1736 -0.1098
   18CHTO  C122 7237   6.908   8.931   1.402 -0.2535  0.1027  0.4542
   18CHTO  H226 7238   6.863   8.953   1.501  2.0026  1.2135 -1.0251
   18CHTO  C126 7239   6.832   9.018   1.292  0.1571  0.2036 -0.9012
   18CHTO   O85 7240   6.698   9.041   1.332  0.0223  0.1678 -0.0686
   18CHTO  H206 7241   6.696   9.104   1.399  0.9752 -0.7360 -1.4874
   18CHTO  C121 7242   7.065   8.954   1.396 -0.0190  0.2182  0.0178
   18CHTO  H225 7243   7.090   8.975   1.286 -1.3364  0.2862  2.9129
   18CHTO   O81 7244   7.088   9.075   1.467 -0.5378  0.1420  0.0340
   18CHTO  H202 7245   7.182   9.094   1.461  0.8790 -0.8521  1.9480
   18CHTO  C119 7246   7.145   8.831   1.454  0.4079 -0.5825 -0.2052
   18CHTO  H223 7247   7.153   8.763   1.373 -1.6225  4.2293  0.5873
   18CHTO  C117 7248   7.082   8.753   1.568  0.6823  0.1640 -0.0815
   18CHTO  H221 7249   7.070   8.809   1.662 -0.2579  1.1364  0.9939
   18CHTO   N20 7250   7.152   8.622   1.600  0.1609 -0.3624  0.0711
   18CHTO  H209 7251   7.254   8.642   1.614  1.0747 -0.2772  0.3580
   18CHTO  H210 7252   7.095   8.564   1.673 -0.0848 -0.8587 -1.8844
   18CHTO   O80 7253   7.287   8.872   1.476  0.5522  0.0773  0.6895
   18CHTO  C103 7254   7.408   8.822   1.371  0.9526  0.1684  0.1696
   18CHTO  H190 7255   7.507   8.850   1.415  1.2865 -0.8271 -0.9419
   18CHTO  C101 7256   7.413   8.669   1.344 -0.7693 -1.0686 -0.1669
   18CHTO  H188 7257   7.319   8.632   1.326  1.3557  0.8062  1.3315
   18CHTO   O68 7258   7.464   8.585   1.457 -0.1651 -0.0345  0.3570
   18CHTO  H168 7259   7.443   8.602   1.546  0.8739  0.0026  0.0613
   18CHTO   C99 7260   7.499   8.644   1.216  0.1028 -0.0181  0.2852
   18CHTO  H186 7261   7.605   8.677   1.242  2.2516 -0.8047 -1.3933
   18CHTO   N17 7262   7.524   8.492   1.184 -0.2667 -0.1054  0.7072
   18CHTO  H174 7263   7.454   8.451   1.115  2.5189 -0.4450 -1.1674
   18CHTO  H175 7264   7.560   8.429   1.263  0.6914  1.1969  0.5192
   18CHTO   C97 7265   7.457   8.724   1.091 -0.3255  0.3221 -0.5938
   18CHTO  H184 7266   7.362   8.685   1.045 -3.6030  0.0218 -0.0594
   18CHTO   O64 7267   7.454   8.864   1.125  0.7077 -0.0830 -0.0989
   18CHTO  C104 7268   7.378   8.910   1.240  0.0883  0.4667 -0.2514
   18CHTO  H191 7269   7.273   8.900   1.219  2.9698 -2.0260 -0.9008
   18CHTO  C108 7270   7.408   9.057   1.256 -0.8050  0.1952  0.7995
   18CHTO   O71 7271   7.549   9.080   1.267  0.7240 -0.2987  0.2329
   18CHTO  H171 7272   7.576   9.149   1.204  0.1907  1.8364 -0.8883
   18CHTO   O62 7273   7.571   8.725   1.007  0.0992 -0.0003 -0.2942
   18CHTO   C91 7274   7.544   8.718   0.865 -0.2949 -0.6509  0.6153
   18CHTO  H178 7275   7.460   8.654   0.850 -1.8961 -0.8419 -1.3823
   18CHTO   C92 7276   7.661   8.646   0.792  0.3713  0.0315 -0.7028
   18CHTO  H179 7277   7.715   8.579   0.864  2.0737  0.9012 -1.6672
   18CHTO   O66 7278   7.597   8.568   0.685  0.8207  0.2243  0.4820
   18CHTO  H166 7279   7.521   8.528   0.723  0.9842 -1.9019 -1.3513
   18CHTO   C93 7280   7.765   8.737   0.719 -0.2581  0.0426  0.2874
   18CHTO  H180 7281   7.809   8.669   0.643 -0.7335  1.1804  0.2509
   18CHTO   N16 7282   7.877   8.780   0.806  0.1125  0.0769  0.4259
   18CHTO  H172 7283   7.931   8.848   0.745 -0.7335  2.2209 -1.6956
   18CHTO  H173 7284   7.928   8.686   0.814  1.6565  1.2682 -1.1621
   18CHTO   C94 7285   7.704   8.859   0.645  0.1317  0.1244  0.3341
   18CHTO  H181 7286   7.748   8.954   0.673 -1.9464  3.1735  0.0273
   18CHTO   O61 7287   7.565   8.862   0.671  0.3328 -0.5196  0.8781
   18CHTO   C95 7288   7.516   8.862   0.800  0.0815  0.5724  0.3232
   18CHTO  H182 7289   7.566   8.941   0.857  2.1812  0.7540 -2.0471
   18CHTO  C106 7290   7.362   8.896   0.792  0.0387  0.0157 -0.5646
   18CHTO   O69 7291   7.296   8.808   0.698 -0.1223  0.2547 -0.0152
   18CHTO  H169 7292   7.239   8.852   0.638  3.2311  0.2990 -1.6170
   18CHTO   O63 7293   7.735   8.835   0.489  0.6236 -0.5139 -0.3811
   18CHTO   C96 7294   7.625   8.900   0.385 -0.3051  0.4266 -0.3681
   18CHTO  H183 7295   7.550   8.967   0.434  0.1392  2.4329  0.7041
   18CHTO   C98 7296   7.535   8.796   0.313 -0.5596 -0.0222  0.2863
   18CHTO  H185 7297   7.597   8.716   0.275 -1.0367  0.5790  4.4538
   18CHTO   O67 7298   7.459   8.727   0.418  0.6714  0.2927  0.4988
   18CHTO  H167 7299   7.398   8.781   0.467  0.6865  0.5791  2.3831
   18CHTO  C102 7300   7.436   8.867   0.203  0.1053  0.6265  0.4010
   18CHTO  H189 7301   7.361   8.916   0.258  0.4605  1.0600 -1.4356
   18CHTO   N18 7302   7.367   8.765   0.124  0.2258  0.4705 -0.4924
   18CHTO  H176 7303   7.259   8.782   0.128 -0.4713  1.6565  0.4269
   18CHTO  H177 7304   7.396   8.664   0.155  3.2788 -1.1013 -0.1534
   18CHTO  C105 7305   7.516   8.970   0.119  1.0946 -0.2728 -0.0903
   18CHTO  H192 7306   7.581   8.906   0.056  0.0413  0.5170  0.2226
   18CHTO   O65 7307   7.599   9.060   0.205  0.0261  1.0553 -0.5149
   18CHTO  C100 7308   7.690   8.998   0.290 -0.5620  0.9053 -0.8503
   18CHTO  H187 7309   7.768   8.940   0.233  5.0559 -0.3053  1.2684
   18CHTO  C107 7310   7.756   9.112   0.360 -0.7347  0.4148 -0.1078
   18CHTO   O70 7311   7.855   9.172   0.275  0.0345  0.2630  0.1482
   18CHTO  H170 7312   7.822   9.210   0.199 -1.0662 -0.6169 -2.3507
   18CHTO   O57 7313   7.401   9.056   0.018  0.2378 -0.1001 -0.4575
   18CHTO   C85 7314   7.312   9.160   0.072 -0.1502  0.2902  0.3340
   18CHTO  H157 7315   7.378   9.210   0.145 -0.2107 -0.9079 -1.3553
   18CHTO   C83 7316   7.189   9.100   0.140 -0.1722  0.4395 -0.3918
   18CHTO  H155 7317   7.217   9.029   0.214  0.8507 -0.2175 -1.1297
   18CHTO   O56 7318   7.105   9.028   0.046  0.3292 -0.3296  0.4585
   18CHTO  H135 7319   7.062   9.089  -0.014  1.2318 -1.5870  0.3123
   18CHTO   C81 7320   7.106   9.209   0.205 -0.7522 -0.5545 -0.4611
   18CHTO  H153 7321   7.170   9.272   0.271  0.0388 -2.2212  1.9528
   18CHTO   N14 7322   7.006   9.148   0.303 -0.2060 -0.0765  0.6499
   18CHTO  H141 7323   6.903   9.137   0.258  1.6551  2.1391 -2.2345
   18CHTO  H142 7324   7.040   9.049   0.349 -0.8873  1.1456  1.6737
   18CHTO   C79 7325   7.039   9.305   0.093  0.9822  0.2353 -0.1497
   18CHTO  H151 7326   6.987   9.385   0.145  0.3215 -0.9627  0.6613
   18CHTO   O52 7327   7.145   9.361   0.016  0.0885 -0.2702 -0.4507
   18CHTO   C86 7328   7.249   9.268  -0.031 -0.3062  0.0981 -0.1617
   18CHTO  H158 7329   7.199   9.226  -0.122 -0.1592  4.2845  2.0066
   18CHTO   C90 7330   7.365   9.346  -0.091  0.4149 -0.0097  0.2100
   18CHTO   O60 7331   7.430   9.432   0.006 -0.0236  0.4127 -0.2272
   18CHTO  H138 7332   7.380   9.512   0.015 -1.4706  0.9236  0.9086
   18CHTO   O50 7333   6.944   9.242   0.004  0.3242  0.3740  0.3539
   18CHTO   C73 7334   6.891   9.277  -0.123  0.2549  0.3057  0.2966
   18CHTO  H145 7335   6.974   9.304  -0.180 -1.3858  0.4542  3.6770
   18CHTO   C74 7336   6.798   9.406  -0.104  0.0572 -0.7783 -0.4757
   18CHTO  H146 7337   6.861   9.473  -0.049 -0.6372  2.0241  2.7797
   18CHTO   O54 7338   6.781   9.465  -0.231 -0.0582 -0.3309  0.0095
   18CHTO  H133 7339   6.765   9.556  -0.226  0.3942 -1.6642 -1.1443
   18CHTO   C75 7340   6.672   9.368  -0.026  0.0054  0.2273  0.1523
   18CHTO  H147 7341   6.705   9.341   0.073  1.1450 -0.1592 -1.1778
   18CHTO   N13 7342   6.568   9.477  -0.013 -0.1368  0.2313 -0.7392
   18CHTO  H139 7343   6.488   9.434   0.049 -0.3633 -0.2496  0.3561
   18CHTO  H140 7344   6.618   9.549   0.046  0.5899 -0.4853 -0.6064
   18CHTO   C76 7345   6.606   9.233  -0.087 -0.3171 -0.4362  0.4177
   18CHTO  H148 7346   6.575   9.249  -0.187 -0.1465 -1.7991  1.7698
   18CHTO   O49 7347   6.711   9.127  -0.093 -0.3807 -0.1595  0.1469
   18CHTO   C77 7348   6.816   9.153  -0.184 -0.4584  0.5758 -0.1267
   18CHTO  H149 7349   6.764   9.174  -0.277  0.6099 -0.8814  0.8058
   18CHTO   C88 7350   6.903   9.030  -0.206  1.1203  1.0962  0.2062
   18CHTO   O58 7351   6.965   9.036  -0.326  0.6463 -0.1712 -0.0297
   18CHTO  H136 7352   7.025   8.964  -0.333  0.7776  3.9126  1.5155
   18CHTO   O51 7353   6.496   9.187   0.023 -0.2083 -0.2364 -0.5148
   18CHTO   C78 7354   6.443   9.024  -0.004 -0.0553 -0.0363  0.0514
   18CHTO  H150 7355   6.504   8.967  -0.083  0.0531 -0.9055 -3.8362
   18CHTO   C80 7356   6.300   9.023  -0.062  0.4116 -0.0886  0.0774
   18CHTO  H152 7357   6.241   9.106  -0.008 -3.2274  3.7998 -1.4448
   18CHTO   O55 7358   6.300   9.068  -0.197  0.2631 -0.2846 -0.0141
   18CHTO  H134 7359   6.302   8.997  -0.257 -0.7771 -0.6523  0.3611
   18CHTO   C84 7360   6.218   8.890  -0.048 -0.7396 -0.7431  0.4780
   18CHTO  H156 7361   6.272   8.814  -0.112  2.1985  1.8982  1.2255
   18CHTO   N15 7362   6.078   8.906  -0.090 -0.3177 -0.5586 -0.1961
   18CHTO  H143 7363   6.021   8.810  -0.078 -0.2295 -1.1182 -1.8087
   18CHTO  H144 7364   6.054   8.949  -0.186  0.1812 -1.4480 -0.1922
   18CHTO   C87 7365   6.231   8.838   0.094 -0.4574  0.2352  0.0497
   18CHTO  H159 7366   6.205   8.917   0.159 -0.1401  3.3173 -0.3996
   18CHTO   O53 7367   6.386   8.806   0.115 -0.1248  0.0289  0.3241
   18CHTO   C82 7368   6.450   8.935   0.124 -0.1915 -0.4413 -0.0961
   18CHTO  H154 7369   6.405   8.995   0.207 -0.4481  0.8617  0.5633
   18CHTO   C89 7370   6.600   8.921   0.151 -0.0277 -0.3305 -0.6443
   18CHTO   O59 7371   6.624   8.834   0.264  0.0428  0.6644 -0.9175
   18CHTO  H137 7372   6.560   8.765   0.263  0.0913 -1.6335 -2.4643
   18CHTO   O45 7373   6.137   8.697   0.133  0.4093  0.1070 -0.7217
   18CHTO   C67 7374   6.095   8.702   0.275 -0.7058 -0.6962  0.1735
   18CHTO  H124 7375   6.129   8.792   0.325  0.2949  0.0394 -0.7828
   18CHTO   C65 7376   5.936   8.688   0.286 -0.1202 -0.9208  0.0679
   18CHTO  H122 7377   5.914   8.610   0.212 -0.0319  0.1134  0.9965
   18CHTO   O44 7378   5.889   8.808   0.229 -0.1255 -0.8259 -0.0493
   18CHTO  H102 7379   5.833   8.851   0.290  3.0629  1.2771 -1.9297
   18CHTO   C63 7380   5.878   8.637   0.430 -0.1470  0.0905  0.1206
   18CHTO  H120 7381   5.872   8.529   0.433  2.0020  0.0453 -0.1225
   18CHTO   N11 7382   5.740   8.671   0.460 -0.3318 -0.0599 -0.3879
   18CHTO  H108 7383   5.742   8.764   0.511  1.2552  0.2075  0.0497
   18CHTO  H109 7384   5.673   8.673   0.378 -1.6980 -0.4627 -1.3391
   18CHTO   C61 7385   5.982   8.652   0.543  0.0175 -0.2751  0.8641
   18CHTO  H118 7386   5.960   8.594   0.631  2.1156 -2.5540  0.3547
   18CHTO   O40 7387   6.123   8.623   0.504 -0.0287  0.5600 -0.5187
   18CHTO   C68 7388   6.153   8.584   0.361  0.3072 -0.0656  0.5813
   18CHTO  H125 7389   6.109   8.481   0.332  0.1894 -3.2433 -0.1991
   18CHTO   C72 7390   6.308   8.575   0.350 -0.5769  0.5501  0.2544
   18CHTO   O48 7391   6.359   8.460   0.411  0.0151 -0.4117  0.1773
   18CHTO  H105 7392   6.447   8.445   0.377  1.3924  2.1961 -0.0150
   18CHTO   O38 7393   6.006   8.791   0.577  0.2582 -0.4105  0.2875
   18CHTO   C55 7394   6.057   8.811   0.713  0.5367 -0.3269  0.4997
   18CHTO  H112 7395   6.119   8.727   0.737  0.3879 -0.8180 -0.4626
   18CHTO   C56 7396   5.938   8.829   0.814 -0.3114 -0.0020 -0.1826
   18CHTO  H113 7397   5.882   8.920   0.783  0.5116 -0.5772  1.4676
   18CHTO   O42 7398   5.856   8.714   0.804 -0.2619  0.1862  0.6814
   18CHTO  H100 7399   5.777   8.747   0.841  1.7354 -0.3978 -1.2000
   18CHTO   C57 7400   5.999   8.855   0.958  0.1394  0.7410 -0.0833
   18CHTO  H114 7401   6.058   8.771   0.978  0.2718  1.0512 -0.4979
   18CHTO   N10 7402   5.894   8.858   1.065 -0.5821  0.5145  0.6873
   18CHTO  H106 7403   5.807   8.902   1.020 -2.4814 -1.5265  0.2187
   18CHTO  H107 7404   5.917   8.912   1.155 -0.1767  2.3801 -0.0623
   18CHTO   C58 7405   6.087   8.981   0.957  0.2210  0.0635 -0.6510
   18CHTO  H115 7406   6.026   9.076   0.944 -0.5641 -0.8525  0.2232
   18CHTO   O37 7407   6.181   8.969   0.846  0.0352  0.0938  0.1900
   18CHTO   C59 7408   6.138   8.944   0.713  0.5604  0.5097 -0.1889
   18CHTO  H116 7409   6.073   9.020   0.672  2.3646 -0.2091  0.0763
   18CHTO   C70 7410   6.270   8.942   0.635  0.0628 -0.9921  0.2870
   18CHTO   O46 7411   6.366   8.840   0.683  0.5536 -0.5438 -0.2933
   18CHTO  H103 7412   6.409   8.803   0.605 -0.7236  1.0183  2.5742
   18CHTO   O39 7413   6.181   8.991   1.086  0.1889 -0.0174 -0.4854
   18CHTO   C60 7414   6.287   8.892   1.094  0.2343 -0.5347 -0.3357
   18CHTO  H117 7415   6.259   8.810   1.039 -1.1156 -0.1869 -0.1507
   18CHTO   C62 7416   6.430   8.947   1.046  0.7781 -0.1429  0.4068
   18CHTO  H119 7417   6.413   8.992   0.941 -1.6560 -1.1046  0.8831
   18CHTO   O43 7418   6.470   9.053   1.130 -0.2282  0.0199 -0.4581
   18CHTO  H101 7419   6.426   9.129   1.104 -0.3367 -1.9154  3.3559
   18CHTO   C66 7420   6.531   8.828   1.037 -0.0844  0.3881 -0.6756
   18CHTO  H123 7421   6.486   8.751   0.983 -3.3078  0.2742 -1.0681
   18CHTO   N12 7422   6.665   8.856   0.972 -0.9295  0.1080  0.3693
   18CHTO  H110 7423   6.676   8.797   0.877  5.0773 -0.9205 -1.0036
   18CHTO  H111 7424   6.670   8.965   0.937 -0.3390  2.4681 -2.3051
   18CHTO   C69 7425   6.539   8.761   1.178 -1.3732 -0.0299 -0.5065
   18CHTO  H126 7426   6.595   8.820   1.245  1.1581  0.3112  1.9014
   18CHTO   O41 7427   6.406   8.736   1.241  0.2464  0.0363 -0.2400
   18CHTO   C64 7428   6.310   8.840   1.238  0.3459 -0.0305 -0.1810
   18CHTO  H121 7429   6.341   8.926   1.293 -0.0584  2.2054 -0.0830
   18CHTO   C71 7430   6.174   8.789   1.293 -0.3361 -0.1491 -0.1932
   18CHTO   O47 7431   6.193   8.748   1.427  0.1997 -0.5879 -0.3275
   18CHTO  H104 7432   6.274   8.785   1.455  0.6665  3.1270  1.6521
   18CHTO   O34 7433   6.622   8.620   1.174  0.2117 -0.1219  0.2674
   18CHTO   C49 7434   6.635   8.479   1.173 -0.0401  0.5532 -0.3845
   18CHTO   H91 7435   6.723   8.439   1.232  1.5749  0.8438  0.9679
   18CHTO   C47 7436   6.645   8.432   1.024 -0.3803  0.1386  0.2814
   18CHTO   H89 7437   6.664   8.324   1.038 -1.8447  0.3431  2.9610
   18CHTO   O33 7438   6.758   8.497   0.959 -0.0998 -0.0312  0.4836
   18CHTO   H70 7439   6.789   8.439   0.888  0.8831  3.0977 -0.7232
   18CHTO   C45 7440   6.513   8.464   0.937 -0.0848  0.0240 -0.0224
   18CHTO   H87 7441   6.512   8.567   0.896 -1.8646  0.3287  1.6393
   18CHTO    N8 7442   6.506   8.370   0.822  0.0515 -0.4769  0.5679
   18CHTO   H75 7443   6.416   8.367   0.766  0.3985  0.0872  2.4989
   18CHTO   H76 7444   6.597   8.371   0.760 -1.2135  1.3197  0.8458
   18CHTO   C43 7445   6.392   8.462   1.036  0.2275 -0.0635 -0.5185
   18CHTO   H85 7446   6.380   8.562   1.079 -0.1026 -3.0153 -1.4519
   18CHTO   O29 7447   6.412   8.361   1.143 -0.6529  0.4518 -0.1833
   18CHTO   C50 7448   6.510   8.405   1.238 -0.6662 -0.8752  0.4262
   18CHTO   H92 7449   6.464   8.472   1.319 -1.2031 -2.2728  1.4417
   18CHTO   C54 7450   6.543   8.273   1.315  0.1170 -0.3404  0.4718
   18CHTO   O36 7451   6.611   8.168   1.242  0.8774 -0.3806 -0.2869
   18CHTO   H72 7452   6.555   8.101   1.199  2.1292 -0.0795  1.3433
   18CHTO   O27 7453   6.265   8.445   0.971  0.1802  0.3414  0.2474
   18CHTO   C37 7454   6.138   8.388   0.991 -0.2290  0.2259  0.5786
   18CHTO   H79 7455   6.150   8.284   1.023 -1.1235 -0.4121 -0.4476
   18CHTO   C38 7456   6.057   8.469   1.093 -0.1285 -0.5680 -0.2609
   18CHTO   H80 7457   6.064   8.576   1.064 -1.1620  0.7666  0.2840
   18CHTO   O31 7458   6.113   8.462   1.224 -0.7935 -0.9300  0.5521
   18CHTO   H68 7459   6.124   8.372   1.256  0.4434 -2.1732 -0.4716
   18CHTO   C39 7460   5.902   8.426   1.093 -0.1488 -0.4279  0.5010
   18CHTO   H81 7461   5.888   8.325   1.131 -1.3524  2.5172 -1.2213
   18CHTO    N7 7462   5.829   8.522   1.183 -0.3627 -0.3455  0.0212
   18CHTO   H73 7463   5.826   8.494   1.287 -0.6317  1.6726  1.4512
   18CHTO   H74 7464   5.737   8.563   1.138  2.6621 -1.7331 -2.3654
   18CHTO   C40 7465   5.841   8.409   0.952 -0.3837 -0.2028  0.5414
   18CHTO   H82 7466   5.813   8.511   0.921 -0.4529  0.5610  0.7336
   18CHTO   O26 7467   5.930   8.345   0.860  0.3725  0.4345 -0.1524
   18CHTO   C41 7468   6.060   8.393   0.856 -0.9180 -0.9868  0.3036
   18CHTO   H83 7469   6.065   8.496   0.817  2.2228 -0.4203  2.3218
   18CHTO   C52 7470   6.123   8.304   0.740 -0.5524 -0.1246  0.8716
   18CHTO   O35 7471   6.061   8.335   0.583 -0.0813 -0.1479 -0.1333
   18CHTO   H71 7472   5.974   8.302   0.567  1.0014 -0.9333  1.7327
   18CHTO   O28 7473   5.724   8.333   0.956  0.1305 -0.4231  0.2238
   18CHTO   C42 7474   5.643   8.290   0.840 -0.2323  0.3357  0.3561
   18CHTO   H84 7475   5.537   8.268   0.877 -0.4245  2.5514 -1.7509
   18CHTO   C44 7476   5.698   8.152   0.778 -0.5516 -0.0769 -0.1829
   18CHTO   H86 7477   5.790   8.169   0.727  1.6210 -0.8470  0.7900
   18CHTO   O32 7478   5.713   8.064   0.890  0.2309  0.1107 -0.1357
   18CHTO   H69 7479   5.771   8.000   0.858  2.0529 -0.3169 -1.7797
   18CHTO   C48 7480   5.589   8.103   0.669 -0.1765 -0.8829 -0.6394
   18CHTO   H90 7481   5.493   8.082   0.717  0.5406 -1.2088  0.0091
   18CHTO    N9 7482   5.624   7.970   0.606 -0.1633  0.0555  0.2239
   18CHTO   H77 7483   5.557   7.950   0.522 -0.0154 -2.3889  0.2586
   18CHTO   H78 7484   5.727   7.964   0.580  1.7557 -1.8895  0.4848
   18CHTO   C51 7485   5.566   8.217   0.558 -1.0677 -0.2991 -0.0689
   18CHTO   H93 7486   5.657   8.223   0.507 -1.0803 -1.8822  1.4890
   18CHTO   O30 7487   5.532   8.346   0.620 -0.0111  0.0867  0.5770
   18CHTO   C46 7488   5.623   8.400   0.732  0.2566 -0.0823  0.0036
   18CHTO   H88 7489   5.726   8.421   0.690  0.9470 -1.4048  1.5414
   18CHTO   C53 7490   5.569   8.533   0.789  0.5467 -0.0966 -0.3236
   18CHTO   O72 7491   5.434   8.530   0.833  0.3971 -0.0701 -0.2020
   18CHTO  H199 7492   5.440   8.524   0.924  0.6239  1.7610 -2.7645
   18CHTO   O22 7493   5.462   8.182   0.463  0.0101 -0.6676 -0.0237
   18CHTO   C31 7494   5.471   8.216   0.312 -0.4747  0.0287  0.1665
   18CHTO   H59 7495   5.377   8.172   0.267 -0.7178 -2.2482  2.1786
   18CHTO   C29 7496   5.473   8.367   0.284  0.1852  0.3129 -0.0782
   18CHTO   H57 7497   5.547   8.413   0.348 -1.6086 -0.9494 -0.8475
   18CHTO   O21 7498   5.351   8.422   0.332  0.5004 -0.4886 -0.1247
   18CHTO   H37 7499   5.279   8.369   0.310 -1.5526 -2.7604 -2.6410
   18CHTO   C27 7500   5.518   8.393   0.128  0.1630 -0.7908 -0.4434
   18CHTO   H55 7501   5.437   8.368   0.060 -0.5107 -0.2167 -0.8094
   18CHTO    N5 7502   5.536   8.541   0.121  0.2416  0.2844  0.7738
   18CHTO   H43 7503   5.511   8.588   0.026 -0.8038 -2.0857  0.1020
   18CHTO   H44 7504   5.488   8.596   0.201  1.9022  1.1177 -1.0942
   18CHTO   C25 7505   5.650   8.314   0.103  0.1383 -0.2224  0.0601
   18CHTO   H53 7506   5.722   8.350   0.186  2.7031  3.0540 -0.7500
   18CHTO   O17 7507   5.623   8.175   0.112 -0.1846 -0.5090 -0.0375
   18CHTO   C32 7508   5.591   8.138   0.245 -0.6197 -0.4507 -0.2565
   18CHTO   H60 7509   5.679   8.151   0.304 -0.9262  0.5985  0.3973
   18CHTO   C36 7510   5.562   7.984   0.240  0.0158 -0.8443 -0.2677
   18CHTO   O25 7511   5.438   7.959   0.174  0.2373  0.0822  0.0991
   18CHTO   H40 7512   5.450   7.930   0.085 -3.3581 -1.1529 -1.0200
   18CHTO   O15 7513   5.716   8.354  -0.043  0.2874  0.4185  0.1276
   18CHTO   C19 7514   5.842   8.346  -0.108  0.0573 -0.8517 -0.5376
   18CHTO   H47 7515   5.835   8.245  -0.154 -2.7954 -1.1804 -0.0852
   18CHTO   C20 7516   5.861   8.458  -0.218 -0.1221 -0.4323 -0.1779
   18CHTO   H48 7517   5.855   8.555  -0.175  1.6922  0.7334 -3.2160
   18CHTO   O19 7518   5.753   8.443  -0.306  0.2298  0.1051  0.0070
   18CHTO   H35 7519   5.774   8.485  -0.388 -0.1685  1.2159  0.6863
   18CHTO   C21 7520   5.995   8.461  -0.285 -0.0775  0.4331 -0.0972
   18CHTO   H49 7521   6.005   8.372  -0.348  0.6778  1.4019  1.4062
   18CHTO    N4 7522   6.010   8.581  -0.377  0.1824 -0.2751 -0.1247
   18CHTO   H41 7523   5.908   8.590  -0.420 -1.5824  2.7837  1.0175
   18CHTO   H42 7524   6.077   8.547  -0.457  1.7163 -0.0226 -0.5987
   18CHTO   C22 7525   6.108   8.463  -0.176  0.5227 -0.5514 -0.2247
   18CHTO   H50 7526   6.107   8.554  -0.115  2.4868  2.0206 -1.0362
   18CHTO   O14 7527   6.088   8.345  -0.093 -0.1244  0.0633 -0.2338
   18CHTO   C23 7528   5.964   8.345  -0.018 -0.0999  0.4432 -0.6597
   18CHTO   H51 7529   5.969   8.434   0.041 -2.6468 -1.1554  1.1665
   18CHTO   C34 7530   5.969   8.219   0.079  0.1968  0.3572 -0.7406
   18CHTO   O23 7531   6.076   8.209   0.164  0.9428 -0.6223 -0.1118
   18CHTO   H38 7532   6.147   8.239   0.108 -0.1692  1.5719  0.9189
   18CHTO   O16 7533   6.237   8.434  -0.236 -0.2696  0.0518 -0.8582
   18CHTO   C24 7534   6.364   8.514  -0.153  0.0205  0.1670  0.1032
   18CHTO   H52 7535   6.323   8.588  -0.076 -2.1281  0.3909  1.7865
   18CHTO   C26 7536   6.438   8.596  -0.266  0.2502  0.5156 -0.7942
   18CHTO   H54 7537   6.471   8.522  -0.342  1.4311 -1.9304  1.6732
   18CHTO   O20 7538   6.346   8.682  -0.330 -0.2453 -0.0093 -0.1064
   18CHTO   H36 7539   6.299   8.737  -0.274  1.2557 -2.1568 -2.8412
   18CHTO   C30 7540   6.572   8.667  -0.208 -0.1548  0.3931 -0.2465
   18CHTO   H58 7541   6.546   8.751  -0.147 -2.5798 -0.3525  2.8831
   18CHTO    N6 7542   6.652   8.722  -0.320 -0.1687  0.4105  0.3004
   18CHTO   H45 7543   6.740   8.781  -0.297 -2.8350 -2.8391  0.3137
   18CHTO   H46 7544   6.603   8.754  -0.410  1.0573 -0.0799 -1.2996
   18CHTO   C33 7545   6.658   8.576  -0.125 -0.4853 -0.2830  0.0275
   18CHTO   H61 7546   6.695   8.500  -0.188 -1.2749  0.9672 -1.3056
   18CHTO   O18 7547   6.569   8.521  -0.025  0.3549 -0.4520  0.2034
   18CHTO   C28 7548   6.471   8.424  -0.076 -0.0178 -0.7360  0.0847
   18CHTO   H56 7549   6.523   8.358  -0.154  1.1245 -1.0655  0.6192
   18CHTO   C35 7550   6.403   8.347   0.035  0.1461 -0.0048  0.6682
   18CHTO   O24 7551   6.484   8.242   0.082  0.4603  0.3853  0.8893
   18CHTO   H39 7552   6.514   8.183   0.009 -0.8102 -0.3403 -0.6020
   18CHTO    O9 7553   6.772   8.645  -0.066  0.1753  0.1438 -0.0495
   18CHTO   C13 7554   6.881   8.531  -0.004 -1.3535 -0.3205  0.2381
   18CHTO   H26 7555   6.922   8.481  -0.101 -0.1810  0.1959 -1.6258
   18CHTO   C11 7556   6.822   8.427   0.102 -0.1377 -0.2674 -0.0403
   18CHTO   H24 7557   6.749   8.368   0.054  0.2097  1.5599 -0.9326
   18CHTO    O8 7558   6.764   8.501   0.213 -0.1019  0.2365  0.3263
   18CHTO    H3 7559   6.677   8.524   0.192  0.9773  1.2849  1.8500
   18CHTO    C9 7560   6.943   8.340   0.138 -0.1470  0.2058 -0.5556
   18CHTO   H22 7561   6.994   8.318   0.047  1.2215  1.0696 -0.4859
   18CHTO    N2 7562   6.917   8.212   0.207 -0.0922 -0.6344  0.1871
   18CHTO   H10 7563   6.981   8.202   0.296  0.2605 -1.5300  2.2645
   18CHTO   H11 7564   6.810   8.203   0.230  1.1060  0.7075  0.7606
   18CHTO    C7 7565   7.046   8.432   0.224 -0.4382  0.7748 -0.7245
   18CHTO   H20 7566   7.140   8.366   0.222 -2.0889  1.8993  0.5513
   18CHTO    O4 7567   7.072   8.561   0.169 -0.5086  0.0017  0.1498
   18CHTO   C14 7568   7.004   8.614   0.054  0.5333  0.1923  0.2463
   18CHTO   H27 7569   7.087   8.625  -0.023  0.7072 -2.1022 -0.2865
   18CHTO   C18 7570   6.973   8.756   0.097  0.2098  0.1381 -0.5225
   18CHTO   O13 7571   6.902   8.762   0.222 -0.3833  0.8275  0.2353
   18CHTO    H7 7572   6.909   8.851   0.253  1.2480 -1.1801  0.0698
   18CHTO    O2 7573   6.994   8.456   0.353  0.0083  0.1686 -0.0872
   18CHTO    C1 7574   7.078   8.493   0.466 -0.0259 -0.6313  0.3080
   18CHTO   H14 7575   7.109   8.600   0.460  0.7900 -0.2202  0.6521
   18CHTO    C2 7576   7.211   8.406   0.487  0.0783  0.3556  0.0427
   18CHTO   H15 7577   7.184   8.310   0.449  0.0577  2.7545  0.4002
   18CHTO    O6 7578   7.312   8.453   0.396  0.0354 -0.1910 -0.1413
   18CHTO    H1 7579   7.339   8.388   0.334  0.5734 -1.0899  2.0074
   18CHTO    C3 7580   7.260   8.403   0.639  0.0891  0.3501  0.4811
   18CHTO   H16 7581   7.308   8.502   0.645 -1.1222  3.0738  0.3052
   18CHTO    N1 7582   7.367   8.299   0.658 -0.6038  0.1547  0.4761
   18CHTO    H8 7583   7.397   8.255   0.566  0.7131  0.1224  0.1213
   18CHTO    H9 7584   7.327   8.222   0.717  0.3760 -1.9972 -2.9685
   18CHTO    C4 7585   7.140   8.402   0.740 -0.0715 -0.4515  0.2897
   18CHTO   H17 7586   7.099   8.304   0.733  2.8606  0.8626 -0.2926
   18CHTO    O1 7587   7.041   8.503   0.713  0.1747  0.3272  0.1240
   18CHTO    C5 7588   6.974   8.486   0.590 -0.1709  0.6297  0.0609
   18CHTO   H18 7589   6.934   8.385   0.591 -0.8078  1.0126  1.3670
   18CHTO   C16 7590   6.853   8.585   0.584 -0.5610 -0.4604 -0.1432
   18CHTO   O11 7591   6.895   8.722   0.583  0.1764  0.1996  0.5539
   18CHTO    H5 7592   6.906   8.753   0.495 -2.7803 -0.2545 -1.2081
   18CHTO    O3 7593   7.195   8.426   0.873 -0.2613 -0.3307  0.0242
   18CHTO    C6 7594   7.101   8.400   0.985 -0.1110  0.2684 -0.5141
   18CHTO   H19 7595   6.993   8.388   0.952 -0.4351 -0.2054  1.9364
   18CHTO    C8 7596   7.150   8.269   1.059  0.2024  0.5518  0.1245
   18CHTO   H21 7597   7.261   8.286   1.084 -1.7857  0.6620 -0.4764
   18CHTO    O7 7598   7.141   8.157   0.969  0.3228  0.4967 -0.0445
   18CHTO    H2 7599   7.203   8.164   0.896 -2.0063 -1.8298 -3.2879
   18CHTO   C12 7600   7.069   8.251   1.188  1.1006 -0.6616  0.8437
   18CHTO   H25 7601   6.960   8.217   1.163  0.2003 -0.2194  0.1725
   18CHTO    N3 7602   7.124   8.141   1.279 -0.9014 -0.3426 -0.6472
   18CHTO   H12 7603   7.208   8.083   1.238  0.9297  0.0051  1.9951
   18CHTO   H13 7604   7.164   8.172   1.374  0.7164  1.4668  1.2265
   18CHTO   C15 7605   7.061   8.385   1.269 -0.2536  0.9972 -0.2395
   18CHTO   H28 7606   7.148   8.400   1.332  1.4197 -0.0110  0.4418
   18CHTO   O10 7607   6.912   8.381   1.367  0.6666 -0.6610  0.0735
   18CHTO    H4 7608   6.929   8.457   1.411  2.5646 -1.7338  1.0096
   18CHTO    O5 7609   7.026   8.505   1.196 -0.4423  0.7382 -0.5948
   18CHTO   C10 7610   7.104   8.522   1.079 -0.6772 -0.1811 -0.0842
   18CHTO   H23 7611   7.210   8.539   1.102  1.9267 -0.6683  1.0532
   18CHTO   C17 7612   7.051   8.642   0.996  0.1690  0.1351  0.1490
   18CHTO   O12 7613   7.051   8.757   1.075 -0.2543 -0.4470 -0.1013
   18CHTO    H6 7614   6.992   8.822   1.041  3.4565 -0.9353  0.6042
   19CHTO  H203 7615   5.592   9.243   1.790  2.2798  2.1477  0.6456
   19CHTO   O82 7616   5.654   9.180   1.769 -0.7000 -0.0579 -0.0765
   19CHTO  C123 7617   5.622   9.115   1.647 -0.6673  0.7023 -0.2553
   19CHTO  H227 7618   5.663   9.177   1.564  1.0705  1.8945  0.7607
   19CHTO   O77 7619   5.692   8.985   1.662 -0.1487  0.1266  0.1257
   19CHTO  C118 7620   5.688   8.893   1.552  0.9562 -0.0489  0.2839
   19CHTO  H222 7621   5.725   8.932   1.458 -2.6974  1.8473  1.9255
   19CHTO  C125 7622   5.783   8.773   1.596 -0.2060  0.4033  0.7373
   19CHTO   O84 7623   5.912   8.833   1.609 -0.1805 -0.1966  0.1540
   19CHTO  H205 7624   5.967   8.764   1.642  1.6433  0.3857 -1.3977
   19CHTO  C114 7625   5.538   8.859   1.522  0.5870  0.4236  0.1339
   19CHTO  H218 7626   5.490   8.798   1.601 -2.1431  1.8032  1.6109
   19CHTO  C116 7627   5.462   8.988   1.508 -0.5387 -0.5630  0.6159
   19CHTO  H220 7628   5.508   9.045   1.429 -1.1007 -0.9426  0.9205
   19CHTO   O79 7629   5.327   8.973   1.460  0.2305  0.5052 -0.4265
   19CHTO  H201 7630   5.275   8.901   1.497  0.9083 -0.4098 -0.3925
   19CHTO  C120 7631   5.469   9.081   1.634  0.4540  0.1994 -0.5136
   19CHTO  H224 7632   5.435   9.025   1.732  1.2293 -1.9545  0.1131
   19CHTO   N21 7633   5.385   9.208   1.617  0.8797  0.5748  0.3195
   19CHTO  H211 7634   5.442   9.287   1.577 -3.1328 -0.0473 -1.1793
   19CHTO  H212 7635   5.352   9.253   1.713  2.6742 -0.3566  3.7850
   19CHTO   O75 7636   5.544   8.785   1.397  0.4580 -0.1081  0.4938
   19CHTO  C112 7637   5.483   8.617   1.398  0.1897 -0.7088 -0.0964
   19CHTO  H216 7638   5.401   8.613   1.473 -0.2054 -0.4220  1.2087
   19CHTO   O73 7639   5.593   8.535   1.441  0.3847  0.1293  0.4560
   19CHTO  C113 7640   5.557   8.398   1.460  0.5080  0.2601  0.1816
   19CHTO  H217 7641   5.479   8.376   1.537 -1.1837 -0.1030  1.0157
   19CHTO  C124 7642   5.674   8.305   1.504  0.0426  0.2244 -0.1787
   19CHTO   O83 7643   5.706   8.302   1.639 -0.3103  0.6769  0.2771
   19CHTO  H204 7644   5.795   8.292   1.646 -4.6013 -0.0666 -1.8578
   19CHTO  C109 7645   5.518   8.345   1.320 -0.7085  0.4389  0.2306
   19CHTO  H213 7646   5.606   8.358   1.252 -0.1680  0.2688 -0.8136
   19CHTO  C110 7647   5.406   8.434   1.255  0.8932  0.1143  0.2436
   19CHTO  H214 7648   5.311   8.427   1.306  0.3669  0.8780 -0.1017
   19CHTO   O78 7649   5.370   8.384   1.126  0.2088  0.6142 -0.1824
   19CHTO  H200 7650   5.291   8.427   1.095 -3.0281  0.0479 -1.2472
   19CHTO  C111 7651   5.434   8.584   1.262  0.0284  0.4700  0.4868
   19CHTO  H215 7652   5.523   8.603   1.203  1.1657 -1.5854  3.1054
   19CHTO   N19 7653   5.328   8.671   1.206 -0.4624 -0.0143  0.1695
   19CHTO  H207 7654   5.337   8.767   1.256 -0.0275 -1.8735  0.8270
   19CHTO  H208 7655   5.240   8.632   1.245 -0.0195  1.7511 -1.1974
   19CHTO   O74 7656   5.480   8.202   1.313 -0.2084  0.1510  0.0109
   19CHTO  C115 7657   5.526   8.116   1.174  0.5446 -0.2132  0.3056
   19CHTO  H219 7658   5.514   8.178   1.083  1.0265  3.7911  1.4196
   19CHTO   O76 7659   5.669   8.084   1.177  0.1523 -0.4133  0.0293
   19CHTO  C122 7660   5.708   7.998   1.283 -0.0597 -0.4884  0.1474
   19CHTO  H226 7661   5.687   8.046   1.383 -2.0232  0.6887 -1.0716
   19CHTO  C126 7662   5.858   7.986   1.269  0.0636  0.0037 -0.2607
   19CHTO   O85 7663   5.930   8.104   1.304 -0.2450 -0.2228 -0.3693
   19CHTO  H206 7664   6.020   8.078   1.313  2.8380  1.5187  0.1806
   19CHTO  C121 7665   5.640   7.851   1.263  0.2266  0.3037 -0.3063
   19CHTO  H225 7666   5.721   7.781   1.221  3.2221  0.6287  0.0729
   19CHTO   O81 7667   5.597   7.817   1.399  0.4812  0.9757  0.6851
   19CHTO  H202 7668   5.525   7.870   1.431  1.6768  0.7956  1.0858
   19CHTO  C119 7669   5.528   7.856   1.161  0.5125 -1.0179 -0.0961
   19CHTO  H223 7670   5.575   7.860   1.064  0.9246 -1.6329 -0.5884
   19CHTO  C117 7671   5.437   7.983   1.175 -0.1919  0.4135  0.0264
   19CHTO  H221 7672   5.367   7.986   1.257  1.6180  0.2264 -0.6708
   19CHTO   N20 7673   5.343   7.990   1.052 -0.4098  0.5858  0.1641
   19CHTO  H209 7674   5.369   8.065   0.977 -1.7815 -0.6541 -0.9961
   19CHTO  H210 7675   5.246   7.998   1.086  2.6642  1.5167  1.0759
   19CHTO   O80 7676   5.456   7.739   1.152 -0.3407 -0.1696 -0.1329
   19CHTO  C103 7677   5.537   7.612   1.098 -0.2892  0.0512 -0.1264
   19CHTO  H190 7678   5.637   7.635   1.061 -0.2168 -0.1598  2.1856
   19CHTO  C101 7679   5.563   7.502   1.198 -0.0026  0.1646  0.2852
   19CHTO  H188 7680   5.466   7.478   1.248 -1.1514 -0.1963  0.7279
   19CHTO   O68 7681   5.649   7.544   1.299 -0.2889 -0.2192  0.0116
   19CHTO  H168 7682   5.596   7.578   1.373  0.2160 -0.2694 -0.8125
   19CHTO   C99 7683   5.608   7.371   1.127  0.0089 -0.6236  0.1169
   19CHTO  H186 7684   5.707   7.387   1.081  0.4625  0.6901 -1.4248
   19CHTO   N17 7685   5.629   7.251   1.222  0.8988 -0.5762  0.6468
   19CHTO  H174 7686   5.732   7.216   1.224 -0.1748 -0.0243  1.4614
   19CHTO  H175 7687   5.583   7.265   1.322 -0.6441 -0.4051 -4.5595
   19CHTO   C97 7688   5.519   7.344   1.004  0.1400  0.7830  0.4365
   19CHTO  H184 7689   5.421   7.312   1.037  1.4721  0.9869  0.4967
   19CHTO   O64 7690   5.518   7.455   0.918  0.0183 -0.0449  0.3117
   19CHTO  C104 7691   5.446   7.569   0.980 -0.0761 -0.4604  0.0908
   19CHTO  H191 7692   5.346   7.551   1.018  1.8355 -0.1214 -1.0814
   19CHTO  C108 7693   5.428   7.680   0.874  0.3894  0.5487  0.0232
   19CHTO   O71 7694   5.381   7.644   0.744 -0.0813  0.2370  0.3295
   19CHTO  H171 7695   5.340   7.716   0.694  0.5260  0.7350  0.5559
   19CHTO   O62 7696   5.589   7.245   0.923 -0.1199 -0.4952 -0.2394
   19CHTO   C91 7697   5.504   7.174   0.829 -0.7073 -0.1707  0.0548
   19CHTO  H178 7698   5.402   7.165   0.867  1.9516  2.8708  1.4210
   19CHTO   C92 7699   5.558   7.031   0.827 -0.0774 -0.3105 -0.1993
   19CHTO  H179 7700   5.589   7.007   0.928  1.8270 -0.0931 -0.3435
   19CHTO   O66 7701   5.450   6.938   0.800  0.1951 -0.0609 -0.2452
   19CHTO  H166 7702   5.399   6.974   0.735  0.0626 -1.3866  4.4852
   19CHTO   C93 7703   5.671   6.996   0.724  0.1986 -0.7312 -0.5095
   19CHTO  H180 7704   5.673   6.887   0.711 -1.0235  0.2112 -0.4834
   19CHTO   N16 7705   5.813   7.029   0.775  0.6115 -0.3380  0.9088
   19CHTO  H172 7706   5.882   7.035   0.688  0.6516  1.1051  0.4972
   19CHTO  H173 7707   5.804   7.127   0.828  1.2511  1.0833  0.9958
   19CHTO   C94 7708   5.644   7.070   0.585  0.3307  0.0298  0.1947
   19CHTO  H181 7709   5.718   7.145   0.570  1.4529  0.3473  0.6406
   19CHTO   O61 7710   5.516   7.140   0.577 -0.3355 -0.0360 -0.5588
   19CHTO   C95 7711   5.498   7.235   0.681  0.4959  0.3746 -0.1551
   19CHTO  H182 7712   5.573   7.312   0.668  1.1543 -0.8513 -2.1878
   19CHTO  C106 7713   5.357   7.302   0.650  0.7358  0.1009 -0.8209
   19CHTO   O69 7714   5.355   7.371   0.524 -0.2670  0.5693  0.9503
   19CHTO  H169 7715   5.271   7.403   0.509 -0.4262 -0.3800 -0.1849
   19CHTO   O63 7716   5.661   6.956   0.467 -0.4826 -0.1986 -0.4587
   19CHTO   C96 7717   5.806   6.990   0.373 -0.4678 -0.6375 -0.0918
   19CHTO  H183 7718   5.897   6.997   0.434  1.1449 -0.2712  0.2212
   19CHTO   C98 7719   5.796   7.129   0.300  0.1309  0.0276  0.0557
   19CHTO  H185 7720   5.757   7.209   0.362 -1.7772 -2.2468 -4.0063
   19CHTO   O67 7721   5.928   7.173   0.250 -0.0765 -0.0172  0.8539
   19CHTO  H167 7722   5.954   7.258   0.290  0.3900  2.9489  0.7067
   19CHTO  C102 7723   5.711   7.132   0.167  0.6019 -0.2390  0.5547
   19CHTO  H189 7724   5.731   7.232   0.119 -0.0567 -3.2186  0.1796
   19CHTO   N18 7725   5.569   7.145   0.191 -0.1527 -0.3830  0.3782
   19CHTO  H176 7726   5.538   7.055   0.246 -0.2241 -1.5336 -1.2708
   19CHTO  H177 7727   5.518   7.162   0.097  0.9282  0.9768 -0.3825
   19CHTO  C105 7728   5.751   7.008   0.081 -0.3522 -0.4130 -0.1615
   19CHTO  H192 7729   5.667   6.943   0.066  1.1359  0.6005  1.3628
   19CHTO   O65 7730   5.854   6.926   0.144 -0.0245 -0.2800  0.4398
   19CHTO  C100 7731   5.821   6.876   0.275  0.3455 -0.4007  0.0610
   19CHTO  H187 7732   5.728   6.819   0.273  1.1053  4.3344  1.9610
   19CHTO  C107 7733   5.927   6.781   0.325  0.5258 -0.2975  0.6838
   19CHTO   O70 7734   5.933   6.661   0.243  0.7440  0.2233  0.3526
   19CHTO  H170 7735   5.974   6.593   0.291 -2.8765  3.3060  1.5347
   19CHTO   O57 7736   5.799   7.058  -0.040  0.5845  0.0507  0.5256
   19CHTO   C85 7737   5.770   7.009  -0.172  0.2210 -0.1282  0.2068
   19CHTO  H157 7738   5.684   6.925  -0.170 -1.7679 -0.1114 -0.4002
   19CHTO   C83 7739   5.896   6.921  -0.216 -0.3629  0.3071 -0.3034
   19CHTO  H155 7740   5.908   6.836  -0.146  2.4744  1.1355  2.3798
   19CHTO   O56 7741   6.015   7.006  -0.210  0.3630 -0.0120 -0.2468
   19CHTO  H135 7742   6.083   6.975  -0.270 -0.3869  0.4393  0.3756
   19CHTO   C81 7743   5.864   6.863  -0.357 -0.3937  0.2589 -0.3458
   19CHTO  H153 7744   5.775   6.796  -0.345 -1.0140  0.3355 -1.7323
   19CHTO   N14 7745   5.968   6.767  -0.406  0.5247 -0.5785  0.3522
   19CHTO  H141 7746   6.063   6.798  -0.374 -0.5067  0.6998  1.2971
   19CHTO  H142 7747   5.948   6.667  -0.372  0.2373  2.2584 -0.4096
   19CHTO   C79 7748   5.818   6.972  -0.457  0.0834 -0.0137 -0.7807
   19CHTO  H151 7749   5.776   6.919  -0.541 -1.4536 -1.3638  2.1209
   19CHTO   O52 7750   5.715   7.058  -0.405 -0.2763  0.3734 -0.3655
   19CHTO   C86 7751   5.736   7.117  -0.273  0.4773  0.0810 -0.1226
   19CHTO  H158 7752   5.813   7.188  -0.281 -0.5117 -2.7923 -3.5284
   19CHTO   C90 7753   5.611   7.189  -0.218 -0.4375 -0.2204  0.2408
   19CHTO   O60 7754   5.574   7.280  -0.325  0.2608 -0.0559 -0.2970
   19CHTO  H138 7755   5.606   7.365  -0.314 -0.5023  1.7200  0.0590
   19CHTO   O50 7756   5.918   7.062  -0.512  0.3638  0.1689  0.1215
   19CHTO   C73 7757   5.948   7.147  -0.629  0.7816 -0.1801 -0.8397
   19CHTO  H145 7758   5.958   7.089  -0.718  0.1019 -1.1860  0.0332
   19CHTO   C74 7759   6.077   7.214  -0.590 -0.3553 -0.0420  0.0284
   19CHTO  H146 7760   6.147   7.131  -0.575  1.6883 -1.0475 -0.7132
   19CHTO   O54 7761   6.126   7.288  -0.706 -0.8332 -0.4310 -0.0964
   19CHTO  H133 7762   6.221   7.291  -0.709 -1.3904 -1.0575  0.7558
   19CHTO   C75 7763   6.062   7.307  -0.459  0.2032  0.6926 -0.2137
   19CHTO  H147 7764   6.034   7.250  -0.374  2.2465  1.0217  0.9745
   19CHTO   N13 7765   6.184   7.382  -0.416  0.5855  0.0888 -0.1310
   19CHTO  H139 7766   6.157   7.430  -0.328 -1.9439  1.2878  0.0322
   19CHTO  H140 7767   6.268   7.319  -0.389  0.6381  0.3027  2.4555
   19CHTO   C76 7768   5.937   7.404  -0.482  0.4953  0.6611 -0.0175
   19CHTO  H148 7769   5.964   7.482  -0.565  0.6517 -2.6909 -4.0278
   19CHTO   O49 7770   5.818   7.335  -0.533  0.0017 -0.1500  0.1457
   19CHTO   C77 7771   5.834   7.257  -0.651  0.0940  0.6315 -0.2014
   19CHTO  H149 7772   5.864   7.319  -0.733 -1.6141 -2.5988  1.3757
   19CHTO   C88 7773   5.703   7.197  -0.688  0.0747 -0.1171 -0.0568
   19CHTO   O58 7774   5.692   7.132  -0.824  0.2431 -0.0532 -0.2856
   19CHTO  H136 7775   5.657   7.042  -0.803 -0.7540 -1.9880 -1.0982
   19CHTO   O51 7776   5.893   7.476  -0.352 -0.4041  0.5260  0.9073
   19CHTO   C78 7777   5.874   7.647  -0.386 -0.4557  0.0546  0.3208
   19CHTO  H150 7778   5.901   7.664  -0.492  0.3968 -1.9897  2.1258
   19CHTO   C80 7779   5.967   7.732  -0.296 -0.9532 -0.4543  0.1726
   19CHTO  H152 7780   5.946   7.712  -0.187  0.0708 -0.4673  2.6702
   19CHTO   O55 7781   6.103   7.689  -0.322 -0.0644 -0.0945  0.0526
   19CHTO  H134 7782   6.156   7.674  -0.244  2.3980 -0.0165  1.4545
   19CHTO   C84 7783   5.939   7.885  -0.306 -0.0027  0.1972  0.0468
   19CHTO  H156 7784   5.940   7.909  -0.417 -0.5490 -0.1132 -1.8921
   19CHTO   N15 7785   6.031   7.973  -0.235 -0.1468  0.2643  0.1081
   19CHTO  H143 7786   6.132   7.932  -0.236 -1.3946  0.4571  0.9023
   19CHTO  H144 7787   6.034   8.061  -0.299  1.7239  0.0449 -1.5654
   19CHTO   C87 7788   5.782   7.909  -0.282  0.6078 -0.2660 -0.3505
   19CHTO  H159 7789   5.766   7.880  -0.176 -2.4286  0.8192  1.5745
   19CHTO   O53 7790   5.705   7.819  -0.378  0.0482  0.0689  0.3047
   19CHTO   C82 7791   5.728   7.679  -0.372  0.0276 -0.2146  0.7166
   19CHTO  H154 7792   5.688   7.648  -0.283 -1.9707  2.0655 -1.8275
   19CHTO   C89 7793   5.647   7.608  -0.489  0.8395  0.8902  0.0982
   19CHTO   O59 7794   5.675   7.667  -0.617 -0.1946  0.4313  0.4686
   19CHTO  H137 7795   5.600   7.639  -0.662 -2.3742  0.9087  0.1947
   19CHTO   O45 7796   5.734   8.062  -0.325  0.4108  0.2309 -0.9443
   19CHTO   C67 7797   5.589   8.077  -0.351  0.0783  0.2385  0.1252
   19CHTO  H124 7798   5.558   7.982  -0.397  0.8594  0.7074 -1.8385
   19CHTO   C65 7799   5.512   8.090  -0.213  0.2350 -0.4243  1.3433
   19CHTO  H122 7800   5.581   8.149  -0.163 -1.7202 -0.3825 -0.1105
   19CHTO   O44 7801   5.494   7.956  -0.160  0.1756  0.5219  0.1580
   19CHTO  H102 7802   5.411   7.931  -0.184  1.1901  1.5199  2.2700
   19CHTO   C63 7803   5.383   8.188  -0.227  0.0372 -0.7661  0.1762
   19CHTO  H120 7804   5.419   8.287  -0.243  0.0280 -0.3855 -0.9803
   19CHTO   N11 7805   5.296   8.199  -0.110  0.1356 -0.1161 -0.0615
   19CHTO  H108 7806   5.203   8.158  -0.146  1.0335  2.6852 -4.1699
   19CHTO  H109 7807   5.339   8.138  -0.034 -0.6436  0.8995  0.4713
   19CHTO   C61 7808   5.310   8.160  -0.367 -0.3373 -1.1854 -0.6860
   19CHTO  H118 7809   5.223   8.238  -0.377 -0.5414  0.3663  1.4348
   19CHTO   O40 7810   5.402   8.189  -0.481 -0.5410 -0.1129  0.1034
   19CHTO   C68 7811   5.547   8.190  -0.460 -0.2749 -0.5430  0.5443
   19CHTO  H125 7812   5.590   8.289  -0.434  2.4035 -1.7922 -0.3249
   19CHTO   C72 7813   5.608   8.153  -0.592 -0.1456 -0.4637 -0.3970
   19CHTO   O48 7814   5.588   8.247  -0.701  0.0115  0.1914 -0.7739
   19CHTO  H105 7815   5.586   8.209  -0.784 -1.8410 -1.7655 -3.3954
   19CHTO   O38 7816   5.269   8.023  -0.376 -0.2179 -0.1565 -0.1682
   19CHTO   C55 7817   5.178   7.982  -0.482 -0.2837 -0.2333  0.1421
   19CHTO  H112 7818   5.183   8.052  -0.568  1.9071  2.5183  1.3255
   19CHTO   C56 7819   5.035   7.983  -0.413 -0.2296 -0.0026  0.1955
   19CHTO  H113 7820   5.038   7.923  -0.321  1.8095 -0.5611 -1.4038
   19CHTO   O42 7821   5.020   8.124  -0.376  0.6089 -0.1425 -0.1220
   19CHTO  H100 7822   5.063   8.193  -0.424 -0.8687  0.1546 -0.7504
   19CHTO   C57 7823   4.927   7.933  -0.521  0.2718 -0.7634  0.2886
   19CHTO  H114 7824   4.918   8.004  -0.605  0.4152 -0.0342 -1.9375
   19CHTO   N10 7825   4.801   7.923  -0.452  0.0895 -0.3897  0.4033
   19CHTO  H106 7826   4.755   8.021  -0.441  0.8925  1.9227 -4.8380
   19CHTO  H107 7827   4.797   7.864  -0.358  0.7657 -2.0658 -1.6135
   19CHTO   C58 7828   4.975   7.796  -0.577 -0.7479 -0.9988 -0.0464
   19CHTO  H115 7829   4.984   7.729  -0.488 -1.2390  2.4879 -1.6130
   19CHTO   O37 7830   5.106   7.812  -0.641 -0.7939  0.9624  0.2595
   19CHTO   C59 7831   5.215   7.842  -0.547  0.0113  0.2084  0.1249
   19CHTO  H116 7832   5.212   7.768  -0.462  1.2513  1.2655  1.2905
   19CHTO   C70 7833   5.352   7.837  -0.625 -0.2974 -0.5677  0.6871
   19CHTO   O46 7834   5.349   7.910  -0.743  0.8389  0.1694  0.2247
   19CHTO  H103 7835   5.391   7.853  -0.798 -1.3314 -0.3982  4.3487
   19CHTO   O39 7836   4.873   7.734  -0.691 -0.1150  0.0751  0.4206
   19CHTO   C60 7837   4.925   7.614  -0.751 -0.0695 -0.0862 -0.3807
   19CHTO  H117 7838   5.031   7.614  -0.744  0.6305  0.3903 -2.6143
   19CHTO   C62 7839   4.871   7.487  -0.683 -0.0717  0.0252 -0.8944
   19CHTO  H119 7840   4.924   7.492  -0.585  1.0646  1.0574 -0.2869
   19CHTO   O43 7841   4.730   7.504  -0.665 -0.1329  0.3352  0.1275
   19CHTO  H101 7842   4.697   7.537  -0.748  0.9218 -0.5023 -1.0309
   19CHTO   C66 7843   4.913   7.356  -0.760  0.7937 -0.0403  0.5412
   19CHTO  H123 7844   5.018   7.347  -0.755 -0.0767 -1.1089  1.9883
   19CHTO   N12 7845   4.872   7.230  -0.695  0.4248  0.0633 -0.0305
   19CHTO  H110 7846   4.845   7.234  -0.590 -0.6536  0.3175  1.6266
   19CHTO  H111 7847   4.923   7.141  -0.736 -0.6984  4.1253 -2.0388
   19CHTO   C69 7848   4.861   7.365  -0.905  0.5980  0.6461  0.0201
   19CHTO  H126 7849   4.749   7.369  -0.895 -0.5874 -3.8096  2.9010
   19CHTO   O41 7850   4.927   7.487  -0.968 -0.4042  0.2150 -0.3358
   19CHTO   C64 7851   4.890   7.609  -0.906 -0.4076 -0.9552  0.5554
   19CHTO  H121 7852   4.780   7.616  -0.914  0.1932 -0.4929 -0.8071
   19CHTO   C71 7853   4.960   7.721  -0.988 -0.3201 -0.0843  0.1002
   19CHTO   O47 7854   4.901   7.727  -1.122  0.0893  0.1253  0.3798
   19CHTO  H104 7855   4.819   7.776  -1.120 -0.3955 -1.7614  1.1837
   19CHTO   O34 7856   4.899   7.234  -0.981  0.2600 -0.5713 -0.3494
   19CHTO   C49 7857   4.963   7.156  -1.103  0.6086  0.2520 -0.1523
   19CHTO   H91 7858   4.885   7.118  -1.170 -0.0624 -0.4673  0.1702
   19CHTO   C47 7859   5.042   7.036  -1.046 -0.6894 -0.4521  0.2282
   19CHTO   H89 7860   5.055   6.966  -1.127  1.8087  0.7622 -0.8212
   19CHTO   O33 7861   4.967   6.973  -0.943 -0.0647 -0.5399 -0.2077
   19CHTO   H70 7862   4.972   6.882  -0.961  0.5903  0.0064  0.4232
   19CHTO   C45 7863   5.185   7.090  -0.974  0.7895  0.0806  0.4346
   19CHTO   H87 7864   5.168   7.088  -0.866  2.3483  0.0925  0.9134
   19CHTO    N8 7865   5.290   6.989  -1.004  0.4735 -0.1155 -0.4739
   19CHTO   H75 7866   5.271   6.889  -0.977 -1.6480  1.1787 -1.3345
   19CHTO   H76 7867   5.328   6.990  -1.108  2.3586 -1.4746 -1.8595
   19CHTO   C43 7868   5.221   7.239  -1.017 -0.5214 -0.2904  0.2571
   19CHTO   H85 7869   5.148   7.291  -0.957 -1.1026  1.0726 -0.6658
   19CHTO   O29 7870   5.194   7.250  -1.156  0.2671  0.3490  0.0518
   19CHTO   C50 7871   5.058   7.242  -1.191 -0.4998  0.2965  0.1176
   19CHTO   H92 7872   5.016   7.340  -1.179  0.0615 -1.0466  0.7208
   19CHTO   C54 7873   5.055   7.211  -1.349  0.0479  0.4425 -0.5738
   19CHTO   O36 7874   5.116   7.310  -1.428  0.0068 -0.2971 -0.5372
   19CHTO   H72 7875   5.121   7.393  -1.387 -2.3216  0.4107 -3.3455
   19CHTO   O27 7876   5.355   7.283  -0.968  0.2496 -0.1232  0.7409
   19CHTO   C37 7877   5.478   7.353  -0.955 -0.1560 -0.6776  0.5920
   19CHTO   H79 7878   5.527   7.303  -0.880 -0.1660  1.1128  2.8450
   19CHTO   C38 7879   5.565   7.349  -1.088  0.0528  0.4579 -0.3742
   19CHTO   H80 7880   5.510   7.404  -1.166  0.9034  2.5230  2.3542
   19CHTO   O31 7881   5.588   7.210  -1.127 -1.1249 -0.2480  0.0103
   19CHTO   H68 7882   5.637   7.207  -1.205  1.4171  0.2897  2.8084
   19CHTO   C39 7883   5.692   7.428  -1.060  0.5913  0.6072  0.1368
   19CHTO   H81 7884   5.750   7.364  -0.987 -3.6303 -0.1812 -3.3418
   19CHTO    N7 7885   5.787   7.450  -1.180  0.4281 -0.2488  0.1415
   19CHTO   H73 7886   5.819   7.352  -1.219  0.0783 -3.1114  3.8640
   19CHTO   H74 7887   5.867   7.517  -1.157 -2.1242  0.3485 -0.9250
   19CHTO   C40 7888   5.662   7.565  -0.991 -0.0637  0.2158  0.5128
   19CHTO   H82 7889   5.645   7.639  -1.070  2.0431 -1.5826  2.7388
   19CHTO   O26 7890   5.559   7.565  -0.889 -0.3832 -0.9930  0.1273
   19CHTO   C41 7891   5.441   7.497  -0.917 -0.0515  0.1200  1.0036
   19CHTO   H83 7892   5.400   7.556  -1.002 -0.6863  1.3935 -1.1746
   19CHTO   C52 7893   5.356   7.518  -0.791  0.5225 -0.4066 -0.4538
   19CHTO   O35 7894   5.227   7.486  -0.799 -0.5341 -0.0715 -0.4068
   19CHTO   H71 7895   5.183   7.565  -0.821  0.3851  2.1031 -1.0039
   19CHTO   O28 7896   5.782   7.588  -0.912  0.6754 -0.5648  0.6239
   19CHTO   C42 7897   5.884   7.694  -0.944  0.0676 -0.0983  0.0305
   19CHTO   H84 7898   5.887   7.705  -1.047  1.1319  0.2981  0.6869
   19CHTO   C44 7899   6.022   7.646  -0.897  0.1485  0.2207  0.5277
   19CHTO   H86 7900   6.014   7.636  -0.788  0.1934  1.6328  0.4737
   19CHTO   O32 7901   6.043   7.512  -0.949  0.1024 -0.1871  0.2582
   19CHTO   H69 7902   6.090   7.520  -1.028 -2.5338 -0.0959  0.5002
   19CHTO   C48 7903   6.140   7.756  -0.929  0.2710 -0.5625 -0.1725
   19CHTO   H90 7904   6.164   7.753  -1.032  1.9005 -1.0960 -0.8724
   19CHTO    N9 7905   6.265   7.710  -0.866 -0.1898  0.6222  0.0094
   19CHTO   H77 7906   6.337   7.794  -0.857  0.1718  1.0705 -0.5480
   19CHTO   H78 7907   6.305   7.625  -0.921 -2.8617 -1.4189 -0.2656
   19CHTO   C51 7908   6.095   7.904  -0.880 -0.4278 -0.7299 -0.0466
   19CHTO   H93 7909   6.104   7.900  -0.776  0.7562 -0.8765 -1.3144
   19CHTO   O30 7910   5.958   7.932  -0.922  0.4778 -0.6065 -0.0328
   19CHTO   C46 7911   5.851   7.836  -0.883  0.3815 -0.3248  0.2178
   19CHTO   H88 7912   5.839   7.826  -0.773  1.2364 -0.4806  0.6173
   19CHTO   C53 7913   5.716   7.890  -0.944  0.1754  0.1862  0.3789
   19CHTO   O72 7914   5.700   8.032  -0.961 -0.0718 -0.5668 -0.0512
   19CHTO  H199 7915   5.612   8.064  -0.942 -2.0219  0.5433 -0.0189
   19CHTO   O22 7916   6.179   8.003  -0.927  0.5089 -0.2094 -0.8055
   19CHTO   C31 7917   6.275   8.097  -0.872 -0.0528  0.5623 -0.4638
   19CHTO   H59 7918   6.289   8.170  -0.949 -0.6555 -0.8345  0.9007
   19CHTO   C29 7919   6.222   8.169  -0.746  0.6841 -0.2189  0.4036
   19CHTO   H57 7920   6.207   8.095  -0.669  0.7718 -0.4740  1.0916
   19CHTO   O21 7921   6.095   8.229  -0.770  0.2481 -0.1600  0.5451
   19CHTO   H37 7922   6.043   8.249  -0.690  0.1654  0.4906 -0.0170
   19CHTO   C27 7923   6.327   8.277  -0.697  0.3004  0.1651 -0.4360
   19CHTO   H55 7924   6.334   8.357  -0.774  2.4485  1.5479  0.9228
   19CHTO    N5 7925   6.284   8.341  -0.570 -0.2622  0.1790 -0.1856
   19CHTO   H43 7926   6.296   8.452  -0.575  0.7978  0.7028 -2.9892
   19CHTO   H44 7927   6.184   8.310  -0.553 -0.1822  0.6629 -0.6727
   19CHTO   C25 7928   6.463   8.201  -0.685 -0.2615 -0.2550  0.1907
   19CHTO   H53 7929   6.475   8.132  -0.596 -0.0562 -2.1916 -1.0867
   19CHTO   O17 7930   6.508   8.135  -0.794  0.0838 -0.4823 -0.2593
   19CHTO   C32 7931   6.421   8.036  -0.846  0.4432  0.7265  0.2745
   19CHTO   H60 7932   6.413   7.953  -0.772 -0.1359  0.3894 -1.6731
   19CHTO   C36 7933   6.472   7.977  -0.977  0.4506  0.7312  0.3533
   19CHTO   O25 7934   6.594   7.916  -0.952  0.0899  0.2344  0.1581
   19CHTO   H40 7935   6.566   7.841  -0.900  0.0049 -3.2113  0.7265
   19CHTO   O15 7936   6.583   8.321  -0.677  0.1006 -0.1145 -0.1311
   19CHTO   C19 7937   6.712   8.285  -0.628  0.3226 -0.3182  0.6128
   19CHTO   H47 7938   6.757   8.381  -0.622  0.6590  0.3192 -0.0779
   19CHTO   C20 7939   6.725   8.239  -0.481  0.6053  0.1823 -0.1245
   19CHTO   H48 7940   6.665   8.146  -0.469 -0.7398 -1.5827  0.4954
   19CHTO   O19 7941   6.674   8.349  -0.406 -0.2819  0.5355  0.2109
   19CHTO   H35 7942   6.613   8.318  -0.340 -2.7138 -1.2560  2.6465
   19CHTO   C21 7943   6.870   8.198  -0.430 -0.7234  0.3960 -0.4588
   19CHTO   H49 7944   6.932   8.284  -0.431 -0.3279  1.3821  2.2909
   19CHTO    N4 7945   6.870   8.147  -0.295  0.1502 -0.0280  0.7635
   19CHTO   H41 7946   6.813   8.214  -0.235 -0.2275 -0.5967 -1.3521
   19CHTO   H42 7947   6.974   8.138  -0.264  4.1050 -0.5885  2.2112
   19CHTO   C22 7948   6.944   8.107  -0.533  0.3034 -0.5416 -0.3674
   19CHTO   H50 7949   6.901   8.009  -0.544  1.8575  0.8343 -0.4135
   19CHTO   O14 7950   6.938   8.185  -0.658  0.3058 -0.2794 -0.8157
   19CHTO   C23 7951   6.812   8.208  -0.722  0.1799  0.5617  0.8286
   19CHTO   H51 7952   6.772   8.101  -0.740 -0.3267 -1.2126  0.7970
   19CHTO   C34 7953   6.826   8.271  -0.860 -0.0145  0.1431  0.6453
   19CHTO   O23 7954   6.894   8.179  -0.939  0.3975 -0.2868  0.2838
   19CHTO   H38 7955   6.858   8.186  -1.025 -0.0444 -0.4566 -0.4863
   19CHTO   O16 7956   7.085   8.089  -0.497  0.0499  0.5077 -0.6365
   19CHTO   C24 7957   7.184   7.978  -0.566 -0.7416  0.6396  0.5790
   19CHTO   H52 7958   7.290   7.995  -0.539 -0.1470  0.9304 -0.0885
   19CHTO   C26 7959   7.174   7.987  -0.722 -0.3873  0.8106 -0.0471
   19CHTO   H54 7960   7.074   7.974  -0.747  3.2909 -0.5443  4.2632
   19CHTO   O20 7961   7.220   8.119  -0.765  0.2872  0.1798  0.1023
   19CHTO   H36 7962   7.168   8.184  -0.720 -1.7001  0.2687 -1.3153
   19CHTO   C30 7963   7.250   7.867  -0.793 -0.1188  0.2290 -0.1970
   19CHTO   H58 7964   7.358   7.878  -0.789 -2.0775 -0.4009  0.4460
   19CHTO    N6 7965   7.221   7.858  -0.944 -0.1119  0.2124 -0.4362
   19CHTO   H45 7966   7.266   7.777  -1.005 -1.0262  0.0538 -1.0811
   19CHTO   H46 7967   7.234   7.950  -0.999 -3.1154 -0.4555  0.6800
   19CHTO   C33 7968   7.219   7.729  -0.728 -0.2603  0.0858 -0.3493
   19CHTO   H61 7969   7.115   7.697  -0.759  2.2474 -3.6882 -2.3947
   19CHTO   O18 7970   7.224   7.733  -0.584  0.2832  0.2054 -0.2069
   19CHTO   C28 7971   7.143   7.832  -0.517 -0.4479 -0.2974 -0.1855
   19CHTO   H56 7972   7.040   7.821  -0.541  3.3543 -1.5293  1.8703
   19CHTO   C35 7973   7.177   7.809  -0.366 -0.3698  0.2353  0.4238
   19CHTO   O24 7974   7.124   7.697  -0.303 -0.3121  0.6575 -0.1495
   19CHTO   H39 7975   7.118   7.710  -0.208 -2.1669 -0.7010  1.3474
   19CHTO    O9 7976   7.305   7.625  -0.780 -0.3086  0.3805 -0.1140
   19CHTO   C13 7977   7.333   7.504  -0.686 -0.3577 -0.4286 -0.1629
   19CHTO   H26 7978   7.241   7.479  -0.628  1.5051  2.5664  1.6224
   19CHTO   C11 7979   7.456   7.530  -0.599 -0.0615  0.0901  0.4422
   19CHTO   H24 7980   7.444   7.617  -0.536 -2.8205 -1.4149 -0.3031
   19CHTO    O8 7981   7.559   7.567  -0.687  0.1746  0.1583  0.1998
   19CHTO    H3 7982   7.636   7.587  -0.634  2.0064  0.4455  0.7297
   19CHTO    C9 7983   7.479   7.398  -0.519  0.1382  0.4072 -0.2207
   19CHTO   H22 7984   7.383   7.382  -0.470  0.0004 -2.0001 -1.1653
   19CHTO    N2 7985   7.574   7.416  -0.407 -0.6764  0.4184 -0.1417
   19CHTO   H10 7986   7.675   7.386  -0.431  0.9007 -0.2371 -0.5683
   19CHTO   H11 7987   7.548   7.370  -0.317 -1.4124  0.7530  1.3879
   19CHTO    C7 7988   7.500   7.275  -0.616  0.2631  0.2027  0.0516
   19CHTO   H20 7989   7.441   7.189  -0.568 -2.2752  1.3193  1.2911
   19CHTO    O4 7990   7.463   7.299  -0.753 -0.1669 -0.6822 -0.1037
   19CHTO   C14 7991   7.342   7.369  -0.780 -0.0851 -0.1076  0.7124
   19CHTO   H27 7992   7.245   7.311  -0.738 -1.9771 -1.3606 -1.4323
   19CHTO   C18 7993   7.322   7.382  -0.931 -0.2944  0.0794  0.0593
   19CHTO   O13 7994   7.408   7.478  -0.996  0.4153 -0.0953  0.1209
   19CHTO    H7 7995   7.498   7.443  -1.008  3.0494 -1.8212 -0.5460
   19CHTO    O2 7996   7.667   7.237  -0.612 -0.2037  0.4067  0.6688
   19CHTO    C1 7997   7.685   7.096  -0.593  0.5065 -0.2310 -0.0638
   19CHTO   H14 7998   7.587   7.035  -0.575  4.1938  0.2027  0.0606
   19CHTO    C2 7999   7.776   7.081  -0.468 -0.2015  0.4824 -0.1099
   19CHTO   H15 8000   7.869   7.136  -0.488  0.9886  0.0852  2.5246
   19CHTO    O6 8001   7.705   7.124  -0.349  0.0516  0.3479  0.4145
   19CHTO    H1 8002   7.726   7.216  -0.329 -0.2752  3.1575 -0.3618
   19CHTO    C3 8003   7.813   6.923  -0.457  0.4138  0.3418  0.1713
   19CHTO   H16 8004   7.726   6.878  -0.407 -1.1537 -2.2232  2.2265
   19CHTO    N1 8005   7.922   6.903  -0.359 -0.3602  0.7499 -0.1601
   19CHTO    H8 8006   7.884   6.955  -0.273  0.8933 -0.5132  1.2526
   19CHTO    H9 8007   7.929   6.793  -0.344 -0.5590 -0.6097  0.9646
   19CHTO    C4 8008   7.832   6.845  -0.591 -0.3626 -0.2352 -0.0720
   19CHTO   H17 8009   7.937   6.857  -0.630  0.8587  0.1037 -1.2346
   19CHTO    O1 8010   7.740   6.888  -0.694  0.4803  0.0807  0.1200
   19CHTO    C5 8011   7.756   7.028  -0.715  0.4570  0.1518  0.6676
   19CHTO   H18 8012   7.858   7.046  -0.711  0.5729  2.8038 -1.5842
   19CHTO   C16 8013   7.697   7.062  -0.861 -0.2316  0.0144 -0.7699
   19CHTO   O11 8014   7.784   7.011  -0.961  0.1042 -0.4363 -0.1399
   19CHTO    H5 8015   7.861   7.063  -0.971  2.8415 -2.4911  4.4849
   19CHTO    O3 8016   7.804   6.702  -0.569  0.2369  0.5595 -0.5042
   19CHTO    C6 8017   7.910   6.605  -0.559  0.1277  0.5708  0.1527
   19CHTO   H19 8018   8.004   6.653  -0.539  1.2877 -0.1962  0.5877
   19CHTO    C8 8019   7.886   6.495  -0.451 -0.9997  0.1730 -0.2059
   19CHTO   H21 8020   7.786   6.464  -0.455 -0.8236 -1.3629  0.3794
   19CHTO    O7 8021   7.912   6.553  -0.319  0.5275 -0.5658 -0.5282
   19CHTO    H2 8022   7.841   6.614  -0.302 -0.4661  4.0923  0.1414
   19CHTO   C12 8023   7.978   6.367  -0.470  1.6239  0.7386 -0.3558
   19CHTO   H25 8024   8.072   6.405  -0.445  3.5257 -2.1809  0.8047
   19CHTO    N3 8025   7.944   6.256  -0.380 -0.4617 -0.1619 -0.3923
   19CHTO   H12 8026   8.006   6.248  -0.296  0.9419  0.2317 -2.7518
   19CHTO   H13 8027   7.956   6.161  -0.428 -1.3980 -0.7653 -0.3598
   19CHTO   C15 8028   7.981   6.326  -0.620  0.0415  0.0860  0.2507
   19CHTO   H28 8029   7.883   6.286  -0.657 -0.2503 -0.4373 -1.6074
   19CHTO   O10 8030   8.101   6.198  -0.634  0.1636  0.6868 -0.0213
   19CHTO    H4 8031   8.063   6.113  -0.645 -1.5041  2.9322  0.2873
   19CHTO    O5 8032   8.022   6.434  -0.706 -0.2877 -0.1945  0.4240
   19CHTO   C10 8033   7.920   6.535  -0.702 -0.4570 -0.2673  0.3438
   19CHTO   H23 8034   7.822   6.492  -0.717  0.5093 -1.3977 -0.6300
   19CHTO   C17 8035   7.955   6.631  -0.810  0.2812  0.1208  0.0116
   19CHTO   O12 8036   7.899   6.588  -0.933  0.5845 -0.3462  0.0613
   19CHTO    H6 8037   7.953   6.606  -1.012  0.7072 -1.1334 -5.1127
   20CHTO  H203 8038   6.397   1.015   8.282  2.1769 -2.0959  0.2772
   20CHTO   O82 8039   6.389   1.030   8.190  0.4274  0.5410  0.3416
   20CHTO  C123 8040   6.252   1.059   8.166 -0.0591  0.1226 -0.7274
   20CHTO  H227 8041   6.196   0.966   8.182 -1.4655  0.1335 -3.7394
   20CHTO   O77 8042   6.219   1.156   8.272  0.1035 -0.6188 -0.6092
   20CHTO  C118 8043   6.087   1.216   8.253 -0.3160  0.7122  0.0121
   20CHTO  H222 8044   6.012   1.144   8.240 -1.2519 -0.3726  0.1659
   20CHTO  C125 8045   6.059   1.293   8.388  0.1451 -0.1082 -0.0350
   20CHTO   O84 8046   6.023   1.195   8.483  0.0881 -0.3090  0.1063
   20CHTO  H205 8047   6.046   1.230   8.570 -4.0609  1.8057  2.2287
   20CHTO  C114 8048   6.080   1.302   8.125 -0.4305  0.7533  0.6800
   20CHTO  H218 8049   6.166   1.370   8.127  2.8126 -0.2231  4.4774
   20CHTO  C116 8050   6.105   1.211   7.999 -0.6206 -0.4641 -0.1581
   20CHTO  H220 8051   6.019   1.147   7.990 -0.2034  2.3643 -0.1292
   20CHTO   O79 8052   6.111   1.290   7.881  0.1674 -0.0280  0.6264
   20CHTO  H201 8053   6.024   1.325   7.876  1.8249 -0.7554 -2.1034
   20CHTO  C120 8054   6.237   1.126   8.022 -0.2950 -0.0289  0.0888
   20CHTO  H224 8055   6.324   1.194   7.999  1.7885  1.0222 -0.6531
   20CHTO   N21 8056   6.240   1.011   7.923 -0.1998 -0.0824  0.2171
   20CHTO  H211 8057   6.334   0.972   7.908 -0.6604  1.4548 -0.0983
   20CHTO  H212 8058   6.175   0.937   7.949 -1.9103  1.1304  3.8805
   20CHTO   O75 8059   5.954   1.370   8.123 -0.0916  0.2781 -0.3976
   20CHTO  C112 8060   5.939   1.521   8.156 -0.0661  1.3554 -0.6955
   20CHTO  H216 8061   6.019   1.544   8.219 -1.8499 -2.5975  0.0549
   20CHTO   O73 8062   5.812   1.534   8.225 -0.4235  0.0801  0.3332
   20CHTO  C113 8063   5.779   1.668   8.273 -1.1380  0.0794 -0.2120
   20CHTO  H217 8064   5.848   1.720   8.349  1.6738  0.4581  0.8069
   20CHTO  C124 8065   5.644   1.640   8.347 -0.2290 -0.1180 -0.4223
   20CHTO   O83 8066   5.589   1.753   8.407  0.2369  0.2013  0.2523
   20CHTO  H204 8067   5.640   1.782   8.484  0.8917  3.9814  0.0261
   20CHTO  C109 8068   5.767   1.763   8.145 -0.9945  0.0116 -0.0072
   20CHTO  H213 8069   5.689   1.721   8.078 -0.4575  0.2995 -3.3451
   20CHTO  C110 8070   5.894   1.751   8.046  0.3448 -0.6826  0.1729
   20CHTO  H214 8071   5.973   1.804   8.099  1.1580  1.1195 -1.0118
   20CHTO   O78 8072   5.866   1.828   7.926  0.0949 -0.6860 -0.8410
   20CHTO  H200 8073   5.938   1.831   7.857 -0.9037  2.2303 -0.8627
   20CHTO  C111 8074   5.937   1.605   8.020 -0.6834 -0.5180  0.7980
   20CHTO  H215 8075   5.867   1.563   7.948  0.4580  1.4517  1.0258
   20CHTO   N19 8076   6.070   1.602   7.954 -0.7381  0.4133  0.2561
   20CHTO  H207 8077   6.062   1.648   7.857  3.0180  0.5289 -0.5532
   20CHTO  H208 8078   6.148   1.644   8.017 -1.3814 -0.5106  0.3251
   20CHTO   O74 8079   5.734   1.899   8.184  0.1568  0.1700 -0.1805
   20CHTO  C115 8080   5.605   1.957   8.140 -0.5886  0.1874 -0.7869
   20CHTO  H219 8081   5.546   1.878   8.084 -1.1387  1.6835  1.5563
   20CHTO   O76 8082   5.518   1.992   8.259 -0.1974 -0.4492 -0.4872
   20CHTO  C122 8083   5.587   2.079   8.348 -0.2471 -0.1240  0.2910
   20CHTO  H226 8084   5.656   2.014   8.400  0.6023 -0.9195  0.3441
   20CHTO  C126 8085   5.473   2.122   8.448  0.1905  0.7567 -0.0798
   20CHTO   O85 8086   5.533   2.150   8.572 -0.3460 -0.0781  0.0253
   20CHTO  H206 8087   5.471   2.186   8.630  0.5780  1.9354 -0.0014
   20CHTO  C121 8088   5.662   2.195   8.274  0.2554  0.0738 -0.0164
   20CHTO  H225 8089   5.646   2.292   8.328 -0.5343  0.0833  2.6687
   20CHTO   O81 8090   5.802   2.160   8.285 -0.3326 -0.2684 -0.2860
   20CHTO  H202 8091   5.826   2.160   8.375  1.0992 -0.4747  1.0720
   20CHTO  C119 8092   5.618   2.209   8.126 -0.1663  0.4887 -0.5248
   20CHTO  H223 8093   5.511   2.246   8.135 -1.2666  3.3481  1.4912
   20CHTO  C117 8094   5.633   2.075   8.044 -1.3933  0.2449 -0.3896
   20CHTO  H221 8095   5.735   2.058   8.001 -0.8775  2.3540 -2.1485
   20CHTO   N20 8096   5.544   2.072   7.927  0.2404  0.5688 -0.1874
   20CHTO  H209 8097   5.509   1.979   7.904 -0.1039  2.2876 -0.1022
   20CHTO  H210 8098   5.591   2.113   7.838  1.7642 -1.9907  1.3041
   20CHTO   O80 8099   5.681   2.328   8.050  0.0108  0.4404 -0.0727
   20CHTO  C103 8100   5.613   2.454   8.031 -0.3807  0.2898 -0.0498
   20CHTO  H190 8101   5.508   2.439   8.031  2.5677 -1.8918 -0.1573
   20CHTO  C101 8102   5.657   2.564   8.133  0.0751 -0.6911  0.1505
   20CHTO  H188 8103   5.765   2.554   8.147  0.6607  0.9063  0.4824
   20CHTO   O68 8104   5.590   2.538   8.274 -0.0104 -0.5231  0.3266
   20CHTO  H168 8105   5.502   2.568   8.272 -0.7301 -3.2798  1.7399
   20CHTO   C99 8106   5.640   2.714   8.088  0.1375  0.1309  0.3727
   20CHTO  H186 8107   5.522   2.731   8.085  1.0490 -0.8712 -2.6087
   20CHTO   N17 8108   5.712   2.816   8.173  0.5180  0.1816 -0.0048
   20CHTO  H174 8109   5.680   2.909   8.131 -2.7282 -2.2972 -0.4036
   20CHTO  H175 8110   5.819   2.793   8.175  3.2430 -0.1754  2.4208
   20CHTO   C97 8111   5.679   2.732   7.936  0.0760 -0.7041  0.4534
   20CHTO  H184 8112   5.784   2.728   7.929 -2.4462  1.2045 -2.7608
   20CHTO   O64 8113   5.613   2.630   7.850 -0.0679  0.2102  0.6430
   20CHTO  C104 8114   5.659   2.494   7.881  0.7138 -0.4776  0.2358
   20CHTO  H191 8115   5.766   2.484   7.877 -2.6505  0.2012  1.7291
   20CHTO  C108 8116   5.607   2.410   7.760 -0.5246  0.6315 -0.0983
   20CHTO   O71 8117   5.468   2.377   7.785 -0.6398  0.0784 -0.4690
   20CHTO  H171 8118   5.403   2.432   7.745 -2.1426 -0.1225 -3.9359
   20CHTO   O62 8119   5.625   2.855   7.875  0.3309 -0.5126 -0.9488
   20CHTO   C91 8120   5.716   2.918   7.785  0.3941  0.1277 -0.6203
   20CHTO  H178 8121   5.805   2.854   7.762  1.4062  0.0443 -2.9853
   20CHTO   C92 8122   5.772   3.052   7.838 -0.3127 -0.0852 -0.2188
   20CHTO  H179 8123   5.691   3.116   7.870 -0.8650  0.3823  0.7542
   20CHTO   O66 8124   5.858   3.027   7.952  0.2503 -0.6374  0.1042
   20CHTO  H166 8125   5.952   3.028   7.937  1.5018 -2.3803 -0.9269
   20CHTO   C93 8126   5.866   3.130   7.741 -0.1195 -0.6212 -0.9481
   20CHTO  H180 8127   5.964   3.076   7.740  2.3834 -1.1232  1.4561
   20CHTO   N16 8128   5.898   3.273   7.780  0.4602  0.2122 -0.5626
   20CHTO  H172 8129   5.895   3.279   7.893  0.6096 -3.2350  0.2426
   20CHTO  H173 8130   5.998   3.291   7.740 -1.4006 -0.4267  1.2584
   20CHTO   C94 8131   5.805   3.130   7.600  0.1507  0.2697 -0.1019
   20CHTO  H181 8132   5.725   3.200   7.592  2.5606  4.1804 -0.5608
   20CHTO   O61 8133   5.766   2.996   7.565  0.0815  0.1624 -0.4415
   20CHTO   C95 8134   5.656   2.942   7.640 -0.8805 -0.4645  0.1975
   20CHTO  H182 8135   5.579   3.015   7.644  0.9638 -1.7880  1.0541
   20CHTO  C106 8136   5.607   2.812   7.570 -0.2420 -1.1771  0.1971
   20CHTO   O69 8137   5.711   2.713   7.566  0.3614 -0.0081 -0.0394
   20CHTO  H169 8138   5.779   2.713   7.629  0.9597  3.3821  0.0431
   20CHTO   O63 8139   5.904   3.160   7.484  0.6533  0.3049 -0.7877
   20CHTO   C96 8140   5.814   3.219   7.354 -0.0462 -0.0226  0.7064
   20CHTO  H183 8141   5.730   3.258   7.395  3.3132  0.8746 -1.4426
   20CHTO   C98 8142   5.759   3.106   7.258  0.7852  0.2725  0.2561
   20CHTO  H185 8143   5.717   3.023   7.309  0.6807 -1.1553  2.6073
   20CHTO   O67 8144   5.650   3.169   7.188 -0.3914  0.1587 -0.5715
   20CHTO  H167 8145   5.566   3.145   7.228 -1.5421  2.4320  0.8852
   20CHTO  C102 8146   5.866   3.059   7.155 -0.4224 -0.6398 -0.1903
   20CHTO  H189 8147   5.825   3.006   7.071  2.2688  2.9908 -1.5030
   20CHTO   N18 8148   5.962   2.961   7.206  0.0015  0.5509  0.1121
   20CHTO  H176 8149   5.979   2.970   7.315 -1.6932  0.5037 -0.8442
   20CHTO  H177 8150   5.931   2.859   7.181  2.9855 -2.6245  0.5046
   20CHTO  C105 8151   5.947   3.182   7.094  0.6868  0.7071 -0.4275
   20CHTO  H192 8152   6.049   3.179   7.127  0.1945 -1.0469  0.7693
   20CHTO   O65 8153   5.910   3.318   7.132 -0.3392  0.1629 -0.3554
   20CHTO  C100 8154   5.895   3.334   7.276 -0.3084  0.5604 -0.1642
   20CHTO  H187 8155   5.999   3.332   7.313 -0.4107 -0.2648  1.2682
   20CHTO  C107 8156   5.836   3.477   7.309  1.0057 -0.2522 -0.3736
   20CHTO   O70 8157   5.854   3.502   7.447  0.0681  0.8828 -0.0823
   20CHTO  H170 8158   5.946   3.521   7.466  1.4902  0.8125 -0.9989
   20CHTO   O57 8159   5.942   3.151   6.929  0.1809 -0.2998  0.1665
   20CHTO   C85 8160   5.836   3.189   6.841  0.0089 -0.4738 -0.2413
   20CHTO  H157 8161   5.797   3.285   6.874 -1.3417  1.8111  1.6669
   20CHTO   C83 8162   5.718   3.088   6.855  0.0596  0.5877  0.0037
   20CHTO  H155 8163   5.686   3.093   6.961 -1.4720  0.6115  0.9483
   20CHTO   O56 8164   5.765   2.953   6.839  0.0670 -0.2536 -0.3735
   20CHTO  H135 8165   5.695   2.891   6.848 -0.4441  1.4745 -1.5189
   20CHTO   C81 8166   5.603   3.134   6.763  0.6663  0.3681  0.3037
   20CHTO  H153 8167   5.567   3.230   6.794 -2.2788  2.1859  0.1991
   20CHTO   N14 8168   5.475   3.056   6.782  0.1754  0.1381 -0.2914
   20CHTO  H141 8169   5.463   2.962   6.744  0.9950  1.2956  1.8801
   20CHTO  H142 8170   5.444   3.056   6.891 -0.8938  1.3107  1.1596
   20CHTO   C79 8171   5.650   3.138   6.611  0.2406 -0.2764 -0.3353
   20CHTO  H151 8172   5.572   3.189   6.556  0.5750 -0.0910 -0.9665
   20CHTO   O52 8173   5.765   3.224   6.594  0.7996 -0.1392  0.0844
   20CHTO   C86 8174   5.876   3.195   6.690 -0.5352 -0.0497  0.2335
   20CHTO  H158 8175   5.917   3.099   6.654 -1.7968  0.8140  1.7237
   20CHTO   C90 8176   5.991   3.297   6.659 -0.2304  0.8713  0.1170
   20CHTO   O60 8177   5.949   3.436   6.657  0.1741  0.1173  0.6241
   20CHTO  H138 8178   5.987   3.484   6.585  0.6743 -0.5213  0.0613
   20CHTO   O50 8179   5.680   3.011   6.560  0.2224 -0.0975  0.9678
   20CHTO   C73 8180   5.698   2.963   6.426 -0.4645 -0.0458 -0.4973
   20CHTO  H145 8181   5.783   3.016   6.374 -0.6133 -1.2047 -0.4266
   20CHTO   C74 8182   5.561   2.982   6.345 -0.2540 -0.4008  0.5715
   20CHTO  H146 8183   5.538   3.088   6.344 -0.9223 -1.3919  0.5886
   20CHTO   O54 8184   5.596   2.954   6.203 -0.0884 -0.0589  0.1463
   20CHTO  H133 8185   5.587   3.035   6.155 -0.6691 -1.1188  0.9964
   20CHTO   C75 8186   5.451   2.896   6.407  0.1899 -0.2544 -0.9783
   20CHTO  H147 8187   5.433   2.934   6.515 -0.3249  1.2577 -0.3170
   20CHTO   N13 8188   5.315   2.924   6.345  0.3942  0.2599  0.2901
   20CHTO  H139 8189   5.247   2.976   6.417 -0.7170 -1.2388  1.1741
   20CHTO  H140 8190   5.319   2.975   6.249 -0.0980  0.4751 -0.3589
   20CHTO   C76 8191   5.495   2.744   6.413  0.0368 -0.1973  0.3219
   20CHTO  H148 8192   5.508   2.709   6.306 -1.6044 -1.7291 -0.8982
   20CHTO   O49 8193   5.623   2.734   6.487 -0.0752 -0.1687  0.0126
   20CHTO   C77 8194   5.734   2.811   6.432 -0.5018  0.0189 -0.2461
   20CHTO  H149 8195   5.771   2.784   6.330  1.7012  1.4415  2.2839
   20CHTO   C88 8196   5.857   2.775   6.521  0.6511 -0.1430 -0.2080
   20CHTO   O58 8197   5.983   2.833   6.474  0.2206  0.5572 -0.3741
   20CHTO  H136 8198   5.992   2.812   6.382 -0.6994 -1.4196 -1.0191
   20CHTO   O51 8199   5.376   2.672   6.503 -0.4963 -0.0476 -0.3245
   20CHTO   C78 8200   5.403   2.512   6.527  0.0652 -0.0662  0.1623
   20CHTO  H150 8201   5.508   2.495   6.547 -1.7537 -1.0615 -1.7944
   20CHTO   C80 8202   5.369   2.426   6.399 -0.2090  0.4091 -0.7038
   20CHTO  H152 8203   5.253   2.432   6.385  1.0111  1.7283  0.2274
   20CHTO   O55 8204   5.438   2.477   6.289 -0.0187  0.1506 -0.1513
   20CHTO  H134 8205   5.390   2.552   6.256 -2.8765 -3.9113 -3.3644
   20CHTO   C84 8206   5.410   2.273   6.421 -0.3078 -0.2921 -0.1143
   20CHTO  H156 8207   5.519   2.280   6.442 -1.1929 -1.1588 -0.4253
   20CHTO   N15 8208   5.374   2.172   6.318 -0.4213  0.5101 -0.1188
   20CHTO  H143 8209   5.263   2.171   6.305 -3.7233  0.5120  2.0945
   20CHTO  H144 8210   5.417   2.198   6.230 -1.6672  0.9695 -0.5069
   20CHTO   C87 8211   5.372   2.219   6.563 -0.2963  0.0762 -0.2282
   20CHTO  H159 8212   5.267   2.187   6.570 -0.1387 -2.4969 -1.0934
   20CHTO   O53 8213   5.399   2.328   6.674 -0.0592  1.2514 -0.8878
   20CHTO   C82 8214   5.326   2.450   6.639 -0.2804  0.2083  0.1425
   20CHTO  H154 8215   5.223   2.429   6.604 -0.8186 -2.9941  0.3646
   20CHTO   C89 8216   5.319   2.537   6.767 -0.8045 -0.0336  0.0075
   20CHTO   O59 8217   5.248   2.464   6.865  0.3114  0.3438  0.1162
   20CHTO  H137 8218   5.161   2.448   6.830 -0.1015  1.5186  0.0576
   20CHTO   O45 8219   5.475   2.097   6.607 -1.5486 -0.0785 -0.0705
   20CHTO   C67 8220   5.438   2.026   6.726  0.0525  0.5874 -0.0933
   20CHTO  H124 8221   5.380   2.096   6.785 -0.0638  0.3705  0.5032
   20CHTO   C65 8222   5.348   1.906   6.679  0.2912 -0.2980  0.4080
   20CHTO  H122 8223   5.384   1.869   6.577 -1.0988 -1.3207 -0.1222
   20CHTO   O44 8224   5.217   1.958   6.666  0.8578 -0.1630  0.0391
   20CHTO  H102 8225   5.211   2.031   6.607  0.3621 -1.9107  2.3789
   20CHTO   C63 8226   5.370   1.777   6.763  0.2864 -0.0821  0.1841
   20CHTO  H120 8227   5.463   1.734   6.733 -1.7184  2.5029  0.9888
   20CHTO   N11 8228   5.272   1.665   6.741  0.1487 -0.0594  0.1015
   20CHTO  H108 8229   5.266   1.628   6.642  0.8896  0.0478  0.7458
   20CHTO  H109 8230   5.179   1.707   6.768  1.8930  0.0406 -0.4203
   20CHTO   C61 8231   5.392   1.823   6.915 -0.1262 -0.1768  0.4470
   20CHTO  H118 8232   5.409   1.729   6.978  2.9697  0.2010  2.1845
   20CHTO   O40 8233   5.507   1.906   6.933 -0.6217 -0.2996  0.5583
   20CHTO   C68 8234   5.560   1.983   6.816  0.3543  0.2238  0.2033
   20CHTO  H125 8235   5.632   1.911   6.754  0.8440 -0.2525 -0.0352
   20CHTO   C72 8236   5.642   2.097   6.868 -0.1061 -0.3000 -1.0173
   20CHTO   O48 8237   5.715   2.177   6.771  0.2098  0.1766 -0.8200
   20CHTO  H105 8238   5.778   2.110   6.743 -2.8768 -0.7719 -0.3167
   20CHTO   O38 8239   5.281   1.908   6.964 -0.0569  0.0512  0.3724
   20CHTO   C55 8240   5.252   1.901   7.106  0.7726 -0.0175 -0.1256
   20CHTO  H112 8241   5.346   1.863   7.155 -0.8827 -0.0689  1.0345
   20CHTO   C56 8242   5.129   1.800   7.132 -0.6225  0.1771  0.1776
   20CHTO  H113 8243   5.046   1.824   7.061 -0.6170 -2.2040 -0.2744
   20CHTO   O42 8244   5.170   1.668   7.086 -0.4840  0.2457  0.4129
   20CHTO  H100 8245   5.258   1.643   7.113 -0.3307 -0.5383  3.5576
   20CHTO   C57 8246   5.086   1.805   7.284 -0.3891 -0.0619  0.3154
   20CHTO  H114 8247   5.161   1.756   7.337 -0.2840  2.1829 -1.7587
   20CHTO   N10 8248   4.963   1.730   7.309  0.1257 -0.0195 -0.3161
   20CHTO  H106 8249   4.905   1.714   7.221 -2.3584 -0.9752 -0.5300
   20CHTO  H107 8250   4.996   1.635   7.355 -1.5767  0.0213 -0.6224
   20CHTO   C58 8251   5.078   1.951   7.340 -0.2061  0.1602  0.7474
   20CHTO  H115 8252   4.978   1.994   7.313 -0.6173  0.6646 -0.6630
   20CHTO   O37 8253   5.190   2.031   7.299 -0.2789 -0.4990  0.1031
   20CHTO   C59 8254   5.208   2.039   7.156 -0.2806 -0.6303 -0.1318
   20CHTO  H116 8255   5.119   2.063   7.104  1.7667 -0.7415 -1.3047
   20CHTO   C70 8256   5.299   2.160   7.133 -0.9389 -0.4796 -0.4241
   20CHTO   O46 8257   5.302   2.202   6.997 -0.0825 -0.2321  0.2266
   20CHTO  H103 8258   5.234   2.257   6.957 -1.6067  3.1358 -0.5936
   20CHTO   O39 8259   5.082   1.958   7.506  0.0545  0.3226  0.0893
   20CHTO   C60 8260   5.064   2.083   7.570  0.2116 -1.1383 -0.1560
   20CHTO  H117 8261   5.114   2.160   7.506 -0.9408 -2.0266  1.0583
   20CHTO   C62 8262   4.916   2.138   7.573  0.2191 -0.1920  0.3828
   20CHTO  H119 8263   4.883   2.136   7.468 -1.2364 -0.7377  1.0318
   20CHTO   O43 8264   4.833   2.048   7.642 -0.2416  0.6903 -0.2559
   20CHTO  H101 8265   4.793   1.993   7.577  0.7284  1.8677 -1.9012
   20CHTO   C66 8266   4.913   2.290   7.623 -0.0921 -0.2660  0.3125
   20CHTO  H123 8267   4.982   2.344   7.555 -1.7707 -4.4337 -2.0792
   20CHTO   N12 8268   4.782   2.360   7.611  0.3287 -0.3968  0.3513
   20CHTO  H110 8269   4.737   2.343   7.513  0.2393  1.2612 -0.4120
   20CHTO  H111 8270   4.774   2.466   7.643 -1.5526 -1.1427  1.5254
   20CHTO   C69 8271   4.972   2.298   7.765 -0.1784 -0.3168 -0.0131
   20CHTO  H126 8272   4.916   2.232   7.826 -0.6072  0.9263  0.9165
   20CHTO   O41 8273   5.112   2.246   7.770 -0.4237 -0.1105  0.6380
   20CHTO   C64 8274   5.130   2.095   7.706 -0.2944  0.0677 -0.5112
   20CHTO  H121 8275   5.084   2.014   7.768  2.6471  0.6516 -0.9858
   20CHTO   C71 8276   5.278   2.056   7.693 -0.3323 -0.1351 -0.0023
   20CHTO   O47 8277   5.304   1.911   7.723  0.1351 -0.2339 -0.5622
   20CHTO  H104 8278   5.380   1.897   7.777 -1.8144  1.2886  2.4157
   20CHTO   O34 8279   4.959   2.452   7.828 -0.1021 -0.1492 -0.0674
   20CHTO   C49 8280   5.019   2.594   7.872 -0.6523 -0.4372 -0.3956
   20CHTO   H91 8281   4.979   2.621   7.971  0.0023  1.7423 -1.0868
   20CHTO   C47 8282   4.971   2.702   7.774 -0.5003  0.0947 -0.1758
   20CHTO   H89 8283   5.003   2.792   7.824 -1.6639 -2.2108 -0.1820
   20CHTO   O33 8284   4.828   2.705   7.773  0.0507  0.2598 -0.3352
   20CHTO   H70 8285   4.794   2.627   7.733  0.8465  0.0911  1.9071
   20CHTO   C45 8286   5.046   2.689   7.626 -0.1342  0.2342 -0.0911
   20CHTO   H87 8287   4.973   2.640   7.564 -2.5342  0.5511  0.4193
   20CHTO    N8 8288   5.065   2.828   7.575  0.4370  0.4369 -0.2464
   20CHTO   H75 8289   5.049   2.823   7.477 -1.1207 -3.1561  1.0249
   20CHTO   H76 8290   5.162   2.859   7.599 -0.6276 -0.6997  1.3341
   20CHTO   C43 8291   5.174   2.593   7.625  0.4712  0.3927 -0.2868
   20CHTO   H85 8292   5.133   2.489   7.609  0.1337 -0.4136 -0.8737
   20CHTO   O29 8293   5.244   2.606   7.748  0.3114  0.3913 -0.3686
   20CHTO   C50 8294   5.172   2.592   7.869  0.0313 -0.2564  0.0655
   20CHTO   H92 8295   5.199   2.493   7.910  0.8719 -1.0990  2.2268
   20CHTO   C54 8296   5.224   2.690   7.977 -0.0780  0.0700  0.2803
   20CHTO   O36 8297   5.194   2.636   8.111 -0.3380 -0.4484  0.2217
   20CHTO   H72 8298   5.104   2.619   8.121  0.2770 -1.3540 -0.4035
   20CHTO   O27 8299   5.255   2.605   7.514  0.1833 -0.2677 -0.7625
   20CHTO   C37 8300   5.283   2.560   7.381 -0.2377  0.4537  0.2154
   20CHTO   H79 8301   5.202   2.502   7.336 -0.0567 -0.7600 -2.4797
   20CHTO   C38 8302   5.301   2.685   7.292  0.3491 -0.2578 -0.1013
   20CHTO   H80 8303   5.352   2.761   7.354 -3.6865  0.3062  0.7676
   20CHTO   O31 8304   5.169   2.733   7.263  0.2256  0.4851 -0.0178
   20CHTO   H68 8305   5.155   2.731   7.175 -0.7564 -1.0601  1.0326
   20CHTO   C39 8306   5.378   2.649   7.158  0.9323 -0.7132 -0.0818
   20CHTO   H81 8307   5.302   2.580   7.104 -1.7288 -0.0644  0.0511
   20CHTO    N7 8308   5.418   2.769   7.077  0.2731  0.6981 -0.7718
   20CHTO   H73 8309   5.481   2.822   7.143 -0.0035  0.4182  0.6929
   20CHTO   H74 8310   5.333   2.824   7.042  3.8269  2.0151  0.6097
   20CHTO   C40 8311   5.502   2.554   7.183 -0.6090 -1.0474  0.1865
   20CHTO   H82 8312   5.589   2.607   7.220  1.1053  1.2859  2.0525
   20CHTO   O26 8313   5.463   2.439   7.261 -0.0403 -0.4409  0.8004
   20CHTO   C41 8314   5.412   2.469   7.386 -0.0918  0.0284  0.0703
   20CHTO   H83 8315   5.481   2.532   7.454  1.1274 -1.3147  2.1149
   20CHTO   C52 8316   5.376   2.334   7.454  0.1485 -0.4994  1.1123
   20CHTO   O35 8317   5.473   2.229   7.463  0.1754  0.4193  0.3536
   20CHTO   H71 8318   5.562   2.260   7.456  0.5569 -1.0623  3.0900
   20CHTO   O28 8319   5.550   2.493   7.059  0.2500  0.3391  0.2445
   20CHTO   C42 8320   5.691   2.470   7.039 -0.5401 -0.1854  0.6414
   20CHTO   H84 8321   5.688   2.395   6.963 -0.5219  0.8960  0.0244
   20CHTO   C44 8322   5.781   2.422   7.161  0.3042 -0.0659 -0.3420
   20CHTO   H86 8323   5.772   2.501   7.239 -0.8541  0.9949 -1.9604
   20CHTO   O32 8324   5.723   2.302   7.211 -0.4482  0.2440 -0.5451
   20CHTO   H69 8325   5.660   2.321   7.275 -0.8247  0.3969 -0.2099
   20CHTO   C48 8326   5.934   2.406   7.125 -0.5479 -0.0290  0.4151
   20CHTO   H90 8327   5.955   2.326   7.061 -1.8897 -1.7071  0.9124
   20CHTO    N9 8328   6.020   2.387   7.248  0.9843 -0.0548 -0.0010
   20CHTO   H77 8329   6.081   2.299   7.243 -0.2246  0.7375  0.2424
   20CHTO   H78 8330   6.078   2.479   7.268 -2.2411  1.5760 -3.3020
   20CHTO   C51 8331   5.982   2.531   7.047 -0.3515 -0.1328  0.2377
   20CHTO   H93 8332   5.989   2.614   7.121 -1.7333  5.0976 -3.1251
   20CHTO   O30 8333   5.892   2.565   6.935 -0.1882 -0.1580 -0.0752
   20CHTO   C46 8334   5.756   2.595   6.973 -0.7186 -0.1482  0.3285
   20CHTO   H88 8335   5.764   2.682   7.047 -0.3196 -3.2709  2.2431
   20CHTO   C53 8336   5.679   2.630   6.843 -0.5297 -0.5080  0.0805
   20CHTO   O72 8337   5.681   2.529   6.737  0.2468  0.1937  0.4332
   20CHTO  H199 8338   5.710   2.449   6.764  1.1083  0.6912 -0.8955
   20CHTO   O22 8339   6.110   2.506   6.990  0.5894  0.0165 -0.1567
   20CHTO   C31 8340   6.201   2.613   6.955 -0.5860 -0.3397 -0.7519
   20CHTO   H59 8341   6.283   2.565   6.895 -1.9268  0.1633 -2.7004
   20CHTO   C29 8342   6.133   2.722   6.871  0.2434 -0.3983  0.2299
   20CHTO   H57 8343   6.047   2.766   6.930 -3.8268 -0.5049 -2.3004
   20CHTO   O21 8344   6.078   2.655   6.755  0.1061  0.7753 -0.2748
   20CHTO   H37 8345   6.015   2.713   6.725  0.7333  0.0967  2.8162
   20CHTO   C27 8346   6.231   2.838   6.837 -0.5478 -0.1601  0.3451
   20CHTO   H55 8347   6.311   2.802   6.779  0.5268  1.7577  4.0856
   20CHTO    N5 8348   6.170   2.957   6.762 -0.1165 -0.1900 -0.9356
   20CHTO   H43 8349   6.082   2.940   6.710 -0.1532  0.4093  0.4882
   20CHTO   H44 8350   6.171   3.040   6.827  3.3632  0.6240 -2.2305
   20CHTO   C25 8351   6.308   2.889   6.966  0.6616  0.3573  0.2648
   20CHTO   H53 8352   6.239   2.936   7.039  0.6344 -0.0166 -0.6360
   20CHTO   O17 8353   6.359   2.778   7.045  0.0225  0.4662  0.0855
   20CHTO   C32 8354   6.266   2.676   7.088 -0.0079  0.1298 -0.1932
   20CHTO   H60 8355   6.186   2.718   7.145 -1.9220  0.3922 -1.0977
   20CHTO   C36 8356   6.365   2.578   7.152  0.1006 -0.5109 -0.2315
   20CHTO   O25 8357   6.398   2.614   7.290  0.6395  0.1237 -0.3789
   20CHTO   H40 8358   6.322   2.658   7.334  1.6374  1.8533 -1.6922
   20CHTO   O15 8359   6.427   2.978   6.923  0.2709  0.5294  0.8438
   20CHTO   C19 8360   6.512   3.078   6.983 -0.8597 -0.4921  0.1803
   20CHTO   H47 8361   6.553   3.120   6.893  0.6077 -1.3858 -1.0282
   20CHTO   C20 8362   6.442   3.196   7.059  0.2247  0.9413 -0.5340
   20CHTO   H48 8363   6.368   3.160   7.127 -2.5949  0.5858 -0.2191
   20CHTO   O19 8364   6.372   3.274   6.962  0.5470  0.1439  0.5961
   20CHTO   H35 8365   6.292   3.306   6.996  2.6136 -0.8342  1.1006
   20CHTO   C21 8366   6.541   3.280   7.142  0.1507  0.1964 -1.2410
   20CHTO   H49 8367   6.588   3.355   7.078 -1.5437 -0.5111  1.2983
   20CHTO    N4 8368   6.469   3.370   7.235  0.1917  0.5307  0.5916
   20CHTO   H41 8369   6.517   3.377   7.330 -2.0115  1.1115 -0.2868
   20CHTO   H42 8370   6.368   3.323   7.255  0.9008 -1.1623  1.2735
   20CHTO   C22 8371   6.641   3.190   7.215 -0.3672 -0.2079 -0.4109
   20CHTO   H50 8372   6.593   3.130   7.289  0.5380  1.9121  0.8966
   20CHTO   O14 8373   6.709   3.112   7.118  0.6995 -0.6081  0.5030
   20CHTO   C23 8374   6.632   3.008   7.060  0.3095 -0.0372  0.1198
   20CHTO   H51 8375   6.598   2.952   7.144  0.3945  1.0467  1.9814
   20CHTO   C34 8376   6.714   2.911   6.972  0.3677 -0.1800 -0.4662
   20CHTO   O23 8377   6.777   2.980   6.863  0.1146 -0.1243  0.4854
   20CHTO   H38 8378   6.708   3.006   6.805  3.4517 -0.3490 -0.2999
   20CHTO   O16 8379   6.747   3.262   7.284  0.2351  0.1923 -0.1464
   20CHTO   C24 8380   6.836   3.162   7.361  0.5568 -0.0425  0.3319
   20CHTO   H52 8381   6.819   3.060   7.332  3.4834  2.3453  2.5424
   20CHTO   C26 8382   6.819   3.180   7.513 -0.4862 -0.6640 -0.2189
   20CHTO   H54 8383   6.859   3.277   7.536 -0.1634  0.3292 -1.9240
   20CHTO   O20 8384   6.680   3.178   7.540 -0.5644 -0.3670 -0.1969
   20CHTO   H36 8385   6.634   3.231   7.484  1.6658  2.1386  1.3738
   20CHTO   C30 8386   6.908   3.075   7.586  0.4223  0.0701 -0.4789
   20CHTO   H58 8387   6.856   2.976   7.565 -2.0292 -1.0078 -0.8583
   20CHTO    N6 8388   6.904   3.085   7.734 -0.3599 -0.1686  0.4045
   20CHTO   H45 8389   6.968   3.015   7.779 -1.0538  2.9348 -2.4497
   20CHTO   H46 8390   6.805   3.060   7.763 -0.5086 -0.5609 -0.0757
   20CHTO   C33 8391   7.054   3.064   7.535  0.0528 -0.8909 -0.2050
   20CHTO   H61 8392   7.116   3.140   7.587  0.3330  2.3738  3.3752
   20CHTO   O18 8393   7.066   3.083   7.397 -0.0580 -0.2555 -0.3595
   20CHTO   C28 8394   6.988   3.190   7.337  0.4631 -0.0375 -0.5758
   20CHTO   H56 8395   7.016   3.285   7.388 -0.3277 -1.0316  1.9840
   20CHTO   C35 8396   7.026   3.196   7.184  0.9704 -0.6091  0.0601
   20CHTO   O24 8397   7.032   3.068   7.115  0.2993 -0.3220 -0.6557
   20CHTO   H39 8398   6.970   3.067   7.043  0.2885  0.4432  2.0817
   20CHTO    O9 8399   7.114   2.939   7.573  0.1147  0.1081  0.1429
   20CHTO   C13 8400   7.138   2.825   7.438  0.6094 -0.5524 -0.2073
   20CHTO   H26 8401   7.215   2.863   7.367 -0.7117  0.3631 -0.0840
   20CHTO   C11 8402   6.998   2.793   7.365 -1.1092  0.3496  0.2935
   20CHTO   H24 8403   6.957   2.877   7.313 -0.8600  1.2331 -0.9783
   20CHTO    O8 8404   6.901   2.748   7.459 -0.6711 -0.6529  0.2018
   20CHTO    H3 8405   6.938   2.682   7.519  2.0895 -2.4833 -1.3880
   20CHTO    C9 8406   7.024   2.668   7.267  0.1234 -0.1580 -0.9537
   20CHTO   H22 8407   7.107   2.692   7.195 -1.3514 -2.4054 -2.6569
   20CHTO    N2 8408   6.906   2.645   7.178  0.0625  0.2139  0.5174
   20CHTO   H10 8409   6.932   2.571   7.104  2.2021 -2.9596 -2.9227
   20CHTO   H11 8410   6.861   2.735   7.144  1.6524 -0.7501  0.7846
   20CHTO    C7 8411   7.078   2.546   7.347 -0.1775  0.3909  0.0577
   20CHTO   H20 8412   7.172   2.525   7.308 -0.9958  0.6892  1.2445
   20CHTO    O4 8413   7.108   2.571   7.484 -0.3003 -0.2734  0.5969
   20CHTO   C14 8414   7.197   2.686   7.496 -0.3614 -0.5323  0.4262
   20CHTO   H27 8415   7.301   2.669   7.449 -0.4448  0.3161  1.1443
   20CHTO   C18 8416   7.219   2.688   7.653 -0.2257  0.0240  0.4879
   20CHTO   O13 8417   7.336   2.761   7.696 -0.0758 -0.0303 -0.4310
   20CHTO    H7 8418   7.374   2.716   7.770 -1.0963 -0.9398 -0.9017
   20CHTO    O2 8419   6.988   2.400   7.345 -0.0952  0.1576 -0.2634
   20CHTO    C1 8420   6.888   2.376   7.445 -0.2491  0.3215 -0.2839
   20CHTO   H14 8421   6.864   2.470   7.499 -1.6806 -0.7248  1.9320
   20CHTO    C2 8422   6.948   2.277   7.551 -0.3876 -0.3993  0.6590
   20CHTO   H15 8423   6.983   2.193   7.484 -1.4225  0.8345 -2.4320
   20CHTO    O6 8424   7.064   2.326   7.626  0.0588 -0.3545  0.1021
   20CHTO    H1 8425   7.032   2.393   7.681 -1.8379 -0.8560  0.5237
   20CHTO    C3 8426   6.834   2.215   7.648  0.4323  0.0730 -0.0875
   20CHTO   H16 8427   6.822   2.286   7.729 -1.2392  0.4006 -0.2337
   20CHTO    N1 8428   6.878   2.093   7.715  0.6753 -0.0929 -0.2946
   20CHTO    H8 8429   6.937   2.103   7.809 -3.0785 -2.4323  1.5321
   20CHTO    H9 8430   6.901   2.009   7.649 -1.4041  1.9426  1.7106
   20CHTO    C4 8431   6.696   2.191   7.587  0.2400 -0.6363  0.1036
   20CHTO   H17 8432   6.704   2.095   7.538 -0.9754 -1.1856  3.1417
   20CHTO    O1 8433   6.659   2.291   7.496  0.4420 -0.7681 -0.0040
   20CHTO    C5 8434   6.756   2.307   7.392 -0.6137 -0.3665  0.0774
   20CHTO   H18 8435   6.787   2.211   7.342 -0.3279 -2.6004  1.5308
   20CHTO   C16 8436   6.687   2.392   7.280 -0.4187 -0.1398  0.3416
   20CHTO   O11 8437   6.585   2.318   7.215  0.0252  0.0318 -0.5004
   20CHTO    H5 8438   6.507   2.327   7.270 -1.7621  0.7073 -0.4831
   20CHTO    O3 8439   6.592   2.182   7.690  0.4664 -0.1754  0.4806
   20CHTO    C6 8440   6.476   2.099   7.647 -0.4432  0.3381  0.4222
   20CHTO   H19 8441   6.474   2.093   7.540 -2.5232  2.2532 -0.3125
   20CHTO    C8 8442   6.474   1.959   7.707  0.2169 -0.5079  0.6035
   20CHTO   H21 8443   6.471   1.968   7.819 -2.5768  0.8411  0.3966
   20CHTO    O7 8444   6.595   1.892   7.669 -0.1700  0.3666  0.6161
   20CHTO    H2 8445   6.590   1.803   7.680  1.8832  3.0871  0.5151
   20CHTO   C12 8446   6.336   1.894   7.667 -0.0396  0.7814 -0.1334
   20CHTO   H25 8447   6.337   1.870   7.562  1.0833 -3.4817  0.6705
   20CHTO    N3 8448   6.326   1.761   7.730 -0.2359  0.7624  0.1775
   20CHTO   H12 8449   6.284   1.686   7.665 -1.4527  0.7913 -0.0979
   20CHTO   H13 8450   6.412   1.727   7.787 -1.3958  0.8928  1.0080
   20CHTO   C15 8451   6.212   1.984   7.705  0.4515 -0.2735  0.6207
   20CHTO   H28 8452   6.203   1.997   7.812  0.9557  0.0735 -1.1328
   20CHTO   O10 8453   6.074   1.943   7.651  1.2383 -0.1512 -0.3105
   20CHTO    H4 8454   6.080   1.867   7.592 -1.1627 -1.1571 -0.5043
   20CHTO    O5 8455   6.225   2.115   7.639 -0.1137 -0.2848 -0.3143
   20CHTO   C10 8456   6.344   2.179   7.674 -0.7032 -0.3111 -0.4477
   20CHTO   H23 8457   6.336   2.216   7.777  0.8791  3.3419 -1.4226
   20CHTO   C17 8458   6.344   2.305   7.591  0.6148 -0.0583  0.2810
   20CHTO   O12 8459   6.324   2.279   7.450  0.4905  0.4242 -0.0171
   20CHTO    H6 8460   6.393   2.220   7.431  1.3627  0.2886  1.4068
   21GLOH   H03 8461   5.363   5.095   6.966  0.8919  1.1419 -1.8114
   21GLOH    O1 8462   5.452   5.101   7.009 -0.1002 -0.1693  0.1983
   21GLOH    C1 8463   5.469   5.230   7.063 -0.0602 -0.2982  0.7538
   21GLOH   H02 8464   5.425   5.239   7.165  0.5202 -2.2830 -0.6180
   21GLOH   H08 8465   5.408   5.296   7.001  1.6927 -0.4159 -1.3367
   21GLOH    C2 8466   5.617   5.274   7.058 -0.8937  0.0854  0.0316
   21GLOH   H04 8467   5.651   5.270   6.956  0.4901  0.2011  1.6614
   21GLOH    O2 8468   5.619   5.417   7.092  0.4576  0.2919 -0.2565
   21GLOH   H05 8469   5.715   5.442   7.099  2.4749 -4.2758  1.2586
   21GLOH    C3 8470   5.706   5.182   7.152 -0.1451  0.6927 -0.1027
   21GLOH   H06 8471   5.689   5.212   7.253  3.8665 -1.7042 -0.1619
   21GLOH   H07 8472   5.810   5.211   7.119  3.9489  0.6667 -0.4931
   21GLOH    O3 8473   5.678   5.044   7.139  0.1597  0.5948  0.8237
   21GLOH   H01 8474   5.591   5.037   7.095  1.0481  0.1320 -0.0337
   22GLOH   H03 8475   3.852   5.698   5.119  0.8249  1.9553  1.9206
   22GLOH    O1 8476   3.945   5.732   5.121 -0.1380  0.2201  0.4297
   22GLOH    C1 8477   4.033   5.623   5.127  0.2239 -0.1230 -0.5733
   22GLOH   H02 8478   4.004   5.558   5.206 -1.3473  1.6723 -2.3638
   22GLOH   H08 8479   4.134   5.649   5.147  0.3585 -3.6317  1.4290
   22GLOH    C2 8480   4.046   5.532   5.006 -0.6932  0.3656  0.6361
   22GLOH   H04 8481   4.119   5.448   5.028 -1.4948  0.0621 -0.6315
   22GLOH    O2 8482   3.924   5.474   4.957 -0.6125  0.3131  0.4117
   22GLOH   H05 8483   3.859   5.547   4.930  0.3675 -0.3995 -0.3851
   22GLOH    C3 8484   4.118   5.602   4.885  0.1340 -0.2134 -0.2294
   22GLOH   H06 8485   4.066   5.700   4.861  0.5499 -0.4173 -0.9602
   22GLOH   H07 8486   4.112   5.548   4.793 -1.8457 -0.5453 -0.1405
   22GLOH    O3 8487   4.255   5.624   4.925  0.0784 -0.4538 -0.4937
   22GLOH   H01 8488   4.296   5.536   4.916 -1.2678 -1.1506 -0.5634
   23GLOH   H03 8489   7.921   8.673   1.098  2.0643 -0.6053  0.1324
   23GLOH    O1 8490   7.898   8.576   1.073 -0.2023  0.0317  0.5815
   23GLOH    C1 8491   7.996   8.486   1.131  0.0975  0.2237 -0.0448
   23GLOH   H02 8492   7.979   8.469   1.238  0.2190 -0.6976 -2.9017
   23GLOH   H08 8493   8.096   8.527   1.117 -2.4036  1.6531 -0.4003
   23GLOH    C2 8494   8.003   8.350   1.054 -0.5703 -0.4257 -0.2181
   23GLOH   H04 8495   8.039   8.362   0.951  0.2059  0.6900 -0.0489
   23GLOH    O2 8496   8.095   8.255   1.120  0.4448 -0.6740  1.0250
   23GLOH   H05 8497   8.100   8.172   1.065 -2.3719 -1.2246 -0.7168
   23GLOH    C3 8498   7.868   8.277   1.055 -0.3609 -0.4318 -0.1597
   23GLOH   H06 8499   7.841   8.240   1.155 -0.3289 -1.0561  2.5550
   23GLOH   H07 8500   7.880   8.191   0.993  0.3896 -1.2336 -0.9321
   23GLOH    O3 8501   7.768   8.365   1.001 -0.2641  0.0629  0.3419
   23GLOH   H01 8502   7.796   8.456   1.024 -1.1063 -0.9638  1.3027
   24GLOH   H03 8503   1.115   0.571   4.726 -0.3476  0.7889  1.9880
   24GLOH    O1 8504   1.210   0.590   4.722  0.2290  0.6330  0.6032
   24GLOH    C1 8505   1.264   0.641   4.845  0.4213 -0.0242 -0.5143
   24GLOH   H02 8506   1.230   0.580   4.932 -2.0352  0.1316  2.3392
   24GLOH   H08 8507   1.226   0.735   4.861  1.3372  4.0125  2.5033
   24GLOH    C2 8508   1.417   0.636   4.846  0.1399 -0.6756 -0.2042
   24GLOH   H04 8509   1.453   0.712   4.768 -1.0919  0.7614  1.4543
   24GLOH    O2 8510   1.467   0.679   4.973 -0.2629  0.0143  0.4334
   24GLOH   H05 8511   1.412   0.749   5.007 -0.7620  0.8571  0.2856
   24GLOH    C3 8512   1.471   0.498   4.824 -0.3966 -0.1068  0.5737
   24GLOH   H06 8513   1.429   0.428   4.901  0.0759 -0.2834 -0.2215
   24GLOH   H07 8514   1.575   0.509   4.833 -1.3430  1.4243  0.8468
   24GLOH    O3 8515   1.430   0.456   4.692  0.0192 -0.1596  0.0381
   24GLOH   H01 8516   1.339   0.495   4.681 -0.4789 -0.1042 -0.9301
   25GLOH   H03 8517   4.491   5.350   1.949  0.0963  2.5220  1.7728
   25GLOH    O1 8518   4.552   5.402   2.005  0.0170 -0.3135  0.7290
   25GLOH    C1 8519   4.474   5.451   2.112  0.3590 -0.1546 -0.0051
   25GLOH   H02 8520   4.391   5.500   2.066 -1.4123 -1.1664  2.3762
   25GLOH   H08 8521   4.531   5.524   2.167 -2.0151 -0.0296  0.2310
   25GLOH    C2 8522   4.412   5.341   2.202  0.2835  0.0775  0.0384
   25GLOH   H04 8523   4.361   5.272   2.132  0.0728 -2.0766 -2.5248
   25GLOH    O2 8524   4.518   5.260   2.273 -0.1296  0.1741 -0.3428
   25GLOH   H05 8525   4.541   5.188   2.209  2.0103  0.2448 -1.9819
   25GLOH    C3 8526   4.303   5.391   2.302  0.2172 -0.2202  0.6640
   25GLOH   H06 8527   4.342   5.456   2.378 -0.5703 -2.0879 -1.6156
   25GLOH   H07 8528   4.261   5.302   2.347 -0.6703 -1.5510  1.9898
   25GLOH    O3 8529   4.201   5.465   2.238  0.1253  0.3952  0.5548
   25GLOH   H01 8530   4.239   5.551   2.226  3.2111  0.2481 -0.2969
   26GLOH   H03 8531   6.264   7.575   7.564 -1.0518 -0.2808  1.4137
   26GLOH    O1 8532   6.299   7.662   7.578 -0.6791 -0.0876  0.7034
   26GLOH    C1 8533   6.447   7.666   7.578 -0.5765  0.0759 -0.0271
   26GLOH   H02 8534   6.480   7.702   7.677  0.7686  1.0739  0.6752
   26GLOH   H08 8535   6.479   7.743   7.505 -1.6840 -0.8323 -0.7236
   26GLOH    C2 8536   6.506   7.528   7.551 -0.0449  0.3158 -0.1019
   26GLOH   H04 8537   6.617   7.549   7.555 -1.4754 -0.7300  2.4789
   26GLOH    O2 8538   6.469   7.435   7.655 -0.6125  0.0489 -0.0803
   26GLOH   H05 8539   6.369   7.429   7.652  0.9908 -0.8763  0.4204
   26GLOH    C3 8540   6.472   7.479   7.408  0.0126  0.3321 -0.6047
   26GLOH   H06 8541   6.362   7.476   7.398  0.9657 -2.1170  0.0045
   26GLOH   H07 8542   6.499   7.373   7.406  0.8548 -2.0954 -1.1841
   26GLOH    O3 8543   6.532   7.570   7.310  0.5954 -0.1899  0.3255
   26GLOH   H01 8544   6.559   7.519   7.232  1.8065  0.6339 -1.3505
   27GLOH   H03 8545   8.381   1.244   5.583  1.4215 -0.4832  2.0349
   27GLOH    O1 8546   8.391   1.277   5.489  0.3697 -0.1403 -0.5340
   27GLOH    C1 8547   8.510   1.361   5.499 -0.6196 -0.4871  0.3296
   27GLOH   H02 8548   8.525   1.420   5.403  1.3089 -3.0639 -0.1990
   27GLOH   H08 8549   8.587   1.280   5.498 -1.5162 -3.2703  0.3264
   27GLOH    C2 8550   8.522   1.446   5.627  0.9827  0.2869  0.3965
   27GLOH   H04 8551   8.540   1.373   5.708  0.9365 -1.8443  0.8293
   27GLOH    O2 8552   8.633   1.536   5.613 -0.4091 -0.0797 -0.3469
   27GLOH   H05 8553   8.711   1.503   5.670 -0.0252 -3.0267 -3.7692
   27GLOH    C3 8554   8.391   1.518   5.657 -0.4740 -0.0877  0.5196
   27GLOH   H06 8555   8.314   1.441   5.669  1.0469 -2.6521  0.5137
   27GLOH   H07 8556   8.368   1.585   5.577  1.4842 -1.9687 -1.0840
   27GLOH    O3 8557   8.401   1.588   5.782  0.5514 -0.2539 -0.2888
   27GLOH   H01 8558   8.494   1.621   5.803  0.2609  1.2276 -2.0318
   28GLOH   H03 8559   5.217   3.384   0.778 -0.1559 -1.0205 -2.3713
   28GLOH    O1 8560   5.184   3.463   0.827  0.4211  0.1953  0.3962
   28GLOH    C1 8561   5.191   3.436   0.965 -0.3497  0.1871  0.2224
   28GLOH   H02 8562   5.286   3.475   1.001 -3.3910  0.5798  0.6322
   28GLOH   H08 8563   5.193   3.327   0.969 -1.6872 -0.2575 -0.8132
   28GLOH    C2 8564   5.069   3.482   1.050 -0.3202  0.8385 -0.6373
   28GLOH   H04 8565   4.971   3.435   1.020  1.4260  0.0692  0.4081
   28GLOH    O2 8566   5.088   3.444   1.193 -0.1121  0.0272  0.2055
   28GLOH   H05 8567   5.071   3.353   1.221  0.0262  1.7411  2.8677
   28GLOH    C3 8568   5.076   3.638   1.051  0.1701  0.1324  0.4698
   28GLOH   H06 8569   5.155   3.664   1.114 -1.8782 -0.0982 -0.9894
   28GLOH   H07 8570   4.979   3.679   1.091 -0.6637  1.2538  0.7305
   28GLOH    O3 8571   5.094   3.694   0.923 -0.1040  0.1579 -0.2832
   28GLOH   H01 8572   5.108   3.623   0.857 -0.7574 -0.6319 -2.2837
   29GLOH   H03 8573   4.145   4.742   4.449  1.2921 -1.4520 -2.2281
   29GLOH    O1 8574   4.144   4.794   4.534 -0.4463  0.4357 -0.0518
   29GLOH    C1 8575   4.096   4.705   4.645 -0.0320  0.5280  0.9125
   29GLOH   H02 8576   4.182   4.681   4.702 -3.3667 -0.6362  0.6141
   29GLOH   H08 8577   4.065   4.605   4.613 -1.3223 -0.0926 -1.2965
   29GLOH    C2 8578   3.992   4.771   4.738  0.2363 -0.2707  0.1494
   29GLOH   H04 8579   4.041   4.862   4.775 -2.0764 -0.5723  2.3641
   29GLOH    O2 8580   3.876   4.817   4.665  0.2755  0.2160 -0.4430
   29GLOH   H05 8581   3.862   4.757   4.590  2.1587  0.0141 -1.8740
   29GLOH    C3 8582   3.954   4.680   4.859  0.4039 -0.0206  0.7132
   29GLOH   H06 8583   3.939   4.580   4.819  2.7257  0.8357 -0.5690
   29GLOH   H07 8584   3.856   4.712   4.909  0.2735  4.5577  0.2951
   29GLOH    O3 8585   4.060   4.671   4.958 -0.0031 -0.4497 -0.6224
   29GLOH   H01 8586   4.069   4.756   5.008  2.7827  1.4918 -0.7879
   30GLOH   H03 8587   4.191   0.144   6.830 -0.1392  0.8734 -2.0523
   30GLOH    O1 8588   4.272   0.187   6.794 -0.2848  0.1341 -0.0576
   30GLOH    C1 8589   4.326   0.268   6.895  0.1136 -0.7785  0.0751
   30GLOH   H02 8590   4.250   0.278   6.977 -1.8765  1.0092 -2.0075
   30GLOH   H08 8591   4.339   0.372   6.869 -0.2823 -1.1741  0.5098
   30GLOH    C2 8592   4.455   0.205   6.944  0.4464  0.2679  0.1325
   30GLOH   H04 8593   4.517   0.184   6.856 -0.8685  0.3059 -2.3119
   30GLOH    O2 8594   4.522   0.302   7.033 -0.1007  0.5294 -0.0439
   30GLOH   H05 8595   4.456   0.367   7.069 -0.8106 -0.5129 -1.6608
   30GLOH    C3 8596   4.415   0.073   7.008 -0.5404 -0.7278 -0.8903
   30GLOH   H06 8597   4.364   0.011   6.940 -0.4834 -3.2435 -1.5562
   30GLOH   H07 8598   4.343   0.100   7.082  1.0517 -0.6873 -0.7760
   30GLOH    O3 8599   4.515   0.004   7.085  0.1424  0.7157 -0.6349
   30GLOH   H01 8600   4.592  -0.018   7.024 -3.1512 -1.9371 -0.3880
   31GLOH   H03 8601   1.080   3.798   5.602 -0.5491  1.4511  3.0153
   31GLOH    O1 8602   1.154   3.755   5.655  0.1285  0.1150 -0.3658
   31GLOH    C1 8603   1.149   3.823   5.781 -0.5893  0.0959  0.1000
   31GLOH   H02 8604   1.138   3.757   5.865 -2.1855  0.0958 -0.7488
   31GLOH   H08 8605   1.067   3.891   5.786  1.0203  1.1155 -0.8807
   31GLOH    C2 8606   1.279   3.907   5.796 -0.0045  0.2690 -0.3785
   31GLOH   H04 8607   1.294   3.954   5.699  2.1802 -2.0556  0.9949
   31GLOH    O2 8608   1.263   4.018   5.891  0.0883 -0.1392  0.2273
   31GLOH   H05 8609   1.301   4.097   5.853  1.9813  2.7612 -0.8361
   31GLOH    C3 8610   1.405   3.821   5.816  0.8358  0.8553  0.0445
   31GLOH   H06 8611   1.494   3.884   5.816 -2.3238  1.7308 -1.5219
   31GLOH   H07 8612   1.411   3.760   5.723  1.2375  2.9747 -3.2988
   31GLOH    O3 8613   1.401   3.737   5.924 -0.0930 -0.2639 -0.9659
   31GLOH   H01 8614   1.420   3.788   6.009 -1.2494 -0.4985 -0.5271
   32GLOH   H03 8615   7.531   5.959   0.205  0.5063  1.4720 -0.9026
   32GLOH    O1 8616   7.573   5.999   0.121 -0.0343 -0.5715 -0.3976
   32GLOH    C1 8617   7.479   5.963   0.021  0.3203 -0.5850  0.5523
   32GLOH   H02 8618   7.399   6.037   0.002 -2.2494 -1.4561  0.2931
   32GLOH   H08 8619   7.428   5.868   0.048 -0.6523 -3.9455 -0.2912
   32GLOH    C2 8620   7.540   5.939  -0.121  0.2250 -0.7137 -0.0330
   32GLOH   H04 8621   7.605   5.853  -0.137  3.2497  0.8168 -1.6686
   32GLOH    O2 8622   7.438   5.916  -0.217 -0.5854  0.2665  0.1859
   32GLOH   H05 8623   7.397   5.829  -0.216 -0.7965  2.3176  3.3444
   32GLOH    C3 8624   7.618   6.072  -0.159  0.0714 -0.0385  0.3674
   32GLOH   H06 8625   7.549   6.150  -0.180 -0.5099 -1.5348  1.5881
   32GLOH   H07 8626   7.670   6.062  -0.257 -2.2843 -0.1895 -2.0690
   32GLOH    O3 8627   7.697   6.122  -0.054 -0.2009  0.9727 -0.2859
   32GLOH   H01 8628   7.655   6.079   0.026 -3.2615 -0.9254 -0.8189
   33GLOH   H03 8629   4.855   5.073   4.028  0.1643  0.7907  1.2263
   33GLOH    O1 8630   4.910   5.143   3.985  0.6477  0.3341 -0.4229
   33GLOH    C1 8631   4.821   5.196   3.882  0.1461 -0.2179 -0.1377
   33GLOH   H02 8632   4.736   5.243   3.924 -2.1925  2.1744  0.1927
   33GLOH   H08 8633   4.777   5.121   3.815 -1.3500  1.6998 -1.1783
   33GLOH    C2 8634   4.891   5.297   3.791 -0.1769 -0.2914 -0.0003
   33GLOH   H04 8635   4.955   5.238   3.724  1.8373 -1.1177  0.9716
   33GLOH    O2 8636   4.804   5.370   3.701 -0.0291 -0.3838  0.6292
   33GLOH   H05 8637   4.852   5.390   3.612 -2.4990  2.9977  0.1249
   33GLOH    C3 8638   4.974   5.395   3.880  0.6583 -0.4747 -0.8911
   33GLOH   H06 8639   4.909   5.441   3.954  4.5468 -0.9175 -1.0735
   33GLOH   H07 8640   5.013   5.466   3.810  2.9458 -1.4173 -2.5624
   33GLOH    O3 8641   5.076   5.325   3.951  0.2491 -0.5862 -0.5995
   33GLOH   H01 8642   5.029   5.239   3.975  0.9762  0.1022 -1.7564
   34GLOH   H03 8643   7.799   2.337   7.089  0.5448 -0.5757 -0.9516
   34GLOH    O1 8644   7.781   2.418   7.036  0.1692  0.1380 -0.5070
   34GLOH    C1 8645   7.890   2.516   7.056 -0.3673  0.2128  0.1603
   34GLOH   H02 8646   7.882   2.597   6.976 -2.0894  1.3556 -1.3331
   34GLOH   H08 8647   7.985   2.463   7.045  0.4079 -3.1206  0.3188
   34GLOH    C2 8648   7.883   2.564   7.201  0.6621 -0.3360  0.2823
   34GLOH   H04 8649   7.783   2.599   7.221 -0.1858  1.7375 -0.1116
   34GLOH    O2 8650   7.917   2.452   7.288  0.0695  0.0230  0.1707
   34GLOH   H05 8651   7.930   2.368   7.235  0.2938 -2.3902  0.3182
   34GLOH    C3 8652   7.993   2.672   7.202 -0.0001  0.8542 -0.5926
   34GLOH   H06 8653   8.089   2.623   7.165  3.1761 -0.5127 -2.0766
   34GLOH   H07 8654   8.005   2.689   7.314  0.8945 -0.8111 -1.5189
   34GLOH    O3 8655   7.966   2.803   7.145 -0.0011 -0.1023  0.4764
   34GLOH   H01 8656   8.038   2.864   7.182  2.8111 -1.5482 -1.0641
   35GLOH   H03 8657   3.975   0.079   2.286  2.4429  0.4478  0.4713
   35GLOH    O1 8658   3.929   0.002   2.237 -0.8493 -0.8366  0.4165
   35GLOH    C1 8659   3.796  -0.026   2.284 -0.1589  0.0819 -0.5210
   35GLOH   H02 8660   3.731   0.016   2.209  3.9531 -0.1782 -0.8056
   35GLOH   H08 8661   3.767   0.024   2.383 -0.9087  1.6311  4.1533
   35GLOH    C2 8662   3.773  -0.179   2.303 -0.0887 -0.5567 -0.4633
   35GLOH   H04 8663   3.816  -0.218   2.212 -0.1509  1.6186 -0.3670
   35GLOH    O2 8664   3.833  -0.240   2.419 -0.1960  0.1216 -0.3233
   35GLOH   H05 8665   3.930  -0.226   2.437 -0.9015 -1.3190  2.0339
   35GLOH    C3 8666   3.620  -0.217   2.285 -0.2046 -0.4051 -0.8441
   35GLOH   H06 8667   3.566  -0.145   2.345 -0.0483 -0.8407 -0.4897
   35GLOH   H07 8668   3.602  -0.316   2.329 -0.6282 -0.6082 -0.2588
   35GLOH    O3 8669   3.580  -0.210   2.146 -0.2139 -0.0713  0.2470
   35GLOH   H01 8670   3.524  -0.129   2.131 -5.1947  0.6337  2.4406
   36GLOH   H03 8671   4.026   7.178   4.916 -1.3773  1.4026  0.2780
   36GLOH    O1 8672   3.994   7.085   4.947  0.1694 -0.3445 -0.5689
   36GLOH    C1 8673   4.074   6.986   4.882 -0.1229 -0.3021  0.2010
   36GLOH   H02 8674   4.050   6.882   4.893 -0.6163 -2.7800 -2.9501
   36GLOH   H08 8675   4.172   6.994   4.937  2.1725  1.3031  1.5317
   36GLOH    C2 8676   4.102   7.017   4.731 -0.2764  0.1627 -0.6179
   36GLOH   H04 8677   4.154   7.112   4.728 -1.0150 -2.6804  2.4504
   36GLOH    O2 8678   4.186   6.917   4.670  0.8436 -0.0646  0.5432
   36GLOH   H05 8679   4.137   6.834   4.659 -0.9235 -0.7941 -0.3313
   36GLOH    C3 8680   3.968   7.042   4.657 -0.3886  0.2791 -0.7835
   36GLOH   H06 8681   3.915   7.131   4.700 -0.3596 -0.4276  1.7672
   36GLOH   H07 8682   3.901   6.957   4.665 -1.1544 -0.1560  1.0523
   36GLOH    O3 8683   3.989   7.057   4.512  0.6747  0.3946  0.2690
   36GLOH   H01 8684   3.913   7.097   4.465  0.7626 -1.3033  0.2046
   37GLOH   H03 8685   5.999   3.743   0.654 -0.0302  0.3321  1.7548
   37GLOH    O1 8686   5.940   3.678   0.609 -0.4572 -0.3803  0.0312
   37GLOH    C1 8687   6.008   3.561   0.560  0.3461  0.0797 -0.4354
   37GLOH   H02 8688   6.111   3.580   0.528 -0.1513  1.7683 -1.3245
   37GLOH   H08 8689   5.943   3.513   0.474 -1.2649 -1.0828  0.9391
   37GLOH    C2 8690   6.016   3.449   0.667 -0.1268  0.0544 -0.0752
   37GLOH   H04 8691   6.051   3.359   0.622 -0.0094 -0.7071  1.9379
   37GLOH    O2 8692   6.099   3.483   0.773  0.1446 -0.1774 -0.1018
   37GLOH   H05 8693   6.189   3.502   0.740 -1.0097  0.3999 -0.8134
   37GLOH    C3 8694   5.869   3.421   0.712  0.6797 -0.2284  0.0153
   37GLOH   H06 8695   5.813   3.518   0.729  0.7899  2.3758 -2.0888
   37GLOH   H07 8696   5.870   3.368   0.815  1.2455  0.4030  2.0071
   37GLOH    O3 8697   5.798   3.345   0.607  0.1223  0.0503  0.7519
   37GLOH   H01 8698   5.841   3.255   0.607 -0.5582 -1.7342 -0.5701
   38GLOH   H03 8699   3.324   6.951   2.751 -0.5095 -0.1821  0.7385
   38GLOH    O1 8700   3.336   6.907   2.838  0.3954  0.4083  0.5414
   38GLOH    C1 8701   3.223   6.933   2.924  0.5221  0.1705 -0.1850
   38GLOH   H02 8702   3.235   6.871   3.014 -1.0893 -0.8697  2.6587
   38GLOH   H08 8703   3.128   6.899   2.893  0.7466  2.7421  3.4778
   38GLOH    C2 8704   3.209   7.083   2.962 -0.4364 -0.5702 -0.2852
   38GLOH   H04 8705   3.193   7.139   2.873  0.2568 -2.2846 -1.2884
   38GLOH    O2 8706   3.104   7.098   3.055 -0.5029  0.0410  0.3339
   38GLOH   H05 8707   3.130   7.042   3.141  2.2528  0.2994 -1.5453
   38GLOH    C3 8708   3.336   7.136   3.037  0.0700 -0.3709  0.9761
   38GLOH   H06 8709   3.341   7.082   3.128  0.2632  1.3465 -0.1094
   38GLOH   H07 8710   3.315   7.238   3.071  0.5262  0.9568 -0.1855
   38GLOH    O3 8711   3.460   7.122   2.969 -0.1475 -0.1907 -0.3427
   38GLOH   H01 8712   3.467   7.029   2.937 -3.7774  0.4270 -0.3123
   39GLOH   H03 8713   4.123   4.981   4.997  2.4568 -3.2087  1.2030
   39GLOH    O1 8714   4.107   5.062   4.940  0.0924  0.0022 -0.2481
   39GLOH    C1 8715   4.183   5.047   4.815 -0.3586 -0.2113 -0.3843
   39GLOH   H02 8716   4.123   5.078   4.730 -2.7623  0.6141  1.1653
   39GLOH   H08 8717   4.223   4.948   4.800  0.4918  1.0978 -0.7175
   39GLOH    C2 8718   4.307   5.136   4.824 -0.5189  0.4519 -0.0900
   39GLOH   H04 8719   4.375   5.083   4.891  1.3579  4.0984 -2.1704
   39GLOH    O2 8720   4.371   5.138   4.691  0.1116  0.3163  0.0283
   39GLOH   H05 8721   4.311   5.169   4.617 -1.0828 -1.8188  0.8580
   39GLOH    C3 8722   4.274   5.273   4.875 -0.5237  1.0431 -0.0120
   39GLOH   H06 8723   4.209   5.264   4.966 -1.4978  1.5623  1.5429
   39GLOH   H07 8724   4.205   5.311   4.798 -2.3028  1.8736 -0.3220
   39GLOH    O3 8725   4.377   5.372   4.911  0.5982  0.3674 -0.4800
   39GLOH   H01 8726   4.404   5.339   5.003  0.5248 -1.9004 -0.8092
   40GLOH   H03 8727   3.807   8.800   1.293  0.8510  0.0252 -2.0222
   40GLOH    O1 8728   3.802   8.860   1.377 -0.3111  0.3706  0.3474
   40GLOH    C1 8729   3.935   8.879   1.438  0.6369  0.4112  0.1832
   40GLOH   H02 8730   4.013   8.842   1.365 -0.3580 -0.7803 -1.8528
   40GLOH   H08 8731   3.945   8.824   1.522  2.3312  0.1916 -1.0925
   40GLOH    C2 8732   3.961   9.030   1.463  0.2955 -0.1262  0.0584
   40GLOH   H04 8733   3.893   9.066   1.535  0.9013 -0.2456 -0.5986
   40GLOH    O2 8734   4.102   9.047   1.505 -0.0909  0.0120  0.2778
   40GLOH   H05 8735   4.113   9.142   1.528 -3.1206 -0.5398  1.2975
   40GLOH    C3 8736   3.946   9.107   1.333  0.7972 -0.3309 -0.4823
   40GLOH   H06 8737   3.999   9.047   1.256 -1.9191 -0.3288  1.4771
   40GLOH   H07 8738   3.984   9.209   1.335 -0.8096 -0.6530 -1.2491
   40GLOH    O3 8739   3.804   9.113   1.305 -0.1313  0.3452 -0.1320
   40GLOH   H01 8740   3.777   9.022   1.325  0.4796  0.3165  0.3228
   41GLOH   H03 8741   8.142   8.288   2.270 -1.0423  1.3446 -0.4463
   41GLOH    O1 8742   8.199   8.266   2.194 -0.6714  0.5736 -0.2579
   41GLOH    C1 8743   8.158   8.136   2.156  0.2401  0.2752  0.4756
   41GLOH   H02 8744   8.175   8.128   2.048 -0.4603 -1.8679 -0.1185
   41GLOH   H08 8745   8.054   8.117   2.165 -1.6152 -1.8521 -2.2186
   41GLOH    C2 8746   8.242   8.035   2.240  0.1644  0.0192 -0.2266
   41GLOH   H04 8747   8.247   8.061   2.351 -0.8709  2.6177 -1.1356
   41GLOH    O2 8748   8.184   7.904   2.215 -0.0064  0.9810 -0.2425
   41GLOH   H05 8749   8.084   7.905   2.208 -0.8665  0.9183  0.7323
   41GLOH    C3 8750   8.384   8.026   2.180 -1.1471  0.0714 -0.4820
   41GLOH   H06 8751   8.385   7.976   2.086 -0.9589  1.3453 -0.5986
   41GLOH   H07 8752   8.444   7.960   2.246 -0.0555  1.1202  0.6185
   41GLOH    O3 8753   8.450   8.157   2.176  0.1809 -0.0697  0.1619
   41GLOH   H01 8754   8.375   8.220   2.176 -0.0749 -0.5861 -1.1167
   42GLOH   H03 8755   4.870   9.563   4.295  0.9103 -1.8125  0.4416
   42GLOH    O1 8756   4.931   9.601   4.225 -0.3860  0.3657 -0.0205
   42GLOH    C1 8757   5.043   9.670   4.296 -0.0584  0.1525  0.3368
   42GLOH   H02 8758   5.140   9.684   4.242  0.4157  1.4947  2.5835
   42GLOH   H08 8759   5.058   9.616   4.391  2.3145 -2.3104  1.9159
   42GLOH    C2 8760   5.007   9.815   4.337 -0.0294 -0.1498  0.7278
   42GLOH   H04 8761   5.075   9.848   4.421 -0.7937  0.6779  0.1771
   42GLOH    O2 8762   5.023   9.905   4.223  0.0505  0.3990 -0.0987
   42GLOH   H05 8763   4.963   9.987   4.238  1.2104  3.4833 -1.8266
   42GLOH    C3 8764   4.859   9.821   4.386 -0.1430 -0.8200  0.1350
   42GLOH   H06 8765   4.829   9.742   4.453  1.9392  0.4744  0.4716
   42GLOH   H07 8766   4.798   9.809   4.292  0.9037  1.0487  2.3248
   42GLOH    O3 8767   4.824   9.941   4.450  0.4959  0.4824  0.1556
   42GLOH   H01 8768   4.798   9.999   4.378 -0.7150  1.8684  0.6484
   43GLOH   H03 8769   4.586   1.601   8.890  0.0555 -2.5627  0.8231
   43GLOH    O1 8770   4.493   1.632   8.912  0.1442 -0.4949 -0.4046
   43GLOH    C1 8771   4.477   1.617   9.055 -0.1305  0.4767  0.1735
   43GLOH   H02 8772   4.568   1.644   9.104 -2.6747  1.7739  0.3977
   43GLOH   H08 8773   4.447   1.522   9.094  0.2688  0.1012 -0.7595
   43GLOH    C2 8774   4.370   1.716   9.105 -0.7977  0.6215 -0.2028
   43GLOH   H04 8775   4.268   1.687   9.071 -1.0128 -0.0425  0.8487
   43GLOH    O2 8776   4.365   1.701   9.250 -0.7044 -0.2543 -0.4773
   43GLOH   H05 8777   4.316   1.616   9.275 -1.5328 -0.0709 -0.6899
   43GLOH    C3 8778   4.399   1.860   9.055  0.4104  0.6495  0.5642
   43GLOH   H06 8779   4.407   1.870   8.948  2.7473 -1.3878  0.8040
   43GLOH   H07 8780   4.501   1.890   9.092  4.0864 -1.4166 -0.7510
   43GLOH    O3 8781   4.299   1.953   9.108  0.4363  1.1585  0.2730
   43GLOH   H01 8782   4.312   2.036   9.056 -1.5469 -0.2879  0.2884
   44GLOH   H03 8783   9.180   2.214   0.085 -0.3245 -0.3264 -0.0925
   44GLOH    O1 8784   9.250   2.149   0.066 -0.4624 -0.1215 -0.1665
   44GLOH    C1 8785   9.370   2.211   0.010 -0.1794  0.1727 -0.4427
   44GLOH   H02 8786   9.455   2.198   0.079 -0.8335  0.2132  1.6741
   44GLOH   H08 8787   9.350   2.320  -0.004 -0.1968  1.7579 -2.4548
   44GLOH    C2 8788   9.401   2.148  -0.125 -0.2118 -0.3246 -0.6474
   44GLOH   H04 8789   9.315   2.159  -0.186  2.1456  2.3490  1.1722
   44GLOH    O2 8790   9.517   2.214  -0.182  0.0556  0.1418 -0.1398
   44GLOH   H05 8791   9.491   2.263  -0.262  0.5039 -1.6369 -1.2001
   44GLOH    C3 8792   9.415   1.993  -0.111 -0.5116 -0.0595 -1.1747
   44GLOH   H06 8793   9.506   1.974  -0.052  0.2464  2.5898  3.1653
   44GLOH   H07 8794   9.425   1.963  -0.213 -0.4535 -1.3382 -2.2217
   44GLOH    O3 8795   9.302   1.930  -0.052 -0.2751 -0.6473  0.5487
   44GLOH   H01 8796   9.254   1.999   0.006  0.8697  1.4673 -0.1419
   45GLOH   H03 8797   6.437   4.730   2.364 -0.2019  0.4755 -1.1610
   45GLOH    O1 8798   6.384   4.653   2.326 -0.2152 -0.7377  0.5273
   45GLOH    C1 8799   6.478   4.543   2.300  0.2351  0.1751  0.3620
   45GLOH   H02 8800   6.567   4.577   2.244  1.3058 -0.0004  1.5347
   45GLOH   H08 8801   6.432   4.460   2.244 -0.6094 -0.5116  0.4807
   45GLOH    C2 8802   6.532   4.479   2.430  0.1863 -0.4096  0.5753
   45GLOH   H04 8803   6.608   4.543   2.474 -1.3298  0.8545  1.7290
   45GLOH    O2 8804   6.425   4.447   2.521 -0.8036 -0.0292 -0.0897
   45GLOH   H05 8805   6.390   4.533   2.549  0.7252 -0.7742  0.4481
   45GLOH    C3 8806   6.604   4.347   2.404  0.1822 -0.8854 -0.1575
   45GLOH   H06 8807   6.530   4.266   2.391 -1.6262 -2.7201 -3.3695
   45GLOH   H07 8808   6.656   4.327   2.499 -0.3369 -1.7274 -1.7831
   45GLOH    O3 8809   6.693   4.347   2.297  0.1406 -0.1453  0.1125
   45GLOH   H01 8810   6.772   4.290   2.316 -0.7635  3.5200 -1.4295
   46GLOH   H03 8811   2.064   3.272   5.164 -1.3065 -1.8707 -0.0051
   46GLOH    O1 8812   2.059   3.372   5.161 -0.2563  0.0026  0.2586
   46GLOH    C1 8813   2.030   3.422   5.290 -0.2121 -0.3195 -0.3285
   46GLOH   H02 8814   1.989   3.521   5.296  1.1149 -0.5330 -0.9349
   46GLOH   H08 8815   2.120   3.429   5.348 -0.8019 -1.6116  2.8624
   46GLOH    C2 8816   1.926   3.333   5.362 -0.7523  0.4903  0.0821
   46GLOH   H04 8817   1.956   3.238   5.330 -0.2864  1.2316 -2.4653
   46GLOH    O2 8818   1.925   3.339   5.505 -0.1586  0.3936 -0.5282
   46GLOH   H05 8819   1.923   3.438   5.530 -0.4671  1.1848 -2.5110
   46GLOH    C3 8820   1.787   3.371   5.304 -0.9100  0.1464  0.2262
   46GLOH   H06 8821   1.793   3.333   5.213  0.7297  0.9435  1.2020
   46GLOH   H07 8822   1.784   3.475   5.298  0.3755  1.0721 -2.9906
   46GLOH    O3 8823   1.674   3.307   5.361 -0.8336 -0.2186 -0.2076
   46GLOH   H01 8824   1.708   3.216   5.384 -2.2680  1.5638  0.7021
   47GLOH   H03 8825   9.057   8.201   8.219  1.7293 -0.4837  0.1292
   47GLOH    O1 8826   9.145   8.165   8.202  0.8722  0.1850 -0.7552
   47GLOH    C1 8827   9.153   8.142   8.059 -0.0378 -0.3181 -0.5175
   47GLOH   H02 8828   9.196   8.232   8.002  0.4618  2.5030 -1.9286
   47GLOH   H08 8829   9.055   8.127   8.013  0.6538 -2.1382 -2.2690
   47GLOH    C2 8830   9.238   8.016   8.021 -1.3977 -0.5506  0.5053
   47GLOH   H04 8831   9.340   8.038   8.054 -1.8225  0.4687  2.5215
   47GLOH    O2 8832   9.203   7.890   8.097  0.6485 -0.0619  0.5611
   47GLOH   H05 8833   9.104   7.892   8.119 -1.1304 -0.3405 -2.6309
   47GLOH    C3 8834   9.227   7.998   7.871  0.2464 -0.7539  0.0870
   47GLOH   H06 8835   9.126   7.995   7.842  2.2155 -1.5396 -0.6238
   47GLOH   H07 8836   9.267   7.901   7.838 -1.0081 -0.1502 -0.2091
   47GLOH    O3 8837   9.285   8.105   7.790 -0.1339  0.2745  0.1795
   47GLOH   H01 8838   9.354   8.155   7.842 -0.1628  1.9017  0.1401
   48GLOH   H03 8839   1.597   8.050   4.467 -0.3459 -0.7900 -0.7141
   48GLOH    O1 8840   1.597   7.955   4.484 -0.1491  0.0289  0.0601
   48GLOH    C1 8841   1.523   7.914   4.595  0.5158  0.0134  0.6729
   48GLOH   H02 8842   1.424   7.950   4.596  2.5592 -1.3387 -0.8079
   48GLOH   H08 8843   1.573   7.952   4.683 -1.2618 -2.9998  0.7842
   48GLOH    C2 8844   1.510   7.766   4.608 -0.1299  0.0346  0.2797
   48GLOH   H04 8845   1.620   7.735   4.599 -0.4662 -0.7641  1.8179
   48GLOH    O2 8846   1.469   7.720   4.738  0.7473  0.0124 -0.5092
   48GLOH   H05 8847   1.408   7.789   4.787 -3.0734  0.8623 -0.1188
   48GLOH    C3 8848   1.422   7.716   4.495 -0.2473  0.4763  0.3998
   48GLOH   H06 8849   1.438   7.782   4.403  0.4477  1.1466 -0.0558
   48GLOH   H07 8850   1.320   7.736   4.526 -1.1194 -0.0625  1.6396
   48GLOH    O3 8851   1.439   7.580   4.460  0.1971 -0.5217 -0.2927
   48GLOH   H01 8852   1.514   7.571   4.397  0.7554  1.2141  0.9847
   49GLOH   H03 8853   5.584   2.077   0.455  0.9017  1.3785 -3.0008
   49GLOH    O1 8854   5.617   2.126   0.383  0.3798 -0.5565  0.5738
   49GLOH    C1 8855   5.510   2.203   0.318  0.3648  0.0939 -0.7172
   49GLOH   H02 8856   5.546   2.236   0.234  1.4345  0.8436 -1.4634
   49GLOH   H08 8857   5.479   2.285   0.386 -1.0297  2.3171  2.5455
   49GLOH    C2 8858   5.392   2.107   0.274  0.2119 -0.0152  0.6251
   49GLOH   H04 8859   5.360   2.063   0.372 -0.2312  1.7456  0.3388
   49GLOH    O2 8860   5.280   2.180   0.218  0.8050  0.1559 -0.2771
   49GLOH   H05 8861   5.307   2.221   0.129 -0.0690  1.2894  0.7513
   49GLOH    C3 8862   5.452   1.997   0.179 -0.3854  0.0648 -0.8676
   49GLOH   H06 8863   5.371   1.923   0.155  0.7160 -0.5269 -1.3324
   49GLOH   H07 8864   5.534   1.939   0.229 -2.1110 -1.4468 -0.1044
   49GLOH    O3 8865   5.512   2.050   0.065  0.4034  0.5260  0.1401
   49GLOH   H01 8866   5.459   2.125   0.028  1.5739  0.2954 -1.1106
   50GLOH   H03 8867   2.767   1.670   6.970  1.3461  0.3699  0.0182
   50GLOH    O1 8868   2.791   1.569   6.967  0.0359 -0.0939 -0.7697
   50GLOH    C1 8869   2.825   1.522   6.835  0.4783 -0.0744  0.1932
   50GLOH   H02 8870   2.920   1.560   6.807 -0.0188 -1.0334 -1.2627
   50GLOH   H08 8871   2.749   1.570   6.776 -1.2530 -0.8877 -2.4282
   50GLOH    C2 8872   2.820   1.371   6.804 -0.4366  0.9076  1.2809
   50GLOH   H04 8873   2.719   1.327   6.795  0.2666 -1.3939 -1.5165
   50GLOH    O2 8874   2.892   1.346   6.685 -0.3088  0.0727 -0.0777
   50GLOH   H05 8875   2.829   1.300   6.620 -1.1116 -1.0474 -4.4043
   50GLOH    C3 8876   2.875   1.294   6.932  0.3843 -0.3402 -0.1047
   50GLOH   H06 8877   2.809   1.321   7.016  0.7400 -0.9178  1.7650
   50GLOH   H07 8878   2.976   1.332   6.952  2.5121 -1.2294 -1.1824
   50GLOH    O3 8879   2.876   1.149   6.924  0.2356  0.5148 -0.2504
   50GLOH   H01 8880   2.960   1.111   6.953 -0.4222 -0.9340 -0.3144
   51GLOH   H03 8881   9.628   1.754   4.624  0.6488 -1.3262 -0.3614
   51GLOH    O1 8882   9.576   1.840   4.608 -0.0563  0.0249  0.0394
   51GLOH    C1 8883   9.634   1.941   4.689  0.0495 -0.6232 -0.1711
   51GLOH   H02 8884   9.611   2.044   4.659 -1.9803 -1.3940 -0.6541
   51GLOH   H08 8885   9.743   1.933   4.708 -0.2210  0.7369  0.8540
   51GLOH    C2 8886   9.575   1.936   4.832  0.1224 -0.8336 -0.4414
   51GLOH   H04 8887   9.604   1.842   4.871 -0.1444  0.2429 -1.6723
   51GLOH    O2 8888   9.628   2.039   4.916  0.3951 -0.2938  0.4693
   51GLOH   H05 8889   9.631   2.008   5.007 -0.6538 -1.3978 -1.6628
   51GLOH    C3 8890   9.419   1.931   4.825  0.4379 -0.1581 -1.0232
   51GLOH   H06 8891   9.381   1.907   4.923  0.7786  1.0360  1.7603
   51GLOH   H07 8892   9.399   1.847   4.762 -0.4105 -1.6815  0.8277
   51GLOH    O3 8893   9.351   2.044   4.765  0.0465 -0.4510  0.6182
   51GLOH   H01 8894   9.402   2.126   4.790  0.4202  0.0492 -0.4021
   52GLOH   H03 8895   5.205   9.713   5.289  3.1643  1.6179  0.3064
   52GLOH    O1 8896   5.287   9.755   5.319  0.2453 -0.0464 -0.1321
   52GLOH    C1 8897   5.296   9.889   5.259  0.4171  0.5445  0.5883
   52GLOH   H02 8898   5.311   9.958   5.334  0.8593  0.5756 -1.4525
   52GLOH   H08 8899   5.203   9.912   5.200 -1.0027  2.2821  0.3682
   52GLOH    C2 8900   5.417   9.899   5.164 -0.9285  0.0831 -0.0494
   52GLOH   H04 8901   5.436   9.803   5.105 -0.4592  0.5802  0.0374
   52GLOH    O2 8902   5.408  10.009   5.070  0.2346  0.6673  0.2515
   52GLOH   H05 8903   5.336   9.997   5.003  1.3612 -1.5266 -0.4371
   52GLOH    C3 8904   5.553   9.911   5.246  0.2861 -0.1760  0.1827
   52GLOH   H06 8905   5.637   9.913   5.174 -2.0419 -2.7425 -0.9887
   52GLOH   H07 8906   5.559   9.818   5.310 -0.9953 -1.2712 -0.5966
   52GLOH    O3 8907   5.568  10.025   5.328 -0.1848 -0.5336 -0.1927
   52GLOH   H01 8908   5.645  10.013   5.394  0.1233 -0.1285  0.4954
   53GLOH   H03 8909   2.776   7.638   4.801 -0.6393 -0.3983  0.2498
   53GLOH    O1 8910   2.712   7.562   4.808  0.1258  0.3661  0.7007
   53GLOH    C1 8911   2.724   7.479   4.922 -0.3280 -0.1697  0.5475
   53GLOH   H02 8912   2.822   7.433   4.924  0.1253 -1.2387  0.0236
   53GLOH   H08 8913   2.650   7.399   4.917 -1.6787 -0.7294  1.7407
   53GLOH    C2 8914   2.715   7.555   5.057  0.3915 -0.6309  0.7292
   53GLOH   H04 8915   2.637   7.641   5.047  1.7653  2.3142  0.6334
   53GLOH    O2 8916   2.673   7.462   5.157 -0.3071 -0.8480 -0.3410
   53GLOH   H05 8917   2.574   7.459   5.167 -1.0752  0.1719  1.5932
   53GLOH    C3 8918   2.855   7.619   5.084  0.1972 -1.2388 -0.2156
   53GLOH   H06 8919   2.930   7.543   5.078 -1.4750 -0.0375 -0.7740
   53GLOH   H07 8920   2.857   7.649   5.187 -0.9325 -1.6079 -0.9000
   53GLOH    O3 8921   2.892   7.731   4.997  0.0833  0.3166  0.1796
   53GLOH   H01 8922   2.813   7.785   4.981  1.5504  1.1060  0.6421
   54GLOH   H03 8923   1.895   2.058   9.301 -1.2075 -0.6487 -2.8165
   54GLOH    O1 8924   1.880   2.002   9.384  0.3475 -0.1444 -0.3014
   54GLOH    C1 8925   1.895   1.860   9.351  0.5218 -0.0472 -0.6266
   54GLOH   H02 8926   1.834   1.830   9.270  0.4233 -0.9993 -1.7586
   54GLOH   H08 8927   1.862   1.805   9.435 -2.0327  0.6301 -1.4078
   54GLOH    C2 8928   2.036   1.806   9.322 -0.3120  0.1140  0.3355
   54GLOH   H04 8929   2.023   1.698   9.295 -0.0399 -1.7058  1.4154
   54GLOH    O2 8930   2.090   1.879   9.210 -0.4361  0.3308  0.4068
   54GLOH   H05 8931   2.135   1.815   9.146 -1.3160 -0.9542  0.0230
   54GLOH    C3 8932   2.128   1.815   9.446  0.1630 -0.0236 -0.3820
   54GLOH   H06 8933   2.146   1.923   9.462  2.3342  2.5197 -0.7272
   54GLOH   H07 8934   2.222   1.768   9.422  0.7932 -1.0121 -0.1682
   54GLOH    O3 8935   2.074   1.763   9.566 -0.5088  0.7035 -0.2096
   54GLOH   H01 8936   2.097   1.824   9.644 -1.8255 -0.7266 -1.3729
   55GLOH   H03 8937   5.342   5.066   3.007 -1.3678  1.3987 -0.8178
   55GLOH    O1 8938   5.298   4.977   3.007  0.0984  0.2224 -0.1600
   55GLOH    C1 8939   5.160   4.998   3.041  0.6819  0.5220 -0.4533
   55GLOH   H02 8940   5.089   4.933   2.980  2.3818 -0.0634  0.6005
   55GLOH   H08 8941   5.127   5.101   3.028  0.4284  2.7203 -0.4677
   55GLOH    C2 8942   5.136   4.963   3.191  0.5601  0.4374 -0.1653
   55GLOH   H04 8943   5.195   5.026   3.249 -0.0789 -1.4781 -0.7362
   55GLOH    O2 8944   4.991   4.977   3.223  0.8967 -0.2989 -0.0651
   55GLOH   H05 8945   4.961   5.070   3.237  0.9911 -1.3652  3.4069
   55GLOH    C3 8946   5.178   4.812   3.225 -0.5855  0.2487  0.2215
   55GLOH   H06 8947   5.153   4.792   3.328  1.8500  0.9986 -0.6708
   55GLOH   H07 8948   5.285   4.804   3.217 -0.6821 -2.2860  0.6122
   55GLOH    O3 8949   5.120   4.720   3.130  0.0962 -0.3849  0.1944
   55GLOH   H01 8950   5.029   4.754   3.110 -1.0035 -1.8494  2.2937
   56GLOH   H03 8951   8.144   3.409   4.276 -0.0346 -0.6628  0.5778
   56GLOH    O1 8952   8.070   3.408   4.206 -0.0918 -0.3258 -0.0539
   56GLOH    C1 8953   7.999   3.289   4.229  0.3233 -0.2968  0.4402
   56GLOH   H02 8954   8.003   3.250   4.329  0.9116 -0.4170  1.2464
   56GLOH   H08 8955   8.031   3.208   4.162 -0.8505 -0.5689 -2.1253
   56GLOH    C2 8956   7.852   3.310   4.193 -0.3357 -1.3080  0.1787
   56GLOH   H04 8957   7.844   3.325   4.084 -1.4694 -1.0105 -0.2955
   56GLOH    O2 8958   7.770   3.195   4.223 -0.0974 -0.3496 -0.1768
   56GLOH   H05 8959   7.679   3.217   4.255 -0.7788  2.1076  0.6823
   56GLOH    C3 8960   7.801   3.438   4.255 -0.0107 -0.3390  0.2411
   56GLOH   H06 8961   7.826   3.416   4.359 -1.5171  0.0264 -1.7707
   56GLOH   H07 8962   7.691   3.426   4.251  0.8036  1.9475  0.9844
   56GLOH    O3 8963   7.848   3.568   4.211  0.6213 -0.3556  0.3069
   56GLOH   H01 8964   7.938   3.582   4.238 -1.0233 -0.0241 -0.6382
   57GLOH   H03 8965   6.216   2.295   0.430 -2.2614 -1.9196 -1.4765
   57GLOH    O1 8966   6.221   2.250   0.344  0.1672 -0.3567 -0.2513
   57GLOH    C1 8967   6.268   2.114   0.373  0.6294 -0.4378 -0.5205
   57GLOH   H02 8968   6.195   2.059   0.431  0.8016  0.4037  2.0430
   57GLOH   H08 8969   6.367   2.120   0.421 -0.3120  0.3148 -0.5313
   57GLOH    C2 8970   6.274   2.036   0.236 -0.3799 -0.7603 -0.3879
   57GLOH   H04 8971   6.353   2.093   0.179  0.5914 -0.2162  0.4166
   57GLOH    O2 8972   6.320   1.900   0.259 -0.5474 -0.0193  0.3220
   57GLOH   H05 8973   6.233   1.852   0.281  0.5867  1.0161 -0.8558
   57GLOH    C3 8974   6.148   2.048   0.155  0.1216  0.3961  0.4709
   57GLOH   H06 8975   6.136   2.151   0.121 -0.3536  1.3912 -0.7639
   57GLOH   H07 8976   6.066   2.031   0.219  1.4213 -0.1755  2.4490
   57GLOH    O3 8977   6.129   1.971   0.037 -0.4917 -0.0256 -0.4442
   57GLOH   H01 8978   6.184   2.003  -0.038 -0.0881 -1.1081 -1.0412
   58GLOH   H03 8979   4.748   5.331   9.602 -2.1014 -1.2508 -1.8929
   58GLOH    O1 8980   4.799   5.402   9.652 -0.2047 -0.1113 -0.3666
   58GLOH    C1 8981   4.742   5.533   9.623  0.2522 -0.1129  0.4259
   58GLOH   H02 8982   4.809   5.615   9.655 -0.8013 -0.3054  0.1101
   58GLOH   H08 8983   4.651   5.544   9.681  0.8241 -0.1366  3.2771
   58GLOH    C2 8984   4.714   5.561   9.473 -0.3762  0.0298 -0.1034
   58GLOH   H04 8985   4.637   5.485   9.445  0.2192  0.2991  3.5879
   58GLOH    O2 8986   4.680   5.698   9.450  0.1973 -0.5783  0.7141
   58GLOH   H05 8987   4.753   5.765   9.479  1.1881 -1.1188 -3.3430
   58GLOH    C3 8988   4.839   5.538   9.381  1.3152 -0.3242  0.4054
   58GLOH   H06 8989   4.905   5.624   9.399 -1.4147  1.6511  0.2654
   58GLOH   H07 8990   4.804   5.549   9.279  0.3488 -1.8121 -1.7986
   58GLOH    O3 8991   4.904   5.413   9.385  0.1289  0.9203  0.2763
   58GLOH   H01 8992   4.975   5.417   9.313  0.5061  0.3795  1.4322
   59GLOH   H03 8993   5.352   0.521   4.760 -0.6388  2.9227 -2.1493
   59GLOH    O1 8994   5.286   0.486   4.696  0.2890  0.3646 -0.4432
   59GLOH    C1 8995   5.218   0.602   4.644 -0.4612  0.4519 -0.3616
   59GLOH   H02 8996   5.286   0.666   4.587 -0.5215  0.3732 -0.0335
   59GLOH   H08 8997   5.186   0.662   4.729 -0.7349 -0.6608 -2.4100
   59GLOH    C2 8998   5.096   0.575   4.550 -0.1828 -0.6736 -0.0945
   59GLOH   H04 8999   5.047   0.482   4.591 -0.7747 -0.3735 -2.3044
   59GLOH    O2 9000   5.006   0.691   4.559  0.1788 -0.0599 -0.0364
   59GLOH   H05 9001   4.919   0.651   4.564 -1.0350  0.6089  0.3073
   59GLOH    C3 9002   5.138   0.535   4.410 -0.3738 -0.6565  0.4526
   59GLOH   H06 9003   5.224   0.467   4.416 -1.6725 -1.0162  1.7572
   59GLOH   H07 9004   5.176   0.620   4.356  0.5318  0.6520 -0.2601
   59GLOH    O3 9005   5.036   0.479   4.332  0.0880  0.0629 -0.3843
   59GLOH   H01 9006   5.014   0.529   4.247  0.3514  1.0054 -1.7164
   60GLOH   H03 9007   2.548   1.454   3.560  2.4579  2.0587  2.0898
   60GLOH    O1 9008   2.647   1.440   3.548 -0.5387 -0.7232  0.1985
   60GLOH    C1 9009   2.693   1.556   3.473  0.1752 -0.0149  0.2126
   60GLOH   H02 9010   2.606   1.624   3.447 -0.9308 -2.8670  2.3341
   60GLOH   H08 9011   2.745   1.513   3.385  0.8007  0.5101 -3.5748
   60GLOH    C2 9012   2.790   1.634   3.554 -0.1564  0.0794 -0.8964
   60GLOH   H04 9013   2.888   1.590   3.550  1.3481 -1.9294 -2.5754
   60GLOH    O2 9014   2.803   1.760   3.481 -0.1955  0.5238  1.0005
   60GLOH   H05 9015   2.880   1.753   3.415  0.5119  2.0849 -0.4945
   60GLOH    C3 9016   2.749   1.650   3.705  0.0800  0.0020  0.0571
   60GLOH   H06 9017   2.759   1.554   3.758 -0.2816  1.6643 -2.8541
   60GLOH   H07 9018   2.649   1.685   3.711  1.1778 -0.4490 -0.4320
   60GLOH    O3 9019   2.832   1.741   3.778 -0.0077  0.0583 -0.3346
   60GLOH   H01 9020   2.766   1.800   3.823  1.1001  0.3866  1.4605
   61GLOH   H03 9021   1.587   0.940   6.650  0.7602 -0.4352  0.3236
   61GLOH    O1 9022   1.602   0.882   6.573  0.1545  0.1313 -0.0210
   61GLOH    C1 9023   1.501   0.787   6.554  0.2705 -0.8472  0.1847
   61GLOH   H02 9024   1.464   0.731   6.646 -1.8715  0.3435  1.5626
   61GLOH   H08 9025   1.533   0.716   6.483 -0.4494 -1.2284 -1.9907
   61GLOH    C2 9026   1.371   0.837   6.490  0.1202  0.7609 -0.2261
   61GLOH   H04 9027   1.405   0.889   6.406  0.5308 -0.6660  2.7438
   61GLOH    O2 9028   1.292   0.722   6.449  0.3257  0.1335 -0.6048
   61GLOH   H05 9029   1.308   0.710   6.356  1.1401 -0.4227  0.2281
   61GLOH    C3 9030   1.293   0.926   6.585 -0.4996 -0.3778 -0.1388
   61GLOH   H06 9031   1.289   0.877   6.682  0.9589  2.2971 -0.7002
   61GLOH   H07 9032   1.189   0.942   6.552 -2.0699  0.3711  2.3287
   61GLOH    O3 9033   1.362   1.048   6.600 -0.1002 -0.0728  0.4650
   61GLOH   H01 9034   1.420   1.025   6.676  0.3545 -2.0691  2.8305
   62GLOH   H03 9035   0.146   7.375   0.285  1.3266  2.3430  1.8689
   62GLOH    O1 9036   0.116   7.279   0.267  0.9177 -0.5302  0.0497
   62GLOH    C1 9037   0.148   7.195   0.383  0.5864  0.0961 -0.1076
   62GLOH   H02 9038   0.082   7.209   0.473 -2.8552  1.3995  0.9681
   62GLOH   H08 9039   0.246   7.221   0.429  1.0710 -0.5552 -1.9385
   62GLOH    C2 9040   0.128   7.045   0.351 -0.6686  0.3227  0.3559
   62GLOH   H04 9041   0.156   6.989   0.444  1.3407 -1.1874 -0.8756
   62GLOH    O2 9042  -0.007   7.019   0.317  0.2259  0.0205  0.3358
   62GLOH   H05 9043  -0.063   7.088   0.372 -1.4561  0.6734 -0.3323
   62GLOH    C3 9044   0.227   6.998   0.238  0.3264  0.2293  0.3453
   62GLOH   H06 9045   0.195   7.059   0.149  0.8247  1.8527 -1.2773
   62GLOH   H07 9046   0.211   6.892   0.230 -2.7189 -0.8465 -0.2299
   62GLOH    O3 9047   0.369   7.011   0.274 -0.3734  0.0990  0.1871
   62GLOH   H01 9048   0.412   7.071   0.208 -3.1524  1.6185 -1.6210
   63GLOH   H03 9049   8.876   2.036   0.933 -2.2242 -1.5713  1.2099
   63GLOH    O1 9050   8.971   2.063   0.968  0.1887  0.7430 -1.1263
   63GLOH    C1 9051   9.067   1.966   0.929  0.3967  0.0954  0.1273
   63GLOH   H02 9052   9.011   1.914   0.848  1.9275 -1.7444  0.5065
   63GLOH   H08 9053   9.072   1.899   1.009 -0.3665  0.0163 -1.2662
   63GLOH    C2 9054   9.200   2.025   0.884  0.5275  0.1586 -0.1588
   63GLOH   H04 9055   9.232   2.113   0.946  2.1928  0.2868  1.9000
   63GLOH    O2 9056   9.304   1.920   0.888  0.4148 -0.1122 -0.5183
   63GLOH   H05 9057   9.350   1.933   0.978  1.0960  0.9850  1.7812
   63GLOH    C3 9058   9.200   2.091   0.745  1.0681  0.2266  0.0849
   63GLOH   H06 9059   9.103   2.145   0.733 -1.6155  2.5098 -1.7190
   63GLOH   H07 9060   9.193   2.012   0.666  1.1703 -0.5334 -1.2270
   63GLOH    O3 9061   9.313   2.176   0.735 -0.4295  0.1006  0.0933
   63GLOH   H01 9062   9.383   2.130   0.786 -0.4930 -1.3693 -1.5057
   64GLOH   H03 9063   3.897   9.490   6.315  0.3860  1.3987  0.1872
   64GLOH    O1 9064   3.825   9.540   6.270  0.5622  0.0490 -0.4472
   64GLOH    C1 9065   3.882   9.674   6.230  0.0292  0.2801  0.2020
   64GLOH   H02 9066   3.967   9.698   6.291 -0.0831  1.9857 -0.7865
   64GLOH   H08 9067   3.812   9.755   6.248  1.7289 -1.1598  0.2378
   64GLOH    C2 9068   3.916   9.673   6.083  0.1881  0.1399 -0.1162
   64GLOH   H04 9069   3.997   9.599   6.068  2.6127 -1.3527 -2.0492
   64GLOH    O2 9070   3.797   9.646   5.999  0.1355 -0.2719  0.4573
   64GLOH   H05 9071   3.828   9.647   5.906 -0.7069 -0.3423  1.4485
   64GLOH    C3 9072   3.978   9.807   6.046  0.3094  0.4117 -0.7388
   64GLOH   H06 9073   3.965   9.810   5.934  1.9344  1.1440 -2.6148
   64GLOH   H07 9074   4.083   9.798   6.082 -2.2027 -1.8820  0.2835
   64GLOH    O3 9075   3.915   9.924   6.100 -0.1093 -0.7066  0.6104
   64GLOH   H01 9076   3.813   9.929   6.094 -0.9995 -0.2937  2.6300
   65GLOH   H03 9077   9.592   9.323   0.658  0.2830  2.9469  0.2344
   65GLOH    O1 9078   9.675   9.367   0.633 -0.8109  0.0249  0.9731
   65GLOH    C1 9079   9.740   9.403   0.752 -0.0636 -0.2495 -1.0085
   65GLOH   H02 9080   9.842   9.427   0.730  0.9328 -0.1642  0.2088
   65GLOH   H08 9081   9.747   9.308   0.811 -1.4334 -2.5390 -0.0624
   65GLOH    C2 9082   9.676   9.518   0.832 -0.5388  0.7894  0.2142
   65GLOH   H04 9083   9.573   9.490   0.865  1.0661  1.0286 -0.1888
   65GLOH    O2 9084   9.743   9.531   0.960 -0.0966 -0.0199 -0.7325
   65GLOH   H05 9085   9.701   9.609   1.008  0.1200 -1.5546  0.9192
   65GLOH    C3 9086   9.665   9.650   0.753 -0.6402  0.0598  0.0010
   65GLOH   H06 9087   9.597   9.625   0.670 -2.9728  1.3683  2.5734
   65GLOH   H07 9088   9.765   9.669   0.718 -2.9406  1.3365 -1.3438
   65GLOH    O3 9089   9.614   9.759   0.833  0.1040 -0.0466 -0.2047
   65GLOH   H01 9090   9.645   9.837   0.781 -1.4091 -0.0225  2.4853
   66GLOH   H03 9091   3.255   5.912   6.484 -0.5605  1.6879  0.3852
   66GLOH    O1 9092   3.183   5.930   6.417 -0.5081 -0.3585  0.0263
   66GLOH    C1 9093   3.057   5.959   6.475 -0.1921 -0.1341 -0.0415
   66GLOH   H02 9094   3.038   5.877   6.543 -2.0966  1.1598  0.2256
   66GLOH   H08 9095   2.973   5.957   6.403 -0.3906  0.8678 -0.2347
   66GLOH    C2 9096   3.051   6.084   6.562  0.7539  0.5401  0.9865
   66GLOH   H04 9097   3.120   6.076   6.649 -0.4906 -1.8457 -0.1756
   66GLOH    O2 9098   3.089   6.200   6.483 -0.1860  0.9465 -0.1277
   66GLOH   H05 9099   3.030   6.214   6.406 -1.2432  0.8280  1.7598
   66GLOH    C3 9100   2.906   6.120   6.616 -0.5150 -0.0684  0.2351
   66GLOH   H06 9101   2.837   6.121   6.527  1.4508  0.6699 -4.0138
   66GLOH   H07 9102   2.896   6.219   6.667 -1.7120  1.4667 -2.1526
   66GLOH    O3 9103   2.849   6.018   6.696 -0.0782 -0.0104  0.6750
   66GLOH   H01 9104   2.897   6.003   6.781  0.6673 -1.3625 -0.8170
   67GLOH   H03 9105   7.311   8.245   9.755 -1.0230 -2.9449  1.4634
   67GLOH    O1 9106   7.296   8.293   9.670  0.0075 -0.2447  1.1038
   67GLOH    C1 9107   7.422   8.271   9.607  0.3985 -0.1225 -0.2617
   67GLOH   H02 9108   7.426   8.175   9.547  0.0139  1.1008 -1.6797
   67GLOH   H08 9109   7.502   8.275   9.678 -0.5696 -1.2210  1.5949
   67GLOH    C2 9110   7.468   8.376   9.505  0.2480  0.4261  0.0709
   67GLOH   H04 9111   7.554   8.352   9.451 -1.6357 -0.5534  2.0612
   67GLOH    O2 9112   7.362   8.384   9.404 -0.5928 -0.1928  0.0832
   67GLOH   H05 9113   7.272   8.391   9.450 -1.2332 -2.3504 -0.9422
   67GLOH    C3 9114   7.491   8.517   9.571 -0.3390 -0.4731 -0.4332
   67GLOH   H06 9115   7.401   8.571   9.596 -3.0777  0.7085 -1.3094
   67GLOH   H07 9116   7.526   8.586   9.495 -3.2856  1.3705 -0.7958
   67GLOH    O3 9117   7.583   8.503   9.677  0.1112  0.2403 -0.4610
   67GLOH   H01 9118   7.559   8.581   9.740  0.6636 -1.1931 -1.0868
   68GLOH   H03 9119   7.989   6.085   8.826  1.3988 -0.2701  3.2398
   68GLOH    O1 9120   8.013   6.017   8.888 -0.1749 -0.2449 -0.3827
   68GLOH    C1 9121   8.139   6.046   8.949 -0.0555 -0.2205  0.1570
   68GLOH   H02 9122   8.213   6.070   8.865  0.6653  0.8651  1.1561
   68GLOH   H08 9123   8.179   5.960   9.005  2.3314  0.4901 -4.3819
   68GLOH    C2 9124   8.126   6.170   9.046 -0.4496 -0.2128  0.4214
   68GLOH   H04 9125   8.053   6.144   9.124  2.0450 -1.6723  4.2385
   68GLOH    O2 9126   8.257   6.187   9.098  0.0270  0.0876  0.4031
   68GLOH   H05 9127   8.268   6.276   9.146 -0.0660 -3.1319  1.1077
   68GLOH    C3 9128   8.076   6.291   8.970 -0.2674  0.1003 -0.7866
   68GLOH   H06 9129   8.063   6.362   9.047  3.7980 -0.1337  0.2680
   68GLOH   H07 9130   7.977   6.276   8.931 -0.2757  0.1535 -2.1800
   68GLOH    O3 9131   8.170   6.340   8.869  0.5667 -0.2224 -0.0608
   68GLOH   H01 9132   8.259   6.349   8.914  0.5492  0.6947  1.7578
   69GLOH   H03 9133   9.059   7.475   7.600 -2.0044  2.5699 -0.0560
   69GLOH    O1 9134   9.102   7.409   7.538 -0.2309  0.2912 -0.5250
   69GLOH    C1 9135   9.215   7.351   7.614  0.3351  0.3364  0.4841
   69GLOH   H02 9136   9.229   7.245   7.599 -2.1000  0.6021  0.4521
   69GLOH   H08 9137   9.197   7.365   7.715 -1.5719  1.7438  0.7494
   69GLOH    C2 9138   9.353   7.415   7.573 -0.4721 -1.5297 -0.4797
   69GLOH   H04 9139   9.425   7.369   7.645 -1.7216  1.2607  0.7838
   69GLOH    O2 9140   9.377   7.375   7.435  0.2370  0.1183  0.2360
   69GLOH   H05 9141   9.395   7.277   7.431 -2.8245 -2.6283  1.6711
   69GLOH    C3 9142   9.340   7.567   7.595  0.5109  0.5524  0.1908
   69GLOH   H06 9143   9.266   7.592   7.521 -1.4097  0.5895  0.1798
   69GLOH   H07 9144   9.434   7.617   7.569 -1.9933 -3.0763 -1.2757
   69GLOH    O3 9145   9.295   7.619   7.724 -0.2941 -0.4154 -0.0870
   69GLOH   H01 9146   9.369   7.668   7.766  2.6396 -1.3131 -0.4750
   70GLOH   H03 9147   6.689   3.470   1.956  1.8388 -0.0689 -0.0483
   70GLOH    O1 9148   6.725   3.379   1.925  0.7775  0.5748 -0.0585
   70GLOH    C1 9149   6.868   3.400   1.916 -0.0963  0.9187  0.0735
   70GLOH   H02 9150   6.905   3.504   1.888 -0.6708  1.8515 -2.7858
   70GLOH   H08 9151   6.901   3.336   1.838 -1.3045  2.8977 -0.9681
   70GLOH    C2 9152   6.950   3.355   2.043 -0.6664 -0.1734 -0.3311
   70GLOH   H04 9153   6.930   3.248   2.061 -2.7930 -2.2099 -0.5871
   70GLOH    O2 9154   7.095   3.361   2.017 -0.2447  0.3243  0.2590
   70GLOH   H05 9155   7.144   3.338   2.105 -0.4747 -1.0183  1.7217
   70GLOH    C3 9156   6.911   3.437   2.173 -0.4627 -0.2496  0.2466
   70GLOH   H06 9157   6.932   3.544   2.153 -4.5545 -2.0536 -0.4241
   70GLOH   H07 9158   6.971   3.408   2.252 -0.2331  1.3024 -0.4704
   70GLOH    O3 9159   6.775   3.418   2.210  0.1214  0.2981 -0.5788
   70GLOH   H01 9160   6.744   3.501   2.256  1.0106  1.8155  0.7369
   71GLOH   H03 9161   9.737   8.664   0.755 -0.9097  0.6576  1.6644
   71GLOH    O1 9162   9.711   8.589   0.814 -0.5033 -0.1969 -0.0691
   71GLOH    C1 9163   9.680   8.475   0.730 -0.0858 -0.1704 -0.3051
   71GLOH   H02 9164   9.584   8.482   0.678  1.1649 -0.0981 -0.1821
   71GLOH   H08 9165   9.669   8.387   0.792 -0.8858  1.9784  0.8578
   71GLOH    C2 9166   9.779   8.451   0.621  0.6243 -0.2710 -0.3794
   71GLOH   H04 9167   9.878   8.440   0.680 -1.6037 -1.6899  1.2720
   71GLOH    O2 9168   9.741   8.334   0.551 -0.5815  0.0481  0.5779
   71GLOH   H05 9169   9.803   8.315   0.472 -0.9406 -3.8700 -2.9189
   71GLOH    C3 9170   9.769   8.577   0.533  0.5099  0.9057  0.0292
   71GLOH   H06 9171   9.669   8.581   0.490  0.0173 -0.7725  2.1307
   71GLOH   H07 9172   9.831   8.557   0.449 -2.1725 -0.5162  0.6277
   71GLOH    O3 9173   9.806   8.698   0.605  0.2055 -0.0264  0.0813
   71GLOH   H01 9174   9.901   8.717   0.584  0.7048 -0.0816  0.5985
   72GLOH   H03 9175   3.139   7.100   7.039  1.3973  1.9847 -0.6397
   72GLOH    O1 9176   3.058   7.137   7.001  0.0499  0.0033  0.5506
   72GLOH    C1 9177   3.100   7.230   6.894 -0.3544 -0.2590  0.2379
   72GLOH   H02 9178   3.184   7.290   6.922 -1.4083  0.4324  2.1718
   72GLOH   H08 9179   3.022   7.291   6.859 -2.1828 -1.2012 -0.9323
   72GLOH    C2 9180   3.139   7.168   6.754  0.9132 -0.3878 -0.1234
   72GLOH   H04 9181   3.048   7.124   6.716  1.5436 -1.3082 -0.0789
   72GLOH    O2 9182   3.180   7.281   6.670 -0.0301  0.0663 -0.3202
   72GLOH   H05 9183   3.088   7.312   6.641 -0.6751 -1.9563 -1.0525
   72GLOH    C3 9184   3.241   7.065   6.770 -0.8591  0.3304 -0.2531
   72GLOH   H06 9185   3.331   7.119   6.807  0.0863  1.4946  0.1113
   72GLOH   H07 9186   3.278   7.033   6.671 -3.1348 -0.1600 -1.2606
   72GLOH    O3 9187   3.201   6.953   6.855  0.1062 -0.2303 -0.2607
   72GLOH   H01 9188   3.259   6.874   6.836  1.2366 -0.1516  0.5731
   73GLOH   H03 9189   1.757   0.758   4.282 -0.9851  1.4125 -2.5000
   73GLOH    O1 9190   1.672   0.804   4.265  0.0661 -0.5943 -0.2262
   73GLOH    C1 9191   1.603   0.796   4.390 -0.5390  0.8311  0.2797
   73GLOH   H02 9192   1.639   0.866   4.467 -1.7116 -0.4264  0.0914
   73GLOH   H08 9193   1.621   0.702   4.443 -1.1075  2.9322  2.9855
   73GLOH    C2 9194   1.453   0.800   4.359 -0.4333  0.6732  0.1135
   73GLOH   H04 9195   1.420   0.886   4.305 -2.9623  0.0163 -0.2900
   73GLOH    O2 9196   1.412   0.687   4.274  0.4466  0.0369  0.2477
   73GLOH   H05 9197   1.355   0.630   4.331 -2.3507 -1.3416 -2.9825
   73GLOH    C3 9198   1.369   0.800   4.492 -0.3839  0.0117 -0.1023
   73GLOH   H06 9199   1.394   0.705   4.542  1.9284  0.5533 -2.0991
   73GLOH   H07 9200   1.266   0.803   4.471  1.6661  0.0864  0.3255
   73GLOH    O3 9201   1.399   0.916   4.575  0.0617  0.4182 -0.2991
   73GLOH   H01 9202   1.316   0.966   4.598 -1.9162 -0.0644  0.6231
   74GLOH   H03 9203   2.102   3.172   6.829  2.4253  0.1789  2.5636
   74GLOH    O1 9204   2.107   3.113   6.748 -0.5067 -0.2564 -0.3358
   74GLOH    C1 9205   2.189   3.000   6.775 -0.2844 -0.3214  0.3825
   74GLOH   H02 9206   2.296   3.012   6.785 -1.4550 -0.1435 -4.1480
   74GLOH   H08 9207   2.164   2.932   6.693 -0.6974 -2.6084  4.0264
   74GLOH    C2 9208   2.143   2.921   6.900  0.3355 -0.3379  0.2085
   74GLOH   H04 9209   2.045   2.875   6.876 -0.4796 -0.4517  1.7560
   74GLOH    O2 9210   2.237   2.820   6.931 -0.1032 -0.0592 -0.3362
   74GLOH   H05 9211   2.223   2.743   6.869 -2.6382  1.5712 -0.6918
   74GLOH    C3 9212   2.126   3.007   7.026 -0.4324 -0.0472  0.3495
   74GLOH   H06 9213   2.219   3.033   7.069  0.7068 -0.4918  0.5602
   74GLOH   H07 9214   2.073   2.939   7.095  1.3198 -0.1752  3.2212
   74GLOH    O3 9215   2.045   3.124   7.017  0.6281 -0.8703 -0.1425
   74GLOH   H01 9216   2.001   3.139   7.107 -1.2924  1.3681  0.4740
   75GLOH   H03 9217   1.157   4.391   8.874  2.2126 -0.1697 -0.0541
   75GLOH    O1 9218   1.132   4.454   8.803 -0.0304 -0.5022  0.7488
   75GLOH    C1 9219   1.260   4.486   8.738  0.4633  0.2153 -0.1606
   75GLOH   H02 9220   1.285   4.409   8.659 -2.4549  0.1773 -3.3936
   75GLOH   H08 9221   1.335   4.491   8.815 -2.0640 -0.1503  0.8066
   75GLOH    C2 9222   1.261   4.623   8.667 -0.4317 -0.8258  0.0598
   75GLOH   H04 9223   1.249   4.698   8.744 -2.1819 -1.2774 -0.6668
   75GLOH    O2 9224   1.378   4.640   8.593 -0.0914  0.2594  0.6543
   75GLOH   H05 9225   1.457   4.671   8.647  1.8533  0.1117 -1.6389
   75GLOH    C3 9226   1.134   4.643   8.586  0.1294  0.2791 -0.1483
   75GLOH   H06 9227   1.129   4.562   8.510  1.6250  0.1333  2.9799
   75GLOH   H07 9228   1.138   4.735   8.530 -1.2742 -0.2755  0.2798
   75GLOH    O3 9229   1.014   4.645   8.671  0.3348  0.3605 -0.4138
   75GLOH   H01 9230   1.025   4.570   8.732 -2.7941 -1.6038  0.1160
   76GLOH   H03 9231   2.110   7.220   8.262  1.3920  3.2046 -1.7545
   76GLOH    O1 9232   2.116   7.253   8.170 -0.4512  0.5573 -0.3158
   76GLOH    C1 9233   1.996   7.210   8.102  0.1207  0.5188 -0.1862
   76GLOH   H02 9234   1.938   7.144   8.165  0.9274 -2.2308 -0.0592
   76GLOH   H08 9235   2.018   7.153   8.009  1.2091 -1.7245 -1.4255
   76GLOH    C2 9236   1.910   7.331   8.072  0.2298 -0.5201 -0.4106
   76GLOH   H04 9237   1.963   7.399   8.003 -0.7843  1.5466  0.4437
   76GLOH    O2 9238   1.791   7.283   8.005 -0.1083 -0.0140 -0.8823
   76GLOH   H05 9239   1.795   7.308   7.909  3.6382  0.3677  3.5439
   76GLOH    C3 9240   1.862   7.407   8.196  0.5409  0.0094 -0.6429
   76GLOH   H06 9241   1.779   7.468   8.168 -0.6199  2.2409 -0.9157
   76GLOH   H07 9242   1.946   7.471   8.225  0.5999 -1.4748 -0.0235
   76GLOH    O3 9243   1.811   7.329   8.305 -0.1705 -0.2024 -0.0199
   76GLOH   H01 9244   1.726   7.287   8.280 -0.9604 -0.3178  2.5775
   77GLOH   H03 9245   2.338   3.752   0.195  1.3558 -0.3416  2.8212
   77GLOH    O1 9246   2.328   3.677   0.252 -0.1829  0.4331 -0.4372
   77GLOH    C1 9247   2.347   3.553   0.172  0.1899 -0.0615 -0.1064
   77GLOH   H02 9248   2.364   3.464   0.228 -0.8924  0.0584 -0.9595
   77GLOH   H08 9249   2.436   3.571   0.116 -1.3406 -0.0950 -0.5805
   77GLOH    C2 9250   2.243   3.532   0.058  0.5614 -1.5438 -0.1718
   77GLOH   H04 9251   2.246   3.617  -0.021 -0.7918  2.0590 -1.1578
   77GLOH    O2 9252   2.260   3.407  -0.008  0.1118 -0.0557 -0.2285
   77GLOH   H05 9253   2.205   3.401  -0.094 -3.3518 -0.5774  1.0083
   77GLOH    C3 9254   2.099   3.539   0.116 -0.2738 -0.2578 -0.1004
   77GLOH   H06 9255   2.096   3.457   0.187  1.2461 -0.6619  1.3580
   77GLOH   H07 9256   2.027   3.527   0.027 -0.9059 -1.2500 -2.7011
   77GLOH    O3 9257   2.074   3.665   0.184  1.0417  0.4974  0.0132
   77GLOH   H01 9258   2.155   3.686   0.238  1.3166 -1.8031 -0.6483
   78GLOH   H03 9259   0.001   4.301   2.505 -2.8300  0.9012 -2.5875
   78GLOH    O1 9260   0.039   4.282   2.597 -0.0697  0.3058 -0.3480
   78GLOH    C1 9261  -0.033   4.367   2.682  0.1672 -0.1755 -0.4943
   78GLOH   H02 9262  -0.004   4.470   2.664  4.3402  0.3864 -2.5111
   78GLOH   H08 9263  -0.011   4.343   2.789 -0.2759  0.4853 -1.0202
   78GLOH    C2 9264  -0.188   4.365   2.669 -0.4440  0.2013  0.4485
   78GLOH   H04 9265  -0.236   4.400   2.762 -0.9831  1.6744 -0.8519
   78GLOH    O2 9266  -0.241   4.459   2.568 -0.0058  0.0632 -0.5185
   78GLOH   H05 9267  -0.334   4.442   2.547 -0.0920 -0.7850 -0.5941
   78GLOH    C3 9268  -0.234   4.221   2.639 -0.0187  0.6873  0.1462
   78GLOH   H06 9269  -0.198   4.195   2.542  0.7495  0.5374  1.0575
   78GLOH   H07 9270  -0.339   4.218   2.648 -2.5516 -0.4233 -2.3479
   78GLOH    O3 9271  -0.172   4.129   2.737  0.3052  0.1192 -0.0602
   78GLOH   H01 9272  -0.200   4.159   2.826 -0.1817 -1.2941 -2.6859
   79GLOH   H03 9273   1.013   0.148   7.099  0.4675  0.9725 -1.9580
   79GLOH    O1 9274   0.952   0.074   7.077 -0.3627  0.2615  0.0523
   79GLOH    C1 9275   0.869   0.127   6.981 -0.2263 -0.0417 -0.7139
   79GLOH   H02 9276   0.832   0.052   6.909  5.8428  0.8233  0.9817
   79GLOH   H08 9277   0.926   0.195   6.920 -0.1823  1.3257 -2.0372
   79GLOH    C2 9278   0.752   0.207   7.042 -0.0781  0.3929  0.1243
   79GLOH   H04 9279   0.800   0.260   7.121  0.7498 -1.0405  1.3177
   79GLOH    O2 9280   0.691   0.285   6.943  0.3582  0.1263  0.2264
   79GLOH   H05 9281   0.608   0.317   6.984  0.4221 -2.5796 -0.4024
   79GLOH    C3 9282   0.652   0.101   7.093  0.0996 -0.2035  0.3715
   79GLOH   H06 9283   0.608   0.045   7.007 -1.1939 -0.5820 -1.5778
   79GLOH   H07 9284   0.572   0.151   7.139 -1.5094 -3.5953 -1.0211
   79GLOH    O3 9285   0.710   0.007   7.184 -0.3781  0.8713 -0.3273
   79GLOH   H01 9286   0.807   0.000   7.173 -0.8992 -1.5507 -0.0329
   80GLOH   H03 9287   9.575   9.757   3.344 -2.5441 -1.7577 -1.1726
   80GLOH    O1 9288   9.602   9.846   3.384 -0.5684  0.4402  0.3998
   80GLOH    C1 9289   9.613   9.950   3.287 -0.0795  0.1012  0.1538
   80GLOH   H02 9290   9.712   9.989   3.267  1.5992  2.4672 -0.7868
   80GLOH   H08 9291   9.563  10.040   3.324  1.0247  1.2735  0.4853
   80GLOH    C2 9292   9.550   9.914   3.151 -0.4109  0.0509 -0.7026
   80GLOH   H04 9293   9.598   9.819   3.119 -0.2981  2.0954 -3.0408
   80GLOH    O2 9294   9.412   9.893   3.152 -0.7378 -0.1742  0.2432
   80GLOH   H05 9295   9.389   9.819   3.090  1.9654 -3.5373  1.1097
   80GLOH    C3 9296   9.567  10.014   3.039 -0.2642 -0.3104  0.3727
   80GLOH   H06 9297   9.533  10.115   3.063 -2.1411  0.4418  0.6081
   80GLOH   H07 9298   9.511   9.981   2.949  0.4485 -0.3855  1.0340
   80GLOH    O3 9299   9.699  10.031   2.996  0.3686  0.5909  0.2378
   80GLOH   H01 9300   9.711  10.124   2.963 -1.6213  1.5440  0.5121
   81GLOH   H03 9301   6.735   0.956   6.638  0.4435 -1.5035 -1.9623
   81GLOH    O1 9302   6.784   0.906   6.571  0.0333  0.9105  0.2919
   81GLOH    C1 9303   6.697   0.877   6.465  0.3997 -0.6101 -0.3048
   81GLOH   H02 9304   6.754   0.838   6.377 -1.3870  2.7650 -2.0864
   81GLOH   H08 9305   6.653   0.967   6.438 -2.5787 -1.8554 -0.8991
   81GLOH    C2 9306   6.583   0.771   6.499 -0.2393 -0.7617  0.2724
   81GLOH   H04 9307   6.539   0.805   6.593 -0.0378  3.0621 -2.0404
   81GLOH    O2 9308   6.490   0.778   6.389  0.1908 -0.5238 -0.5930
   81GLOH   H05 9309   6.396   0.770   6.425 -0.0880  0.1185  1.9153
   81GLOH    C3 9310   6.636   0.631   6.507  0.0626  0.4074 -0.0861
   81GLOH   H06 9311   6.713   0.639   6.584  0.0853 -2.0015  1.2932
   81GLOH   H07 9312   6.692   0.606   6.416 -0.1154 -1.2548  2.4235
   81GLOH    O3 9313   6.536   0.530   6.540  0.4487  0.0773 -0.0720
   81GLOH   H01 9314   6.480   0.558   6.620 -3.4044  0.5603  0.8705
   82GLOH   H03 9315   4.223   2.206   4.568  0.5618  3.2415 -1.5846
   82GLOH    O1 9316   4.307   2.252   4.597  0.1889 -0.2635  0.1544
   82GLOH    C1 9317   4.307   2.385   4.539 -0.1201  0.3520 -0.0682
   82GLOH   H02 9318   4.242   2.455   4.591 -0.4007  1.0432 -0.8043
   82GLOH   H08 9319   4.266   2.368   4.439  2.1524 -0.6394 -3.4773
   82GLOH    C2 9320   4.450   2.439   4.518  0.1711  0.3932 -0.2271
   82GLOH   H04 9321   4.494   2.381   4.435  1.2489  0.3679  1.8673
   82GLOH    O2 9322   4.448   2.579   4.470  0.0575  0.3773 -0.0053
   82GLOH   H05 9323   4.455   2.578   4.372 -2.1277 -0.2945 -0.1200
   82GLOH    C3 9324   4.534   2.412   4.640 -0.1415  1.1693  0.1089
   82GLOH   H06 9325   4.494   2.455   4.731 -1.1832  2.1791  0.5253
   82GLOH   H07 9326   4.639   2.456   4.622  0.2488  0.0515 -1.8928
   82GLOH    O3 9327   4.565   2.268   4.635  0.1688 -0.1148  0.5413
   82GLOH   H01 9328   4.471   2.237   4.633  1.3715 -1.1648 -1.4447
   83GLOH   H03 9329   9.605   4.565   0.760  1.9712  0.8955  0.0601
   83GLOH    O1 9330   9.573   4.652   0.720  0.6180  0.1834  0.0850
   83GLOH    C1 9331   9.468   4.688   0.806 -0.9626  0.8107  0.1324
   83GLOH   H02 9332   9.372   4.660   0.768  1.2890  3.5928  1.0330
   83GLOH   H08 9333   9.461   4.798   0.813 -1.2261  1.0009  2.0920
   83GLOH    C2 9334   9.482   4.631   0.949 -0.6483  0.4540 -0.1326
   83GLOH   H04 9335   9.581   4.650   0.987  0.2504  0.6006 -2.4045
   83GLOH    O2 9336   9.375   4.690   1.032 -0.3602  0.2405  0.1200
   83GLOH   H05 9337   9.425   4.738   1.104 -0.8327  3.2286 -0.1905
   83GLOH    C3 9338   9.467   4.479   0.948 -0.4768 -0.5128 -0.7071
   83GLOH   H06 9339   9.357   4.455   0.962 -3.1345 -0.8588 -2.3451
   83GLOH   H07 9340   9.518   4.451   1.039 -0.1664  1.1650  0.6201
   83GLOH    O3 9341   9.512   4.408   0.830 -0.2670  0.0038 -0.3659
   83GLOH   H01 9342   9.492   4.309   0.840 -3.4265  1.0930 -0.1006
   84GLOH   H03 9343   1.115   6.795   2.484  0.9045 -2.4303  3.4064
   84GLOH    O1 9344   1.152   6.713   2.453 -0.2877 -0.1803  0.1161
   84GLOH    C1 9345   1.211   6.633   2.557  0.4508  0.5687  0.7639
   84GLOH   H02 9346   1.134   6.581   2.611  0.2424  0.1464  1.8459
   84GLOH   H08 9347   1.257   6.699   2.628 -0.6953 -0.7029  0.2258
   84GLOH    C2 9348   1.333   6.545   2.513 -0.3481 -0.5831  0.2320
   84GLOH   H04 9349   1.402   6.612   2.466  1.3166 -1.7676  0.8506
   84GLOH    O2 9350   1.412   6.477   2.618  0.0088  0.0336  0.2811
   84GLOH   H05 9351   1.472   6.403   2.587  2.0841 -1.0228 -1.8975
   84GLOH    C3 9352   1.294   6.443   2.405  0.3004 -0.9058  0.0668
   84GLOH   H06 9353   1.384   6.400   2.368  0.7251  2.4696  0.6268
   84GLOH   H07 9354   1.243   6.499   2.326 -2.2263 -3.4853 -0.1910
   84GLOH    O3 9355   1.201   6.344   2.460 -0.5362  0.6631  0.4245
   84GLOH   H01 9356   1.138   6.325   2.386  0.0177 -3.7681 -0.9346
   85GLOH   H03 9357   9.233   0.545   0.318 -2.1919  0.9567 -1.6303
   85GLOH    O1 9358   9.177   0.464   0.309 -0.4273  0.1691  0.0013
   85GLOH    C1 9359   9.179   0.386   0.428 -0.2490 -0.7428 -0.1121
   85GLOH   H02 9360   9.203   0.449   0.511 -1.0856  0.9507 -1.0961
   85GLOH   H08 9361   9.253   0.309   0.423 -0.3276  0.1635  0.8752
   85GLOH    C2 9362   9.049   0.311   0.450  0.4846  0.3881 -0.4551
   85GLOH   H04 9363   9.019   0.250   0.368  1.5013  0.0964 -0.6901
   85GLOH    O2 9364   9.050   0.216   0.554 -0.0103 -0.2899  0.9381
   85GLOH   H05 9365   9.017   0.263   0.643  1.0326  1.2158  1.1845
   85GLOH    C3 9366   8.936   0.424   0.462  0.0491 -0.2063  0.3540
   85GLOH   H06 9367   8.914   0.443   0.354 -0.2991  0.3473  2.7404
   85GLOH   H07 9368   8.980   0.514   0.506 -2.7136 -1.4097 -1.5709
   85GLOH    O3 9369   8.814   0.385   0.528  0.2806  0.1628  0.4203
   85GLOH   H01 9370   8.836   0.333   0.607 -0.7130 -2.2214 -0.7410
   86GLOH   H03 9371   5.072   4.639   5.876 -1.1643 -1.1947  3.6830
   86GLOH    O1 9372   5.090   4.736   5.866  0.2386 -0.1376  0.0848
   86GLOH    C1 9373   4.997   4.784   5.767 -0.3172  0.2516  0.0717
   86GLOH   H02 9374   5.003   4.725   5.677  1.9233  3.7897  1.1741
   86GLOH   H08 9375   5.024   4.889   5.750  1.4475 -0.8463  2.4267
   86GLOH    C2 9376   4.851   4.762   5.813 -0.4127 -0.2837 -0.3573
   86GLOH   H04 9377   4.827   4.811   5.910  2.3964  1.2796  1.0593
   86GLOH    O2 9378   4.748   4.814   5.723 -0.6144  0.2752  0.1434
   86GLOH   H05 9379   4.656   4.779   5.754 -1.7573  1.6009 -1.9318
   86GLOH    C3 9380   4.824   4.606   5.820 -0.2672 -0.0561 -0.0330
   86GLOH   H06 9381   4.825   4.578   5.714 -0.5594  0.9431 -0.4870
   86GLOH   H07 9382   4.727   4.599   5.861  0.4588 -2.9881  0.5999
   86GLOH    O3 9383   4.928   4.533   5.888 -0.1928 -0.2182 -0.5571
   86GLOH   H01 9384   4.936   4.438   5.854  1.9438  0.8922 -0.9738
   87GLOH   H03 9385   4.837   3.705   1.396 -1.7439 -0.2214 -0.1847
   87GLOH    O1 9386   4.770   3.660   1.337 -1.0235 -0.1554 -0.2604
   87GLOH    C1 9387   4.642   3.671   1.405  0.4493  0.7056 -0.0852
   87GLOH   H02 9388   4.555   3.686   1.339 -3.2031 -0.4379 -0.5505
   87GLOH   H08 9389   4.644   3.754   1.470  2.5913 -1.5694 -1.7175
   87GLOH    C2 9390   4.603   3.548   1.498  0.4056 -0.3870 -0.0053
   87GLOH   H04 9391   4.507   3.568   1.558 -1.4407 -0.0895  1.3804
   87GLOH    O2 9392   4.574   3.431   1.414  0.1328 -0.4609 -0.2833
   87GLOH   H05 9393   4.651   3.391   1.359 -0.2992 -1.9282 -0.5742
   87GLOH    C3 9394   4.713   3.526   1.609  0.7927 -0.4231 -0.2411
   87GLOH   H06 9395   4.794   3.465   1.572 -0.3090  1.4152  0.6538
   87GLOH   H07 9396   4.669   3.475   1.688 -0.0139 -0.4863 -0.8072
   87GLOH    O3 9397   4.755   3.654   1.662  0.0564  0.4375 -0.2230
   87GLOH   H01 9398   4.845   3.641   1.703 -0.7471 -2.9513 -1.6850
   88GLOH   H03 9399   8.089   2.691   5.518 -1.3155  0.2783  1.1769
   88GLOH    O1 9400   8.013   2.717   5.462 -0.9086 -0.0317 -0.0910
   88GLOH    C1 9401   7.908   2.781   5.531  0.5505 -0.0063  0.1307
   88GLOH   H02 9402   7.842   2.703   5.565  0.6711 -1.3297  1.5312
   88GLOH   H08 9403   7.865   2.846   5.456 -1.9585 -1.1680  0.4663
   88GLOH    C2 9404   7.944   2.881   5.643  0.0379  0.2965  0.0949
   88GLOH   H04 9405   7.863   2.935   5.684 -1.0044 -1.0531  2.3113
   88GLOH    O2 9406   7.996   2.806   5.755  0.5355 -0.4197  0.0877
   88GLOH   H05 9407   8.078   2.765   5.728  0.6066 -0.8717 -1.7056
   88GLOH    C3 9408   8.050   2.980   5.597  0.1306 -0.4683 -0.0312
   88GLOH   H06 9409   8.145   2.934   5.582  0.6716 -0.3002 -0.9456
   88GLOH   H07 9410   8.065   3.041   5.683 -0.1736  0.4568 -0.9027
   88GLOH    O3 9411   8.022   3.056   5.483  0.1078  0.1038 -0.3617
   88GLOH   H01 9412   7.937   3.103   5.488  1.0648 -2.2414 -0.7231
   89GLOH   H03 9413   2.103   6.421   5.415  2.4733 -2.8551  2.2053
   89GLOH    O1 9414   2.084   6.327   5.426  0.2424 -0.5634  0.1019
   89GLOH    C1 9415   1.956   6.304   5.372  1.1801 -0.1812 -0.0596
   89GLOH   H02 9416   1.935   6.190   5.377 -0.1991 -1.0855  0.3985
   89GLOH   H08 9417   1.957   6.333   5.268 -3.4857  0.3388 -0.6322
   89GLOH    C2 9418   1.842   6.362   5.455 -0.2109  0.5790  0.4532
   89GLOH   H04 9419   1.753   6.349   5.396 -0.4176  0.4500  0.5381
   89GLOH    O2 9420   1.821   6.283   5.573 -0.0854 -0.4158  0.3025
   89GLOH   H05 9421   1.898   6.284   5.637  0.8603  0.0895 -0.1817
   89GLOH    C3 9422   1.881   6.508   5.485 -1.0717 -0.1464  0.0974
   89GLOH   H06 9423   1.968   6.513   5.556  0.5797  0.2369  2.3879
   89GLOH   H07 9424   1.801   6.558   5.540  1.1883  0.5006 -2.3101
   89GLOH    O3 9425   1.914   6.563   5.366 -0.2150 -0.7765  0.6286
   89GLOH   H01 9426   1.940   6.660   5.369 -0.7857  0.5001 -0.2460
   90GLOH   H03 9427   6.465   7.775   3.917 -2.8588  0.8210  0.5169
   90GLOH    O1 9428   6.528   7.749   3.989 -0.1830  0.2553 -0.1299
   90GLOH    C1 9429   6.611   7.640   3.944  0.5830  0.4791 -1.4643
   90GLOH   H02 9430   6.667   7.669   3.854 -1.1154  1.2681 -1.9903
   90GLOH   H08 9431   6.542   7.556   3.917 -0.4899  1.1222  0.9144
   90GLOH    C2 9432   6.719   7.605   4.047  0.4112  0.0778 -0.0598
   90GLOH   H04 9433   6.796   7.550   3.991 -1.8931  1.8938 -1.6728
   90GLOH    O2 9434   6.796   7.713   4.103  0.3366 -0.5241 -0.6364
   90GLOH   H05 9435   6.732   7.763   4.157  1.3531 -0.7178 -0.2009
   90GLOH    C3 9436   6.661   7.508   4.155  0.6124 -0.3467  0.2985
   90GLOH   H06 9437   6.582   7.562   4.201  1.4537 -1.7099 -1.8154
   90GLOH   H07 9438   6.741   7.500   4.226 -1.2189  0.3620 -0.6573
   90GLOH    O3 9439   6.620   7.384   4.092 -0.2404 -0.1486 -0.1944
   90GLOH   H01 9440   6.669   7.315   4.133 -1.5842  0.6761  1.9134
   91GLOH   H03 9441   7.923   2.006   1.705  0.3318 -3.7485 -1.9259
   91GLOH    O1 9442   8.005   2.034   1.659  0.5777  0.1859  0.0825
   91GLOH    C1 9443   7.999   1.980   1.526  0.3123  0.3522  1.2599
   91GLOH   H02 9444   8.074   2.018   1.456  2.0754 -0.1808  1.9264
   91GLOH   H08 9445   7.900   2.012   1.490 -0.6977  0.8390 -2.9837
   91GLOH    C2 9446   8.005   1.826   1.543 -0.4741 -0.3298  0.4308
   91GLOH   H04 9447   7.931   1.793   1.618 -1.2087  0.3144  2.3542
   91GLOH    O2 9448   7.984   1.756   1.419  0.6518  0.6686 -0.4268
   91GLOH   H05 9449   8.045   1.767   1.345 -4.8414 -0.2340 -0.2110
   91GLOH    C3 9450   8.149   1.779   1.588  0.2130 -1.0661 -1.1094
   91GLOH   H06 9451   8.228   1.808   1.512  2.8390  0.1141  0.1032
   91GLOH   H07 9452   8.143   1.671   1.585 -1.9389  1.3915 -1.2989
   91GLOH    O3 9453   8.179   1.841   1.718  0.3104 -0.1115 -0.2805
   91GLOH   H01 9454   8.113   1.914   1.726  0.2388 -0.6687  4.1487
   92GLOH   H03 9455   0.812   2.742   1.222 -0.4704 -0.1420 -1.3793
   92GLOH    O1 9456   0.734   2.738   1.290  0.0346  0.0011  0.2140
   92GLOH    C1 9457   0.703   2.870   1.327  0.1106 -0.4420 -0.4900
   92GLOH   H02 9458   0.660   2.931   1.247 -2.5836 -1.8350 -1.0846
   92GLOH   H08 9459   0.790   2.919   1.360 -1.0787  0.1680  3.1895
   92GLOH    C2 9460   0.601   2.880   1.449  0.0133  1.2878 -0.1685
   92GLOH   H04 9461   0.516   2.818   1.431  1.6406 -1.8175  1.8960
   92GLOH    O2 9462   0.645   2.836   1.580  0.0956  0.4627 -0.0548
   92GLOH   H05 9463   0.642   2.732   1.582  1.8648 -0.2767  1.9047
   92GLOH    C3 9464   0.563   3.028   1.470 -0.9179 -0.7349 -1.2079
   92GLOH   H06 9465   0.658   3.094   1.471  1.4709 -0.1525 -0.2878
   92GLOH   H07 9466   0.519   3.052   1.568 -0.8732  1.9811 -0.6439
   92GLOH    O3 9467   0.460   3.068   1.379 -0.3834 -0.2179 -0.2265
   92GLOH   H01 9468   0.370   3.041   1.411 -0.4041 -2.1984 -0.7847
   93GLOH   H03 9469   9.558   8.572   8.557 -1.0242 -1.2355  0.0116
   93GLOH    O1 9470   9.590   8.519   8.628 -0.7021 -0.5456 -0.8716
   93GLOH    C1 9471   9.730   8.524   8.630  0.1127 -0.6278  1.0450
   93GLOH   H02 9472   9.766   8.503   8.530 -2.2153  1.9509  0.2958
   93GLOH   H08 9473   9.781   8.450   8.692  0.2061  0.1045 -0.1511
   93GLOH    C2 9474   9.775   8.659   8.679  0.6260 -0.5602  0.3222
   93GLOH   H04 9475   9.880   8.642   8.655  0.9885  0.9862 -0.2487
   93GLOH    O2 9476   9.725   8.761   8.588  0.2000  0.0627 -0.4214
   93GLOH   H05 9477   9.709   8.844   8.645 -0.0846  0.0339 -1.0979
   93GLOH    C3 9478   9.746   8.677   8.825  0.2113 -0.3423 -0.3913
   93GLOH   H06 9479   9.781   8.586   8.875  3.2824 -1.3523 -1.9763
   93GLOH   H07 9480   9.634   8.687   8.846  0.0783  1.8244  0.3018
   93GLOH    O3 9481   9.808   8.799   8.876  0.0893 -0.5041 -0.1894
   93GLOH   H01 9482   9.748   8.876   8.867 -0.3461  2.0546 -0.4208
   94GLOH   H03 9483   4.686   1.229   2.107 -0.1059 -0.2073 -0.6255
   94GLOH    O1 9484   4.720   1.200   2.021 -0.0190 -0.7725 -0.2417
   94GLOH    C1 9485   4.843   1.119   2.034 -0.2170  0.0811 -0.8406
   94GLOH   H02 9486   4.809   1.015   2.021  0.6534  0.0680  0.5537
   94GLOH   H08 9487   4.882   1.142   2.140  0.6879  0.4483  2.8077
   94GLOH    C2 9488   4.953   1.165   1.942  0.0165  0.2759 -0.8624
   94GLOH   H04 9489   4.909   1.188   1.847  0.9065 -3.5321 -0.6122
   94GLOH    O2 9490   5.026   1.280   1.982 -0.3751  0.4629 -0.0853
   94GLOH   H05 9491   4.970   1.331   2.047 -1.3050  0.9782 -1.6212
   94GLOH    C3 9492   5.045   1.046   1.923  0.3250  0.2025 -0.2648
   94GLOH   H06 9493   5.101   1.025   2.009 -1.4991  0.6776 -2.0860
   94GLOH   H07 9494   5.118   1.089   1.856  4.3839  0.7991 -1.1165
   94GLOH    O3 9495   4.993   0.918   1.877  0.2621 -0.1240 -0.5030
   94GLOH   H01 9496   4.964   0.926   1.781 -1.2466 -1.3595 -1.7388
   95GLOH   H03 9497   5.923   0.393   1.483 -0.3079 -2.7082 -1.8536
   95GLOH    O1 9498   5.824   0.409   1.490  0.5023 -0.0360  0.2324
   95GLOH    C1 9499   5.782   0.521   1.408 -0.1473 -1.3307  0.3896
   95GLOH   H02 9500   5.709   0.567   1.469 -2.2020 -0.2995 -1.1018
   95GLOH   H08 9501   5.735   0.481   1.323 -2.7552 -1.2078 -0.2224
   95GLOH    C2 9502   5.884   0.627   1.370  0.0959 -0.0450  0.1478
   95GLOH   H04 9503   5.952   0.582   1.303 -0.4644  3.1645  1.6941
   95GLOH    O2 9504   5.816   0.743   1.312  0.5159  0.1702 -0.3966
   95GLOH   H05 9505   5.861   0.771   1.230  0.0679  0.6932  2.3598
   95GLOH    C3 9506   5.952   0.684   1.500  0.2466 -0.0196  0.3335
   95GLOH   H06 9507   6.019   0.753   1.457  2.1185 -2.4612 -0.2488
   95GLOH   H07 9508   6.018   0.598   1.538  2.2554 -0.8625 -1.6339
   95GLOH    O3 9509   5.868   0.732   1.602  0.2863  0.1073  0.4376
   95GLOH   H01 9510   5.814   0.810   1.565  0.5635  1.0210  0.0570
   96GLOH   H03 9511   1.821   2.776   2.264 -0.2406  3.5015 -1.2594
   96GLOH    O1 9512   1.852   2.711   2.192 -0.0535 -0.4914  0.1928
   96GLOH    C1 9513   1.855   2.772   2.058 -0.7722 -0.8764  0.6041
   96GLOH   H02 9514   1.910   2.871   2.065 -0.7166 -1.1445  0.5373
   96GLOH   H08 9515   1.750   2.786   2.012  0.3567  0.9052 -0.4730
   96GLOH    C2 9516   1.937   2.674   1.969 -0.0570 -0.0048 -0.1349
   96GLOH   H04 9517   1.896   2.574   1.959  2.2030 -0.8549 -1.0137
   96GLOH    O2 9518   1.952   2.730   1.839 -0.5162 -0.0684  0.0125
   96GLOH   H05 9519   1.951   2.655   1.773 -0.8498  0.9806  0.4996
   96GLOH    C3 9520   2.085   2.650   2.021  0.3232 -1.1953  0.5786
   96GLOH   H06 9521   2.148   2.735   1.993  0.5137  0.1848 -2.1485
   96GLOH   H07 9522   2.130   2.565   1.975  1.8006 -1.3746 -0.0674
   96GLOH    O3 9523   2.090   2.636   2.164 -0.3796  0.0507 -0.0413
   96GLOH   H01 9524   2.001   2.674   2.187 -1.5097  0.7420  0.2721
   97GLOH   H03 9525   4.708   5.617   3.133 -2.4751 -0.5034  1.8344
   97GLOH    O1 9526   4.643   5.632   3.204  0.1466  0.6703 -0.4978
   97GLOH    C1 9527   4.659   5.520   3.289 -0.4807  0.3184  0.1345
   97GLOH   H02 9528   4.615   5.522   3.388  1.6567 -1.9854 -3.1510
   97GLOH   H08 9529   4.770   5.520   3.304  0.5678 -0.0690 -0.7885
   97GLOH    C2 9530   4.616   5.384   3.227 -0.9619  0.6672  0.0391
   97GLOH   H04 9531   4.654   5.373   3.126  1.2475  0.1727  2.6985
   97GLOH    O2 9532   4.670   5.277   3.300  0.6343  0.2304  0.1949
   97GLOH   H05 9533   4.642   5.192   3.250  0.9588 -0.2248 -1.7630
   97GLOH    C3 9534   4.463   5.373   3.230 -0.3548 -1.1010  1.1094
   97GLOH   H06 9535   4.424   5.452   3.155  1.0442  0.0716 -1.5223
   97GLOH   H07 9536   4.427   5.401   3.334 -0.6300  0.6146 -1.5515
   97GLOH    O3 9537   4.408   5.250   3.184 -0.3465  0.0150  0.6817
   97GLOH   H01 9538   4.392   5.193   3.264 -1.0747 -0.3710  2.1397
   98GLOH   H03 9539   5.809   9.730   9.367  4.0586 -0.1416 -1.3238
   98GLOH    O1 9540   5.862   9.809   9.381 -0.1315 -0.1364  0.5679
   98GLOH    C1 9541   5.995   9.767   9.350  0.2379  0.1624  0.2757
   98GLOH   H02 9542   6.027   9.688   9.414 -0.4881  3.0119 -1.7418
   98GLOH   H08 9543   6.067   9.845   9.372 -0.9823  2.5260  0.8950
   98GLOH    C2 9544   5.998   9.704   9.213  0.0144 -0.1823 -0.1514
   98GLOH   H04 9545   5.966   9.783   9.141 -2.0883  1.5001 -0.0274
   98GLOH    O2 9546   6.131   9.686   9.174 -0.1994  0.0418  0.4673
   98GLOH   H05 9547   6.146   9.608   9.113  0.8435  1.9624 -0.3808
   98GLOH    C3 9548   5.910   9.580   9.205  0.1298 -0.2604 -0.1029
   98GLOH   H06 9549   5.972   9.508   9.258 -1.0329 -1.0362  1.2988
   98GLOH   H07 9550   5.889   9.547   9.099  1.8569  2.7899  0.9784
   98GLOH    O3 9551   5.786   9.598   9.271  0.0316 -0.1791 -0.4581
   98GLOH   H01 9552   5.763   9.515   9.306  2.1007  3.3063 -2.0293
   99GLOH   H03 9553   1.516   9.810   8.540 -1.0870 -0.9635 -2.3025
   99GLOH    O1 9554   1.612   9.801   8.524  0.4032  0.9784 -0.3256
   99GLOH    C1 9555   1.637   9.833   8.390  0.1790  0.1730  0.3774
   99GLOH   H02 9556   1.598   9.934   8.368  1.5509  3.0833  1.6601
   99GLOH   H08 9557   1.601   9.762   8.318 -1.1658  0.6739 -0.8564
   99GLOH    C2 9558   1.788   9.849   8.359 -0.2088 -0.4009 -0.0179
   99GLOH   H04 9559   1.854   9.761   8.385 -0.1870 -1.8388 -1.3673
   99GLOH    O2 9560   1.804   9.867   8.216  0.3302  0.1065  0.1042
   99GLOH   H05 9561   1.826   9.781   8.174  1.2191  0.9397 -1.8615
   99GLOH    C3 9562   1.852   9.971   8.436  0.6397 -0.1732 -0.8208
   99GLOH   H06 9563   1.805  10.066   8.396 -2.5980  2.5603  0.9373
   99GLOH   H07 9564   1.962   9.980   8.428  1.1670 -0.1546  2.0326
   99GLOH    O3 9565   1.811   9.954   8.577 -0.8262 -0.4701 -0.7583
   99GLOH   H01 9566   1.730   9.895   8.576  1.7024  1.8277  0.6278
  100GLOH   H03 9567   2.122   9.728   6.511 -0.4012  3.2611 -0.7385
  100GLOH    O1 9568   2.043   9.707   6.455 -0.2626  0.1466 -0.0322
  100GLOH    C1 9569   2.081   9.722   6.320 -0.3808  0.4032  0.3841
  100GLOH   H02 9570   2.136   9.638   6.284  1.3126 -2.0842 -1.1457
  100GLOH   H08 9571   2.139   9.809   6.301 -0.5960 -0.0551 -1.3649
  100GLOH    C2 9572   1.951   9.744   6.243  0.9062 -0.3066 -0.3137
  100GLOH   H04 9573   1.888   9.824   6.286 -1.3272  1.0672  1.0119
  100GLOH    O2 9574   1.972   9.773   6.097  0.4030 -0.3888 -0.3705
  100GLOH   H05 9575   1.966   9.692   6.038 -1.6342  2.5964 -0.2503
  100GLOH    C3 9576   1.860   9.616   6.260  0.2499  0.5542  0.3265
  100GLOH   H06 9577   1.852   9.590   6.364 -0.7315  0.0296 -2.5434
  100GLOH   H07 9578   1.919   9.534   6.226 -1.5381 -1.2895  0.6598
  100GLOH    O3 9579   1.723   9.606   6.207  0.3922  0.4274  0.4784
  100GLOH   H01 9580   1.681   9.528   6.260 -3.2922 -2.1522  1.6688
  101GLOH   H03 9581   5.054   7.846   3.582  1.5620  0.7797 -0.8964
  101GLOH    O1 9582   4.982   7.911   3.601 -0.5719 -1.0748 -0.4969
  101GLOH    C1 9583   4.894   7.885   3.713  0.2251  0.7973  0.0182
  101GLOH   H02 9584   4.848   7.977   3.747  0.5163  1.8138 -0.5302
  101GLOH   H08 9585   4.948   7.846   3.802 -1.1945  0.1230 -2.3058
  101GLOH    C2 9586   4.790   7.782   3.683 -0.3128  0.0197 -0.2629
  101GLOH   H04 9587   4.836   7.688   3.637 -0.1740 -1.1211 -0.9565
  101GLOH    O2 9588   4.733   7.748   3.808  0.5748 -0.7846 -0.1254
  101GLOH   H05 9589   4.756   7.651   3.809  0.1852 -1.8532 -0.9555
  101GLOH    C3 9590   4.698   7.844   3.575 -0.3958  0.2890 -0.0466
  101GLOH   H06 9591   4.671   7.942   3.610  0.3575  2.9997 -3.8612
  101GLOH   H07 9592   4.603   7.785   3.582 -0.9779  0.0299 -0.5399
  101GLOH    O3 9593   4.745   7.852   3.440 -0.5536  0.0562  0.3987
  101GLOH   H01 9594   4.814   7.781   3.429 -2.0829  1.4564  0.1699
  102GLOH   H03 9595   1.937   4.388   8.522  2.0615 -0.0967 -2.7590
  102GLOH    O1 9596   1.963   4.448   8.599 -0.2518 -0.7289  0.7158
  102GLOH    C1 9597   2.066   4.540   8.554 -0.2212 -0.4834 -0.0273
  102GLOH   H02 9598   2.037   4.624   8.489  2.1994  2.7960  1.4186
  102GLOH   H08 9599   2.135   4.484   8.499  0.1552  0.0029  3.0280
  102GLOH    C2 9600   2.141   4.609   8.664 -0.7772  0.5647  0.0199
  102GLOH   H04 9601   2.226   4.676   8.629 -0.2393 -0.8018  1.5880
  102GLOH    O2 9602   2.045   4.685   8.736  0.6942 -0.5086  0.3509
  102GLOH   H05 9603   1.969   4.629   8.774 -2.1459  1.9962 -0.3595
  102GLOH    C3 9604   2.216   4.507   8.746 -0.5826  0.4565 -0.3782
  102GLOH   H06 9605   2.288   4.552   8.808 -1.8851  1.2636  0.0141
  102GLOH   H07 9606   2.269   4.437   8.683  2.0722  1.5957  2.3444
  102GLOH    O3 9607   2.127   4.436   8.832 -0.3403 -0.9796 -0.0329
  102GLOH   H01 9608   2.077   4.379   8.776  0.9475  0.1171  1.8410
  103GLOH   H03 9609   8.062   4.765   3.878 -0.2453  0.3244 -0.0914
  103GLOH    O1 9610   8.158   4.783   3.908  0.0382 -0.0698 -0.3880
  103GLOH    C1 9611   8.247   4.673   3.887  0.0195 -0.9673  0.3970
  103GLOH   H02 9612   8.333   4.713   3.830  0.3415  0.7332 -0.7665
  103GLOH   H08 9613   8.199   4.598   3.820  0.1482  1.2541 -0.4984
  103GLOH    C2 9614   8.303   4.614   4.018 -0.1997 -0.2205 -0.1840
  103GLOH   H04 9615   8.307   4.702   4.083  0.2409  0.4388 -1.0486
  103GLOH    O2 9616   8.214   4.509   4.076 -0.1053 -0.4968  0.1852
  103GLOH   H05 9617   8.257   4.453   4.136 -0.1695  2.0952 -3.9753
  103GLOH    C3 9618   8.440   4.560   4.014 -0.2347  0.2754 -0.4692
  103GLOH   H06 9619   8.447   4.469   3.950 -0.5468 -1.9391  1.8086
  103GLOH   H07 9620   8.470   4.524   4.109 -0.0278 -1.9382 -0.2990
  103GLOH    O3 9621   8.529   4.670   3.982 -0.0891  0.3006  0.0918
  103GLOH   H01 9622   8.614   4.633   3.933  1.6933  0.7631 -2.5428
  104GLOH   H03 9623   9.091   1.625   1.051 -0.2631  1.0978 -3.7506
  104GLOH    O1 9624   9.028   1.558   1.009 -0.2065 -0.0724 -0.3487
  104GLOH    C1 9625   8.898   1.593   1.060  0.0392 -0.0022  0.4475
  104GLOH   H02 9626   8.860   1.667   0.987 -1.0854 -0.5799  0.3204
  104GLOH   H08 9627   8.915   1.654   1.151  1.6362 -0.3401 -2.3579
  104GLOH    C2 9628   8.795   1.474   1.065  0.7127  0.5002 -0.1773
  104GLOH   H04 9629   8.837   1.391   1.117 -0.5540  1.0772 -1.4228
  104GLOH    O2 9630   8.679   1.527   1.134 -0.4964 -0.3867 -0.2235
  104GLOH   H05 9631   8.710   1.605   1.188  1.2228 -1.8224  1.4057
  104GLOH    C3 9632   8.760   1.422   0.925 -0.6465 -0.6326  0.0042
  104GLOH   H06 9633   8.692   1.337   0.932  3.0932  1.1550  1.0348
  104GLOH   H07 9634   8.851   1.368   0.891 -0.9646 -0.5099  1.1382
  104GLOH    O3 9635   8.716   1.533   0.844 -0.1756 -0.1717 -0.9439
  104GLOH   H01 9636   8.612   1.534   0.838 -1.5971 -0.7873  2.0139
  105GLOH   H03 9637   2.265   1.533   1.849  2.1953  1.1027  0.1067
  105GLOH    O1 9638   2.259   1.474   1.773 -0.3069  0.5572 -0.0739
  105GLOH    C1 9639   2.383   1.477   1.701 -1.1133  0.3874  0.2644
  105GLOH   H02 9640   2.374   1.449   1.590  0.6247 -0.7088  1.2296
  105GLOH   H08 9641   2.448   1.404   1.743  2.8241  0.2883  0.8538
  105GLOH    C2 9642   2.458   1.611   1.720  0.7390  0.0209 -1.1003
  105GLOH   H04 9643   2.492   1.630   1.825  0.5197 -0.1892  0.1866
  105GLOH    O2 9644   2.560   1.621   1.627  0.1453 -0.3631 -0.0170
  105GLOH   H05 9645   2.596   1.721   1.629  0.9128 -0.8978  0.8844
  105GLOH    C3 9646   2.350   1.722   1.687  0.8456 -0.2020 -0.1729
  105GLOH   H06 9647   2.382   1.825   1.720  1.1518 -1.9978  1.5852
  105GLOH   H07 9648   2.263   1.702   1.747  0.6008 -0.2951  0.9187
  105GLOH    O3 9649   2.308   1.726   1.545 -0.2936 -0.1474  0.1699
  105GLOH   H01 9650   2.389   1.750   1.490 -2.2775  1.8351 -0.7460
  106GLOH   H03 9651   8.206   1.863   6.676 -1.5863 -4.1969  0.3871
  106GLOH    O1 9652   8.187   1.871   6.775  0.2723  0.1429 -0.2022
  106GLOH    C1 9653   8.112   1.992   6.799  0.2381  0.3419  0.2922
  106GLOH   H02 9654   8.173   2.077   6.779 -0.1981 -0.2459  0.3527
  106GLOH   H08 9655   8.089   2.000   6.903  0.5080  1.9658  2.9724
  106GLOH    C2 9656   7.982   2.012   6.712 -0.5283  0.1266 -0.7638
  106GLOH   H04 9657   8.019   2.026   6.608  0.9637  1.6386 -0.7784
  106GLOH    O2 9658   7.891   1.901   6.713  0.3883 -0.2113 -0.2706
  106GLOH   H05 9659   7.850   1.884   6.622  1.2944  1.2620 -2.7203
  106GLOH    C3 9660   7.915   2.142   6.759 -0.5392  0.2026  0.9839
  106GLOH   H06 9661   7.878   2.129   6.862 -0.6891  1.6225 -2.8711
  106GLOH   H07 9662   7.817   2.156   6.709  0.3394 -2.3299 -2.3066
  106GLOH    O3 9663   7.997   2.261   6.745  0.5755 -0.1236 -0.2156
  106GLOH   H01 9664   7.936   2.339   6.746  1.5385 -0.2706  1.5448
  107GLOH   H03 9665   1.043   4.126   8.128  0.8398  0.3089 -0.2103
  107GLOH    O1 9666   0.978   4.080   8.190 -1.4682  0.5954  0.1685
  107GLOH    C1 9667   0.854   4.148   8.192 -0.1234  0.4319  0.5667
  107GLOH   H02 9668   0.873   4.253   8.154 -1.1644 -1.7057 -0.5347
  107GLOH   H08 9669   0.815   4.162   8.290 -0.6887  0.4448 -2.3402
  107GLOH    C2 9670   0.745   4.096   8.094 -0.3453 -1.0789 -0.3283
  107GLOH   H04 9671   0.811   4.072   8.011  0.2777  1.9540 -1.9863
  107GLOH    O2 9672   0.668   3.980   8.125  0.3149  0.7023 -0.0937
  107GLOH   H05 9673   0.668   3.973   8.222 -0.7877 -0.3499 -1.9429
  107GLOH    C3 9674   0.642   4.207   8.085 -0.3073  0.1404 -0.6253
  107GLOH   H06 9675   0.599   4.224   8.188  0.6597 -0.3932  1.2377
  107GLOH   H07 9676   0.559   4.162   8.031  0.7268 -0.1386  1.7729
  107GLOH    O3 9677   0.688   4.333   8.032 -0.0205 -0.5092 -0.6928
  107GLOH   H01 9678   0.598   4.381   8.018 -1.4110 -1.9141  0.1522
  108GLOH   H03 9679   7.768   2.475   6.349  2.0795 -1.5161  4.2510
  108GLOH    O1 9680   7.794   2.559   6.397 -0.6253  0.1381 -0.2604
  108GLOH    C1 9681   7.795   2.682   6.329 -0.6189 -0.3880 -0.1933
  108GLOH   H02 9682   7.735   2.747   6.397  0.2393 -1.0173 -0.9472
  108GLOH   H08 9683   7.736   2.683   6.242  0.4763 -2.2206  1.7731
  108GLOH    C2 9684   7.937   2.737   6.303 -0.1206  0.6828 -0.1191
  108GLOH   H04 9685   8.002   2.668   6.244  1.6592  0.1628  1.7478
  108GLOH    O2 9686   7.932   2.854   6.222  0.8719  0.0471 -0.5501
  108GLOH   H05 9687   7.883   2.849   6.142  1.3935 -0.2318  4.4009
  108GLOH    C3 9688   8.012   2.763   6.435  0.1237 -0.5450 -0.6331
  108GLOH   H06 9689   7.952   2.835   6.495 -0.8795 -1.4506  0.4360
  108GLOH   H07 9690   8.115   2.795   6.421 -2.5044 -1.1945 -1.1609
  108GLOH    O3 9691   8.009   2.647   6.521  0.1774  0.2060  0.1058
  108GLOH   H01 9692   7.921   2.603   6.497  0.1678 -1.9030 -3.8236
  109GLOH   H03 9693   9.720   2.401   2.749 -0.5878 -1.1236 -0.7502
  109GLOH    O1 9694   9.737   2.348   2.666 -0.4342 -0.1804  0.3872
  109GLOH    C1 9695   9.636   2.363   2.570 -0.3952 -0.4847  0.1670
  109GLOH   H02 9696   9.553   2.320   2.620 -1.9525  1.4423  0.9421
  109GLOH   H08 9697   9.655   2.306   2.482  0.7021  0.4884  0.9051
  109GLOH    C2 9698   9.595   2.510   2.538  0.1882  0.2736  0.2371
  109GLOH   H04 9699   9.512   2.503   2.455  0.7797  2.6238 -1.8383
  109GLOH    O2 9700   9.541   2.572   2.653 -0.5105 -0.6624  0.2323
  109GLOH   H05 9701   9.508   2.659   2.620 -2.0818  0.0165 -1.8993
  109GLOH    C3 9702   9.720   2.584   2.481  0.4180  0.2263 -0.0697
  109GLOH   H06 9703   9.798   2.588   2.558 -1.9122  0.6768  1.3892
  109GLOH   H07 9704   9.693   2.686   2.470 -0.5915 -1.2202  1.6304
  109GLOH    O3 9705   9.760   2.519   2.352  0.0171  0.0461  0.6020
  109GLOH   H01 9706   9.792   2.426   2.364 -2.2425 -2.2179 -1.8206
  110GLOH   H03 9707   8.194   8.886   4.656 -2.4986 -1.5003  0.5360
  110GLOH    O1 9708   8.253   8.962   4.680  0.7615  0.1011 -0.2349
  110GLOH    C1 9709   8.363   8.911   4.746 -0.4084 -0.7046  0.2995
  110GLOH   H02 9710   8.450   8.970   4.723  0.3647  2.5360 -1.2969
  110GLOH   H08 9711   8.381   8.808   4.711  1.7686 -0.5079 -0.5429
  110GLOH    C2 9712   8.342   8.900   4.898  0.1500  0.2405 -0.1628
  110GLOH   H04 9713   8.317   9.002   4.939 -0.7532  0.8925  1.0656
  110GLOH    O2 9714   8.231   8.813   4.938  0.7091 -0.4872 -0.8682
  110GLOH   H05 9715   8.175   8.786   4.863  0.1408  1.3395 -0.0886
  110GLOH    C3 9716   8.479   8.848   4.950  0.3477 -0.6977 -0.0615
  110GLOH   H06 9717   8.493   8.746   4.906 -0.0338 -0.0687 -1.5319
  110GLOH   H07 9718   8.482   8.835   5.056 -2.3347  0.1588  1.8900
  110GLOH    O3 9719   8.593   8.933   4.913 -0.3926 -0.2386  0.3575
  110GLOH   H01 9720   8.680   8.893   4.943  1.2239 -0.6783 -1.8066
  111GLOH   H03 9721   1.470   3.972   8.422 -1.0885  0.9729 -1.6293
  111GLOH    O1 9722   1.400   3.986   8.490  0.4837 -0.4663 -1.1348
  111GLOH    C1 9723   1.297   4.071   8.431  0.4729  0.2050  0.0313
  111GLOH   H02 9724   1.279   4.031   8.329 -1.5519 -0.9813  1.1188
  111GLOH   H08 9725   1.330   4.170   8.422 -1.4616  2.1500  1.2623
  111GLOH    C2 9726   1.169   4.068   8.510  0.4217 -0.5451 -0.6142
  111GLOH   H04 9727   1.192   4.083   8.616 -1.8826  2.4500 -1.0160
  111GLOH    O2 9728   1.090   4.182   8.470 -0.4145 -0.2605  0.2168
  111GLOH   H05 9729   1.010   4.184   8.535  1.2605 -0.3000  0.1994
  111GLOH    C3 9730   1.093   3.932   8.492 -0.4384  0.3336 -0.6496
  111GLOH   H06 9731   1.002   3.948   8.555 -0.6792  0.4282 -0.0414
  111GLOH   H07 9732   1.149   3.847   8.538  1.9895 -2.8115 -2.1951
  111GLOH    O3 9733   1.049   3.897   8.357 -0.0191  0.3517 -0.0386
  111GLOH   H01 9734   1.000   3.967   8.314  0.7399 -1.6514  1.4077
  112GLOH   H03 9735   0.383   9.041   2.791 -0.9927  0.5004 -2.3914
  112GLOH    O1 9736   0.304   9.053   2.729 -0.4586  0.3127  0.0845
  112GLOH    C1 9737   0.271   8.928   2.661  0.6350  0.0670 -0.5221
  112GLOH   H02 9738   0.365   8.884   2.619  3.0454 -3.5149  1.8682
  112GLOH   H08 9739   0.204   8.940   2.573  1.3541  0.9521 -2.7721
  112GLOH    C2 9740   0.200   8.828   2.757  0.2056  0.6622  0.2725
  112GLOH   H04 9741   0.107   8.878   2.792 -2.4550 -2.5119 -2.7550
  112GLOH    O2 9742   0.160   8.710   2.688  0.7462 -0.0442  0.2236
  112GLOH   H05 9743   0.069   8.688   2.710 -3.0332 -4.6333 -1.4218
  112GLOH    C3 9744   0.294   8.790   2.876 -0.0947  0.1098 -0.4367
  112GLOH   H06 9745   0.255   8.696   2.919  1.9193 -0.4564 -2.0060
  112GLOH   H07 9746   0.290   8.867   2.956  0.2434  0.1753  1.0400
  112GLOH    O3 9747   0.431   8.767   2.842  0.5780 -0.1511  0.4450
  112GLOH   H01 9748   0.442   8.687   2.788  0.6272 -0.0444 -0.1959
  113GLOH   H03 9749   5.886   2.440   5.170  0.3001  4.2551  1.5159
  113GLOH    O1 9750   5.853   2.464   5.081  0.2853  0.4323  0.2953
  113GLOH    C1 9751   5.764   2.574   5.096  0.6414 -0.8026  1.0038
  113GLOH   H02 9752   5.709   2.593   5.007  1.9162  1.1803 -1.6215
  113GLOH   H08 9753   5.828   2.663   5.096 -3.8338  0.1332  0.4443
  113GLOH    C2 9754   5.680   2.579   5.224 -0.4130  0.0133 -0.0166
  113GLOH   H04 9755   5.606   2.497   5.218  2.4127  2.0734 -2.2903
  113GLOH    O2 9756   5.750   2.560   5.342  0.0798 -0.4997 -0.3470
  113GLOH   H05 9757   5.810   2.481   5.347  0.4004  2.2393  1.5923
  113GLOH    C3 9758   5.591   2.703   5.235 -0.5406  0.9884 -0.7360
  113GLOH   H06 9759   5.645   2.784   5.261  2.6845 -2.3258  1.9752
  113GLOH   H07 9760   5.524   2.701   5.320  2.6227  1.3825 -1.4165
  113GLOH    O3 9761   5.518   2.728   5.119 -0.1297  0.1574  0.1085
  113GLOH   H01 9762   5.463   2.649   5.088 -1.2862  0.2793 -0.0073
  114GLOH   H03 9763   5.321   0.910   4.432  2.1533  0.6193 -1.0121
  114GLOH    O1 9764   5.418   0.909   4.426  0.0051 -0.5630 -0.5021
  114GLOH    C1 9765   5.484   1.014   4.349  0.3075 -0.2398 -0.4639
  114GLOH   H02 9766   5.405   1.057   4.279 -0.2674  3.3103  0.1464
  114GLOH   H08 9767   5.568   0.980   4.288  0.1444 -1.2697  1.3715
  114GLOH    C2 9768   5.524   1.141   4.425 -0.5080 -0.4082 -0.2123
  114GLOH   H04 9769   5.593   1.112   4.510  2.3241 -1.3542 -0.3148
  114GLOH    O2 9770   5.595   1.230   4.332 -0.5270 -0.3834 -0.6840
  114GLOH   H05 9771   5.651   1.172   4.267  0.1564  0.9844 -1.6061
  114GLOH    C3 9772   5.393   1.217   4.474  0.0658 -0.2909  0.8476
  114GLOH   H06 9773   5.414   1.303   4.543  1.4536 -0.0312 -0.3035
  114GLOH   H07 9774   5.355   1.145   4.548  1.0689  1.9173 -2.7864
  114GLOH    O3 9775   5.290   1.253   4.379 -0.2857 -0.2633 -0.3888
  114GLOH   H01 9776   5.231   1.321   4.418  1.2870 -0.9823  0.5106
  115GLOH   H03 9777   4.902   6.371   0.520  0.9507  2.2967  0.0010
  115GLOH    O1 9778   4.882   6.359   0.618  0.6008 -0.2312 -0.5915
  115GLOH    C1 9779   4.990   6.418   0.687 -0.6817 -0.9152  0.3822
  115GLOH   H02 9780   5.065   6.344   0.701 -0.1758  4.2517  0.4335
  115GLOH   H08 9781   4.964   6.441   0.797 -0.6337  1.2368  2.7978
  115GLOH    C2 9782   5.042   6.552   0.631  0.0911 -0.2845  0.1683
  115GLOH   H04 9783   5.054   6.561   0.518 -0.5372  0.9396 -1.0646
  115GLOH    O2 9784   4.942   6.654   0.669  0.0288 -0.0525 -0.1633
  115GLOH   H05 9785   4.853   6.608   0.683 -2.6865 -1.1768  1.2211
  115GLOH    C3 9786   5.174   6.596   0.694  0.5035 -0.0635  0.6087
  115GLOH   H06 9787   5.162   6.598   0.801  1.7380  0.1275  2.5122
  115GLOH   H07 9788   5.191   6.699   0.671 -0.2648 -2.5970  2.4214
  115GLOH    O3 9789   5.278   6.511   0.649  0.0811 -0.1877  0.1625
  115GLOH   H01 9790   5.344   6.514   0.722  0.7406  2.8880 -0.5384
  116GLOH   H03 9791   5.488   5.465   7.182 -0.6919  0.5014  1.5060
  116GLOH    O1 9792   5.417   5.497   7.238 -0.1825  0.0978 -0.1931
  116GLOH    C1 9793   5.476   5.579   7.339 -1.0492 -0.8726  0.1569
  116GLOH   H02 9794   5.533   5.666   7.301  0.7086 -1.1025 -0.3101
  116GLOH   H08 9795   5.556   5.520   7.388 -1.1569  2.2024 -1.0471
  116GLOH    C2 9796   5.400   5.643   7.453 -0.0620 -0.6200  0.3985
  116GLOH   H04 9797   5.367   5.555   7.514  2.4233 -2.0728 -2.1625
  116GLOH    O2 9798   5.471   5.742   7.532  0.4702 -0.0788  0.3499
  116GLOH   H05 9799   5.573   5.734   7.520 -0.7460 -0.4571  0.2325
  116GLOH    C3 9800   5.265   5.705   7.398 -0.0152  0.6022 -0.4166
  116GLOH   H06 9801   5.296   5.776   7.332 -0.1508 -1.7812 -0.8013
  116GLOH   H07 9802   5.211   5.764   7.476  0.2131  0.3292  1.0465
  116GLOH    O3 9803   5.188   5.600   7.341  0.5655  0.1970 -0.1737
  116GLOH   H01 9804   5.245   5.562   7.268 -0.9619 -1.7630  1.3841
  117GLOH   H03 9805   5.034   3.122   3.065  2.0359 -0.6872 -0.0426
  117GLOH    O1 9806   4.935   3.138   3.080 -0.2019 -0.2403  0.0746
  117GLOH    C1 9807   4.910   3.248   2.988 -0.0893 -0.0676 -0.3191
  117GLOH   H02 9808   4.915   3.214   2.885  0.4697  0.9955  0.4813
  117GLOH   H08 9809   4.975   3.330   3.006 -1.3446 -0.7470 -0.1041
  117GLOH    C2 9810   4.770   3.298   2.991 -0.4386 -0.3068 -0.7989
  117GLOH   H04 9811   4.751   3.344   3.089 -0.5911  1.8834  2.1565
  117GLOH    O2 9812   4.759   3.412   2.895 -0.1561 -0.2354  0.0732
  117GLOH   H05 9813   4.664   3.437   2.875  1.4241 -0.8273  1.1186
  117GLOH    C3 9814   4.666   3.186   2.952  0.4271 -0.1589  0.2015
  117GLOH   H06 9815   4.690   3.154   2.845  0.0340 -1.0574 -1.0924
  117GLOH   H07 9816   4.568   3.233   2.939 -0.8246  1.9299  0.2315
  117GLOH    O3 9817   4.685   3.078   3.048  0.3000 -0.3240 -0.1642
  117GLOH   H01 9818   4.781   3.074   3.070  1.9318  1.8208 -1.8183
  118GLOH   H03 9819   7.501   6.517   5.647  1.3339 -0.4568  1.1279
  118GLOH    O1 9820   7.560   6.452   5.689 -0.0765  0.2873  0.5433
  118GLOH    C1 9821   7.483   6.377   5.786 -0.2086 -0.3194 -0.5038
  118GLOH   H02 9822   7.545   6.360   5.867 -0.2278 -1.4930 -1.2130
  118GLOH   H08 9823   7.452   6.280   5.744 -0.1827 -1.7905  0.4857
  118GLOH    C2 9824   7.342   6.428   5.830 -0.5311 -0.1395 -0.9840
  118GLOH   H04 9825   7.277   6.459   5.751  1.4636 -1.3906  1.4505
  118GLOH    O2 9826   7.277   6.315   5.893 -0.3509  0.2753 -0.1052
  118GLOH   H05 9827   7.192   6.346   5.934 -0.6035  0.7084 -0.4104
  118GLOH    C3 9828   7.360   6.549   5.925 -0.4162  1.0696 -0.0899
  118GLOH   H06 9829   7.416   6.519   6.011  0.2445 -0.0197  0.3710
  118GLOH   H07 9830   7.260   6.573   5.957  1.6294 -2.4577  2.7365
  118GLOH    O3 9831   7.414   6.667   5.867 -0.1548  0.1665  0.1852
  118GLOH   H01 9832   7.397   6.737   5.934  0.5338 -0.5619  1.5321
  119GLOH   H03 9833   4.028   8.213   4.048 -0.8193  1.0532  2.1770
  119GLOH    O1 9834   4.027   8.135   4.107  0.1327 -0.3008  0.4168
  119GLOH    C1 9835   4.142   8.143   4.202 -0.5376 -0.4599  0.2367
  119GLOH   H02 9836   4.116   8.095   4.298 -1.3506 -1.3587  3.5020
  119GLOH   H08 9837   4.159   8.248   4.233  0.6919 -1.4707  2.4844
  119GLOH    C2 9838   4.272   8.080   4.149 -0.1236  0.3182  0.0023
  119GLOH   H04 9839   4.295   8.138   4.064 -1.6720 -2.0306  1.7225
  119GLOH    O2 9840   4.375   8.080   4.249  0.1056 -0.3163 -0.3789
  119GLOH   H05 9841   4.423   8.171   4.252  0.8571  1.9012 -1.1548
  119GLOH    C3 9842   4.260   7.933   4.092 -0.0515  0.7274 -0.0204
  119GLOH   H06 9843   4.247   7.866   4.182  1.1029 -1.9756  0.2941
  119GLOH   H07 9844   4.349   7.913   4.045 -1.4807 -0.4144 -1.4728
  119GLOH    O3 9845   4.151   7.921   4.003 -0.4842 -0.1231 -0.5729
  119GLOH   H01 9846   4.092   7.999   4.025  1.4164  0.8697  1.6336
  120GLOH   H03 9847   0.397   7.569   2.500 -0.5219  0.9477 -1.1718
  120GLOH    O1 9848   0.298   7.579   2.492 -0.2001  0.1055  0.2132
  120GLOH    C1 9849   0.242   7.666   2.593 -0.1264 -0.4382  0.5609
  120GLOH   H02 9850   0.306   7.671   2.678  0.4608 -0.2580  0.6774
  120GLOH   H08 9851   0.145   7.627   2.634  0.1638 -1.3557 -2.4856
  120GLOH    C2 9852   0.209   7.807   2.543  0.1709  0.1243 -0.0021
  120GLOH   H04 9853   0.153   7.860   2.617 -0.4965 -1.3352 -1.5584
  120GLOH    O2 9854   0.322   7.877   2.488  0.0032 -0.7985  0.4632
  120GLOH   H05 9855   0.396   7.863   2.549 -1.1368 -2.5361 -1.9781
  120GLOH    C3 9856   0.112   7.801   2.424  0.6695 -0.3203  0.0077
  120GLOH   H06 9857   0.065   7.900   2.404  1.4988 -3.6542  1.5919
  120GLOH   H07 9858   0.029   7.736   2.456 -0.8817  2.3280 -1.5443
  120GLOH    O3 9859   0.163   7.740   2.308 -0.1986  0.0342 -0.3058
  120GLOH   H01 9860   0.222   7.670   2.343  1.1090 -1.1109 -1.1914
  121ACOH    H4 9861   3.385   6.257   5.002 -0.4075 -0.1000 -0.5757
  121ACOH    O2 9862   3.394   6.281   4.905  0.3625 -0.0897 -0.0009
  121ACOH    C2 9863   3.471   6.390   4.909  0.5313  0.6732 -0.3502
  121ACOH    O1 9864   3.518   6.445   5.010  0.1698 -0.1593  0.0704
  121ACOH    C1 9865   3.499   6.437   4.773  0.6461  0.5696 -0.2484
  121ACOH    H1 9866   3.551   6.368   4.712  1.7145 -0.4643  3.7159
  121ACOH    H2 9867   3.548   6.532   4.770  0.7840  1.3459 -2.4578
  121ACOH    H3 9868   3.399   6.444   4.733 -1.4234 -0.1310 -0.1392
  122ACOH    H4 9869   3.216   6.755   4.973  0.4739 -0.4821  0.7734
  122ACOH    O2 9870   3.302   6.804   4.958 -0.2837 -0.4230  0.3275
  122ACOH    C2 9871   3.310   6.919   5.025  0.2652  0.0394 -0.6392
  122ACOH    O1 9872   3.224   6.999   5.045 -0.0660 -0.1301 -0.3594
  122ACOH    C1 9873   3.455   6.950   5.023 -0.1427  0.3826 -0.1670
  122ACOH    H1 9874   3.517   6.862   4.992 -1.6259  1.2657 -1.7559
  122ACOH    H2 9875   3.483   6.985   5.123 -2.2744 -0.4488 -0.1144
  122ACOH    H3 9876   3.474   7.031   4.954  1.3407 -1.7648  3.7684
  123ACOH    H4 9877   9.261   2.099   3.536 -2.2645 -0.5102  0.3324
  123ACOH    O2 9878   9.270   2.009   3.496  0.2460  0.1504 -0.3208
  123ACOH    C2 9879   9.297   1.923   3.597  0.0468  0.6086 -0.3572
  123ACOH    O1 9880   9.337   1.948   3.713  0.1606 -0.0131  0.3311
  123ACOH    C1 9881   9.284   1.780   3.557  0.4381 -0.3968  0.4897
  123ACOH    H1 9882   9.292   1.771   3.450  0.9997 -0.9437  0.0383
  123ACOH    H2 9883   9.191   1.732   3.597  0.5148  0.0468 -0.0814
  123ACOH    H3 9884   9.363   1.723   3.606  0.2760 -0.1327 -1.0865
  124ACOH    H4 9885   5.183   4.798   5.972  1.7177  0.9051  0.4761
  124ACOH    O2 9886   5.259   4.819   6.025 -0.3085 -0.5369 -0.2498
  124ACOH    C2 9887   5.248   4.741   6.136  0.0547 -0.7409 -0.5643
  124ACOH    O1 9888   5.172   4.649   6.165  0.2534 -0.3628  0.1166
  124ACOH    C1 9889   5.347   4.793   6.231  0.1461  0.2051 -0.3432
  124ACOH    H1 9890   5.409   4.715   6.275  0.8360  2.3818  0.3957
  124ACOH    H2 9891   5.292   4.838   6.307 -0.4211  0.2880 -1.6994
  124ACOH    H3 9892   5.408   4.870   6.183 -1.4530  1.8734 -0.9070
  125ACOH    H4 9893   7.073   4.341   8.368  0.0042 -0.7380 -0.3243
  125ACOH    O2 9894   7.149   4.285   8.390  0.0354  0.0371  0.7976
  125ACOH    C2 9895   7.113   4.169   8.457 -0.3580 -0.6614  0.3798
  125ACOH    O1 9896   7.193   4.121   8.535 -0.5092 -0.6656  0.3105
  125ACOH    C1 9897   6.965   4.139   8.467 -0.4723 -0.0748  0.8201
  125ACOH    H1 9898   6.950   4.035   8.432  2.9211 -0.3800  0.0562
  125ACOH    H2 9899   6.916   4.211   8.398  1.2708  0.6677  2.1138
  125ACOH    H3 9900   6.931   4.141   8.566  1.3222 -1.4633 -1.1641
  126ACOH    H4 9901   4.694   6.723   6.893  0.3645  0.7669 -1.0218
  126ACOH    O2 9902   4.763   6.656   6.909 -0.6228  0.0641  0.0452
  126ACOH    C2 9903   4.886   6.715   6.889 -0.2338  0.0884 -0.5625
  126ACOH    O1 9904   4.914   6.827   6.863  0.8850  0.1421 -0.2127
  126ACOH    C1 9905   4.984   6.611   6.889 -0.3888  0.8209  0.2843
  126ACOH    H1 9906   5.077   6.653   6.866 -0.6468 -0.5034  2.5034
  126ACOH    H2 9907   4.964   6.530   6.816  0.5773 -0.7530  0.1143
  126ACOH    H3 9908   4.990   6.558   6.989 -1.7465 -1.2977  2.4077
  127ACOH    H4 9909   7.956   9.409   0.156  5.2120 -1.0856 -1.1409
  127ACOH    O2 9910   7.902   9.443   0.237 -0.6223  0.7079 -0.3832
  127ACOH    C2 9911   7.775   9.478   0.209  0.3545 -0.4434  0.3540
  127ACOH    O1 9912   7.707   9.452   0.111  0.1263  0.0586 -0.3341
  127ACOH    C1 9913   7.712   9.511   0.343  0.5144  0.4874 -0.2030
  127ACOH    H1 9914   7.736   9.441   0.419  0.6464 -0.2711  0.0114
  127ACOH    H2 9915   7.601   9.530   0.331 -3.2300  1.1805  2.1652
  127ACOH    H3 9916   7.760   9.606   0.374  1.9536  1.9192 -0.4689
  128ACOH    H4 9917   5.278   8.722   2.203 -1.5349 -0.9120 -0.6405
  128ACOH    O2 9918   5.288   8.687   2.297 -0.0858  0.0052  0.7321
  128ACOH    C2 9919   5.363   8.770   2.370  0.1963 -0.2350 -0.1508
  128ACOH    O1 9920   5.412   8.879   2.338  0.0732  0.3887  0.1792
  128ACOH    C1 9921   5.344   8.733   2.515  0.0868 -0.1001 -0.3922
  128ACOH    H1 9922   5.302   8.629   2.525 -0.9451 -0.6629 -1.7255
  128ACOH    H2 9923   5.276   8.804   2.560  0.4464  1.2080 -0.1368
  128ACOH    H3 9924   5.443   8.743   2.562 -0.5987  2.1303  1.4117
  129ACOH    H4 9925   6.526   1.392   2.744 -0.2822 -0.9429  0.9135
  129ACOH    O2 9926   6.533   1.295   2.737  0.1118  0.1431  0.1165
  129ACOH    C2 9927   6.542   1.256   2.861  0.1120  0.5236 -0.5797
  129ACOH    O1 9928   6.598   1.316   2.950  0.4976  0.2341 -0.4158
  129ACOH    C1 9929   6.545   1.102   2.864  0.0731  0.7850 -0.2970
  129ACOH    H1 9930   6.481   1.060   2.943 -0.2336 -0.6849 -0.7319
  129ACOH    H2 9931   6.643   1.055   2.868 -0.1055 -0.3624  0.7994
  129ACOH    H3 9932   6.484   1.074   2.776 -1.3534 -0.5058  0.1752
  130ACOH    H4 9933   7.558   5.905   4.349  3.7074 -0.9589 -1.8056
  130ACOH    O2 9934   7.479   5.963   4.372  0.1042 -0.4174 -0.0295
  130ACOH    C2 9935   7.396   5.969   4.264 -0.6829 -0.2179 -0.2117
  130ACOH    O1 9936   7.397   5.900   4.166  0.5196 -0.1241  0.2835
  130ACOH    C1 9937   7.314   6.098   4.265  0.0161 -0.0432  0.4433
  130ACOH    H1 9938   7.361   6.169   4.196  0.3242 -0.6473 -0.5755
  130ACOH    H2 9939   7.309   6.135   4.368 -0.6331  1.3128  1.9601
  130ACOH    H3 9940   7.210   6.066   4.239 -4.0803 -2.3353  0.5876
  131ACOH    H4 9941   1.926   9.628   7.714  0.7058  1.3323  0.8066
  131ACOH    O2 9942   1.908   9.731   7.715  0.1390  1.0043  0.1819
  131ACOH    C2 9943   1.886   9.764   7.591 -0.2718 -0.7426  0.5223
  131ACOH    O1 9944   1.903   9.692   7.496 -0.0369 -0.2868  0.3583
  131ACOH    C1 9945   1.879   9.906   7.569  0.3287 -0.8558 -0.3392
  131ACOH    H1 9946   1.794   9.940   7.505 -0.1464 -0.1270  2.3577
  131ACOH    H2 9947   1.971   9.952   7.531  1.5873 -0.1975 -1.6521
  131ACOH    H3 9948   1.868   9.960   7.667  1.1253  1.0329 -1.3324
  132ACOH    H4 9949   4.996   8.488   9.831  1.3372  0.5678  0.1581
  132ACOH    O2 9950   5.039   8.507   9.917 -0.2733 -0.4397  0.6244
  132ACOH    C2 9951   5.155   8.567   9.885  0.4985  0.1330 -0.3032
  132ACOH    O1 9952   5.220   8.554   9.784 -0.9393  0.0999 -0.3985
  132ACOH    C1 9953   5.205   8.618  10.018  0.0601 -0.6582  0.3524
  132ACOH    H1 9954   5.147   8.708  10.041  4.4480 -0.6254 -0.7536
  132ACOH    H2 9955   5.314   8.645  10.023  2.1913  0.0361  0.8507
  132ACOH    H3 9956   5.189   8.551  10.103  0.7322 -0.3041 -2.5454
  133ACOH    H4 9957   2.407   7.959   3.572 -1.4189 -1.4338 -1.5481
  133ACOH    O2 9958   2.445   7.924   3.657 -0.5488  0.3160  0.0359
  133ACOH    C2 9959   2.398   7.801   3.666  0.3636 -0.0687 -0.8827
  133ACOH    O1 9960   2.317   7.744   3.592 -0.2873  0.2481  0.2862
  133ACOH    C1 9961   2.444   7.726   3.785  0.0670  0.8297 -0.5928
  133ACOH    H1 9962   2.527   7.771   3.840 -0.7464  0.1248  1.4495
  133ACOH    H2 9963   2.485   7.623   3.756  0.9467 -1.9046 -1.7338
  133ACOH    H3 9964   2.358   7.706   3.851  0.1742 -1.9571  1.1242
  134ACOH    H4 9965   6.885   3.493   7.792 -0.5249  0.1009  1.2840
  134ACOH    O2 9966   6.944   3.444   7.726  0.2945  0.0760  0.1167
  134ACOH    C2 9967   7.064   3.504   7.709  0.8377  0.0418  0.1016
  134ACOH    O1 9968   7.098   3.605   7.773 -0.3170 -0.0453 -0.0843
  134ACOH    C1 9969   7.151   3.422   7.620  0.4525  0.2400  0.7732
  134ACOH    H1 9970   7.230   3.381   7.689  1.5063 -0.5041  2.5799
  134ACOH    H2 9971   7.190   3.481   7.537 -0.0955  1.2315 -1.3132
  134ACOH    H3 9972   7.085   3.348   7.581  0.9482 -0.9848 -3.4991
  135ACOH    H4 9973   5.822   9.939   8.241  1.0612 -1.8352 -1.6180
  135ACOH    O2 9974   5.805   9.937   8.337 -0.1393  0.1594  0.1575
  135ACOH    C2 9975   5.920   9.909   8.393 -0.2189 -0.3255 -0.0608
  135ACOH    O1 9976   6.024   9.951   8.339  0.5608  0.0878 -0.6571
  135ACOH    C1 9977   5.916   9.904   8.542  0.4880 -0.7470  0.3061
  135ACOH    H1 9978   5.991   9.845   8.590 -1.1807  0.7655  0.8341
  135ACOH    H2 9979   5.820   9.874   8.584 -4.1224  1.7060 -0.1676
  135ACOH    H3 9980   5.932  10.005   8.572 -1.0120 -1.3007  2.0185
  136ACOH    H4 9981   4.684   9.554   0.181  2.1189  1.3640  1.8548
  136ACOH    O2 9982   4.735   9.554   0.098  0.0724  0.2046 -0.0616
  136ACOH    C2 9983   4.846   9.486   0.113 -0.4367 -0.1925  0.0481
  136ACOH    O1 9984   4.878   9.407   0.204  0.4623 -0.3728  0.2188
  136ACOH    C1 9985   4.922   9.494  -0.012  0.2774 -0.3269  0.1322
  136ACOH    H1 9986   4.986   9.410  -0.029  1.9090 -1.7658 -1.3513
  136ACOH    H2 9987   4.973   9.592  -0.012  0.5431 -3.9466  0.5780
  136ACOH    H3 9988   4.854   9.491  -0.093  1.4389  0.3089  0.8399
  137ACOH    H4 9989   9.336   3.046   1.307  0.0324 -3.0399 -1.4739
  137ACOH    O2 9990   9.359   3.097   1.228  0.3499  0.3232 -0.5564
  137ACOH    C2 9991   9.291   3.212   1.226  0.0346  0.1304 -0.6123
  137ACOH    O1 9992   9.241   3.270   1.322  0.3752 -0.2480  0.2612
  137ACOH    C1 9993   9.289   3.277   1.091 -0.0499  0.8819 -0.4329
  137ACOH    H1 9994   9.379   3.337   1.085  1.6299 -2.9388 -1.4770
  137ACOH    H2 9995   9.206   3.341   1.080  1.5464 -1.6634  0.3488
  137ACOH    H3 9996   9.287   3.200   1.017 -1.6448  0.9912 -0.6564
  138ACOH    H4 9997   6.765   2.574   5.073  0.4439 -1.1005  2.4239
  138ACOH    O2 9998   6.710   2.530   5.133  0.1631  0.0255 -0.5343
  138ACOH    C2 9999   6.643   2.430   5.081  0.0607 -0.0494  0.4940
  138ACOH    O110000   6.690   2.357   4.992 -0.1156 -0.5079 -0.3192
  138ACOH    C110001   6.537   2.378   5.167  0.2651  0.5630 -0.3508
  138ACOH    H110002   6.572   2.299   5.236  0.7618 -0.8316  1.5176
  138ACOH    H210003   6.449   2.337   5.109 -0.9755  1.8959  0.7919
  138ACOH    H310004   6.509   2.462   5.233  0.6644 -2.2740  0.5900
  139ACOH    H410005   3.979   3.184   7.509 -0.9036 -1.5959 -3.5639
  139ACOH    O210006   4.064   3.196   7.565 -0.1359  0.5279 -0.4829
  139ACOH    C210007   4.154   3.282   7.511  0.2312 -0.6398 -0.3507
  139ACOH    O110008   4.190   3.274   7.394 -0.2619 -0.3358 -0.2055
  139ACOH    C110009   4.259   3.319   7.609 -0.1189  0.3899  0.3160
  139ACOH    H110010   4.347   3.350   7.554  0.4594  0.0018 -3.0744
  139ACOH    H210011   4.272   3.229   7.665 -2.8608  1.1696 -1.2124
  139ACOH    H310012   4.231   3.398   7.672 -2.0041 -3.3671  1.4846
  140ACOH    H410013   7.341   0.863   2.106  0.2794  1.6519  0.3437
  140ACOH    O210014   7.315   0.764   2.098  0.5874 -0.5715  0.2257
  140ACOH    C210015   7.407   0.697   2.026 -0.4298  0.2349  0.0877
  140ACOH    O110016   7.504   0.742   1.970  0.3527  0.2816  0.2371
  140ACOH    C110017   7.368   0.556   2.016  0.4265 -0.1699 -0.0066
  140ACOH    H110018   7.390   0.531   1.913  1.4947  2.8762 -1.3804
  140ACOH    H210019   7.258   0.532   2.026 -3.0610 -2.2632 -0.6841
  140ACOH    H310020   7.416   0.494   2.083 -0.2458  0.3666 -2.1907
  141ACOH    H410021   3.551   7.947   2.877 -0.2934 -1.9970  0.1321
  141ACOH    O210022   3.579   8.022   2.823  0.3059 -0.2164  0.1259
  141ACOH    C210023   3.708   8.007   2.799 -0.3721  0.3330 -0.4183
  141ACOH    O110024   3.794   7.929   2.841 -0.0581  0.1995 -0.5495
  141ACOH    C110025   3.736   8.110   2.698  0.1524  0.5920 -0.3150
  141ACOH    H110026   3.685   8.072   2.613 -2.1011 -0.7029  0.6934
  141ACOH    H210027   3.838   8.120   2.667 -1.6913  1.3700 -0.2403
  141ACOH    H310028   3.694   8.201   2.731  0.8171  0.2079 -1.0820
  142ACOH    H410029   9.506   8.806   7.522 -1.3328  1.0645  3.1229
  142ACOH    O210030   9.581   8.751   7.545 -1.1208  0.7686 -0.1995
  142ACOH    C210031   9.650   8.720   7.432 -0.2340  0.1405  0.3392
  142ACOH    O110032   9.609   8.723   7.316  0.2006  0.0625 -0.2782
  142ACOH    C110033   9.784   8.669   7.468 -0.2395 -0.4405  0.1908
  142ACOH    H110034   9.852   8.667   7.378  2.0322 -0.4863 -1.0239
  142ACOH    H210035   9.769   8.572   7.507  0.3342 -0.4486 -0.1255
  142ACOH    H310036   9.819   8.739   7.541 -1.7033  2.7741 -1.1837
  143ACOH    H410037   5.283   9.658   9.639  0.4850 -0.6065 -1.0950
  143ACOH    O210038   5.250   9.723   9.705  0.0441  0.6724 -0.0858
  143ACOH    C210039   5.262   9.661   9.822 -0.3758 -0.1738  0.0649
  143ACOH    O110040   5.290   9.548   9.858  0.4693 -0.1282  0.0442
  143ACOH    C110041   5.249   9.754   9.936  0.0337 -0.0238  0.3124
  143ACOH    H110042   5.241   9.862   9.913  0.0903 -1.6603 -2.7750
  143ACOH    H210043   5.333   9.734  10.000  0.3106 -2.1365 -2.1802
  143ACOH    H310044   5.153   9.722   9.981 -3.1615  0.0203  1.0723
  144ACOH    H410045   2.167   4.107   6.795 -0.0063  1.3311  3.5219
  144ACOH    O210046   2.102   4.174   6.819 -0.0434 -0.8089  0.2294
  144ACOH    C210047   1.987   4.111   6.837  0.3065 -0.1662 -0.6003
  144ACOH    O110048   1.969   3.989   6.835  0.1423 -0.6198  0.2271
  144ACOH    C110049   1.882   4.198   6.886  0.1994 -0.7869  0.3538
  144ACOH    H110050   1.859   4.163   6.987  0.2372 -0.8127 -0.6049
  144ACOH    H210051   1.799   4.193   6.818 -4.3091  0.3033  0.3324
  144ACOH    H310052   1.917   4.299   6.887 -3.2646  1.8798 -0.3775
  145ACOH    H410053   7.141   5.850   1.461  3.3316 -0.1676  0.0917
  145ACOH    O210054   7.234   5.876   1.443  0.2838 -0.3839 -0.9121
  145ACOH    C210055   7.311   5.781   1.505 -0.9252  0.3445  0.3132
  145ACOH    O110056   7.291   5.662   1.498 -0.2048  0.0915 -0.1691
  145ACOH    C110057   7.450   5.837   1.517 -0.3070  0.3373 -0.3229
  145ACOH    H110058   7.518   5.754   1.513  0.6456 -1.1104 -3.1927
  145ACOH    H210059   7.463   5.872   1.619  1.0927  1.2277 -3.1005
  145ACOH    H310060   7.480   5.905   1.435  0.3586  0.5108  2.1795
  146ACOH    H410061   6.055   0.253   8.516 -2.7683 -0.7519 -1.1505
  146ACOH    O210062   6.019   0.302   8.437 -0.0205 -0.0188 -0.0804
  146ACOH    C210063   6.095   0.278   8.326  0.1836 -0.1792 -0.7634
  146ACOH    O110064   6.208   0.233   8.330 -0.5429  0.2217 -0.9020
  146ACOH    C110065   6.023   0.305   8.200  0.8994  0.0095  0.1169
  146ACOH    H110066   5.933   0.358   8.234  0.6187  0.1524  0.5139
  146ACOH    H210067   6.000   0.209   8.156  0.1579 -0.9661  3.6831
  146ACOH    H310068   6.088   0.364   8.137  0.1542 -1.3096 -0.2117
  147ACOH    H410069   5.283   0.971   3.422 -1.9391  0.0053  0.7297
  147ACOH    O210070   5.241   1.058   3.451 -0.3863  0.1989 -0.6677
  147ACOH    C210071   5.115   1.038   3.505  0.1861 -0.2865 -0.1142
  147ACOH    O110072   5.071   0.930   3.547 -0.3221  0.1991  0.8574
  147ACOH    C110073   5.076   1.176   3.555  0.3771 -0.0346 -0.2171
  147ACOH    H110074   5.045   1.238   3.470 -0.0483  1.7845 -0.6338
  147ACOH    H210075   5.161   1.221   3.607  1.8736  1.4069 -1.6561
  147ACOH    H310076   4.991   1.159   3.624 -0.9858 -0.8282  0.6353
  148ACOH    H410077   6.749   6.748   1.587 -1.8511 -0.5509 -0.3944
  148ACOH    O210078   6.713   6.787   1.506  0.4512 -0.0931  0.0112
  148ACOH    C210079   6.591   6.743   1.477  0.6578 -0.1956 -0.5302
  148ACOH    O110080   6.509   6.710   1.559  0.1177  0.2930  0.6378
  148ACOH    C110081   6.536   6.792   1.354 -0.2380 -0.3508  0.2640
  148ACOH    H110082   6.458   6.853   1.378  2.9056  1.6870 -1.6090
  148ACOH    H210083   6.505   6.697   1.303  4.4128  0.7632 -0.0128
  148ACOH    H310084   6.614   6.840   1.292  0.8277  0.3283  1.6030
  149ACOH    H410085   6.387   1.126   7.437 -1.9769  1.2124  0.2940
  149ACOH    O210086   6.290   1.112   7.432 -0.2050  0.2455  0.1829
  149ACOH    C210087   6.274   0.997   7.499 -0.3818  0.4445  0.3983
  149ACOH    O110088   6.361   0.924   7.550  0.3244 -0.3604  0.1277
  149ACOH    C110089   6.136   0.944   7.511 -0.5970 -0.6369  0.3358
  149ACOH    H110090   6.142   0.840   7.473 -0.3835 -1.0291 -0.4415
  149ACOH    H210091   6.060   1.002   7.455  1.1798 -1.1012  1.8016
  149ACOH    H310092   6.108   0.928   7.615  0.7182 -0.9865  0.3209
  150ACOH    H410093   5.891   5.710   9.346 -0.7820 -0.8143 -1.0882
  150ACOH    O210094   5.833   5.777   9.299 -0.4432 -0.6357  0.1440
  150ACOH    C210095   5.907   5.878   9.257  0.4934  0.0597  0.6450
  150ACOH    O110096   6.027   5.879   9.242  0.5084  0.3304 -0.3192
  150ACOH    C110097   5.824   5.994   9.210 -0.3653  0.2798  0.5684
  150ACOH    H110098   5.820   6.066   9.290  2.1226  0.6981  1.0327
  150ACOH    H210099   5.726   5.955   9.195 -1.4016  1.2095 -0.1348
  150ACOH    H310100   5.863   6.027   9.114 -1.3904  0.6642  1.0978
  151ACOH    H410101   8.118   2.697   6.641  0.4764  1.8587  0.0789
  151ACOH    O210102   8.168   2.751   6.711 -0.0042 -0.0964  0.0048
  151ACOH    C210103   8.188   2.663   6.809 -0.0222 -0.3128  0.3023
  151ACOH    O110104   8.137   2.553   6.825 -0.0927  0.5545 -0.0954
  151ACOH    C110105   8.276   2.724   6.911  0.3054 -0.3271  0.0588
  151ACOH    H110106   8.221   2.806   6.947  3.7807  0.1950  3.4293
  151ACOH    H210107   8.372   2.748   6.877 -1.7284 -0.3535 -2.2126
  151ACOH    H310108   8.292   2.662   6.995 -1.7505 -2.5400  0.6354
  152ACOH    H410109   6.458   1.994   4.781  0.5257 -0.7661  3.3794
  152ACOH    O210110   6.435   1.968   4.689  0.1136 -0.1858 -0.2825
  152ACOH    C210111   6.327   2.048   4.662 -0.7249 -0.2174 -0.9584
  152ACOH    O110112   6.273   2.124   4.742  0.5105 -0.0576 -0.2714
  152ACOH    C110113   6.258   1.997   4.543 -0.7609  0.2866 -0.1137
  152ACOH    H110114   6.218   2.083   4.488 -1.4419 -1.3446 -1.5144
  152ACOH    H210115   6.183   1.924   4.572  2.2580 -1.1175 -1.9633
  152ACOH    H310116   6.326   1.954   4.472  0.2533  1.1651 -1.7657
  153ACOH    H410117   7.545   8.054   9.354  0.1501  0.2013  0.8527
  153ACOH    O210118   7.561   8.010   9.437  0.5201 -0.0692 -0.8425
  153ACOH    C210119   7.662   7.925   9.427 -0.1507  0.0924  0.1292
  153ACOH    O110120   7.723   7.902   9.322 -0.5289 -0.1102  0.3135
  153ACOH    C110121   7.662   7.836   9.545 -0.3659 -0.6891 -0.1472
  153ACOH    H110122   7.642   7.882   9.631  2.5908 -0.9879 -0.0346
  153ACOH    H210123   7.756   7.796   9.554  1.8707  1.6288 -1.1953
  153ACOH    H310124   7.587   7.759   9.534 -2.4190  0.0719 -3.2894
  154ACOH    H410125   5.115   5.258   7.324 -2.0887  1.8708  0.1181
  154ACOH    O210126   5.138   5.273   7.422  0.1727 -0.2008 -0.2857
  154ACOH    C210127   5.264   5.227   7.445 -0.0526 -0.2737 -0.0895
  154ACOH    O110128   5.298   5.124   7.394 -0.5635  0.2878  0.6443
  154ACOH    C110129   5.324   5.278   7.568 -0.3539 -0.6443  0.4728
  154ACOH    H110130   5.437   5.283   7.564  1.2673 -1.0043  0.5849
  154ACOH    H210131   5.304   5.210   7.651 -0.1932 -2.9625 -0.1372
  154ACOH    H310132   5.282   5.374   7.578  2.0202  1.0097  0.7926
  155ACOH    H410133   7.501   0.335   0.074 -1.1514  0.2586  0.5655
  155ACOH    O210134   7.561   0.293   0.140 -0.1205 -0.7746  0.2222
  155ACOH    C210135   7.600   0.178   0.077  0.1412 -0.4417 -0.0486
  155ACOH    O110136   7.565   0.142  -0.032 -1.0274  0.2484  0.7223
  155ACOH    C110137   7.668   0.081   0.167  0.3955 -0.5293 -0.4278
  155ACOH    H110138   7.751   0.031   0.117  0.7769 -1.6336  1.1003
  155ACOH    H210139   7.603  -0.000   0.204  1.1560 -1.2749 -0.6505
  155ACOH    H310140   7.707   0.134   0.253  0.9176 -0.7072 -0.0223
  156ACOH    H410141   1.518   6.473   5.577 -0.3620  2.1497  2.0279
  156ACOH    O210142   1.485   6.388   5.537  0.4262  0.2723 -0.3988
  156ACOH    C210143   1.448   6.422   5.407  0.1550  0.2607  0.1254
  156ACOH    O110144   1.446   6.535   5.354 -0.2822  0.0773  0.5411
  156ACOH    C110145   1.416   6.293   5.339  0.0140 -0.1224  0.2302
  156ACOH    H110146   1.347   6.234   5.407 -2.7963 -0.3114  2.4414
  156ACOH    H210147   1.507   6.239   5.332 -1.6777  0.0750 -2.0837
  156ACOH    H310148   1.378   6.302   5.234  1.3281 -0.2677  1.6416
  157ACOH    H410149   1.707   0.023   7.224 -1.5150  1.1721  0.9587
  157ACOH    O210150   1.625  -0.005   7.185  0.6625 -0.8357  0.0990
  157ACOH    C210151   1.590   0.093   7.110  0.3395 -0.1213  0.2132
  157ACOH    O110152   1.655   0.184   7.070 -0.0338 -0.6762  0.7534
  157ACOH    C110153   1.443   0.086   7.081 -0.7252 -0.4477 -0.6153
  157ACOH    H110154   1.392   0.175   7.130 -0.0640 -0.9362 -0.0319
  157ACOH    H210155   1.398  -0.009   7.120  0.4066 -0.1059 -0.2310
  157ACOH    H310156   1.425   0.088   6.976  1.8216 -0.9349  0.3518
  158ACOH    H410157   4.694   4.831   2.689  1.1001 -0.2076 -1.4425
  158ACOH    O210158   4.654   4.767   2.753 -0.1829  0.1168  0.0593
  158ACOH    C210159   4.600   4.848   2.849  0.8283  0.3996  0.9507
  158ACOH    O110160   4.655   4.947   2.898  0.5077 -1.0992 -0.4697
  158ACOH    C110161   4.507   4.768   2.932  0.0068  0.0501 -0.7124
  158ACOH    H110162   4.482   4.830   3.016  1.6056  1.7746  0.5665
  158ACOH    H210163   4.554   4.676   2.967  0.6921 -0.2965 -1.0481
  158ACOH    H310164   4.414   4.742   2.882 -3.0301  1.6224  0.2822
  159ACOH    H410165   6.845   6.607   8.314 -1.1354 -0.3400  1.7046
  159ACOH    O210166   6.803   6.568   8.393 -0.9104 -0.2973 -0.0129
  159ACOH    C210167   6.895   6.485   8.455  0.3274 -0.6234  0.1605
  159ACOH    O110168   6.998   6.428   8.415 -0.2931 -0.8454 -0.2431
  159ACOH    C110169   6.830   6.442   8.587 -0.3837 -0.5231  0.9280
  159ACOH    H110170   6.743   6.501   8.605 -0.7141  1.2693  0.6230
  159ACOH    H210171   6.912   6.456   8.666  1.0691  0.5077  1.1206
  159ACOH    H310172   6.800   6.339   8.579  0.1717  1.6018 -2.3561
  160ACOH    H410173   7.511   4.203   4.879 -0.8036  0.1277  0.8862
  160ACOH    O210174   7.441   4.266   4.854  0.3328 -0.5408  0.0421
  160ACOH    C210175   7.427   4.267   4.721 -0.0127  0.3648  0.3956
  160ACOH    O110176   7.486   4.189   4.644 -0.1501  0.0768  0.3248
  160ACOH    C110177   7.360   4.392   4.672 -0.0493  0.5259 -0.3340
  160ACOH    H110178   7.364   4.382   4.562 -0.0025  1.6824 -1.2481
  160ACOH    H210179   7.416   4.477   4.700  0.0057  3.3144  0.4326
  160ACOH    H310180   7.258   4.402   4.703  0.6212 -0.0400  0.0397
  161ACOH    H410181   7.483   4.388   6.511 -1.6645 -0.9583 -0.3463
  161ACOH    O210182   7.458   4.296   6.483 -0.4954 -0.5358 -0.7569
  161ACOH    C210183   7.386   4.243   6.584 -0.2502 -0.1329 -1.0069
  161ACOH    O110184   7.364   4.279   6.696 -0.1434  0.4045 -0.6811
  161ACOH    C110185   7.331   4.109   6.533  0.5337 -0.4435  0.5603
  161ACOH    H110186   7.369   4.096   6.432  1.1567  0.7999  0.0532
  161ACOH    H210187   7.225   4.100   6.525 -2.9944 -0.0375  2.1281
  161ACOH    H310188   7.382   4.032   6.591  1.4638  1.0576  0.5911
  162ACOH    H410189   3.882   5.957   5.440  0.6316 -2.1437  0.7228
  162ACOH    O210190   3.890   6.040   5.497  0.2265  0.0451  0.1731
  162ACOH    C210191   3.923   6.133   5.405 -0.2286  0.6638  0.2092
  162ACOH    O110192   3.903   6.138   5.286  0.2632  0.8698 -0.0170
  162ACOH    C110193   3.988   6.243   5.482 -0.0999 -0.9843  0.0907
  162ACOH    H110194   4.060   6.206   5.550 -0.9349  0.8857 -1.4347
  162ACOH    H210195   3.915   6.296   5.548 -1.2297  3.3279  0.6391
  162ACOH    H310196   4.036   6.303   5.408 -0.9814 -0.4956  0.9732
  163ACOH    H410197   7.313   6.683   0.298 -0.9224  0.2268 -2.4702
  163ACOH    O210198   7.282   6.707   0.207 -0.5656 -0.9214  0.3432
  163ACOH    C210199   7.260   6.601   0.129  0.1101 -0.9407 -0.0125
  163ACOH    O110200   7.314   6.499   0.156 -0.6571  0.3817  0.5899
  163ACOH    C110201   7.177   6.625   0.008  0.2365  0.0917  0.3913
  163ACOH    H110202   7.155   6.726   0.003 -1.4656  0.1281  1.1385
  163ACOH    H210203   7.084   6.580   0.026  1.6785  0.5642  3.5887
  163ACOH    H310204   7.229   6.581  -0.079  0.9514  1.0441  0.1201
  164ACOH    H410205   7.737   4.894   4.142  1.5102 -0.7356 -0.5056
  164ACOH    O210206   7.707   4.801   4.116 -0.8001 -0.6482  0.1038
  164ACOH    C210207   7.591   4.820   4.048  0.7848 -0.7650  0.2771
  164ACOH    O110208   7.567   4.921   3.990  0.4375  0.1685 -0.3504
  164ACOH    C110209   7.529   4.694   4.011 -0.3332 -0.0003  0.2118
  164ACOH    H110210   7.466   4.698   3.923 -0.2987  1.4561  1.1527
  164ACOH    H210211   7.474   4.646   4.092 -3.3204  1.6186 -0.1154
  164ACOH    H310212   7.612   4.626   3.981 -0.4602  0.2373 -1.8860
  165ACOH    H410213   6.663   6.680   2.322  0.8556  0.7831  1.7408
  165ACOH    O210214   6.651   6.764   2.270  0.1438 -0.1594  0.3227
  165ACOH    C210215   6.553   6.744   2.180 -0.9264  0.2277 -0.1198
  165ACOH    O110216   6.464   6.662   2.196 -0.1036  0.1845  0.8402
  165ACOH    C110217   6.573   6.841   2.065  0.3242 -0.4265 -0.3186
  165ACOH    H110218   6.668   6.897   2.068  0.0838  1.2719  0.6166
  165ACOH    H210219   6.489   6.911   2.074  2.6465  3.3030 -0.4106
  165ACOH    H310220   6.560   6.790   1.974 -0.7350  0.9467 -1.9873
  166ACOH    H410221   9.076   6.586   4.331  0.8310  0.8684 -0.7131
  166ACOH    O210222   9.140   6.527   4.379  0.2433 -0.2656  0.1254
  166ACOH    C210223   9.147   6.571   4.508 -0.0152  0.0691 -0.3778
  166ACOH    O110224   9.097   6.669   4.558 -0.4104 -0.0167 -0.5797
  166ACOH    C110225   9.239   6.481   4.585  0.3962  0.0131 -0.2260
  166ACOH    H110226   9.194   6.444   4.670  3.6333 -2.2339 -1.6576
  166ACOH    H210227   9.323   6.543   4.615 -1.5994  0.8276 -0.4862
  166ACOH    H310228   9.260   6.396   4.524  1.4337  1.2195  2.1662
  167ACOH    H410229   4.604   8.830   6.904 -1.1622 -0.2056 -1.3213
  167ACOH    O210230   4.522   8.787   6.859  0.0368  0.2207 -1.0091
  167ACOH    C210231   4.545   8.658   6.848 -0.4948  0.2811 -0.2084
  167ACOH    O110232   4.646   8.600   6.874 -0.4096 -0.0227  0.1137
  167ACOH    C110233   4.441   8.591   6.762 -0.0906 -0.4380  0.3840
  167ACOH    H110234   4.487   8.564   6.667  0.1712  1.4090 -1.2926
  167ACOH    H210235   4.361   8.659   6.745  0.1401 -2.4125 -1.2912
  167ACOH    H310236   4.399   8.501   6.811 -1.9347 -2.2546  0.8105
  168ACOH    H410237   6.646   2.544   8.574  0.1816 -1.2982  0.4191
  168ACOH    O210238   6.550   2.557   8.566 -0.2340  0.0889  0.2542
  168ACOH    C210239   6.524   2.687   8.566 -0.2826  0.3218  0.1446
  168ACOH    O110240   6.597   2.770   8.616  0.2500  0.6384  0.6017
  168ACOH    C110241   6.379   2.705   8.539 -0.9243 -0.4491  0.6372
  168ACOH    H110242   6.320   2.698   8.628 -1.7644  2.7092 -1.9099
  168ACOH    H210243   6.344   2.630   8.482  0.4469  2.0985  1.5670
  168ACOH    H310244   6.354   2.799   8.491  2.8484  1.2128  0.0799
  169ACOH    H410245   8.827   7.094   1.755  0.3852 -0.6362 -1.0344
  169ACOH    O210246   8.862   7.007   1.749 -0.1107 -0.0034  0.3474
  169ACOH    C210247   8.804   6.935   1.845  0.0554  0.2418 -0.0726
  169ACOH    O110248   8.753   6.976   1.945  0.3633 -0.2187  0.8283
  169ACOH    C110249   8.831   6.793   1.821 -0.1843 -0.3224 -0.0975
  169ACOH    H110250   8.756   6.734   1.878 -1.7291 -2.2939  0.1531
  169ACOH    H210251   8.929   6.771   1.855 -1.7330 -1.2348  0.1842
  169ACOH    H310252   8.822   6.776   1.715 -2.0317  3.2491  2.2663
  170ACOH    H410253   5.443   8.864   1.888 -1.7680  0.1095 -1.0369
  170ACOH    O210254   5.516   8.911   1.930 -0.3478  0.2111  0.1857
  170ACOH    C210255   5.457   9.005   2.004 -0.2255  0.3623  0.0587
  170ACOH    O110256   5.347   9.053   2.003  0.0058 -0.3429  0.0604
  170ACOH    C110257   5.560   9.067   2.090  0.3759 -0.0876 -0.5935
  170ACOH    H110258   5.642   9.091   2.023 -1.9752  0.0311 -3.2458
  170ACOH    H210259   5.585   8.981   2.154 -0.2116 -1.2507  0.3922
  170ACOH    H310260   5.519   9.146   2.153  0.1816 -1.3421  1.5643
  171ACOH    H410261   6.106   1.310   7.091  0.4127  1.3845  0.7453
  171ACOH    O210262   6.073   1.392   7.042 -0.4963  0.0894  0.0427
  171ACOH    C210263   6.099   1.383   6.907 -0.3835  0.1161 -0.0272
  171ACOH    O110264   6.033   1.438   6.825 -0.2923  0.4116 -0.1859
  171ACOH    C110265   6.173   1.258   6.871  0.3093  0.0047  0.4343
  171ACOH    H110266   6.183   1.237   6.764 -0.4225  0.4635  0.4987
  171ACOH    H210267   6.100   1.190   6.912  0.8927  0.9418  0.3757
  171ACOH    H310268   6.265   1.261   6.930 -2.6890 -0.8539 -1.1452
  172ACOH    H410269   6.104   2.556   8.603 -0.8413 -1.0965 -1.9738
  172ACOH    O210270   6.110   2.568   8.506 -0.3961 -0.2614  0.2789
  172ACOH    C210271   5.995   2.621   8.460  0.5642 -0.3226 -0.4767
  172ACOH    O110272   5.885   2.593   8.503 -0.1244 -0.2158  0.5216
  172ACOH    C110273   6.005   2.682   8.327 -0.0238  0.1489  0.7179
  172ACOH    H110274   5.965   2.609   8.252 -0.8705  0.5801  1.9082
  172ACOH    H210275   6.107   2.703   8.307 -0.5718 -0.9271 -1.0468
  172ACOH    H310276   5.956   2.778   8.327  0.1019 -1.4167  2.2807
  173ACOH    H410277   0.834   4.880   4.067  0.6142 -0.4817 -0.6875
  173ACOH    O210278   0.813   4.858   3.973 -0.1464  0.4182  0.0579
  173ACOH    C210279   0.801   4.723   3.983 -0.7742 -0.3228  0.4264
  173ACOH    O110280   0.859   4.646   4.055 -0.5327  0.0206  0.4306
  173ACOH    C110281   0.748   4.670   3.858 -0.3544 -0.3509  1.2276
  173ACOH    H110282   0.813   4.583   3.834  1.8223  1.2965  1.9123
  173ACOH    H210283   0.755   4.743   3.777 -2.0093 -0.4139 -1.3622
  173ACOH    H310284   0.646   4.644   3.880  1.1224  0.7785 -0.0176
  174ACOH    H410285   4.938   0.787   1.972 -0.0322  2.8137  0.3043
  174ACOH    O210286   4.943   0.695   2.004 -0.0316  0.6351  0.2555
  174ACOH    C210287   4.855   0.623   1.933  0.0610  0.0854  0.1921
  174ACOH    O110288   4.781   0.666   1.845  0.8085  0.2547  0.0882
  174ACOH    C110289   4.861   0.481   1.969  0.7304 -0.0501  0.6805
  174ACOH    H110290   4.784   0.428   1.910  0.2516 -1.3375 -0.9303
  174ACOH    H210291   4.831   0.472   2.072 -4.1955  2.4619  2.2596
  174ACOH    H310292   4.965   0.441   1.969  1.8471  2.5315  0.9087
  175ACOH    H410293   7.985   3.998   3.208  0.5332 -1.8644 -0.4139
  175ACOH    O210294   7.897   4.024   3.173 -0.0360  0.2305 -0.3671
  175ACOH    C210295   7.912   4.087   3.055  0.4630  0.4210 -0.1535
  175ACOH    O110296   8.011   4.128   3.011 -0.7771 -0.6750 -0.0991
  175ACOH    C110297   7.779   4.109   2.991  1.0512  0.6692 -0.3238
  175ACOH    H110298   7.775   4.073   2.894 -0.0718  4.0567  0.3488
  175ACOH    H210299   7.751   4.211   2.984  0.9756  1.3966  0.9735
  175ACOH    H310300   7.707   4.062   3.056  0.8912 -0.7611  0.9633
  176ACOH    H410301   2.693   8.739   4.427 -0.7852 -2.7310  2.8240
  176ACOH    O210302   2.615   8.720   4.380  0.0569  0.0082 -0.0737
  176ACOH    C210303   2.531   8.820   4.407 -0.2844 -0.5121  0.4912
  176ACOH    O110304   2.552   8.913   4.477 -0.5806 -0.2226  0.2091
  176ACOH    C110305   2.407   8.811   4.319 -0.6751  0.2960  0.1606
  176ACOH    H110306   2.421   8.810   4.217 -3.3368 -0.1784 -0.3173
  176ACOH    H210307   2.353   8.898   4.335  0.0604 -1.7796 -1.7644
  176ACOH    H310308   2.348   8.724   4.343 -1.8725  1.1124  2.1009
  177ACOH    H410309   8.176   9.979   1.152 -1.1177 -2.9804  0.2295
  177ACOH    O210310   8.160  10.016   1.248  0.4670  0.2855  0.4369
  177ACOH    C210311   8.108  10.138   1.249 -0.0317  0.6592 -0.5631
  177ACOH    O110312   8.111  10.212   1.153  0.7191  0.8025  0.1537
  177ACOH    C110313   8.088  10.183   1.391  0.5839 -0.2405  0.1957
  177ACOH    H110314   8.030  10.278   1.399 -3.0940 -0.4373  1.6557
  177ACOH    H210315   8.186  10.203   1.419  1.4490  0.1955 -1.4055
  177ACOH    H310316   8.040  10.107   1.447 -1.4070  0.6083 -2.4395
  178ACOH    H410317   1.628   7.610   6.443 -0.4844  1.4145 -0.0581
  178ACOH    O210318   1.679   7.682   6.489  0.6730  0.4691  0.8875
  178ACOH    C210319   1.625   7.708   6.610  0.4480  0.0687  0.0889
  178ACOH    O110320   1.627   7.822   6.651 -0.6673 -0.1206 -0.4504
  178ACOH    C110321   1.517   7.616   6.649  0.3091  0.4868 -0.5525
  178ACOH    H110322   1.471   7.656   6.735 -2.1293 -2.5893 -0.8900
  178ACOH    H210323   1.558   7.522   6.677 -1.5075  1.6719 -0.4359
  178ACOH    H310324   1.446   7.607   6.565 -0.9847  1.3209 -0.6970
  179ACOH    H410325   6.919   9.782   9.663 -0.4650 -0.4797  2.0179
  179ACOH    O210326   6.965   9.720   9.721  0.1264 -0.4147 -0.1340
  179ACOH    C210327   6.992   9.603   9.666  0.2431 -0.0993  0.0902
  179ACOH    O110328   6.922   9.561   9.576 -0.4118 -0.6684  0.2562
  179ACOH    C110329   7.097   9.527   9.736 -1.0643  0.4793  0.1415
  179ACOH    H110330   7.159   9.583   9.809  0.4510 -0.9440  0.9244
  179ACOH    H210331   7.171   9.493   9.658  2.3551 -2.2399  0.6011
  179ACOH    H310332   7.059   9.439   9.780  1.2384  0.4686  1.3073
  180ACOH    H410333   5.059   7.383   1.492 -0.4274  1.2121  0.1676
  180ACOH    O210334   5.010   7.377   1.401  0.2868 -0.4576  0.2853
  180ACOH    C210335   5.099   7.381   1.302  0.0732  0.3027 -0.5113
  180ACOH    O110336   5.223   7.367   1.314 -0.0453  0.0594 -0.4560
  180ACOH    C110337   5.025   7.389   1.169  0.0396 -0.2009 -0.1562
  180ACOH    H110338   5.003   7.291   1.124  1.5975  0.9644  0.0822
  180ACOH    H210339   5.082   7.442   1.097 -0.3289  1.2580  1.3147
  180ACOH    H310340   4.934   7.449   1.175 -0.1024 -0.5647  0.8252
  181ACOH    H410341   1.000   5.562   6.422 -0.5875 -0.0494 -0.6827
  181ACOH    O210342   0.973   5.641   6.376 -0.2051 -0.3956 -0.8165
  181ACOH    C210343   1.080   5.718   6.376  0.3913 -0.4660 -0.5175
  181ACOH    O110344   1.180   5.704   6.440 -0.1334 -0.3667  0.6035
  181ACOH    C110345   1.050   5.837   6.299  0.6388 -0.5115 -0.2680
  181ACOH    H110346   0.995   5.805   6.208  0.5036 -0.0260  0.5924
  181ACOH    H210347   1.146   5.877   6.276 -0.1152  0.5743  1.8219
  181ACOH    H310348   0.995   5.903   6.362  1.4957 -1.9612 -2.9186
  182ACOH    H410349   6.627   6.783   4.736 -1.1530  2.1615  0.2457
  182ACOH    O210350   6.547   6.784   4.791 -0.3511  0.2633 -0.1282
  182ACOH    C210351   6.592   6.769   4.916  0.3496 -0.0997  0.3866
  182ACOH    O110352   6.681   6.693   4.947 -0.2067 -0.2688  0.1056
  182ACOH    C110353   6.497   6.831   5.020  0.7777 -0.0371  0.5858
  182ACOH    H110354   6.427   6.761   5.063 -0.9618 -1.2858  2.6003
  182ACOH    H210355   6.446   6.918   4.982  1.8270  1.7092 -1.1112
  182ACOH    H310356   6.555   6.869   5.100  0.3896  0.7236  0.3605
  183ACOH    H410357   7.609   8.016   5.513 -2.2015 -1.0625  1.6303
  183ACOH    O210358   7.596   8.113   5.518  0.1825  0.3021  0.4817
  183ACOH    C210359   7.480   8.123   5.581 -0.2652  0.1580  0.1613
  183ACOH    O110360   7.442   8.044   5.662  0.8260 -0.2854  0.3306
  183ACOH    C110361   7.404   8.249   5.554 -0.5030  1.1142  0.0727
  183ACOH    H110362   7.474   8.322   5.537 -2.7626 -1.6863  0.0248
  183ACOH    H210363   7.348   8.287   5.635 -2.5270  3.9567  2.6007
  183ACOH    H310364   7.342   8.232   5.462 -3.4273 -1.1946 -1.8647
  184ACOH    H410365   6.444   2.318   4.512  1.5041  1.0801  2.0080
  184ACOH    O210366   6.510   2.243   4.493 -0.1861  0.2145 -0.4310
  184ACOH    C210367   6.598   2.248   4.595 -0.0769 -0.2076 -0.2297
  184ACOH    O110368   6.595   2.310   4.701  0.1456  0.1406  0.5023
  184ACOH    C110369   6.718   2.158   4.572 -0.3695 -0.7107  0.3287
  184ACOH    H110370   6.768   2.189   4.482  1.3709 -0.0070  0.1403
  184ACOH    H210371   6.682   2.060   4.549 -0.7569 -1.2393 -0.6912
  184ACOH    H310372   6.785   2.161   4.655 -0.8935  1.9871  1.2332
  185ACOH    H410373   5.799   7.995   8.778  1.8184 -1.1170 -2.0778
  185ACOH    O210374   5.880   7.938   8.780  0.2439 -0.4606  0.2339
  185ACOH    C210375   5.853   7.811   8.741  0.2901  0.0297  0.1229
  185ACOH    O110376   5.741   7.767   8.753 -0.3058  0.4035  0.2004
  185ACOH    C110377   5.974   7.729   8.706 -0.5299  0.1191 -0.2287
  185ACOH    H110378   5.955   7.640   8.646  0.0195 -0.1342 -1.1385
  185ACOH    H210379   6.032   7.696   8.790  1.3108 -0.7287  2.2868
  185ACOH    H310380   6.042   7.797   8.645 -1.2915  0.5697  0.3488
  186ACOH    H410381   6.459   9.395   2.590  2.0169  1.6580 -0.6865
  186ACOH    O210382   6.459   9.297   2.625 -0.2727  0.0115 -0.0344
  186ACOH    C210383   6.591   9.258   2.645 -0.4418  0.6422 -0.2538
  186ACOH    O110384   6.688   9.325   2.609  0.0686 -0.4637 -0.3100
  186ACOH    C110385   6.593   9.143   2.734  1.1402  0.1120 -0.4225
  186ACOH    H110386   6.502   9.090   2.730  0.3641 -2.3707  1.0444
  186ACOH    H210387   6.606   9.183   2.831 -1.2147  1.3394 -3.3273
  186ACOH    H310388   6.672   9.080   2.704 -0.6641  0.6113  0.8454
  187ACOH    H410389   4.228   4.178   6.329  0.7689  0.0619  3.9588
  187ACOH    O210390   4.219   4.184   6.229 -0.0676 -0.0600  0.4778
  187ACOH    C210391   4.331   4.140   6.172  0.5417 -0.4170  0.0866
  187ACOH    O110392   4.423   4.087   6.228  0.8262  0.0229 -0.4100
  187ACOH    C110393   4.352   4.162   6.025 -0.1385 -0.1710 -0.2421
  187ACOH    H110394   4.451   4.123   5.991 -0.1894 -0.8475 -0.1219
  187ACOH    H210395   4.362   4.265   5.991  2.8947  1.8670 -1.3664
  187ACOH    H310396   4.276   4.121   5.965 -1.7279  0.9466 -1.3433
  188ACOH    H410397   7.831   7.654   9.913  1.0339  1.0446  2.9315
  188ACOH    O210398   7.858   7.561   9.916 -0.2585 -0.0041 -0.3460
  188ACOH    C210399   7.925   7.547   9.799 -0.1092  0.0497 -0.0642
  188ACOH    O110400   7.942   7.633   9.709  0.3041  0.2754 -0.0311
  188ACOH    C110401   7.994   7.413   9.802 -0.0115  0.1980  0.1438
  188ACOH    H110402   7.993   7.374   9.702  1.0702 -0.4422  0.2253
  188ACOH    H210403   7.945   7.340   9.870 -2.0343 -2.8125  2.7952
  188ACOH    H310404   8.098   7.426   9.829 -1.0334  0.2403 -2.3645
  189ACOH    H410405   7.680   5.033   1.213 -2.9660 -1.5918  1.6678
  189ACOH    O210406   7.595   4.988   1.221  0.6915  0.1027 -0.3375
  189ACOH    C210407   7.551   4.994   1.350  0.0474  0.4859 -0.3356
  189ACOH    O110408   7.615   4.989   1.457 -0.5516  0.0093  0.1371
  189ACOH    C110409   7.406   4.960   1.356 -0.1937  0.0646  0.5088
  189ACOH    H110410   7.372   5.005   1.453 -0.9876  1.5713  0.6612
  189ACOH    H210411   7.392   4.855   1.358  1.0140  1.1215  1.4519
  189ACOH    H310412   7.349   5.004   1.278 -1.2367  0.3795  0.3905
  190ACOH    H410413   5.101   2.230   2.745  2.8481  1.0985  0.8322
  190ACOH    O210414   5.141   2.174   2.816  0.3954  0.3669 -0.1640
  190ACOH    C210415   5.205   2.262   2.901  0.2689 -0.4880  0.3677
  190ACOH    O110416   5.200   2.382   2.913 -0.0070  0.3645  0.3582
  190ACOH    C110417   5.286   2.186   3.002  0.0797  0.5286 -0.6929
  190ACOH    H110418   5.220   2.183   3.087  0.0695  0.2756 -2.6332
  190ACOH    H210419   5.373   2.241   3.035  0.4560 -0.4835  2.2774
  190ACOH    H310420   5.303   2.083   2.978  0.0876 -0.2814  2.1840
  191ACOH    H410421   5.408   5.605   7.666 -1.8101 -0.7927 -0.1593
  191ACOH    O210422   5.399   5.602   7.760  0.9726 -0.0004 -0.5590
  191ACOH    C210423   5.273   5.596   7.798 -0.4441 -0.2280  0.6912
  191ACOH    O110424   5.180   5.569   7.719  0.4300 -0.1590  0.0141
  191ACOH    C110425   5.254   5.587   7.945  0.0871 -0.0044  0.2191
  191ACOH    H110426   5.278   5.678   7.989 -4.9483  0.9351  0.7667
  191ACOH    H210427   5.309   5.499   7.979  0.1173  0.7202 -0.4496
  191ACOH    H310428   5.153   5.563   7.971  0.0287 -3.4849  0.7085
  192ACOH    H410429   0.117   9.728   4.128 -1.3201  2.3299  0.4235
  192ACOH    O210430   0.062   9.719   4.211  0.5325 -0.1363  0.2420
  192ACOH    C210431   0.146   9.707   4.312  0.5860 -0.0238 -0.2394
  192ACOH    O110432   0.263   9.745   4.313  0.3546  0.2957  0.1867
  192ACOH    C110433   0.066   9.677   4.442  0.0004 -0.4141 -0.0414
  192ACOH    H110434   0.128   9.692   4.531 -0.9813  0.4960 -0.1813
  192ACOH    H210435   0.032   9.572   4.442 -1.0429  1.2653  3.2144
  192ACOH    H310436  -0.014   9.749   4.452  0.1550  3.2698 -0.3145
  193ACOH    H410437   3.610   5.863   5.709 -0.9436 -1.2499  1.3180
  193ACOH    O210438   3.587   5.939   5.768  0.1011 -0.2049  0.0372
  193ACOH    C210439   3.489   6.007   5.702 -0.4086  0.5125 -0.2430
  193ACOH    O110440   3.464   6.003   5.582  0.4075 -0.8541  0.0419
  193ACOH    C110441   3.407   6.089   5.795 -0.2790 -0.0785  0.6116
  193ACOH    H110442   3.371   6.027   5.878 -2.5430  0.2134  1.1037
  193ACOH    H210443   3.318   6.132   5.744  0.2723 -0.9371 -0.5088
  193ACOH    H310444   3.467   6.168   5.841  0.0131  0.1524  1.0891
  194ACOH    H410445   7.208   8.763   9.496 -0.5533 -0.2139  0.5875
  194ACOH    O210446   7.178   8.789   9.588  0.0467 -0.0831  0.5796
  194ACOH    C210447   7.285   8.823   9.655  0.3447  0.3055  0.5691
  194ACOH    O110448   7.396   8.834   9.614 -0.1746 -0.0131  0.8490
  194ACOH    C110449   7.252   8.866   9.790  0.0320  0.0857 -0.1100
  194ACOH    H110450   7.262   8.776   9.859 -1.6281  0.3825  1.2923
  194ACOH    H210451   7.147   8.897   9.791  1.0306  3.0493  3.8723
  194ACOH    H310452   7.317   8.945   9.832 -0.0135 -1.5967  2.6338
  195ACOH    H410453   4.828   2.851   2.894 -1.2599  1.0274  0.0600
  195ACOH    O210454   4.878   2.873   2.980  0.4693 -0.3008 -0.0380
  195ACOH    C210455   4.981   2.785   2.997  0.5430  0.1874  0.2037
  195ACOH    O110456   5.017   2.707   2.909  0.1915  0.1501  0.6070
  195ACOH    C110457   5.034   2.795   3.136 -0.3331  0.1148  0.0581
  195ACOH    H110458   5.139   2.807   3.140  0.1476 -3.0849 -0.8889
  195ACOH    H210459   5.010   2.709   3.192  0.6341  3.1894  2.4228
  195ACOH    H310460   4.980   2.867   3.194  3.3561  0.6735  2.4013
  196ACOH    H410461   7.474   1.184   5.766  2.1762 -1.9803 -0.0566
  196ACOH    O210462   7.411   1.145   5.826 -0.5430  0.1121 -0.5756
  196ACOH    C210463   7.466   1.049   5.905  0.1406  0.2095  0.1953
  196ACOH    O110464   7.576   1.007   5.878 -0.0546 -0.4211 -0.4481
  196ACOH    C110465   7.378   0.981   6.004  0.0524 -0.2311 -0.4743
  196ACOH    H110466   7.442   0.952   6.084  0.3485  0.6212  1.0908
  196ACOH    H210467   7.342   0.887   5.957  3.5642  0.2890  0.3577
  196ACOH    H310468   7.293   1.045   6.033 -0.7135  0.5453  1.6712
  197ACOH    H410469   1.650   5.422   1.695  1.3119 -1.5332 -1.8149
  197ACOH    O210470   1.721   5.373   1.742 -0.3453 -0.2386  0.3860
  197ACOH    C210471   1.812   5.466   1.777  0.0410 -0.1722 -0.6215
  197ACOH    O110472   1.793   5.583   1.790  0.4170  0.0675  0.2156
  197ACOH    C110473   1.931   5.393   1.825  0.4317 -0.1651  0.8545
  197ACOH    H110474   1.903   5.315   1.894 -0.4050  0.7426 -0.9577
  197ACOH    H210475   1.994   5.461   1.885 -0.3061 -2.2491  2.9731
  197ACOH    H310476   1.981   5.350   1.743  0.1186  1.6821 -0.3616
  198ACOH    H410477   5.334   8.559   5.188 -2.0439  2.8097 -0.1862
  198ACOH    O210478   5.431   8.559   5.215  0.0528  0.4823 -0.1703
  198ACOH    C210479   5.442   8.459   5.309 -0.3372  0.4516  0.0539
  198ACOH    O110480   5.365   8.427   5.399 -0.0318  0.1937  0.2516
  198ACOH    C110481   5.590   8.433   5.321  1.0004  0.1141 -0.6188
  198ACOH    H110482   5.634   8.513   5.378  0.1486  1.1366  0.0772
  198ACOH    H210483   5.633   8.434   5.222 -0.1640  0.8610 -0.9233
  198ACOH    H310484   5.598   8.334   5.370  1.6107 -0.4434  2.2257
  199ACOH    H410485   0.179   8.713   9.260 -1.1421 -0.7111  1.0496
  199ACOH    O210486   0.241   8.669   9.202 -0.1435  0.2236 -0.0602
  199ACOH    C210487   0.361   8.720   9.240 -0.3814  0.3659 -0.8173
  199ACOH    O110488   0.390   8.783   9.343  0.0181 -0.7110 -0.1068
  199ACOH    C110489   0.466   8.671   9.145  0.7579  0.3980  0.0409
  199ACOH    H110490   0.483   8.751   9.080 -0.0665 -3.4538  2.2110
  199ACOH    H210491   0.439   8.582   9.098 -0.2299  2.0966  0.7504
  199ACOH    H310492   0.562   8.659   9.197 -1.1712 -0.5893  2.4102
  200ACOH    H410493   4.275   7.811   8.598 -1.8919 -0.3650 -4.5295
  200ACOH    O210494   4.363   7.821   8.549 -0.3320 -0.2127 -0.5285
  200ACOH    C210495   4.415   7.699   8.532 -0.3423 -0.7315  0.4866
  200ACOH    O110496   4.362   7.598   8.487 -0.1405 -0.1051 -0.2396
  200ACOH    C110497   4.573   7.718   8.534  0.4923  0.2482 -0.0730
  200ACOH    H110498   4.601   7.715   8.646  1.1784  1.1797  1.0653
  200ACOH    H210499   4.595   7.808   8.479 -1.6896  0.3213  0.6521
  200ACOH    H310500   4.625   7.632   8.493  0.1058 -0.2943 -0.7797
  201ACOH    H410501   2.286   7.580   1.555  3.9263 -2.3917  1.3209
  201ACOH    O210502   2.297   7.610   1.457  0.0544 -0.0982  1.1139
  201ACOH    C210503   2.203   7.705   1.440 -0.3538  0.1304  0.0083
  201ACOH    O110504   2.120   7.737   1.527 -0.1968  0.0650  0.4887
  201ACOH    C110505   2.188   7.759   1.305 -0.3744  0.3358  1.3161
  201ACOH    H110506   2.264   7.837   1.302 -0.5766 -0.6169  0.4989
  201ACOH    H210507   2.092   7.809   1.285  0.4972  1.7574 -1.2171
  201ACOH    H310508   2.210   7.691   1.223 -1.9901 -0.3377 -1.3235
  202ACOH    H410509   5.725   3.834   8.530 -1.7744 -2.3925  2.0381
  202ACOH    O210510   5.699   3.919   8.489  0.0340 -0.0378  0.1715
  202ACOH    C210511   5.599   3.881   8.406 -0.3545  0.0028  0.4058
  202ACOH    O110512   5.510   3.804   8.436  0.7731 -0.2516  0.0148
  202ACOH    C110513   5.602   3.953   8.282  0.2279 -0.1359 -0.0488
  202ACOH    H110514   5.559   3.898   8.200 -1.7077 -1.9207 -0.5114
  202ACOH    H210515   5.698   3.993   8.258 -0.6639 -0.0115 -2.5898
  202ACOH    H310516   5.537   4.038   8.299 -1.9214 -2.4906 -1.4842
  203ACOH    H410517   5.455   0.324   2.339  0.4680 -0.6403  1.1271
  203ACOH    O210518   5.421   0.409   2.387  0.1119 -0.1763  0.6772
  203ACOH    C210519   5.525   0.497   2.390  0.3718  0.0321 -0.0981
  203ACOH    O110520   5.639   0.472   2.359  0.2486 -0.4554 -0.4957
  203ACOH    C110521   5.486   0.623   2.454 -0.3219  0.8727 -0.1027
  203ACOH    H110522   5.404   0.606   2.514  0.7716  1.0809 -2.4931
  203ACOH    H210523   5.460   0.691   2.376 -2.5703 -1.3108 -0.2879
  203ACOH    H310524   5.570   0.659   2.518 -0.3179  2.1297  2.1766
  204ACOH    H410525   6.466   2.695   4.530 -2.4679 -2.4132  0.4237
  204ACOH    O210526   6.499   2.707   4.437 -0.0597 -0.3394  0.2823
  204ACOH    C210527   6.619   2.762   4.435 -0.1535  0.6648 -0.1222
  204ACOH    O110528   6.692   2.775   4.526  0.1015 -0.7163  0.5400
  204ACOH    C110529   6.653   2.790   4.296  0.1657 -0.4923  0.1521
  204ACOH    H110530   6.739   2.730   4.261  1.3550  0.7077 -0.4326
  204ACOH    H210531   6.671   2.893   4.285 -3.4820 -0.2427  0.5763
  204ACOH    H310532   6.560   2.773   4.239 -0.6796 -0.8370  0.0023
  205ACOH    H410533   5.671   2.633   5.443  2.4219  1.1730  0.7745
  205ACOH    O210534   5.631   2.667   5.527 -0.1993 -0.4053 -0.0491
  205ACOH    C210535   5.727   2.633   5.618  0.1736 -0.5881  0.1694
  205ACOH    O110536   5.843   2.601   5.608  0.1142  0.0600  0.4063
  205ACOH    C110537   5.667   2.651   5.752 -0.1601 -0.0969  0.1562
  205ACOH    H110538   5.658   2.759   5.777  1.8930  2.1678  0.5422
  205ACOH    H210539   5.730   2.608   5.827  2.0392  3.4471 -0.3221
  205ACOH    H310540   5.569   2.607   5.755  0.4221  0.4116 -2.0987
  206ACOH    H410541   5.843   0.685   2.145  0.1803  0.9076 -1.4455
  206ACOH    O210542   5.840   0.781   2.133  0.4784  0.0719 -0.3059
  206ACOH    C210543   5.710   0.817   2.126  0.7269  0.8301 -0.5195
  206ACOH    O110544   5.622   0.734   2.140  0.7638 -0.4468 -0.0236
  206ACOH    C110545   5.674   0.959   2.124 -0.1340 -0.2143  0.1010
  206ACOH    H110546   5.679   1.011   2.035 -1.4353  0.4415 -0.0695
  206ACOH    H210547   5.740   1.006   2.198  2.1316  3.8470  0.0383
  206ACOH    H310548   5.571   0.979   2.173 -1.4904 -0.3859  2.0365
  207ACOH    H410549   7.233   6.773   0.950 -1.8035  2.2001 -1.4836
  207ACOH    O210550   7.324   6.810   0.922  0.6364  0.4014  0.4628
  207ACOH    C210551   7.364   6.871   1.036 -0.0222  0.7987 -0.6436
  207ACOH    O110552   7.313   6.860   1.145  0.3370  0.1881 -0.1920
  207ACOH    C110553   7.500   6.924   1.011  0.2332 -0.3070  0.3625
  207ACOH    H110554   7.559   6.859   0.947  1.7346 -1.7659  2.5767
  207ACOH    H210555   7.556   6.928   1.104  0.3316  1.7498 -1.4877
  207ACOH    H310556   7.484   7.026   0.971 -1.0629  0.7861  1.7464
  208ACOH    H410557   9.973   1.319   5.307  1.6796  1.1779 -1.3065
  208ACOH    O210558   9.896   1.258   5.298 -0.3226  0.0843 -0.1194
  208ACOH    C210559   9.829   1.273   5.418 -0.1859  0.6794  0.2951
  208ACOH    O110560   9.826   1.375   5.485 -0.0916 -0.3480  0.0876
  208ACOH    C110561   9.717   1.174   5.433  0.5589  0.5161 -0.3846
  208ACOH    H110562   9.710   1.106   5.347 -1.2969 -1.6811 -1.3964
  208ACOH    H210563   9.627   1.232   5.453 -1.1555  0.4222  0.1657
  208ACOH    H310564   9.737   1.113   5.523 -2.5642  0.4726  2.3259
  209ACOH    H410565   5.624   6.197   8.863 -1.0704  1.2011 -0.8384
  209ACOH    O210566   5.601   6.281   8.899 -0.7912 -0.3414  0.2690
  209ACOH    C210567   5.518   6.262   9.005  0.2872 -0.2995  0.4716
  209ACOH    O110568   5.474   6.156   9.042 -0.0501 -0.3699  0.4634
  209ACOH    C110569   5.476   6.381   9.082 -0.5294 -0.3374 -0.2256
  209ACOH    H110570   5.530   6.363   9.180 -0.8482 -0.5382 -1.2273
  209ACOH    H210571   5.370   6.385   9.103  0.8093 -1.5201 -0.7313
  209ACOH    H310572   5.499   6.476   9.044 -2.2459 -1.3640  0.8188
  210ACOH    H410573   5.665   8.621   2.088  2.2957 -0.7492 -3.0866
  210ACOH    O210574   5.656   8.522   2.080 -0.4127 -0.4694  0.2196
  210ACOH    C210575   5.569   8.505   1.979 -0.9731  0.0566 -0.1018
  210ACOH    O110576   5.515   8.594   1.918 -0.1872 -0.1874 -0.3853
  210ACOH    C110577   5.549   8.360   1.950  0.0755  0.7356 -0.4297
  210ACOH    H110578   5.640   8.307   1.923 -0.4459 -1.2187 -1.9254
  210ACOH    H210579   5.474   8.352   1.865 -0.8422 -1.6181  1.4402
  210ACOH    H310580   5.504   8.318   2.043  2.1046  0.0927  2.5889
  211ACOH    H410581   5.401   8.592   1.787 -0.0060 -1.0971  1.6085
  211ACOH    O210582   5.318   8.579   1.733  0.0786  0.2724  0.0640
  211ACOH    C210583   5.265   8.703   1.718 -1.0811  0.3159 -0.2956
  211ACOH    O110584   5.299   8.805   1.775 -0.4337 -0.2414  0.3310
  211ACOH    C110585   5.162   8.690   1.615  0.1812  0.7104  0.6208
  211ACOH    H110586   5.067   8.731   1.656 -0.2979  2.8572  0.8184
  211ACOH    H210587   5.136   8.592   1.590  0.5558  0.5392  0.9888
  211ACOH    H310588   5.193   8.750   1.533  0.8457 -2.2626 -0.1164
  212ACOH    H410589   7.927   2.906   0.562  1.5818  2.4801 -1.3987
  212ACOH    O210590   7.965   2.835   0.623  0.1653 -0.6576  0.9752
  212ACOH    C210591   7.894   2.831   0.738  0.9438  0.2871  0.4429
  212ACOH    O110592   7.783   2.875   0.757  0.5220 -0.0103 -0.4427
  212ACOH    C110593   7.955   2.752   0.836 -0.5793  0.4355 -0.6337
  212ACOH    H110594   7.935   2.648   0.818 -2.3152 -0.6354  3.2766
  212ACOH    H210595   7.928   2.778   0.933 -0.2503  1.2205 -1.8340
  212ACOH    H310596   8.064   2.759   0.833 -3.2083  3.3117  2.1170
  213ACOH    H410597   3.506   8.343   1.335 -0.3859  2.8360 -1.6913
  213ACOH    O210598   3.450   8.366   1.256 -0.0931 -0.2902 -0.3636
  213ACOH    C210599   3.383   8.253   1.226 -0.6210 -0.9537 -0.7225
  213ACOH    O110600   3.418   8.137   1.246 -0.1426 -0.0879 -0.0773
  213ACOH    C110601   3.290   8.280   1.121 -0.8791  0.3584  0.4686
  213ACOH    H110602   3.346   8.315   1.029  1.6626  0.7738 -0.9974
  213ACOH    H210603   3.214   8.357   1.134 -1.5019  0.3799 -0.4458
  213ACOH    H310604   3.237   8.191   1.091  1.3251  2.8298  2.0977
  214ACOH    H410605   8.021   9.421   0.954  0.1713  0.4287 -3.3492
  214ACOH    O210606   7.948   9.361   0.988  0.4598  0.7248 -0.0718
  214ACOH    C210607   7.878   9.300   0.893 -0.2166 -0.6946  0.1132
  214ACOH    O110608   7.891   9.316   0.773  0.0202  0.2301  0.5417
  214ACOH    C110609   7.774   9.208   0.948  0.5188  0.2544  0.0079
  214ACOH    H110610   7.673   9.251   0.962 -1.8985  3.1040 -1.7731
  214ACOH    H210611   7.803   9.157   1.038  0.0766  2.2169  2.1579
  214ACOH    H310612   7.772   9.130   0.870 -0.9534  0.8900 -1.1566
  215ACOH    H410613   5.322   1.671   8.679  1.6479 -0.9244 -0.2045
  215ACOH    O210614   5.311   1.587   8.633  0.2335 -0.5968  0.0736
  215ACOH    C210615   5.385   1.492   8.696 -0.3194 -0.3377 -0.1164
  215ACOH    O110616   5.479   1.521   8.768  0.2795 -0.1015  0.4150
  215ACOH    C110617   5.353   1.356   8.661 -0.8085  0.4011  0.9759
  215ACOH    H110618   5.387   1.331   8.559 -0.6397  0.4830  0.7882
  215ACOH    H210619   5.248   1.332   8.673 -0.3426  0.9810 -1.1997
  215ACOH    H310620   5.406   1.283   8.734  1.6512 -1.3405  0.7494
  216ACOH    H410621   6.439   6.778   1.704  1.8705 -0.8958 -0.6516
  216ACOH    O210622   6.409   6.792   1.800  0.0619 -0.4670  0.3268
  216ACOH    C210623   6.293   6.858   1.786 -0.0351  0.3185  0.0661
  216ACOH    O110624   6.221   6.855   1.688  0.2609  0.2048  0.0424
  216ACOH    C110625   6.242   6.909   1.918 -0.3235 -0.6103 -0.8594
  216ACOH    H110626   6.312   6.975   1.973  2.6645  0.5699  0.6736
  216ACOH    H210627   6.216   6.822   1.976 -2.3018  0.5428 -0.4161
  216ACOH    H310628   6.152   6.963   1.908 -0.6262  0.4597  1.2343
  217ACOH    H410629   5.223   0.519   8.121 -1.6902 -0.6515  1.1937
  217ACOH    O210630   5.236   0.616   8.108  0.7735 -0.7656  0.3218
  217ACOH    C210631   5.368   0.619   8.076 -0.0041  0.6446  0.5909
  217ACOH    O110632   5.453   0.538   8.109  0.7233  0.3337 -0.3899
  217ACOH    C110633   5.396   0.742   7.992  0.7211 -0.3693  0.1467
  217ACOH    H110634   5.489   0.783   8.021  0.3653 -1.3890 -4.2303
  217ACOH    H210635   5.309   0.806   7.995 -0.8811  0.4725 -1.6620
  217ACOH    H310636   5.412   0.712   7.890  0.5574  1.4950  1.8719
  218ACOH    H410637   0.116   9.050   8.065 -0.7665  0.7563  3.4609
  218ACOH    O210638   0.164   9.063   8.150  0.1230  0.2246 -0.3042
  218ACOH    C210639   0.099   9.143   8.236  0.1963  0.1769 -0.2851
  218ACOH    O110640  -0.007   9.199   8.210 -0.1286  0.2383  0.1419
  218ACOH    C110641   0.170   9.162   8.361 -0.6023 -0.4033 -0.4544
  218ACOH    H110642   0.271   9.194   8.349  2.0766  0.4333  2.7815
  218ACOH    H210643   0.169   9.074   8.427  1.2015  1.0018 -3.3985
  218ACOH    H310644   0.127   9.248   8.408 -1.3893 -1.4954 -0.9920
  219ACOH    H410645   9.479   1.339   7.699 -0.3742 -0.8673  0.8805
  219ACOH    O210646   9.482   1.440   7.698 -0.3248  0.4979 -0.5506
  219ACOH    C210647   9.600   1.476   7.758  0.0614 -0.0265 -0.2360
  219ACOH    O110648   9.657   1.402   7.836  0.1347  1.1052 -0.8643
  219ACOH    C110649   9.637   1.616   7.725 -0.3336  0.0197  0.9327
  219ACOH    H110650   9.745   1.618   7.725  0.9317  0.7515 -0.0035
  219ACOH    H210651   9.603   1.689   7.796  0.5888  0.0544 -1.0086
  219ACOH    H310652   9.600   1.635   7.622  2.3515 -0.4533 -1.7778
  220ACOH    H410653   5.962   2.555   0.820  1.4125 -3.0341 -3.1432
  220ACOH    O210654   6.029   2.572   0.894  0.1180  0.0869 -0.1224
  220ACOH    C210655   6.073   2.451   0.939  0.7984  0.0008 -0.3134
  220ACOH    O110656   6.064   2.350   0.871  0.2736 -0.0450 -0.4348
  220ACOH    C110657   6.181   2.474   1.038 -0.6844  0.4674  0.3504
  220ACOH    H110658   6.131   2.486   1.128  1.2512  0.8600  0.1976
  220ACOH    H210659   6.252   2.558   1.020 -0.4855  0.0231  0.1126
  220ACOH    H310660   6.238   2.380   1.042  3.1737  1.1741 -5.1647
  221ACOH    H410661   6.581   9.740   9.441 -0.2259 -2.8527  1.8553
  221ACOH    O210662   6.525   9.760   9.519 -0.0487 -1.1773  0.4767
  221ACOH    C210663   6.409   9.808   9.465  0.2467  0.2132  0.1752
  221ACOH    O110664   6.379   9.807   9.347  0.3325  0.3810  0.1497
  221ACOH    C110665   6.324   9.824   9.582 -0.1814  0.0869  0.6896
  221ACOH    H110666   6.313   9.736   9.640  1.8115  0.7981 -1.5220
  221ACOH    H210667   6.222   9.856   9.549 -1.6446 -0.6390  0.2168
  221ACOH    H310668   6.365   9.902   9.639  1.5156 -1.3241 -2.7482
  222ACOH    H410669   1.927   1.106   3.691 -1.6071  2.7963  4.6540
  222ACOH    O210670   1.895   1.083   3.778  0.1217 -0.6113  0.0303
  222ACOH    C210671   1.933   0.963   3.814  0.7601  0.2217  0.4126
  222ACOH    O110672   1.981   0.876   3.736 -0.2982 -0.0885  0.3715
  222ACOH    C110673   1.906   0.947   3.957  0.0643 -0.0655  0.2948
  222ACOH    H110674   1.805   0.981   3.975  1.3916 -1.7382 -0.8835
  222ACOH    H210675   1.973   1.020   4.002  0.2474 -1.0640  2.6233
  222ACOH    H310676   1.916   0.845   3.983 -3.6347  0.7755 -1.9056
  223ACOH    H410677   4.918   1.805   2.692 -0.1811 -1.2294 -3.0875
  223ACOH    O210678   4.836   1.842   2.719 -0.1617  0.5454 -0.5219
  223ACOH    C210679   4.745   1.812   2.627  0.0806 -0.3150  0.3735
  223ACOH    O110680   4.757   1.718   2.553  0.6351  0.2306 -0.7571
  223ACOH    C110681   4.616   1.886   2.650  0.0293  0.2669 -0.5203
  223ACOH    H110682   4.531   1.854   2.593  1.4134  0.9440 -0.1537
  223ACOH    H210683   4.629   1.986   2.622 -1.0604 -1.7449 -0.6031
  223ACOH    H310684   4.586   1.877   2.754  0.2963 -0.8816  2.2052
  224ACOH    H410685   1.330   4.717   1.855 -2.0426  0.7737  2.6103
  224ACOH    O210686   1.305   4.808   1.835 -0.1995  0.0414  0.0757
  224ACOH    C210687   1.192   4.817   1.910 -0.4629  0.1661  0.0374
  224ACOH    O110688   1.167   4.753   2.012  0.3945  0.1684 -0.3894
  224ACOH    C110689   1.100   4.935   1.879  0.4023  0.1780  0.4630
  224ACOH    H110690   1.112   5.018   1.950  3.5965  1.2922  0.4089
  224ACOH    H210691   0.998   4.899   1.887  0.3049 -0.6243  2.4352
  224ACOH    H310692   1.123   4.984   1.792  1.5843  0.0637  1.5912
  225ACOH    H410693   6.836   1.712   2.696 -1.9171 -0.6136 -0.3992
  225ACOH    O210694   6.754   1.759   2.725 -0.5516 -0.4998 -0.4517
  225ACOH    C210695   6.653   1.676   2.686 -0.3273 -0.0032  0.1006
  225ACOH    O110696   6.659   1.553   2.691  0.5598 -0.3350 -0.1107
  225ACOH    C110697   6.521   1.746   2.691  0.1168 -0.3096  0.1057
  225ACOH    H110698   6.433   1.686   2.669 -0.1746  3.8109 -1.3304
  225ACOH    H210699   6.530   1.835   2.627  1.6265 -0.8499 -0.3338
  225ACOH    H310700   6.515   1.789   2.789 -1.1511 -1.0428 -1.8793
  226ACOH    H410701   5.361   5.966   3.316  0.6272 -0.2033 -1.3838
  226ACOH    O210702   5.418   5.883   3.316 -1.1603 -0.0969 -0.9814
  226ACOH    C210703   5.507   5.925   3.225  0.5519 -0.3238  0.3153
  226ACOH    O110704   5.520   6.030   3.173 -0.1036 -0.2636 -0.1927
  226ACOH    C110705   5.602   5.819   3.196 -0.3057  0.4434  0.2335
  226ACOH    H110706   5.618   5.811   3.092 -1.9326 -2.4945  0.7507
  226ACOH    H210707   5.547   5.730   3.233  0.3778  2.8324  0.5851
  226ACOH    H310708   5.695   5.837   3.254 -0.9717  1.2498  0.2296
  227ACOH    H410709   5.691   9.183   9.113  3.2349  2.7268 -1.0823
  227ACOH    O210710   5.617   9.197   9.048  0.2670  0.3562  0.1460
  227ACOH    C210711   5.635   9.314   8.987 -0.4700 -0.2569 -0.1125
  227ACOH    O110712   5.747   9.365   8.979  0.1591  0.7121 -0.0724
  227ACOH    C110713   5.523   9.347   8.898 -0.4200  0.3331 -0.1566
  227ACOH    H110714   5.431   9.293   8.924  4.2154  0.4315  1.2189
  227ACOH    H210715   5.544   9.331   8.786 -2.4045 -0.6184  0.3975
  227ACOH    H310716   5.509   9.451   8.917  1.0796 -0.8990 -4.4910
  228ACOH    H410717   7.187   3.194   5.086 -0.5102 -1.1785 -1.5355
  228ACOH    O210718   7.243   3.274   5.072 -0.3787 -0.2395 -0.3691
  228ACOH    C210719   7.287   3.295   5.194  0.3483  0.1392  0.1823
  228ACOH    O110720   7.271   3.231   5.296 -0.1919  0.3081  0.5494
  228ACOH    C110721   7.355   3.425   5.201 -0.3564 -0.5637 -0.0350
  228ACOH    H110722   7.373   3.466   5.100  1.6886  0.5254  0.9724
  228ACOH    H210723   7.459   3.414   5.251  0.2179  1.5206  0.4000
  228ACOH    H310724   7.304   3.497   5.271  0.1234 -2.5090 -1.9422
  229ACOH    H410725   6.861   2.661   3.429 -2.3372  0.9895  3.4493
  229ACOH    O210726   6.833   2.755   3.439  0.6095 -0.0083 -0.1511
  229ACOH    C210727   6.894   2.810   3.545 -0.3468  0.7925 -0.3786
  229ACOH    O110728   6.982   2.754   3.612  0.1088  0.2644  0.4194
  229ACOH    C110729   6.839   2.943   3.555 -0.5773  0.4110  0.4657
  229ACOH    H110730   6.757   2.959   3.482 -1.5638  1.5510 -0.2464
  229ACOH    H210731   6.912   3.024   3.555  0.7618  0.4812  1.9487
  229ACOH    H310732   6.793   2.944   3.654  0.4068 -1.7275  0.3291
  230ACOH    H410733   7.347   2.830   6.142  0.6424  2.0713 -3.4577
  230ACOH    O210734   7.334   2.866   6.240 -0.2943  0.1579 -0.7069
  230ACOH    C210735   7.404   2.982   6.239  0.2791 -0.6667 -0.5151
  230ACOH    O110736   7.491   3.011   6.158 -0.0272 -0.8893  0.7533
  230ACOH    C110737   7.352   3.083   6.335 -0.1079  0.0807 -0.1426
  230ACOH    H110738   7.346   3.179   6.289 -0.5243 -2.1854  1.8096
  230ACOH    H210739   7.425   3.091   6.417  0.7062  2.8516  0.7955
  230ACOH    H310740   7.254   3.044   6.365 -0.4373 -3.3495  1.5486
  231ACOH    H410741   7.158   6.316   4.520 -0.4473 -1.6934  1.7425
  231ACOH    O210742   7.099   6.246   4.478  0.2629 -0.2003  0.3522
  231ACOH    C210743   7.005   6.306   4.411 -0.1742 -0.4420 -0.1895
  231ACOH    O110744   6.992   6.427   4.400  0.3159  0.2564 -0.6581
  231ACOH    C110745   6.897   6.227   4.349  0.3682 -0.3086  0.8073
  231ACOH    H110746   6.802   6.269   4.387  0.3208 -2.5017 -1.6349
  231ACOH    H210747   6.911   6.121   4.387 -0.1467 -3.7772  0.6762
  231ACOH    H310748   6.896   6.221   4.242 -0.3900  0.6691  0.8190
  232ACOH    H410749   6.318   5.984   9.912  1.8858  2.3514 -0.4151
  232ACOH    O210750   6.338   6.067   9.963  0.0887 -0.6799  0.0579
  232ACOH    C210751   6.457   6.063  10.018  0.4150 -0.3516  0.3396
  232ACOH    O110752   6.524   5.964  10.033  0.2436 -0.6862  0.1072
  232ACOH    C110753   6.500   6.193  10.078  0.0101  0.2625 -0.8098
  232ACOH    H110754   6.539   6.264  10.003  1.0039  1.8366 -0.6122
  232ACOH    H210755   6.577   6.187  10.150  2.4749 -1.7501 -1.1883
  232ACOH    H310756   6.412   6.232  10.131 -1.5245  0.0142  0.0798
  233ACOH    H410757   5.165   3.451   7.218 -1.0302  0.2994 -0.5191
  233ACOH    O210758   5.216   3.447   7.129 -0.6851 -0.0038  0.3284
  233ACOH    C210759   5.232   3.581   7.090 -0.4677 -0.7415 -0.3516
  233ACOH    O110760   5.168   3.673   7.141 -0.2906 -0.1681 -0.3195
  233ACOH    C110761   5.334   3.594   6.981 -0.7985 -0.1936  0.5032
  233ACOH    H110762   5.297   3.538   6.900  2.6523  0.3839  2.7299
  233ACOH    H210763   5.433   3.567   7.006 -2.2381 -1.3325  0.4967
  233ACOH    H310764   5.323   3.706   6.949 -1.1557  1.2766 -2.7240
  234ACOH    H410765   7.210   8.207   2.808  0.3919  0.9393  0.2536
  234ACOH    O210766   7.114   8.215   2.783  0.1095 -0.6341 -0.0683
  234ACOH    C210767   7.096   8.163   2.665  0.1075 -0.4042 -0.6716
  234ACOH    O110768   7.178   8.135   2.581  0.5535 -0.0298 -0.3274
  234ACOH    C110769   6.951   8.148   2.643  0.3496  0.1182  0.2595
  234ACOH    H110770   6.893   8.242   2.666 -2.5958  0.7706  0.5881
  234ACOH    H210771   6.923   8.073   2.714  1.0002 -1.1752 -0.2084
  234ACOH    H310772   6.923   8.110   2.544  1.5145  0.9051  0.9531
  235ACOH    H410773   7.531   5.827   9.525  0.6531 -0.3830 -0.4593
  235ACOH    O210774   7.596   5.883   9.474 -0.3338  0.4209  0.1855
  235ACOH    C210775   7.715   5.860   9.524 -0.2376 -0.2194 -0.7135
  235ACOH    O110776   7.748   5.823   9.637 -0.0516 -0.6982 -0.2711
  235ACOH    C110777   7.822   5.889   9.423  0.2547  0.6110 -0.2014
  235ACOH    H110778   7.901   5.820   9.424 -0.7176  1.6384  0.1127
  235ACOH    H210779   7.860   5.993   9.438  0.3527 -2.4649 -2.1513
  235ACOH    H310780   7.768   5.899   9.327 -1.7658  0.4201 -1.9546
  236ACOH    H410781   7.241   5.139   8.236 -1.9595  0.1045 -0.5107
  236ACOH    O210782   7.161   5.190   8.253 -0.1314  0.5846  0.2174
  236ACOH    C210783   7.069   5.167   8.156  0.8407  0.1378 -0.8180
  236ACOH    O110784   7.081   5.093   8.060  0.9824  0.2570  0.3733
  236ACOH    C110785   6.943   5.234   8.193  0.7017  0.8490  0.9688
  236ACOH    H110786   6.863   5.167   8.202  1.0173 -0.2535  0.0145
  236ACOH    H210787   6.926   5.287   8.098  1.3740 -1.9123  1.1251
  236ACOH    H310788   6.967   5.293   8.287 -0.3083  1.0438  0.6398
  237ACOH    H410789   6.142   8.493   2.711  3.8933  1.1472 -0.3247
  237ACOH    O210790   6.088   8.520   2.635 -0.1258  0.5187 -0.6492
  237ACOH    C210791   5.989   8.423   2.608 -0.0500  0.0764 -0.1290
  237ACOH    O110792   5.960   8.319   2.659  0.4406 -0.0751  0.2910
  237ACOH    C110793   5.926   8.465   2.481  0.4356 -0.0676 -0.3986
  237ACOH    H110794   5.954   8.403   2.399 -0.3845  0.3115  1.9282
  237ACOH    H210795   5.956   8.569   2.455  1.3849  2.7556 -2.1240
  237ACOH    H310796   5.822   8.476   2.498  0.2401  0.9521 -1.2426
  238ACOH    H410797   4.307   0.347   2.701  1.2353 -0.6740 -2.1606
  238ACOH    O210798   4.294   0.422   2.762  0.2262 -0.6347  0.1944
  238ACOH    C210799   4.382   0.430   2.862  0.4163  0.1641  0.3752
  238ACOH    O110800   4.446   0.335   2.908 -0.3326  0.4046  0.2788
  238ACOH    C110801   4.373   0.566   2.931  0.5262  0.7289  0.5615
  238ACOH    H110802   4.414   0.561   3.027  0.8329  0.0150 -0.2225
  238ACOH    H210803   4.271   0.609   2.927  0.1912  0.8480 -0.6643
  238ACOH    H310804   4.429   0.635   2.874  1.7463  1.7242  0.3868
  239ACOH    H410805   7.761   1.228   1.897 -3.6791 -1.1907 -1.3663
  239ACOH    O210806   7.771   1.313   1.848 -0.0578  0.5892  0.6731
  239ACOH    C210807   7.890   1.363   1.890 -0.0349  0.4423 -1.2366
  239ACOH    O110808   7.980   1.318   1.957 -0.1354 -0.3639  0.0588
  239ACOH    C110809   7.891   1.495   1.834  0.1294  0.0894 -0.5521
  239ACOH    H110810   7.943   1.558   1.900  0.7550 -0.2989 -1.3266
  239ACOH    H210811   7.792   1.537   1.819  0.0280 -1.7958 -0.3385
  239ACOH    H310812   7.940   1.490   1.729  0.2715  1.6344 -1.7262
  240ACOH    H410813   4.973   0.536   9.503  0.4206 -0.9079 -3.3522
  240ACOH    O210814   4.992   0.516   9.599  0.3362 -0.3031 -0.3248
  240ACOH    C210815   5.002   0.383   9.607 -0.0445  0.7521 -0.3948
  240ACOH    O110816   5.005   0.304   9.514  0.3594 -0.1448  0.5067
  240ACOH    C110817   4.999   0.355   9.753  0.1061 -0.4321 -0.2680
  240ACOH    H110818   5.090   0.398   9.796  0.2401  1.1707 -0.4915
  240ACOH    H210819   5.005   0.254   9.766  0.8154  1.3181 -1.4048
  240ACOH    H310820   4.908   0.395   9.803  0.8249  2.1930 -0.2670
  241ACOH    H410821   8.189   3.581   7.673  1.4694 -3.1221 -1.7966
  241ACOH    O210822   8.179   3.483   7.668 -0.0997 -0.1687 -0.0016
  241ACOH    C210823   8.300   3.424   7.658 -0.2175 -0.1295 -0.4170
  241ACOH    O110824   8.409   3.488   7.661 -0.1773  0.4006 -0.2199
  241ACOH    C110825   8.299   3.273   7.640 -0.1508 -0.6086  0.9440
  241ACOH    H110826   8.206   3.233   7.680 -1.4458 -1.5679 -0.5870
  241ACOH    H210827   8.388   3.222   7.676  0.0639 -1.3849 -0.9911
  241ACOH    H310828   8.292   3.245   7.534 -1.1472  0.8702  0.0052
  242ACOH    H410829   7.246   3.505   4.284  0.2759  0.4985 -1.3961
  242ACOH    O210830   7.200   3.440   4.229  0.7342  0.2493 -0.2118
  242ACOH    C210831   7.214   3.489   4.106  0.7489 -0.4259  0.2169
  242ACOH    O110832   7.308   3.555   4.072  0.2428  0.4321 -0.5763
  242ACOH    C110833   7.123   3.425   4.010 -0.3142  0.0247  0.1631
  242ACOH    H110834   7.176   3.369   3.936  1.1468  0.6456  4.1026
  242ACOH    H210835   7.056   3.495   3.964  1.4211  1.0321 -1.0339
  242ACOH    H310836   7.059   3.356   4.068  0.5333  2.8841  0.2074
  243ACOH    H410837   5.751   9.402   2.316  0.0202  0.3369  1.3259
  243ACOH    O210838   5.838   9.449   2.335 -0.0546  0.7628 -0.0132
  243ACOH    C210839   5.916   9.422   2.227 -0.0919 -0.1141 -0.5228
  243ACOH    O110840   5.883   9.378   2.120 -0.5388 -0.6973  0.6736
  243ACOH    C110841   6.052   9.464   2.259 -0.3796  0.6600  0.2241
  243ACOH    H110842   6.059   9.568   2.240  0.8468 -1.2441 -1.7111
  243ACOH    H210843   6.132   9.416   2.201 -0.0381 -0.7658 -0.3357
  243ACOH    H310844   6.069   9.447   2.367  1.8217  1.6429  0.6813
  244ACOH    H410845   7.196   5.255   1.423 -0.0695  2.5661 -0.2630
  244ACOH    O210846   7.289   5.244   1.449  0.5566 -0.4438 -0.1207
  244ACOH    C210847   7.289   5.270   1.583 -0.2336  1.2717  0.6447
  244ACOH    O110848   7.209   5.343   1.637 -0.3760 -0.5522 -0.1141
  244ACOH    C110849   7.424   5.239   1.634 -0.2046  0.2347  0.1478
  244ACOH    H110850   7.422   5.133   1.662 -2.0583  0.0845 -0.0309
  244ACOH    H210851   7.443   5.295   1.726 -4.1477 -1.7245  3.8495
  244ACOH    H310852   7.498   5.258   1.552  0.9146  1.7209 -1.8040
  245ACOH    H410853   5.998   1.596   8.620  3.0809 -3.2847  2.0294
  245ACOH    O210854   5.916   1.557   8.576 -0.4016 -0.1620 -0.1009
  245ACOH    C210855   5.901   1.442   8.639 -0.6863 -0.1426  0.0383
  245ACOH    O110856   5.990   1.392   8.707  0.3657  0.6161 -0.0256
  245ACOH    C110857   5.779   1.380   8.606  0.0977 -0.2305  0.7899
  245ACOH    H110858   5.709   1.382   8.690  0.6929 -0.3641  0.1270
  245ACOH    H210859   5.786   1.275   8.565  0.3539  0.6265  1.2732
  245ACOH    H310860   5.736   1.439   8.521  4.3950  1.0237 -2.2806
  246ACOH    H410861   6.902   6.879   6.029 -0.6213  2.0990 -1.6781
  246ACOH    O210862   6.873   6.898   6.123  0.1708  0.4025  0.2381
  246ACOH    C210863   6.767   6.815   6.135  0.2946 -0.4413 -0.7276
  246ACOH    O110864   6.726   6.731   6.061 -0.6687 -0.0903  0.1759
  246ACOH    C110865   6.707   6.835   6.270  0.7924  0.5812 -0.1496
  246ACOH    H110866   6.732   6.757   6.331  1.6360 -0.3624 -1.9263
  246ACOH    H210867   6.602   6.823   6.248 -0.8804  0.9509  1.4492
  246ACOH    H310868   6.715   6.934   6.312 -0.9869  1.3533  1.0743
  247ACOH    H410869   7.832   4.703   4.939  1.5418 -0.4645  1.4558
  247ACOH    O210870   7.841   4.607   4.912  0.0348 -0.0061  1.0546
  247ACOH    C210871   7.817   4.543   5.033 -0.0910  0.3236  0.3786
  247ACOH    O110872   7.842   4.584   5.143  0.8016 -0.2039 -0.0316
  247ACOH    C110873   7.798   4.394   5.002  0.9930 -0.6825  0.0197
  247ACOH    H110874   7.759   4.372   4.901 -3.2982 -0.0215  0.5818
  247ACOH    H210875   7.751   4.335   5.072  1.1441  0.3163 -0.9296
  247ACOH    H310876   7.897   4.358   5.016 -1.8806  3.4928 -0.3965
  248ACOH    H410877   7.034   5.531   8.063  1.3753  0.5462  1.7275
  248ACOH    O210878   7.049   5.562   8.156 -0.1808 -0.3481  0.0673
  248ACOH    C210879   7.100   5.687   8.136 -0.1688  0.6740 -0.7141
  248ACOH    O110880   7.062   5.760   8.047 -0.6118 -0.5901  0.5074
  248ACOH    C110881   7.200   5.733   8.244  0.0869  0.1660  0.1994
  248ACOH    H110882   7.164   5.816   8.294 -1.3119 -2.1853 -1.0190
  248ACOH    H210883   7.295   5.757   8.200 -0.5399  0.7156  2.7425
  248ACOH    H310884   7.218   5.650   8.313  1.8433  0.0114  2.8792
  249ACOH    H410885   5.801   4.995   7.114 -1.4987  1.5784  2.0852
  249ACOH    O210886   5.894   4.953   7.096  0.4837  0.1584 -0.1517
  249ACOH    C210887   5.972   5.004   7.182  0.5498  0.4763 -0.7378
  249ACOH    O110888   5.932   5.042   7.295  0.1938  0.0957  0.1848
  249ACOH    C110889   6.114   4.952   7.164  1.0507  0.2017 -0.2500
  249ACOH    H110890   6.102   4.861   7.108 -2.6094  0.7433 -2.4261
  249ACOH    H210891   6.160   4.940   7.256 -0.8125  1.8605 -1.4719
  249ACOH    H310892   6.168   5.019   7.102 -0.9022  1.0234 -0.4589
  250ACOH    H410893   6.207   0.734   8.674 -1.4194 -0.4598  1.2798
  250ACOH    O210894   6.168   0.786   8.594  0.4009 -0.0839 -0.3873
  250ACOH    C210895   6.065   0.710   8.547 -0.5660  0.6760 -0.0588
  250ACOH    O110896   5.993   0.639   8.615 -0.7592 -0.4888 -0.3851
  250ACOH    C110897   6.040   0.750   8.405  0.2281  0.5471 -0.5337
  250ACOH    H110898   6.124   0.814   8.372  0.2373  1.0004 -0.0842
  250ACOH    H210899   5.947   0.802   8.411  1.4110  1.6872 -1.6643
  250ACOH    H310900   6.035   0.665   8.339  0.2132  4.2437 -1.6161
  251ACOH    H410901   4.496   7.924   9.371 -0.7456 -2.4913  0.7604
  251ACOH    O210902   4.449   7.850   9.410  0.3154  0.2203 -0.6715
  251ACOH    C210903   4.439   7.873   9.544  0.6613  0.2152  0.1412
  251ACOH    O110904   4.445   7.983   9.589 -0.0609  0.0389 -0.1795
  251ACOH    C110905   4.377   7.757   9.620 -0.1330 -0.2233 -0.4067
  251ACOH    H110906   4.264   7.762   9.620 -2.6973 -0.0642 -3.3136
  251ACOH    H210907   4.412   7.774   9.723  1.0824 -0.2845  1.7474
  251ACOH    H310908   4.408   7.663   9.580 -1.6585  0.9451  2.4555
  252ACOH    H410909   7.696   3.164   7.638  0.9145 -1.2975 -1.9418
  252ACOH    O210910   7.612   3.125   7.599 -0.6782 -0.3670 -0.4635
  252ACOH    C210911   7.524   3.229   7.569 -0.5652  0.2549 -0.1342
  252ACOH    O110912   7.555   3.342   7.587 -0.2159 -0.2385  0.0745
  252ACOH    C110913   7.405   3.174   7.494  0.0842  0.0254  0.0904
  252ACOH    H110914   7.341   3.125   7.568 -1.1050  1.2907  0.0000
  252ACOH    H210915   7.438   3.102   7.427  0.2647 -1.0698 -0.6201
  252ACOH    H310916   7.346   3.255   7.437 -1.1609  2.8908 -1.9915
  253ACOH    H410917   5.422   2.987   8.175 -1.6572 -0.2144 -1.6318
  253ACOH    O210918   5.373   2.972   8.087 -0.6627 -0.6542 -0.2052
  253ACOH    C210919   5.398   3.074   8.003 -0.2905  0.2421 -0.6151
  253ACOH    O110920   5.451   3.182   8.030  0.1087 -0.4819 -0.0452
  253ACOH    C110921   5.337   3.050   7.873 -0.3031 -0.1087  0.2881
  253ACOH    H110922   5.323   2.946   7.847  2.3436  0.1717 -0.4861
  253ACOH    H210923   5.404   3.079   7.796  0.3354  3.0246  0.3164
  253ACOH    H310924   5.241   3.105   7.865 -0.8995  2.0880 -0.1861
  254ACOH    H410925   6.777   7.970   8.563 -0.7377 -0.3463 -0.3873
  254ACOH    O210926   6.713   7.988   8.638  0.5387 -0.1017 -0.3832
  254ACOH    C210927   6.762   8.096   8.689  0.9317 -0.3323  0.0513
  254ACOH    O110928   6.866   8.152   8.655 -0.3787  0.1434  0.1816
  254ACOH    C110929   6.677   8.153   8.797  0.7870 -0.7792  0.6854
  254ACOH    H110930   6.715   8.156   8.897  1.7410  0.0990  0.7665
  254ACOH    H210931   6.589   8.095   8.809  1.5510  0.3945  1.9024
  254ACOH    H310932   6.640   8.246   8.768 -0.1641 -4.0014 -2.0510
  255ACOH    H410933   5.180   3.852   8.937  1.8817  1.5560  0.8799
  255ACOH    O210934   5.203   3.817   9.026 -0.3238  0.5895 -0.2536
  255ACOH    C210935   5.337   3.805   9.034 -0.5374  0.4318  0.1471
  255ACOH    O110936   5.421   3.801   8.945  0.3169  0.2621  0.0412
  255ACOH    C110937   5.369   3.755   9.171 -0.4143 -0.0895  0.0123
  255ACOH    H110938   5.467   3.698   9.171 -1.3320  0.7796 -0.9747
  255ACOH    H210939   5.278   3.704   9.217 -1.4602  2.1035  1.5308
  255ACOH    H310940   5.395   3.842   9.233  2.9897  2.5910 -1.9605
  256ACOH    H410941   6.416   2.528   4.837  1.7745  0.3090 -2.1233
  256ACOH    O210942   6.487   2.585   4.870  0.1265  0.4188  0.1658
  256ACOH    C210943   6.478   2.696   4.791 -0.4814 -0.3294  0.2718
  256ACOH    O110944   6.425   2.696   4.679 -0.1351  0.3431 -0.8044
  256ACOH    C110945   6.540   2.814   4.862  0.0314 -0.1840 -0.1963
  256ACOH    H110946   6.555   2.793   4.965  0.7969  1.5875  0.1053
  256ACOH    H210947   6.480   2.900   4.838 -0.8430  1.7590 -0.8419
  256ACOH    H310948   6.634   2.848   4.825 -0.3768  2.2488 -0.1119
  257ACOH    H410949   7.205   2.745   6.317 -1.6549 -0.9934  1.6996
  257ACOH    O210950   7.213   2.703   6.403 -0.2172  0.1176  0.2428
  257ACOH    C210951   7.276   2.590   6.365  0.8435 -0.1102  0.3005
  257ACOH    O110952   7.239   2.513   6.279  0.4483 -0.5163 -0.0458
  257ACOH    C110953   7.372   2.547   6.473  0.2327  0.7511 -0.0367
  257ACOH    H110954   7.421   2.458   6.452 -1.3646 -0.9968  0.3731
  257ACOH    H210955   7.316   2.527   6.562 -1.3474 -1.4629 -0.6772
  257ACOH    H310956   7.444   2.624   6.495  2.8826  0.9196  0.4257
  258ACOH    H410957   8.790   4.013   8.243 -1.0022 -2.8683 -0.9300
  258ACOH    O210958   8.759   4.072   8.319 -0.2475  0.1460  0.4310
  258ACOH    C210959   8.646   4.019   8.359  0.5679 -0.6554 -0.4415
  258ACOH    O110960   8.572   3.944   8.298  0.3893  0.2803 -0.0187
  258ACOH    C110961   8.610   4.067   8.495 -0.2135 -0.0746  0.2358
  258ACOH    H110962   8.666   4.152   8.518 -0.8504  2.0078  0.0955
  258ACOH    H210963   8.633   3.979   8.556 -1.6558 -0.1518 -1.6910
  258ACOH    H310964   8.509   4.085   8.492  1.2803 -0.9243 -0.4460
  259ACOH    H410965   0.652   1.149   4.872  0.3912 -0.0892 -1.1403
  259ACOH    O210966   0.572   1.110   4.922 -0.0491  0.0142 -0.5008
  259ACOH    C210967   0.548   1.187   5.025 -0.5961  0.2902  0.1116
  259ACOH    O110968   0.610   1.287   5.052  0.0601  0.0375 -0.1031
  259ACOH    C110969   0.447   1.118   5.113 -0.8335 -0.4534 -0.1622
  259ACOH    H110970   0.359   1.110   5.049 -1.3344  4.5113  0.3408
  259ACOH    H210971   0.407   1.171   5.201  4.4227  1.0016 -3.2442
  259ACOH    H310972   0.480   1.023   5.132 -0.6110  1.2877 -0.1907
  260ACOH    H410973   3.963   2.483   9.996 -0.4620  1.7902 -1.6518
  260ACOH    O210974   3.901   2.517   9.926  0.0896 -0.0655  0.5784
  260ACOH    C210975   3.788   2.552   9.983 -0.5043 -0.0517  0.1433
  260ACOH    O110976   3.760   2.551  10.104  0.8326  0.3812 -0.3920
  260ACOH    C110977   3.682   2.595   9.886 -0.6454  0.4790 -0.7361
  260ACOH    H110978   3.652   2.693   9.923 -0.4468  1.1965  2.5742
  260ACOH    H210979   3.592   2.534   9.884 -0.5164 -2.3172 -1.9654
  260ACOH    H310980   3.724   2.616   9.787  1.9423  0.0801 -2.6532
  261ACOH    H410981   4.258   5.392   7.213  0.0637  0.9044 -1.7633
  261ACOH    O210982   4.338   5.417   7.160 -1.1283 -0.5773 -0.1891
  261ACOH    C210983   4.377   5.536   7.217  0.4621 -0.2131  0.6936
  261ACOH    O110984   4.327   5.577   7.321 -0.3972  0.4383 -0.0604
  261ACOH    C110985   4.490   5.590   7.143 -0.3936 -0.4509 -0.3669
  261ACOH    H110986   4.507   5.524   7.057  0.8128  1.3203  2.3404
  261ACOH    H210987   4.580   5.583   7.203  1.1859  0.1486  1.6676
  261ACOH    H310988   4.469   5.690   7.111  2.1518 -0.4965  1.5178
  262ACOH    H410989   3.948   8.728   1.125 -0.7132  1.6421  0.0320
  262ACOH    O210990   4.003   8.800   1.086 -0.1729  1.1628  0.3076
  262ACOH    C210991   4.092   8.747   1.001  0.2950 -0.0135 -0.0734
  262ACOH    O110992   4.060   8.648   0.938  0.0720 -1.0533  0.2715
  262ACOH    C110993   4.202   8.840   0.972  0.2137 -0.1002 -0.3849
  262ACOH    H110994   4.243   8.862   1.070  0.1076 -0.5712  1.0521
  262ACOH    H210995   4.167   8.933   0.920  1.5377  2.6225 -0.5383
  262ACOH    H310996   4.282   8.797   0.915 -2.4643  0.7765  1.8649
  263ACOH    H410997   2.670   7.459   3.929 -2.2821  2.4838 -2.1421
  263ACOH    O210998   2.622   7.436   3.850  0.2571 -0.1204  0.5885
  263ACOH    C210999   2.611   7.303   3.858 -0.2521  0.1637  0.0289
  263ACOH    O111000   2.632   7.229   3.950  0.4057 -0.7857  0.1596
  263ACOH    C111001   2.552   7.249   3.732  0.1607 -0.0070 -0.5773
  263ACOH    H111002   2.501   7.153   3.747 -2.7466 -0.8187  1.7320
  263ACOH    H211003   2.634   7.236   3.662  1.7105 -1.4110  3.5132
  263ACOH    H311004   2.485   7.316   3.693  0.2324 -0.5106  0.1206
  264ACOH    H411005   3.613   5.430   4.660  0.0418 -2.5140 -2.9227
  264ACOH    O211006   3.650   5.420   4.754  0.3200 -0.6946 -0.1620
  264ACOH    C211007   3.547   5.403   4.836  0.8952  0.4707  0.1468
  264ACOH    O111008   3.426   5.396   4.806 -0.2088 -0.4775  0.6842
  264ACOH    C111009   3.592   5.381   4.972 -1.0973 -0.6919 -0.0544
  264ACOH    H111010   3.590   5.280   5.006 -2.5641 -1.7876  0.2728
  264ACOH    H211011   3.521   5.443   5.034 -1.9829  1.2504  3.4765
  264ACOH    H311012   3.699   5.417   4.978 -1.7589 -1.1330  0.4692
  265ACOH    H411013   1.079   3.936   3.508  0.0265 -2.2943  0.8591
  265ACOH    O211014   1.052   3.850   3.557 -0.5908  0.1576 -0.2796
  265ACOH    C211015   0.961   3.797   3.474 -0.1442 -0.3089  0.2775
  265ACOH    O111016   0.917   3.853   3.374 -0.1213  0.4314  0.3246
  265ACOH    C111017   0.929   3.660   3.512  0.3100 -0.4110 -0.0115
  265ACOH    H111018   0.861   3.658   3.604 -1.4903 -1.0831 -0.3619
  265ACOH    H211019   1.027   3.616   3.546  0.5067  0.3323  1.0660
  265ACOH    H311020   0.890   3.606   3.427  1.1269  1.1455 -0.9085
  266ACOH    H411021   8.196   4.466   1.678  1.0906 -0.4093  1.6337
  266ACOH    O211022   8.179   4.460   1.580 -0.0527 -0.7521  0.1508
  266ACOH    C211023   8.240   4.356   1.525  0.1229  0.7292  0.0793
  266ACOH    O111024   8.304   4.275   1.587  0.1433  0.6139 -0.1147
  266ACOH    C111025   8.217   4.359   1.379  0.7074 -0.9371 -0.0398
  266ACOH    H111026   8.258   4.269   1.336  0.6986  0.4448 -1.2585
  266ACOH    H211027   8.262   4.453   1.345 -0.8374  1.9606  1.2939
  266ACOH    H311028   8.108   4.353   1.352 -1.3714 -1.1459 -1.9353
  267ACOH    H411029   8.093   3.566   3.702  0.5589 -2.4177  2.1964
  267ACOH    O211030   8.045   3.652   3.726  0.5878  0.5048 -0.5920
  267ACOH    C211031   7.928   3.647   3.661  0.1565 -0.4055  0.2156
  267ACOH    O111032   7.895   3.571   3.570  0.1616  0.7217  0.5175
  267ACOH    C111033   7.838   3.753   3.702 -0.8714 -0.8965  0.1090
  267ACOH    H111034   7.739   3.711   3.693  0.0164  0.9966  1.7812
  267ACOH    H211035   7.845   3.830   3.626 -1.5805 -1.0042  2.9658
  267ACOH    H311036   7.865   3.801   3.798 -2.1140 -2.4931  0.6611
  268ACOH    H411037   5.111   3.486   5.303  1.5993  1.8327  0.6672
  268ACOH    O211038   5.205   3.518   5.279 -0.1995  0.2290  0.6136
  268ACOH    C211039   5.254   3.417   5.203 -0.3352 -0.3246 -0.2790
  268ACOH    O111040   5.208   3.303   5.185 -0.6916  0.1603 -0.4263
  268ACOH    C111041   5.362   3.462   5.113  0.3582  0.4409 -0.0580
  268ACOH    H111042   5.447   3.397   5.111 -0.9185  0.3642 -0.3658
  268ACOH    H211043   5.389   3.568   5.133  1.0395  1.9315  1.8823
  268ACOH    H311044   5.316   3.458   5.008  2.1755 -2.2319 -1.5524
  269ACOH    H411045   7.229   5.780   3.307 -0.9387 -3.9520 -0.4088
  269ACOH    O211046   7.167   5.860   3.292 -0.2691 -0.3888 -0.2815
  269ACOH    C211047   7.051   5.806   3.256 -0.3470 -0.1381  0.0046
  269ACOH    O111048   7.036   5.685   3.231 -0.0973 -0.2084  0.2657
  269ACOH    C111049   6.941   5.900   3.244  0.3173 -0.1075 -0.4858
  269ACOH    H111050   6.953   5.973   3.328 -0.5104  0.4454  0.8657
  269ACOH    H211051   6.834   5.860   3.248  1.0384  1.5494 -0.0075
  269ACOH    H311052   6.947   5.960   3.158 -1.3160 -1.6490 -3.1432
  270ACOH    H411053   4.151   5.020   5.506 -0.4515 -2.5065  1.1011
  270ACOH    O211054   4.115   5.010   5.596  0.0842 -0.0076  0.0061
  270ACOH    C211055   4.210   4.947   5.674 -1.3005  0.1208  0.7234
  270ACOH    O111056   4.302   4.884   5.629 -0.2084  0.3238  0.4435
  270ACOH    C111057   4.164   4.943   5.814  0.7806 -0.7471 -1.1845
  270ACOH    H111058   4.230   4.878   5.875 -1.5651  0.7169  0.3604
  270ACOH    H211059   4.056   4.911   5.823 -3.0677 -1.5692 -2.2675
  270ACOH    H311060   4.169   5.040   5.857 -5.1597 -2.4366 -0.3501
  271ACOH    H411061   5.682   9.708   2.044  0.8910 -1.1377 -0.6397
  271ACOH    O211062   5.645   9.649   1.976 -0.0973  0.2003 -0.3630
  271ACOH    C211063   5.570   9.554   2.034 -0.2897  0.5168  0.2887
  271ACOH    O111064   5.566   9.541   2.157  0.1550  0.4813  0.2631
  271ACOH    C111065   5.509   9.459   1.937  0.4859  0.4284  0.0072
  271ACOH    H111066   5.488   9.524   1.857 -0.4566 -0.1182 -2.3925
  271ACOH    H211067   5.407   9.434   1.970  1.1468 -1.4886 -0.2857
  271ACOH    H311068   5.574   9.376   1.905  1.5406 -1.5660  1.8175
  272ACOH    H411069   5.813   4.632   2.928  0.6935 -2.8863  1.7491
  272ACOH    O211070   5.778   4.659   3.015  0.3677 -0.2905  0.4085
  272ACOH    C211071   5.706   4.558   3.063 -0.3834 -0.3952  0.0117
  272ACOH    O111072   5.668   4.456   3.006 -0.3320 -0.4391 -0.4340
  272ACOH    C111073   5.640   4.594   3.192  0.0411  0.0454 -0.1894
  272ACOH    H111074   5.532   4.588   3.174  1.0712  1.0737  0.2622
  272ACOH    H211075   5.678   4.685   3.230 -0.4816  1.7779  1.0900
  272ACOH    H311076   5.677   4.525   3.260  0.1606  2.1472  0.6881
  273ACOH    H411077   7.464   0.489   9.986  1.1027  0.7996 -1.2144
  273ACOH    O211078   7.431   0.406  10.028  0.2556 -0.3502  0.3783
  273ACOH    C211079   7.304   0.383   9.992  0.2086 -0.0845  0.4940
  273ACOH    O111080   7.228   0.468   9.949  0.3640  0.9475 -0.4318
  273ACOH    C111081   7.256   0.247  10.016 -0.3689 -0.1402  0.1191
  273ACOH    H111082   7.319   0.166  10.053  3.3370 -0.8863 -1.9445
  273ACOH    H211083   7.231   0.209   9.916  1.9228  1.3650 -0.7285
  273ACOH    H311084   7.162   0.255  10.074  1.6761 -0.6796 -0.7112
  274ACOH    H411085   4.179   0.919   2.232  1.9463  0.8456  0.6929
  274ACOH    O211086   4.252   0.972   2.202 -0.4526  0.5439 -0.1113
  274ACOH    C211087   4.340   0.887   2.136 -0.2744 -0.6289 -0.7959
  274ACOH    O111088   4.308   0.772   2.102  0.0050  0.0048  0.0486
  274ACOH    C111089   4.476   0.942   2.107 -0.5644 -0.5472  0.7037
  274ACOH    H111090   4.488   1.041   2.152 -1.9631 -0.5608 -0.1787
  274ACOH    H211091   4.490   0.944   1.999 -0.4654 -0.4456  0.2605
  274ACOH    H311092   4.549   0.877   2.147  0.4727 -1.7040  0.7652
  275ACOH    H411093   5.336   1.153   9.047  2.1210  2.8985 -0.6473
  275ACOH    O211094   5.327   1.048   9.063 -0.0609 -0.6703  0.0728
  275ACOH    C211095   5.288   0.998   8.943 -0.2064 -0.1292 -0.4205
  275ACOH    O111096   5.282   1.057   8.835 -0.3952 -0.1159 -0.2924
  275ACOH    C111097   5.246   0.861   8.962  0.5613  0.4360  0.7670
  275ACOH    H111098   5.249   0.811   8.867 -0.7287  0.0787 -1.1491
  275ACOH    H211099   5.146   0.861   9.002  1.1847  0.5511  0.6249
  275ACOH    H311100   5.323   0.807   9.026  1.4472  2.1992  0.6103
  276ACOH    H411101   7.926   1.880   6.029 -1.6432 -0.4116  1.1942
  276ACOH    O211102   7.863   1.861   6.102 -0.5563 -0.2879 -0.2765
  276ACOH    C211103   7.748   1.838   6.034  0.5152  0.5583 -0.3309
  276ACOH    O111104   7.722   1.816   5.920 -0.1357 -0.5848  0.3328
  276ACOH    C111105   7.639   1.840   6.139  0.4191 -0.6237 -0.5331
  276ACOH    H111106   7.628   1.941   6.175 -2.1654  0.8067 -1.6649
  276ACOH    H211107   7.671   1.770   6.211 -0.6742  1.4818 -0.6190
  276ACOH    H311108   7.550   1.802   6.093  1.4386 -0.4221 -0.3102
  277ACOH    H411109   4.942   0.429   0.821 -2.1870  0.2300 -2.1344
  277ACOH    O211110   4.985   0.508   0.771 -0.2509  0.3380  0.1914
  277ACOH    C211111   4.999   0.466   0.642  0.7298 -0.2037 -0.7157
  277ACOH    O111112   4.963   0.358   0.603  0.2480 -0.6957  0.6024
  277ACOH    C111113   5.033   0.580   0.549 -0.0181 -0.0427  0.2129
  277ACOH    H111114   5.036   0.535   0.449 -0.1573 -1.8393  0.6066
  277ACOH    H211115   5.135   0.610   0.571  0.5516  2.9257  2.2900
  277ACOH    H311116   4.970   0.665   0.559 -0.8007 -0.9053 -2.2788
  278ACOH    H411117   7.749   3.711   6.816  0.0253 -1.6682  0.5093
  278ACOH    O211118   7.714   3.738   6.906 -0.1762 -0.6315  1.2347
  278ACOH    C211119   7.648   3.847   6.870 -0.4367  0.2874 -0.3282
  278ACOH    O111120   7.658   3.910   6.765  0.0656 -0.0869  0.4798
  278ACOH    C111121   7.593   3.913   6.999  0.0814  0.4212 -1.1476
  278ACOH    H111122   7.646   4.009   7.032 -1.8892  0.9333 -1.3117
  278ACOH    H211123   7.583   3.842   7.082  0.5501  2.5942  2.8772
  278ACOH    H311124   7.497   3.946   6.975  3.6253 -0.4917 -1.4501
  279ACOH    H411125   5.832   8.790   2.318  2.9053  0.3549  0.2867
  279ACOH    O211126   5.901   8.830   2.257 -0.1783 -0.2578  0.3026
  279ACOH    C211127   5.836   8.835   2.139  0.1610  0.5641  0.2226
  279ACOH    O111128   5.735   8.781   2.112 -0.1050  0.3094 -0.6251
  279ACOH    C111129   5.920   8.885   2.028 -0.3969 -0.1274  0.9862
  279ACOH    H111130   5.915   8.993   2.025 -0.2246 -0.5007 -1.9249
  279ACOH    H211131   5.884   8.855   1.927  1.2764  0.2297 -0.1854
  279ACOH    H311132   6.026   8.857   2.043  3.1261  0.7370  0.0121
  280ACOH    H411133   3.049   6.900   6.894  4.0840 -2.8255 -4.0594
  280ACOH    O211134   2.947   6.892   6.886 -0.5159  0.0805 -0.5984
  280ACOH    C211135   2.925   6.763   6.895  1.2133  0.2777 -0.1501
  280ACOH    O111136   3.000   6.673   6.926 -0.2801  0.0697 -0.1164
  280ACOH    C111137   2.778   6.747   6.881  0.2370  0.0996  0.7766
  280ACOH    H111138   2.745   6.788   6.781  0.3276 -1.9506  0.0448
  280ACOH    H211139   2.720   6.794   6.952 -0.6334 -1.0619  1.2701
  280ACOH    H311140   2.752   6.642   6.875  1.8248  0.5792 -0.2950
  281ACOH    H411141   7.694   2.406   6.921  1.2504  0.3200 -4.1253
  281ACOH    O211142   7.621   2.418   6.855 -0.4742  0.3891  0.7743
  281ACOH    C211143   7.540   2.314   6.873  1.2792  0.0663  0.0332
  281ACOH    O111144   7.546   2.213   6.939  0.3281  0.6034 -0.3488
  281ACOH    C111145   7.432   2.320   6.774  0.2631 -0.3610 -0.2919
  281ACOH    H111146   7.346   2.377   6.810 -0.9766 -1.1184 -0.6642
  281ACOH    H211147   7.404   2.216   6.752 -0.3633  1.6640  2.4709
  281ACOH    H311148   7.460   2.371   6.688 -3.0640  0.7469 -3.9446
  282ACOH    H411149   7.202   5.805   4.575 -3.0832 -2.3771  0.0708
  282ACOH    O211150   7.196   5.726   4.508 -0.1053 -0.0399 -0.3874
  282ACOH    C211151   7.302   5.648   4.519  0.1576 -0.5068 -0.1210
  282ACOH    O111152   7.391   5.657   4.605  0.1401  0.0923  0.3169
  282ACOH    C111153   7.304   5.561   4.400 -0.5868  0.5586  0.3106
  282ACOH    H111154   7.389   5.563   4.339 -0.5266 -0.8881 -1.3746
  282ACOH    H211155   7.229   5.586   4.336  0.6522 -3.3696  0.4298
  282ACOH    H311156   7.289   5.460   4.439  0.7190  0.2042 -2.8724
  283ACOH    H411157   2.422   0.948   8.695 -0.2056  0.1954  0.7710
  283ACOH    O211158   2.487   1.024   8.672  0.0162 -0.1273 -0.4214
  283ACOH    C211159   2.419   1.135   8.659  0.3948  0.6207 -0.5440
  283ACOH    O111160   2.295   1.145   8.640 -0.0240  0.3858 -0.0165
  283ACOH    C111161   2.507   1.257   8.656 -0.1989 -0.1193 -1.0797
  283ACOH    H111162   2.447   1.340   8.630  0.0932  0.0105 -1.0986
  283ACOH    H211163   2.579   1.242   8.580  0.3019 -1.4245  0.8981
  283ACOH    H311164   2.550   1.275   8.751 -5.2194 -1.1025 -1.9752
  284ACOH    H411165   4.071   5.345   0.638  0.9223  1.2102  1.5142
  284ACOH    O211166   4.070   5.257   0.589  0.3230  0.5893  0.2247
  284ACOH    C211167   4.112   5.289   0.466 -0.1351 -0.3542 -0.0295
  284ACOH    O111168   4.172   5.384   0.429  0.3210  0.2171 -0.2956
  284ACOH    C111169   4.096   5.159   0.383 -0.1693  0.0685  0.4282
  284ACOH    H111170   4.194   5.131   0.358 -3.0064 -3.3446  1.7953
  284ACOH    H211171   4.029   5.174   0.294  1.4477  1.1587 -0.3995
  284ACOH    H311172   4.043   5.082   0.438 -2.3883  1.2497 -2.9590
  285ACOH    H411173   7.548   7.036   1.454 -0.1992 -1.0463  0.9413
  285ACOH    O211174   7.573   7.124   1.491  0.1402  0.1497  0.3819
  285ACOH    C211175   7.657   7.180   1.397 -0.4851 -0.0331 -0.0840
  285ACOH    O111176   7.706   7.123   1.298  0.1556  0.2806 -0.2184
  285ACOH    C111177   7.719   7.311   1.444 -0.2133  0.6983  0.0321
  285ACOH    H111178   7.657   7.350   1.525 -3.0645  2.2462  0.3482
  285ACOH    H211179   7.717   7.372   1.362 -0.9520 -0.6919  0.3652
  285ACOH    H311180   7.823   7.287   1.468 -0.3522  1.2322 -0.4410
  286ACOH    H411181   5.415   6.424   9.904  1.1616  1.5871 -1.2034
  286ACOH    O211182   5.497   6.469   9.938  0.1825  0.0808 -0.2664
  286ACOH    C211183   5.603   6.453   9.861 -0.4326  0.0688  0.3118
  286ACOH    O111184   5.593   6.444   9.741 -0.1610  0.4618 -0.0989
  286ACOH    C111185   5.727   6.509   9.916 -0.7497 -0.2062 -0.0887
  286ACOH    H111186   5.698   6.596   9.972 -0.7374 -2.0325 -1.3632
  286ACOH    H211187   5.796   6.527   9.840 -1.1740 -1.6966 -1.2571
  286ACOH    H311188   5.772   6.427   9.984  1.7489  0.2162 -0.3342
  287ACOH    H411189   5.655   0.748   9.498  0.7196  2.1642  1.1860
  287ACOH    O211190   5.754   0.734   9.498 -0.0007 -0.3050  0.4220
  287ACOH    C211191   5.828   0.829   9.553 -0.2455 -0.2362 -0.1455
  287ACOH    O111192   5.789   0.938   9.591 -0.1552  0.1897  0.3388
  287ACOH    C111193   5.959   0.771   9.550  0.3096 -0.6761 -0.3395
  287ACOH    H111194   6.031   0.819   9.614  1.8816  0.6616  0.9610
  287ACOH    H211195   6.005   0.760   9.451  1.3029  2.8031 -0.5366
  287ACOH    H311196   5.955   0.675   9.597  0.4722  0.0451  2.4204
  288ACOH    H411197   5.915   1.085   6.692 -1.0183  1.5727  1.3557
  288ACOH    O211198   5.893   1.098   6.789  0.8960  0.4097  0.4066
  288ACOH    C211199   5.807   1.200   6.805  0.0333  0.1068 -0.3360
  288ACOH    O111200   5.757   1.277   6.722 -0.2601  0.1558 -0.7913
  288ACOH    C111201   5.767   1.195   6.948 -1.2170 -0.2645  0.8468
  288ACOH    H111202   5.792   1.105   7.002  0.3486  1.0689 -0.9556
  288ACOH    H211203   5.666   1.214   6.955  1.0215 -1.0581  2.1150
  288ACOH    H311204   5.809   1.276   7.006 -2.1142 -3.0541 -0.2822
  289ACOH    H411205   7.907   6.808   2.198  2.1922 -1.2823 -0.7172
  289ACOH    O211206   8.004   6.798   2.183  0.2147  0.1797 -0.0122
  289ACOH    C211207   8.036   6.701   2.269 -0.5289 -0.0683  0.6165
  289ACOH    O111208   7.973   6.649   2.359 -0.4605  0.1085  0.5197
  289ACOH    C111209   8.166   6.650   2.235 -0.0160  0.1212  0.0515
  289ACOH    H111210   8.183   6.557   2.292  2.6387 -1.1445  1.3543
  289ACOH    H211211   8.244   6.725   2.270 -0.4702 -0.7550  1.6086
  289ACOH    H311212   8.183   6.631   2.134 -1.3286  0.3428 -2.3112
  290ACOH    H411213   7.049   5.649   6.366  0.9705  0.0001  4.2551
  290ACOH    O211214   6.952   5.637   6.392  0.0568  0.2364 -0.4324
  290ACOH    C211215   6.894   5.740   6.330 -0.5848 -0.9546  0.3035
  290ACOH    O111216   6.944   5.828   6.257 -0.1625  0.4637 -0.0600
  290ACOH    C111217   6.746   5.736   6.334  0.5405  0.0521  0.9241
  290ACOH    H111218   6.709   5.636   6.308  2.6659 -0.1071  2.2215
  290ACOH    H211219   6.698   5.807   6.270  0.2003 -0.6000 -0.9213
  290ACOH    H311220   6.716   5.748   6.437 -1.7924 -4.3610  0.5902
  291ACOH    H411221   3.377   0.995   3.485  1.5600 -1.1487 -2.2418
  291ACOH    O211222   3.472   1.000   3.463  0.0612 -0.1335  0.2003
  291ACOH    C211223   3.496   0.928   3.356 -0.0462  0.5564  0.0868
  291ACOH    O111224   3.407   0.873   3.287 -0.0116  0.6963  0.3554
  291ACOH    C111225   3.639   0.947   3.316  0.9969 -0.0480  0.0139
  291ACOH    H111226   3.698   1.018   3.375 -0.8258 -2.2586  0.0808
  291ACOH    H211227   3.635   0.973   3.209 -0.7347 -0.6325  0.9724
  291ACOH    H311228   3.696   0.856   3.311  0.5533 -0.3145 -1.2375
  292ACOH    H411229   4.343   2.919   3.870 -0.7734 -1.4454  2.8759
  292ACOH    O211230   4.423   2.914   3.925 -0.0709 -0.2951 -0.7892
  292ACOH    C211231   4.493   3.028   3.924  0.4263 -0.1458 -0.7680
  292ACOH    O111232   4.473   3.116   3.839  0.8253 -0.2935  0.3586
  292ACOH    C111233   4.599   3.015   4.020 -0.0454 -0.0092 -0.0076
  292ACOH    H111234   4.589   3.054   4.111 -0.4788 -0.2946 -0.8493
  292ACOH    H211235   4.686   3.060   3.978 -1.8549 -1.0303 -3.0339
  292ACOH    H311236   4.626   2.909   4.030  4.0464  3.7290  1.2367
  293ACOH    H411237   4.124   5.111   2.755 -3.2223  1.4849  2.8563
  293ACOH    O211238   4.213   5.151   2.731  0.1695 -0.2601 -0.3772
  293ACOH    C211239   4.250   5.093   2.621  0.2673 -0.2171  0.6437
  293ACOH    O111240   4.202   5.005   2.552 -0.2908  0.3841 -0.0903
  293ACOH    C111241   4.371   5.154   2.567  0.2145 -0.2510 -0.0515
  293ACOH    H111242   4.400   5.102   2.479 -1.6478 -1.9053  0.2507
  293ACOH    H211243   4.448   5.155   2.644 -3.6228  1.1410  2.0924
  293ACOH    H311244   4.342   5.255   2.536  2.6146  1.1752  2.7255
  294ACOH    H411245   7.920   8.711   2.061 -1.2378 -0.6260  4.1757
  294ACOH    O211246   7.831   8.750   2.096 -0.0655 -0.4107  0.1122
  294ACOH    C211247   7.754   8.644   2.126  0.8797 -0.0354  0.1615
  294ACOH    O111248   7.791   8.534   2.166  0.6332  0.1031  0.1094
  294ACOH    C111249   7.617   8.693   2.147 -0.0098  0.4296 -0.3293
  294ACOH    H111250   7.545   8.616   2.127 -0.0021  1.5955 -0.3248
  294ACOH    H211251   7.597   8.782   2.093 -1.7584 -1.2977 -0.1414
  294ACOH    H311252   7.593   8.711   2.254 -1.1753  0.7575 -0.7526
  295ACOH    H411253   7.467   3.777   3.197  0.2073  2.0381  0.4349
  295ACOH    O211254   7.497   3.854   3.250 -0.1912 -0.8994  0.3858
  295ACOH    C211255   7.620   3.810   3.285  0.1837  0.4276 -0.5901
  295ACOH    O111256   7.687   3.730   3.222 -0.0231  0.2333  0.0608
  295ACOH    C111257   7.684   3.900   3.387 -0.0227  0.5361  0.5868
  295ACOH    H111258   7.634   3.892   3.484 -0.7101  0.4401  1.1690
  295ACOH    H211259   7.670   4.002   3.356  1.3041 -1.2007  0.7295
  295ACOH    H311260   7.791   3.876   3.394  0.5078 -0.1168 -0.6259
  296ACOH    H411261   5.332   4.005   6.390  2.2921 -3.6128 -0.2942
  296ACOH    O211262   5.401   3.965   6.438  0.3469  0.4689 -0.3451
  296ACOH    C211263   5.382   4.002   6.568 -0.4770  0.1959  0.1897
  296ACOH    O111264   5.281   4.063   6.613 -0.1164 -0.3082  0.0587
  296ACOH    C111265   5.488   3.953   6.660  0.3468  0.3141  0.0021
  296ACOH    H111266   5.459   3.851   6.695  0.2959  1.1740 -1.7686
  296ACOH    H211267   5.502   4.017   6.749 -2.2980  1.1499  1.7356
  296ACOH    H311268   5.583   3.951   6.602  0.5347  3.0111 -1.4087
  297ACOH    H411269   7.138   6.603   8.718 -0.2038 -1.3824 -0.1237
  297ACOH    O211270   7.117   6.530   8.781 -0.1994  0.4224  1.1633
  297ACOH    C211271   7.182   6.556   8.893  0.7651  0.4186 -0.0667
  297ACOH    O111272   7.230   6.658   8.934 -0.2760  0.4584  0.0696
  297ACOH    C111273   7.152   6.450   8.994  0.4732  0.1463 -0.5331
  297ACOH    H111274   7.057   6.402   8.967 -1.0402 -1.1699 -1.3985
  297ACOH    H211275   7.146   6.497   9.091 -2.0620 -2.4384 -1.1453
  297ACOH    H311276   7.228   6.383   8.995  1.2064  1.4987  0.7055
  298ACOH    H411277   3.186   7.999   7.849 -0.5852  0.4635  0.6545
  298ACOH    O211278   3.175   7.998   7.950 -0.3287  0.6470 -0.0321
  298ACOH    C211279   3.290   7.991   8.021  1.1603  0.3977  0.0953
  298ACOH    O111280   3.386   7.929   7.979  0.0987  0.0513  0.6781
  298ACOH    C111281   3.235   7.985   8.163 -0.0701  0.1181 -0.0841
  298ACOH    H111282   3.309   8.010   8.232  0.2548 -0.8011 -2.0673
  298ACOH    H211283   3.207   7.883   8.189  2.3737  0.6632 -0.9572
  298ACOH    H311284   3.146   8.051   8.179  0.6917 -1.9017  0.2848
  299ACOH    H411285   6.238   1.816   2.522 -0.3770  1.0345  2.7125
  299ACOH    O211286   6.212   1.727   2.549  0.3228  0.0655 -0.1055
  299ACOH    C211287   6.133   1.673   2.447 -0.4005  0.3549 -0.0717
  299ACOH    O111288   6.132   1.707   2.332  0.1098  0.2314  0.0651
  299ACOH    C111289   6.053   1.553   2.494  0.6437  0.2688  0.7462
  299ACOH    H111290   6.081   1.523   2.593 -2.3457 -1.8908  1.1017
  299ACOH    H211291   6.056   1.468   2.423 -1.2604  0.6666 -2.0299
  299ACOH    H311292   5.947   1.585   2.490  0.7623 -2.0899 -0.4330
  300ACOH    H411293   9.018   5.005   8.473 -1.3125 -0.2969  2.7431
  300ACOH    O211294   8.998   5.060   8.555 -0.5222  0.3057 -0.3626
  300ACOH    C211295   8.996   5.188   8.508 -0.1579  1.1551 -0.1225
  300ACOH    O111296   8.935   5.221   8.408  0.5266 -0.1951  0.1085
  300ACOH    C111297   9.025   5.287   8.610  0.1718 -0.3280  0.4078
  300ACOH    H111298   8.966   5.258   8.695 -4.1590 -0.6515  2.5210
  300ACOH    H211299   9.003   5.384   8.571 -1.5320 -0.1516 -2.5931
  300ACOH    H311300   9.134   5.276   8.623 -0.8826  1.7077  2.3711
  301ACOH    H411301   5.185   7.657   2.130  2.1529  0.2098  0.4467
  301ACOH    O211302   5.250   7.702   2.077  0.4414  0.0691  0.4359
  301ACOH    C211303   5.366   7.699   2.148  0.2331  0.3072  0.3794
  301ACOH    O111304   5.375   7.694   2.267 -0.2615 -0.8319 -0.4818
  301ACOH    C111305   5.485   7.731   2.063 -0.2615 -0.7335 -0.1294
  301ACOH    H111306   5.543   7.640   2.053 -0.1901  0.1509 -0.7583
  301ACOH    H211307   5.543   7.808   2.113 -0.3726 -0.1912 -0.2858
  301ACOH    H311308   5.456   7.762   1.970  0.7839 -1.8221  1.8675
  302ACOH    H411309   4.815   2.506   3.227  2.0096  2.2471 -1.0353
  302ACOH    O211310   4.796   2.523   3.325 -0.4148  0.6697  0.1620
  302ACOH    C211311   4.715   2.628   3.336  0.2243 -0.1126  0.4720
  302ACOH    O111312   4.683   2.704   3.245  0.0860 -0.4587 -0.7688
  302ACOH    C111313   4.659   2.637   3.469 -0.2485  0.0068  0.0729
  302ACOH    H111314   4.629   2.540   3.500  1.2574 -1.9936  1.3808
  302ACOH    H211315   4.572   2.705   3.477  1.8710  2.5514 -1.8444
  302ACOH    H311316   4.739   2.669   3.529  0.7332 -1.6309  1.6836
  303ACOH    H411317   5.247   5.565   3.451 -1.4680  2.9211 -0.6890
  303ACOH    O211318   5.227   5.474   3.404  0.1380  0.1081 -0.4606
  303ACOH    C211319   5.332   5.444   3.330 -0.2619 -0.2713 -0.2034
  303ACOH    O111320   5.403   5.532   3.287  0.1834  1.0054 -0.2884
  303ACOH    C111321   5.331   5.308   3.279  0.1179  0.1506  0.2505
  303ACOH    H111322   5.226   5.271   3.278  0.1660  2.0828  0.8617
  303ACOH    H211323   5.388   5.242   3.339  0.1186  2.1853 -0.3107
  303ACOH    H311324   5.363   5.301   3.181  0.0772 -0.1371  1.0959
  304ACOH    H411325   9.218   3.516   1.539  0.8083  0.5174 -1.0866
  304ACOH    O211326   9.202   3.491   1.639 -0.2732  0.5081  0.4988
  304ACOH    C211327   9.138   3.592   1.704  0.6215 -0.3275  0.5689
  304ACOH    O111328   9.063   3.675   1.661  0.6740 -0.5326  0.0366
  304ACOH    C111329   9.137   3.556   1.844 -0.3114 -0.7072  0.6048
  304ACOH    H111330   9.099   3.643   1.899 -0.5301  1.9590 -0.2177
  304ACOH    H211331   9.238   3.544   1.876 -0.5240  1.0730 -0.5272
  304ACOH    H311332   9.059   3.480   1.869  1.9615  0.9106  2.8257
  305ACOH    H411333   3.619   6.547   6.905  0.9919  0.0441  0.7210
  305ACOH    O211334   3.565   6.541   6.821  0.3219  0.5594  0.2261
  305ACOH    C211335   3.548   6.407   6.805  0.2741  0.7078  0.1674
  305ACOH    O111336   3.590   6.319   6.883 -0.1719 -0.3623  0.2773
  305ACOH    C111337   3.454   6.379   6.695  0.1655 -0.1491  1.0014
  305ACOH    H111338   3.438   6.462   6.626 -1.1428  1.1369 -1.0397
  305ACOH    H211339   3.356   6.333   6.729 -0.4974 -0.3155 -0.7831
  305ACOH    H311340   3.492   6.304   6.636 -1.3283  3.1895 -0.9848
  306ACOH    H411341   5.398   2.003   4.508 -2.0655 -0.3027 -0.5023
  306ACOH    O211342   5.391   2.067   4.434 -0.2132 -0.2186 -0.0131
  306ACOH    C211343   5.401   1.995   4.315 -0.2514  0.0002 -0.4421
  306ACOH    O111344   5.386   1.877   4.302  0.3824 -0.5522  0.3613
  306ACOH    C111345   5.453   2.075   4.203 -0.7107 -0.8775 -0.3260
  306ACOH    H111346   5.557   2.055   4.171  0.5507  3.0496 -1.8635
  306ACOH    H211347   5.465   2.174   4.244  1.0441 -2.3813 -0.8239
  306ACOH    H311348   5.379   2.068   4.127  0.6793  0.1328  0.0204
  307ACOH    H411349   5.952   2.134   8.951 -1.3055  0.8251  1.6891
  307ACOH    O211350   5.994   2.182   8.875  0.5748  0.4112  0.0544
  307ACOH    C211351   5.935   2.154   8.761  0.3737 -0.3558 -0.4319
  307ACOH    O111352   5.852   2.067   8.743 -0.0828 -0.7480  0.0738
  307ACOH    C111353   5.997   2.237   8.657 -0.0032 -0.8440  0.0270
  307ACOH    H111354   6.103   2.257   8.691  0.1924 -0.2676  2.4164
  307ACOH    H211355   5.952   2.334   8.657 -0.7291 -1.6188 -0.1390
  307ACOH    H311356   5.998   2.196   8.553  0.8357  1.0043  0.1304
  308ACOH    H411357   6.003   7.053   3.551  0.4601 -0.0031 -1.5670
  308ACOH    O211358   5.973   6.975   3.612  0.0374  0.7433  0.4889
  308ACOH    C211359   5.851   6.930   3.584  0.1783  0.0510  0.0844
  308ACOH    O111360   5.789   6.948   3.484  0.8854 -0.1759  0.8130
  308ACOH    C111361   5.795   6.871   3.709  0.5306  0.6656  0.0066
  308ACOH    H111362   5.830   6.912   3.808 -1.9124 -1.0343  1.6020
  308ACOH    H211363   5.814   6.763   3.706  0.4861  1.1820  0.9155
  308ACOH    H311364   5.687   6.889   3.707 -0.7850 -0.3841  3.7575
  309ACOH    H411365   4.724   1.774   3.977 -0.5249 -0.9555 -1.4297
  309ACOH    O211366   4.695   1.791   3.882 -0.1103 -0.3415 -0.0324
  309ACOH    C211367   4.589   1.879   3.887 -0.0479  0.1848  0.4985
  309ACOH    O111368   4.529   1.914   3.985 -0.1366  0.4252 -0.6193
  309ACOH    C111369   4.540   1.890   3.750  0.3808  0.5637 -0.5271
  309ACOH    H111370   4.442   1.940   3.754  1.1572 -1.1057 -0.1395
  309ACOH    H211371   4.528   1.787   3.709  0.4227 -1.4739  0.1656
  309ACOH    H311372   4.608   1.948   3.696 -1.4120 -1.4376  1.7555
  310ACOH    H411373   6.025   6.080   8.111 -1.0597 -0.9874 -0.9712
  310ACOH    O211374   6.079   6.159   8.140 -0.3147 -0.1713  0.3841
  310ACOH    C211375   6.106   6.224   8.023 -0.0553  0.2476 -0.8188
  310ACOH    O111376   6.083   6.191   7.915  0.2100  0.4093 -0.2659
  310ACOH    C111377   6.177   6.347   8.050 -0.5168  0.2839 -0.9389
  310ACOH    H111378   6.223   6.345   8.150 -2.0079 -0.3946  3.0632
  310ACOH    H211379   6.116   6.435   8.034 -0.0607 -1.5159 -2.2351
  310ACOH    H311380   6.250   6.362   7.974 -0.2386 -0.6937 -2.0540
  311ACOH    H411381   4.695   8.436   0.713  0.1082 -1.6216 -2.9385
  311ACOH    O211382   4.743   8.473   0.636  0.4421  0.4580  0.2001
  311ACOH    C211383   4.652   8.459   0.535 -0.3067  0.5907 -0.0028
  311ACOH    O111384   4.554   8.386   0.544  0.1313  0.2016 -0.5466
  311ACOH    C111385   4.690   8.536   0.416 -0.1099 -0.1066  0.1861
  311ACOH    H111386   4.741   8.625   0.443  0.0037  0.4075 -4.0066
  311ACOH    H211387   4.604   8.559   0.355  0.6086 -1.3672  1.2815
  311ACOH    H311388   4.754   8.478   0.355 -0.6470  2.7215 -3.8717
  312ACOH    H411389   4.376   5.200   6.582  3.8909  0.0808 -0.0073
  312ACOH    O211390   4.413   5.264   6.648  0.4470 -0.7509 -0.5866
  312ACOH    C211391   4.316   5.276   6.741 -0.2846 -0.4212 -1.5396
  312ACOH    O111392   4.200   5.255   6.718  0.3546 -0.4700 -0.3024
  312ACOH    C111393   4.363   5.334   6.868 -0.0786 -0.2439 -0.1109
  312ACOH    H111394   4.309   5.426   6.885 -1.0996  0.3352  0.0978
  312ACOH    H211395   4.475   5.349   6.865  1.8147  0.9677 -0.1154
  312ACOH    H311396   4.329   5.267   6.950 -1.2290 -0.8849 -0.4937
  313ACOH    H411397   7.077   2.790   2.918  0.1943  1.1985  3.2192
  313ACOH    O211398   7.058   2.859   2.987  0.3647 -0.5460 -0.0587
  313ACOH    C211399   6.957   2.804   3.061 -0.3884 -0.5109  0.0881
  313ACOH    O111400   6.879   2.719   3.021 -0.2077  0.0243  0.2949
  313ACOH    C111401   6.926   2.876   3.183 -0.7841  0.2506 -0.0191
  313ACOH    H111402   7.003   2.855   3.261 -0.2169 -5.4322  1.7886
  313ACOH    H211403   6.819   2.870   3.213  1.0014 -3.0954  2.3946
  313ACOH    H311404   6.945   2.978   3.152  0.7528  0.9333  0.9658
  314ACOH    H411405   8.131   9.899   0.402  1.8026  0.2699  1.5918
  314ACOH    O211406   8.100   9.844   0.480  0.0257  0.1828 -0.4020
  314ACOH    C211407   7.971   9.820   0.464 -0.6222 -0.6252  0.0206
  314ACOH    O111408   7.900   9.835   0.367  0.0683  0.1988  0.1869
  314ACOH    C111409   7.918   9.758   0.592 -0.9541  0.2159  0.8375
  314ACOH    H111410   7.868   9.668   0.556  0.2425 -1.7512  1.9192
  314ACOH    H211411   7.849   9.823   0.642 -0.3324 -0.3361  0.5572
  314ACOH    H311412   7.997   9.732   0.666 -0.9254  1.7973  1.7106
  315ACOH    H411413   0.672   9.291   9.291  0.4402 -0.9460 -1.3961
  315ACOH    O211414   0.639   9.283   9.196 -0.1465 -0.0214 -0.4502
  315ACOH    C211415   0.577   9.174   9.169  0.1664  0.1200 -0.2101
  315ACOH    O111416   0.585   9.063   9.232 -0.7121 -0.5903  0.2301
  315ACOH    C111417   0.522   9.186   9.029  0.3719  0.6929  0.2245
  315ACOH    H111418   0.426   9.243   9.031  1.8039 -2.0983  0.5529
  315ACOH    H211419   0.492   9.084   8.997 -2.0724  2.0535  0.1523
  315ACOH    H311420   0.601   9.226   8.961 -0.8012  2.9720 -0.8816
  316ACOH    H411421   1.429   6.672   2.017  0.3161  1.1897 -1.0894
  316ACOH    O211422   1.391   6.691   1.930 -0.4632  0.2353  0.0591
  316ACOH    C211423   1.501   6.719   1.857  0.3029  0.1552 -0.3017
  316ACOH    O111424   1.609   6.692   1.897 -0.4619  0.0272  0.3144
  316ACOH    C111425   1.477   6.743   1.716 -0.1439 -0.2380  0.7837
  316ACOH    H111426   1.380   6.791   1.713 -0.5592  0.6648  0.1899
  316ACOH    H211427   1.476   6.639   1.671 -2.2678 -2.7770  2.9509
  316ACOH    H311428   1.560   6.806   1.682  1.5487  1.5123 -1.5289
  317ACOH    H411429   4.636   7.868   8.841  0.4527  0.9784 -0.2723
  317ACOH    O211430   4.560   7.806   8.856  0.2575  0.3223 -0.1449
  317ACOH    C211431   4.514   7.851   8.981  0.7689  0.3725 -0.0401
  317ACOH    O111432   4.568   7.924   9.062  0.1747  0.4516 -0.3869
  317ACOH    C111433   4.402   7.760   9.022 -0.3902  0.7094  0.1546
  317ACOH    H111434   4.338   7.809   9.098 -2.9032  0.4707 -1.2318
  317ACOH    H211435   4.452   7.685   9.075 -2.0030  1.4692 -1.0950
  317ACOH    H311436   4.347   7.722   8.936 -1.1993 -1.1520  0.4036
  318ACOH    H411437   4.071   5.392   6.771  0.1751 -1.1890 -1.4625
  318ACOH    O211438   4.009   5.432   6.833  0.1458 -0.2930 -0.3571
  318ACOH    C211439   3.907   5.487   6.772  0.3244  0.3271  0.5747
  318ACOH    O111440   3.895   5.494   6.655 -0.1535 -0.2302 -0.0782
  318ACOH    C111441   3.817   5.567   6.861 -0.2961  0.2259 -1.2367
  318ACOH    H111442   3.838   5.671   6.850 -2.6092  2.8351 -0.0354
  318ACOH    H211443   3.828   5.539   6.964 -0.9124  0.1589 -1.4466
  318ACOH    H311444   3.717   5.553   6.823 -0.7681 -1.7101 -1.9041
  319ACOH    H411445   7.265   6.940   1.838 -1.6844 -0.7890  1.1925
  319ACOH    O211446   7.243   6.972   1.744 -1.4840  0.6221 -0.0865
  319ACOH    C211447   7.285   7.101   1.729 -0.2531 -0.4450  0.3165
  319ACOH    O111448   7.307   7.180   1.815  0.1676 -0.1049 -0.0721
  319ACOH    C111449   7.262   7.153   1.591  0.2038  0.0603 -0.0580
  319ACOH    H111450   7.189   7.229   1.589 -2.0375  0.3209  1.3000
  319ACOH    H211451   7.225   7.064   1.531 -2.6708 -1.1780 -1.1355
  319ACOH    H311452   7.352   7.196   1.548  0.0243  0.8229  0.8870
  320ACOH    H411453   6.773   7.900   3.019 -0.5332  1.4658 -0.6372
  320ACOH    O211454   6.851   7.837   3.035  0.4403  0.2099 -0.0634
  320ACOH    C211455   6.809   7.722   3.085  1.0351  0.1844  0.1701
  320ACOH    O111456   6.713   7.718   3.160 -0.3838 -0.2902 -0.5212
  320ACOH    C111457   6.905   7.613   3.080 -0.4239  1.0475 -0.6028
  320ACOH    H111458   6.981   7.625   3.012  0.8062  0.3225  1.3952
  320ACOH    H211459   6.862   7.515   3.067  0.4914  1.4384 -3.0381
  320ACOH    H311460   6.954   7.618   3.174 -0.5991 -0.9091  1.2618
  321ACOH    H411461   2.588   0.358   4.654  2.1823 -0.9310 -0.2554
  321ACOH    O211462   2.654   0.363   4.580  0.2007 -0.0544 -0.9686
  321ACOH    C211463   2.578   0.355   4.469  0.8984  0.5837 -0.1511
  321ACOH    O111464   2.465   0.306   4.453  0.5999 -1.1765  0.2065
  321ACOH    C111465   2.656   0.401   4.351 -0.8946 -0.0266 -0.3640
  321ACOH    H111466   2.755   0.449   4.376 -0.7222 -0.2160 -1.2111
  321ACOH    H211467   2.598   0.473   4.288  1.0560  1.8707 -0.1169
  321ACOH    H311468   2.678   0.309   4.293  1.3898  3.3000 -0.2422
  322ACOH    H411469   3.472   2.026   3.153  1.2498  1.5215 -1.1052
  322ACOH    O211470   3.506   1.945   3.205  0.2262  0.1960 -0.3251
  322ACOH    C211471   3.607   1.980   3.291 -0.2558 -0.0157 -0.1939
  322ACOH    O111472   3.678   2.081   3.287  0.3167 -0.2825 -0.1357
  322ACOH    C111473   3.646   1.873   3.381  0.6355  0.0528 -0.1111
  322ACOH    H111474   3.725   1.810   3.342  1.3511 -1.7162  0.1466
  322ACOH    H211475   3.553   1.809   3.387 -1.4081 -1.7196  1.6282
  322ACOH    H311476   3.669   1.901   3.488 -0.6806  2.5319  4.3593
  323ACOH    H411477   5.120   5.978   8.775  0.1242 -1.3932  0.0113
  323ACOH    O211478   5.127   6.066   8.813 -0.3133  0.3233  0.0756
  323ACOH    C211479   5.116   6.054   8.947 -0.2511  0.1724  0.3672
  323ACOH    O111480   5.136   5.951   9.008 -0.3612 -0.0510  0.2385
  323ACOH    C111481   5.070   6.178   9.011  0.0797  0.4112 -0.1507
  323ACOH    H111482   5.045   6.160   9.118  0.1873 -2.3019 -0.6510
  323ACOH    H211483   4.974   6.192   8.963 -0.2621 -1.1276  2.3490
  323ACOH    H311484   5.140   6.257   8.988 -1.3430  0.2016 -0.1729
  324ACOH    H411485   6.633   6.380   6.676  1.8328 -2.1261 -1.4080
  324ACOH    O211486   6.560   6.336   6.726 -0.0396 -0.3590 -0.4500
  324ACOH    C211487   6.608   6.302   6.844  0.0839  0.7942  0.2107
  324ACOH    O111488   6.710   6.347   6.894  0.0209 -0.1662 -0.0474
  324ACOH    C111489   6.512   6.215   6.921 -0.0882  0.5843  0.0529
  324ACOH    H111490   6.483   6.267   7.012  1.8831  0.8703  1.7419
  324ACOH    H211491   6.581   6.140   6.947 -0.9138 -1.1349 -0.0004
  324ACOH    H311492   6.427   6.172   6.873 -0.6612 -2.4949  2.5269
  325ACOH    H411493   6.820   8.679   5.452 -0.5104 -1.0717 -1.7768
  325ACOH    O211494   6.828   8.626   5.374  0.0856 -0.3214  0.5667
  325ACOH    C211495   6.783   8.509   5.423  0.0748  1.1543  0.3876
  325ACOH    O111496   6.746   8.489   5.538 -0.0239  0.0739  1.1002
  325ACOH    C111497   6.775   8.400   5.319  0.6396 -0.2110 -0.3904
  325ACOH    H111498   6.692   8.425   5.252  2.5840 -2.0964  0.9251
  325ACOH    H211499   6.747   8.298   5.354 -1.5536 -0.7663 -1.1180
  325ACOH    H311500   6.871   8.405   5.265 -0.7794 -0.5479 -2.1445
  326ACOH    H411501   7.131   1.954   5.649  1.4667 -3.0209  2.1163
  326ACOH    O211502   7.096   2.030   5.697  0.2720 -0.2132 -0.3230
  326ACOH    C211503   7.193   2.111   5.714 -0.8019 -0.1591 -0.0213
  326ACOH    O111504   7.309   2.115   5.673  0.3481  0.5437 -0.6874
  326ACOH    C111505   7.136   2.229   5.779 -0.7041  0.0162  0.5857
  326ACOH    H111506   7.162   2.322   5.733  0.4773 -0.8794  2.6188
  326ACOH    H211507   7.177   2.236   5.886  1.5470  0.5787  1.0708
  326ACOH    H311508   7.027   2.232   5.778  2.9649 -2.4416 -0.3959
  327ACOH    H411509   3.930   9.745   4.835 -3.7645  1.6045 -1.6516
  327ACOH    O211510   3.933   9.764   4.932 -0.3939  0.3908  0.3998
  327ACOH    C211511   3.816   9.818   4.974  0.5727  0.1887 -0.7934
  327ACOH    O111512   3.735   9.881   4.905  0.2223  0.2912  0.0756
  327ACOH    C111513   3.820   9.833   5.123  0.0296  0.3130 -0.0432
  327ACOH    H111514   3.879   9.758   5.180 -1.5226 -1.9958 -0.1985
  327ACOH    H211515   3.718   9.828   5.157  1.1917 -4.2028 -0.8847
  327ACOH    H311516   3.854   9.933   5.135 -1.0253  0.1330  0.8559
  328ACOH    H411517   5.296   3.055   3.025 -1.4073  2.1408 -2.1815
  328ACOH    O211518   5.313   3.001   3.112 -0.5296 -0.0691  0.0014
  328ACOH    C211519   5.435   2.950   3.113  1.0048 -0.4702 -0.3374
  328ACOH    O111520   5.515   2.943   3.020  0.2016 -0.1672 -0.3905
  328ACOH    C111521   5.452   2.864   3.232 -0.3382 -0.1013 -0.5686
  328ACOH    H111522   5.528   2.915   3.287 -1.4895  1.7545 -0.4334
  328ACOH    H211523   5.490   2.770   3.215 -0.3755  2.4155 -0.3216
  328ACOH    H311524   5.353   2.855   3.291 -0.7565 -1.5874 -0.4397
  329ACOH    H411525   4.567   8.670   0.136 -2.2737 -1.1364 -1.3991
  329ACOH    O211526   4.658   8.632   0.132 -0.2933 -0.8068 -0.2359
  329ACOH    C211527   4.742   8.728   0.088  0.7628  0.0204 -0.6032
  329ACOH    O111528   4.711   8.846   0.064  0.4160  0.5969  0.7412
  329ACOH    C111529   4.881   8.680   0.082  0.3690 -0.1685 -0.5424
  329ACOH    H111530   4.879   8.585   0.030 -0.9242  0.3284  0.6967
  329ACOH    H211531   4.921   8.668   0.181  0.2868  0.1342  1.1636
  329ACOH    H311532   4.939   8.754   0.031  3.1220  0.5976  0.1979
  330ACOH    H411533   5.080   3.976   5.654  2.6612  2.6813 -1.3013
  330ACOH    O211534   5.098   3.948   5.562  0.4487  0.0384  0.7017
  330ACOH    C211535   5.126   3.818   5.575  0.4764 -0.4863  0.4573
  330ACOH    O111536   5.140   3.751   5.677 -0.1217  0.4503  0.3539
  330ACOH    C111537   5.128   3.763   5.442 -0.6158  0.0630  0.1568
  330ACOH    H111538   5.027   3.735   5.406  2.6266 -1.1424 -1.1198
  330ACOH    H211539   5.200   3.680   5.454 -0.6370  0.6003 -1.3334
  330ACOH    H311540   5.177   3.841   5.381  1.9539 -1.8082 -3.0007
  331ACOH    H411541   8.133   2.278   7.890  0.4648 -0.8561  1.5933
  331ACOH    O211542   8.234   2.301   7.895  0.0035  0.0678  0.4162
  331ACOH    C211543   8.295   2.238   7.798 -0.4620  0.2250  0.5181
  331ACOH    O111544   8.260   2.126   7.761 -0.3050 -0.6235 -0.3128
  331ACOH    C111545   8.427   2.298   7.769 -0.1653 -0.4311 -0.2492
  331ACOH    H111546   8.459   2.368   7.846  3.0615  0.6945  0.9510
  331ACOH    H211547   8.422   2.361   7.672  0.4244  3.9584 -0.2693
  331ACOH    H311548   8.500   2.221   7.750  1.7934  0.0271 -2.3182
  332ACOH    H411549   6.849   0.539   0.545 -0.2681  1.4974 -3.4448
  332ACOH    O211550   6.872   0.473   0.613  0.1349  0.4360 -0.5432
  332ACOH    C211551   7.009   0.475   0.602  0.0370 -0.4887 -0.5514
  332ACOH    O111552   7.075   0.529   0.516  0.0662 -0.3840 -0.0381
  332ACOH    C111553   7.062   0.389   0.705 -0.6023 -0.2138  0.2140
  332ACOH    H111554   7.025   0.431   0.803 -0.8019 -1.8071 -0.2659
  332ACOH    H211555   7.168   0.380   0.693  1.6524  1.6710 -0.4306
  332ACOH    H311556   7.020   0.289   0.701 -1.0644  0.1077  0.0096
  333ACOH    H411557   4.732   4.788   4.445  0.5826 -2.6183  2.0752
  333ACOH    O211558   4.770   4.771   4.358 -0.3218 -0.2028 -0.2399
  333ACOH    C211559   4.707   4.658   4.310  0.2209 -0.4042 -0.8683
  333ACOH    O111560   4.616   4.599   4.372  0.1609 -0.0473 -0.2913
  333ACOH    C111561   4.755   4.612   4.180 -0.3538 -0.0453  0.1210
  333ACOH    H111562   4.814   4.687   4.117 -3.0346  2.6805 -1.6954
  333ACOH    H211563   4.677   4.568   4.123  1.0534 -0.6693  2.7275
  333ACOH    H311564   4.827   4.535   4.193  0.6414 -0.7108 -0.5532
  334ACOH    H411565   0.065   0.155   2.256  0.2138 -1.4691 -1.2106
  334ACOH    O211566   0.002   0.180   2.322  0.0481 -0.3146  0.1577
  334ACOH    C211567  -0.025   0.310   2.326  0.4386 -0.2864 -0.3208
  334ACOH    O111568  -0.020   0.378   2.222 -0.2903 -0.2566 -0.2256
  334ACOH    C111569  -0.102   0.335   2.448  0.1702 -0.1351 -0.1016
  334ACOH    H111570  -0.104   0.440   2.467 -0.0130  2.4108  1.7036
  334ACOH    H211571  -0.053   0.288   2.533 -0.4328  0.5845  0.4988
  334ACOH    H311572  -0.196   0.288   2.439  1.5429  0.4153 -3.5156
  335ACOH    H411573   6.781   1.490   5.139 -2.3845 -1.7849 -0.1787
  335ACOH    O211574   6.818   1.518   5.050  0.0415  0.2647  0.3660
  335ACOH    C211575   6.926   1.446   5.025  0.1073 -0.5765  0.8438
  335ACOH    O111576   7.009   1.392   5.095 -0.3821 -0.4395  0.0277
  335ACOH    C111577   6.952   1.460   4.880  1.1000 -0.0048 -0.3398
  335ACOH    H111578   7.057   1.426   4.858 -1.3911 -0.6014 -1.5317
  335ACOH    H211579   6.939   1.567   4.851 -1.4859  1.2050 -0.5751
  335ACOH    H311580   6.888   1.397   4.818  3.9988  3.8811 -0.4450
  336ACOH    H411581   6.643   1.870   3.898  0.7339 -2.5447  0.6323
  336ACOH    O211582   6.644   1.875   3.796 -0.3236 -0.2082  0.5849
  336ACOH    C211583   6.697   1.763   3.755 -0.3305  0.3212  0.2817
  336ACOH    O111584   6.674   1.655   3.813  0.2000 -0.0524 -0.4480
  336ACOH    C111585   6.737   1.766   3.613 -0.6424 -0.1645 -0.1244
  336ACOH    H111586   6.825   1.705   3.591  0.3677 -0.1711 -0.6669
  336ACOH    H211587   6.774   1.867   3.591  0.2121  1.3878 -3.5560
  336ACOH    H311588   6.650   1.744   3.549 -1.8765 -2.5620 -1.4464
  337ACOH    H411589   6.556   4.943   2.815 -0.2594 -2.0566  0.1443
  337ACOH    O211590   6.648   4.954   2.787  0.0368  0.1435  0.4147
  337ACOH    C211591   6.723   4.984   2.894  0.6801 -0.5601  0.3275
  337ACOH    O111592   6.692   4.987   3.014  0.1822 -0.0211 -0.2859
  337ACOH    C111593   6.845   5.052   2.846 -0.0186 -0.5123 -0.0397
  337ACOH    H111594   6.811   5.125   2.771 -0.5523  1.5098 -1.9471
  337ACOH    H211595   6.903   4.974   2.798  1.2645  0.5941  1.9125
  337ACOH    H311596   6.904   5.100   2.925  3.5456  1.0951 -0.8033
  338ACOH    H411597   4.621   6.441   0.310  0.1409 -0.4930 -1.3808
  338ACOH    O211598   4.660   6.525   0.282  0.5008  0.8560 -0.4388
  338ACOH    C211599   4.562   6.615   0.255  0.1884 -0.5917  0.2730
  338ACOH    O111600   4.589   6.727   0.219  0.4145  0.1414  0.6667
  338ACOH    C111601   4.419   6.559   0.252  0.1957 -0.4470 -0.4497
  338ACOH    H111602   4.391   6.529   0.348  2.3454  0.2699 -3.5565
  338ACOH    H211603   4.414   6.477   0.182 -1.2565  1.7326  0.7329
  338ACOH    H311604   4.352   6.642   0.216 -0.9594 -0.2915  1.7228
  339ACOH    H411605   7.379   7.641   2.730 -0.0555  3.6844  1.1755
  339ACOH    O211606   7.307   7.650   2.654 -0.4125  0.2025  0.1737
  339ACOH    C211607   7.226   7.739   2.711  0.1365 -0.5961 -0.4067
  339ACOH    O111608   7.244   7.832   2.792 -0.8940  0.2241 -0.1387
  339ACOH    C111609   7.102   7.740   2.630  0.0161 -0.5282 -0.1471
  339ACOH    H111610   7.112   7.808   2.544 -3.0939  1.1246 -0.0588
  339ACOH    H211611   7.025   7.779   2.695  0.6465  0.8874  1.7493
  339ACOH    H311612   7.074   7.641   2.588 -0.5621 -1.4292  0.1650
  340ACOH    H411613   4.783   3.336   4.612  0.1217  1.4127 -0.8504
  340ACOH    O211614   4.776   3.307   4.519  0.6090  0.0888 -0.6973
  340ACOH    C211615   4.684   3.205   4.506 -0.7946 -0.1970 -0.1060
  340ACOH    O111616   4.657   3.125   4.594 -0.6950 -0.1642  0.2188
  340ACOH    C111617   4.650   3.170   4.363  0.1677 -0.1830 -0.6360
  340ACOH    H111618   4.710   3.232   4.303  0.0039  1.8787 -0.0160
  340ACOH    H211619   4.549   3.197   4.340 -0.3533  0.6424  2.1889
  340ACOH    H311620   4.669   3.067   4.346  1.7493 -0.9940  1.5178
  341ACOH    H411621   4.879   3.532   2.912  0.8181  0.6012 -1.5371
  341ACOH    O211622   4.930   3.597   2.967  0.0793 -0.7240  0.1977
  341ACOH    C211623   4.858   3.714   2.944  0.3397 -0.1877  0.0456
  341ACOH    O111624   4.767   3.727   2.859  0.3457  0.5067  0.0874
  341ACOH    C111625   4.940   3.830   2.995 -0.1257  0.5079 -0.1761
  341ACOH    H111626   4.992   3.817   3.090 -0.6098 -1.7585  0.1721
  341ACOH    H211627   4.884   3.927   2.994  1.0569  0.3318  2.3525
  341ACOH    H311628   5.014   3.849   2.925  2.0514  0.7922  0.7958
  342ACOH    H411629   1.503   0.954   3.788  0.7639  0.4110 -0.1060
  342ACOH    O211630   1.538   0.864   3.818  0.3028 -0.2522  0.1325
  342ACOH    C211631   1.545   0.789   3.712 -0.0829 -0.4768 -0.5633
  342ACOH    O111632   1.501   0.814   3.603 -1.1474  0.3474  0.3588
  342ACOH    C111633   1.595   0.649   3.732  0.1050 -0.0545  0.8140
  342ACOH    H111634   1.644   0.639   3.829  1.0982 -0.7317 -0.9086
  342ACOH    H211635   1.668   0.628   3.657 -2.1689 -0.0537  0.4881
  342ACOH    H311636   1.510   0.584   3.726 -0.2696  0.3046  1.7346
  343ACOH    H411637   8.660   6.524   0.085  0.1542 -0.5804 -0.2326
  343ACOH    O211638   8.761   6.517   0.077 -0.6095 -0.3746 -0.1853
  343ACOH    C211639   8.797   6.390   0.041  0.1738  0.6643  0.4776
  343ACOH    O111640   8.718   6.301   0.001 -0.7199  0.3594 -0.4006
  343ACOH    C111641   8.945   6.367   0.051 -0.9974 -0.4101  0.0932
  343ACOH    H111642   8.967   6.356   0.159 -0.3121  1.0550  1.4264
  343ACOH    H211643   8.995   6.458   0.014  0.3895 -1.5874 -1.0543
  343ACOH    H311644   8.974   6.278   0.002 -0.2769  0.0727  1.7017
  344ACOH    H411645   5.888   6.770   5.037 -0.2702  1.0946  1.6956
  344ACOH    O211646   5.889   6.761   4.932 -0.4820 -0.1010  0.2203
  344ACOH    C211647   5.779   6.806   4.869 -0.2733  0.2483 -0.5728
  344ACOH    O111648   5.690   6.870   4.921 -0.5528  0.8912  0.1618
  344ACOH    C111649   5.792   6.771   4.727 -0.2812  0.0704  0.2376
  344ACOH    H111650   5.731   6.824   4.664 -0.5364  1.2242  2.2053
  344ACOH    H211651   5.770   6.663   4.721 -1.4133  1.7639 -0.4627
  344ACOH    H311652   5.894   6.793   4.694  1.6555 -2.3533 -1.7701
  345ACOH    H411653   6.084   9.267   2.560  1.4859  1.2675 -0.0068
  345ACOH    O211654   6.044   9.223   2.477 -0.4225  0.6582  0.1568
  345ACOH    C211655   5.916   9.184   2.513  0.2079  0.3780  0.3014
  345ACOH    O111656   5.846   9.211   2.612 -0.2991 -0.0151  0.4854
  345ACOH    C111657   5.860   9.105   2.392  0.0752  0.2482 -0.1919
  345ACOH    H111658   5.915   9.008   2.385  0.0755 -2.2062 -1.5796
  345ACOH    H211659   5.866   9.169   2.305 -0.5245  0.7265  0.5705
  345ACOH    H311660   5.761   9.085   2.411  1.7218 -2.7419 -0.3078
  346ACOH    H411661   6.181   6.746   5.104  2.3862 -0.1838 -0.7874
  346ACOH    O211662   6.196   6.669   5.164 -0.2260  0.3418  0.2811
  346ACOH    C211663   6.261   6.685   5.281 -0.0488  1.0040 -0.1550
  346ACOH    O111664   6.297   6.791   5.328 -0.0829  0.9376  0.3157
  346ACOH    C111665   6.267   6.562   5.368 -0.1810  0.7476  0.7852
  346ACOH    H111666   6.333   6.471   5.342  1.2391 -1.0585  0.9372
  346ACOH    H211667   6.162   6.535   5.381 -0.2669  3.1590  0.3195
  346ACOH    H311668   6.300   6.592   5.463 -1.4717 -2.1878 -2.6537
  347ACOH    H411669   3.441   5.951   1.146 -0.3308 -0.0178  1.2087
  347ACOH    O211670   3.432   5.884   1.218 -0.0065  0.0576 -0.1625
  347ACOH    C211671   3.474   5.760   1.175  0.5407  0.2659 -0.1829
  347ACOH    O111672   3.555   5.755   1.087  0.2896  0.5589  0.6371
  347ACOH    C111673   3.459   5.653   1.271 -0.4552 -0.2469 -0.4370
  347ACOH    H111674   3.390   5.686   1.351 -0.1107 -2.0996  2.0800
  347ACOH    H211675   3.554   5.633   1.314  0.2526  3.2097  0.3511
  347ACOH    H311676   3.422   5.563   1.222 -0.2392  0.1244 -1.4476
  348ACOH    H411677   6.259   3.322   3.290  1.2813  1.9783 -0.3536
  348ACOH    O211678   6.181   3.354   3.344 -0.0066  0.1053 -0.2412
  348ACOH    C211679   6.132   3.466   3.282 -0.1688 -0.2985 -0.1076
  348ACOH    O111680   6.186   3.538   3.205  0.1740 -0.5692  0.2774
  348ACOH    C111681   5.994   3.503   3.334  0.1889 -0.2463  0.0886
  348ACOH    H111682   5.923   3.525   3.255  0.2295  0.7117  0.1227
  348ACOH    H211683   6.018   3.591   3.392 -3.4276  3.8056  1.3474
  348ACOH    H311684   5.947   3.436   3.401  4.0538  0.8847 -0.2426
  349ACOH    H411685   5.672   7.048   5.307 -1.3409 -3.6841 -3.4719
  349ACOH    O211686   5.618   7.031   5.394 -0.5450 -0.7924 -0.3473
  349ACOH    C211687   5.689   6.967   5.485  0.3456  0.3061  0.4056
  349ACOH    O111688   5.806   6.931   5.477  0.2810  0.9069 -0.0235
  349ACOH    C111689   5.604   6.932   5.602  0.3404  0.4479  0.5655
  349ACOH    H111690   5.508   6.878   5.572 -1.4394  0.9649 -0.9723
  349ACOH    H211691   5.584   7.018   5.652  0.1997 -0.3199  2.1724
  349ACOH    H311692   5.669   6.874   5.667  0.8582 -0.0631 -3.1095
  350ACOH    H411693   4.705   7.177   2.227  0.9216 -0.8794 -1.4442
  350ACOH    O211694   4.736   7.149   2.138  0.1159  0.4137  0.4456
  350ACOH    C211695   4.843   7.225   2.095  0.2355  0.7735 -0.3884
  350ACOH    O111696   4.891   7.322   2.155 -0.0628 -0.4481  1.0967
  350ACOH    C111697   4.871   7.178   1.956 -0.1889 -0.0496 -0.1325
  350ACOH    H111698   4.784   7.188   1.899 -0.8693  1.0086  2.8018
  350ACOH    H211699   4.896   7.073   1.961 -0.3699 -1.2485  0.5132
  350ACOH    H311700   4.960   7.223   1.899  1.4678 -1.5331 -1.3445
  351ACOH    H411701   8.127   3.992   4.006  1.4960  0.5264  1.8986
  351ACOH    O211702   8.132   4.082   4.050  0.2734 -0.1583  0.5951
  351ACOH    C211703   8.044   4.079   4.153  0.2798  0.7001  0.7250
  351ACOH    O111704   8.011   3.976   4.206 -0.1789  0.2295  0.9124
  351ACOH    C111705   8.057   4.202   4.237 -1.1066 -0.0342  0.5470
  351ACOH    H111706   7.955   4.241   4.250 -2.1228 -1.1880  0.9251
  351ACOH    H211707   8.120   4.273   4.193  1.8438 -0.3207 -0.6997
  351ACOH    H311708   8.102   4.173   4.330  2.4316 -2.4166 -0.2260
  352ACOH    H411709   4.344   0.959   7.644  1.6915  0.3050  2.3224
  352ACOH    O211710   4.424   1.009   7.676 -0.3909  0.0765  0.3559
  352ACOH    C211711   4.393   1.134   7.625  0.0212 -0.2359  0.3856
  352ACOH    O111712   4.309   1.166   7.540  0.2324  0.0618  0.3501
  352ACOH    C111713   4.487   1.231   7.681  0.5697  0.4741  0.0861
  352ACOH    H111714   4.585   1.190   7.668 -1.7485  2.6371  1.5185
  352ACOH    H211715   4.466   1.239   7.790  1.9300 -1.5806  1.7830
  352ACOH    H311716   4.484   1.328   7.637 -0.2980  0.1020 -1.1539
  353ACOH    H411717   7.500   8.265  10.064 -1.3667 -0.7668 -2.8004
  353ACOH    O211718   7.452   8.342  10.048 -0.1556 -0.0560 -0.4682
  353ACOH    C211719   7.339   8.301   9.979 -0.5567 -0.2967 -0.3199
  353ACOH    O111720   7.322   8.193   9.928  0.2792  0.5570  0.1280
  353ACOH    C111721   7.253   8.420   9.961  0.9208 -0.0247 -0.0299
  353ACOH    H111722   7.173   8.396   9.892 -0.0264  0.1753 -1.2730
  353ACOH    H211723   7.304   8.508   9.921 -1.8830  0.8272 -1.1091
  353ACOH    H311724   7.213   8.446  10.059 -1.8350 -1.5486 -3.4709
  354ACOH    H411725   9.311   4.045   7.714 -0.3517  0.5522  0.5995
  354ACOH    O211726   9.273   3.965   7.664 -0.1108  0.1725 -0.2072
  354ACOH    C211727   9.167   3.931   7.733 -0.6794  0.8387  0.1461
  354ACOH    O111728   9.114   3.996   7.819 -0.6853 -0.2565 -0.2504
  354ACOH    C111729   9.121   3.803   7.679  0.1781  0.5334  0.0929
  354ACOH    H111730   9.201   3.733   7.670 -0.9310  0.5067 -0.7319
  354ACOH    H211731   9.068   3.826   7.585 -2.0048 -0.7223 -0.0391
  354ACOH    H311732   9.045   3.763   7.755 -0.0807 -1.2280  3.1282
  355ACOH    H411733   6.009   3.956   8.256  0.1665 -2.1013 -0.6805
  355ACOH    O211734   6.010   3.864   8.223  0.6823  0.1165 -0.3981
  355ACOH    C211735   5.916   3.795   8.297  0.3168  0.0726 -0.0440
  355ACOH    O111736   5.935   3.782   8.420  0.3087 -0.2699  0.4186
  355ACOH    C111737   5.855   3.693   8.213  0.5011 -0.0237  0.7656
  355ACOH    H111738   5.837   3.740   8.118 -1.2025 -1.4461  1.9138
  355ACOH    H211739   5.763   3.663   8.257  0.0552  0.4121 -1.4087
  355ACOH    H311740   5.918   3.609   8.195 -2.3756 -0.0035  2.3167
  356ACOH    H411741   6.718   0.185   9.305 -0.8638 -2.9089  1.0655
  356ACOH    O211742   6.615   0.191   9.326 -0.1620  0.2385 -0.1298
  356ACOH    C211743   6.592   0.132   9.444  0.3243  0.1358 -0.2067
  356ACOH    O111744   6.678   0.090   9.524 -0.3043 -0.0526 -0.1088
  356ACOH    C111745   6.450   0.137   9.486 -0.4469 -0.0073  0.1095
  356ACOH    H111746   6.438   0.087   9.585  1.5696 -0.6019 -0.7571
  356ACOH    H211747   6.396   0.077   9.416 -3.3208  1.3699  0.9009
  356ACOH    H311748   6.407   0.237   9.493  1.1091 -3.3971  1.2653
  357ACOH    H411749   7.239   9.609   7.714 -0.2600 -1.6695  1.0500
  357ACOH    O211750   7.162   9.618   7.769  0.1349 -0.7912  0.4177
  357ACOH    C211751   7.081   9.713   7.722  0.7325 -0.0913 -0.0481
  357ACOH    O111752   7.087   9.748   7.608  0.2069  0.7760  0.1810
  357ACOH    C111753   6.959   9.733   7.808  0.0284 -0.5121 -0.5829
  357ACOH    H111754   6.985   9.727   7.917  0.8545 -0.4548  1.5161
  357ACOH    H211755   6.882   9.664   7.774  0.1074 -1.2640  1.3483
  357ACOH    H311756   6.923   9.832   7.793 -1.3296  2.3003 -0.7120
  358ACOH    H411757   9.060   7.462   1.858  2.4598  0.2053  2.7721
  358ACOH    O211758   9.060   7.425   1.763  0.0765  0.1509 -0.0247
  358ACOH    C211759   9.129   7.306   1.767  0.8099 -0.0202 -0.1175
  358ACOH    O111760   9.191   7.265   1.864  0.2689 -0.4642 -0.0479
  358ACOH    C111761   9.130   7.228   1.639  0.1066 -0.1701  0.1957
  358ACOH    H111762   9.228   7.179   1.626  0.6903 -0.5504  0.9309
  358ACOH    H211763   9.119   7.294   1.558 -2.6164  0.7496  0.8284
  358ACOH    H311764   9.061   7.152   1.647  0.3302  1.2148 -0.6353
  359ACOH    H411765   7.345   3.301   5.690  1.0136  0.7210  1.2055
  359ACOH    O211766   7.269   3.236   5.715 -0.0329  0.1501  0.2298
  359ACOH    C211767   7.289   3.200   5.841 -0.0026  0.4967 -0.1705
  359ACOH    O111768   7.380   3.228   5.914 -0.5464 -0.4166  0.1531
  359ACOH    C111769   7.188   3.108   5.880  0.3930 -0.6485 -0.4541
  359ACOH    H111770   7.089   3.110   5.837 -0.1882 -1.4362  1.3969
  359ACOH    H211771   7.164   3.110   5.985 -1.2649  1.5877 -2.6999
  359ACOH    H311772   7.223   3.007   5.869  1.3149  0.8027 -0.6733
  360ACOH    H411773   5.277   2.592   9.249 -0.6233  2.6431  0.9634
  360ACOH    O211774   5.294   2.500   9.282 -0.1958  0.3861  0.1787
  360ACOH    C211775   5.351   2.444   9.176  0.0942 -0.0940 -0.0336
  360ACOH    O111776   5.384   2.494   9.071  0.1103  0.8642  0.1384
  360ACOH    C111777   5.366   2.295   9.197  0.4649  0.2399 -0.0327
  360ACOH    H111778   5.276   2.241   9.214  0.5363 -0.5003 -0.8334
  360ACOH    H211779   5.423   2.283   9.291 -0.4213  3.4736 -0.0964
  360ACOH    H311780   5.417   2.252   9.117  0.7821 -0.5614  0.6320
  361ACOH    H411781   4.486   0.513   2.344 -1.3268 -1.3327 -2.3080
  361ACOH    O211782   4.431   0.594   2.379  1.3387 -0.6069 -0.1411
  361ACOH    C211783   4.466   0.600   2.507 -0.7032 -0.4735  0.5396
  361ACOH    O111784   4.548   0.543   2.576  0.5791 -0.7104  0.0241
  361ACOH    C111785   4.378   0.695   2.580 -0.9232 -0.9456 -0.0367
  361ACOH    H111786   4.340   0.648   2.670  1.8328  2.8591 -0.5330
  361ACOH    H211787   4.296   0.715   2.523  0.7371  2.4693  1.8918
  361ACOH    H311788   4.428   0.785   2.594 -3.2452 -0.9398  0.4836
  362ACOH    H411789   1.725   2.767   0.105  0.7182  1.8093  0.1467
  362ACOH    O211790   1.660   2.739   0.173  0.5148 -0.0635  0.4554
  362ACOH    C211791   1.650   2.604   0.168 -0.2074  0.1117 -0.2572
  362ACOH    O111792   1.748   2.529   0.156 -0.1967 -0.7752  0.3931
  362ACOH    C111793   1.517   2.549   0.210  0.0879 -0.4073 -0.5351
  362ACOH    H111794   1.507   2.442   0.186  1.3856 -2.5547  1.8278
  362ACOH    H211795   1.437   2.606   0.164 -1.4565  0.2367  2.3334
  362ACOH    H311796   1.503   2.551   0.319 -0.2488 -2.7627 -1.1329
  363ACOH    H411797   5.641   7.535   1.831 -0.0510  0.8528 -0.4212
  363ACOH    O211798   5.743   7.537   1.831  0.1077 -0.4425 -0.0767
  363ACOH    C211799   5.780   7.418   1.779 -0.1710  0.1223 -0.0224
  363ACOH    O111800   5.732   7.361   1.681  0.5679  0.7057  0.9179
  363ACOH    C111801   5.922   7.385   1.821  0.1791 -0.2000 -0.1989
  363ACOH    H111802   5.980   7.319   1.760  0.9938  0.1007 -0.7289
  363ACOH    H211803   5.920   7.337   1.921  3.2609  0.0838 -2.5431
  363ACOH    H311804   5.984   7.479   1.828  2.7251  1.1414  0.9245
  364ACOH    H411805   8.002   6.852   1.741  1.7902  1.3804 -3.4648
  364ACOH    O211806   8.024   6.882   1.651 -0.8828 -0.0335  0.6818
  364ACOH    C211807   7.993   7.012   1.636 -0.5555 -0.2062 -0.4186
  364ACOH    O111808   7.947   7.078   1.728 -0.4258 -0.0386  0.0084
  364ACOH    C111809   8.032   7.077   1.507 -0.2366  0.8793 -0.6594
  364ACOH    H111810   8.133   7.057   1.476  0.1064 -0.0744 -2.5255
  364ACOH    H211811   8.027   7.182   1.521  0.2869  0.2981  1.4129
  364ACOH    H311812   7.973   7.042   1.425 -0.4653  0.7250 -1.1483
  365ACOH    H411813   4.600   4.446   5.233  1.4661  2.4516 -1.9709
  365ACOH    O211814   4.663   4.521   5.256 -0.2039  0.0981  0.5074
  365ACOH    C211815   4.678   4.596   5.143  0.6512  0.2736  0.1069
  365ACOH    O111816   4.665   4.549   5.026  0.1955 -0.7888 -0.4887
  365ACOH    C111817   4.752   4.723   5.151 -0.3233  0.4426 -0.3948
  365ACOH    H111818   4.714   4.795   5.081  1.2023  0.1243  1.6241
  365ACOH    H211819   4.857   4.703   5.132  2.0881  0.8368 -0.8577
  365ACOH    H311820   4.743   4.773   5.247 -1.1418 -1.7554 -2.8636
  366ACOH    H411821   0.180   5.068   1.231  0.3990 -0.9076 -1.4206
  366ACOH    O211822   0.269   5.072   1.282  0.1662 -0.8520 -0.4146
  366ACOH    C211823   0.365   5.012   1.214 -0.5073  0.2649 -0.0719
  366ACOH    O111824   0.485   5.017   1.240  0.5958 -0.8743  0.1269
  366ACOH    C111825   0.331   4.972   1.074  0.7189  0.4205 -0.2996
  366ACOH    H111826   0.280   4.878   1.072 -1.2851  0.5549 -1.7123
  366ACOH    H211827   0.429   4.950   1.023 -1.3387 -2.7808 -1.4540
  366ACOH    H311828   0.283   5.040   1.011  4.8864 -0.6277 -0.3413
  367ACOH    H411829   5.910   5.446   0.534  0.7711 -3.0925 -0.9519
  367ACOH    O211830   5.842   5.426   0.460 -0.0586 -0.2746 -0.0218
  367ACOH    C211831   5.729   5.479   0.503 -0.0678 -0.8683  0.5531
  367ACOH    O111832   5.697   5.515   0.613  0.3573  0.0339  0.4386
  367ACOH    C111833   5.619   5.461   0.406 -1.0820  0.1087  0.4440
  367ACOH    H111834   5.514   5.453   0.454 -2.7215 -1.6795  1.9089
  367ACOH    H211835   5.641   5.365   0.355  0.3181  0.2853 -2.1964
  367ACOH    H311836   5.618   5.539   0.342  1.4659 -2.1234 -0.2668
  368ACOH    H411837   6.062   7.080   6.038 -0.4587 -1.5881 -0.5552
  368ACOH    O211838   6.032   7.003   5.991  0.1989  0.2263  0.5495
  368ACOH    C211839   5.898   7.000   6.026 -0.1950 -0.3023  0.2155
  368ACOH    O111840   5.829   7.087   6.080  0.1301  0.5640 -0.2760
  368ACOH    C111841   5.838   6.880   5.966 -0.5994  0.5011 -0.4036
  368ACOH    H111842   5.783   6.834   6.047 -1.2398  1.9355  0.4058
  368ACOH    H211843   5.917   6.810   5.930  0.4867  0.0643 -0.4594
  368ACOH    H311844   5.769   6.904   5.886 -1.2331  1.0890  1.1193
  369ACOH    H411845   3.508   6.091   4.655  0.7793 -2.4374  0.5061
  369ACOH    O211846   3.591   6.140   4.681 -0.4056  0.6819 -0.1253
  369ACOH    C211847   3.668   6.076   4.771 -0.4544  0.0472 -0.8327
  369ACOH    O111848   3.642   5.972   4.827 -0.5923 -0.5082  0.1683
  369ACOH    C111849   3.785   6.170   4.798 -1.2343  0.5182 -0.3043
  369ACOH    H111850   3.844   6.126   4.886 -0.5102  0.1906  1.3227
  369ACOH    H211851   3.759   6.279   4.807 -1.4821  0.7408  2.7980
  369ACOH    H311852   3.850   6.155   4.712  1.6344  0.2049  3.0243
  370ACOH    H411853   4.511   9.040   0.931  0.7931  0.1611  1.9594
  370ACOH    O211854   4.539   9.082   1.016  0.0136  0.3611  0.4579
  370ACOH    C211855   4.591   8.977   1.085  0.2012 -0.1059 -0.2424
  370ACOH    O111856   4.586   8.860   1.055 -0.1212 -0.0577  0.1161
  370ACOH    C111857   4.656   9.020   1.210  0.6962 -0.1726 -0.8924
  370ACOH    H111858   4.619   8.956   1.293 -3.1415 -1.8388 -1.8723
  370ACOH    H211859   4.621   9.115   1.234  0.8436 -1.1089 -1.9875
  370ACOH    H311860   4.764   9.013   1.202 -1.1046  0.0954  4.1635
  371ACOH    H411861   5.292   4.647   6.704 -1.0797  1.0230 -2.4186
  371ACOH    O211862   5.279   4.550   6.696 -1.1970 -0.2077  0.3644
  371ACOH    C211863   5.399   4.510   6.647  0.2047 -0.1088 -0.1340
  371ACOH    O111864   5.482   4.582   6.598 -0.0347  0.0920 -0.4203
  371ACOH    C111865   5.418   4.361   6.646  0.5104 -0.7693 -0.0507
  371ACOH    H111866   5.441   4.329   6.543 -2.2207 -1.4859 -1.0117
  371ACOH    H211867   5.333   4.315   6.689 -1.0839  1.2465 -0.1097
  371ACOH    H311868   5.508   4.352   6.707  2.7587  0.4190  0.1044
  372ACOH    H411869   4.565   5.687   5.065 -2.9333  0.6567  3.3168
  372ACOH    O211870   4.548   5.722   5.159 -0.0045  0.5925  0.2597
  372ACOH    C211871   4.451   5.644   5.211  0.9446 -0.5117  0.6681
  372ACOH    O111872   4.421   5.527   5.177  0.3666 -0.1066  0.2431
  372ACOH    C111873   4.398   5.696   5.341 -0.1593  0.6233  0.1092
  372ACOH    H111874   4.291   5.734   5.338  2.2474  1.9259  1.0523
  372ACOH    H211875   4.458   5.783   5.369  1.7443  2.1944  0.6417
  372ACOH    H311876   4.409   5.619   5.419  1.3576 -0.6097  4.2161
  373ACOH    H411877   5.331   1.646   2.615 -0.4029  2.4717 -0.2638
  373ACOH    O211878   5.334   1.667   2.708  0.6219 -0.5571 -0.7632
  373ACOH    C211879   5.447   1.621   2.764 -0.5389 -0.7266  0.2239
  373ACOH    O111880   5.555   1.649   2.718  0.3253  0.5375 -1.0331
  373ACOH    C111881   5.437   1.573   2.901  0.1433  0.0137 -0.0215
  373ACOH    H111882   5.521   1.517   2.933  0.3052  0.8407  1.2906
  373ACOH    H211883   5.347   1.515   2.900 -1.8504 -0.2242 -0.1089
  373ACOH    H311884   5.415   1.657   2.967 -1.0717  1.5669 -1.4838
  374ACOH    H411885   5.193   7.352   2.307  0.2514 -0.6227  0.7578
  374ACOH    O211886   5.211   7.338   2.207  0.1249  0.4794  0.3205
  374ACOH    C211887   5.345   7.336   2.200  0.6759  0.2227 -0.0764
  374ACOH    O111888   5.424   7.321   2.291 -0.0368 -0.2583 -0.6435
  374ACOH    C111889   5.387   7.361   2.063 -0.2927  0.3025  0.6876
  374ACOH    H111890   5.492   7.365   2.049  0.0517 -1.2202 -1.2278
  374ACOH    H211891   5.335   7.454   2.026  0.5556  1.7712  2.6446
  374ACOH    H311892   5.361   7.273   2.013 -1.1639  0.1581 -0.3070
  375ACOH    H411893   7.963   0.282   0.786  1.0897  0.6216  2.8842
  375ACOH    O211894   7.919   0.248   0.699  0.2657 -0.2934  0.0478
  375ACOH    C211895   8.021   0.217   0.613 -0.2006  0.1627 -0.0538
  375ACOH    O111896   8.140   0.229   0.626 -0.4442 -0.6047  0.6930
  375ACOH    C111897   7.966   0.203   0.475 -0.3787  0.0193  0.5070
  375ACOH    H111898   7.904   0.124   0.471 -1.7007  0.0542 -0.5303
  375ACOH    H211899   8.043   0.190   0.402 -2.7279  3.1967  1.1194
  375ACOH    H311900   7.917   0.286   0.436 -1.2632 -0.5259  2.5769
  376ACOH    H411901   7.255   4.269   3.287  1.6995  1.3824  1.3293
  376ACOH    O211902   7.219   4.350   3.248  0.0019  0.1178  0.3564
  376ACOH    C211903   7.134   4.387   3.345 -0.0590 -0.1738  0.5048
  376ACOH    O111904   7.147   4.363   3.464 -0.2351 -0.1518  0.0300
  376ACOH    C111905   7.063   4.509   3.304 -0.0652  0.6848 -0.2863
  376ACOH    H111906   6.960   4.501   3.328 -0.3989 -1.7868  0.5492
  376ACOH    H211907   7.082   4.530   3.205 -1.1516  0.6505  2.7319
  376ACOH    H311908   7.110   4.585   3.367  3.2927  1.9576 -1.0314
  377ACOH    H411909   7.101   2.451   6.209  2.3275  0.9271 -0.8877
  377ACOH    O211910   7.010   2.410   6.188  0.3321 -0.4442  0.4721
  377ACOH    C211911   7.022   2.410   6.053 -0.4683  0.0907  0.1066
  377ACOH    O111912   7.088   2.488   5.990  0.5149 -0.1908  0.1597
  377ACOH    C111913   6.902   2.350   5.986 -0.4029 -0.4673 -0.6918
  377ACOH    H111914   6.819   2.379   6.049 -0.4666 -0.3027 -2.5508
  377ACOH    H211915   6.901   2.249   5.979  1.1915  1.4966  2.1160
  377ACOH    H311916   6.879   2.380   5.884 -0.5988 -0.4146 -0.5408
  378ACOH    H411917   6.157   1.886   6.291  1.3129  1.5976  1.3979
  378ACOH    O211918   6.184   1.899   6.381  0.0572  0.2948 -0.4874
  378ACOH    C211919   6.311   1.928   6.370 -0.6980  0.2349 -0.0972
  378ACOH    O111920   6.367   1.938   6.260  0.2691  0.1184 -0.5634
  378ACOH    C111921   6.380   1.960   6.491 -0.1903 -0.7649  0.0293
  378ACOH    H111922   6.312   1.933   6.578 -0.5989  0.9409  0.3765
  378ACOH    H211923   6.401   2.067   6.495 -0.5711  1.0991 -0.2042
  378ACOH    H311924   6.466   1.907   6.496 -1.2658 -1.0234 -1.7033
  379ACOH    H411925   7.653   4.544   4.493  1.0878 -0.1899  3.2849
  379ACOH    O211926   7.572   4.524   4.448  0.0899 -0.1143 -0.1183
  379ACOH    C211927   7.518   4.642   4.418 -0.2021 -0.3473 -0.2185
  379ACOH    O111928   7.550   4.750   4.464  0.3765 -0.6480 -0.4261
  379ACOH    C111929   7.397   4.612   4.344  0.5632 -0.1751 -0.4309
  379ACOH    H111930   7.315   4.612   4.413 -0.2038 -0.2936 -0.6466
  379ACOH    H211931   7.404   4.517   4.290  2.8074  1.9311 -0.4944
  379ACOH    H311932   7.382   4.692   4.271 -2.3943 -0.3074  0.0989
  380ACOH    H411933   5.619   1.951   6.201  0.7792  2.5918  0.5815
  380ACOH    O211934   5.635   1.962   6.304  0.1441 -0.1636 -0.4220
  380ACOH    C211935   5.749   2.028   6.321 -0.4754 -0.7025  0.1074
  380ACOH    O111936   5.802   2.102   6.241  0.6585 -0.5475  0.3999
  380ACOH    C111937   5.773   2.030   6.470  0.1015 -0.6533  0.1350
  380ACOH    H111938   5.749   1.933   6.517 -0.8700 -1.8223  2.0174
  380ACOH    H211939   5.706   2.102   6.532  2.5578  2.1971  2.5076
  380ACOH    H311940   5.883   2.043   6.478 -1.8836 -1.3879 -2.5730
  381ACOH    H411941   4.877   4.025   5.328 -1.5565  3.6770 -2.3243
  381ACOH    O211942   4.957   4.003   5.271  0.3948 -0.1294 -0.1514
  381ACOH    C211943   4.933   3.877   5.229 -0.2960 -0.1723  0.1626
  381ACOH    O111944   4.822   3.820   5.222  0.8022 -0.4506 -0.0501
  381ACOH    C111945   5.042   3.837   5.134 -0.4994 -0.5443  0.4154
  381ACOH    H111946   5.069   3.735   5.153  0.9550  2.7440 -4.5663
  381ACOH    H211947   5.128   3.895   5.140  2.6313  0.4907 -2.1649
  381ACOH    H311948   4.999   3.846   5.034  0.9894  2.8517  0.5526
  382ACOH    H411949   7.695   3.580   6.392 -3.4879  1.4070  1.3116
  382ACOH    O211950   7.630   3.557   6.457  0.2998 -0.0678 -0.2908
  382ACOH    C211951   7.504   3.602   6.427 -0.9779 -0.0420  0.3997
  382ACOH    O111952   7.471   3.710   6.382  0.1816  0.0260  0.1595
  382ACOH    C111953   7.405   3.538   6.520  0.3265 -1.3132 -0.4240
  382ACOH    H111954   7.307   3.577   6.506  1.0871 -1.3264  2.4675
  382ACOH    H211955   7.438   3.553   6.619 -0.4256 -1.7343 -0.4320
  382ACOH    H311956   7.393   3.429   6.511  0.3443  3.4332  2.1956
  383ACOH    H411957   5.555   6.187   0.119  1.6508  0.5979 -1.2231
  383ACOH    O211958   5.508   6.273   0.137 -0.5839 -0.3993 -0.2569
  383ACOH    C211959   5.610   6.362   0.150 -0.5505  0.1077 -0.6590
  383ACOH    O111960   5.726   6.326   0.142  0.5304 -0.1458 -0.5030
  383ACOH    C111961   5.559   6.502   0.167 -0.4335  0.0465  0.4745
  383ACOH    H111962   5.505   6.506   0.264  0.9366  0.8571 -0.9821
  383ACOH    H211963   5.492   6.525   0.086  0.0353 -2.7879  2.0574
  383ACOH    H311964   5.631   6.584   0.171  2.0072 -0.4762  1.6195
  384ACOH    H411965   4.455   1.932   4.582  1.7224 -1.4990 -0.5321
  384ACOH    O211966   4.518   1.954   4.501  0.2532 -0.2198  0.1373
  384ACOH    C211967   4.442   1.987   4.392 -0.0264  0.5911 -0.2557
  384ACOH    O111968   4.324   1.944   4.368 -0.6431  0.3406  0.3613
  384ACOH    C111969   4.523   2.057   4.289 -0.0902 -0.2384 -0.6227
  384ACOH    H111970   4.587   1.986   4.237  3.2252  1.1219 -2.4629
  384ACOH    H211971   4.585   2.132   4.336  0.0405  0.4098 -1.4694
  384ACOH    H311972   4.476   2.112   4.206 -0.2281  0.1437 -2.5127
  385ACOH    H411973   6.410   0.897   5.125  1.3021 -1.5840 -0.8457
  385ACOH    O211974   6.430   0.978   5.183 -0.5067 -0.1096 -0.0037
  385ACOH    C211975   6.515   0.935   5.279 -0.1450 -0.3886  0.4916
  385ACOH    O111976   6.545   0.818   5.299 -0.5843  0.4715  0.3546
  385ACOH    C111977   6.586   1.049   5.341 -0.8041 -0.3604  0.1175
  385ACOH    H111978   6.674   1.016   5.397 -1.7647 -1.0264  0.1042
  385ACOH    H211979   6.513   1.101   5.409 -2.2389  1.7874 -0.1240
  385ACOH    H311980   6.616   1.112   5.263 -0.3477  0.2030 -0.2694
  386ACOH    H411981   6.163   4.513   0.104  1.0237 -1.8178 -1.3162
  386ACOH    O211982   6.074   4.474   0.119 -0.1798  0.1354  0.1501
  386ACOH    C211983   6.036   4.427  -0.002  0.1540  0.1679 -0.2652
  386ACOH    O111984   6.116   4.388  -0.085  0.2863 -0.0502  0.2537
  386ACOH    C111985   5.885   4.404  -0.010 -0.4707  0.5513 -0.1210
  386ACOH    H111986   5.834   4.497  -0.041  2.2381 -1.6462 -0.0162
  386ACOH    H211987   5.854   4.382   0.091  0.2002 -1.3308  1.0391
  386ACOH    H311988   5.851   4.318  -0.070 -3.7497  0.5225 -1.4832
  387ACOH    H411989   0.847   6.413   3.623  1.5843 -0.8656 -1.4530
  387ACOH    O211990   0.828   6.344   3.552  0.0944 -0.1508 -0.4626
  387ACOH    C211991   0.842   6.224   3.607 -0.6226 -0.4481 -0.1546
  387ACOH    O111992   0.923   6.197   3.696 -0.3828 -0.2804  0.1678
  387ACOH    C111993   0.753   6.126   3.539 -0.6946  0.0314 -0.1450
  387ACOH    H111994   0.647   6.149   3.541 -0.1639 -0.3817 -0.2407
  387ACOH    H211995   0.774   6.027   3.580  0.1596 -1.1851 -0.4574
  387ACOH    H311996   0.777   6.127   3.436 -1.1828  0.5236  0.2066
  388ACOH    H411997   7.398   5.072   4.185 -2.3913  0.5001  2.9721
  388ACOH    O211998   7.476   5.061   4.246  0.0843  0.1232 -0.1494
  388ACOH    C211999   7.477   5.168   4.325 -0.1037  0.3740 -0.1531
  388ACOH    O112000   7.406   5.266   4.306 -0.3206 -0.6495  0.0009
  388ACOH    C112001   7.591   5.162   4.424 -0.4463 -0.1740 -0.6880
  388ACOH    H112002   7.551   5.178   4.528 -1.9917  0.0068  0.4062
  388ACOH    H212003   7.665   5.239   4.404  0.2824 -0.7760  1.2916
  388ACOH    H312004   7.644   5.064   4.422  0.9560 -1.9913 -2.5826
  389ACOH    H412005   6.813   6.402   0.330  1.1252  2.2303 -1.8216
  389ACOH    O212006   6.872   6.471   0.298  0.5262  0.5305  0.2302
  389ACOH    C212007   6.950   6.512   0.397 -0.3740 -0.1429 -0.6651
  389ACOH    O112008   6.949   6.463   0.506 -0.0230 -0.2951  0.0155
  389ACOH    C112009   7.035   6.621   0.347  0.5220 -0.2669 -0.1393
  389ACOH    H112010   7.074   6.596   0.256  0.0452  1.1083  1.6558
  389ACOH    H212011   7.110   6.659   0.410 -0.1106 -0.6907  1.0428
  389ACOH    H312012   6.974   6.710   0.323 -0.4379 -1.0741  0.3544
  390ACOH    H412013   7.509   0.594   4.436  0.1708  4.0879 -1.8679
  390ACOH    O212014   7.480   0.498   4.422  0.3449 -0.2751  0.5104
  390ACOH    C212015   7.588   0.425   4.387  0.2117  0.6669  0.0646
  390ACOH    O112016   7.704   0.458   4.374  0.0144 -0.0867 -0.4236
  390ACOH    C112017   7.549   0.285   4.355  0.5253  0.4600  0.0990
  390ACOH    H112018   7.466   0.279   4.291 -1.6271 -2.3566 -0.8318
  390ACOH    H212019   7.524   0.232   4.448 -0.7776  1.0035 -0.7855
  390ACOH    H312020   7.637   0.238   4.319 -0.2476 -0.0901  0.1646
  391ACOH    H412021   7.733   6.380   1.829 -0.7005  3.4855  1.4909
  391ACOH    O212022   7.798   6.445   1.796  0.2616  0.5097  0.1732
  391ACOH    C212023   7.896   6.372   1.743  0.3740 -0.2101  0.1573
  391ACOH    O112024   7.879   6.267   1.683  0.1793 -0.3040 -0.1531
  391ACOH    C112025   8.008   6.467   1.718 -1.3144 -0.3501 -0.0155
  391ACOH    H112026   7.976   6.563   1.710  0.2889 -2.9399  1.6476
  391ACOH    H212027   8.049   6.441   1.625  0.3939 -0.0160  2.5587
  391ACOH    H312028   8.089   6.456   1.784  0.1343  0.7884  0.2579
  392ACOH    H412029   7.212   4.557   4.111  1.0544 -0.8927  1.5745
  392ACOH    O212030   7.151   4.635   4.121  0.3007 -0.2821  0.7726
  392ACOH    C212031   7.155   4.704   4.002 -0.7495 -0.1442  0.2429
  392ACOH    O112032   7.208   4.663   3.897  0.0375  0.5106 -0.2005
  392ACOH    C112033   7.066   4.828   4.007  0.9155  0.1393  0.1015
  392ACOH    H112034   6.980   4.810   3.936 -1.6274 -0.6002 -0.5962
  392ACOH    H212035   7.126   4.915   3.974  1.2897  2.2013  0.4102
  392ACOH    H312036   7.023   4.847   4.104  1.0189  1.3409  0.5861
  393ACOH    H412037   6.468   1.021   9.652  1.0557  0.2221  2.9412
  393ACOH    O212038   6.468   0.948   9.584  0.1545  0.3706 -0.5348
  393ACOH    C212039   6.370   0.864   9.617 -0.1792  0.0079 -0.4354
  393ACOH    O112040   6.287   0.886   9.705  0.1944  0.5464  0.3326
  393ACOH    C112041   6.379   0.734   9.545  1.0545 -0.4957  0.3269
  393ACOH    H112042   6.268   0.694   9.537 -0.1361  0.2306  1.3020
  393ACOH    H212043   6.445   0.661   9.590 -0.8199 -1.0904  1.2585
  393ACOH    H312044   6.397   0.748   9.438  1.3991 -4.0120  0.3576
  394ACOH    H412045   5.374   5.834   8.390  3.1285 -0.4244 -0.3465
  394ACOH    O212046   5.471   5.812   8.380 -0.2871  0.4581 -0.1116
  394ACOH    C212047   5.515   5.862   8.261  0.7017 -0.1075 -0.1118
  394ACOH    O112048   5.449   5.865   8.159  0.1623 -0.6767 -0.1613
  394ACOH    C112049   5.658   5.875   8.263  0.1420  0.3172  0.6927
  394ACOH    H112050   5.692   5.782   8.311  0.7739  2.4769  2.4672
  394ACOH    H212051   5.699   5.956   8.317  1.4455 -0.4785 -0.6601
  394ACOH    H312052   5.702   5.889   8.160 -1.3538  1.0002  2.5273
  395ACOH    H412053   6.897   2.616   5.374 -0.6294 -0.5572 -0.3880
  395ACOH    O212054   6.810   2.656   5.382  0.2131  0.6442  0.6341
  395ACOH    C212055   6.721   2.590   5.452  1.3454 -0.3850  0.0182
  395ACOH    O112056   6.749   2.504   5.535 -0.3665 -0.5233  0.0679
  395ACOH    C112057   6.590   2.640   5.427  0.0735  0.1372  0.0123
  395ACOH    H112058   6.570   2.679   5.328 -1.9099 -0.2776  3.4085
  395ACOH    H212059   6.572   2.720   5.500 -1.4250 -0.1284  1.6914
  395ACOH    H312060   6.512   2.562   5.450 -1.9203 -1.8838  0.8269
  396ACOH    H412061   4.149   6.754   8.694 -1.3441  0.8388  0.9379
  396ACOH    O212062   4.227   6.694   8.728  0.0548 -0.1402 -0.2126
  396ACOH    C212063   4.251   6.592   8.642  0.7250 -0.6133 -0.0898
  396ACOH    O112064   4.200   6.577   8.537  0.2522  0.2646 -0.1522
  396ACOH    C112065   4.361   6.511   8.698 -0.2318 -0.4850 -0.5328
  396ACOH    H112066   4.373   6.528   8.805 -0.2103 -0.0402  2.5782
  396ACOH    H212067   4.457   6.533   8.654  0.1912 -1.8914  2.4241
  396ACOH    H312068   4.347   6.406   8.687  2.0803  2.8315 -1.1613
  397ACOH    H412069   5.624   0.303   1.944 -1.3359  0.1913  0.0000
  397ACOH    O212070   5.622   0.247   1.865  0.1841  0.5191  0.2500
  397ACOH    C212071   5.579   0.128   1.903 -0.4137  0.5652 -0.2873
  397ACOH    O112072   5.565   0.084   2.018  0.1633 -0.3786  0.2993
  397ACOH    C112073   5.553   0.049   1.785  0.5576  0.0783 -0.1347
  397ACOH    H112074   5.644   0.016   1.733  2.9206 -1.3404 -2.8859
  397ACOH    H212075   5.496   0.115   1.725 -1.0446 -0.4280  1.8934
  397ACOH    H312076   5.498  -0.041   1.808  2.0750 -0.7744 -0.5868
  398ACOH    H412077   4.435   6.138   8.002 -2.1962 -1.7083  4.0595
  398ACOH    O212078   4.404   6.085   7.921 -0.4464 -0.0363 -0.4883
  398ACOH    C212079   4.428   6.161   7.817 -0.4287 -0.3965  0.1548
  398ACOH    O112080   4.495   6.265   7.822 -0.1406 -0.0832  0.1563
  398ACOH    C112081   4.383   6.105   7.687 -0.4358  0.4266  0.1054
  398ACOH    H112082   4.395   6.179   7.603 -0.1694  0.3354  0.9238
  398ACOH    H212083   4.276   6.090   7.702 -2.7988 -1.7653 -0.3054
  398ACOH    H312084   4.429   6.013   7.668 -1.7912  1.4162 -0.3810
  399ACOH    H412085   5.309   3.998   8.337 -0.8509  0.3550 -0.9825
  399ACOH    O212086   5.310   3.985   8.237  0.0942 -0.3384 -0.6124
  399ACOH    C212087   5.244   3.873   8.211  0.1657  0.0678  0.3468
  399ACOH    O112088   5.187   3.808   8.296 -0.4413 -0.3520  0.4221
  399ACOH    C112089   5.235   3.863   8.067 -0.4925 -0.1503  0.6428
  399ACOH    H112090   5.144   3.894   8.025  2.9296 -0.8642  1.5865
  399ACOH    H212091   5.247   3.753   8.043  1.0010 -1.9238  2.9919
  399ACOH    H312092   5.314   3.914   8.009 -0.7645  1.0330 -1.4508
  400ACOH    H412093   4.071   6.714   6.806 -0.0543 -1.6826 -1.1580
  400ACOH    O212094   4.163   6.745   6.778 -0.0153  0.0979 -0.5545
  400ACOH    C212095   4.145   6.784   6.651  1.5348  0.1937 -0.0971
  400ACOH    O112096   4.043   6.810   6.598  0.1319 -0.1411  0.0427
  400ACOH    C112097   4.271   6.810   6.592 -0.1239 -0.1682  0.7310
  400ACOH    H112098   4.312   6.710   6.576 -1.5899 -0.5759  0.2437
  400ACOH    H212099   4.338   6.864   6.655 -0.6628  1.4927 -0.7052
  400ACOH    H312100   4.262   6.855   6.492 -1.5882 -0.9616  2.3670
  401ACOH    H412101   7.060   7.512   3.719  1.9647  2.3978 -1.5417
  401ACOH    O212102   7.052   7.423   3.773 -0.9093  0.1233 -0.2176
  401ACOH    C212103   6.932   7.368   3.757 -0.7638 -1.1886 -0.1508
  401ACOH    O112104   6.854   7.410   3.672 -0.4641  0.1996  0.2689
  401ACOH    C112105   6.916   7.253   3.850  0.3089  0.1052 -0.8926
  401ACOH    H112106   6.852   7.179   3.808  0.3472  1.9161 -2.6759
  401ACOH    H212107   6.856   7.293   3.939 -0.6745  1.9960  1.9130
  401ACOH    H312108   7.013   7.207   3.875 -0.5000 -0.3028 -4.4130
  402ACOH    H412109   2.554   1.294   2.808 -0.0141  1.3248  2.2482
  402ACOH    O212110   2.639   1.249   2.778 -0.0725  0.4354 -0.1744
  402ACOH    C212111   2.738   1.341   2.802 -1.0114 -0.5412 -0.3521
  402ACOH    O112112   2.729   1.462   2.823 -0.6304 -0.6634 -0.0388
  402ACOH    C112113   2.867   1.278   2.771 -0.4125 -0.0950  0.1674
  402ACOH    H112114   2.884   1.311   2.663 -0.4999 -1.4415  0.0475
  402ACOH    H212115   2.860   1.168   2.775 -1.8280 -0.3408  1.7943
  402ACOH    H312116   2.950   1.311   2.832  0.8656 -4.1733  0.2304
  403ACOH    H412117   9.177   9.750   6.685 -0.2868 -0.4747  1.7304
  403ACOH    O212118   9.106   9.703   6.634  0.3398  0.2551  0.0186
  403ACOH    C212119   9.084   9.592   6.705  0.3399  0.3482 -0.4751
  403ACOH    O112120   9.181   9.525   6.743 -0.2352 -0.0965 -0.5472
  403ACOH    C112121   8.957   9.522   6.682 -0.0825  0.0954  0.4859
  403ACOH    H112122   8.889   9.519   6.770 -3.9089 -3.1113 -1.5611
  403ACOH    H212123   8.983   9.423   6.668  1.1284 -1.3920  0.5625
  403ACOH    H312124   8.909   9.573   6.592 -0.4415  1.3564 -0.5912
  404ACOH    H412125   4.389   2.231   3.392  1.4408  0.6471 -2.2753
  404ACOH    O212126   4.483   2.208   3.384  0.3439 -0.1325 -0.3751
  404ACOH    C212127   4.535   2.289   3.289 -0.2488 -0.0999  0.2547
  404ACOH    O112128   4.485   2.392   3.245 -0.0092 -0.3001 -0.4547
  404ACOH    C112129   4.668   2.234   3.240 -0.3055 -0.1670  0.1984
  404ACOH    H112130   4.741   2.280   3.297  1.4446 -0.5267 -1.4660
  404ACOH    H212131   4.694   2.238   3.130 -1.3718 -0.7984 -0.6803
  404ACOH    H312132   4.675   2.130   3.262 -0.0724 -1.3513 -0.1817
  405ACOH    H412133   7.038   4.287   3.617  0.1688 -0.8941  0.2269
  405ACOH    O212134   6.956   4.236   3.615  0.3578 -0.5273  0.0899
  405ACOH    C212135   6.984   4.105   3.651 -0.0764 -0.3368  0.1030
  405ACOH    O112136   7.089   4.045   3.637 -0.3032  0.3466  0.1097
  405ACOH    C112137   6.854   4.041   3.676 -0.1601 -0.5145  0.4031
  405ACOH    H112138   6.857   3.941   3.698  0.9579  2.6958  3.4529
  405ACOH    H212139   6.796   4.059   3.585 -0.2453 -0.5279  2.0373
  405ACOH    H312140   6.799   4.094   3.752  2.0812  0.3178 -1.4523
  406ACOH    H412141   3.772   0.160   5.469 -0.4416 -1.0172  1.6549
  406ACOH    O212142   3.853   0.187   5.417  0.5894 -0.2682  0.1352
  406ACOH    C212143   3.866   0.320   5.418  0.4377  0.3091  0.2460
  406ACOH    O112144   3.979   0.368   5.407 -0.4632 -0.4800 -0.1192
  406ACOH    C112145   3.761   0.394   5.490  0.0923  0.7008  0.4182
  406ACOH    H112146   3.679   0.337   5.495  1.2238 -1.1905  1.3087
  406ACOH    H212147   3.739   0.486   5.428  1.3606 -0.4827  1.1664
  406ACOH    H312148   3.802   0.407   5.595  2.1615  1.0855  0.1861
  407ACOH    H412149   3.838   0.776   3.454 -2.6566 -0.4289 -0.8052
  407ACOH    O212150   3.863   0.843   3.520  0.9158  0.0060  0.2148
  407ACOH    C212151   3.972   0.901   3.475  0.4343 -0.1745  0.1590
  407ACOH    O112152   4.002   0.901   3.353 -0.4026 -0.0705  0.5315
  407ACOH    C112153   4.029   0.993   3.577 -0.1763 -0.2863 -0.1918
  407ACOH    H112154   3.970   1.082   3.574  1.7923 -0.3912  1.0623
  407ACOH    H212155   4.131   1.003   3.555 -0.9943 -1.0703  0.8837
  407ACOH    H312156   4.022   0.946   3.675 -1.3699 -1.1777 -1.2157
  408ACOH    H412157   6.446   1.709   2.321  0.5839  1.8703 -2.5512
  408ACOH    O212158   6.444   1.799   2.290  0.2743  0.2038  0.0002
  408ACOH    C212159   6.438   1.793   2.152  0.0425 -0.3329  0.3660
  408ACOH    O112160   6.361   1.722   2.094 -0.0639  0.0556  0.4515
  408ACOH    C112161   6.489   1.918   2.082  0.1362  0.0823 -0.1730
  408ACOH    H112162   6.561   1.892   2.000 -1.8771  2.3021  0.6496
  408ACOH    H212163   6.534   1.998   2.142  1.0829  1.8171 -0.2692
  408ACOH    H312164   6.403   1.966   2.038 -3.7959 -2.7108  1.1125
  409ACOH    H412165   4.824   0.215   9.306  1.3099 -2.1569 -0.7111
  409ACOH    O212166   4.798   0.123   9.323 -0.0728  0.0979  0.2704
  409ACOH    C212167   4.690   0.117   9.398  0.5749  0.4109  1.1824
  409ACOH    O112168   4.606   0.203   9.422  0.0618  0.1076  0.9851
  409ACOH    C112169   4.654  -0.028   9.406  0.7295 -0.1976 -0.4580
  409ACOH    H112170   4.712  -0.092   9.472 -0.2883  0.5316 -0.4567
  409ACOH    H212171   4.653  -0.067   9.306 -1.0032  1.1417 -0.5547
  409ACOH    H312172   4.549  -0.032   9.442  3.1086 -3.1425  0.9411
  410ACOH    H412173   5.547   6.396   3.197  1.7259  1.1646 -1.0865
  410ACOH    O212174   5.594   6.462   3.247  0.5130  0.2703 -0.3035
  410ACOH    C212175   5.697   6.499   3.169 -0.2447  0.4113  0.2049
  410ACOH    O112176   5.719   6.449   3.060 -0.0651 -0.7215 -0.5933
  410ACOH    C112177   5.774   6.616   3.219  0.0796 -0.5440 -0.1753
  410ACOH    H112178   5.765   6.705   3.147  3.3318  0.2539 -1.0581
  410ACOH    H212179   5.876   6.585   3.220 -2.1261 -2.9582 -0.1754
  410ACOH    H312180   5.743   6.645   3.318  1.0970 -0.1687 -2.5976
  411ACOH    H412181   7.904   8.150   0.016  0.9593 -0.1485 -0.5090
  411ACOH    O212182   7.854   8.101   0.092 -0.1386 -0.5246 -0.6219
  411ACOH    C212183   7.735   8.061   0.037 -0.8914  0.3713  0.6419
  411ACOH    O112184   7.673   8.138  -0.034 -0.9444 -0.2425  0.4603
  411ACOH    C112185   7.677   7.969   0.137 -0.0796 -0.5015 -0.5351
  411ACOH    H112186   7.665   8.008   0.237  1.2283 -2.5881 -0.8472
  411ACOH    H212187   7.724   7.873   0.144 -0.8807 -2.1063  2.4905
  411ACOH    H312188   7.570   7.964   0.107 -2.5087 -2.7803 -0.4620
  412ACOH    H412189   6.019   6.515   9.293 -1.1858  1.6401  1.1394
  412ACOH    O212190   6.020   6.590   9.229  0.4235  0.3415  0.4693
  412ACOH    C212191   5.908   6.663   9.250 -0.0570  0.8715  0.3588
  412ACOH    O112192   5.822   6.648   9.336 -0.2247 -0.1898 -0.1860
  412ACOH    C112193   5.919   6.795   9.183 -0.2411  0.0885  0.2822
  412ACOH    H112194   5.942   6.875   9.255  1.8744  0.5617  0.0559
  412ACOH    H212195   5.834   6.824   9.130  2.5385  1.8244 -0.3034
  412ACOH    H312196   5.999   6.795   9.116  0.6053 -0.4991  1.6538
  413ACOH    H412197   5.898   4.371   9.685 -0.0626  0.3025 -0.1515
  413ACOH    O212198   5.856   4.446   9.744  0.0996  0.0045 -0.2146
  413ACOH    C212199   5.882   4.560   9.674  0.4175 -0.3054  0.3517
  413ACOH    O112200   5.921   4.563   9.557 -0.2468 -0.1653 -0.2062
  413ACOH    C112201   5.865   4.676   9.764 -0.1978  0.0017 -0.6077
  413ACOH    H112202   5.888   4.770   9.715  0.7753 -0.1023  0.3481
  413ACOH    H212203   5.928   4.658   9.849 -1.9900  1.1183 -1.2488
  413ACOH    H312204   5.770   4.680   9.808  1.2402  0.7532  2.1259
  414ACOH    H412205   5.103   1.303   1.845  0.3254  0.7835  0.6700
  414ACOH    O212206   5.126   1.355   1.760 -0.0811  0.1198 -0.3100
  414ACOH    C212207   5.212   1.289   1.687 -0.7033  0.2976 -0.1049
  414ACOH    O112208   5.284   1.205   1.736  0.7091 -0.0483 -0.0946
  414ACOH    C112209   5.239   1.336   1.545  0.2896  0.0615 -0.1497
  414ACOH    H112210   5.151   1.359   1.494  1.3045  0.0538  0.5280
  414ACOH    H212211   5.291   1.268   1.486 -1.5292  2.4085  2.0728
  414ACOH    H312212   5.301   1.425   1.548  2.4836 -5.2100  0.1504
  415ACOH    H412213   1.952   9.054   0.559 -0.0638 -2.8425 -1.1785
  415ACOH    O212214   1.868   9.004   0.580 -0.5308 -0.3017  0.1885
  415ACOH    C212215   1.777   9.034   0.487  0.3970 -0.4906  0.6345
  415ACOH    O112216   1.795   9.082   0.376 -0.0694 -0.3732 -0.5550
  415ACOH    C112217   1.669   8.945   0.516 -0.1370  0.1894  0.3958
  415ACOH    H112218   1.665   8.937   0.623  0.7528 -0.5388  0.8203
  415ACOH    H212219   1.690   8.847   0.470 -0.7254  0.4392 -1.3735
  415ACOH    H312220   1.575   8.981   0.479  2.0055  0.7464 -0.9719
  416ACOH    H412221   4.768   5.081   4.980 -0.7957 -1.6689 -0.5196
  416ACOH    O212222   4.775   5.138   5.064 -0.5157 -0.5974 -0.9576
  416ACOH    C212223   4.863   5.237   5.041  0.4107 -0.2793 -0.1688
  416ACOH    O112224   4.947   5.235   4.950  0.5556  0.3733  0.6290
  416ACOH    C112225   4.859   5.337   5.148  0.0683  0.0419  0.5591
  416ACOH    H112226   4.966   5.342   5.165  1.4023  0.7242 -0.1367
  416ACOH    H212227   4.804   5.307   5.241 -1.3664  0.7945 -0.3649
  416ACOH    H312228   4.816   5.429   5.116  1.7286 -1.7747 -0.1571
  417ACOH    H412229   4.159   6.875   9.040  0.8522  0.7818 -1.7917
  417ACOH    O212230   4.109   6.951   9.022 -0.3421  0.4985  0.0301
  417ACOH    C212231   4.105   7.011   9.144  0.0490  0.0979  0.3408
  417ACOH    O112232   4.154   6.983   9.250 -0.0802  0.6329  0.4028
  417ACOH    C112233   4.037   7.142   9.116 -0.2197 -0.3664  0.0616
  417ACOH    H112234   4.110   7.213   9.094 -0.1343 -1.4743  1.7515
  417ACOH    H212235   3.978   7.181   9.204  0.0642  0.6078 -0.4249
  417ACOH    H312236   3.963   7.129   9.039  0.1018  0.7120  1.6339
  418ACOH    H412237   5.586   2.874   5.033  0.1923  0.1201 -0.8315
  418ACOH    O212238   5.640   2.956   5.006 -0.1768 -0.4705  0.0796
  418ACOH    C212239   5.584   3.063   5.063  0.2875  0.1500 -0.1887
  418ACOH    O112240   5.468   3.066   5.113 -0.1645  1.1412  0.2111
  418ACOH    C112241   5.646   3.185   5.012  0.3344 -0.1576 -0.1348
  418ACOH    H112242   5.571   3.262   5.011  1.5682  0.5699  4.1876
  418ACOH    H212243   5.689   3.167   4.912 -0.1155  1.1592 -0.4246
  418ACOH    H312244   5.727   3.220   5.067 -0.3272 -1.5143 -2.3051
  419ACOH    H412245   7.185   3.314   8.018  0.9103 -0.4876  2.0318
  419ACOH    O212246   7.223   3.252   7.948 -0.3714 -0.3295 -0.4186
  419ACOH    C212247   7.299   3.158   8.005  0.1501 -0.0913 -0.4396
  419ACOH    O112248   7.295   3.125   8.123 -0.2010  0.0105 -1.1363
  419ACOH    C112249   7.382   3.083   7.906 -0.0336 -1.5129 -0.3911
  419ACOH    H112250   7.479   3.058   7.947  0.5456 -1.3745 -0.8030
  419ACOH    H212251   7.396   3.150   7.823 -1.8669  0.6096  1.1828
  419ACOH    H312252   7.334   2.989   7.878 -0.8037 -0.3944 -0.1384
  420ACOH    H412253   7.306   4.398   6.826 -2.1335  1.0923  0.9879
  420ACOH    O212254   7.262   4.474   6.866 -0.7140  0.0865 -0.0561
  420ACOH    C212255   7.297   4.490   7.000  0.5561  0.0174 -0.0177
  420ACOH    O112256   7.375   4.414   7.060 -0.2971 -0.2574 -0.3378
  420ACOH    C112257   7.206   4.587   7.058  0.6162 -0.2702 -0.7466
  420ACOH    H112258   7.181   4.561   7.158  2.1979 -1.5193 -0.9329
  420ACOH    H212259   7.120   4.597   6.996  1.4079  0.6543 -0.0621
  420ACOH    H312260   7.248   4.686   7.053  1.1016 -1.1157  0.1569
  421ACOH    H412261   4.787   2.843   8.094 -2.2853 -1.2341 -1.3713
  421ACOH    O212262   4.724   2.810   8.021  0.2104 -0.0442 -0.1984
  421ACOH    C212263   4.703   2.907   7.929 -0.0769  0.3221 -0.5589
  421ACOH    O112264   4.766   3.008   7.915 -0.5373  0.0570  0.0426
  421ACOH    C112265   4.595   2.857   7.840  0.3348  0.5096 -0.2641
  421ACOH    H112266   4.597   2.749   7.832 -0.7559 -0.8048 -1.4983
  421ACOH    H212267   4.612   2.898   7.740  0.7950  0.3194 -0.1284
  421ACOH    H312268   4.495   2.884   7.866  2.4853 -1.3202 -0.7000
  422ACOH    H412269   2.744   6.353   2.324  0.3376 -1.1009 -2.0821
  422ACOH    O212270   2.695   6.409   2.254 -0.4797  0.3241  0.0477
  422ACOH    C212271   2.788   6.499   2.222  0.1351 -0.7096 -0.3397
  422ACOH    O112272   2.906   6.482   2.235  0.3697  0.0654  0.5779
  422ACOH    C112273   2.734   6.584   2.116  0.4049  0.1053  0.4501
  422ACOH    H112274   2.752   6.530   2.027 -0.2947  0.1729  1.1510
  422ACOH    H212275   2.787   6.676   2.117  0.6787  1.1040 -0.4412
  422ACOH    H312276   2.620   6.606   2.135 -1.7940  0.0638  0.9244
  423ACOH    H412277   7.912   6.743   9.980 -1.6427  0.6431  0.3178
  423ACOH    O212278   7.937   6.831  10.011 -0.0343 -0.7526  0.1414
  423ACOH    C212279   8.051   6.827  10.068 -0.2669 -0.0534 -0.2134
  423ACOH    O112280   8.127   6.733  10.072 -0.2670  0.3152  0.3557
  423ACOH    C112281   8.080   6.961  10.132 -0.0422 -0.3641  0.3402
  423ACOH    H112282   8.153   6.952  10.210  0.4455  0.6534 -0.2868
  423ACOH    H212283   7.990   7.003  10.171 -1.4305 -1.8517 -2.4617
  423ACOH    H312284   8.122   7.031  10.061  1.0667 -0.6236 -3.1018
  424ACOH    H412285   3.404   0.307   5.274  1.3482  2.2475 -1.4563
  424ACOH    O212286   3.471   0.231   5.257 -0.2416 -0.7962  0.3648
  424ACOH    C212287   3.568   0.270   5.177 -0.5111  0.0121 -0.1033
  424ACOH    O112288   3.598   0.387   5.172 -0.4792  0.6045  0.3421
  424ACOH    C112289   3.665   0.163   5.146 -0.8379  0.4153 -0.8771
  424ACOH    H112290   3.633   0.099   5.064 -2.6769  2.5233 -0.5606
  424ACOH    H212291   3.677   0.107   5.240  1.8856  1.6524 -0.0663
  424ACOH    H312292   3.765   0.206   5.128  0.6845  0.2774 -0.5636
  425ACOH    H412293   6.610   7.295   8.745 -1.2017 -0.4012 -1.6742
  425ACOH    O212294   6.582   7.204   8.744  0.1315  0.2155  0.5911
  425ACOH    C212295   6.552   7.155   8.616 -0.0685  0.0626 -0.0370
  425ACOH    O112296   6.538   7.225   8.520  0.6255  0.2095 -0.0964
  425ACOH    C112297   6.519   7.007   8.609 -1.2661  0.5476  0.1584
  425ACOH    H112298   6.489   6.968   8.703  1.5896  0.3722 -0.3400
  425ACOH    H212299   6.604   6.959   8.571 -1.4222  2.1378 -1.3779
  425ACOH    H312300   6.430   6.992   8.546 -1.9769  1.2724  0.2362
  426ACOH    H412301   6.097   4.569   2.936 -1.5107  0.9952  1.3254
  426ACOH    O212302   6.049   4.589   3.020 -0.7665 -0.2580  0.2007
  426ACOH    C212303   6.102   4.693   3.088  0.7171  0.5608  0.0864
  426ACOH    O112304   6.204   4.754   3.051  0.2808 -0.1723  0.1916
  426ACOH    C112305   6.036   4.689   3.221 -0.1348 -0.0615  0.0867
  426ACOH    H112306   5.943   4.730   3.207 -0.3959 -1.5977 -3.7464
  426ACOH    H212307   6.089   4.756   3.293 -1.3676  3.3509 -0.1142
  426ACOH    H312308   6.016   4.588   3.262  1.0728  4.4462  1.3550
  427ACOH    H412309   0.538   5.669   8.783  2.6157  0.1102 -0.3365
  427ACOH    O212310   0.484   5.620   8.714 -0.3216 -0.1420  0.0236
  427ACOH    C212311   0.525   5.649   8.592  0.1737  0.4436 -0.0992
  427ACOH    O112312   0.622   5.717   8.569 -0.1004  0.2104 -0.3126
  427ACOH    C112313   0.427   5.615   8.481  0.0714 -0.8086  0.1681
  427ACOH    H112314   0.333   5.587   8.534 -1.9213 -0.9266  0.3774
  427ACOH    H212315   0.454   5.519   8.434  0.9932 -0.2036 -2.0489
  427ACOH    H312316   0.420   5.679   8.389  3.5004 -0.0463 -1.0152
  428ACOH    H412317   4.475   3.589   4.131  0.2890  0.6351 -0.8462
  428ACOH    O212318   4.568   3.603   4.165  0.1288  0.0767 -0.3217
  428ACOH    C212319   4.563   3.569   4.297 -0.5692 -0.4475  0.0055
  428ACOH    O112320   4.473   3.512   4.358 -0.1903  0.6613 -0.4348
  428ACOH    C112321   4.701   3.575   4.345 -0.1120  0.7053  0.2256
  428ACOH    H112322   4.764   3.631   4.280 -2.0626 -3.0404  0.5297
  428ACOH    H212323   4.735   3.475   4.353  0.7295  1.3498  0.4242
  428ACOH    H312324   4.698   3.614   4.441  1.1671  0.3259 -1.5348
  429ACOH    H412325   6.149   6.040   8.695 -1.9432  0.6854 -0.3406
  429ACOH    O212326   6.121   6.117   8.640  0.7875 -0.6606  0.0179
  429ACOH    C212327   5.994   6.093   8.610  0.1780 -0.5817 -0.3225
  429ACOH    O112328   5.939   5.982   8.605  0.0334 -0.1591 -0.3433
  429ACOH    C112329   5.940   6.209   8.533 -0.3144 -0.5994 -0.2138
  429ACOH    H112330   5.984   6.297   8.563 -0.1149  2.7438  0.0490
  429ACOH    H212331   5.834   6.220   8.550 -2.8060  0.9783  0.8912
  429ACOH    H312332   5.960   6.191   8.426  0.6808  0.9856  2.2384
  430ACOH    H412333   6.714   3.900   7.999 -0.4110  3.1229 -0.9045
  430ACOH    O212334   6.739   3.864   7.913  0.2450  0.5097 -0.7300
  430ACOH    C212335   6.831   3.953   7.872 -0.2170 -0.6725  0.8460
  430ACOH    O112336   6.872   4.057   7.926 -0.0437 -0.7369 -0.1674
  430ACOH    C112337   6.878   3.924   7.740 -0.5549  0.3190  0.0133
  430ACOH    H112338   6.795   3.940   7.674 -0.3295  0.8710  2.2568
  430ACOH    H212339   6.911   3.822   7.726 -0.3174 -2.3928 -2.6704
  430ACOH    H312340   6.963   3.985   7.706 -2.6188 -5.0291 -3.0340
  431ACOH    H412341   5.226   1.515   3.870  1.1067  0.5219 -2.2387
  431ACOH    O212342   5.286   1.586   3.854 -0.5435  0.0679  0.6166
  431ACOH    C212343   5.256   1.690   3.938  0.2923  0.3739 -0.2020
  431ACOH    O112344   5.195   1.682   4.042 -0.4025  0.3577 -0.3861
  431ACOH    C112345   5.359   1.793   3.916  0.1696  0.2495  0.6876
  431ACOH    H112346   5.343   1.846   3.822  0.2368 -2.4123  0.0314
  431ACOH    H212347   5.459   1.753   3.905 -2.2857 -0.4022 -0.9652
  431ACOH    H312348   5.361   1.863   3.998  1.6979 -3.0201  1.0190
  432ACOH    H412349   7.102   4.226   2.984 -2.0553 -5.2214 -0.1153
  432ACOH    O212350   7.174   4.192   3.041 -0.4388  0.6009 -0.5570
  432ACOH    C212351   7.291   4.219   2.976  0.5858 -0.0951  0.4243
  432ACOH    O112352   7.289   4.296   2.882  0.1696 -0.2703  0.0272
  432ACOH    C112353   7.412   4.131   3.014 -0.4031 -0.3758 -0.3109
  432ACOH    H112354   7.505   4.186   2.978  1.3173 -1.5771  0.3802
  432ACOH    H212355   7.414   4.040   2.956  3.1173  0.3032 -1.0577
  432ACOH    H312356   7.431   4.103   3.111  2.6707 -0.8161 -1.5420
  433ACOH    H412357   4.653   1.887   7.388 -0.3496  0.3699 -1.5292
  433ACOH    O212358   4.663   1.962   7.328  1.0723 -0.0568 -0.2526
  433ACOH    C212359   4.626   1.924   7.200  0.3267  0.1214 -0.5566
  433ACOH    O112360   4.593   1.816   7.158 -0.1629  0.2146 -0.1020
  433ACOH    C112361   4.651   2.033   7.105  0.0818 -0.1957  0.5332
  433ACOH    H112362   4.759   2.043   7.080  1.1462  1.2601 -1.2426
  433ACOH    H212363   4.622   2.131   7.138 -1.2677  0.9604  2.7360
  433ACOH    H312364   4.611   2.007   7.012  2.5514 -2.1407  2.7657
  434ACOH    H412365   7.807   9.876   1.829 -1.8276  1.5713  1.0787
  434ACOH    O212366   7.748   9.901   1.751 -0.1756 -0.2013  0.0316
  434ACOH    C212367   7.784   9.823   1.649  0.6274  0.0049  0.4035
  434ACOH    O112368   7.883   9.755   1.656 -0.3388 -0.5602  0.1823
  434ACOH    C112369   7.720   9.843   1.517 -0.4812 -1.1120 -0.7274
  434ACOH    H112370   7.796   9.824   1.439 -1.4012 -0.8031 -1.0772
  434ACOH    H212371   7.683   9.937   1.503  0.9827 -0.1236 -2.2734
  434ACOH    H312372   7.650   9.768   1.496  1.5654  1.5062 -4.5571
  435ACOH    H412373   6.641   2.396   6.214 -1.1395 -0.9620  0.4086
  435ACOH    O212374   6.583   2.425   6.137 -0.1845 -0.1338 -0.5273
  435ACOH    C212375   6.473   2.353   6.150  0.3955  0.2084 -0.2231
  435ACOH    O112376   6.433   2.285   6.243 -0.3512 -0.1879  0.7773
  435ACOH    C112377   6.395   2.378   6.029  0.7067  0.2249  0.1277
  435ACOH    H112378   6.368   2.481   6.029  0.7411  0.9864  0.9631
  435ACOH    H212379   6.309   2.316   6.024  2.6505  2.8789 -1.1633
  435ACOH    H312380   6.454   2.356   5.934  0.1117 -1.7949 -0.2361
  436ACOH    H412381   6.500   5.706   6.642 -0.5675 -1.9289  0.3469
  436ACOH    O212382   6.457   5.701   6.550  0.0431  0.1392 -0.2812
  436ACOH    C212383   6.325   5.714   6.576  0.4140 -0.2872 -0.4840
  436ACOH    O112384   6.264   5.695   6.679 -0.2732 -0.8088 -0.2663
  436ACOH    C112385   6.252   5.751   6.457 -0.4978  0.3977 -0.2678
  436ACOH    H112386   6.186   5.664   6.431  2.1256 -2.6421  0.9091
  436ACOH    H212387   6.316   5.787   6.379 -0.8166  0.6233  0.0596
  436ACOH    H312388   6.185   5.827   6.481 -0.4522 -0.4098  0.4214
  437ACOH    H412389   0.175   3.788   7.178 -0.2885  1.3247  0.6238
  437ACOH    O212390   0.117   3.776   7.092 -0.2290  0.7356  0.2024
  437ACOH    C212391  -0.015   3.818   7.114 -0.2902 -0.5650  0.1925
  437ACOH    O112392  -0.067   3.845   7.220  0.0071  0.1128 -0.5622
  437ACOH    C112393  -0.108   3.788   7.004 -0.1746 -0.3234  0.1771
  437ACOH    H112394  -0.056   3.752   6.913  1.4956 -1.1499 -0.0212
  437ACOH    H212395  -0.162   3.878   6.981 -0.7104  1.4395 -1.0509
  437ACOH    H312396  -0.173   3.706   7.034  3.2575 -1.2396 -0.9324
  438ACOH    H412397   1.729   0.555   9.474  1.8205 -1.3183  2.5599
  438ACOH    O212398   1.658   0.638   9.474 -0.6577 -0.2056 -0.1785
  438ACOH    C212399   1.726   0.746   9.514 -0.1157  0.0529 -0.8221
  438ACOH    O112400   1.848   0.763   9.506  0.2479  0.0381 -0.3460
  438ACOH    C112401   1.620   0.848   9.525 -0.1905  0.1065 -0.0844
  438ACOH    H112402   1.543   0.838   9.451  0.2262 -0.7378  0.7339
  438ACOH    H212403   1.657   0.954   9.538  2.9837 -2.1290 -1.2006
  438ACOH    H312404   1.567   0.820   9.612  1.4967 -1.0375 -2.1771
  439ACOH    H412405   5.695   4.822   6.427  0.4871 -0.5044 -0.8258
  439ACOH    O212406   5.714   4.914   6.455  0.3923  0.5692 -0.2685
  439ACOH    C212407   5.607   4.956   6.520  0.4853  0.5688 -0.0298
  439ACOH    O112408   5.499   4.900   6.524  0.0527 -0.5743 -0.4338
  439ACOH    C112409   5.614   5.091   6.579 -0.9717 -0.6006  0.0549
  439ACOH    H112410   5.558   5.086   6.667  3.3213 -1.3561 -0.3496
  439ACOH    H212411   5.587   5.166   6.514 -0.0682 -0.8259  0.4831
  439ACOH    H312412   5.717   5.107   6.609  2.2239 -1.1494  2.2428
  440ACOH    H412413   0.271   5.300   6.997 -1.5979  0.3313  0.2482
  440ACOH    O212414   0.343   5.236   6.962  0.3726  0.1139  0.1333
  440ACOH    C212415   0.465   5.273   6.994 -0.5833 -0.0005  0.6014
  440ACOH    O112416   0.484   5.351   7.081  0.2006 -0.2061 -0.0720
  440ACOH    C112417   0.572   5.213   6.912  0.4453 -0.6382 -0.3842
  440ACOH    H112418   0.659   5.279   6.907 -0.2895  1.1894  0.3277
  440ACOH    H212419   0.529   5.176   6.822 -2.7933  0.4158 -1.4880
  440ACOH    H312420   0.595   5.129   6.982 -2.3546  1.9946 -0.1967
  441ACOH    H412421   5.582   7.274   8.032 -1.5785  2.0876 -1.1976
  441ACOH    O212422   5.617   7.198   7.978 -0.2763  0.1783 -0.2870
  441ACOH    C212423   5.655   7.255   7.857  0.0113 -0.3745 -0.0820
  441ACOH    O112424   5.619   7.370   7.828 -0.1946 -0.2941 -0.2590
  441ACOH    C112425   5.692   7.147   7.764 -0.1423 -0.6253  0.7756
  441ACOH    H112426   5.767   7.086   7.815  0.6788 -0.9574 -0.6150
  441ACOH    H212427   5.734   7.188   7.671 -3.5334 -0.1740 -0.4449
  441ACOH    H312428   5.602   7.089   7.739 -2.2088 -1.0452  0.6239
  442ACOH    H412429   3.297   1.893   9.008  0.7194 -0.2393  0.8932
  442ACOH    O212430   3.271   1.951   9.087 -0.0251 -0.0163  0.4738
  442ACOH    C212431   3.206   2.056   9.033  0.5019  0.3734 -0.1998
  442ACOH    O112432   3.199   2.091   8.914  0.4678  0.4031  0.1273
  442ACOH    C112433   3.148   2.147   9.141 -0.4684  0.1378 -0.4332
  442ACOH    H112434   3.112   2.237   9.095  0.8520  0.0219 -2.0361
  442ACOH    H212435   3.213   2.169   9.224 -4.4705  0.4020  3.0737
  442ACOH    H312436   3.065   2.099   9.196 -1.1066  0.5100 -0.0330
  443ACOH    H412437   6.767   1.725   4.312  2.9346  1.9646  3.6368
  443ACOH    O212438   6.711   1.704   4.225  0.6729  0.5452 -0.3976
  443ACOH    C212439   6.581   1.677   4.255  0.2140  0.4539  0.2879
  443ACOH    O112440   6.543   1.664   4.370  0.3978  0.5023 -0.2493
  443ACOH    C112441   6.508   1.618   4.144  0.2934 -0.0716 -0.5739
  443ACOH    H112442   6.574   1.562   4.085  3.0597  1.5797  1.1253
  443ACOH    H212443   6.482   1.709   4.095  4.1015 -1.4126 -0.7456
  443ACOH    H312444   6.422   1.566   4.174 -0.6883  0.5171  1.8833
  444ACOH    H412445   5.299   9.364   9.921 -0.8062  0.1560  0.2495
  444ACOH    O212446   5.323   9.289   9.982 -0.3729 -0.3549 -0.5216
  444ACOH    C212447   5.270   9.182   9.920  0.0231  0.3634  0.2544
  444ACOH    O112448   5.209   9.186   9.814 -0.3290  0.4408 -0.1775
  444ACOH    C112449   5.324   9.051   9.973  0.0854 -0.2778 -0.0606
  444ACOH    H112450   5.427   9.062   9.985  1.5480 -1.0316 -0.9948
  444ACOH    H212451   5.286   8.964   9.915 -0.7857 -0.2142 -1.3962
  444ACOH    H312452   5.289   9.030  10.076 -0.8019 -2.1167  3.2897
  445ACOH    H412453   5.033   3.168   7.453 -0.4601 -1.3888 -2.7996
  445ACOH    O212454   5.127   3.131   7.427 -0.3986 -0.4700 -0.4102
  445ACOH    C212455   5.216   3.193   7.505 -0.0928  0.4486 -0.5601
  445ACOH    O112456   5.185   3.271   7.592 -0.1376 -0.7812  0.2955
  445ACOH    C112457   5.350   3.125   7.500 -0.2399  0.2376 -0.5720
  445ACOH    H112458   5.381   3.122   7.402 -3.9022  1.6179 -1.4860
  445ACOH    H212459   5.351   3.026   7.547 -0.1183 -2.4640 -0.3272
  445ACOH    H312460   5.420   3.187   7.548 -1.7572 -1.7679 -1.0771
  446ACOH    H412461   8.226   2.798   1.773  0.3092  3.7599  0.0906
  446ACOH    O212462   8.221   2.883   1.823  0.1745 -0.3327 -0.3867
  446ACOH    C212463   8.252   2.988   1.741  0.4962  0.0543 -0.0991
  446ACOH    O112464   8.285   2.979   1.625  0.1191 -0.8620 -0.6785
  446ACOH    C112465   8.234   3.119   1.811  0.6810  0.6723  0.4372
  446ACOH    H112466   8.255   3.106   1.915  1.3905  4.0994 -0.9259
  446ACOH    H212467   8.129   3.157   1.803 -1.9856  1.4100 -1.0980
  446ACOH    H312468   8.308   3.193   1.770  1.4266  0.1218 -0.5296
  447ACOH    H412469   2.308   2.539   3.880 -1.5823  0.3947 -2.0976
  447ACOH    O212470   2.276   2.528   3.786  0.6978  0.3294 -0.6606
  447ACOH    C212471   2.311   2.408   3.748 -0.5827 -0.0604 -0.8031
  447ACOH    O112472   2.381   2.332   3.812 -0.7476  0.6525 -0.5382
  447ACOH    C112473   2.287   2.395   3.607 -0.0484  1.0644 -0.8234
  447ACOH    H112474   2.225   2.303   3.597 -0.2584  0.0304 -1.1594
  447ACOH    H212475   2.378   2.365   3.559  2.2059 -2.0492  1.4170
  447ACOH    H312476   2.232   2.480   3.567 -0.3454  0.9254  1.6034
  448ACOH    H412477   4.837   3.298   5.857 -2.3100  0.5937 -1.6170
  448ACOH    O212478   4.903   3.369   5.840  0.2018 -0.3619  0.1697
  448ACOH    C212479   4.965   3.411   5.951  0.0033  0.6027 -0.8441
  448ACOH    O112480   4.908   3.416   6.061 -0.5125  0.6897 -0.0814
  448ACOH    C112481   5.084   3.483   5.919 -0.1522 -0.4479  0.5709
  448ACOH    H112482   5.110   3.548   6.001 -0.5060  2.5030  1.6443
  448ACOH    H212483   5.067   3.540   5.832  0.5814 -0.3052 -0.4822
  448ACOH    H312484   5.158   3.412   5.907 -0.2456 -0.7859 -1.2857
  449ACOH    H412485   3.791   5.678   1.242  0.1006  1.8045 -0.6166
  449ACOH    O212486   3.773   5.710   1.338 -0.0614  0.1579  0.0128
  449ACOH    C212487   3.822   5.834   1.357 -0.6719 -0.4876  0.4115
  449ACOH    O112488   3.930   5.878   1.323  0.2521 -0.1620 -0.2749
  449ACOH    C112489   3.752   5.896   1.467 -0.6180  0.0255 -1.0976
  449ACOH    H112490   3.642   5.877   1.467  0.9321  1.7442  1.6778
  449ACOH    H212491   3.753   6.008   1.469  0.2472  1.0506 -0.8641
  449ACOH    H312492   3.785   5.869   1.569  0.2918  2.1053  1.2986
  450ACOH    H412493   5.430   5.870   7.640  1.1858  2.1884  1.2069
  450ACOH    O212494   5.387   5.934   7.698  0.6774  0.1425  0.2928
  450ACOH    C212495   5.480   5.954   7.793  0.0238  0.0558  0.4893
  450ACOH    O112496   5.598   5.921   7.793  0.0930 -0.6157  0.3871
  450ACOH    C112497   5.441   6.065   7.880 -0.0189  0.1286 -0.0979
  450ACOH    H112498   5.521   6.117   7.925  1.2366  1.3102  1.3407
  450ACOH    H212499   5.382   6.033   7.968  0.9211 -0.2119  0.7917
  450ACOH    H312500   5.376   6.137   7.825 -2.1965  1.1393 -0.5444
  451ACOH    H412501   5.290   8.244   1.753 -2.2045 -0.5377 -0.8906
  451ACOH    O212502   5.312   8.202   1.668  0.4006 -0.4846  0.0712
  451ACOH    C212503   5.360   8.080   1.701 -0.4125 -0.6735  0.3744
  451ACOH    O112504   5.366   8.022   1.807 -0.4025 -1.0651 -0.4448
  451ACOH    C112505   5.401   8.008   1.580 -0.2267  0.2415 -0.1897
  451ACOH    H112506   5.510   8.027   1.571 -0.2226 -0.2199  0.3092
  451ACOH    H212507   5.354   8.029   1.489  1.6038 -0.3728  2.3804
  451ACOH    H312508   5.394   7.898   1.601 -1.8220  0.3043  0.4784
  452ACOH    H412509   5.688   6.935   2.776  0.5220 -1.3007 -0.4741
  452ACOH    O212510   5.745   6.972   2.847  0.4124  0.4694  0.2181
  452ACOH    C212511   5.861   6.993   2.791  0.8868  0.0054  0.2369
  452ACOH    O112512   5.898   6.985   2.672  0.2672 -0.4904 -0.5277
  452ACOH    C112513   5.952   7.050   2.895  0.1834 -0.1396 -0.5439
  452ACOH    H112514   6.014   7.143   2.875  3.0879 -0.1507  1.9265
  452ACOH    H212515   6.024   6.969   2.925  1.4077  3.0224  0.4494
  452ACOH    H312516   5.895   7.069   2.990  1.9846 -1.7941  2.2759
  453ACOH    H412517   7.929   8.834   5.563 -0.3454  1.0058 -1.0363
  453ACOH    O212518   7.962   8.911   5.514 -0.0555  0.3280  0.3863
  453ACOH    C212519   8.096   8.918   5.525  0.3584  0.1752  0.2618
  453ACOH    O112520   8.169   8.824   5.548 -0.4010  0.5706 -0.2956
  453ACOH    C112521   8.155   9.041   5.478 -0.4087  0.8501 -0.7925
  453ACOH    H112522   8.231   9.072   5.546  0.9905  0.6059  0.8852
  453ACOH    H212523   8.081   9.118   5.472  1.9787  1.9514  0.7045
  453ACOH    H312524   8.194   9.010   5.383 -3.3867 -0.2568 -1.1936
  454ACOH    H412525   3.612   5.156   0.446 -2.0541 -1.6948 -1.3444
  454ACOH    O212526   3.527   5.103   0.423 -0.3270  0.0593 -0.2121
  454ACOH    C212527   3.489   5.142   0.301  0.2450  0.0464 -0.2818
  454ACOH    O112528   3.566   5.163   0.211  0.2772  0.3037  0.7660
  454ACOH    C112529   3.345   5.115   0.260 -1.1157 -0.2583 -0.4469
  454ACOH    H112530   3.321   5.010   0.266  1.1673  2.3718 -2.0358
  454ACOH    H212531   3.339   5.150   0.160 -1.6944 -0.9030 -0.8516
  454ACOH    H312532   3.270   5.176   0.313  0.8464 -1.0029  0.7075
  455ACOH    H412533   3.377   7.136   1.539 -1.0993 -1.0860 -0.5200
  455ACOH    O212534   3.304   7.069   1.545  0.2060 -0.2626  0.2850
  455ACOH    C212535   3.212   7.107   1.461 -0.3769 -0.2526 -0.3505
  455ACOH    O112536   3.229   7.164   1.355  0.0074  0.4480 -0.6497
  455ACOH    C112537   3.079   7.048   1.500 -0.7441  0.6060  1.1682
  455ACOH    H112538   3.047   6.967   1.432 -0.1290 -1.1214  0.6673
  455ACOH    H212539   3.006   7.122   1.488 -0.4839  0.9457  0.0589
  455ACOH    H312540   3.081   7.017   1.602  0.6015  0.3017  0.3188
  456ACOH    H412541   6.126   6.028   7.241 -0.6518 -0.4786 -2.0813
  456ACOH    O212542   6.114   6.121   7.279 -0.0480  0.2670  0.7772
  456ACOH    C212543   6.028   6.124   7.379 -0.2170 -0.6502 -0.3506
  456ACOH    O112544   5.969   6.027   7.426 -0.4449  0.6334 -0.0047
  456ACOH    C112545   5.999   6.260   7.431  0.0001 -0.5608  0.3932
  456ACOH    H112546   5.889   6.284   7.418 -1.9857 -1.4786  0.1398
  456ACOH    H212547   6.055   6.337   7.378 -1.4661 -1.8154  1.5775
  456ACOH    H312548   6.022   6.260   7.533 -1.6945  1.7069 -2.2319
  457ACOH    H412549   4.259   7.516   7.763  2.4012  2.5016 -1.2288
  457ACOH    O212550   4.332   7.511   7.828 -0.0595  0.5995  0.4008
  457ACOH    C212551   4.371   7.384   7.832 -0.4152  0.5567  0.6474
  457ACOH    O112552   4.329   7.294   7.763 -0.0809 -0.0740 -0.5628
  457ACOH    C112553   4.455   7.352   7.947 -0.3627  0.2205 -0.3938
  457ACOH    H112554   4.555   7.347   7.911 -1.9941 -1.3866  0.8292
  457ACOH    H212555   4.436   7.253   7.978  1.2633  0.8232  0.1257
  457ACOH    H312556   4.458   7.423   8.025  0.9502 -2.2596  0.9209
  458ACOH    H412557   0.178   1.887   7.886 -0.4952  1.1812 -4.0789
  458ACOH    O212558   0.088   1.850   7.878 -0.0865  0.8660  0.6878
  458ACOH    C212559  -0.003   1.938   7.931  0.1482 -0.1714  0.0272
  458ACOH    O112560   0.026   2.051   7.969 -0.1826  0.0807  0.5482
  458ACOH    C112561  -0.135   1.873   7.916 -0.3805 -0.2477  0.4177
  458ACOH    H112562  -0.137   1.785   7.972  2.3423  1.4944  0.6120
  458ACOH    H212563  -0.159   1.844   7.813  0.7277 -2.9116  1.3674
  458ACOH    H312564  -0.207   1.943   7.951 -0.3316 -0.7966  0.4887
  459ACOH    H412565   4.242   8.433   6.441  2.4978  2.6750  0.0856
  459ACOH    O212566   4.276   8.339   6.452  0.1081 -0.0059 -0.0595
  459ACOH    C212567   4.181   8.259   6.402 -0.1401 -0.6509  0.8037
  459ACOH    O112568   4.082   8.296   6.342 -0.1221  0.3710 -0.1029
  459ACOH    C112569   4.217   8.122   6.442  0.4842  0.6579  0.4006
  459ACOH    H112570   4.266   8.127   6.539  0.1206 -0.1289 -1.2166
  459ACOH    H212571   4.286   8.083   6.371  1.2782  0.1497 -2.0363
  459ACOH    H312572   4.128   8.057   6.449  0.5446 -1.6633  0.2456
  460ACOH    H412573   7.290   2.456   5.330  1.5279  0.1735  0.4034
  460ACOH    O212574   7.253   2.382   5.378 -0.3193  0.0607  0.6935
  460ACOH    C212575   7.123   2.421   5.386  0.1629  0.3110 -0.1316
  460ACOH    O112576   7.075   2.531   5.365  0.1494  0.4630  0.3108
  460ACOH    C112577   7.035   2.304   5.430 -0.1353  0.3391 -0.5484
  460ACOH    H112578   6.973   2.290   5.340  1.1953 -3.1589  1.1650
  460ACOH    H212579   6.970   2.343   5.512  0.1292  0.9862  0.1682
  460ACOH    H312580   7.077   2.207   5.449 -0.0666  0.2487 -0.5950
  461ACOH    H412581   4.939   8.468   1.131  2.1910  1.5077 -1.8610
  461ACOH    O212582   4.985   8.446   1.221  0.5464  0.5214  0.1511
  461ACOH    C212583   5.009   8.312   1.222 -0.0836 -0.9500 -0.0293
  461ACOH    O112584   5.001   8.244   1.122  0.4614  0.4751  0.2162
  461ACOH    C112585   5.050   8.269   1.354 -0.8910  0.0048  0.0134
  461ACOH    H112586   5.044   8.351   1.430 -1.4133 -0.1963 -1.2357
  461ACOH    H212587   5.148   8.227   1.345 -1.6324  0.8206  0.6726
  461ACOH    H312588   4.973   8.192   1.378 -0.6342 -0.3121  1.7170
  462ACOH    H412589   5.435   7.111   7.280 -0.5932 -2.0505  3.0853
  462ACOH    O212590   5.467   7.035   7.336  0.0635 -0.4028  0.0491
  462ACOH    C212591   5.588   7.005   7.288 -0.4023  0.2849  0.2772
  462ACOH    O112592   5.667   7.081   7.239 -0.4966  0.4874 -0.1150
  462ACOH    C112593   5.627   6.871   7.336  0.0037 -0.4414  0.3763
  462ACOH    H112594   5.543   6.811   7.360  2.6362  0.6466 -0.5440
  462ACOH    H212595   5.686   6.895   7.421  1.2815  1.7892 -1.4746
  462ACOH    H312596   5.686   6.820   7.276 -0.7763  1.5894  0.0974
  463ACOH    H412597   8.164   8.263   1.284  1.5660  1.7054  1.8264
  463ACOH    O212598   8.184   8.313   1.360  0.1260 -0.0170  0.0695
  463ACOH    C212599   8.277   8.401   1.332  0.4084 -0.2824  0.5287
  463ACOH    O112600   8.332   8.421   1.229 -0.3777 -0.3013  0.6914
  463ACOH    C112601   8.295   8.494   1.447 -0.2717  0.5441  0.2552
  463ACOH    H112602   8.224   8.581   1.445  1.2990  0.0681  1.4452
  463ACOH    H212603   8.393   8.529   1.449 -0.6123  1.4778 -0.5558
  463ACOH    H312604   8.276   8.439   1.536  3.6947  1.9695 -0.3838
  464ACOH    H412605   0.527   4.561   0.261 -1.4843  0.4216 -0.4990
  464ACOH    O212606   0.537   4.661   0.245  0.0347  0.7937 -0.3989
  464ACOH    C212607   0.511   4.680   0.114  0.5406 -0.3997 -0.2990
  464ACOH    O112608   0.475   4.590   0.037  0.2211  0.2346 -0.7231
  464ACOH    C112609   0.509   4.826   0.085 -0.1563 -1.0362  0.1885
  464ACOH    H112610   0.414   4.850   0.115 -0.6451 -0.2224 -1.2809
  464ACOH    H212611   0.515   4.849  -0.016  0.2464  0.7572 -1.4222
  464ACOH    H312612   0.577   4.896   0.135 -0.0554  0.3501 -2.5242
  465ACOH    H412613   5.800   1.806   2.438  2.1592 -3.3985 -1.3067
  465ACOH    O212614   5.885   1.858   2.449 -0.2215  0.3438 -0.2169
  465ACOH    C212615   5.851   1.992   2.453 -0.1877 -0.2756 -0.2479
  465ACOH    O112616   5.741   2.039   2.441 -0.0595  0.3133 -0.0599
  465ACOH    C112617   5.972   2.080   2.472  0.2510 -0.2934 -0.4597
  465ACOH    H112618   6.028   2.047   2.558 -2.7126 -0.5415 -0.7456
  465ACOH    H212619   5.950   2.187   2.483  1.0363  2.2087  2.2489
  465ACOH    H312620   6.027   2.073   2.383  4.4753 -1.1095 -1.1901
  466ACOH    H412621   4.188   6.548   7.740  1.2842  0.6691  0.7120
  466ACOH    O212622   4.248   6.627   7.727  0.8689  0.3501 -0.3482
  466ACOH    C212623   4.249   6.662   7.596  0.3758  0.4960  0.5367
  466ACOH    O112624   4.221   6.582   7.504  0.4653  0.1837  0.3945
  466ACOH    C112625   4.363   6.766   7.568  0.2142  0.7837  0.3396
  466ACOH    H112626   4.332   6.831   7.483  0.7153 -0.1674 -3.0689
  466ACOH    H212627   4.465   6.727   7.546 -0.5930 -0.9074  0.1229
  466ACOH    H312628   4.379   6.829   7.655 -2.6457  0.3358 -3.4294
  467ACOH    H412629   5.771   8.091   3.074  1.5823 -0.0628  0.2512
  467ACOH    O212630   5.827   8.153   3.028  0.0251 -0.6142 -0.2628
  467ACOH    C212631   5.914   8.219   3.114  0.3150  0.0863  0.5919
  467ACOH    O112632   5.897   8.228   3.234  0.0585  0.6189 -0.5701
  467ACOH    C112633   6.007   8.311   3.041 -0.4190  0.3710  0.3194
  467ACOH    H112634   6.024   8.280   2.943 -0.3507  1.6052  0.9951
  467ACOH    H212635   6.098   8.321   3.096 -1.8127 -0.2356 -1.4257
  467ACOH    H312636   5.966   8.414   3.041  0.8776  4.4122  0.3554
  468ACOH    H412637   2.200   8.336   8.296 -1.7458 -1.0146 -2.4272
  468ACOH    O212638   2.153   8.338   8.215  0.1107 -0.2161  0.6595
  468ACOH    C212639   2.217   8.428   8.143  0.4478 -0.1740 -0.0463
  468ACOH    O112640   2.265   8.531   8.184  0.6200 -0.0579 -0.0005
  468ACOH    C112641   2.204   8.403   7.996 -0.7272  0.4393  0.0425
  468ACOH    H112642   2.128   8.463   7.949  1.8763 -0.4987 -1.9624
  468ACOH    H212643   2.176   8.296   7.976 -2.1709  0.4010 -0.5111
  468ACOH    H312644   2.299   8.429   7.953 -0.0934 -0.2035  0.3330
  469ACOH    H412645   1.881   8.491   0.187  1.0236  1.6637  0.3793
  469ACOH    O212646   1.898   8.481   0.280 -0.5408 -0.1513 -0.3108
  469ACOH    C212647   1.855   8.597   0.330  0.1538  0.5096 -0.1264
  469ACOH    O112648   1.873   8.702   0.273  0.1279  0.2007 -0.0270
  469ACOH    C112649   1.850   8.588   0.478  0.0102 -0.1473 -0.6360
  469ACOH    H112650   1.755   8.636   0.510 -2.9989 -0.8997  0.2536
  469ACOH    H212651   1.940   8.636   0.525 -2.4541  2.0925 -0.7506
  469ACOH    H312652   1.850   8.480   0.507  2.5479  1.6954 -0.6387
  470ACOH    H412653   3.890   7.217   6.377 -0.2278 -2.1023  0.1365
  470ACOH    O212654   3.866   7.122   6.359  0.1266 -0.5142  0.2699
  470ACOH    C212655   3.973   7.035   6.353 -0.2808  0.1491  0.1164
  470ACOH    O112656   4.089   7.072   6.341  0.1292 -0.0616  0.3042
  470ACOH    C112657   3.918   6.905   6.309  0.0113  0.5662 -0.0228
  470ACOH    H112658   3.810   6.904   6.323 -1.4409  1.8601 -0.5202
  470ACOH    H212659   3.964   6.825   6.359  1.0584 -2.5830  0.2728
  470ACOH    H312660   3.931   6.896   6.202 -0.2886  0.4655  2.6310
  471ACOH    H412661   4.656   7.727   0.607  0.8414  1.7597 -0.2449
  471ACOH    O212662   4.639   7.787   0.531 -0.3559  0.6390 -0.1937
  471ACOH    C212663   4.688   7.905   0.573 -0.4459 -0.2235  0.6034
  471ACOH    O112664   4.741   7.935   0.680 -0.0339 -0.1708  0.3765
  471ACOH    C112665   4.702   7.999   0.459 -0.6363  0.2840  0.6270
  471ACOH    H112666   4.661   7.966   0.364  0.9408  0.8731 -2.8806
  471ACOH    H212667   4.809   8.013   0.449 -2.4430 -3.3526  0.5309
  471ACOH    H312668   4.658   8.092   0.491  1.2762 -1.1336 -0.3323
  472ACOH    H412669   8.120   7.306   1.081  0.8565  3.3176  0.5502
  472ACOH    O212670   8.186   7.223   1.092 -0.4228  0.3835  0.4786
  472ACOH    C212671   8.305   7.271   1.129  0.4281  0.4829 -0.2311
  472ACOH    O112672   8.342   7.374   1.085  0.1200  0.0703 -0.1221
  472ACOH    C112673   8.382   7.193   1.226 -0.1917 -0.4079  0.6882
  472ACOH    H112674   8.403   7.261   1.306  0.1913 -0.2850 -3.5445
  472ACOH    H212675   8.473   7.161   1.192  0.0541  0.8850 -2.7321
  472ACOH    H312676   8.325   7.109   1.259 -0.4332  0.1183 -0.7672
  473ACOH    H412677   0.013   2.774   5.912  1.1207  0.7760 -1.5122
  473ACOH    O212678   0.083   2.737   5.976  0.0613 -0.2166 -0.1597
  473ACOH    C212679   0.112   2.841   6.060  0.8593  0.1423 -0.4453
  473ACOH    O112680   0.078   2.957   6.063 -0.2302  0.2143  0.0621
  473ACOH    C112681   0.214   2.796   6.153  0.2104  0.1393  0.0344
  473ACOH    H112682   0.257   2.885   6.202 -2.0067 -1.4543 -2.6513
  473ACOH    H212683   0.288   2.748   6.091  1.0833  1.4933  0.3028
  473ACOH    H312684   0.163   2.722   6.218  2.6605  0.8963  0.8612
  474ACOH    H412685   2.934   8.623   6.374  1.4024 -2.2478  1.9353
  474ACOH    O212686   2.851   8.617   6.416  0.0242 -0.0463  0.6536
  474ACOH    C212687   2.767   8.637   6.314 -0.6953  0.2404 -0.2560
  474ACOH    O112688   2.784   8.706   6.217 -0.9508 -0.1262 -0.7629
  474ACOH    C112689   2.632   8.605   6.375  0.3268  0.6140  0.5351
  474ACOH    H112690   2.563   8.669   6.326  2.5658 -0.3325  0.0005
  474ACOH    H212691   2.622   8.628   6.486 -0.4710  1.2192  1.6163
  474ACOH    H312692   2.606   8.503   6.358  1.1563  1.5102  2.7140
  475ACOH    H412693   8.950   7.947   1.574 -0.4487 -0.2453 -1.6129
  475ACOH    O212694   8.989   7.935   1.483  0.0386 -0.1694  0.0133
  475ACOH    C212695   8.917   7.838   1.422 -0.3475  0.4379  0.1547
  475ACOH    O112696   8.809   7.805   1.465 -0.3922 -0.3197 -0.0013
  475ACOH    C112697   8.986   7.795   1.294  0.7872  0.0928 -0.5884
  475ACOH    H112698   8.930   7.840   1.208 -0.2773 -0.6240 -3.4732
  475ACOH    H212699   8.964   7.689   1.275 -1.4553 -1.1256 -2.6893
  475ACOH    H312700   9.097   7.813   1.294  1.7482 -0.2967  1.8974
  476ACOH    H412701   6.111   7.709   2.936  0.1886  0.9964 -0.1275
  476ACOH    O212702   6.038   7.646   2.910 -0.5828 -0.0929  0.2274
  476ACOH    C212703   6.057   7.539   2.989  1.2152 -1.1469 -0.5544
  476ACOH    O112704   6.151   7.526   3.063 -0.3169 -0.3409  0.3228
  476ACOH    C112705   5.957   7.433   2.958  0.3679  0.3549  0.2410
  476ACOH    H112706   5.866   7.462   2.998  0.8323 -0.8015 -1.9708
  476ACOH    H212707   5.993   7.340   2.985 -2.4509  0.7793 -3.1384
  476ACOH    H312708   5.939   7.435   2.852  0.0590  0.8860 -1.2521
  477ACOH    H412709   5.855   1.118   1.275 -1.4867 -0.5031  2.1201
  477ACOH    O212710   5.761   1.095   1.293  0.1140  0.5906 -0.1992
  477ACOH    C212711   5.690   1.209   1.303  0.2410 -0.5513  0.1163
  477ACOH    O112712   5.738   1.315   1.279 -0.5409 -0.0577 -0.5399
  477ACOH    C112713   5.552   1.199   1.359  0.5198  0.1139  0.2676
  477ACOH    H112714   5.523   1.103   1.373 -1.3324 -0.5818 -3.3522
  477ACOH    H212715   5.484   1.249   1.288  1.8597 -1.1591 -0.6276
  477ACOH    H312716   5.542   1.252   1.455 -0.3422 -0.0888  0.4544
  478ACOH    H412717   5.626   0.451   5.850  2.1353 -2.9044 -1.6411
  478ACOH    O212718   5.632   0.459   5.752  0.3193  0.2448  0.2800
  478ACOH    C212719   5.732   0.373   5.722  0.8197 -0.0297 -0.5193
  478ACOH    O112720   5.820   0.333   5.800  0.0536  0.6072 -0.1785
  478ACOH    C112721   5.734   0.340   5.574 -0.3671  0.0539 -0.0585
  478ACOH    H112722   5.738   0.236   5.551  1.4211 -0.6608  0.3131
  478ACOH    H212723   5.817   0.394   5.519  1.0562  1.4887 -2.9404
  478ACOH    H312724   5.644   0.383   5.528 -0.2797 -0.3289  0.3343
  479ACOH    H412725   2.621   0.252   3.983 -1.0283  0.4317 -2.2388
  479ACOH    O212726   2.575   0.184   4.037 -0.0673 -0.2969  0.8277
  479ACOH    C212727   2.473   0.239   4.101  0.6125 -0.2904 -0.4366
  479ACOH    O112728   2.452   0.361   4.110 -0.7113  0.3984 -0.5745
  479ACOH    C112729   2.374   0.140   4.149 -0.2787  0.2057 -0.1685
  479ACOH    H112730   2.394   0.037   4.109 -0.1848 -3.0155 -0.0067
  479ACOH    H212731   2.275   0.176   4.113 -1.2335  1.2781  0.3206
  479ACOH    H312732   2.380   0.139   4.264 -3.3087  1.0382  1.3415
  480ACOH    H412733   7.991   9.205   4.824 -1.8450 -0.0718  1.2513
  480ACOH    O212734   7.895   9.223   4.823  0.5205 -0.2557 -0.9570
  480ACOH    C212735   7.827   9.112   4.847  0.0825  0.1902 -0.2632
  480ACOH    O112736   7.883   9.011   4.892  0.4969 -0.3177  0.2643
  480ACOH    C112737   7.675   9.126   4.842 -0.2537 -0.3739 -0.1433
  480ACOH    H112738   7.650   9.170   4.748 -1.4314 -1.0363  2.7559
  480ACOH    H212739   7.640   9.199   4.907 -3.0852 -2.0342 -2.3449
  480ACOH    H312740   7.614   9.034   4.858 -0.4513 -0.7805  2.0880
  481ACOH    H412741   7.444   4.669   5.965  0.3437  0.0517 -1.2239
  481ACOH    O212742   7.385   4.624   6.029 -0.6249 -0.1760 -0.6511
  481ACOH    C212743   7.445   4.516   6.085  0.9337  0.1773 -0.2851
  481ACOH    O112744   7.528   4.445   6.032  0.6385  0.0985 -0.2494
  481ACOH    C112745   7.375   4.474   6.213  0.4123 -0.1889  1.0901
  481ACOH    H112746   7.327   4.564   6.260 -1.2470  0.0023 -3.3279
  481ACOH    H212747   7.443   4.450   6.292 -0.5518  2.2147 -0.1832
  481ACOH    H312748   7.315   4.390   6.191 -1.7475  0.7430  1.8276
  482ACOH    H412749   5.400   0.974   7.575  1.0255 -0.1707 -1.0470
  482ACOH    O212750   5.391   1.062   7.519  0.1686  0.5159  0.1748
  482ACOH    C212751   5.485   1.040   7.424 -0.4745  0.6346 -0.3180
  482ACOH    O112752   5.584   0.972   7.432 -0.0433 -0.1590 -0.4010
  482ACOH    C112753   5.495   1.140   7.319 -0.7044 -0.2576 -0.1741
  482ACOH    H112754   5.568   1.218   7.341 -1.6095 -0.3822 -1.1277
  482ACOH    H212755   5.397   1.190   7.319  0.2075  1.9388 -1.7002
  482ACOH    H312756   5.514   1.087   7.228 -1.2957 -0.5791  0.1071
  483ACOH    H412757   9.330   2.401   7.415 -0.2783  0.8959  1.7543
  483ACOH    O212758   9.320   2.500   7.441 -0.3602  0.1142 -0.2143
  483ACOH    C212759   9.411   2.531   7.535 -0.3894  0.7593 -0.8328
  483ACOH    O112760   9.494   2.455   7.584 -0.2207 -0.9045 -0.2633
  483ACOH    C112761   9.404   2.660   7.598 -0.6759 -0.0713 -0.5805
  483ACOH    H112762   9.369   2.651   7.698 -1.5770  1.7950  2.2668
  483ACOH    H212763   9.340   2.732   7.551 -2.6384 -0.4444 -0.6983
  483ACOH    H312764   9.509   2.697   7.602  0.2351 -0.4556 -3.2713
  484ACOH    H412765   7.504   1.734   7.639 -0.2199  0.1795  1.6761
  484ACOH    O212766   7.486   1.749   7.538 -0.2083 -0.0702  0.0679
  484ACOH    C212767   7.463   1.624   7.491 -0.8601 -0.4304  0.0716
  484ACOH    O112768   7.487   1.518   7.541  0.4092  0.2661  0.5010
  484ACOH    C112769   7.444   1.636   7.338 -0.1471 -0.6445 -0.0114
  484ACOH    H112770   7.338   1.613   7.322 -1.3255 -2.4883 -1.1881
  484ACOH    H212771   7.508   1.559   7.293 -0.4958 -0.9093 -2.4798
  484ACOH    H312772   7.455   1.730   7.289  3.2076  0.5936 -1.6419
  485ACOH    H412773   1.887   6.769   9.857  0.4568 -0.3995 -3.1433
  485ACOH    O212774   1.837   6.845   9.816 -0.1486 -0.3685  0.1484
  485ACOH    C212775   1.759   6.913   9.896 -0.8703 -0.1636  0.1349
  485ACOH    O112776   1.711   6.879  10.003 -0.2663  0.1026 -0.1876
  485ACOH    C112777   1.723   7.042   9.831  0.1948  0.7705 -0.5066
  485ACOH    H112778   1.632   7.026   9.790  2.3528 -1.0621  0.7439
  485ACOH    H212779   1.803   7.077   9.760 -1.5269 -1.3103  0.6710
  485ACOH    H312780   1.728   7.120   9.909  0.3686 -0.5385  3.2238
  486ACOH    H412781   7.798   7.103   8.593 -1.5740 -1.5295  0.6942
  486ACOH    O212782   7.797   7.167   8.666  0.0572 -0.5011  0.6303
  486ACOH    C212783   7.665   7.178   8.701  0.3239  0.1639 -0.6717
  486ACOH    O112784   7.572   7.161   8.619  0.1219 -0.2413  0.5847
  486ACOH    C112785   7.642   7.256   8.825 -0.5015  0.1709  0.1895
  486ACOH    H112786   7.537   7.267   8.842 -0.2120 -3.4284  0.8881
  486ACOH    H212787   7.675   7.358   8.809  0.7985  0.1310 -0.1455
  486ACOH    H312788   7.695   7.218   8.910 -0.1233 -3.1533  1.4276
  487ACOH    H412789   1.128   3.855   8.242 -0.9160 -2.9026  0.2952
  487ACOH    O212790   1.179   3.832   8.161 -0.0987 -0.0623 -0.1616
  487ACOH    C212791   1.279   3.751   8.206  0.1439 -0.2026 -0.4444
  487ACOH    O112792   1.299   3.732   8.326 -0.2306 -0.2015 -0.1071
  487ACOH    C112793   1.381   3.721   8.098  0.4662 -0.6850 -1.0588
  487ACOH    H112794   1.340   3.743   7.999  0.3232 -1.0592 -0.4971
  487ACOH    H212795   1.410   3.622   8.096 -2.4324  3.4377  1.2854
  487ACOH    H312796   1.474   3.778   8.106  1.9514  1.9211 -0.8865
  488ACOH    H412797   7.601   6.475   8.405 -0.6901 -0.5782  1.1222
  488ACOH    O212798   7.614   6.471   8.507 -0.0883  0.1179 -0.0644
  488ACOH    C212799   7.517   6.545   8.561 -0.1899  0.0571  0.4137
  488ACOH    O112800   7.477   6.651   8.528  0.5315 -0.0835  0.4564
  488ACOH    C112801   7.443   6.466   8.662  0.1311 -0.2461  0.1475
  488ACOH    H112802   7.358   6.522   8.706 -0.8400 -1.7736 -0.3919
  488ACOH    H212803   7.514   6.433   8.744 -0.3544 -0.0490 -0.4925
  488ACOH    H312804   7.407   6.380   8.615  0.2564  1.3960  4.3465
  489ACOH    H412805   8.226   6.878   1.245 -2.0516 -0.8324 -0.8718
  489ACOH    O212806   8.147   6.868   1.301  0.1604 -0.8359  0.1532
  489ACOH    C212807   8.070   6.767   1.264 -0.1063  0.4743 -0.2183
  489ACOH    O112808   8.094   6.697   1.170 -0.0014 -0.1961 -0.6807
  489ACOH    C112809   7.935   6.785   1.319  0.0129 -0.8202  0.9629
  489ACOH    H112810   7.895   6.879   1.265  0.5821  1.7448  1.2643
  489ACOH    H212811   7.947   6.801   1.432  2.2936  2.0832  1.6735
  489ACOH    H312812   7.870   6.704   1.311 -1.7871 -0.2941 -0.6245
  490ACOH    H412813   2.655   8.852   1.063 -1.4265 -2.1044 -1.0919
  490ACOH    O212814   2.593   8.824   0.994  0.4815  0.2558  0.3417
  490ACOH    C212815   2.470   8.823   1.048 -0.0590 -0.7058  1.3368
  490ACOH    O112816   2.440   8.819   1.166 -0.2367 -0.5666  0.1427
  490ACOH    C112817   2.363   8.813   0.950 -1.1098  0.0819  0.1023
  490ACOH    H112818   2.404   8.787   0.857 -0.9651 -0.9008  2.7966
  490ACOH    H212819   2.318   8.909   0.936 -0.7730 -0.2153 -1.2591
  490ACOH    H312820   2.291   8.738   0.975 -0.4895 -0.9025  0.2789
  491ACOH    H412821   5.750   5.731   0.132 -0.0851  0.6930  2.1187
  491ACOH    O212822   5.721   5.634   0.133 -0.2648  0.3458 -0.0650
  491ACOH    C212823   5.819   5.549   0.091  0.2123  0.0612  0.2047
  491ACOH    O112824   5.929   5.587   0.047 -0.3237 -0.0415 -0.2804
  491ACOH    C112825   5.782   5.406   0.090  0.1580  0.9579 -0.6289
  491ACOH    H112826   5.694   5.400   0.160 -0.0022 -0.1227  0.4745
  491ACOH    H212827   5.876   5.358   0.129  1.5313 -0.1098 -0.1176
  491ACOH    H312828   5.751   5.359  -0.005  2.7326 -3.6581 -0.2036
  492ACOH    H412829   7.208   3.797   3.867 -3.0640  1.4937  1.2703
  492ACOH    O212830   7.146   3.801   3.934 -0.2642 -0.1050 -0.6176
  492ACOH    C212831   7.162   3.913   3.998  0.2413  0.6541 -0.2586
  492ACOH    O112832   7.229   4.009   3.969 -0.5841 -0.0560  0.3943
  492ACOH    C112833   7.088   3.906   4.124 -0.0893  0.0058  0.2162
  492ACOH    H112834   7.106   3.819   4.175  2.1737  2.7730  2.4786
  492ACOH    H212835   6.979   3.899   4.102 -2.8690 -0.6492 -0.5107
  492ACOH    H312836   7.120   3.985   4.195  3.0197 -0.7579  2.0345
  493ACOH    H412837   7.416   5.558   8.840 -1.3271 -1.7126  2.2931
  493ACOH    O212838   7.342   5.532   8.902  0.2199  0.2938 -0.1938
  493ACOH    C212839   7.237   5.580   8.831  0.0891  0.3284  0.1230
  493ACOH    O112840   7.229   5.584   8.708  0.4003 -0.3031  0.0130
  493ACOH    C112841   7.117   5.597   8.920  0.2320  0.5498 -0.3279
  493ACOH    H112842   7.088   5.508   8.973 -1.8096 -1.0869 -2.1164
  493ACOH    H212843   7.035   5.628   8.865  0.7269  0.7230  4.6787
  493ACOH    H312844   7.131   5.671   8.997  0.5064 -1.1813  1.2777
  494ACOH    H412845   3.780   4.060   2.210 -2.6617 -1.8258  0.2136
  494ACOH    O212846   3.701   4.111   2.184  0.0520  0.2627 -0.3129
  494ACOH    C212847   3.611   4.012   2.153  0.0611 -0.0149  0.1999
  494ACOH    O112848   3.614   3.892   2.171  0.0169 -0.2264  0.3766
  494ACOH    C112849   3.487   4.066   2.082 -0.3034  0.4270 -0.1779
  494ACOH    H112850   3.400   4.037   2.145 -0.2490 -0.5437  0.4757
  494ACOH    H212851   3.477   4.018   1.988 -1.5609  1.6942 -1.5157
  494ACOH    H312852   3.495   4.179   2.064 -2.5343  1.7648 -0.8117
  495ACOH    H412853   4.985   2.017   9.762  3.1171  3.4998 -1.2675
  495ACOH    O212854   5.078   1.993   9.792 -0.7991  0.0408  0.1078
  495ACOH    C212855   5.093   1.862   9.819  0.6399  0.1955 -0.2709
  495ACOH    O112856   5.008   1.777   9.798 -0.0558  0.5092  0.3685
  495ACOH    C112857   5.228   1.846   9.872 -0.2436 -0.5993  0.3761
  495ACOH    H112858   5.283   1.936   9.892  2.2350 -1.1590  0.4132
  495ACOH    H212859   5.274   1.789   9.795 -3.5556 -0.9778 -1.4612
  495ACOH    H312860   5.227   1.791   9.961 -0.9730  1.0230 -0.4080
  496ACOH    H412861   6.961   1.718   3.275  1.7386  0.5344  1.2260
  496ACOH    O212862   6.901   1.649   3.233  0.0157 -0.2182 -0.0263
  496ACOH    C212863   6.798   1.723   3.177  0.0191 -0.2667  0.1421
  496ACOH    O112864   6.762   1.838   3.205  0.4528  0.4543  0.4617
  496ACOH    C112865   6.724   1.639   3.077 -0.5737 -0.7144 -0.2002
  496ACOH    H112866   6.647   1.704   3.041 -0.7119  0.0122  1.4220
  496ACOH    H212867   6.677   1.554   3.129 -1.4306 -1.8928 -2.3201
  496ACOH    H312868   6.792   1.608   3.002  1.7577  2.6447  0.2521
  497ACOH    H412869   1.350   3.483   4.063  1.6369 -0.7359  0.9481
  497ACOH    O212870   1.340   3.402   4.116 -0.1953  0.2592  0.6145
  497ACOH    C212871   1.331   3.292   4.034 -0.0586  0.9264 -0.1899
  497ACOH    O112872   1.399   3.269   3.939 -0.0584 -0.6209  0.4758
  497ACOH    C112873   1.282   3.189   4.122  0.1098  0.2952 -1.1463
  497ACOH    H112874   1.187   3.150   4.079 -0.0501 -0.7531 -0.1433
  497ACOH    H212875   1.260   3.222   4.224  1.3930  1.2714  3.0966
  497ACOH    H312876   1.360   3.110   4.130 -1.5950 -1.4097 -0.8322
  498ACOH    H412877   5.152   5.367   4.066  1.1444  2.3434 -1.8009
  498ACOH    O212878   5.183   5.352   4.165 -0.8922  0.0968  0.0110
  498ACOH    C212879   5.113   5.443   4.247  0.6346  0.0556  0.0623
  498ACOH    O112880   5.035   5.526   4.201 -0.0640  0.2865  0.7162
  498ACOH    C112881   5.136   5.448   4.395  0.3206 -0.0792 -1.3558
  498ACOH    H112882   5.099   5.542   4.439  3.7232  2.5271  0.4913
  498ACOH    H212883   5.245   5.441   4.415  1.2059  0.6035  2.9437
  498ACOH    H312884   5.088   5.364   4.448  2.2569  3.9013  0.8873
  499ACOH    H412885   6.737   8.861   8.779  2.2070  0.1439 -1.5843
  499ACOH    O212886   6.656   8.860   8.840  0.2742 -0.2766  0.6581
  499ACOH    C212887   6.546   8.849   8.759 -0.6021 -0.4346  0.0267
  499ACOH    O112888   6.544   8.786   8.658  0.1840 -1.0672 -0.0576
  499ACOH    C112889   6.419   8.863   8.833 -0.3621 -0.2807 -0.1313
  499ACOH    H112890   6.450   8.926   8.914 -2.9916  1.6197 -1.1680
  499ACOH    H212891   6.389   8.768   8.875  1.2387 -1.1749  2.0302
  499ACOH    H312892   6.342   8.904   8.768  0.6436  2.4125 -0.4878
  500ACOH    H412893   6.490   2.341   3.166  0.2299  0.5164  1.5722
  500ACOH    O212894   6.428   2.379   3.233  0.2452  0.1755  0.1262
  500ACOH    C212895   6.502   2.376   3.345 -0.9373  0.6915  0.0333
  500ACOH    O112896   6.624   2.381   3.350 -0.3163 -0.2675 -0.2151
  500ACOH    C112897   6.424   2.386   3.472 -0.6252  0.7924 -0.7294
  500ACOH    H112898   6.434   2.308   3.553  0.9265  0.4161  0.5124
  500ACOH    H212899   6.321   2.382   3.452  0.5589  1.0820  3.0340
  500ACOH    H312900   6.445   2.492   3.512 -1.9928  3.0340 -1.7258
  501ACOH    H412901   3.166   0.771   4.509 -1.4736 -0.1634  3.5487
  501ACOH    O212902   3.130   0.716   4.580 -0.1524 -0.3137 -1.4092
  501ACOH    C212903   3.209   0.758   4.684 -0.4330 -0.3597 -0.4180
  501ACOH    O112904   3.280   0.857   4.689 -0.4569  0.5085 -0.3444
  501ACOH    C112905   3.160   0.685   4.810 -0.3593 -0.2165  0.4607
  501ACOH    H112906   3.247   0.694   4.883  1.3673  0.6794 -0.7445
  501ACOH    H212907   3.133   0.579   4.791 -1.2888 -2.1122  1.2799
  501ACOH    H312908   3.070   0.739   4.854 -1.8730  0.8067  1.5981
  502ACOH    H412909   4.204   6.875   0.081 -1.3885  1.6526  0.3095
  502ACOH    O212910   4.250   6.864   0.170 -0.8156 -0.0312 -0.3591
  502ACOH    C212911   4.323   6.976   0.195  0.2645  0.2872 -0.8714
  502ACOH    O112912   4.331   7.072   0.124  0.6774  0.2802 -0.3736
  502ACOH    C112913   4.381   6.981   0.332  1.0416  0.1691  0.1071
  502ACOH    H112914   4.349   6.895   0.388  2.3791 -1.7191 -1.8424
  502ACOH    H212915   4.343   7.068   0.382  1.0621  0.5121  0.9768
  502ACOH    H312916   4.494   6.986   0.337  2.3028  0.4081  2.5766
  503ACOH    H412917   4.866   3.153   3.224  1.6125 -0.7788  0.5056
  503ACOH    O212918   4.793   3.158   3.295  0.4157  0.0395  0.2849
  503ACOH    C212919   4.863   3.186   3.406  0.0801 -0.5049  0.6080
  503ACOH    O112920   4.983   3.196   3.413  0.1088  0.9381 -0.4397
  503ACOH    C112921   4.777   3.188   3.524  0.5042 -0.2059 -0.4617
  503ACOH    H112922   4.713   3.278   3.525  1.8128  1.5555  0.3071
  503ACOH    H212923   4.837   3.180   3.615  1.8576 -0.8604 -1.7670
  503ACOH    H312924   4.708   3.104   3.513 -1.4896 -1.2644  0.5090
  504ACOH    H412925   7.822   0.689   1.494  1.1052 -1.0890  1.7103
  504ACOH    O212926   7.772   0.635   1.424 -0.4428  0.7330 -0.6179
  504ACOH    C212927   7.872   0.594   1.344 -0.1993  0.4293 -0.1401
  504ACOH    O112928   7.982   0.571   1.380 -0.0712 -0.4673  0.0773
  504ACOH    C112929   7.810   0.528   1.227  0.0883  0.2723 -0.1016
  504ACOH    H112930   7.739   0.454   1.263  0.9381  0.9752 -0.3886
  504ACOH    H212931   7.884   0.478   1.170 -1.0282  0.7387  0.3820
  504ACOH    H312932   7.759   0.607   1.172 -1.9061 -3.4901  2.3706
  505ACOH    H412933   5.397   2.523   5.955 -1.6531 -1.4066 -0.5476
  505ACOH    O212934   5.490   2.499   5.980 -0.3637  0.1186  0.0619
  505ACOH    C212935   5.507   2.376   5.929  0.1207  0.1681 -0.0628
  505ACOH    O112936   5.429   2.302   5.873  0.5040 -0.5038  0.1045
  505ACOH    C112937   5.648   2.331   5.946 -0.0020  0.9379  0.1307
  505ACOH    H112938   5.694   2.375   6.028  0.1212 -0.5510 -1.5702
  505ACOH    H212939   5.700   2.334   5.850 -0.1214  0.3589  2.7768
  505ACOH    H312940   5.645   2.227   5.969 -0.0330  0.3215  1.0910
  506ACOH    H412941   1.921   6.182   5.019  0.1661 -3.2126  2.1481
  506ACOH    O212942   1.995   6.125   5.047  0.4475 -0.4597 -0.4162
  506ACOH    C212943   2.116   6.171   5.000 -0.2081  0.2217  0.0852
  506ACOH    O112944   2.126   6.249   4.906  0.4910  0.1083 -0.0926
  506ACOH    C112945   2.228   6.073   5.033  0.5232 -0.2147 -0.1970
  506ACOH    H112946   2.262   6.099   5.125  0.6619 -2.7788 -0.3204
  506ACOH    H212947   2.316   6.074   4.969 -1.9898  0.8753  0.0923
  506ACOH    H312948   2.182   5.970   5.046 -0.7859 -1.3652 -0.7502
  507ACOH    H412949   4.716   9.702   0.617 -1.9293  4.1222  4.5649
  507ACOH    O212950   4.756   9.638   0.546 -0.1601  0.0958  0.1261
  507ACOH    C212951   4.888   9.667   0.548 -1.0077 -0.0524 -0.0844
  507ACOH    O112952   4.947   9.755   0.611  0.4993 -0.4449  0.3617
  507ACOH    C112953   4.958   9.560   0.481 -0.2205  0.0851  0.6032
  507ACOH    H112954   4.950   9.564   0.371  2.9139 -1.1319  0.4330
  507ACOH    H212955   4.922   9.460   0.513  0.1189 -0.7940 -3.0824
  507ACOH    H312956   5.063   9.567   0.510  0.8248  0.4378  0.8529
  508ACOH    H412957   4.539   9.341  10.001 -1.5628 -1.8568  1.4658
  508ACOH    O212958   4.466   9.402   9.963 -0.6443  0.0862  0.1206
  508ACOH    C212959   4.456   9.354   9.839  0.2629  0.3129  0.3815
  508ACOH    O112960   4.525   9.269   9.787 -0.0248 -0.2837  0.2893
  508ACOH    C112961   4.328   9.408   9.775  0.6832 -0.0906 -0.3742
  508ACOH    H112962   4.251   9.384   9.841  1.1624 -0.2148 -0.0521
  508ACOH    H212963   4.311   9.364   9.683  0.7448  0.4717  1.4995
  508ACOH    H312964   4.339   9.513   9.754 -1.6090  0.3048 -1.2425
  509ACOH    H412965   4.483   1.301   9.664 -0.3167 -2.7994 -1.5845
  509ACOH    O212966   4.444   1.339   9.745  0.6634  0.1064 -0.0367
  509ACOH    C212967   4.437   1.236   9.833 -0.5050  0.5766  0.2713
  509ACOH    O112968   4.442   1.116   9.804  0.4012  0.2671 -0.1042
  509ACOH    C112969   4.413   1.289   9.968  0.4251  0.7844 -0.3210
  509ACOH    H112970   4.486   1.251  10.027  0.1500 -0.9300 -1.0339
  509ACOH    H212971   4.316   1.267  10.015  2.3461  0.5356 -2.3887
  509ACOH    H312972   4.427   1.394   9.963  0.8108  0.6143  4.1969
  510ACOH    H412973   6.618   7.194   6.072  2.4180 -1.9460 -0.4871
  510ACOH    O212974   6.569   7.110   6.057  0.1538  0.4494 -0.4485
  510ACOH    C212975   6.593   7.063   5.935  0.3267 -0.5714  0.2768
  510ACOH    O112976   6.698   7.076   5.874  0.2901  0.2892 -0.5545
  510ACOH    C112977   6.507   6.947   5.917 -0.3810  0.2660 -0.7183
  510ACOH    H112978   6.564   6.865   5.865  1.4918 -3.1787  0.2524
  510ACOH    H212979   6.419   6.981   5.855  1.9646  0.9608  2.0172
  510ACOH    H312980   6.479   6.909   6.015  1.5336  0.7407 -0.9899
  511ACOH    H412981   7.182   1.546   3.814  0.8528 -0.8619  0.9227
  511ACOH    O212982   7.131   1.511   3.892  0.7908  0.4304  0.5468
  511ACOH    C212983   7.016   1.583   3.902 -0.7696  0.3510  0.1688
  511ACOH    O112984   7.009   1.694   3.859  0.0238 -0.1359  0.2798
  511ACOH    C112985   6.925   1.549   4.015 -0.2220  0.2189  0.0793
  511ACOH    H112986   6.981   1.528   4.103 -3.7590  2.2501 -0.4566
  511ACOH    H212987   6.892   1.451   3.989  0.1293  2.7536  1.2799
  511ACOH    H312988   6.849   1.624   4.032 -0.1031 -1.8387  0.5011
  512ACOH    H412989   5.140   7.220   6.456 -0.1883  0.5092  2.9489
  512ACOH    O212990   5.052   7.175   6.467  0.5836 -0.5083  0.2418
  512ACOH    C212991   5.027   7.138   6.598 -0.4027  0.2373  0.4399
  512ACOH    O112992   5.108   7.144   6.685 -0.1432 -0.5453 -0.4782
  512ACOH    C112993   4.897   7.064   6.606  0.6479  0.4241 -0.3129
  512ACOH    H112994   4.847   7.092   6.512  1.7842 -0.4378  0.9534
  512ACOH    H212995   4.837   7.102   6.693 -0.1058  2.1275  0.7579
  512ACOH    H312996   4.908   6.957   6.608  1.9330 -3.3634 -0.1827
  513ACOH    H412997   3.866   5.528   5.462  2.6580  1.4034  1.5258
  513ACOH    O212998   3.887   5.590   5.537 -0.7225  0.2828  0.3168
  513ACOH    C212999   4.014   5.631   5.524 -0.3154 -0.0419  0.4589
  513ACOH    O113000   4.100   5.593   5.443  0.8250 -0.4751  0.4058
  513ACOH    C113001   4.065   5.718   5.629  0.7154 -0.5824  0.4311
  513ACOH    H113002   4.175   5.729   5.610 -0.9910 -0.3791 -1.8940
  513ACOH    H213003   4.038   5.680   5.726 -1.3388  0.9279 -2.8221
  513ACOH    H313004   4.020   5.819   5.631  0.1653 -0.9727 -1.2584
  514ACOH    H413005   2.855   0.584   2.579  3.2325  1.5812 -2.1857
  514ACOH    O213006   2.852   0.563   2.675 -0.2777  0.0058 -0.3791
  514ACOH    C213007   2.960   0.489   2.714  0.0880 -0.0868 -0.3994
  514ACOH    O113008   3.056   0.469   2.646  0.3423  0.3214  0.1657
  514ACOH    C113009   2.944   0.444   2.851 -0.3541  0.3477 -0.3760
  514ACOH    H113010   2.875   0.352   2.853 -0.6432 -0.7038  1.0887
  514ACOH    H213011   2.899   0.523   2.907  1.6252 -0.1295 -2.0178
  514ACOH    H313012   3.047   0.433   2.897  2.6713 -4.3568  3.1902
  515ACOH    H413013   4.974   8.957   9.957 -1.8514 -1.6230 -0.1897
  515ACOH    O213014   5.026   8.973  10.037  0.7465 -0.0797 -0.6303
  515ACOH    C213015   4.993   9.098  10.082 -0.0798  0.6957  0.1508
  515ACOH    O113016   4.900   9.163  10.037 -0.1030  0.0001 -0.6545
  515ACOH    C113017   5.071   9.148  10.195  0.0374 -0.3510 -0.4796
  515ACOH    H113018   5.123   9.241  10.165  2.2395 -0.4560 -0.8702
  515ACOH    H213019   5.143   9.076  10.233 -1.3769 -0.5957  3.0053
  515ACOH    H313020   4.997   9.176  10.274 -0.5822  1.2673  0.5627
  516ACOH    H413021   6.752   6.679   3.801  0.3405 -2.7033  0.3867
  516ACOH    O213022   6.693   6.602   3.790 -0.3140 -0.2453  0.6429
  516ACOH    C213023   6.628   6.582   3.907  0.5267 -0.1187 -0.1394
  516ACOH    O113024   6.611   6.670   3.990 -0.8303  0.0036 -0.1606
  516ACOH    C113025   6.558   6.455   3.901  0.1050  0.7998  0.3482
  516ACOH    H113026   6.517   6.446   3.801 -0.4071  2.8890 -0.0873
  516ACOH    H213027   6.477   6.454   3.969  1.1351 -0.2421 -0.2367
  516ACOH    H313028   6.624   6.371   3.918  2.0905  0.4993  0.5335
  517ACOH    H413029   5.652   3.184   8.330  0.8261  0.7609  2.7248
  517ACOH    O213030   5.736   3.129   8.328 -0.0275  0.5919  0.1909
  517ACOH    C213031   5.831   3.212   8.276 -0.1150 -0.7149 -0.1934
  517ACOH    O113032   5.809   3.325   8.247  0.4144 -0.5137  0.0864
  517ACOH    C113033   5.965   3.147   8.269 -0.3841 -1.1410  0.5667
  517ACOH    H113034   5.974   3.048   8.315  0.8509 -3.2580 -0.9543
  517ACOH    H213035   6.036   3.210   8.309 -0.3567  1.7201  0.0961
  517ACOH    H313036   5.998   3.146   8.162  1.2690  1.6518  1.0312
  518ACOH    H413037   4.827   6.254   3.402  0.3734  0.3715  0.6790
  518ACOH    O213038   4.913   6.260   3.357  0.0999 -0.0016 -0.1425
  518ACOH    C213039   4.906   6.206   3.237  0.2291 -0.5252 -0.2139
  518ACOH    O113040   4.813   6.147   3.190  0.2090 -0.4148  0.0406
  518ACOH    C113041   5.020   6.252   3.157 -0.0521 -0.4736  0.7143
  518ACOH    H113042   5.110   6.195   3.183  0.8530 -1.5548 -2.6006
  518ACOH    H213043   5.037   6.352   3.160  0.8314  1.7268 -0.9089
  518ACOH    H313044   5.012   6.225   3.053  1.7130  0.2387  0.6765
  519ACOH    H413045   3.121   0.823   1.882  0.7341  0.3982 -2.4947
  519ACOH    O213046   3.144   0.827   1.784 -0.5964 -0.5254  0.7145
  519ACOH    C213047   3.195   0.948   1.746  0.4552  1.0740  0.0065
  519ACOH    O113048   3.242   1.029   1.824  0.4168 -0.4513 -0.0621
  519ACOH    C113049   3.160   0.980   1.607 -0.2206  0.3509  0.0634
  519ACOH    H113050   3.112   0.893   1.564  1.9107 -0.9116  1.6616
  519ACOH    H213051   3.252   1.018   1.554  2.2326 -1.2875  1.1228
  519ACOH    H313052   3.091   1.062   1.610  0.0258  1.2062  3.0241
  520ACOH    H413053   6.709   2.688   3.866  0.1665 -0.5992 -0.7855
  520ACOH    O213054   6.670   2.763   3.812 -0.5489 -0.3867 -0.1357
  520ACOH    C213055   6.574   2.712   3.730 -0.0073 -1.1081  0.1519
  520ACOH    O113056   6.517   2.608   3.751  0.3593 -0.5061  0.3628
  520ACOH    C113057   6.525   2.804   3.629  0.2400  0.3926 -0.0345
  520ACOH    H113058   6.506   2.899   3.669 -1.3730 -1.2794  0.7480
  520ACOH    H213059   6.439   2.768   3.580 -1.1660 -0.0688 -0.7428
  520ACOH    H313060   6.596   2.805   3.548 -1.4985 -0.4449 -1.3881
  521ACOH    H413061   6.139   0.648   7.721 -0.8815 -0.0488 -0.1306
  521ACOH    O213062   6.122   0.690   7.810 -0.3578  0.1892 -0.3928
  521ACOH    C213063   6.137   0.603   7.917 -1.0284 -0.1229 -0.5524
  521ACOH    O113064   6.202   0.502   7.916 -0.0601 -0.4571  0.3534
  521ACOH    C113065   6.095   0.668   8.039  0.7804 -0.3205 -0.5659
  521ACOH    H113066   6.018   0.608   8.085  0.0084  0.6971  2.7132
  521ACOH    H213067   6.057   0.758   8.013  1.5361 -2.5347 -1.4420
  521ACOH    H313068   6.174   0.682   8.115 -0.1102 -2.1871 -1.6417
  522ACOH    H413069   6.912   2.088   2.901  1.2021  1.3606  0.0975
  522ACOH    O213070   6.980   2.157   2.911 -0.0440 -0.1071  0.1539
  522ACOH    C213071   7.007   2.215   2.794  0.1618 -0.3940 -0.3750
  522ACOH    O113072   6.926   2.259   2.721  0.5692  0.2384 -0.1146
  522ACOH    C113073   7.141   2.276   2.786 -0.2831 -0.3226  0.0807
  522ACOH    H113074   7.135   2.384   2.797 -1.3332 -0.5380  3.1941
  522ACOH    H213075   7.177   2.264   2.684  0.4515  0.3225 -1.7799
  522ACOH    H313076   7.213   2.237   2.856  0.3452 -1.1829  1.5243
  523ACOH    H413077   4.931   2.586   7.077 -3.2721  0.4307 -1.6673
  523ACOH    O213078   4.924   2.539   7.169 -0.3349  0.0622 -0.2815
  523ACOH    C213079   4.926   2.407   7.147 -0.2824 -0.3622  0.8250
  523ACOH    O113080   4.945   2.347   7.040 -0.2389 -0.0720 -0.0286
  523ACOH    C113081   4.922   2.332   7.275 -0.5335 -0.4398  0.4667
  523ACOH    H113082   5.004   2.368   7.327 -1.1978 -2.1445 -0.3640
  523ACOH    H213083   4.931   2.226   7.262 -1.0720 -0.5867  1.1215
  523ACOH    H313084   4.830   2.355   7.320  0.1665  0.6817 -2.6236
  524ACOH    H413085   6.145   3.482   8.393 -1.8700 -1.4566 -2.2632
  524ACOH    O213086   6.083   3.475   8.467  0.2353 -0.5056 -0.0286
  524ACOH    C213087   6.145   3.533   8.569  0.2943  0.3147  0.5939
  524ACOH    O113088   6.267   3.546   8.595 -0.4265 -0.1610 -0.0576
  524ACOH    C113089   6.051   3.577   8.669  1.0519 -0.2065  0.1256
  524ACOH    H113090   6.060   3.511   8.761  0.2017 -1.0584 -0.5918
  524ACOH    H213091   5.948   3.571   8.625  1.6831  0.7931  0.8288
  524ACOH    H313092   6.067   3.677   8.693 -0.4758 -2.5463  0.6222
  525ACOH    H413093   5.780   2.549   0.111  0.8219 -2.4837  2.1560
  525ACOH    O213094   5.684   2.527   0.125 -0.2844 -0.5001  0.3219
  525ACOH    C213095   5.641   2.594   0.232  0.5132 -0.1567 -0.5996
  525ACOH    O113096   5.699   2.688   0.290 -0.5714 -0.2426 -0.1741
  525ACOH    C113097   5.501   2.558   0.251 -0.6490 -0.4560 -0.4620
  525ACOH    H113098   5.483   2.517   0.344 -3.3422 -0.4119 -0.4698
  525ACOH    H213099   5.477   2.473   0.191 -1.8232  0.6402 -1.5717
  525ACOH    H313100   5.434   2.639   0.235 -0.6771 -1.5141  2.8351
  526ACOH    H413101   4.929   3.105   7.218  2.0872 -2.7642 -1.3746
  526ACOH    O213102   5.000   3.166   7.189 -0.1894  0.3236  0.1970
  526ACOH    C213103   5.061   3.084   7.098 -0.0206  0.2994 -1.7259
  526ACOH    O113104   5.016   2.983   7.044  0.5940 -0.5463  0.2650
  526ACOH    C113105   5.199   3.130   7.067  0.1934  0.1375  0.0280
  526ACOH    H113106   5.198   3.147   6.956 -0.2315  0.4271 -1.3666
  526ACOH    H213107   5.266   3.047   7.090  0.1214  1.3773 -0.4326
  526ACOH    H313108   5.229   3.219   7.115  1.2768 -3.0161  0.2932
  527ACOH    H413109   6.204   7.269   4.241  0.4389  1.6465 -0.9245
  527ACOH    O213110   6.286   7.212   4.247 -0.2176  0.0273  0.4550
  527ACOH    C213111   6.251   7.084   4.204 -1.2717 -0.2328 -0.0586
  527ACOH    O113112   6.136   7.042   4.190 -0.6563 -0.1269 -0.6850
  527ACOH    C113113   6.372   6.996   4.194  0.3788 -0.5220  0.5742
  527ACOH    H113114   6.446   7.025   4.276  2.8250  1.4411  3.4891
  527ACOH    H213115   6.430   7.015   4.101  1.5399  0.5025 -0.5014
  527ACOH    H313116   6.346   6.889   4.196 -0.2699 -0.7982 -2.3997
  528ACOH    H413117   7.487   9.190   2.305 -1.6899 -1.6103  2.1787
  528ACOH    O213118   7.524   9.151   2.218 -0.1803  0.6428  0.2005
  528ACOH    C213119   7.625   9.067   2.243  0.5639 -0.1171 -0.1422
  528ACOH    O113120   7.646   9.006   2.347  0.2493  0.3513 -0.2834
  528ACOH    C113121   7.713   9.051   2.120 -0.4379  0.1322  0.9017
  528ACOH    H113122   7.788   9.125   2.115  0.3891 -0.5243  1.3757
  528ACOH    H213123   7.657   9.046   2.027 -0.4056  0.2411  0.3269
  528ACOH    H313124   7.770   8.960   2.129  1.2744  0.7718 -0.8519
  529ACOH    H413125   9.680   8.529   5.500 -2.8266  1.3691  0.8571
  529ACOH    O213126   9.760   8.548   5.436  0.1231  0.1850 -0.1905
  529ACOH    C213127   9.707   8.571   5.312 -0.3064 -0.2094  0.8774
  529ACOH    O113128   9.588   8.581   5.285  0.1121  0.6975  0.4110
  529ACOH    C113129   9.812   8.544   5.213  0.4375  0.1660 -0.0996
  529ACOH    H113130   9.784   8.538   5.110  1.4446  0.8948 -0.5501
  529ACOH    H213131   9.868   8.454   5.244  2.1797  0.8039  0.1134
  529ACOH    H313132   9.881   8.628   5.223 -0.0636  1.1927  1.5496
  530ACOH    H413133   3.065   6.304   0.507  0.9156 -1.9487 -0.2521
  530ACOH    O213134   3.094   6.254   0.426  0.5322 -0.0454 -0.1232
  530ACOH    C213135   3.225   6.221   0.443  0.1418 -0.2543  0.1921
  530ACOH    O113136   3.295   6.257   0.536  0.1254 -0.4493  0.1187
  530ACOH    C113137   3.275   6.126   0.344  0.1636 -0.3552  0.2403
  530ACOH    H113138   3.310   6.041   0.397 -2.4853 -0.8831 -1.3293
  530ACOH    H213139   3.356   6.170   0.288 -0.1982 -1.1094 -1.6479
  530ACOH    H313140   3.206   6.087   0.274 -2.7092  0.8698  2.4100
  531ACOH    H413141   4.256   4.343   9.115 -1.6867 -0.1549  0.7709
  531ACOH    O213142   4.247   4.291   9.023  0.1877  0.1073 -0.9555
  531ACOH    C213143   4.214   4.380   8.933 -0.1908 -0.6975  0.4353
  531ACOH    O113144   4.136   4.465   8.957 -0.0929 -0.0884  0.0907
  531ACOH    C113145   4.209   4.319   8.799  0.0288 -0.5120 -0.7142
  531ACOH    H113146   4.163   4.222   8.808  0.1463 -0.4991  1.5789
  531ACOH    H213147   4.315   4.306   8.764  0.2737  0.1423  1.8418
  531ACOH    H313148   4.148   4.377   8.728 -0.4302  1.4913 -0.3484
  532ACOH    H413149   5.506   8.871   9.712  0.1423  0.4308  1.3646
  532ACOH    O213150   5.528   8.854   9.809  0.3194 -0.0834  0.1772
  532ACOH    C213151   5.659   8.897   9.821 -0.4840 -0.0327  0.2529
  532ACOH    O113152   5.747   8.905   9.735  0.4551 -0.2341  0.2599
  532ACOH    C113153   5.698   8.893   9.964  0.7749  0.1409 -0.5533
  532ACOH    H113154   5.641   8.971  10.021 -1.1891  0.8179  1.2860
  532ACOH    H213155   5.807   8.907   9.989 -1.6006 -1.1657 -0.2804
  532ACOH    H313156   5.670   8.792   9.998  2.0847  1.0712  1.3721
  533ACOH    H413157   3.717   8.825   7.700 -0.9575  0.9954 -1.4941
  533ACOH    O213158   3.816   8.824   7.686  0.2200 -0.3744  0.2248
  533ACOH    C213159   3.827   8.850   7.556 -0.0051  0.2629 -0.1677
  533ACOH    O113160   3.737   8.848   7.472  0.6644  0.6076 -0.4232
  533ACOH    C113161   3.969   8.897   7.527 -0.0028 -0.1711  0.0656
  533ACOH    H113162   3.991   8.891   7.421  1.2383  0.2968  1.4936
  533ACOH    H213163   4.036   8.838   7.584 -1.3433  0.1315 -2.5200
  533ACOH    H313164   3.970   9.001   7.563  0.4834 -2.5368 -0.6774
  534ACOH    H413165   6.673   3.017   2.741 -0.1913 -1.0617 -0.6798
  534ACOH    O213166   6.709   3.074   2.816  0.5147 -0.0044  0.1544
  534ACOH    C213167   6.644   3.027   2.922 -0.0307  0.4030 -0.1375
  534ACOH    O113168   6.580   2.925   2.921  0.2097  0.3297  1.1036
  534ACOH    C113169   6.665   3.109   3.042 -0.0934  0.7823  0.4009
  534ACOH    H113170   6.608   3.072   3.124  0.3450  1.2166  1.1686
  534ACOH    H213171   6.638   3.213   3.021 -0.3225 -0.8024 -1.6055
  534ACOH    H313172   6.775   3.107   3.066  1.6989  1.1117 -0.8442
  535ACOH    H413173   8.454   6.681   4.830  0.3378 -2.1396 -2.6599
  535ACOH    O213174   8.461   6.708   4.731 -0.4352  0.2579  0.0519
  535ACOH    C213175   8.590   6.705   4.695 -0.1606 -0.3988  0.3211
  535ACOH    O113176   8.682   6.667   4.759 -0.0443  0.4767 -0.1307
  535ACOH    C113177   8.615   6.729   4.550  0.1302  0.9389  0.2175
  535ACOH    H113178   8.692   6.656   4.510 -0.6704  0.8282  0.5637
  535ACOH    H213179   8.642   6.832   4.526  2.4162  0.7689  1.2057
  535ACOH    H313180   8.520   6.700   4.498 -0.7912 -0.5211 -1.5962
  536ACOH    H413181   6.574   5.109   3.099  0.5832  1.8900  0.3583
  536ACOH    O213182   6.522   5.178   3.135  0.2004  0.2765 -0.1323
  536ACOH    C213183   6.607   5.264   3.199 -0.3870  0.0415 -0.4897
  536ACOH    O113184   6.729   5.249   3.213 -0.5559  0.6424  0.7584
  536ACOH    C113185   6.533   5.364   3.272 -0.2691  0.0133  0.1082
  536ACOH    H113186   6.520   5.450   3.206  0.2606  2.3174  1.6260
  536ACOH    H213187   6.591   5.397   3.360  3.2985  1.8312 -2.8204
  536ACOH    H313188   6.430   5.343   3.298  1.6702  0.1193  1.7172
  537ACOH    H413189   6.368   6.512   2.261 -1.0100 -1.5334  1.4983
  537ACOH    O213190   6.306   6.451   2.309 -0.2054  0.2191  0.0163
  537ACOH    C213191   6.378   6.364   2.377  0.3137 -0.0733 -0.6860
  537ACOH    O113192   6.496   6.373   2.401 -0.2917 -0.2031 -0.0641
  537ACOH    C113193   6.282   6.288   2.463 -0.4817 -0.4671 -0.4187
  537ACOH    H113194   6.224   6.358   2.530 -0.3810 -1.0485 -0.3064
  537ACOH    H213195   6.340   6.225   2.525  0.8693 -1.8292 -0.2237
  537ACOH    H313196   6.204   6.223   2.417  0.5912 -2.4305  0.6988
  538ACOH    H413197   2.343   2.576   4.751  0.5847  0.9530  2.0953
  538ACOH    O213198   2.330   2.581   4.851 -0.0449 -0.7278  0.4975
  538ACOH    C213199   2.196   2.589   4.870  0.3939  0.3225 -0.7438
  538ACOH    O113200   2.109   2.599   4.785 -0.0103 -0.1875  0.8290
  538ACOH    C113201   2.164   2.592   5.016 -0.0734 -0.4049 -0.2130
  538ACOH    H113202   2.083   2.666   5.032 -3.0762 -1.4232  2.3072
  538ACOH    H213203   2.248   2.620   5.077  0.3992  0.2027  1.6893
  538ACOH    H313204   2.123   2.493   5.044  0.0870 -0.8884  2.3855
  539ACOH    H413205   6.696   6.912   1.042  1.5449  1.1249  2.8106
  539ACOH    O213206   6.641   6.992   1.072 -0.2485  0.1237  0.3708
  539ACOH    C213207   6.513   6.966   1.033  0.1591 -0.3656  0.1493
  539ACOH    O113208   6.462   6.877   0.968  0.6229 -0.9577  0.5834
  539ACOH    C113209   6.429   7.057   1.116  0.1944 -0.1320 -0.1327
  539ACOH    H113210   6.323   7.050   1.094  1.7922  0.1793  0.9104
  539ACOH    H213211   6.462   7.159   1.111  0.9261 -2.5415  0.9174
  539ACOH    H313212   6.436   7.033   1.222  0.3945 -1.0332  1.6366
  540ACOH    H413213   7.028   6.702   1.444 -1.2721 -1.4386 -0.3010
  540ACOH    O213214   7.070   6.792   1.430 -1.0850 -0.1271 -0.2563
  540ACOH    C213215   7.012   6.847   1.323  0.2553 -0.7315 -0.2233
  540ACOH    O113216   6.944   6.784   1.239  0.4644  0.0017 -0.5542
  540ACOH    C113217   7.053   6.989   1.297 -0.2673 -0.0562 -0.1269
  540ACOH    H113218   7.156   7.001   1.324 -0.1854 -0.7024 -0.3354
  540ACOH    H213219   6.997   7.053   1.363 -2.6109 -2.6956 -0.3283
  540ACOH    H313220   7.036   7.013   1.184  0.5731  2.1053 -2.2468
  541ACOH    H413221   7.152   2.883   5.530 -0.0374  0.9620 -0.0993
  541ACOH    O213222   7.103   2.800   5.541  0.8449  0.0308 -0.5173
  541ACOH    C213223   7.126   2.751   5.665  0.0141  0.4765  0.1359
  541ACOH    O113224   7.210   2.789   5.748 -0.1590  0.2149  0.0077
  541ACOH    C113225   7.022   2.653   5.701  0.4118  0.0274 -0.5596
  541ACOH    H113226   7.028   2.575   5.636  1.1929  1.8368  0.3762
  541ACOH    H213227   6.933   2.705   5.683  1.3507  0.7247  1.0951
  541ACOH    H313228   7.029   2.617   5.805  0.2317 -0.3538  2.9685
  542ACOH    H413229   6.895   5.952   6.677  1.0160  1.8498  0.3888
  542ACOH    O213230   6.819   5.958   6.615  0.1862  0.0432 -0.0839
  542ACOH    C213231   6.791   6.084   6.590  0.8212 -0.8395  0.1655
  542ACOH    O113232   6.855   6.187   6.629  0.3102  0.2265 -0.3306
  542ACOH    C113233   6.671   6.097   6.494  0.5540  0.3520 -0.1665
  542ACOH    H113234   6.603   6.169   6.537 -2.6092  0.2992  1.4553
  542ACOH    H213235   6.625   5.998   6.484 -2.1995 -0.6512 -2.6702
  542ACOH    H313236   6.697   6.111   6.394 -1.4374 -0.6235  1.1654
  543ACOH    H413237   5.638   7.178   6.486  0.5192  1.9327  0.8604
  543ACOH    O213238   5.665   7.135   6.567 -0.3462 -0.2453  0.7059
  543ACOH    C213239   5.575   7.164   6.661  0.0270 -0.1183 -0.5055
  543ACOH    O113240   5.476   7.232   6.637  0.6951  0.1871 -0.2619
  543ACOH    C113241   5.620   7.137   6.800  0.0548  0.4163 -0.5184
  543ACOH    H113242   5.665   7.225   6.842  2.6927  2.8492  0.8265
  543ACOH    H213243   5.695   7.056   6.792 -3.0348 -0.1729 -1.9815
  543ACOH    H313244   5.530   7.109   6.859 -2.4459  0.2372  0.2601
  544ACOH    H413245   9.683   3.604   3.909 -0.1412 -2.3408 -2.7700
  544ACOH    O213246   9.625   3.662   3.854  0.7190  0.3611 -0.0623
  544ACOH    C213247   9.527   3.571   3.812  0.1435  0.2376 -0.5239
  544ACOH    O113248   9.498   3.471   3.871  0.6757 -0.1261 -0.3669
  544ACOH    C113249   9.428   3.623   3.713 -0.4522 -0.1406  0.7738
  544ACOH    H113250   9.492   3.659   3.626  1.5246 -1.7957  0.2062
  544ACOH    H213251   9.367   3.705   3.758 -1.0861 -0.3206  0.2724
  544ACOH    H313252   9.368   3.544   3.674 -0.2979 -0.9294  0.8119
  545ACOH    H413253   1.525   0.269   3.652  3.8343  1.8139 -0.7520
  545ACOH    O213254   1.574   0.328   3.595  0.6049 -0.0938 -0.0120
  545ACOH    C213255   1.484   0.382   3.513  0.6058 -0.3205 -0.3879
  545ACOH    O113256   1.363   0.397   3.527 -0.3154  0.3223  0.2780
  545ACOH    C113257   1.555   0.435   3.390 -0.0155 -0.2943  0.6572
  545ACOH    H113258   1.496   0.489   3.319 -1.0042 -1.5550  1.8453
  545ACOH    H213259   1.614   0.361   3.341 -0.1162  1.0433  0.7387
  545ACOH    H313260   1.624   0.512   3.424 -0.9546  0.9940 -1.5512
  546ACOH    H413261   4.073   5.646   7.036 -0.6914  0.9774 -2.5270
  546ACOH    O213262   4.138   5.652   6.964 -0.0831  0.2010  0.7436
  546ACOH    C213263   4.103   5.756   6.885  0.1722  0.3903  0.1118
  546ACOH    O113264   4.022   5.841   6.914  0.3586 -0.2413 -0.1454
  546ACOH    C113265   4.200   5.780   6.769  0.2227  0.2300 -0.0372
  546ACOH    H113266   4.299   5.757   6.798  0.5544 -2.2746  0.8922
  546ACOH    H213267   4.187   5.881   6.723 -1.6621  0.5411  3.2420
  546ACOH    H313268   4.172   5.713   6.689 -2.0081 -0.5995 -1.2367
  547ACOH    H413269   7.433   3.732   5.225 -1.1312 -0.6907  1.7079
  547ACOH    O213270   7.492   3.786   5.275  0.1511 -0.3998  0.6412
  547ACOH    C213271   7.506   3.737   5.400 -0.2458 -0.1639 -0.0435
  547ACOH    O113272   7.443   3.648   5.450 -0.3817  0.7060 -0.6057
  547ACOH    C113273   7.607   3.824   5.474  0.0012  0.3069 -0.8265
  547ACOH    H113274   7.556   3.927   5.493 -1.0397 -0.7171  1.3974
  547ACOH    H213275   7.693   3.835   5.411 -1.7667 -1.0477 -0.4270
  547ACOH    H313276   7.633   3.782   5.570  1.1940 -0.0454  1.2038
  548ACOH    H413277   2.371   2.748   9.680  1.3073 -1.7386  2.5784
  548ACOH    O213278   2.303   2.694   9.715 -0.4664 -0.4852  0.3589
  548ACOH    C213279   2.271   2.598   9.630  0.2516  0.0262  0.7321
  548ACOH    O113280   2.326   2.578   9.521  0.5338 -0.4043 -0.4141
  548ACOH    C113281   2.165   2.506   9.675 -0.4800  0.0677 -0.5184
  548ACOH    H113282   2.175   2.417   9.619 -1.6901 -0.9925 -2.0890
  548ACOH    H213283   2.065   2.551   9.649  0.3745  0.9162 -2.9869
  548ACOH    H313284   2.178   2.474   9.778 -0.9976 -2.8774 -2.1392
  549ACOH    H413285   2.858   6.513   6.565 -0.9051 -1.6792  0.0403
  549ACOH    O213286   2.783   6.575   6.595  0.3223 -0.3818 -0.1939
  549ACOH    C213287   2.670   6.502   6.586  0.8926 -0.0132  0.5752
  549ACOH    O113288   2.660   6.383   6.605 -0.2718  0.2276  0.0046
  549ACOH    C113289   2.541   6.590   6.575  0.2080  1.0145  0.4529
  549ACOH    H113290   2.569   6.683   6.542  1.4674  1.5712  1.8844
  549ACOH    H213291   2.517   6.599   6.680  1.2130  2.8939  0.1162
  549ACOH    H313292   2.454   6.550   6.538 -1.5944 -0.4296  0.8230
  550ACOH    H413293   6.379   5.090   7.071  1.7388 -0.6902 -1.7753
  550ACOH    O213294   6.381   5.047   6.986 -0.2064  0.2757  0.0023
  550ACOH    C213295   6.497   4.986   6.971  0.7567 -0.1265 -0.4118
  550ACOH    O113296   6.602   5.013   7.029  0.5392 -0.4596 -0.3941
  550ACOH    C113297   6.491   4.920   6.835  0.2067  0.1573 -0.8661
  550ACOH    H113298   6.447   4.823   6.856 -0.2684  1.5736 -0.5471
  550ACOH    H213299   6.588   4.910   6.793 -0.6755  1.3436  2.3524
  550ACOH    H313300   6.421   4.971   6.768 -2.7922  0.9930  1.3327
  551ACOH    H413301   6.722   6.438   5.626 -0.6935  3.0389 -0.0241
  551ACOH    O213302   6.669   6.415   5.708 -0.7008  0.8857 -0.3235
  551ACOH    C213303   6.577   6.514   5.725  0.7129 -0.1344  0.3726
  551ACOH    O113304   6.570   6.617   5.662  0.3870  0.4995  0.0378
  551ACOH    C113305   6.503   6.505   5.853 -0.7191  0.5280 -0.4020
  551ACOH    H113306   6.510   6.408   5.899 -1.0195 -0.8759  0.1401
  551ACOH    H213307   6.398   6.522   5.843 -1.2904  1.1784  2.6737
  551ACOH    H313308   6.549   6.583   5.916  1.0859  1.1997  1.0520
  552ACOH    H413309   1.821   8.254   0.521 -2.8922 -0.0377  1.1436
  552ACOH    O213310   1.726   8.276   0.532  0.0519  0.5588 -0.1679
  552ACOH    C213311   1.670   8.291   0.409 -0.9419  0.9099  0.4721
  552ACOH    O113312   1.703   8.244   0.305 -0.2482  0.4254 -0.1878
  552ACOH    C113313   1.540   8.354   0.429  1.3042 -0.0625  0.3694
  552ACOH    H113314   1.471   8.270   0.439 -2.8067  0.2638  2.6857
  552ACOH    H213315   1.504   8.410   0.341 -0.7201  1.5686 -1.2418
  552ACOH    H313316   1.540   8.424   0.509  1.4618 -0.5158  1.1721
  553ACOH    H413317   7.388   7.410   2.408  1.7399  1.0609 -2.9811
  553ACOH    O213318   7.405   7.492   2.355  0.0839  0.1552 -0.4755
  553ACOH    C213319   7.502   7.454   2.264 -0.0675  0.3177  0.6301
  553ACOH    O113320   7.562   7.347   2.256 -0.0578 -0.4217  0.2377
  553ACOH    C113321   7.553   7.572   2.190 -0.3769  0.6263  0.0787
  553ACOH    H113322   7.652   7.586   2.233 -2.1795  2.8225  1.1134
  553ACOH    H213323   7.497   7.663   2.203 -1.1094  1.0291 -1.1922
  553ACOH    H313324   7.557   7.550   2.084 -3.2043 -0.1324  0.1549
  554ACOH    H413325   7.158   0.299   2.069 -0.7980 -2.4309 -2.1351
  554ACOH    O213326   7.182   0.256   1.983 -0.0779 -0.1628  0.0603
  554ACOH    C213327   7.068   0.278   1.918  0.1965  0.1177  0.7888
  554ACOH    O113328   6.993   0.369   1.943  0.4221 -0.0932 -0.3773
  554ACOH    C113329   7.082   0.218   1.781  0.0770 -0.0542  0.2014
  554ACOH    H113330   7.099   0.291   1.700 -1.7986  1.6618 -1.8079
  554ACOH    H213331   6.988   0.178   1.757 -1.1098  3.4665 -0.0563
  554ACOH    H313332   7.160   0.144   1.782  0.3567  0.1041  0.1175
  555ACOH    H413333   2.512   7.519   7.875 -0.5680 -2.6899 -1.9159
  555ACOH    O213334   2.422   7.493   7.908  0.5884 -0.0330 -0.2840
  555ACOH    C213335   2.405   7.544   8.034 -0.5643  0.0111  0.5433
  555ACOH    O113336   2.488   7.609   8.095 -0.1756 -0.2064 -0.2929
  555ACOH    C113337   2.260   7.539   8.076 -0.4703 -0.1447 -0.1268
  555ACOH    H113338   2.221   7.634   8.035  0.3606  4.0393 -1.8192
  555ACOH    H213339   2.247   7.533   8.188  0.8604 -2.1353  0.3146
  555ACOH    H313340   2.216   7.459   8.024 -0.0758  1.9473 -0.4660
  556ACOH    H413341   6.593   6.989   8.253  0.0780  0.5628  1.2548
  556ACOH    O213342   6.590   6.902   8.309  0.3251 -0.0155  0.3157
  556ACOH    C213343   6.516   6.817   8.233 -0.0615  0.9211 -0.1407
  556ACOH    O113344   6.521   6.812   8.110  0.2497 -0.5015 -0.3069
  556ACOH    C113345   6.480   6.695   8.319 -0.0629 -0.0291 -0.2117
  556ACOH    H113346   6.557   6.684   8.399 -0.9203  1.7473  0.7544
  556ACOH    H213347   6.476   6.611   8.256  1.3792  1.0460  1.7708
  556ACOH    H313348   6.383   6.710   8.365  0.1059 -0.3571 -1.3413
  557ACOH    H413349   3.453   5.720   6.609  1.7945  1.3979  0.6316
  557ACOH    O213350   3.514   5.770   6.665  0.1985 -0.5713 -0.1750
  557ACOH    C213351   3.467   5.894   6.665 -0.7839  0.5257 -0.2271
  557ACOH    O113352   3.411   5.940   6.568  0.8375 -0.3226 -0.3311
  557ACOH    C113353   3.546   5.959   6.775 -0.4664  0.9134 -0.1342
  557ACOH    H113354   3.542   6.068   6.755  1.3037  0.7264 -0.7194
  557ACOH    H213355   3.655   5.935   6.762  0.8971  1.7945 -1.2061
  557ACOH    H313356   3.513   5.940   6.878 -0.6817  0.1891  0.2002
  558ACOH    H413357   4.109   1.575   4.079  0.0847 -0.8947 -0.2596
  558ACOH    O213358   4.194   1.623   4.072 -0.0618 -0.6804 -0.2273
  558ACOH    C213359   4.292   1.551   4.135  0.7369  0.1030  0.6722
  558ACOH    O113360   4.286   1.434   4.168 -0.5553  0.0173  0.1533
  558ACOH    C113361   4.414   1.628   4.174  0.1151  0.3343 -0.0671
  558ACOH    H113362   4.410   1.640   4.280 -1.8510  0.9990  0.0696
  558ACOH    H213363   4.417   1.729   4.140  0.3295 -0.2862 -1.9964
  558ACOH    H313364   4.509   1.575   4.151  1.4480 -0.5332 -2.5760
  559ACOH    H413365   5.949   5.183   2.906 -1.1024 -0.3958 -2.0668
  559ACOH    O213366   6.007   5.222   2.984 -0.2006 -0.2141 -0.5370
  559ACOH    C213367   6.122   5.150   2.974  0.6835 -0.0803 -0.9256
  559ACOH    O113368   6.151   5.073   2.886  0.4394 -0.3234  0.4499
  559ACOH    C113369   6.220   5.174   3.086 -0.3383 -0.5761  0.2039
  559ACOH    H113370   6.303   5.228   3.056 -0.8191  2.7218 -2.2898
  559ACOH    H213371   6.248   5.085   3.145 -2.3739 -0.6294 -0.3566
  559ACOH    H313372   6.160   5.243   3.151 -0.7223 -2.2421 -0.7533
  560ACOH    H413373   7.703   3.039   6.682  3.6475 -1.3258  1.2759
  560ACOH    O213374   7.707   2.964   6.744  0.4497 -0.0085  0.0220
  560ACOH    C213375   7.646   2.864   6.681 -0.2930 -0.1024  0.5113
  560ACOH    O113376   7.574   2.870   6.584  0.7030 -0.2754  0.0275
  560ACOH    C113377   7.683   2.735   6.753  0.9811  0.2626 -0.1591
  560ACOH    H113378   7.613   2.656   6.735 -0.9806 -2.8330  0.6298
  560ACOH    H213379   7.702   2.757   6.853 -0.2703  0.6086 -1.6370
  560ACOH    H313380   7.781   2.707   6.710 -0.6221  0.8534 -0.5040
  561ACOH    H413381   6.715   3.011   8.326  2.1002  2.1607  0.6458
  561ACOH    O213382   6.790   2.958   8.296  0.0725 -0.5316 -0.7416
  561ACOH    C213383   6.849   3.012   8.187 -0.4420  0.1949  0.1945
  561ACOH    O113384   6.843   3.126   8.147  0.2719 -0.5844 -0.4292
  561ACOH    C113385   6.959   2.926   8.129 -1.1068 -0.0607 -0.1599
  561ACOH    H113386   7.056   2.962   8.142 -0.8612  0.0254  0.6696
  561ACOH    H213387   6.936   2.917   8.025 -1.7937  1.4015  0.4622
  561ACOH    H313388   6.943   2.826   8.178 -0.6681  1.3687  1.9337
  562ACOH    H413389   1.708   8.502   0.736 -1.6229 -0.2498 -0.6044
  562ACOH    O213390   1.614   8.472   0.721  0.1863 -0.5762 -0.6228
  562ACOH    C213391   1.588   8.370   0.804 -0.0166  0.7204  0.3631
  562ACOH    O113392   1.662   8.326   0.892  0.2552 -0.3459  0.3118
  562ACOH    C113393   1.449   8.327   0.777  0.6828 -0.5742 -1.4876
  562ACOH    H113394   1.411   8.267   0.868 -1.1213  1.4529  0.9428
  562ACOH    H213395   1.444   8.258   0.689  0.8999 -2.3923 -1.2214
  562ACOH    H313396   1.378   8.408   0.773  1.4655  0.0260 -0.1356
  563ACOH    H413397   4.545   8.048   9.879  0.2745 -1.2310 -2.2190
  563ACOH    O213398   4.580   8.132   9.833 -0.1322 -0.0287  0.0343
  563ACOH    C213399   4.662   8.179   9.922 -0.4394 -0.5041 -0.0454
  563ACOH    O113400   4.648   8.181  10.047  0.3968 -0.0196  0.0565
  563ACOH    C113401   4.755   8.274   9.860  0.2008 -0.3491 -0.0099
  563ACOH    H113402   4.734   8.374   9.890 -0.8740 -0.6489 -1.1118
  563ACOH    H213403   4.737   8.276   9.756  1.6545  0.6499  3.2914
  563ACOH    H313404   4.861   8.246   9.894  3.4327 -0.7976  2.3149
  564ACOH    H413405   2.366   2.186   5.518  0.4284 -0.2411 -0.1049
  564ACOH    O213406   2.266   2.203   5.487  0.2930  0.6256  0.4686
  564ACOH    C213407   2.260   2.328   5.445  0.0235 -0.3032  1.3315
  564ACOH    O113408   2.342   2.392   5.376 -0.1401  0.5594 -0.4485
  564ACOH    C113409   2.117   2.375   5.444 -0.3266 -0.4605  0.4953
  564ACOH    H113410   2.049   2.304   5.494 -0.2065  1.4955 -1.6906
  564ACOH    H213411   2.096   2.399   5.340 -0.3263 -3.4358 -2.6087
  564ACOH    H313412   2.101   2.464   5.494 -1.4155  1.6376  0.9075
  565ACOH    H413413   8.056   8.070   7.809 -3.1529 -1.6039  1.4586
  565ACOH    O213414   8.026   8.102   7.896  0.1197 -0.0821  0.0266
  565ACOH    C213415   8.134   8.113   7.974 -0.1094 -0.2306  0.1359
  565ACOH    O113416   8.242   8.156   7.939  0.2558  0.0011  0.5137
  565ACOH    C113417   8.120   8.116   8.123 -0.4631  0.7047 -0.0329
  565ACOH    H113418   8.033   8.063   8.149  0.6362  3.3844 -0.8923
  565ACOH    H213419   8.121   8.210   8.167  0.3448 -2.5061  2.5586
  565ACOH    H313420   8.200   8.070   8.169 -3.6938 -0.0687 -0.0056
  566ACOH    H413421   6.398   0.463   9.400 -0.1515 -2.1022 -0.3874
  566ACOH    O213422   6.297   0.465   9.387  0.2820  0.5702  0.5620
  566ACOH    C213423   6.274   0.518   9.262 -0.0304 -0.1472  0.6221
  566ACOH    O113424   6.349   0.579   9.187  0.6176 -0.0048 -0.6311
  566ACOH    C113425   6.139   0.461   9.215  0.1582 -0.9516  0.2782
  566ACOH    H113426   6.130   0.367   9.268 -1.5113  4.1076 -1.3393
  566ACOH    H213427   6.135   0.435   9.112  0.8969 -1.4815 -0.9904
  566ACOH    H313428   6.053   0.513   9.250 -0.6632 -0.5933  4.0538
  567ACOH    H413429   3.860   3.128   7.780 -2.8563  0.3374  0.1163
  567ACOH    O213430   3.881   3.034   7.819  0.0508 -0.2864  0.4328
  567ACOH    C213431   3.933   3.059   7.940  0.0782 -0.5270  0.3827
  567ACOH    O113432   3.968   3.168   7.973 -0.0483 -0.3706  0.2131
  567ACOH    C113433   3.960   2.942   8.023 -0.4685 -0.0705  0.2082
  567ACOH    H113434   4.038   2.889   7.979  0.1870 -0.8239  1.0568
  567ACOH    H213435   3.880   2.869   8.026 -2.6430 -2.5344 -0.9093
  567ACOH    H313436   3.981   2.969   8.127 -1.5421 -2.0278 -0.8685
  568ACOH    H413437   7.298   6.999   8.787 -0.9718  1.4777 -1.4733
  568ACOH    O213438   7.297   7.010   8.891  0.0133 -0.1619 -0.4274
  568ACOH    C213439   7.388   6.924   8.946  0.2305  0.3752  0.4272
  568ACOH    O113440   7.485   6.869   8.897  0.5490 -0.1374  0.1142
  568ACOH    C113441   7.375   6.930   9.091  0.0613 -0.3203 -0.0464
  568ACOH    H113442   7.387   7.032   9.120 -0.3279 -5.0965 -0.7298
  568ACOH    H213443   7.449   6.862   9.144  1.2479 -1.1782  1.5576
  568ACOH    H313444   7.272   6.900   9.112 -0.2239  0.0345  0.7737
  569ACOH    H413445   3.768   3.334   8.467  0.4610 -0.3917  0.0623
  569ACOH    O213446   3.794   3.321   8.373 -0.1736 -0.0584  0.3377
  569ACOH    C213447   3.927   3.312   8.387 -0.2560 -0.1599  0.6348
  569ACOH    O113448   4.000   3.348   8.475 -0.6108  1.1567  0.6675
  569ACOH    C113449   3.972   3.277   8.253 -0.5670 -0.2404  0.7295
  569ACOH    H113450   4.051   3.197   8.258  0.3386  0.1823 -1.3042
  569ACOH    H213451   4.008   3.363   8.198  0.4112 -2.6700  2.7285
  569ACOH    H313452   3.886   3.232   8.193  0.7806 -0.2003 -1.2739
  570ACOH    H413453   2.224   7.314   3.772 -0.9272  2.0846  1.1596
  570ACOH    O213454   2.209   7.393   3.712 -0.8685 -0.3878  0.3979
  570ACOH    C213455   2.107   7.365   3.630  1.0138  0.8682  0.9217
  570ACOH    O113456   2.009   7.291   3.655  0.0136 -0.8076  0.0364
  570ACOH    C113457   2.127   7.442   3.509  0.0022  0.4493  0.3430
  570ACOH    H113458   2.048   7.411   3.439  2.0267  0.4657  0.0935
  570ACOH    H213459   2.222   7.419   3.463  0.4716 -0.6504  0.8318
  570ACOH    H313460   2.135   7.548   3.532 -2.0111  2.1488  0.8173
  571ACOH    H413461   7.352   1.895   5.929  0.6918 -0.8066 -1.4399
  571ACOH    O213462   7.260   1.861   5.905  0.1177  0.9039 -0.0334
  571ACOH    C213463   7.245   1.740   5.964  0.0300 -0.4892 -0.2443
  571ACOH    O113464   7.311   1.690   6.052 -0.7397 -0.2504 -0.0072
  571ACOH    C113465   7.140   1.668   5.896 -0.7070  0.8595  0.0427
  571ACOH    H113466   7.082   1.734   5.831 -1.2437  0.7143 -0.4665
  571ACOH    H213467   7.065   1.631   5.963  1.4518  0.7954 -1.8242
  571ACOH    H313468   7.175   1.588   5.836  1.1693 -1.2090  1.5532
  572ACOH    H413469   9.667   8.582   3.852 -0.1401 -0.2634 -1.0597
  572ACOH    O213470   9.680   8.513   3.788 -0.5533  0.4586 -0.0654
  572ACOH    C213471   9.638   8.392   3.846 -0.1142 -0.0911  0.9263
  572ACOH    O113472   9.627   8.377   3.965  0.1168 -0.1832  0.2864
  572ACOH    C113473   9.647   8.273   3.753  0.3434 -0.2785 -0.6378
  572ACOH    H113474   9.736   8.215   3.793  0.7592  0.3523  1.5907
  572ACOH    H213475   9.669   8.295   3.652 -0.2643 -1.5146  1.1779
  572ACOH    H313476   9.564   8.198   3.769  0.0710 -1.4911  1.1735
  573ACOH    H413477   7.974   7.219   8.992 -0.8655  0.0460  0.7919
  573ACOH    O213478   7.920   7.300   9.023  0.4015 -0.2291 -0.2865
  573ACOH    C213479   7.925   7.304   9.162  0.6965 -0.6585 -0.4819
  573ACOH    O113480   8.011   7.242   9.223 -0.6382  0.5542  0.1024
  573ACOH    C113481   7.846   7.421   9.215 -0.4484 -0.0603 -0.0838
  573ACOH    H113482   7.767   7.457   9.142 -2.1560 -0.2382  0.3592
  573ACOH    H213483   7.919   7.496   9.222  1.3075 -2.0922  1.2969
  573ACOH    H313484   7.816   7.394   9.314  2.0117  0.1237 -1.8812
  574ACOH    H413485   7.873   7.564   2.001 -0.4537 -0.2306  1.6238
  574ACOH    O213486   7.837   7.530   1.917  0.4234 -0.9016  0.3806
  574ACOH    C213487   7.807   7.400   1.931 -0.1271  0.2445  0.1245
  574ACOH    O113488   7.843   7.318   2.014 -0.3721  0.4861  0.1352
  574ACOH    C113489   7.746   7.364   1.806 -0.1590  0.4625  0.3508
  574ACOH    H113490   7.659   7.304   1.833 -2.5008 -0.3801  0.7703
  574ACOH    H213491   7.817   7.300   1.757  0.0447 -0.3178 -1.3638
  574ACOH    H313492   7.717   7.448   1.740 -2.1582  2.8349  1.8543
  575ACOH    H413493   8.538   1.467   8.777  1.3310 -0.9348  4.4677
  575ACOH    O213494   8.474   1.439   8.704 -0.6593 -0.2280 -0.6525
  575ACOH    C213495   8.530   1.425   8.585 -0.4873 -0.1293  0.7107
  575ACOH    O113496   8.468   1.376   8.492  0.5304 -0.5899  0.7997
  575ACOH    C113497   8.665   1.479   8.568 -0.0808  0.1042  0.3722
  575ACOH    H113498   8.668   1.498   8.462  1.4918 -1.1176  1.6998
  575ACOH    H213499   8.753   1.425   8.584 -0.0951  1.7839  1.3670
  575ACOH    H313500   8.671   1.574   8.616  0.9461 -1.9846  1.9842
  576ACOH    H413501   6.974   8.911   7.926 -2.9277  0.8653 -2.6565
  576ACOH    O213502   7.011   8.886   7.839  0.1140 -0.3152  0.2045
  576ACOH    C213503   6.920   8.936   7.745 -0.3147  0.0253  0.1961
  576ACOH    O113504   6.817   8.999   7.754  0.0742 -0.4556 -0.1005
  576ACOH    C113505   6.974   8.898   7.612 -0.2793 -0.2053 -0.0210
  576ACOH    H113506   6.901   8.908   7.529 -1.4514 -1.9254 -1.5818
  576ACOH    H213507   7.033   8.805   7.609 -2.2926 -1.3677  1.4440
  576ACOH    H313508   7.046   8.974   7.591 -1.2857 -1.0262 -1.3003
  577ACOH    H413509   8.821   1.027   6.085 -1.7144 -1.5676  0.3037
  577ACOH    O213510   8.844   0.950   6.032 -0.7540  0.5430  0.5623
  577ACOH    C213511   8.787   0.840   6.090  0.3735 -0.0585 -0.3129
  577ACOH    O113512   8.698   0.842   6.172  0.1887  0.6366 -0.4190
  577ACOH    C113513   8.822   0.720   6.017 -0.1310 -0.6577  1.3328
  577ACOH    H113514   8.914   0.739   5.962 -0.1924  0.2487 -0.6650
  577ACOH    H213515   8.747   0.689   5.945  0.9862 -0.1418 -0.4170
  577ACOH    H313516   8.841   0.632   6.069 -2.7157  0.1176 -1.7251
  578ACOH    H413517   4.226   7.147   1.074  3.7134 -1.9462  2.0295
  578ACOH    O213518   4.133   7.131   1.031 -0.0408  0.4196  0.1069
  578ACOH    C213519   4.043   7.221   1.085 -0.0457 -0.2619 -0.3584
  578ACOH    O113520   4.070   7.331   1.125  0.3781  0.2679  0.0008
  578ACOH    C113521   3.905   7.168   1.064  0.2113  0.4967  0.1362
  578ACOH    H113522   3.879   7.178   0.960  2.5673 -1.1022 -0.2803
  578ACOH    H213523   3.836   7.210   1.131  1.4743  1.6387  2.9938
  578ACOH    H313524   3.925   7.066   1.082 -2.8460 -0.5678  0.4532
  579ACOH    H413525   4.964   7.829   8.435 -0.1855 -0.0620  0.5546
  579ACOH    O213526   4.940   7.731   8.440  0.3697  0.3746 -0.7081
  579ACOH    C213527   4.975   7.704   8.573  0.0989 -0.3133 -0.3515
  579ACOH    O113528   4.968   7.783   8.664 -0.1630 -0.2313  0.1186
  579ACOH    C113529   4.984   7.562   8.598 -0.4608 -0.8338 -0.1795
  579ACOH    H113530   4.890   7.505   8.571 -0.3316  0.1869 -2.2238
  579ACOH    H213531   5.028   7.543   8.701  0.9577 -0.0919  3.8428
  579ACOH    H313532   5.055   7.514   8.523 -0.7690  0.6069 -1.4938
  580ACOH    H413533   8.065   3.723   6.701  0.9216 -0.0264 -1.5499
  580ACOH    O213534   8.044   3.762   6.614 -0.5595  0.3140 -0.1523
  580ACOH    C213535   8.126   3.863   6.581 -0.3491  0.3138  0.6413
  580ACOH    O113536   8.204   3.915   6.658 -0.0025 -0.2079  0.0312
  580ACOH    C113537   8.137   3.887   6.432 -0.2897  0.2702  0.1208
  580ACOH    H113538   8.211   3.967   6.414 -1.0338  0.3687  0.9582
  580ACOH    H213539   8.034   3.907   6.394 -0.4436 -1.4476  2.5748
  580ACOH    H313540   8.176   3.788   6.392  2.6210 -1.0645 -0.1029
  581ACOH    H413541   6.972   9.684   8.611 -0.3456  0.1402 -2.1105
  581ACOH    O213542   6.963   9.759   8.547  0.4959  0.3046  0.2445
  581ACOH    C213543   7.062   9.843   8.582 -0.6115  0.7030  0.2575
  581ACOH    O113544   7.136   9.835   8.677  0.3132 -0.7217  0.2998
  581ACOH    C113545   7.085   9.957   8.481 -0.0427  0.0018 -0.2366
  581ACOH    H113546   7.133  10.045   8.529  0.4681  2.0229 -3.2504
  581ACOH    H213547   6.982   9.984   8.447 -2.0660  1.2647  0.5797
  581ACOH    H313548   7.148   9.932   8.389  1.0614 -0.2949  1.2870
  582ACOH    H413549   8.060   8.475   0.317 -0.8382 -1.4341  2.2275
  582ACOH    O213550   8.022   8.458   0.231  0.1965  0.0971 -0.3198
  582ACOH    C213551   7.907   8.526   0.229 -0.3849 -0.6409  0.0234
  582ACOH    O113552   7.885   8.631   0.286 -0.2995 -0.2383  0.2737
  582ACOH    C113553   7.821   8.474   0.117 -0.5598  0.1274 -0.2916
  582ACOH    H113554   7.875   8.459   0.025  2.6953 -2.1991  0.0418
  582ACOH    H213555   7.737   8.541   0.105  1.0310 -2.1069  3.9434
  582ACOH    H313556   7.784   8.380   0.154  0.4558 -0.6711  1.0993
  583ACOH    H413557   6.476   9.413   9.181  1.6234 -1.3236  1.4566
  583ACOH    O213558   6.470   9.323   9.137 -0.3193  0.3057  0.3838
  583ACOH    C213559   6.589   9.261   9.156 -0.7517 -0.2749 -0.1083
  583ACOH    O113560   6.675   9.295   9.241  0.5310 -0.8639 -0.2388
  583ACOH    C113561   6.596   9.142   9.072 -0.4597  0.5829 -1.1848
  583ACOH    H113562   6.509   9.077   9.106 -3.3176 -1.2786  2.7592
  583ACOH    H213563   6.693   9.084   9.078  0.0444 -0.6683  1.3537
  583ACOH    H313564   6.574   9.173   8.969 -0.2042 -0.6674  0.4015
  584ACOH    H413565   9.250   9.026   8.612  0.4207 -1.6372 -2.7281
  584ACOH    O213566   9.278   8.946   8.562 -0.5760  0.3054 -0.0669
  584ACOH    C213567   9.294   8.844   8.652  0.1613  0.3662  0.9802
  584ACOH    O113568   9.333   8.859   8.767  0.7584  0.0193  0.4435
  584ACOH    C113569   9.309   8.717   8.581  0.0237  0.3663  1.0352
  584ACOH    H113570   9.207   8.682   8.552  0.5552  2.1079 -0.0055
  584ACOH    H213571   9.355   8.643   8.649 -0.5749  2.2153  2.5321
  584ACOH    H313572   9.370   8.735   8.490 -2.2678  2.7164  0.2871
  585ACOH    H413573   6.828   8.857   2.749  0.3093 -1.8472 -0.3097
  585ACOH    O213574   6.902   8.856   2.677  0.1441  0.2511  0.0629
  585ACOH    C213575   6.895   8.733   2.623 -0.1495  0.0886 -0.3663
  585ACOH    O113576   6.819   8.645   2.662  0.4048 -0.3524 -0.1002
  585ACOH    C113577   6.976   8.738   2.495 -0.9165  0.0226 -0.1677
  585ACOH    H113578   7.074   8.693   2.499 -0.5583  1.4138 -2.7632
  585ACOH    H213579   6.991   8.840   2.463  0.1379 -0.5316  1.2469
  585ACOH    H313580   6.916   8.684   2.419 -0.5756 -1.8850  1.3041
  586ACOH    H413581   5.629   8.209   4.505 -2.0493  0.5822 -0.1737
  586ACOH    O213582   5.669   8.275   4.438 -0.0759  0.7114  0.0808
  586ACOH    C213583   5.658   8.215   4.321 -0.9003  0.0807 -1.4194
  586ACOH    O113584   5.631   8.100   4.302  0.2017  0.1873  0.5996
  586ACOH    C113585   5.697   8.317   4.217  0.0956  0.9219 -0.1677
  586ACOH    H113586   5.757   8.406   4.248  2.1027  0.9521  0.8066
  586ACOH    H213587   5.601   8.349   4.183  1.9538 -0.6164  1.6252
  586ACOH    H313588   5.748   8.268   4.141 -2.4271  0.0206 -0.6784
  587ACOH    H413589   1.475   8.562  10.056 -0.4075  1.1179  1.3810
  587ACOH    O213590   1.514   8.629  10.115  0.2131 -0.0901  0.3243
  587ACOH    C213591   1.427   8.670  10.203 -0.2759 -0.5559  0.1152
  587ACOH    O113592   1.325   8.616  10.241 -0.2004  0.2758 -0.3758
  587ACOH    C113593   1.491   8.772  10.300  0.0080 -0.0543  0.1907
  587ACOH    H113594   1.570   8.718  10.358 -0.5369 -1.1628  0.2008
  587ACOH    H213595   1.425   8.807  10.375  1.6910  0.2485  0.3053
  587ACOH    H313596   1.533   8.858  10.242 -0.1759  4.5089  1.1137
  588ACOH    H413597   9.362   1.166   0.324  0.2422 -1.6859  0.3207
  588ACOH    O213598   9.394   1.079   0.344  0.7934  0.5381  0.3792
  588ACOH    C213599   9.441   1.083   0.471 -0.2676  0.6656 -0.3244
  588ACOH    O113600   9.447   1.174   0.551 -0.0064 -0.6311  0.8479
  588ACOH    C113601   9.502   0.949   0.500 -0.3215  0.7870  0.3122
  588ACOH    H113602   9.433   0.893   0.564 -0.8582 -0.8271  0.7969
  588ACOH    H213603   9.595   0.962   0.554 -0.7025 -1.0082 -0.6238
  588ACOH    H313604   9.525   0.892   0.407  1.1924 -0.7744 -1.1594
  589ACOH    H413605   5.569   7.683   8.783  4.4793  1.7387  0.3847
  589ACOH    O213606   5.470   7.655   8.796  0.3410 -0.0719 -0.9921
  589ACOH    C213607   5.399   7.763   8.835  0.7007 -0.1280  0.1373
  589ACOH    O113608   5.445   7.875   8.847 -0.2099  0.0981 -0.6156
  589ACOH    C113609   5.258   7.741   8.851  0.1987 -0.2188  0.3227
  589ACOH    H113610   5.211   7.682   8.776 -2.0703  0.5345  1.4346
  589ACOH    H213611   5.199   7.830   8.868 -2.5292 -3.1461  1.1767
  589ACOH    H313612   5.236   7.686   8.944  3.2060  1.5410  1.7794
  590ACOH    H413613   0.529   4.779   3.617  0.0189  1.4118  0.5991
  590ACOH    O213614   0.479   4.779   3.704  0.6761 -0.6429  0.6110
  590ACOH    C213615   0.354   4.745   3.681  1.1231  0.0294 -0.7375
  590ACOH    O113616   0.307   4.713   3.574 -0.5186 -0.5825  0.3951
  590ACOH    C113617   0.270   4.769   3.801 -0.0441 -1.0180  0.1374
  590ACOH    H113618   0.274   4.876   3.826  0.1668  0.5349  0.0893
  590ACOH    H213619   0.305   4.720   3.885 -1.2367  1.1962 -0.3697
  590ACOH    H313620   0.169   4.736   3.782  1.5870  0.3445  0.3721
  591ACOH    H413621   5.002   2.248   4.671 -0.4389 -0.0001 -1.0535
  591ACOH    O213622   5.085   2.289   4.660 -0.1209  0.0371 -0.2183
  591ACOH    C213623   5.165   2.186   4.698 -0.2064  0.0945  0.0695
  591ACOH    O113624   5.134   2.069   4.712  0.7808 -0.2110  0.0914
  591ACOH    C113625   5.312   2.229   4.693  0.2029  0.9081  0.0024
  591ACOH    H113626   5.375   2.141   4.697 -1.1310  1.6923 -3.7896
  591ACOH    H213627   5.327   2.289   4.783 -1.8883 -1.4796  1.2002
  591ACOH    H313628   5.340   2.283   4.606 -0.9721 -2.3319  2.2527
  592ACOH    H413629   5.791   8.470   8.691  1.9647 -0.8501  0.7963
  592ACOH    O213630   5.836   8.541   8.734  0.1091 -0.2695  0.2167
  592ACOH    C213631   5.960   8.542   8.682  0.2121 -0.0772 -0.0685
  592ACOH    O113632   6.006   8.476   8.586  0.8643 -0.1099 -0.2939
  592ACOH    C113633   6.028   8.665   8.726  0.6749  0.2866  0.9118
  592ACOH    H113634   6.130   8.660   8.689 -1.6525 -0.4394  1.7530
  592ACOH    H213635   6.033   8.663   8.832  2.4768  3.2527 -1.3472
  592ACOH    H313636   5.970   8.758   8.698  1.2409 -1.7323  0.3027
  593ACOH    H413637   6.777   2.271   3.977  1.6629  1.4849 -1.8561
  593ACOH    O213638   6.728   2.335   4.039 -0.6278 -0.1476 -0.1159
  593ACOH    C213639   6.733   2.285   4.165  0.0312 -0.2212 -0.1772
  593ACOH    O113640   6.753   2.173   4.206 -0.2833  0.1369  0.4624
  593ACOH    C113641   6.723   2.395   4.264  0.4528  0.6052  0.0319
  593ACOH    H113642   6.791   2.385   4.342 -1.0019 -0.4430 -1.1761
  593ACOH    H213643   6.618   2.400   4.300  0.7652 -3.7618  2.6243
  593ACOH    H313644   6.747   2.493   4.216 -1.3164  1.0909  0.4160
  594ACOH    H413645   7.779   8.013   0.507 -0.9937  2.3928 -2.2677
  594ACOH    O213646   7.734   8.104   0.504  0.2544 -0.4013  0.4376
  594ACOH    C213647   7.796   8.207   0.569 -0.4380 -0.3305 -0.2214
  594ACOH    O113648   7.888   8.186   0.646  0.0282  0.1885  0.2047
  594ACOH    C113649   7.735   8.338   0.547 -0.6036 -0.7507  0.1892
  594ACOH    H113650   7.812   8.408   0.543 -1.3795 -2.2979 -1.5310
  594ACOH    H213651   7.674   8.348   0.643  1.0313  0.7950  0.2813
  594ACOH    H313652   7.671   8.332   0.458 -0.2375 -1.9517  1.5682
  595ACOH    H413653   7.165   6.150   0.347  0.4071  0.8100  0.2618
  595ACOH    O213654   7.161   6.052   0.314 -0.1130 -0.3853  0.0045
  595ACOH    C213655   7.095   6.050   0.191 -0.5642  0.3227  0.4792
  595ACOH    O113656   7.085   6.155   0.130 -0.0444  0.2602  0.0794
  595ACOH    C113657   7.065   5.916   0.133  0.0349  0.3518 -0.3929
  595ACOH    H113658   6.973   5.906   0.087  0.8281  0.5146  1.9685
  595ACOH    H213659   7.065   5.836   0.202  1.9740 -0.4419  0.1490
  595ACOH    H313660   7.149   5.902   0.067  1.1593 -1.1034  1.5193
  596ACOH    H413661   2.087   5.027   4.475  1.0894  1.5866 -0.3667
  596ACOH    O213662   2.075   4.932   4.517  0.5079  0.1024 -0.4279
  596ACOH    C213663   2.093   4.851   4.408 -0.1600 -0.6367  0.2079
  596ACOH    O113664   2.070   4.878   4.293  0.0245 -0.0763 -0.5360
  596ACOH    C113665   2.125   4.710   4.443  0.3349  0.2727 -0.0257
  596ACOH    H113666   2.141   4.712   4.551  0.1600 -1.0300 -0.8609
  596ACOH    H213667   2.220   4.674   4.397  0.2643 -0.3000 -0.0643
  596ACOH    H313668   2.044   4.634   4.419 -1.8564  0.0922  1.3583
  597ACOH    H413669   6.982   1.397   2.144  0.4536  0.0631  0.7793
  597ACOH    O213670   6.966   1.325   2.211  0.5226 -0.0880  0.4682
  597ACOH    C213671   7.042   1.226   2.168  0.1447  0.7157 -0.3975
  597ACOH    O113672   7.080   1.200   2.052  0.2244  0.2955 -0.0633
  597ACOH    C113673   7.059   1.130   2.276 -1.0477  0.1777  0.2412
  597ACOH    H113674   6.969   1.114   2.325  3.1631  2.8049  1.1204
  597ACOH    H213675   7.132   1.175   2.344 -1.3972  0.3903  0.6025
  597ACOH    H313676   7.111   1.041   2.239  0.5186  2.0563 -1.0712
  598ACOH    H413677   6.439   2.314   5.625 -2.5507  0.0828 -1.1382
  598ACOH    O213678   6.427   2.414   5.617 -0.3206  0.2314 -0.0267
  598ACOH    C213679   6.316   2.451   5.670  0.3411 -0.7028  0.3508
  598ACOH    O113680   6.227   2.382   5.715 -0.0891  0.0172 -0.2468
  598ACOH    C113681   6.295   2.594   5.679  0.4679  0.1947  1.1376
  598ACOH    H113682   6.186   2.609   5.665  2.3065 -3.3523  0.0650
  598ACOH    H213683   6.349   2.643   5.601  0.3637 -2.7775 -1.7376
  598ACOH    H313684   6.328   2.631   5.776  0.5159 -1.1915  2.8543
  599ACOH    H413685   5.711   9.122   8.154  0.1974 -0.2800  1.6892
  599ACOH    O213686   5.731   9.187   8.078  0.2390 -0.6048 -0.0342
  599ACOH    C213687   5.832   9.261   8.124  0.9379  0.5443  0.9401
  599ACOH    O113688   5.874   9.267   8.236 -0.1786 -0.1357 -0.4852
  599ACOH    C113689   5.878   9.359   8.020 -0.2527  0.1978 -0.4483
  599ACOH    H113690   5.843   9.332   7.920 -0.2500  1.4505 -4.1849
  599ACOH    H213691   5.984   9.379   8.030 -0.9834 -2.0103  2.4499
  599ACOH    H313692   5.837   9.455   8.035  2.0481 -1.6117  0.5875
  600ACOH    H413693   8.465   0.333   7.277  0.9407 -2.5392  0.8511
  600ACOH    O213694   8.368   0.309   7.259  0.8505 -0.3934 -0.4756
  600ACOH    C213695   8.318   0.241   7.369 -0.6247 -0.2622  0.8324
  600ACOH    O113696   8.382   0.239   7.476  0.0166  0.0643  0.1107
  600ACOH    C113697   8.181   0.193   7.352 -0.3583 -0.1375  0.0288
  600ACOH    H113698   8.140   0.196   7.257  2.4374  0.8293 -1.6108
  600ACOH    H213699   8.117   0.252   7.416 -0.6800  0.7222 -0.8695
  600ACOH    H313700   8.184   0.087   7.383  0.0019  0.8021  1.4002
  601ACOH    H413701   7.227   1.293   9.933  1.8067 -0.9121  1.8244
  601ACOH    O213702   7.163   1.316  10.008 -0.3470 -0.4549 -0.4031
  601ACOH    C213703   7.152   1.444  10.025  0.2201  0.3706  0.4096
  601ACOH    O113704   7.241   1.520   9.996 -0.0626 -0.0818  0.1736
  601ACOH    C113705   7.036   1.489  10.102  0.1860  0.2677  0.1924
  601ACOH    H113706   6.948   1.417  10.092  0.1354 -1.8998  0.4807
  601ACOH    H213707   7.008   1.589  10.070 -1.1502 -0.6142  1.5164
  601ACOH    H313708   7.052   1.493  10.206  1.0841  0.2880 -1.1470
  602ACOH    H413709   6.941   6.199   9.949  1.1468  0.0306  0.7126
  602ACOH    O213710   6.874   6.124   9.955  0.3813  0.0683 -0.1236
  602ACOH    C213711   6.924   6.013   9.892  0.4227  0.1781 -0.3601
  602ACOH    O113712   7.037   5.990   9.856 -0.0101 -0.3077 -0.9245
  602ACOH    C113713   6.822   5.916   9.897 -0.0329  0.2064 -0.1467
  602ACOH    H113714   6.867   5.818   9.900  0.7142 -1.5693 -1.0259
  602ACOH    H213715   6.757   5.913   9.815  2.5596  3.8997 -0.1425
  602ACOH    H313716   6.764   5.929   9.984  3.0631  0.2282 -1.8560
  603ACOH    H413717   5.247   4.378   2.933  0.4918  2.1461  0.9748
  603ACOH    O213718   5.299   4.408   3.012 -0.1140  0.6769  0.0477
  603ACOH    C213719   5.205   4.414   3.109 -0.5148  0.2148 -0.5682
  603ACOH    O113720   5.087   4.388   3.101  0.2116 -0.1609  0.0401
  603ACOH    C113721   5.274   4.450   3.235 -0.1472  0.3144 -0.3586
  603ACOH    H113722   5.331   4.370   3.284 -0.4219  0.0905  2.5065
  603ACOH    H213723   5.194   4.468   3.311  0.1605 -0.5263 -0.2737
  603ACOH    H313724   5.340   4.537   3.221  0.5296 -1.0715 -2.3797
  604ACOH    H413725   4.596   9.237   0.454 -2.8258 -0.5625  1.9377
  604ACOH    O213726   4.662   9.202   0.387 -0.2571  0.2028 -0.1559
  604ACOH    C213727   4.670   9.079   0.433  0.3111  0.1832 -0.6436
  604ACOH    O113728   4.616   9.039   0.539  0.2716  0.4345  0.2359
  604ACOH    C113729   4.786   9.004   0.380 -0.2343 -0.6732  0.6590
  604ACOH    H113730   4.774   8.990   0.268 -1.9105 -2.4247 -1.1120
  604ACOH    H213731   4.805   8.905   0.418  2.3625  0.8919 -2.1046
  604ACOH    H313732   4.875   9.067   0.396 -1.8491 -2.1543  0.0251
  605ACOH    H413733   6.548   5.318   2.811  1.2567  0.4414  0.2473
  605ACOH    O213734   6.637   5.318   2.858 -0.2750  0.1855 -0.2576
  605ACOH    C213735   6.647   5.440   2.914 -0.7712 -0.3771 -0.1399
  605ACOH    O113736   6.555   5.519   2.932 -0.2664 -0.4554  0.1604
  605ACOH    C113737   6.785   5.473   2.960 -0.8064 -0.6112 -0.3870
  605ACOH    H113738   6.844   5.385   2.985 -0.3899 -0.4912 -1.1285
  605ACOH    H213739   6.780   5.526   3.056 -0.7370  0.8773  0.0479
  605ACOH    H313740   6.831   5.530   2.889 -3.0232  0.1434 -2.1450
  606ACOH    H413741   7.217   1.947   9.277 -3.8191 -0.3304 -2.6073
  606ACOH    O213742   7.165   1.937   9.361 -0.3260 -0.0742  0.4263
  606ACOH    C213743   7.177   1.807   9.385  0.3357 -0.0814 -0.7806
  606ACOH    O113744   7.210   1.721   9.311 -0.0646  0.7706  0.1539
  606ACOH    C113745   7.103   1.779   9.514 -0.7655 -0.1316  0.5164
  606ACOH    H113746   7.090   1.674   9.524  0.8924  3.3162  0.0817
  606ACOH    H213747   7.008   1.828   9.521 -0.5996  0.3615 -0.5701
  606ACOH    H313748   7.161   1.795   9.602  1.2431 -1.0444 -1.3706
  607ACOH    H413749   8.898   5.594   8.801 -0.2453  1.4730  2.5171
  607ACOH    O213750   8.840   5.535   8.860 -0.0059  0.0320  0.4047
  607ACOH    C213751   8.717   5.555   8.816  0.7097 -0.4133  0.2980
  607ACOH    O113752   8.690   5.575   8.702 -0.1813 -0.3502  0.4882
  607ACOH    C113753   8.621   5.517   8.923 -0.1469 -0.0775 -0.1315
  607ACOH    H113754   8.637   5.413   8.951 -0.7434 -0.3631  0.0943
  607ACOH    H213755   8.513   5.529   8.907  1.1392 -2.4424  0.8930
  607ACOH    H313756   8.654   5.573   9.004 -2.0871 -0.7099 -0.1975
  608ACOH    H413757   4.679   8.651   1.369 -2.5228 -1.1168  2.3458
  608ACOH    O213758   4.740   8.672   1.293 -0.4654 -0.7286 -0.2742
  608ACOH    C213759   4.837   8.750   1.345  0.8194 -0.2877 -0.1374
  608ACOH    O113760   4.840   8.782   1.467 -0.2459  0.5965  0.0577
  608ACOH    C113761   4.928   8.791   1.242  0.0380 -0.8028  0.3257
  608ACOH    H113762   5.023   8.731   1.235 -1.3007 -1.1680 -0.0435
  608ACOH    H213763   4.949   8.899   1.252  0.2172  0.7028 -0.5392
  608ACOH    H313764   4.888   8.776   1.145 -0.7682  0.1725  0.7709
  609ACOH    H413765   6.863   1.441   7.063  1.3235  0.8386 -0.6414
  609ACOH    O213766   6.788   1.476   7.012  0.2707 -0.1329 -0.0430
  609ACOH    C213767   6.825   1.524   6.893 -0.6322 -0.0994 -0.2087
  609ACOH    O113768   6.933   1.571   6.860 -0.3571  0.4614 -0.1843
  609ACOH    C113769   6.708   1.532   6.804  0.0064 -0.4489 -0.0664
  609ACOH    H113770   6.722   1.450   6.731  3.5123 -1.6405  0.7662
  609ACOH    H213771   6.694   1.626   6.748  1.5809 -1.6256 -1.3310
  609ACOH    H313772   6.619   1.518   6.858 -0.3755  0.2334  1.0592
  610ACOH    H413773   4.558   4.478   3.255 -0.7064  0.5398  1.6245
  610ACOH    O213774   4.627   4.451   3.323 -0.0587 -0.4749 -0.3235
  610ACOH    C213775   4.730   4.535   3.301  0.0917  0.8524  0.2035
  610ACOH    O113776   4.722   4.631   3.226 -0.0029 -0.1282  0.1920
  610ACOH    C113777   4.842   4.517   3.391 -0.2496 -0.8018 -0.0795
  610ACOH    H113778   4.826   4.581   3.480 -0.7536  2.0407  0.3172
  610ACOH    H213779   4.930   4.559   3.339 -0.2622 -1.4134  0.0308
  610ACOH    H313780   4.861   4.414   3.416 -0.8231 -0.9066 -0.8214
  611ACOH    H413781   6.704   1.462   8.606  0.8202 -0.8440 -2.0984
  611ACOH    O213782   6.613   1.417   8.604 -0.7731  0.1005  0.6277
  611ACOH    C213783   6.519   1.509   8.629 -0.0015 -0.4599  0.4018
  611ACOH    O113784   6.532   1.626   8.667 -0.3045 -0.2762 -0.0214
  611ACOH    C113785   6.385   1.447   8.621 -0.1072 -0.2062 -0.2268
  611ACOH    H113786   6.329   1.455   8.717 -1.3059  0.9963  0.2274
  611ACOH    H213787   6.392   1.343   8.605 -2.7056  0.6462 -0.6850
  611ACOH    H313788   6.330   1.500   8.540  0.0172 -1.7234  0.4761
  612ACOH    H413789   3.956   0.791   3.035 -1.3281 -1.6788  1.1565
  612ACOH    O213790   3.887   0.852   2.995 -0.1376  0.0878  0.0017
  612ACOH    C213791   3.900   0.846   2.861  0.0554  0.4783  0.3186
  612ACOH    O113792   3.983   0.780   2.805  0.3119  0.5485  0.4120
  612ACOH    C113793   3.800   0.930   2.793 -0.5549  0.5071  0.1190
  612ACOH    H113794   3.799   1.027   2.821 -0.2217  1.7041  1.3816
  612ACOH    H213795   3.705   0.882   2.799  1.1005 -0.1980 -2.7172
  612ACOH    H313796   3.828   0.928   2.689  1.1258 -2.2867 -1.7161
  613ACOH    H413797   0.267   9.133   6.551 -0.0975 -1.7220  0.9695
  613ACOH    O213798   0.261   9.156   6.449  0.2026 -0.0738  0.7130
  613ACOH    C213799   0.129   9.186   6.427  0.2229 -0.6185  0.0036
  613ACOH    O113800   0.048   9.219   6.511 -0.4731 -0.1444 -0.2802
  613ACOH    C113801   0.109   9.219   6.284  0.2251  0.1578 -0.1601
  613ACOH    H113802   0.036   9.147   6.245  2.4047 -0.1847  0.8280
  613ACOH    H213803   0.206   9.202   6.239  0.9899 -0.6099  0.2490
  613ACOH    H313804   0.075   9.317   6.262 -4.2561 -0.4770 -2.3561
  614ACOH    H413805   5.389   3.564   7.630 -0.3833 -0.1922 -0.6327
  614ACOH    O213806   5.432   3.621   7.559 -0.1567  0.6631  0.5128
  614ACOH    C213807   5.424   3.543   7.449  1.1846 -0.0914  0.2430
  614ACOH    O113808   5.426   3.422   7.454 -0.0166 -0.7418 -0.1156
  614ACOH    C113809   5.439   3.617   7.318  0.4198  0.5853 -0.3973
  614ACOH    H113810   5.358   3.687   7.312  1.6377  3.3340  0.0528
  614ACOH    H213811   5.448   3.547   7.237  1.5910 -0.0665 -3.4229
  614ACOH    H313812   5.536   3.668   7.315 -0.9487  2.7952 -1.0107
  615ACOH    H413813   6.771   7.637   8.826 -0.4696  0.3774  0.9068
  615ACOH    O213814   6.686   7.658   8.875 -0.5766 -0.2423  0.4650
  615ACOH    C213815   6.580   7.598   8.810  0.3595 -0.7535 -0.3390
  615ACOH    O113816   6.579   7.501   8.732 -0.5167 -0.0251 -0.5152
  615ACOH    C113817   6.454   7.664   8.836 -0.0850 -0.1729 -0.3288
  615ACOH    H113818   6.408   7.637   8.935  0.6128 -0.7598  2.3012
  615ACOH    H213819   6.381   7.641   8.760  2.4587 -0.0106  0.1923
  615ACOH    H313820   6.463   7.770   8.836 -2.9270 -1.3146 -1.1352
  616ACOH    H413821   8.826   7.973   8.989 -4.8350 -2.2010 -0.8618
  616ACOH    O213822   8.770   7.897   8.966  0.1911 -0.1899  0.3686
  616ACOH    C213823   8.660   7.928   9.035 -0.1579  1.1692  0.1804
  616ACOH    O113824   8.616   8.040   9.035  0.3280  0.1374  0.7109
  616ACOH    C113825   8.580   7.814   9.057 -0.0442  0.7194  0.2753
  616ACOH    H113826   8.487   7.836   9.118 -0.0385  0.9006  2.4686
  616ACOH    H213827   8.644   7.747   9.111 -1.8076 -0.4536 -0.7103
  616ACOH    H313828   8.554   7.771   8.964 -0.1554 -0.4770  3.0397
  617ACOH    H413829   6.961   1.561   2.843 -0.1059 -0.6820  0.9513
  617ACOH    O213830   6.970   1.660   2.852  0.2079 -0.2015  0.9961
  617ACOH    C213831   7.091   1.687   2.899  0.0001  0.1608  0.6175
  617ACOH    O113832   7.149   1.610   2.969 -0.4012  0.4773  0.0094
  617ACOH    C113833   7.099   1.834   2.917 -0.2566  0.5465 -0.1913
  617ACOH    H113834   7.201   1.860   2.932 -1.2599  0.7165 -1.4225
  617ACOH    H213835   7.032   1.848   3.005 -3.3309  0.4122 -0.2396
  617ACOH    H313836   7.052   1.888   2.840  2.2892 -1.2127  1.6675
  618ACOH    H413837   1.154   0.960   7.617 -1.4735  0.8852 -2.3842
  618ACOH    O213838   1.253   0.975   7.605 -0.6058  0.1146 -0.1517
  618ACOH    C213839   1.290   0.876   7.526  0.5095  0.6363  0.2947
  618ACOH    O113840   1.225   0.801   7.458  0.0827 -0.2070  1.2566
  618ACOH    C113841   1.437   0.874   7.513  0.6030 -0.0292 -0.1896
  618ACOH    H113842   1.475   0.779   7.500 -0.9534  1.5812 -0.3832
  618ACOH    H213843   1.480   0.932   7.595  1.5520  2.0210 -0.9290
  618ACOH    H313844   1.458   0.931   7.428  1.9723  0.3127  2.4553
  619ACOH    H413845   2.092   4.155   7.989  0.7476 -1.2362  0.6225
  619ACOH    O213846   2.151   4.235   7.979  0.7383  0.5020  0.0326
  619ACOH    C213847   2.135   4.276   7.854  0.0436 -0.4199 -0.4373
  619ACOH    O113848   2.058   4.243   7.766  0.3990 -0.2631 -0.4168
  619ACOH    C113849   2.242   4.364   7.822 -0.2078  0.2529 -0.1998
  619ACOH    H113850   2.335   4.302   7.817  1.0996  1.7102 -2.3624
  619ACOH    H213851   2.244   4.439   7.902 -2.4102  1.7342  0.2594
  619ACOH    H313852   2.231   4.421   7.726  2.7376 -0.1721 -1.5063
  620ACOH    H413853   7.861   6.907   0.472 -1.3934 -1.2967  1.4814
  620ACOH    O213854   7.842   6.996   0.520  0.1552  0.0949  0.0132
  620ACOH    C213855   7.870   7.101   0.441 -0.6063 -0.1660 -0.0354
  620ACOH    O113856   7.945   7.091   0.343 -0.1061  0.3223  0.0574
  620ACOH    C113857   7.845   7.229   0.510 -0.1327  0.3698  0.4099
  620ACOH    H113858   7.790   7.291   0.443 -1.2180  0.1410 -0.5767
  620ACOH    H213859   7.930   7.282   0.530 -1.9258 -0.7656 -1.2238
  620ACOH    H313860   7.784   7.220   0.597 -2.5448 -0.3427  0.9259
  621ACOH    H413861   0.729   7.533   1.783 -1.3140 -0.0797  1.8754
  621ACOH    O213862   0.789   7.573   1.851 -0.5651 -0.3751  0.0689
  621ACOH    C213863   0.914   7.587   1.798 -0.6852  0.4473  0.6939
  621ACOH    O113864   0.939   7.601   1.681  0.0293 -0.2807 -0.3570
  621ACOH    C113865   1.012   7.619   1.907  0.0922 -0.6960 -0.3089
  621ACOH    H113866   1.032   7.727   1.896  0.2340  0.9545  0.5027
  621ACOH    H213867   1.108   7.577   1.892 -0.6085  0.7477  0.1387
  621ACOH    H313868   0.972   7.612   2.004 -1.8576 -1.1326 -1.9644
  622ACOH    H413869   7.187   8.389   9.658 -0.2791 -1.0424 -1.3805
  622ACOH    O213870   7.121   8.467   9.663  0.1516  0.2272 -0.0102
  622ACOH    C213871   7.053   8.480   9.552 -0.1639  0.2165 -0.9494
  622ACOH    O113872   7.094   8.452   9.440  0.3396 -0.3750 -0.0558
  622ACOH    C113873   6.935   8.566   9.573  0.1976 -0.2492 -0.6050
  622ACOH    H113874   6.868   8.541   9.494 -2.9491 -1.1086  1.1244
  622ACOH    H213875   6.965   8.670   9.569 -0.4335  2.1307 -0.5154
  622ACOH    H313876   6.874   8.551   9.666  0.5734  0.5775  0.8269
  623ACOH    H413877   5.421   6.823   0.525  0.2998 -0.1475  1.4305
  623ACOH    O213878   5.349   6.889   0.515  0.8335  0.2040  0.1985
  623ACOH    C213879   5.240   6.839   0.457 -0.2215  0.1250  0.1096
  623ACOH    O113880   5.248   6.746   0.381  0.4843  0.1539 -0.0523
  623ACOH    C113881   5.137   6.940   0.448 -0.3598  0.0187 -0.8657
  623ACOH    H113882   5.179   7.039   0.414 -1.6866 -1.5414 -0.4077
  623ACOH    H213883   5.097   6.948   0.553  3.3295 -0.3456 -0.1876
  623ACOH    H313884   5.057   6.909   0.382  2.6384  1.0481 -1.4969
  624ACOH    H413885   8.423   7.024   8.032  0.0648 -0.8597 -0.6657
  624ACOH    O213886   8.422   7.117   8.057  0.5769  0.4379  0.0981
  624ACOH    C213887   8.543   7.170   8.047 -0.2390 -0.1350  0.2510
  624ACOH    O113888   8.642   7.106   8.006  0.4803  0.1643 -0.0480
  624ACOH    C113889   8.546   7.313   8.082 -0.5511 -0.4941 -0.3946
  624ACOH    H113890   8.648   7.349   8.079 -2.1452 -0.8293  1.6455
  624ACOH    H213891   8.508   7.324   8.185 -0.4334  2.3332  0.2427
  624ACOH    H313892   8.490   7.373   8.020  0.4421 -1.0062  4.2262
  625ACOH    H413893   7.054   6.103   5.436  0.3054  0.0106  3.1097
  625ACOH    O213894   7.020   6.021   5.483  0.2557  0.3164 -0.4720
  625ACOH    C213895   6.896   6.054   5.527 -0.3937  0.3708  0.2407
  625ACOH    O113896   6.850   6.170   5.542 -0.9158  0.1648  0.1087
  625ACOH    C113897   6.826   5.940   5.592  0.0742 -0.1998 -0.7948
  625ACOH    H113898   6.904   5.897   5.658  2.0043  1.1028 -1.4788
  625ACOH    H213899   6.794   5.874   5.510 -2.6017 -0.9025  1.5714
  625ACOH    H313900   6.744   5.975   5.656 -1.5983  2.2222  2.8047
  626ACOH    H413901   5.289   7.690   1.471  1.1749 -2.5391 -1.9475
  626ACOH    O213902   5.229   7.771   1.483  0.4704  0.0373  0.2287
  626ACOH    C213903   5.164   7.777   1.365 -0.2646 -0.0636 -0.3894
  626ACOH    O113904   5.169   7.726   1.259 -0.1423 -0.3504  0.3616
  626ACOH    C113905   5.060   7.886   1.377  0.2019 -0.0802  0.0206
  626ACOH    H113906   4.991   7.893   1.292 -2.1702  1.5271  0.5466
  626ACOH    H213907   5.113   7.981   1.383 -0.5887  1.3495  0.1797
  626ACOH    H313908   5.011   7.877   1.465  0.9476 -0.5728  0.4112
  627ACOH    H413909   6.124   9.771   2.063  0.9776  0.8673  0.4188
  627ACOH    O213910   6.214   9.733   2.041 -0.1034 -0.8616 -0.6339
  627ACOH    C213911   6.270   9.792   1.932  0.0135 -0.1186 -0.2493
  627ACOH    O113912   6.229   9.891   1.876 -0.9043 -0.1775 -0.2079
  627ACOH    C113913   6.400   9.727   1.887  0.5620  0.3597  0.6500
  627ACOH    H113914   6.428   9.733   1.775  0.6095 -3.2995 -0.1272
  627ACOH    H213915   6.377   9.622   1.902 -0.8508  0.1991 -2.3762
  627ACOH    H313916   6.476   9.766   1.951 -1.6541  0.9335 -0.1260
  628ACOH    H413917   6.902   4.397   7.616  2.4757  0.3288 -1.2603
  628ACOH    O213918   6.872   4.461   7.545  0.2262 -0.2225  0.5009
  628ACOH    C213919   6.979   4.480   7.472 -0.4504  0.1685  0.1236
  628ACOH    O113920   7.088   4.441   7.509  0.1294  0.3617 -0.3516
  628ACOH    C113921   6.953   4.585   7.371  0.1549 -0.4147  0.0528
  628ACOH    H113922   7.022   4.668   7.385  3.9565 -0.6026  1.1414
  628ACOH    H213923   6.845   4.617   7.371  0.5998 -1.6495  0.2380
  628ACOH    H313924   6.962   4.537   7.270  0.3263  0.3116 -0.6095
  629ACOH    H413925   7.605   7.891   3.534 -0.5184  1.7495 -3.0576
  629ACOH    O213926   7.595   7.963   3.468 -0.0289  0.3427  0.1842
  629ACOH    C213927   7.634   7.915   3.353 -0.8230  0.3629 -0.9675
  629ACOH    O113928   7.665   7.795   3.325 -0.1057 -0.2354  0.1290
  629ACOH    C113929   7.686   8.027   3.273 -1.0840  0.1426  0.1175
  629ACOH    H113930   7.607   8.101   3.260  1.0514  1.3672  1.3821
  629ACOH    H213931   7.713   8.004   3.172 -0.7975 -2.1979  1.1843
  629ACOH    H313932   7.773   8.078   3.311  0.3093  1.0119  0.7043
  630ACOH    H413933   3.513   1.661   3.714 -1.5869 -0.6990 -0.8125
  630ACOH    O213934   3.583   1.595   3.717 -0.6799 -0.2118  0.1533
  630ACOH    C213935   3.528   1.476   3.673  0.4240  0.0519 -0.3997
  630ACOH    O113936   3.419   1.466   3.631 -0.1241 -0.1912  0.4153
  630ACOH    C113937   3.617   1.359   3.682  0.4857 -0.1010 -0.1947
  630ACOH    H113938   3.706   1.391   3.724 -1.3920  1.7639  0.7257
  630ACOH    H213939   3.633   1.327   3.580  0.6248 -0.1641  0.8807
  630ACOH    H313940   3.572   1.283   3.744 -0.5884  0.1386  0.0990
  631ACOH    H413941   7.659   8.277   0.947 -2.1476  0.6423  2.9097
  631ACOH    O213942   7.579   8.238   0.909  0.2075  0.0357  0.2572
  631ACOH    C213943   7.590   8.108   0.931 -0.6608  0.2039 -0.3340
  631ACOH    O113944   7.687   8.046   0.983  0.4384 -0.2376  0.0094
  631ACOH    C113945   7.473   8.022   0.903 -0.3671  0.4662 -0.5352
  631ACOH    H113946   7.497   7.919   0.928 -0.1889 -0.4929  0.3771
  631ACOH    H213947   7.451   8.024   0.793 -2.2676  0.1462 -2.2338
  631ACOH    H313948   7.388   8.056   0.962 -0.8147 -0.3337 -2.1645
  632ACOH    H413949   8.189   1.761   1.860 -2.0940 -4.7494 -0.6202
  632ACOH    O213950   8.173   1.671   1.900  0.2183 -0.2211 -0.2097
  632ACOH    C213951   8.210   1.668   2.027  0.0583  0.1315  0.4391
  632ACOH    O113952   8.257   1.759   2.091 -0.0251 -0.4963 -0.0422
  632ACOH    C113953   8.189   1.536   2.080 -0.2126  0.4844  0.3107
  632ACOH    H113954   8.237   1.467   2.003 -0.4862 -1.3895 -0.2926
  632ACOH    H213955   8.080   1.518   2.082 -0.4164 -0.0113  1.3169
  632ACOH    H313956   8.229   1.525   2.182  1.9826  1.9810  1.7445
  633SOL     OW13957   1.265   6.703   7.432  0.4427 -0.5056 -0.7464
  633SOL    HW113958   1.332   6.650   7.379  1.7150  0.2563  0.0850
  633SOL    HW213959   1.236   6.651   7.512  1.4167 -0.1092 -0.1283
  634SOL     OW13960   3.097   7.829   6.381 -0.6686  0.4644  0.6238
  634SOL    HW113961   3.056   7.913   6.344 -0.7369  0.0283 -0.3172
  634SOL    HW213962   3.136   7.848   6.471  0.0400  1.7209  0.0735
  635SOL     OW13963   0.914   2.901   4.968 -0.4786  0.2984  0.4196
  635SOL    HW113964   1.010   2.894   4.940 -0.4560 -0.0870  0.5839
  635SOL    HW213965   0.855   2.899   4.888 -0.4945 -2.2618  0.4642
  636SOL     OW13966   1.939   8.304   1.498  0.0562  0.0630  0.3241
  636SOL    HW113967   1.996   8.332   1.575 -0.3254 -0.6161  0.8671
  636SOL    HW213968   1.886   8.383   1.465 -0.9476  0.0240  1.7834
  637SOL     OW13969   3.352   4.196   1.282 -0.1205 -0.1507 -0.2361
  637SOL    HW113970   3.263   4.165   1.250 -0.7977  0.2497  1.2485
  637SOL    HW213971   3.416   4.199   1.204 -0.3764 -3.9510 -0.6914
  638SOL     OW13972   8.314   8.469   2.465 -0.3541  0.6511  0.2592
  638SOL    HW113973   8.234   8.411   2.478 -0.2647 -0.0288 -2.0106
  638SOL    HW213974   8.290   8.548   2.409  0.6271  0.2499 -0.7579
  639SOL     OW13975   4.117   6.412   8.952 -0.1597  0.0804  0.3724
  639SOL    HW113976   4.148   6.346   8.883  0.3004  0.0143  0.6415
  639SOL    HW213977   4.178   6.409   9.031 -0.7034  0.1397  0.7975
  640SOL     OW13978   3.054   4.092   8.890 -0.1569  0.1561  0.7935
  640SOL    HW113979   2.977   4.126   8.943 -1.3584 -0.3548 -0.5964
  640SOL    HW213980   3.139   4.133   8.924 -1.3400  3.1120  0.3654
  641SOL     OW13981   2.400   8.194   6.744  0.0727 -0.1593 -0.4965
  641SOL    HW113982   2.302   8.213   6.747  0.8400  4.0533  2.3569
  641SOL    HW213983   2.435   8.214   6.652 -1.4568 -0.3705 -1.1436
  642SOL     OW13984   3.444   7.013   7.450  0.2976  0.3404  0.8170
  642SOL    HW113985   3.405   6.980   7.535 -2.2855  0.2689 -0.3465
  642SOL    HW213986   3.372   7.050   7.392  2.0277  0.5756 -1.2636
  643SOL     OW13987   9.944   3.791   9.644  0.3142  0.3902  0.3895
  643SOL    HW113988  10.008   3.864   9.618 -0.1558  0.6290 -0.1032
  643SOL    HW213989   9.854   3.830   9.662  0.2434  0.0215  0.8583
  644SOL     OW13990   8.417   0.980   9.301  0.0743 -0.3490  0.1282
  644SOL    HW113991   8.369   0.894   9.284  0.7136 -0.6952  0.0380
  644SOL    HW213992   8.485   0.995   9.229  0.8519 -0.4065  0.8420
  645SOL     OW13993   1.073   8.653   4.675  0.1418 -0.4671  0.3021
  645SOL    HW113994   1.076   8.707   4.759 -0.3687  1.2094 -0.7389
  645SOL    HW213995   1.161   8.659   4.628 -0.2262  0.2499 -0.2998
  646SOL     OW13996   5.253   8.160   7.429  0.3486  0.2567  0.2949
  646SOL    HW113997   5.247   8.067   7.394  1.3451  0.2962  0.0043
  646SOL    HW213998   5.168   8.209   7.408 -0.7537 -0.9946  1.6811
  647SOL     OW13999   0.391   6.646   8.700 -0.0786 -0.1434  0.3755
  647SOL    HW114000   0.389   6.546   8.694 -1.6742 -0.0681 -0.6694
  647SOL    HW214001   0.454   6.673   8.772  1.0118 -1.8761  0.1208
  648SOL     OW14002   1.002   1.499   8.388  0.8904  0.1105  0.6851
  648SOL    HW114003   1.090   1.497   8.436  0.3147 -0.1619  1.7324
  648SOL    HW214004   0.951   1.416   8.408  0.5008  0.1424 -0.1475
  649SOL     OW14005   2.826   3.584   7.680 -0.1281 -0.0400  0.0447
  649SOL    HW114006   2.734   3.602   7.715  0.2714 -0.1095  1.1626
  649SOL    HW214007   2.820   3.540   7.591 -1.1808 -0.0768  0.1289
  650SOL     OW14008   5.451   3.946   0.718 -0.0195 -0.5344  0.3181
  650SOL    HW114009   5.534   3.932   0.664 -1.5688 -2.1983 -1.7129
  650SOL    HW214010   5.475   3.956   0.814  2.4792 -1.4369 -0.1832
  651SOL     OW14011   6.637   0.661   0.667  0.4406  0.4120  0.2971
  651SOL    HW114012   6.601   0.568   0.671 -0.7079  0.8007 -0.7896
  651SOL    HW214013   6.715   0.669   0.729  1.9973 -1.9107 -1.2805
  652SOL     OW14014   0.447   5.107   4.660  0.1472  0.2017  0.0477
  652SOL    HW114015   0.459   5.031   4.723 -0.1376  1.3738  1.5583
  652SOL    HW214016   0.532   5.160   4.655 -0.0557  0.5291  0.0228
  653SOL     OW14017   6.202   9.034   5.888 -0.0782 -0.0060  0.4520
  653SOL    HW114018   6.106   9.019   5.911 -0.2985  1.0712  0.2535
  653SOL    HW214019   6.260   8.990   5.956 -0.6999  3.1879  3.1616
  654SOL     OW14020   9.095   4.775   3.875  0.1038 -0.1362 -0.7677
  654SOL    HW114021   9.125   4.733   3.961 -0.5388  2.7682  0.9113
  654SOL    HW214022   9.165   4.838   3.842 -0.8650  0.9237 -0.8383
  655SOL     OW14023   4.363   0.855   6.493  0.2566 -0.4701  0.7739
  655SOL    HW114024   4.438   0.900   6.444 -1.5088  1.1993 -0.4290
  655SOL    HW214025   4.399   0.776   6.543  2.0782 -2.3258 -3.2861
  656SOL     OW14026   1.118   8.136   8.111 -0.3653  0.1432  0.6189
  656SOL    HW114027   1.185   8.085   8.166 -1.7093  0.3623  2.5011
  656SOL    HW214028   1.067   8.072   8.054  1.3023 -0.0452 -0.7119
  657SOL     OW14029   9.378   1.611   5.987  0.1228 -0.3421 -0.1435
  657SOL    HW114030   9.397   1.637   6.081  0.1795 -1.2644  0.1027
  657SOL    HW214031   9.330   1.524   5.985  0.4743 -0.5256 -0.9813
  658SOL     OW14032   2.811   8.874   2.686 -0.0713  0.0152  0.1992
  658SOL    HW114033   2.870   8.844   2.761  0.3028  1.0490  0.3286
  658SOL    HW214034   2.763   8.795   2.648  0.3016 -0.6269  1.0357
  659SOL     OW14035   3.863   2.500   3.472 -0.0157 -0.2925  0.4300
  659SOL    HW114036   3.871   2.537   3.380 -1.9988  0.4737  0.5318
  659SOL    HW214037   3.798   2.423   3.471 -0.9888  0.4993  1.3852
  660SOL     OW14038   3.445   1.029   7.449  0.2310  0.1021  0.1630
  660SOL    HW114039   3.455   0.953   7.385 -0.1204  1.8902 -2.1061
  660SOL    HW214040   3.439   0.994   7.542  0.5999 -2.5941 -0.7808
  661SOL     OW14041   8.633   4.552   9.488 -0.0023 -0.4824  0.0305
  661SOL    HW114042   8.535   4.535   9.499 -0.4093  2.7254  2.1614
  661SOL    HW214043   8.648   4.606   9.405  0.1817 -2.4209 -1.2208
  662SOL     OW14044   8.683   6.596   7.334 -0.4548 -0.1712  0.3643
  662SOL    HW114045   8.682   6.580   7.433 -0.3442  0.1353  0.4143
  662SOL    HW214046   8.718   6.687   7.315  0.8533 -0.7373 -0.0218
  663SOL     OW14047   7.521   1.339   5.669  0.5134 -0.0155 -0.0355
  663SOL    HW114048   7.531   1.328   5.570  1.3864 -2.3418  0.2842
  663SOL    HW214049   7.600   1.388   5.705 -0.2298  1.6287 -0.5877
  664SOL     OW14050   2.794   0.322   9.885 -0.3378 -0.2288  0.2671
  664SOL    HW114051   2.809   0.341   9.982  0.5812 -1.2585  0.3392
  664SOL    HW214052   2.879   0.289   9.844 -0.7551  0.0717 -0.8636
  665SOL     OW14053   1.060   1.828   8.341 -0.6566 -0.0636 -0.1696
  665SOL    HW114054   1.136   1.795   8.285 -0.9833 -0.6082 -0.3004
  665SOL    HW214055   1.071   1.796   8.434  0.3141  1.5151  0.2917
  666SOL     OW14056   3.759   5.154   7.189 -0.5020 -0.8875  0.0984
  666SOL    HW114057   3.750   5.063   7.228 -1.5670 -1.1108 -0.6414
  666SOL    HW214058   3.686   5.169   7.123 -0.0389  0.3182 -0.1523
  667SOL     OW14059   5.376   9.172   3.863 -0.0743 -0.2557 -0.6782
  667SOL    HW114060   5.410   9.119   3.786  0.8743 -0.4633 -0.1330
  667SOL    HW214061   5.427   9.147   3.945 -0.4269  0.6475 -0.1778
  668SOL     OW14062   2.623   9.566   5.184  0.0655  0.4356 -0.3488
  668SOL    HW114063   2.723   9.566   5.188  0.0353  0.8528  0.5587
  668SOL    HW214064   2.586   9.516   5.262 -0.4292 -0.0641 -0.8985
  669SOL     OW14065   7.282   4.743   1.605  0.4589  0.1344 -0.0434
  669SOL    HW114066   7.246   4.825   1.648  2.0056  0.3168  0.9479
  669SOL    HW214067   7.216   4.709   1.537 -0.6356  1.5936  0.2617
  670SOL     OW14068   8.774   9.249   7.934 -0.2146 -0.7150  0.2818
  670SOL    HW114069   8.713   9.172   7.915 -0.7205  0.0232 -1.1573
  670SOL    HW214070   8.724   9.335   7.920  0.9872 -0.1141 -0.3240
  671SOL     OW14071   4.328   4.718   4.918 -0.2893 -0.5426  0.0306
  671SOL    HW114072   4.362   4.744   5.008  0.4168  1.0267 -0.6773
  671SOL    HW214073   4.229   4.710   4.920 -0.2454 -0.8417  1.0204
  672SOL     OW14074   1.957   8.169   0.461 -0.5416 -0.2088  0.1452
  672SOL    HW114075   2.012   8.198   0.382  0.2113 -2.2021 -0.0780
  672SOL    HW214076   2.018   8.149   0.538 -0.9779 -2.0783  0.0171
  673SOL     OW14077   0.055   2.822   4.979  0.7335  0.3004 -0.3751
  673SOL    HW114078   0.118   2.856   4.909 -0.6193  1.3379 -1.1257
  673SOL    HW214079   0.023   2.731   4.954 -0.6371  1.1288 -1.7365
  674SOL     OW14080   2.850   6.525   8.691 -0.0528 -0.0274  0.0307
  674SOL    HW114081   2.835   6.615   8.732  1.2013  0.3680 -0.3577
  674SOL    HW214082   2.770   6.500   8.636 -1.4392 -0.2329  2.0833
  675SOL     OW14083   6.305   5.848   9.832 -0.5259  0.8976 -0.2755
  675SOL    HW114084   6.284   5.857   9.735 -0.3468  1.1197 -0.2949
  675SOL    HW214085   6.222   5.825   9.882 -0.7629  1.5023 -0.3837
  676SOL     OW14086   7.617   7.109   2.830  0.0099 -0.3733  0.5068
  676SOL    HW114087   7.517   7.113   2.820 -0.0087  0.6155  1.0477
  676SOL    HW214088   7.659   7.159   2.754  0.1363 -1.8063 -0.3900
  677SOL     OW14089   8.713   5.335   8.094  0.2236  0.6535  0.3640
  677SOL    HW114090   8.750   5.398   8.162  1.2422 -1.8568  2.2369
  677SOL    HW214091   8.787   5.299   8.039 -0.4809  1.8620 -1.4085
  678SOL     OW14092   9.623   3.554   7.018 -0.1373  0.2410  0.2221
  678SOL    HW114093   9.631   3.548   7.118  0.7556 -0.1633  0.1269
  678SOL    HW214094   9.618   3.650   6.991 -1.2307  0.3387  0.7144
  679SOL     OW14095   6.783   3.064   9.747 -0.5153 -0.1795  0.2063
  679SOL    HW114096   6.774   3.139   9.812  1.7680  0.4153 -0.1245
  679SOL    HW214097   6.731   2.985   9.779 -2.5301  1.3717  0.8074
  680SOL     OW14098   8.713   2.279   3.281  0.3303 -0.3625  0.2017
  680SOL    HW114099   8.777   2.203   3.271  0.2625 -0.3134 -0.6097
  680SOL    HW214100   8.639   2.253   3.343  0.8764 -0.5825  0.7750
  681SOL     OW14101   1.246   4.709   3.127  0.7453  0.4008  0.0763
  681SOL    HW114102   1.260   4.782   3.194 -1.0771  0.2341  0.6480
  681SOL    HW214103   1.148   4.697   3.110  1.0693 -1.3711 -0.6312
  682SOL     OW14104   8.168   7.714   6.005  0.2704  0.1313  0.2830
  682SOL    HW114105   8.150   7.644   6.075 -0.3546 -0.7362 -0.7299
  682SOL    HW214106   8.267   7.730   5.999  0.3133  0.3982  1.5378
  683SOL     OW14107   3.622   6.218   0.281  0.6181  0.2219  0.0111
  683SOL    HW114108   3.679   6.300   0.272 -1.6677  1.7907 -0.6116
  683SOL    HW214109   3.625   6.185   0.376  1.2366  1.2639  0.3597
  684SOL     OW14110   4.867   9.606   5.448 -0.1642 -0.0534 -0.1617
  684SOL    HW114111   4.790   9.595   5.510  0.4787  1.0216  0.8581
  684SOL    HW214112   4.881   9.522   5.396 -0.8357 -0.8954  1.0076
  685SOL     OW14113   1.900   6.730   8.956  0.5394 -0.2412  0.2419
  685SOL    HW114114   1.826   6.792   8.981 -0.5797 -1.4531 -0.0172
  685SOL    HW214115   1.986   6.765   8.993 -0.2481  0.8564  1.0811
  686SOL     OW14116   3.939   1.711   5.868 -0.1154  0.2585  0.0898
  686SOL    HW114117   4.008   1.638   5.866  0.5516  0.9193 -1.5198
  686SOL    HW214118   3.931   1.746   5.961 -0.6587 -2.0759  0.9564
  687SOL     OW14119   7.387   3.919   1.548  0.1986 -0.4570 -0.1174
  687SOL    HW114120   7.395   3.945   1.452  1.1870  0.8529  0.3024
  687SOL    HW214121   7.296   3.882   1.566 -0.2172 -0.0685 -1.4014
  688SOL     OW14122   8.556   6.693   6.638  0.4340  0.0432  0.0569
  688SOL    HW114123   8.612   6.647   6.708  0.4525 -1.1060 -0.6989
  688SOL    HW214124   8.469   6.645   6.629 -0.2549  1.1933  0.4640
  689SOL     OW14125   8.784   0.687   0.517  0.2079  0.2645 -0.1830
  689SOL    HW114126   8.778   0.645   0.426  0.3686 -1.5820  0.6328
  689SOL    HW214127   8.752   0.622   0.586  1.7750  0.9912  1.2647
  690SOL     OW14128   4.025   2.600   8.029  0.1565  0.1602  0.4296
  690SOL    HW114129   3.962   2.629   8.101  0.2538 -0.0415  0.5957
  690SOL    HW214130   4.114   2.581   8.070  0.3227  0.4387  0.1962
  691SOL     OW14131   2.889   8.786   8.539 -0.2201  0.1157  0.7807
  691SOL    HW114132   2.902   8.724   8.462  0.2503  0.9742  0.1579
  691SOL    HW214133   2.834   8.865   8.510  1.2849  1.2247  0.8940
  692SOL     OW14134   7.264   7.674   5.950  0.5679  0.2123 -0.3256
  692SOL    HW114135   7.249   7.739   5.875 -0.8421  0.6944  0.3504
  692SOL    HW214136   7.361   7.650   5.954  0.8614  1.1098 -1.5390
  693SOL     OW14137   5.343   1.649   0.168  0.2962  0.1906  0.3228
  693SOL    HW114138   5.360   1.634   0.266 -1.7200 -0.3550  0.6063
  693SOL    HW214139   5.245   1.653   0.151  0.5968 -0.7374 -1.8387
  694SOL     OW14140   2.965   1.621   0.672  0.0390  0.5450 -0.3657
  694SOL    HW114141   2.928   1.651   0.584 -1.5419 -1.3967 -0.3949
  694SOL    HW214142   2.935   1.528   0.691  2.8302 -0.1718  0.8571
  695SOL     OW14143   6.448   1.888   9.736  0.1136 -0.5735 -0.0659
  695SOL    HW114144   6.406   1.816   9.791  1.9065 -1.7206 -0.1743
  695SOL    HW214145   6.508   1.847   9.667  2.5006  1.0907  0.9850
  696SOL     OW14146   0.589   1.656   4.390  0.2992  0.0236 -0.5718
  696SOL    HW114147   0.583   1.560   4.419 -1.0409  0.7082  1.5633
  696SOL    HW214148   0.578   1.661   4.291 -1.5918 -1.8794 -0.5115
  697SOL     OW14149   6.990   4.617   8.989  0.4928  0.0444  0.2249
  697SOL    HW114150   7.075   4.643   8.944 -0.7314  2.0677 -1.0534
  697SOL    HW214151   6.985   4.661   9.079 -0.1584  1.7957 -0.6327
  698SOL     OW14152   8.685   9.679   1.085  0.4453  0.3481 -0.2215
  698SOL    HW114153   8.684   9.587   1.046 -2.8436 -0.4640  1.5691
  698SOL    HW214154   8.630   9.741   1.028 -0.9027  0.1535  0.8471
  699SOL     OW14155   3.942   3.695   4.430  0.1330  0.0429 -0.2953
  699SOL    HW114156   3.999   3.614   4.437 -1.8510 -1.4075 -0.6101
  699SOL    HW214157   3.907   3.704   4.336  0.1216  1.1076 -0.2009
  700SOL     OW14158   8.282   1.613   3.697  0.0847  0.1225 -0.2591
  700SOL    HW114159   8.237   1.566   3.773 -0.1913 -0.3342 -0.7008
  700SOL    HW214160   8.241   1.583   3.611 -0.8503  1.9573 -0.4958
  701SOL     OW14161   8.935   2.776   5.242 -0.6247 -0.2720  0.5343
  701SOL    HW114162   8.888   2.826   5.169  1.5361 -0.5769 -1.1037
  701SOL    HW214163   8.885   2.691   5.261 -1.2315 -0.1739 -0.5583
  702SOL     OW14164   3.100   1.389   5.234 -0.5666 -0.2597 -0.0085
  702SOL    HW114165   3.069   1.354   5.146  0.5250 -1.2540  0.0052
  702SOL    HW214166   3.183   1.341   5.263 -1.8786 -1.1666  2.3851
  703SOL     OW14167   5.071   1.495   1.266  0.2102 -0.4537 -0.2023
  703SOL    HW114168   5.053   1.574   1.207 -1.7863 -1.2574 -0.7058
  703SOL    HW214169   5.006   1.494   1.341  0.5461 -1.3493  0.0778
  704SOL     OW14170   9.787   3.537   5.083 -0.6369  0.3658  0.2898
  704SOL    HW114171   9.808   3.634   5.082 -3.7474  1.0842 -0.1736
  704SOL    HW214172   9.735   3.513   5.001 -0.7256 -1.5065  0.8602
  705SOL     OW14173   1.478   4.218   5.030 -0.0551 -0.0532  0.6079
  705SOL    HW114174   1.474   4.318   5.021  0.7320  0.0276  1.1355
  705SOL    HW214175   1.418   4.189   5.104 -0.7699 -0.0297  0.0402
  706SOL     OW14176   2.886   3.233   6.201 -0.1970 -0.1492 -0.1947
  706SOL    HW114177   2.975   3.268   6.169  0.0737 -0.5017  0.1716
  706SOL    HW214178   2.894   3.135   6.221  0.1376  0.4507  2.7610
  707SOL     OW14179   1.882   2.900   1.463  0.0758 -0.0822 -0.2290
  707SOL    HW114180   1.861   2.803   1.477 -0.6704 -0.0743 -1.2117
  707SOL    HW214181   1.970   2.909   1.416  1.1358 -0.2019  1.6809
  708SOL     OW14182   6.530   9.807   4.793 -0.1640 -0.0220  0.0469
  708SOL    HW114183   6.481   9.766   4.717 -0.7210 -0.7126  0.7649
  708SOL    HW214184   6.474   9.879   4.834  0.7072  1.2981 -1.0513
  709SOL     OW14185   4.696   1.396   3.944 -0.6362  0.5679 -0.2962
  709SOL    HW114186   4.684   1.493   3.926 -1.9470  0.3865 -0.5158
  709SOL    HW214187   4.675   1.376   4.040  0.2008  0.5884 -0.1076
  710SOL     OW14188   9.085   6.825   7.114 -0.3732 -0.5053 -0.6637
  710SOL    HW114189   8.990   6.842   7.085 -0.4385  0.9992  0.3661
  710SOL    HW214190   9.127   6.759   7.052 -1.9266 -0.7682 -1.4711
  711SOL     OW14191   4.118   4.583   3.971 -0.4040 -0.1116 -0.3734
  711SOL    HW114192   4.181   4.514   3.936  0.8827  1.1003 -0.5222
  711SOL    HW214193   4.118   4.582   4.071  1.5584  1.3368 -0.3241
  712SOL     OW14194   1.597   4.883   7.533  0.1870  0.1883 -0.5520
  712SOL    HW114195   1.505   4.872   7.570  0.4936  0.1177  0.1837
  712SOL    HW214196   1.656   4.927   7.601  1.2824 -1.7639 -0.2086
  713SOL     OW14197   3.115   9.574   6.496 -0.4616  0.3886 -0.3035
  713SOL    HW114198   3.117   9.636   6.417  1.5285  0.3334 -0.3310
  713SOL    HW214199   3.172   9.494   6.477  0.0135  0.3548  1.1755
  714SOL     OW14200   9.926   5.807   4.118  0.2393 -0.0924 -0.3653
  714SOL    HW114201   9.830   5.782   4.103  0.0339 -0.6475  1.6718
  714SOL    HW214202   9.965   5.842   4.034 -1.8153  0.3188 -1.1743
  715SOL     OW14203   4.638   4.191   9.068  0.0619  0.1553 -0.2250
  715SOL    HW114204   4.635   4.271   9.128 -2.0610  0.8760 -1.2693
  715SOL    HW214205   4.656   4.109   9.123 -0.6548  0.9593  1.2233
  716SOL     OW14206   4.599   8.902   4.787  0.2262 -0.1094 -0.7353
  716SOL    HW114207   4.682   8.948   4.818  0.9304 -1.6026 -0.3377
  716SOL    HW214208   4.616   8.858   4.699  0.6968 -2.6201  0.5555
  717SOL     OW14209   3.530   1.195   8.788  0.0258  0.0712  0.3455
  717SOL    HW114210   3.547   1.115   8.731  1.3406 -0.4633  1.4460
  717SOL    HW214211   3.612   1.214   8.843 -1.1478  0.6604  1.9224
  718SOL     OW14212   4.693   5.285   9.217 -0.1288  0.4379  0.3908
  718SOL    HW114213   4.619   5.243   9.270 -0.9709  2.0559  0.5160
  718SOL    HW214214   4.757   5.331   9.279  0.7957 -0.6256  0.2518
  719SOL     OW14215   7.738   7.773   6.862  0.7649  0.3353 -0.3627
  719SOL    HW114216   7.770   7.724   6.781  0.8777 -1.7486  0.9195
  719SOL    HW214217   7.804   7.845   6.885  2.0780 -0.7820 -0.5687
  720SOL     OW14218   1.894   5.233   5.594  0.3326  0.7740  0.6128
  720SOL    HW114219   1.847   5.152   5.558  0.7389 -0.0155  1.8516
  720SOL    HW214220   1.975   5.251   5.538 -0.3296  0.9730 -0.3139
  721SOL     OW14221   0.380   3.113   7.607  0.3481 -0.1665  0.2871
  721SOL    HW114222   0.468   3.146   7.640 -0.1132  1.3059  0.0819
  721SOL    HW214223   0.353   3.032   7.659  0.3176  1.2583  2.5723
  722SOL     OW14224   7.455   4.751   9.562 -0.1498 -0.0069  0.0026
  722SOL    HW114225   7.356   4.749   9.552 -0.3176  1.9875  1.0595
  722SOL    HW214226   7.482   4.697   9.642 -0.6561  1.6665  1.3482
  723SOL     OW14227   0.381   3.083   2.173  0.0877 -0.4547 -0.2997
  723SOL    HW114228   0.381   3.167   2.228  0.6531  0.3440 -1.4953
  723SOL    HW214229   0.288   3.059   2.147 -0.2390 -1.1520  1.4666
  724SOL     OW14230   2.121   6.318   2.996  0.4920 -0.1834  0.2104
  724SOL    HW114231   2.087   6.227   3.019 -0.8472  0.1241 -0.5216
  724SOL    HW214232   2.149   6.321   2.900  1.7283 -0.1658  0.5559
  725SOL     OW14233   6.595   5.426   1.076  0.5467  0.0835 -0.3802
  725SOL    HW114234   6.632   5.518   1.062 -0.9331  0.7881  0.2611
  725SOL    HW214235   6.503   5.420   1.037  1.0372 -1.4619 -1.3851
  726SOL     OW14236   0.375   3.837   6.942 -0.0937 -0.0582 -0.2963
  726SOL    HW114237   0.296   3.890   6.974  0.7920  0.0608  1.8119
  726SOL    HW214238   0.404   3.775   7.014  1.8981  0.0946 -0.9465
  727SOL     OW14239   0.922   3.328   0.526 -0.4826 -0.1784  0.0839
  727SOL    HW114240   0.826   3.357   0.525 -1.1533 -2.3400 -1.1298
  727SOL    HW214241   0.933   3.253   0.592  0.3116 -0.1258  0.0128
  728SOL     OW14242   3.156   7.372   2.210  0.4952 -0.2680 -0.5064
  728SOL    HW114243   3.124   7.285   2.172  0.7531 -0.0644 -1.1940
  728SOL    HW214244   3.230   7.408   2.153  0.1606  0.5694 -0.4111
  729SOL     OW14245   1.534   9.737   9.149  0.4860  0.1001 -0.0366
  729SOL    HW114246   1.446   9.693   9.132  0.4732  0.4225 -0.8232
  729SOL    HW214247   1.520   9.821   9.202  0.3943 -0.2098  0.4353
  730SOL     OW14248   0.660   4.002   0.873 -0.2487  0.0746 -0.1742
  730SOL    HW114249   0.564   3.988   0.895  0.0129 -0.4442  0.6429
  730SOL    HW214250   0.673   3.989   0.774 -1.2267  1.3746 -0.4857
  731SOL     OW14251   2.593   6.126   6.430 -0.8052  0.2240  0.6421
  731SOL    HW114252   2.522   6.063   6.461 -1.0707  0.3742  0.3470
  731SOL    HW214253   2.634   6.172   6.508 -0.4577 -0.4821  0.8730
  732SOL     OW14254   0.037   1.611   2.495  0.2727  0.2332 -0.3761
  732SOL    HW114255   0.081   1.667   2.565  1.4996  0.1525 -1.0731
  732SOL    HW214256   0.076   1.519   2.496 -1.3717 -0.4783  0.4146
  733SOL     OW14257   3.616   6.972   3.216  0.0865 -0.3934 -0.2070
  733SOL    HW114258   3.674   7.043   3.175 -4.2649  1.8957 -2.7431
  733SOL    HW214259   3.582   6.912   3.144 -1.4299 -1.1018  1.0756
  734SOL     OW14260   9.078   0.295   1.593 -0.6763  0.1117  0.4829
  734SOL    HW114261   9.065   0.335   1.502  1.5640 -0.2216 -0.0141
  734SOL    HW214262   9.053   0.198   1.590 -0.9566  0.1863  0.3237
  735SOL     OW14263   9.096   7.154   7.197 -0.2561  0.3133 -0.0213
  735SOL    HW114264   9.115   7.059   7.174  1.4791  0.9797 -1.4649
  735SOL    HW214265   9.012   7.160   7.251  0.2841 -2.1515  1.1502
  736SOL     OW14266   3.152   4.639   1.717 -0.2861  0.9943  0.0092
  736SOL    HW114267   3.123   4.694   1.639 -0.7397 -0.9668 -1.2699
  736SOL    HW214268   3.098   4.554   1.719  0.3077  0.6488  1.9593
  737SOL     OW14269   2.017   1.645   2.643  0.0353 -0.6634  0.3799
  737SOL    HW114270   1.942   1.610   2.698  1.2879 -1.8978  1.3453
  737SOL    HW214271   2.048   1.574   2.580 -2.1956  1.1264 -2.8707
  738SOL     OW14272   2.990   6.758  10.052  0.0163 -0.4085 -0.1370
  738SOL    HW114273   2.926   6.822  10.010  0.8121  1.0319  0.7748
  738SOL    HW214274   2.975   6.756  10.151  1.0960 -0.3624  0.0377
  739SOL     OW14275   1.573   9.054   8.628  0.3320 -0.4932  0.3736
  739SOL    HW114276   1.619   9.141   8.647  1.2346 -0.9888  0.5078
  739SOL    HW214277   1.532   9.057   8.537 -1.1349  0.6868  1.0567
  740SOL     OW14278   9.309   5.039   4.756  0.0028 -0.3936  0.4140
  740SOL    HW114279   9.231   5.000   4.805  1.0595  0.6741  3.0070
  740SOL    HW214280   9.391   5.035   4.813  1.2920  0.8826 -1.2705
  741SOL     OW14281   9.080   8.756   9.313 -0.1972 -0.2617  0.3655
  741SOL    HW114282   9.027   8.749   9.228 -0.0754 -1.9184  0.4098
  741SOL    HW214283   9.021   8.793   9.385 -0.6730 -0.0535 -0.1214
  742SOL     OW14284   2.956   8.524   4.242 -0.4321  0.2551  1.1086
  742SOL    HW114285   3.006   8.603   4.276 -1.3950  0.9628  0.8836
  742SOL    HW214286   2.970   8.517   4.143  0.2552 -0.2929  1.2406
  743SOL     OW14287   3.193   8.798   9.548  0.3381 -0.0446 -0.3442
  743SOL    HW114288   3.130   8.824   9.622  0.4118 -0.5374 -0.1062
  743SOL    HW214289   3.150   8.815   9.460 -0.4643 -1.2054 -0.1789
  744SOL     OW14290   7.480   7.832   9.916  0.3459 -0.3231 -0.3009
  744SOL    HW114291   7.425   7.759   9.875 -1.0124  0.6641 -0.2420
  744SOL    HW214292   7.461   7.918   9.869  2.0210  0.0012 -0.4378
  745SOL     OW14293   9.821   3.514   1.778 -0.5246  0.0593 -0.4197
  745SOL    HW114294   9.917   3.488   1.784 -0.5991 -0.4476 -1.3475
  745SOL    HW214295   9.806   3.570   1.696 -1.0807 -0.1660 -0.4785
  746SOL     OW14296   4.066   8.205   8.569  0.0699 -0.4310  0.3234
  746SOL    HW114297   4.006   8.183   8.492  0.3308  1.3321 -0.4020
  746SOL    HW214298   4.161   8.184   8.544  0.1523  0.1282  0.1422
  747SOL     OW14299   2.292   9.019   8.298  0.2544  0.5106 -0.2045
  747SOL    HW114300   2.355   8.963   8.351 -2.1357 -2.0510  0.0562
  747SOL    HW214301   2.288   9.111   8.336  2.7873  0.3200  0.5711
  748SOL     OW14302   4.792   0.194   3.596  0.3682 -0.3913 -0.1717
  748SOL    HW114303   4.728   0.262   3.629  1.1705 -0.2377  1.1001
  748SOL    HW214304   4.862   0.177   3.665 -1.3998 -4.5889  0.7704
  749SOL     OW14305   3.112   4.906   1.252  0.5720 -0.2060 -0.2366
  749SOL    HW114306   3.160   4.863   1.176 -1.1555 -1.1335 -0.8196
  749SOL    HW214307   3.025   4.943   1.220 -0.1793 -0.6043  1.2806
  750SOL     OW14308   3.476   5.850   9.012  0.6659  0.3712 -0.2784
  750SOL    HW114309   3.470   5.824   8.916 -2.8844  0.9630 -0.2856
  750SOL    HW214310   3.499   5.770   9.068  1.6709 -0.1969 -1.4938
  751SOL     OW14311   4.304   4.274   6.868  0.6660  0.0132  0.2486
  751SOL    HW114312   4.218   4.223   6.877  0.9774 -0.1329  2.8756
  751SOL    HW214313   4.290   4.352   6.807 -0.4151 -1.8964 -2.0027
  752SOL     OW14314   3.381   4.961   5.782  0.2975 -0.7274  0.0625
  752SOL    HW114315   3.367   4.870   5.744 -0.2497  0.3386 -2.3772
  752SOL    HW214316   3.302   5.019   5.761  1.4434  0.8375 -0.0295
  753SOL     OW14317   1.671   2.041   3.276 -0.0064 -0.4979  0.1237
  753SOL    HW114318   1.740   1.969   3.281 -1.3049 -1.6740  1.6662
  753SOL    HW214319   1.694   2.113   3.342 -0.8018 -1.4042  1.4131
  754SOL     OW14320   9.441   9.602   4.026  0.1406  0.5525 -0.3773
  754SOL    HW114321   9.345   9.617   4.049  0.2210 -1.1159  1.0945
  754SOL    HW214322   9.478   9.685   3.984 -2.0075  1.1112 -1.2323
  755SOL     OW14323   2.968   9.739   2.824 -0.7400 -0.2354  0.4057
  755SOL    HW114324   2.958   9.835   2.800 -1.9473 -0.3293  0.4668
  755SOL    HW214325   2.971   9.729   2.923 -1.2703 -0.3053  0.4191
  756SOL     OW14326   4.436   6.571   3.813 -0.7060  0.7805  0.1915
  756SOL    HW114327   4.461   6.606   3.723 -1.4575  1.6612  0.3293
  756SOL    HW214328   4.394   6.481   3.803  1.9285 -0.4698 -0.0983
  757SOL     OW14329   7.765   4.577   2.912  0.3007  0.1411  0.4054
  757SOL    HW114330   7.807   4.603   2.999  1.3451 -0.3552  0.0604
  757SOL    HW214331   7.700   4.502   2.927  1.7364 -1.0965  0.5140
  758SOL     OW14332   9.201   2.445   3.012 -0.0395  0.4900 -0.3073
  758SOL    HW114333   9.168   2.534   2.982 -1.0064  1.0973  2.3675
  758SOL    HW214334   9.126   2.378   3.005  0.0083  0.4209 -0.1639
  759SOL     OW14335   6.949   5.781   8.427 -0.8250 -0.1396 -0.5962
  759SOL    HW114336   6.914   5.875   8.420 -0.3749  0.1679  1.0474
  759SOL    HW214337   6.911   5.737   8.508  4.0199  0.9147  2.4586
  760SOL     OW14338   1.568   0.570   9.154  0.6816 -0.4998 -0.5231
  760SOL    HW114339   1.662   0.557   9.186  0.9705  2.8752  0.2156
  760SOL    HW214340   1.505   0.558   9.230  0.4286 -3.3227 -1.1381
  761SOL     OW14341   9.179   5.211   9.673 -0.4214  0.7727 -0.4899
  761SOL    HW114342   9.216   5.268   9.746 -1.5389 -0.0377  0.7382
  761SOL    HW214343   9.097   5.254   9.636 -1.4702 -0.1791  0.6819
  762SOL     OW14344   1.332   7.491   9.912 -0.3223 -0.5636  0.9125
  762SOL    HW114345   1.285   7.479   9.825 -0.9418 -0.4507  1.2267
  762SOL    HW214346   1.427   7.517   9.895 -0.5852  0.0011  0.2756
  763SOL     OW14347   9.338   9.321   9.776 -0.0616 -0.4587 -0.4413
  763SOL    HW114348   9.249   9.279   9.756  0.4242 -1.5757 -0.3005
  763SOL    HW214349   9.356   9.393   9.709 -0.0088 -1.8334 -1.9597
  764SOL     OW14350   4.224   6.749   2.894 -0.4612 -0.4798 -0.5104
  764SOL    HW114351   4.135   6.744   2.850  0.1478 -2.9468 -1.5024
  764SOL    HW214352   4.292   6.780   2.828 -0.5661  1.5891  0.2952
  765SOL     OW14353   1.220   0.246   6.424  0.0740 -0.2635 -0.2778
  765SOL    HW114354   1.280   0.285   6.494  1.6666 -1.9391 -0.6610
  765SOL    HW214355   1.274   0.188   6.363 -0.7257  3.2292 -4.5473
  766SOL     OW14356   0.549   4.115   6.067  0.1174 -0.3275 -0.4000
  766SOL    HW114357   0.465   4.078   6.030  0.7155 -0.2009 -1.9033
  766SOL    HW214358   0.584   4.054   6.138 -0.8624 -0.7354 -0.2602
  767SOL     OW14359   8.435   6.529   5.811  0.3209  0.1774 -0.0802
  767SOL    HW114360   8.443   6.489   5.902  0.8589  1.5705  0.5101
  767SOL    HW214361   8.436   6.457   5.742  1.2472 -0.8093  0.9449
  768SOL     OW14362   6.256   0.202   6.679  0.3988 -0.2077 -0.5010
  768SOL    HW114363   6.328   0.142   6.645  0.5202  0.3969 -1.3494
  768SOL    HW214364   6.226   0.172   6.769  0.3466 -1.6283 -0.9835
  769SOL     OW14365   3.018   2.457   5.603  0.1012  0.1615  0.0571
  769SOL    HW114366   2.946   2.523   5.580 -2.7862 -2.0288  2.3602
  769SOL    HW214367   3.075   2.494   5.676 -0.5524  0.7137  0.2891
  770SOL     OW14368   2.851   3.045   4.094  0.0380 -0.1469  0.2156
  770SOL    HW114369   2.756   3.046   4.124  0.2489 -0.4653  0.8935
  770SOL    HW214370   2.896   3.129   4.122 -0.0269 -0.0202 -0.0579
  771SOL     OW14371   9.467   4.607   2.425  0.1783  0.1481 -0.6180
  771SOL    HW114372   9.523   4.627   2.345  3.5693 -0.3937  1.5288
  771SOL    HW214373   9.477   4.510   2.449 -2.4694 -0.2045 -0.6901
  772SOL     OW14374   8.093   2.220   0.848 -0.5302 -0.0347  0.0825
  772SOL    HW114375   8.111   2.275   0.767 -1.0157  0.3898  0.2614
  772SOL    HW214376   8.116   2.124   0.829  0.4205  0.2455 -0.1885
  773SOL     OW14377   7.264   3.075   4.127 -0.8137  0.1982 -0.6517
  773SOL    HW114378   7.308   3.111   4.045  0.6352 -0.9567 -0.3897
  773SOL    HW214379   7.252   2.976   4.118 -2.3253  0.3363 -0.2394
  774SOL     OW14380   2.748   2.911   8.006  0.3501 -0.5489 -0.1816
  774SOL    HW114381   2.840   2.937   7.978  0.1441  0.1637 -0.2006
  774SOL    HW214382   2.700   2.872   7.927 -0.0276  0.9080 -0.6798
  775SOL     OW14383   1.071   4.652   1.712  0.3054  0.1614  0.0810
  775SOL    HW114384   1.105   4.577   1.655 -0.6196 -0.3741  0.2320
  775SOL    HW214385   0.992   4.695   1.668  0.1180  0.3029  0.5564
  776SOL     OW14386   9.173   3.431   3.403 -0.3893  0.3287  0.2416
  776SOL    HW114387   9.163   3.335   3.432  2.2834 -0.5447 -1.5015
  776SOL    HW214388   9.109   3.451   3.329  1.2118 -1.1151 -1.5935
  777SOL     OW14389   4.450   1.987   3.089  0.4938  0.4097  0.1381
  777SOL    HW114390   4.354   1.973   3.062 -0.0021  2.8015  0.5686
  777SOL    HW214391   4.462   1.958   3.184  0.4388 -0.7692 -0.1989
  778SOL     OW14392   4.324   0.632   6.189  0.2904 -0.6985  0.6947
  778SOL    HW114393   4.407   0.603   6.236  0.7221  0.4692  0.6731
  778SOL    HW214394   4.339   0.629   6.090 -0.0743 -1.5951  0.6690
  779SOL     OW14395   1.168   6.195   5.658  0.7379 -0.3010 -0.0151
  779SOL    HW114396   1.181   6.282   5.610 -0.1278  0.1489  0.5518
  779SOL    HW214397   1.110   6.135   5.602 -2.2446  1.0997  1.4380
  780SOL     OW14398   9.393   6.160   3.401  0.1592  0.2679 -1.0612
  780SOL    HW114399   9.452   6.138   3.323  1.0607  0.1018 -0.3512
  780SOL    HW214400   9.416   6.100   3.478 -0.6935  0.4524 -0.6550
  781SOL     OW14401   3.680   1.984   5.850  0.0727  0.4460  0.1508
  781SOL    HW114402   3.630   1.906   5.886 -0.5079  0.6986 -0.1105
  781SOL    HW214403   3.644   2.009   5.760  0.4728  0.8063  0.0889
  782SOL     OW14404   1.803   2.425   7.951  0.1116 -0.1314 -0.2398
  782SOL    HW114405   1.718   2.477   7.938  0.5355  0.5874 -0.1938
  782SOL    HW214406   1.811   2.355   7.880 -0.1041  0.3607 -0.7500
  783SOL     OW14407   8.268   2.678   6.253 -0.1261  0.0035 -0.2070
  783SOL    HW114408   8.363   2.650   6.239  0.9244  2.4686  1.5312
  783SOL    HW214409   8.220   2.607   6.305  1.4946 -0.1275  1.1548
  784SOL     OW14410   2.890   3.339   5.228  0.8919 -0.2489  0.4173
  784SOL    HW114411   2.947   3.408   5.184 -0.3969  1.2709  1.0496
  784SOL    HW214412   2.830   3.296   5.160  1.5728 -0.6079  0.0487
  785SOL     OW14413   8.274   8.288   3.348 -0.1371 -1.3614  0.4381
  785SOL    HW114414   8.254   8.272   3.444  0.1803 -4.0686  0.0726
  785SOL    HW214415   8.209   8.238   3.291 -0.7485  0.7475 -0.7911
  786SOL     OW14416   1.517   8.531   4.912  0.2081 -0.2634 -0.0051
  786SOL    HW114417   1.600   8.493   4.954  0.7333  1.0271  0.1249
  786SOL    HW214418   1.543   8.600   4.845 -0.7766  0.2673  0.1652
  787SOL     OW14419   4.896   5.988   3.842  0.2606  0.1318 -0.0580
  787SOL    HW114420   4.806   5.954   3.814 -0.4992  1.6875  0.4684
  787SOL    HW214421   4.946   5.915   3.889 -0.7335 -0.7311 -0.3242
  788SOL     OW14422   3.154   7.664   5.401  0.2728  0.1724  0.4482
  788SOL    HW114423   3.251   7.657   5.421  0.1115 -1.4306  0.7348
  788SOL    HW214424   3.121   7.754   5.429  1.5625  0.5470  0.8109
  789SOL     OW14425   9.309   8.618   5.242 -0.0572  0.3828  0.2363
  789SOL    HW114426   9.279   8.667   5.160  0.1345  1.7804  0.9914
  789SOL    HW214427   9.403   8.587   5.231  0.1815  1.1311  0.1809
  790SOL     OW14428   1.709   6.409   1.796 -0.0281 -0.1181 -0.0203
  790SOL    HW114429   1.746   6.322   1.829  0.7399  0.3170  0.2872
  790SOL    HW214430   1.632   6.392   1.734  0.8620 -1.0408 -0.8708
  791SOL     OW14431   2.621   4.403   3.678  0.3091 -0.1067  0.4608
  791SOL    HW114432   2.582   4.401   3.585 -0.1594 -2.0718  0.6958
  791SOL    HW214433   2.551   4.433   3.742  0.2560 -0.0332  0.3699
  792SOL     OW14434   9.279   4.794   8.680  0.2501  0.1227 -0.0413
  792SOL    HW114435   9.184   4.764   8.681  0.5823 -0.9316  1.5362
  792SOL    HW214436   9.337   4.719   8.648  0.7922 -0.0062  1.2280
  793SOL     OW14437   0.199   7.110   3.352  0.6118 -0.1642  0.3108
  793SOL    HW114438   0.202   7.183   3.284  0.4614 -0.1888  0.2787
  793SOL    HW214439   0.248   7.140   3.434  0.7655 -0.1232  0.2049
  794SOL     OW14440   4.699   1.547   7.072 -0.6352  0.5313 -0.1220
  794SOL    HW114441   4.663   1.531   6.980 -2.0695 -0.9731  0.6918
  794SOL    HW214442   4.668   1.636   7.105  0.5625  1.4516 -1.3924
  795SOL     OW14443   2.442   4.176   8.494 -0.1738  0.0843  0.3731
  795SOL    HW114444   2.355   4.156   8.538 -0.6721 -1.9558 -1.4586
  795SOL    HW214445   2.441   4.270   8.461 -0.9884  0.6306  1.8974
  796SOL     OW14446   8.861   0.606   1.140 -0.3342  0.1570  0.1739
  796SOL    HW114447   8.957   0.580   1.135 -0.2056  0.6369  0.1639
  796SOL    HW214448   8.805   0.536   1.097 -0.0700 -0.6028  1.0393
  797SOL     OW14449   0.780   9.975   1.290  0.1200 -0.0121 -0.2406
  797SOL    HW114450   0.863   9.923   1.268  1.0213  0.7242  1.2926
  797SOL    HW214451   0.703   9.913   1.300  1.3725 -1.2033  2.4983
  798SOL     OW14452   8.762   2.913   9.843 -0.0870 -0.1734  0.0236
  798SOL    HW114453   8.769   2.983   9.771 -0.9418  0.9989  1.0580
  798SOL    HW214454   8.714   2.951   9.922 -1.6254 -2.2873  0.1567
  799SOL     OW14455   1.119   8.637   6.172  0.3069 -0.3442  0.6124
  799SOL    HW114456   1.181   8.657   6.248  0.4105  2.1267 -0.0641
  799SOL    HW214457   1.028   8.614   6.208  0.2929  1.0273  1.4992
  800SOL     OW14458   9.427   5.693   7.464  0.2023 -0.1965 -0.6211
  800SOL    HW114459   9.472   5.644   7.390 -1.4570  1.5564 -2.8359
  800SOL    HW214460   9.366   5.763   7.427 -1.8360 -0.2794  2.3542
  801SOL     OW14461   4.926   9.346   7.904 -0.5191  0.1547 -0.0027
  801SOL    HW114462   4.934   9.257   7.858  3.9740  1.3599 -1.8418
  801SOL    HW214463   4.963   9.339   7.997  0.5454  0.2258 -0.4100
  802SOL     OW14464   8.103   5.104   8.971  0.0497 -0.6771 -0.3119
  802SOL    HW114465   8.135   5.134   8.881  1.5199 -2.2477 -0.3285
  802SOL    HW214466   8.093   5.005   8.972 -2.0950 -0.4733  0.6032
  803SOL     OW14467   9.677   0.212   4.531  0.3975  0.1537  0.3253
  803SOL    HW114468   9.607   0.219   4.459  0.4525 -0.9724  0.1492
  803SOL    HW214469   9.732   0.295   4.532  0.3582  0.2048 -0.9122
  804SOL     OW14470   7.095   4.003   8.150  0.1658 -0.1913 -0.1638
  804SOL    HW114471   7.056   3.942   8.219  0.0747 -0.2815 -0.2941
  804SOL    HW214472   7.022   4.046   8.098  0.2338 -0.0825 -0.1693
  805SOL     OW14473   0.389   9.436   9.590 -0.1563  0.1058 -0.5859
  805SOL    HW114474   0.450   9.380   9.645  0.9955  0.5261 -1.4209
  805SOL    HW214475   0.437   9.516   9.556 -1.0782  0.2993 -1.4944
  806SOL     OW14476   3.748   1.950   4.125  0.3061  0.6924  0.3589
  806SOL    HW114477   3.750   2.027   4.062  0.3306 -0.1855 -0.7257
  806SOL    HW214478   3.832   1.897   4.116  0.1385  0.3353  0.8481
  807SOL     OW14479   0.900   4.614   2.830  0.5769  0.7461  0.0935
  807SOL    HW114480   0.924   4.690   2.769  0.4820  0.4566 -0.3108
  807SOL    HW214481   0.801   4.600   2.828  0.3331  2.0693  1.9163
  808SOL     OW14482   7.163   8.703   7.118  0.4576  0.2934 -0.1505
  808SOL    HW114483   7.120   8.730   7.032  0.6161  2.0946  0.3214
  808SOL    HW214484   7.196   8.784   7.166  3.0068 -0.9043  0.2220
  809SOL     OW14485   2.558   7.753   5.344  0.3295 -0.3140 -0.0226
  809SOL    HW114486   2.586   7.810   5.421  0.2769  0.9621 -0.9336
  809SOL    HW214487   2.583   7.658   5.362 -0.5665 -0.1863  1.9899
  810SOL     OW14488   2.097   2.961   4.066  0.2192 -0.5193  0.7613
  810SOL    HW114489   2.118   2.900   4.142 -0.3464 -0.4338  0.9915
  810SOL    HW214490   2.090   2.907   3.982 -0.7796 -0.8526  1.0484
  811SOL     OW14491   6.578   2.111   9.764  0.3106  0.2323  0.3165
  811SOL    HW114492   6.509   2.039   9.757 -0.9601  1.3798  0.5917
  811SOL    HW214493   6.669   2.071   9.774 -0.4024 -1.3085  0.6969
  812SOL     OW14494   0.164   1.412   8.875  0.0111 -0.3450 -0.1423
  812SOL    HW114495   0.210   1.419   8.964  2.3105 -2.3528 -1.1292
  812SOL    HW214496   0.133   1.318   8.861 -2.5284  0.4887 -0.4612
  813SOL     OW14497   6.150   2.383   2.289 -0.2626 -0.0063  0.1781
  813SOL    HW114498   6.098   2.466   2.308 -1.5616 -0.3816 -1.6411
  813SOL    HW214499   6.158   2.328   2.373  0.6569  1.9422  1.4069
  814SOL     OW14500   0.825   6.523   1.773  0.6977 -0.2105  0.2224
  814SOL    HW114501   0.751   6.590   1.785  0.7676 -0.0143 -0.4222
  814SOL    HW214502   0.893   6.535   1.846  0.5759  0.2411  0.2635
  815SOL     OW14503   6.830   3.123   9.002 -0.3202 -0.0118 -0.1709
  815SOL    HW114504   6.810   3.029   8.972 -0.1023  0.4299 -1.7238
  815SOL    HW214505   6.795   3.188   8.934  0.0925  1.0126  0.5909
  816SOL     OW14506   1.681   4.584   3.298 -0.0955  0.3008 -0.0836
  816SOL    HW114507   1.767   4.625   3.266 -0.1398  0.4255 -0.0439
  816SOL    HW214508   1.611   4.597   3.228  0.1022 -0.4294 -0.4215
  817SOL     OW14509   3.270   3.079   6.602  0.7324  0.1864  0.0213
  817SOL    HW114510   3.240   3.174   6.594  1.7939  0.4484 -0.9071
  817SOL    HW214511   3.216   3.022   6.541  0.6824  0.3259 -0.0662
  818SOL     OW14512   5.905   9.811   2.397  0.3320 -0.6058 -0.1007
  818SOL    HW114513   5.806   9.813   2.386  0.1384 -0.5396  1.4575
  818SOL    HW214514   5.949   9.838   2.312 -0.9913 -0.5723 -0.7850
  819SOL     OW14515   7.175   6.392   1.205  0.3219 -0.7418  0.2367
  819SOL    HW114516   7.242   6.443   1.151  1.1690 -1.1465  0.8904
  819SOL    HW214517   7.144   6.312   1.154  0.5233 -0.6931  0.0374
  820SOL     OW14518   0.817   6.124   8.292 -0.3365 -0.4171 -0.6099
  820SOL    HW114519   0.811   6.100   8.195  1.4358 -0.4897 -0.7108
  820SOL    HW214520   0.819   6.040   8.347 -0.9707 -0.3822 -0.5297
  821SOL     OW14521   4.088   4.743   9.008  0.0599 -0.4382  0.1906
  821SOL    HW114522   4.097   4.650   8.971  0.5881 -0.2076 -0.2487
  821SOL    HW214523   3.998   4.752   9.052  0.2016 -1.3128  0.6714
  822SOL     OW14524   9.937   7.946   7.054  0.3976  0.1085 -0.1472
  822SOL    HW114525  10.005   7.899   7.110 -1.0896 -0.8866  0.8834
  822SOL    HW214526   9.947   8.045   7.065  2.0202 -0.0171 -0.4536
  823SOL     OW14527   2.417   3.253   9.142 -0.2141 -0.3503  0.3033
  823SOL    HW114528   2.516   3.250   9.150 -0.1396  3.0327  1.3602
  823SOL    HW214529   2.391   3.254   9.046  0.8354  0.4401  0.0320
  824SOL     OW14530   7.779   1.197   5.909 -0.2196 -0.2083 -0.2250
  824SOL    HW114531   7.705   1.136   5.878 -0.5752 -0.7367  1.5968
  824SOL    HW214532   7.742   1.266   5.971  0.2035  1.8525 -2.2078
  825SOL     OW14533   2.533   8.406   3.090  0.2215 -0.3424 -0.1776
  825SOL    HW114534   2.609   8.471   3.091 -0.8481  0.9214  1.0827
  825SOL    HW214535   2.446   8.455   3.088 -0.5950 -1.7739 -3.4797
  826SOL     OW14536   4.240   2.663   8.443 -1.0204 -0.2193  0.2200
  826SOL    HW114537   4.265   2.752   8.404 -0.8430 -0.1172  0.5699
  826SOL    HW214538   4.141   2.649   8.433 -1.1235  0.2306  0.6063
  827SOL     OW14539   3.667   0.262   6.561 -0.4552 -0.3503 -0.1474
  827SOL    HW114540   3.609   0.279   6.481 -0.9363 -0.0762  0.2572
  827SOL    HW214541   3.761   0.291   6.541 -0.3108 -1.3799 -1.0307
  828SOL     OW14542   7.836   7.045   5.675 -0.2322 -0.4671 -0.6930
  828SOL    HW114543   7.753   7.025   5.726 -1.0734  0.4948 -1.6778
  828SOL    HW214544   7.900   6.969   5.685 -0.9374 -0.8956  0.6489
  829SOL     OW14545   3.577   7.389   2.979 -0.2821 -0.1894  0.2172
  829SOL    HW114546   3.593   7.404   2.881  0.5863  0.7794  0.5022
  829SOL    HW214547   3.548   7.295   2.994 -0.6559 -0.2780 -1.0054
  830SOL     OW14548   5.177   2.598   1.263  0.0377 -0.1576  0.4567
  830SOL    HW114549   5.275   2.576   1.260 -0.2128 -1.3874  0.9453
  830SOL    HW214550   5.142   2.608   1.170  0.2500 -1.4939  0.2282
  831SOL     OW14551   9.804   2.170   1.121  0.0039  0.3363 -0.1189
  831SOL    HW114552   9.892   2.150   1.079 -0.4727 -0.3702 -0.7874
  831SOL    HW214553   9.737   2.189   1.050 -0.2831  1.3187  0.4019
  832SOL     OW14554   0.087   4.828   2.590 -0.4749  0.0857 -0.2797
  832SOL    HW114555   0.089   4.848   2.688  1.0525  0.4004 -0.3693
  832SOL    HW214556   0.180   4.818   2.555 -0.9888  0.2109 -1.7504
  833SOL     OW14557   8.218   0.682   5.723  0.5355  0.1545 -0.1203
  833SOL    HW114558   8.160   0.764   5.729 -2.8564 -2.1554 -0.2621
  833SOL    HW214559   8.211   0.644   5.631 -0.6758 -2.2361  0.9383
  834SOL     OW14560   0.190   1.692   7.696 -0.7332 -0.3837 -0.5062
  834SOL    HW114561   0.143   1.736   7.773  1.1583  0.2641  0.3161
  834SOL    HW214562   0.166   1.595   7.694 -1.3767 -0.2572  0.4857
  835SOL     OW14563   0.617   3.863   6.191  0.3081 -0.4268 -0.1517
  835SOL    HW114564   0.550   3.813   6.136 -0.7963  0.4403  0.3985
  835SOL    HW214565   0.613   3.831   6.286 -0.5978  0.8854  0.2624
  836SOL     OW14566   1.330   4.476   4.023  0.2081 -0.3648  0.2841
  836SOL    HW114567   1.419   4.434   4.041 -0.0325 -0.5283  1.0852
  836SOL    HW214568   1.304   4.535   4.099  0.1000  0.4929 -0.4049
  837SOL     OW14569   4.822   0.824   0.711  0.4631 -0.4969  0.0135
  837SOL    HW114570   4.809   0.902   0.650  3.4808 -0.4047 -0.6043
  837SOL    HW214571   4.907   0.835   0.762 -0.1068 -2.4108  1.4532
  838SOL     OW14572   1.869   2.473   4.628  0.3289 -0.0894 -0.0768
  838SOL    HW114573   1.959   2.440   4.659  0.4533  0.9672  0.7357
  838SOL    HW214574   1.876   2.570   4.604 -0.1570 -0.4850 -1.8939
  839SOL     OW14575   9.692   5.198   1.624  0.7138 -0.4731  0.0237
  839SOL    HW114576   9.665   5.252   1.544 -0.7680 -1.6781 -0.3069
  839SOL    HW214577   9.613   5.182   1.683  0.7215 -3.6671 -0.7256
  840SOL     OW14578   8.067   5.598   4.422 -0.2880  0.2911 -0.1640
  840SOL    HW114579   8.008   5.530   4.380 -2.1521  0.5112  1.9878
  840SOL    HW214580   8.079   5.575   4.519  4.4952 -0.6520 -0.8324
  841SOL     OW14581   2.505   8.461   0.868 -0.4801 -0.3550 -0.1921
  841SOL    HW114582   2.452   8.445   0.785 -0.4432  0.5722 -0.4096
  841SOL    HW214583   2.448   8.448   0.948 -0.7886 -0.2706 -0.3976
  842SOL     OW14584   5.717   0.831   7.097 -0.7204 -0.1362 -0.3693
  842SOL    HW114585   5.752   0.892   7.167 -0.6602  0.7182 -1.1417
  842SOL    HW214586   5.791   0.774   7.061 -0.6437 -0.1825 -0.1351
  843SOL     OW14587   0.281   0.951   2.514 -0.2096  0.1469  0.4429
  843SOL    HW114588   0.183   0.968   2.507 -0.7867 -2.9092  0.3154
  843SOL    HW214589   0.310   0.891   2.438  1.2297 -1.0061  1.8609
  844SOL     OW14590   8.855   0.148   7.912 -0.2871  0.8159 -0.3947
  844SOL    HW114591   8.767   0.102   7.900 -0.8336  1.9319 -0.7024
  844SOL    HW214592   8.861   0.226   7.850  0.4240  1.4589  0.4698
  845SOL     OW14593   8.707   7.485   3.377  0.1451  0.0737 -0.2260
  845SOL    HW114594   8.787   7.537   3.408 -0.5928  0.3721  1.2411
  845SOL    HW214595   8.672   7.526   3.293 -0.7024  2.2703  1.1630
  846SOL     OW14596   5.281   6.121   0.162  0.0741  0.0315  0.6098
  846SOL    HW114597   5.300   6.198   0.223 -0.4738  1.6468 -1.2204
  846SOL    HW214598   5.357   6.055   0.167  1.4420  1.5908  0.7819
  847SOL     OW14599   4.889   2.180   6.317 -0.5320 -0.1054 -0.2412
  847SOL    HW114600   4.914   2.271   6.351 -0.4992  0.2049 -1.0877
  847SOL    HW214601   4.792   2.179   6.292 -0.4514 -0.2168 -0.5412
  848SOL     OW14602   8.039   8.588   7.372  1.0999 -0.1947  0.3681
  848SOL    HW114603   7.953   8.596   7.322  1.4282  3.0217  0.2219
  848SOL    HW214604   8.115   8.590   7.307  1.4139  1.0603  0.7573
  849SOL     OW14605   6.535   2.656   0.525 -0.4543 -0.6565 -0.1075
  849SOL    HW114606   6.591   2.695   0.452 -0.7722  1.2682  0.6393
  849SOL    HW214607   6.573   2.685   0.614 -0.8949 -1.8030  0.4556
  850SOL     OW14608   7.204   4.838   3.187 -0.3027 -0.3234 -0.0824
  850SOL    HW114609   7.281   4.781   3.161 -1.1478 -1.2652 -0.5285
  850SOL    HW214610   7.192   4.834   3.286 -0.4719 -1.0503 -0.1345
  851SOL     OW14611   0.158   9.475   3.645  0.3650  0.0014 -0.1383
  851SOL    HW114612   0.234   9.447   3.703 -0.8853 -2.4194  0.4110
  851SOL    HW214613   0.072   9.439   3.682 -1.0329  2.4611 -0.8827
  852SOL     OW14614   2.320   6.129   9.496  0.9151  0.1195  0.0687
  852SOL    HW114615   2.335   6.226   9.515 -0.4406  0.1207  1.3122
  852SOL    HW214616   2.405   6.078   9.509  1.4252  1.0168  0.2780
  853SOL     OW14617   3.695   8.449   8.192  0.2267 -0.1423  0.2417
  853SOL    HW114618   3.617   8.400   8.153 -1.0065  0.7929  1.4925
  853SOL    HW214619   3.699   8.431   8.291  0.6443  1.0890  0.4503
  854SOL     OW14620   4.563   9.578   8.180 -0.0229 -0.8373  0.2062
  854SOL    HW114621   4.602   9.671   8.179 -0.6150 -0.5849  0.3021
  854SOL    HW214622   4.520   9.559   8.092 -0.0932 -0.9344  0.2612
  855SOL     OW14623   3.157   4.829   2.872 -0.1556 -0.2457  0.5453
  855SOL    HW114624   3.123   4.889   2.799  1.5653 -2.3520 -2.0988
  855SOL    HW214625   3.238   4.870   2.913 -0.2503  0.2524  0.2439
  856SOL     OW14626   8.891   4.461   6.324 -0.3887 -0.2613  0.0126
  856SOL    HW114627   8.860   4.540   6.377  0.3847  0.2412 -0.2781
  856SOL    HW214628   8.828   4.385   6.339 -2.0989  0.8895 -0.9982
  857SOL     OW14629   4.659   1.026   4.536  0.2609  0.0427 -0.3269
  857SOL    HW114630   4.630   0.967   4.612 -0.4449  0.0286 -0.5980
  857SOL    HW214631   4.639   1.121   4.559  3.1656  0.3948  0.9168
  858SOL     OW14632   8.213   1.624   0.997 -0.2714 -0.4241  0.0765
  858SOL    HW114633   8.147   1.594   0.927  0.0705 -1.1751  0.0717
  858SOL    HW214634   8.270   1.547   1.025 -1.7873 -0.6602  2.7068
  859SOL     OW14635   2.342   0.946   3.363  0.3464  0.0732  1.0371
  859SOL    HW114636   2.422   1.007   3.367  0.9850 -0.7884  1.6617
  859SOL    HW214637   2.355   0.879   3.291  0.3545 -0.2970  1.3806
  860SOL     OW14638   9.980   3.755   0.971  0.1659 -0.6370 -0.7447
  860SOL    HW114639  10.022   3.705   1.046  1.9253 -0.0715 -1.3265
  860SOL    HW214640   9.919   3.693   0.920 -1.0174 -1.0297  1.0854
  861SOL     OW14641   4.660   9.434   6.339  0.6925  0.0410  0.0799
  861SOL    HW114642   4.632   9.529   6.348  1.7988  0.4953 -1.1670
  861SOL    HW214643   4.737   9.415   6.401 -1.1004 -0.7133  2.1351
  862SOL     OW14644   8.116   6.935   6.593  0.0184  0.2849 -0.6365
  862SOL    HW114645   8.047   6.918   6.663  1.1029  0.5614  0.5096
  862SOL    HW214646   8.143   6.848   6.551 -0.2217  0.0531 -0.3152
  863SOL     OW14647   2.995   3.316   8.762 -0.0123  0.0521 -0.6540
  863SOL    HW114648   3.026   3.333   8.669 -0.1620 -0.7096 -0.8471
  863SOL    HW214649   2.906   3.358   8.776  0.0917  0.3204 -0.7979
  864SOL     OW14650   7.058   1.278   5.830  0.1278  0.1645 -0.0043
  864SOL    HW114651   7.088   1.254   5.923  1.6053  1.4117 -0.1452
  864SOL    HW214652   7.039   1.376   5.825  3.0240  0.6862 -1.7780
  865SOL     OW14653   3.522   6.799   3.047  0.3672  0.1668  0.6836
  865SOL    HW114654   3.586   6.728   3.078  1.1416  0.7676  0.4761
  865SOL    HW214655   3.429   6.764   3.053  0.8230 -1.3338 -0.6457
  866SOL     OW14656   8.589   9.515   6.494  0.2722  0.6187 -0.5027
  866SOL    HW114657   8.542   9.534   6.408  0.4761 -1.5450 -1.1071
  866SOL    HW214658   8.662   9.448   6.478  1.4779  1.5251  1.0259
  867SOL     OW14659   7.855   4.951   0.208  0.7137 -0.4168 -0.2690
  867SOL    HW114660   7.866   4.870   0.150 -0.6334 -1.7402  1.2817
  867SOL    HW214661   7.804   5.021   0.158  1.5441 -0.6609 -1.4799
  868SOL     OW14662   9.302   2.325   8.609 -0.1325  0.1122 -0.4375
  868SOL    HW114663   9.315   2.409   8.660  0.0828 -0.2007  0.0290
  868SOL    HW214664   9.333   2.337   8.515 -3.1772  1.5971 -1.3270
  869SOL     OW14665   7.874   3.005   6.974 -0.0274  0.0030  0.1961
  869SOL    HW114666   7.900   2.925   7.029  1.1009  0.4748  0.3567
  869SOL    HW214667   7.819   2.975   6.896  1.8935 -1.1560 -0.7521
  870SOL     OW14668   9.917   1.036   4.163  0.0440  0.3868  0.0823
  870SOL    HW114669   9.903   0.950   4.115 -1.2039 -0.1439  1.3502
  870SOL    HW214670   9.897   1.112   4.102  0.3010 -0.2445 -0.7869
  871SOL     OW14671   1.884   1.110   7.965  0.2505 -0.0461  0.3204
  871SOL    HW114672   1.856   1.206   7.967 -1.0601 -0.3900 -1.0385
  871SOL    HW214673   1.896   1.081   7.870 -0.0272 -1.4195  0.6968
  872SOL     OW14674   4.841   8.532   4.694  0.4696 -0.3184 -0.4778
  872SOL    HW114675   4.827   8.434   4.705 -0.1065  0.0531  2.4102
  872SOL    HW214676   4.937   8.550   4.674  0.4662 -1.5052 -1.5685
  873SOL     OW14677   5.300   1.663   5.374 -0.3463 -0.2873  0.2801
  873SOL    HW114678   5.366   1.688   5.445 -0.2919 -1.7764  0.7688
  873SOL    HW214679   5.345   1.609   5.303 -0.1934  2.0063 -1.4030
  874SOL     OW14680   8.525   3.367   1.599  0.1566 -0.0700  0.2269
  874SOL    HW114681   8.606   3.389   1.545  1.0075 -0.4333  1.3404
  874SOL    HW214682   8.532   3.409   1.689 -1.4310  0.8341 -0.0561
  875SOL     OW14683   9.501   2.248   4.337  0.6543 -0.2545  0.2964
  875SOL    HW114684   9.414   2.283   4.371  1.2203  1.9196 -0.4270
  875SOL    HW214685   9.507   2.150   4.356 -2.3843 -0.6449 -0.5942
  876SOL     OW14686   9.035   4.937   0.034  0.0929 -0.5177 -0.1741
  876SOL    HW114687   9.077   4.848   0.054 -0.1246 -1.0381 -1.9590
  876SOL    HW214688   9.021   4.946  -0.065 -0.7830  1.1101  0.0812
  877SOL     OW14689   8.697   1.614   3.125 -0.6650 -0.2666 -0.5561
  877SOL    HW114690   8.691   1.705   3.086  4.1822  0.3533 -0.2588
  877SOL    HW214691   8.746   1.619   3.213  0.2626 -3.1621 -0.8467
  878SOL     OW14692   0.457   4.025   2.003  0.0083  0.1438 -0.0997
  878SOL    HW114693   0.469   3.992   2.097  1.5095  0.5780 -0.1348
  878SOL    HW214694   0.484   3.952   1.939  0.2658  0.3216 -0.1923
  879SOL     OW14695   2.932   2.988   8.426  0.0559  0.7432 -0.2499
  879SOL    HW114696   2.849   2.968   8.478  1.4197  0.0195  1.7012
  879SOL    HW214697   2.956   2.909   8.370  0.4343  0.2836  0.5623
  880SOL     OW14698   1.481   7.301   4.872 -0.0964 -0.1293 -0.0076
  880SOL    HW114699   1.434   7.365   4.933 -0.5929 -1.1487  0.7121
  880SOL    HW214700   1.520   7.350   4.794  1.0002  1.2885  1.4022
  881SOL     OW14701   1.277   9.237   2.367  0.7742  0.5463  0.3381
  881SOL    HW114702   1.366   9.212   2.329  0.0986 -1.5977  0.1251
  881SOL    HW214703   1.276   9.218   2.465  0.0479 -0.8967  0.0621
  882SOL     OW14704   9.334   2.115   7.711  0.0103 -0.2048  0.0410
  882SOL    HW114705   9.301   2.181   7.779 -0.8802 -2.3072  1.7129
  882SOL    HW214706   9.286   2.130   7.625 -0.5605  1.0078  0.5496
  883SOL     OW14707   0.365   1.530   1.639  0.1331 -0.0203  0.1843
  883SOL    HW114708   0.438   1.534   1.707  0.0565 -1.3405  0.3562
  883SOL    HW214709   0.277   1.549   1.684  0.1923  0.0895  0.2555
  884SOL     OW14710   5.970   8.201   4.566 -0.1821  0.4991  0.0423
  884SOL    HW114711   5.944   8.248   4.481  0.2096  1.1972  0.3009
  884SOL    HW214712   5.922   8.114   4.572  0.3096  0.1228 -1.2419
  885SOL     OW14713   9.771   4.272   3.840 -0.4254 -0.1037  0.0147
  885SOL    HW114714   9.802   4.309   3.927  0.0089 -1.2640  0.3599
  885SOL    HW214715   9.799   4.176   3.832  1.7962  0.7062 -2.5183
  886SOL     OW14716   7.166   4.230   1.111 -0.2021 -0.0645  0.3639
  886SOL    HW114717   7.073   4.243   1.076 -0.5628 -0.3231  1.2259
  886SOL    HW214718   7.212   4.319   1.116 -0.1374 -0.0173 -0.7538
  887SOL     OW14719   0.297   9.798   5.804  0.0059 -0.2123  0.6126
  887SOL    HW114720   0.303   9.884   5.753 -0.8981  0.2038  1.1938
  887SOL    HW214721   0.286   9.818   5.901 -0.2344 -0.9826  0.7439
  888SOL     OW14722   8.538   0.901   9.679  0.2631 -0.1897  0.2140
  888SOL    HW114723   8.482   0.950   9.613 -0.6926  1.1344  1.9486
  888SOL    HW214724   8.520   0.803   9.673 -1.1502  0.0922 -0.2523
  889SOL     OW14725   7.594   6.295   1.854  0.2927 -0.5223  0.0944
  889SOL    HW114726   7.544   6.368   1.900 -0.1127 -1.1818  0.6981
  889SOL    HW214727   7.538   6.258   1.779  1.4059  1.3409 -1.7187
  890SOL     OW14728   9.452   6.811   2.073  0.4337  0.2926  0.1587
  890SOL    HW114729   9.496   6.764   2.150 -0.7758  1.1793  1.4232
  890SOL    HW214730   9.355   6.825   2.093  0.2602  1.1842 -1.2238
  891SOL     OW14731   7.991   9.665   8.627 -0.0775 -0.6409  0.2196
  891SOL    HW114732   7.986   9.661   8.727 -1.3096  1.8390  0.2994
  891SOL    HW214733   7.910   9.621   8.588 -1.1206  1.0191  0.4317
  892SOL     OW14734   1.019   9.687   7.491 -0.2000 -0.3735 -0.0575
  892SOL    HW114735   1.089   9.637   7.440 -0.9077 -1.1833 -0.2292
  892SOL    HW214736   0.928   9.655   7.466 -0.6970  1.2528 -0.4441
  893SOL     OW14737   4.475   1.457   5.747  0.3290  0.4473  1.0034
  893SOL    HW114738   4.407   1.428   5.679 -0.2748 -0.9459  2.1784
  893SOL    HW214739   4.563   1.415   5.727  0.0629 -0.2499  1.2804
  894SOL     OW14740   7.477   9.917   4.080  0.1341  0.2268  0.0770
  894SOL    HW114741   7.492   9.942   4.176  0.6129  0.1622  0.0227
  894SOL    HW214742   7.382   9.936   4.055 -0.4673 -1.3533  1.0560
  895SOL     OW14743   1.724   6.457   7.377 -0.2210 -0.0714 -0.0818
  895SOL    HW114744   1.775   6.417   7.301  1.9820  2.1494  0.1647
  895SOL    HW214745   1.761   6.423   7.463  0.3588  1.0109  0.0895
  896SOL     OW14746   9.352   6.528   3.897  0.0094  0.2205  0.6980
  896SOL    HW114747   9.375   6.570   3.984 -1.1682  0.5662  0.8422
  896SOL    HW214748   9.425   6.546   3.831 -0.1197  1.8049  0.9791
  897SOL     OW14749   4.845   1.037   1.133  0.1344 -0.3439  0.5754
  897SOL    HW114750   4.777   1.107   1.114 -0.3475 -1.1498 -0.7520
  897SOL    HW214751   4.835   0.962   1.067 -0.2091 -2.2713  2.7214
  898SOL     OW14752   7.929   5.326   9.346  0.1312  0.3540  0.4131
  898SOL    HW114753   7.916   5.256   9.416 -0.3560 -0.8881 -0.8971
  898SOL    HW214754   8.008   5.303   9.290 -0.2839  0.6300 -0.2873
  899SOL     OW14755   7.114   8.507   4.450 -0.1061  0.5106 -0.2636
  899SOL    HW114756   7.053   8.457   4.512 -0.9663  2.1284  0.2245
  899SOL    HW214757   7.157   8.443   4.387  0.1981 -1.0815  1.5120
  900SOL     OW14758   7.277   1.027   9.971 -0.3926  0.4063  0.5855
  900SOL    HW114759   7.318   1.081   9.898 -0.5935  0.4476  0.5025
  900SOL    HW214760   7.240   0.942   9.933  1.6126 -0.6875  1.0058
  901SOL     OW14761   7.398   4.994   7.769  0.2128 -0.1128 -0.0126
  901SOL    HW114762   7.462   4.986   7.693  0.0281  0.7919 -0.2579
  901SOL    HW214763   7.313   5.037   7.738 -0.1621 -0.4498  0.5289
  902SOL     OW14764   9.033   9.370   1.519 -0.3543 -0.0147  1.3307
  902SOL    HW114765   9.097   9.325   1.457  0.8215 -0.4688  2.8566
  902SOL    HW214766   9.076   9.452   1.557 -1.1852  0.4244  1.3425
  903SOL     OW14767   0.774   7.660   7.353 -0.6408  0.0554 -0.2845
  903SOL    HW114768   0.747   7.639   7.447  3.3098 -0.0672  0.9186
  903SOL    HW214769   0.817   7.580   7.312  0.0590  0.8989 -1.2390
  904SOL     OW14770   6.095   3.888   9.316  0.2164 -0.0502 -0.1274
  904SOL    HW114771   6.090   3.931   9.225 -0.4715 -0.4307 -0.2654
  904SOL    HW214772   6.090   3.789   9.306  1.9693 -0.1905  0.1852
  905SOL     OW14773   0.862   8.438   0.070 -0.3997 -0.7657 -1.0469
  905SOL    HW114774   0.941   8.481   0.027 -0.3900 -0.6143 -0.8811
  905SOL    HW214775   0.779   8.488   0.045 -0.0660  1.2967  1.6309
  906SOL     OW14776   6.548   1.115   7.401  0.4466  0.8717 -0.0288
  906SOL    HW114777   6.593   1.129   7.313  2.6571 -2.9489  0.3810
  906SOL    HW214778   6.616   1.111   7.474 -1.1923  2.0732  1.6048
  907SOL     OW14779   8.503   2.190   9.085  0.0654 -0.6350 -0.1956
  907SOL    HW114780   8.581   2.192   9.023  1.3874 -1.4610  1.4188
  907SOL    HW214781   8.488   2.281   9.123  1.2180 -0.7989  0.6722
  908SOL     OW14782   6.322   8.367   4.670  0.1259 -0.4907 -0.4720
  908SOL    HW114783   6.316   8.449   4.727  0.3419 -1.4588  0.9593
  908SOL    HW214784   6.276   8.384   4.583  0.9112  1.4296 -0.5302
  909SOL     OW14785   2.887   5.529   0.211  0.0219  1.1880 -0.3531
  909SOL    HW114786   2.926   5.441   0.237  0.6871  1.4753 -0.3637
  909SOL    HW214787   2.803   5.514   0.159  0.4035  0.5482 -0.7930
  910SOL     OW14788   3.816   2.215   7.560  0.3227  0.1514 -0.5577
  910SOL    HW114789   3.775   2.196   7.471 -0.8254 -0.7992  0.1566
  910SOL    HW214790   3.805   2.312   7.582 -1.0276  0.0182 -0.6364
  911SOL     OW14791   6.344   5.758   0.796 -0.4210  0.1717 -0.5040
  911SOL    HW114792   6.245   5.747   0.808 -0.4405 -0.5172 -1.2390
  911SOL    HW214793   6.367   5.751   0.698  0.1365  2.1462 -0.5421
  912SOL     OW14794   0.187   2.767   9.960 -0.3729 -0.5112 -0.0111
  912SOL    HW114795   0.229   2.766  10.051 -1.1145 -0.0531  0.3376
  912SOL    HW214796   0.239   2.707   9.899  1.2292  0.6216  0.2212
  913SOL     OW14797   6.720   4.657   8.358 -0.2836  0.4055 -0.3962
  913SOL    HW114798   6.622   4.655   8.341  0.1878 -3.3856 -3.3355
  913SOL    HW214799   6.738   4.628   8.452 -1.8650 -2.1740 -0.8511
  914SOL     OW14800   1.468   4.551   4.326  0.9106 -0.2747  0.8344
  914SOL    HW114801   1.506   4.634   4.367 -0.2359  0.9068 -0.3803
  914SOL    HW214802   1.380   4.531   4.368 -1.0445  1.8675 -1.9666
  915SOL     OW14803   4.713   3.497   1.982 -0.1688 -0.0286  1.2495
  915SOL    HW114804   4.745   3.563   2.050  1.5324  2.0910 -1.4875
  915SOL    HW214805   4.787   3.436   1.956 -0.9224 -1.1141  1.6085
  916SOL     OW14806   2.223   4.818   2.212  0.0939  0.1750  0.5250
  916SOL    HW114807   2.298   4.773   2.163  0.4496 -0.1224  1.3467
  916SOL    HW214808   2.137   4.797   2.166  0.4676  0.2406 -0.2273
  917SOL     OW14809   1.292   5.479   4.101 -0.1870  0.8357 -0.3925
  917SOL    HW114810   1.366   5.413   4.087 -0.1983  0.6515  0.3922
  917SOL    HW214811   1.329   5.561   4.147 -0.4479  0.7826 -0.0847
  918SOL     OW14812   7.553   7.878   2.964  0.9875  0.1775 -0.3889
  918SOL    HW114813   7.637   7.824   2.968  1.4473  0.8619 -0.6343
  918SOL    HW214814   7.502   7.867   3.049  1.4109 -0.1004 -0.1680
  919SOL     OW14815   3.785   4.901   7.349  0.1195 -0.0712  0.1846
  919SOL    HW114816   3.853   4.828   7.361  0.8310  0.4688 -0.4812
  919SOL    HW214817   3.693   4.862   7.354  0.4993 -1.1518 -1.0149
  920SOL     OW14818   7.379   0.111   8.371  0.4402 -0.1835  0.2122
  920SOL    HW114819   7.328   0.112   8.285 -0.5193 -0.7362  0.7778
  920SOL    HW214820   7.469   0.153   8.356 -0.4664  1.5250 -0.5804
  921SOL     OW14821   8.373   5.983   5.635  0.6622  0.2201  0.0983
  921SOL    HW114822   8.386   5.889   5.604  2.0177 -1.1371  4.5060
  921SOL    HW214823   8.451   6.039   5.606  0.5789 -0.3370 -1.2246
  922SOL     OW14824   7.169   2.693   0.271  0.0229  0.0544  0.7729
  922SOL    HW114825   7.097   2.744   0.317 -1.8581 -1.2197 -0.6451
  922SOL    HW214826   7.175   2.601   0.311 -0.0526 -0.2704  0.0601
  923SOL     OW14827   9.826   5.941   7.360  0.2344  0.1383 -0.7446
  923SOL    HW114828   9.767   5.920   7.438 -0.4654  0.1264 -1.2707
  923SOL    HW214829   9.817   6.038   7.336  1.0039  0.3069 -0.3516
  924SOL     OW14830   1.789   3.512   5.923  0.1587 -0.2356 -0.2405
  924SOL    HW114831   1.748   3.437   5.871  0.9936  0.0857 -1.3778
  924SOL    HW214832   1.766   3.599   5.880  1.3738 -0.0073 -0.4333
  925SOL     OW14833   8.109   2.442   9.801  0.1576 -0.1653 -0.2013
  925SOL    HW114834   8.068   2.372   9.743 -2.8067 -0.2068  1.8672
  925SOL    HW214835   8.083   2.533   9.768 -1.2470 -0.1823  0.8411
  926SOL     OW14836   2.163   3.202   3.487  0.3731  0.1797 -0.7181
  926SOL    HW114837   2.145   3.111   3.450 -0.1166  0.7838 -1.9754
  926SOL    HW214838   2.098   3.221   3.560  0.2452 -0.3272 -0.6942
  927SOL     OW14839   3.319   9.771   8.498 -0.3545  0.4836 -0.2900
  927SOL    HW114840   3.238   9.743   8.445 -0.1894  1.5650 -1.1352
  927SOL    HW214841   3.394   9.791   8.436  1.0368 -1.8826  0.5652
  928SOL     OW14842   8.750   5.577   1.005 -0.0369  0.6000 -0.2085
  928SOL    HW114843   8.794   5.600   0.918 -0.3176 -1.0145 -0.7834
  928SOL    HW214844   8.652   5.564   0.992 -0.0377  0.0614  0.2996
  929SOL     OW14845   2.419   6.710   5.784 -0.4268  0.4538 -0.0331
  929SOL    HW114846   2.510   6.729   5.821 -0.4920  1.1048 -0.2057
  929SOL    HW214847   2.423   6.716   5.684 -0.7663  0.9490 -0.0167
  930SOL     OW14848   1.904   2.310   9.846  0.2778 -0.1022  0.6752
  930SOL    HW114849   1.874   2.233   9.903  0.1551 -0.1414  0.5582
  930SOL    HW214850   1.912   2.280   9.751  1.3403 -0.2607  0.8177
  931SOL     OW14851   4.155   4.165   1.375 -0.0410  0.1340  0.3224
  931SOL    HW114852   4.135   4.106   1.297  0.7463 -0.4726  0.5722
  931SOL    HW214853   4.216   4.117   1.439  1.1156  1.4357  0.2209
  932SOL     OW14854   3.598   2.395   4.511 -0.0607 -0.0408  0.4153
  932SOL    HW114855   3.660   2.374   4.436 -1.3546 -1.7224 -0.2404
  932SOL    HW214856   3.602   2.492   4.532  0.5973  0.3884 -1.5870
  933SOL     OW14857   1.888   4.401   9.097  0.3057  0.3063  0.1644
  933SOL    HW114858   1.798   4.418   9.059  0.9606  1.2815 -0.9839
  933SOL    HW214859   1.942   4.346   9.033 -0.3151 -2.5374  1.9590
  934SOL     OW14860   1.715   5.138   3.528 -0.2304 -0.1246 -0.6264
  934SOL    HW114861   1.793   5.076   3.537 -0.4204 -0.5456 -1.7904
  934SOL    HW214862   1.644   5.110   3.593  0.3501 -0.0945  0.0286
  935SOL     OW14863   8.336   7.811   5.773 -0.7602  0.3013  0.0216
  935SOL    HW114864   8.388   7.763   5.844 -0.6020  0.0737 -0.2438
  935SOL    HW214865   8.258   7.755   5.745  0.3825 -0.6079 -1.5086
  936SOL     OW14866   6.453   3.424   0.423  0.5306 -0.5893  0.3639
  936SOL    HW114867   6.526   3.359   0.444  0.1339 -0.4372  2.3602
  936SOL    HW214868   6.427   3.416   0.327  1.9292 -1.9000  0.0830
  937SOL     OW14869   8.592   3.712   8.932  0.5798  0.1248  0.2221
  937SOL    HW114870   8.509   3.767   8.926 -0.0529 -0.9480 -1.3217
  937SOL    HW214871   8.670   3.770   8.957 -0.5378  1.2208  1.2295
  938SOL     OW14872   3.501   4.174   3.394 -0.3705  0.1321 -0.5278
  938SOL    HW114873   3.453   4.125   3.467  0.2449 -0.2939 -0.4049
  938SOL    HW214874   3.455   4.158   3.307 -1.4352  1.0864 -0.1651
  939SOL     OW14875   5.606   1.637   9.776  0.2833  0.2396  0.0266
  939SOL    HW114876   5.586   1.566   9.709  1.6664  0.3858 -0.5580
  939SOL    HW214877   5.549   1.717   9.757  1.0478  0.4792 -1.3253
  940SOL     OW14878   9.130   1.722   5.172  0.5770 -1.0124 -0.1580
  940SOL    HW114879   9.098   1.777   5.094  0.3551 -1.1121 -0.1378
  940SOL    HW214880   9.117   1.625   5.152  1.5530 -1.0840 -0.4487
  941SOL     OW14881   9.830   4.784   3.292  0.0399  0.3607  0.1893
  941SOL    HW114882   9.842   4.721   3.368  0.0008  0.5256  0.3302
  941SOL    HW214883   9.829   4.878   3.325  0.5462  0.4643 -0.0679
  942SOL     OW14884   9.531   1.772   6.403 -0.0073 -0.0315 -0.2388
  942SOL    HW114885   9.600   1.738   6.467 -2.1757  0.1487  2.2800
  942SOL    HW214886   9.549   1.868   6.381  1.0205 -0.2381 -0.2952
  943SOL     OW14887   2.913   0.323   4.147 -0.0400 -0.2733 -0.1759
  943SOL    HW114888   2.958   0.342   4.235  0.2376  0.1021 -0.3979
  943SOL    HW214889   2.909   0.224   4.132 -0.9570 -0.3870  0.7097
  944SOL     OW14890   8.242   6.719   5.745  0.7167  0.1154 -0.6262
  944SOL    HW114891   8.205   6.658   5.815 -1.2768 -0.9169 -2.5462
  944SOL    HW214892   8.342   6.719   5.751  0.7725 -3.6470 -0.8332
  945SOL     OW14893   0.128   6.623   8.968  0.3008 -0.8339  0.4252
  945SOL    HW114894   0.045   6.654   9.016  0.9135  0.2139  0.8507
  945SOL    HW214895   0.181   6.703   8.941 -0.0493 -1.4239 -2.0606
  946SOL     OW14896   3.770   2.629   2.642 -0.0691 -0.0327  0.1052
  946SOL    HW114897   3.703   2.594   2.706 -0.4947  0.8132  0.1339
  946SOL    HW214898   3.726   2.649   2.554  0.2592 -0.0252 -0.0616
  947SOL     OW14899   9.174   9.567   0.252 -0.4084  0.2365  0.0850
  947SOL    HW114900   9.195   9.632   0.179 -0.1736  0.1877  0.1101
  947SOL    HW214901   9.250   9.564   0.317  0.1864 -1.0900 -0.6473
  948SOL     OW14902   9.783   4.931   6.874 -0.6777 -0.1134  0.5052
  948SOL    HW114903   9.753   4.937   6.779 -0.7112 -0.2580  0.5065
  948SOL    HW214904   9.843   4.852   6.885  0.8275  0.9729  0.2000
  949SOL     OW14905   8.653   2.278   4.337  0.5956 -0.1382  0.2052
  949SOL    HW114906   8.682   2.194   4.384 -0.5707 -0.2504  0.7391
  949SOL    HW214907   8.626   2.347   4.405  0.1573  0.1583 -0.2623
  950SOL     OW14908   8.041   4.957   9.896 -0.1204 -0.5544  0.1711
  950SOL    HW114909   8.118   4.914   9.941 -1.3352 -1.0991  1.7623
  950SOL    HW214910   8.069   5.046   9.858  0.3576  1.0381  4.0809
  951SOL     OW14911   9.010   6.287   5.908  0.0325 -0.0977 -0.2460
  951SOL    HW114912   8.912   6.296   5.889 -0.5455  0.5902  2.6732
  951SOL    HW214913   9.036   6.353   5.979  2.3378 -1.1093 -0.0987
  952SOL     OW14914   4.142   2.714   4.264 -0.2332 -0.1635  0.2391
  952SOL    HW114915   4.118   2.709   4.167  2.0990 -4.7602 -0.2448
  952SOL    HW214916   4.218   2.777   4.277 -0.7068  0.6378 -0.8782
  953SOL     OW14917   0.192   5.415   3.820 -0.5589  0.1040 -0.1045
  953SOL    HW114918   0.201   5.418   3.919 -0.0325  1.0941 -0.1772
  953SOL    HW214919   0.224   5.326   3.786  1.0401  0.4591  0.4314
  954SOL     OW14920   1.987   0.015   6.810  0.6904 -0.0153 -0.3965
  954SOL    HW114921   1.993  -0.075   6.854 -0.8495 -1.2262 -2.5525
  954SOL    HW214922   2.077   0.059   6.812  1.7845 -2.1831 -0.4940
  955SOL     OW14923   4.382   4.968   4.405 -0.0262 -0.2396 -0.3984
  955SOL    HW114924   4.305   4.926   4.453  0.4142  1.0759  1.5392
  955SOL    HW214925   4.461   4.973   4.467  1.2130 -0.4078 -1.9501
  956SOL     OW14926   8.665   6.532   2.519  0.1116  0.7102 -0.4513
  956SOL    HW114927   8.746   6.591   2.511  1.0135 -0.6668 -1.7209
  956SOL    HW214928   8.693   6.436   2.515 -1.3780  0.1788  1.2775
  957SOL     OW14929   2.792   3.313   0.227 -0.9188  0.1359  0.2157
  957SOL    HW114930   2.888   3.303   0.203  0.0091  1.6164  2.9871
  957SOL    HW214931   2.760   3.404   0.200 -1.1617  0.1108  0.4148
  958SOL     OW14932   8.398   1.418   1.066  0.5182  0.0379 -0.1627
  958SOL    HW114933   8.481   1.460   1.105  0.5773 -1.1964  1.1191
  958SOL    HW214934   8.396   1.321   1.091 -1.7734  0.2469  0.5876
  959SOL     OW14935   7.988   3.467   6.060  0.2000 -0.2219 -0.4172
  959SOL    HW114936   8.061   3.499   5.999 -0.8939 -0.1716 -1.7251
  959SOL    HW214937   7.899   3.478   6.015 -0.5887 -0.6841  0.9863
  960SOL     OW14938   5.693   9.981   2.971  0.0882  0.0484  0.1946
  960SOL    HW114939   5.698  10.074   3.007  1.5936 -0.3448  1.0351
  960SOL    HW214940   5.756   9.971   2.894  0.2503 -0.3970  0.3825
  961SOL     OW14941   8.817   7.042   3.139  0.1680 -0.2149  0.6466
  961SOL    HW114942   8.837   7.075   3.047  1.3698 -0.5920  0.7610
  961SOL    HW214943   8.768   7.113   3.190  1.2222  0.7551  0.3429
  962SOL     OW14944   9.114   7.483   0.775  0.6000 -0.2048 -0.1192
  962SOL    HW114945   9.209   7.452   0.773  0.9946  0.7762  2.0819
  962SOL    HW214946   9.109   7.571   0.822 -1.2499  0.3381 -1.2921
  963SOL     OW14947   8.049   3.200   8.614 -0.4007  0.1472  0.7276
  963SOL    HW114948   8.068   3.284   8.564 -0.2394  0.0438  0.6149
  963SOL    HW214949   8.125   3.182   8.678 -0.8519  0.5620  1.3854
  964SOL     OW14950   9.867   8.637   4.627 -0.1123 -0.4858  0.3026
  964SOL    HW114951   9.959   8.609   4.599 -0.7429 -0.8864 -1.4982
  964SOL    HW214952   9.800   8.583   4.576 -1.3631  2.0688 -0.8571
  965SOL     OW14953   3.404   5.293   8.774 -0.4404  0.2544  0.1311
  965SOL    HW114954   3.406   5.195   8.757  0.5361  0.1736  0.6650
  965SOL    HW214955   3.344   5.337   8.708  0.8237 -0.4453 -1.5306
  966SOL     OW14956   3.128   9.140   8.081 -0.4925 -0.2778  0.1732
  966SOL    HW114957   3.224   9.153   8.054 -0.5041 -0.4146  0.0641
  966SOL    HW214958   3.100   9.047   8.060 -0.1385 -0.7451  1.7771
  967SOL     OW14959   8.749   4.454   0.970 -0.3556  0.2056  0.6680
  967SOL    HW114960   8.700   4.506   1.039 -0.6815 -0.1001  0.6657
  967SOL    HW214961   8.709   4.471   0.880 -0.8604 -0.5290  0.7483
  968SOL     OW14962   1.545   6.197   3.028  0.2041 -0.8018 -0.0189
  968SOL    HW114963   1.581   6.161   3.115  0.3539  1.2804  0.8007
  968SOL    HW214964   1.528   6.295   3.037  0.1611 -0.5734 -2.3378
  969SOL     OW14965   3.812   3.122   7.161  0.1800  0.4165 -0.6855
  969SOL    HW114966   3.888   3.173   7.122  0.2059  0.1768 -0.9476
  969SOL    HW214967   3.753   3.088   7.088  0.5516 -0.5356 -0.5492
  970SOL     OW14968   8.584   0.530   5.434  0.7384 -0.9076  0.3841
  970SOL    HW114969   8.587   0.532   5.534 -0.6488  0.8575  0.4192
  970SOL    HW214970   8.675   0.548   5.398  0.7311  1.3026  1.3561
  971SOL     OW14971   9.191   4.133   5.329 -0.3869  0.1340 -0.4334
  971SOL    HW114972   9.139   4.215   5.353  1.0866  0.7757  0.6308
  971SOL    HW214973   9.251   4.154   5.251 -0.9595 -0.3054 -0.9926
  972SOL     OW14974   0.790   0.957   3.630 -0.0539 -0.3990  0.3313
  972SOL    HW114975   0.883   0.956   3.665 -0.5931 -0.5042  1.8049
  972SOL    HW214976   0.785   0.904   3.546  0.6515 -2.7515  1.7255
  973SOL     OW14977   2.690   3.301   4.545  0.1200  0.6761  0.3636
  973SOL    HW114978   2.661   3.208   4.522 -0.7926  1.5727 -2.3278
  973SOL    HW214979   2.615   3.348   4.592  0.8702 -0.1809  2.4545
  974SOL     OW14980   4.619   2.320   9.157 -0.7327  0.6517  0.5273
  974SOL    HW114981   4.619   2.244   9.092 -0.6757  0.3283  0.9023
  974SOL    HW214982   4.569   2.293   9.240  0.8956  0.3351  1.4405
  975SOL     OW14983   1.642   2.328   9.317 -0.4776 -0.5669 -0.3210
  975SOL    HW114984   1.545   2.305   9.323 -0.7008  0.4806  0.1799
  975SOL    HW214985   1.687   2.310   9.404 -0.1614 -1.2969 -0.6311
  976SOL     OW14986   9.329   0.280   9.171  0.2244 -0.1550 -0.4595
  976SOL    HW114987   9.372   0.323   9.092 -0.2226  0.6290 -0.2830
  976SOL    HW214988   9.271   0.347   9.218  1.5035 -0.2191  1.2909
  977SOL     OW14989   2.559   9.656   3.874  0.5242 -0.1579 -0.4814
  977SOL    HW114990   2.635   9.592   3.889  0.7469  0.1973 -0.0894
  977SOL    HW214991   2.570   9.735   3.934 -0.3298 -0.2478 -0.2070
  978SOL     OW14992   4.716   4.977   4.876  0.1511  0.0990  0.6334
  978SOL    HW114993   4.765   4.983   4.789  0.1230 -0.2812  0.5910
  978SOL    HW214994   4.635   4.919   4.865 -0.5273  1.0302  0.6003
  979SOL     OW14995   0.167   3.700   2.487  0.3245 -0.1087  0.7301
  979SOL    HW114996   0.171   3.619   2.428 -0.3333  0.4106 -0.0257
  979SOL    HW214997   0.122   3.676   2.573  0.9736 -0.7793  0.8948
  980SOL     OW14998   2.855   9.985   1.835  0.2471 -0.3211  0.1299
  980SOL    HW114999   2.762   9.948   1.828  0.1444 -0.3335  1.5054
  980SOL    HW215000   2.850  10.081   1.862  0.6507 -0.5030  0.8557
  981SOL     OW15001   0.784   2.865   6.308  0.0869  0.0595  0.1826
  981SOL    HW115002   0.828   2.897   6.224 -1.0859 -0.2850 -0.5751
  981SOL    HW215003   0.729   2.939   6.347 -2.4671 -0.8887 -1.4621
  982SOL     OW15004   9.604   5.888   8.968 -0.1434 -0.4098 -0.7080
  982SOL    HW115005   9.700   5.890   8.996 -0.3155 -0.8427 -0.0767
  982SOL    HW215006   9.558   5.810   9.012 -0.2610 -1.4876 -2.6883
  983SOL     OW15007   0.393   5.138   0.671  0.3690  0.0762  0.7956
  983SOL    HW115008   0.474   5.126   0.727 -0.6410 -2.0218  1.8545
  983SOL    HW215009   0.328   5.064   0.689 -2.6709  2.7475  1.5240
  984SOL     OW15010   6.208   9.194   7.545  0.8737 -0.4039 -0.6653
  984SOL    HW115011   6.294   9.194   7.596  0.2922  0.2038  0.3261
  984SOL    HW215012   6.173   9.100   7.539  0.8406 -0.4528  0.2316
  985SOL     OW15013   9.658   5.560   1.394  0.1398  0.3025  0.2171
  985SOL    HW115014   9.715   5.617   1.453 -2.0963  0.5845  2.1372
  985SOL    HW215015   9.580   5.613   1.361 -1.3855 -1.3034  1.1496
  986SOL     OW15016   9.758   2.126   7.326 -0.2744  0.4205  0.3055
  986SOL    HW115017   9.806   2.071   7.394 -1.8652 -1.4636 -0.0560
  986SOL    HW215018   9.695   2.189   7.372  1.8434  2.2552  0.7368
  987SOL     OW15019   7.932   7.470   8.833 -0.2017 -0.3599  0.4357
  987SOL    HW115020   7.923   7.429   8.924  0.3503  0.7740  1.0072
  987SOL    HW215021   7.985   7.409   8.775  2.2632  0.3474  1.8370
  988SOL     OW15022   9.958   7.518   3.585 -0.7264  0.4933 -0.2865
  988SOL    HW115023   9.907   7.516   3.671 -1.2894  3.2508 -0.5086
  988SOL    HW215024   9.966   7.425   3.549 -1.6412 -0.5370  2.0461
  989SOL     OW15025   0.407   3.137   3.162  0.3503 -0.0539  0.3526
  989SOL    HW115026   0.411   3.237   3.164  0.9783 -0.0296 -1.0342
  989SOL    HW215027   0.385   3.107   3.069  1.2269 -1.2324  0.5153
  990SOL     OW15028   3.373   3.927   9.644 -0.6191  0.3353 -0.6512
  990SOL    HW115029   3.349   4.024   9.643  0.0312  0.4928 -1.3729
  990SOL    HW215030   3.406   3.900   9.553  0.1397 -0.3245 -0.1794
  991SOL     OW15031   5.063   6.117   9.595  0.0980 -0.0487  0.1080
  991SOL    HW115032   5.009   6.201   9.601 -1.0242 -0.8447  1.3520
  991SOL    HW215033   5.110   6.101   9.682  1.5274  0.0748 -0.6203
  992SOL     OW15034   9.261   5.103   7.631  0.6838  0.0138 -0.5294
  992SOL    HW115035   9.346   5.063   7.597  1.4670 -0.2434  1.6828
  992SOL    HW215036   9.267   5.116   7.730 -1.2775  1.4197 -0.5691
  993SOL     OW15037   1.714   6.020   9.250 -0.3753  0.3659 -0.9262
  993SOL    HW115038   1.769   6.102   9.239  0.6280 -0.0917  0.5678
  993SOL    HW215039   1.773   5.943   9.276 -1.7848  0.0832  1.6521
  994SOL     OW15040   1.356   7.660   9.110 -0.1059  0.5920 -0.0615
  994SOL    HW115041   1.357   7.679   9.012 -1.5844  1.0350  0.0084
  994SOL    HW215042   1.286   7.591   9.130 -0.5777  1.3297  0.8387
  995SOL     OW15043   4.276   7.560   8.232 -0.0040  0.8269 -0.8801
  995SOL    HW115044   4.324   7.579   8.317 -0.3448 -1.7040 -0.1107
  995SOL    HW215045   4.180   7.590   8.240 -0.6017 -1.3948  0.4097
  996SOL     OW15046   5.438   5.749   1.842 -0.0296  0.1847  0.7120
  996SOL    HW115047   5.403   5.841   1.830  0.0487  0.0953 -0.2121
  996SOL    HW215048   5.467   5.712   1.754  0.5481 -0.4765  1.1734
  997SOL     OW15049   1.131   6.652   5.179 -0.0294  0.2296  0.2644
  997SOL    HW115050   1.161   6.582   5.115  0.5210  0.0980  0.6571
  997SOL    HW215051   1.094   6.609   5.261  0.6359  0.3923  0.6566
  998SOL     OW15052   7.763   6.686   7.606 -0.2216  0.2317  0.7148
  998SOL    HW115053   7.666   6.700   7.585  0.0115  1.6100  0.4516
  998SOL    HW215054   7.815   6.765   7.572  1.0948 -0.8806  0.1340
  999SOL     OW15055   0.656   6.361   0.381 -1.0335 -0.0624  0.0236
  999SOL    HW115056   0.565   6.344   0.342 -1.4498 -0.5536  1.2016
  999SOL    HW215057   0.708   6.421   0.319 -1.5707 -1.0827 -1.4376
 1000SOL     OW15058   3.212   7.835   8.492  0.2451 -0.2859 -0.0260
 1000SOL    HW115059   3.128   7.862   8.445  1.2262  2.1709 -0.4303
 1000SOL    HW215060   3.275   7.793   8.426 -0.4770 -1.7592  0.1978
 1001SOL     OW15061   9.558   1.445   0.572 -0.1045 -0.1975 -0.0904
 1001SOL    HW115062   9.560   1.508   0.494 -4.2568  2.3943  1.7440
 1001SOL    HW215063   9.483   1.380   0.560  0.1407 -0.7019  1.0550
 1002SOL     OW15064   3.523   6.860   2.557  0.3837 -0.4845  0.0932
 1002SOL    HW115065   3.562   6.778   2.515 -0.4246 -1.4326  1.1589
 1002SOL    HW215066   3.424   6.859   2.546  0.3866  0.4990 -0.1215
 1003SOL     OW15067   3.330   2.810   6.043  0.0556 -0.5568  0.3165
 1003SOL    HW115068   3.289   2.720   6.057 -0.7625  0.2216  3.2809
 1003SOL    HW215069   3.414   2.817   6.097  1.7767 -0.5790 -2.2804
 1004SOL     OW15070   6.408   0.601   6.760 -0.2208  0.0830 -0.0456
 1004SOL    HW115071   6.338   0.556   6.816 -0.2068 -0.7003 -0.6326
 1004SOL    HW215072   6.402   0.700   6.771 -1.1917  0.0032  0.1947
 1005SOL     OW15073   9.339   1.625   8.782  0.1290 -0.1830 -0.0737
 1005SOL    HW115074   9.242   1.630   8.758  0.0656 -2.1255 -0.3274
 1005SOL    HW215075   9.386   1.708   8.751 -1.5131  0.9339  0.3781
 1006SOL     OW15076   1.558   2.154   6.194  0.2239  0.1550 -0.2166
 1006SOL    HW115077   1.609   2.193   6.117  1.9582  0.0647  0.8430
 1006SOL    HW215078   1.484   2.216   6.220  0.5742  0.9042 -0.9968
 1007SOL     OW15079   4.625   1.159   0.953 -0.0259  0.0768 -0.0027
 1007SOL    HW115080   4.656   1.178   0.860 -1.6503  0.1972 -0.5484
 1007SOL    HW215081   4.581   1.069   0.956  0.0511  0.0580  0.6479
 1008SOL     OW15082   4.715   3.075   5.476  0.2198  0.3000  0.6629
 1008SOL    HW115083   4.759   2.986   5.470 -0.0630  0.1715  0.5277
 1008SOL    HW215084   4.625   3.066   5.520  0.2184  0.5270  0.7118
 1009SOL     OW15085   7.104   6.023   2.568 -0.0527 -0.4730 -0.3123
 1009SOL    HW115086   7.008   6.028   2.596  0.2193  1.6356  0.3512
 1009SOL    HW215087   7.135   6.114   2.541  1.5962 -1.2533 -1.1245
 1010SOL     OW15088   1.562   5.930   2.618  0.6091  0.7736 -0.1946
 1010SOL    HW115089   1.652   5.964   2.592 -0.4158  2.0994 -2.1304
 1010SOL    HW215090   1.493   6.000   2.599 -0.6734  0.3544  2.6446
 1011SOL     OW15091   6.872   9.004   3.080  0.3357 -0.0393  0.4098
 1011SOL    HW115092   6.810   9.031   3.154  1.1813  0.2119  1.0339
 1011SOL    HW215093   6.886   9.081   3.018 -0.8582 -0.4337 -0.3675
 1012SOL     OW15094   6.645   9.125   5.201  0.3456 -0.3106  0.1788
 1012SOL    HW115095   6.727   9.129   5.259 -0.1398  0.4176  0.8191
 1012SOL    HW215096   6.587   9.050   5.230 -0.0225  0.2132  0.8087
 1013SOL     OW15097   2.175   0.638   3.998  0.2486  0.4141 -0.1810
 1013SOL    HW115098   2.092   0.618   3.945  0.4646  0.1617 -0.4324
 1013SOL    HW215099   2.254   0.596   3.952  0.7242  1.8832 -0.7276
 1014SOL     OW15100   3.017   4.058   6.867 -0.3634 -0.4874 -0.3417
 1014SOL    HW115101   3.020   4.034   6.964  0.5045  0.3941 -0.1451
 1014SOL    HW215102   3.068   4.143   6.852 -0.8758 -0.3753 -1.4962
 1015SOL     OW15103   1.171   1.467   3.671 -0.2801  0.1787 -0.5509
 1015SOL    HW115104   1.109   1.427   3.738 -0.7726  1.1866 -0.4018
 1015SOL    HW215105   1.122   1.535   3.616  0.5540  0.6082 -0.7709
 1016SOL     OW15106   4.863   4.063   2.121 -0.5008 -0.2045 -0.3068
 1016SOL    HW115107   4.780   4.008   2.135  1.0975 -2.4246  0.8057
 1016SOL    HW215108   4.901   4.044   2.031 -1.2901  0.9772 -0.9031
 1017SOL     OW15109   4.097   2.019   0.275 -0.1117  0.1762  0.4141
 1017SOL    HW115110   4.142   1.940   0.316  1.2422  0.9962  0.5543
 1017SOL    HW215111   4.062   2.078   0.348 -0.6856 -0.0438  0.3194
 1018SOL     OW15112   1.113   2.601   1.828 -0.3719  0.3823 -0.1476
 1018SOL    HW115113   1.124   2.585   1.730 -1.1878 -0.3868 -0.1180
 1018SOL    HW215114   1.175   2.542   1.879  1.0677  1.7782 -0.2286
 1019SOL     OW15115   7.784   8.626   8.938  0.4928  0.5571  0.3620
 1019SOL    HW115116   7.713   8.677   8.986 -0.9263  0.5282 -1.6226
 1019SOL    HW215117   7.754   8.531   8.925 -0.0821  1.0477 -2.3166
 1020SOL     OW15118   3.541   4.047   6.342  0.0479  0.6447 -0.2307
 1020SOL    HW115119   3.501   3.960   6.316  0.6754 -0.0261  0.9902
 1020SOL    HW215120   3.474   4.120   6.329 -1.0801 -0.2601  0.3956
 1021SOL     OW15121   4.610   7.591   4.247 -0.1930 -0.0835 -0.8846
 1021SOL    HW115122   4.679   7.661   4.226 -0.3006 -0.0160 -1.0130
 1021SOL    HW215123   4.526   7.611   4.197 -0.3543 -0.0827 -0.6111
 1022SOL     OW15124   7.548   3.299   4.939  0.1845  0.3589  0.1512
 1022SOL    HW115125   7.590   3.284   5.028  2.1931 -1.8955 -1.0887
 1022SOL    HW215126   7.470   3.238   4.928  0.9229 -0.5386 -0.2172
 1023SOL     OW15127   8.653   8.666   2.338  0.4668  0.1479 -0.2980
 1023SOL    HW115128   8.565   8.709   2.354  0.2720 -0.7574  1.2024
 1023SOL    HW215129   8.651   8.615   2.252 -1.4812 -2.3117  1.1185
 1024SOL     OW15130   7.763   4.537   6.232  0.3268  0.1700 -0.0669
 1024SOL    HW115131   7.711   4.456   6.206  1.8184 -0.8640  0.1271
 1024SOL    HW215132   7.795   4.584   6.150 -1.4466  1.1847 -0.2039
 1025SOL     OW15133   0.196   7.800   1.645  0.4232 -0.1944  0.1469
 1025SOL    HW115134   0.202   7.722   1.707 -0.6549 -0.3807  0.0262
 1025SOL    HW215135   0.277   7.802   1.587  0.9983 -0.5622  0.9244
 1026SOL     OW15136   0.562   7.983   8.385 -0.0297  0.0390 -0.3474
 1026SOL    HW115137   0.559   7.931   8.300  0.0658  1.0787 -1.0002
 1026SOL    HW215138   0.631   8.055   8.377  0.4470 -0.2718  0.8552
 1027SOL     OW15139   9.375   4.747   7.003 -0.0508  0.4168 -0.0123
 1027SOL    HW115140   9.468   4.721   6.979  0.5311  0.7410  1.8589
 1027SOL    HW215141   9.327   4.668   7.042 -0.5683  0.2542 -0.9535
 1028SOL     OW15142   0.240   4.016   6.097  0.5248 -0.4042  0.2335
 1028SOL    HW115143   0.268   4.107   6.129  1.9908  0.4774 -3.4020
 1028SOL    HW215144   0.147   4.022   6.059  0.3830 -0.5783  0.5489
 1029SOL     OW15145   6.221   5.623   7.407 -0.4970  0.1129 -0.3410
 1029SOL    HW115146   6.130   5.631   7.448 -1.0830 -0.7103 -1.4725
 1029SOL    HW215147   6.286   5.674   7.463 -1.6067  0.5355  0.6024
 1030SOL     OW15148   9.071   0.004   8.022 -0.3990  0.1210  0.3263
 1030SOL    HW115149   9.090  -0.090   7.994 -1.3867  0.0417 -0.0918
 1030SOL    HW215150   9.002   0.044   7.961 -0.6533  0.8105  1.0502
 1031SOL     OW15151   5.249   6.953   3.784 -0.0007  0.2491  0.0872
 1031SOL    HW115152   5.236   6.868   3.733  0.2403  0.4526 -0.3155
 1031SOL    HW215153   5.172   6.967   3.845 -0.3829  0.0990 -0.3585
 1032SOL     OW15154   4.097   2.125   4.471  0.4935 -0.7950 -0.3949
 1032SOL    HW115155   4.020   2.079   4.516  1.0237 -1.8063 -0.5244
 1032SOL    HW215156   4.128   2.071   4.393  0.3740  0.3476 -1.2568
 1033SOL     OW15157   5.074   8.998   5.188  0.1319  0.2923 -0.3336
 1033SOL    HW115158   5.082   8.970   5.092  1.8621 -1.7689  0.3549
 1033SOL    HW215159   4.980   8.985   5.219 -0.0212 -0.8455 -1.2296
 1034SOL     OW15160   7.631   9.798   8.657  0.2678 -0.1580  0.4422
 1034SOL    HW115161   7.682   9.734   8.714  2.1582 -1.7285 -2.8914
 1034SOL    HW215162   7.694   9.866   8.619 -0.8906  0.5540 -0.2487
 1035SOL     OW15163   8.855   0.884   2.216 -0.2588 -1.2783 -0.3955
 1035SOL    HW115164   8.775   0.939   2.194 -0.7879 -2.6325 -1.9312
 1035SOL    HW215165   8.923   0.942   2.262 -0.9040  0.6069 -1.7229
 1036SOL     OW15166   5.611   5.087   7.629 -0.3995 -0.2044  0.8237
 1036SOL    HW115167   5.574   5.034   7.553 -0.6432  1.1218 -0.0114
 1036SOL    HW215168   5.581   5.047   7.716  2.2632 -3.4727  0.3398
 1037SOL     OW15169   3.323   8.341   3.100  0.8517 -0.9735  0.9176
 1037SOL    HW115170   3.235   8.388   3.100 -0.0096 -2.4638  4.2161
 1037SOL    HW215171   3.397   8.407   3.088 -0.5984  0.4871 -0.1773
 1038SOL     OW15172   7.711   0.650   9.580 -0.1637  0.1376  0.5207
 1038SOL    HW115173   7.760   0.737   9.591 -1.8422  1.1417  0.2318
 1038SOL    HW215174   7.755   0.597   9.507 -0.4629  1.7429 -0.8738
 1039SOL     OW15175   4.100   5.467   0.741  0.0629 -0.2182 -0.3963
 1039SOL    HW115176   4.047   5.533   0.794  1.4845 -0.6728  1.6354
 1039SOL    HW215177   4.174   5.514   0.693 -0.0361 -0.0792 -0.4130
 1040SOL     OW15178   7.600   9.873   9.116  0.3584  0.0364 -0.0256
 1040SOL    HW115179   7.693   9.897   9.088 -0.5814  2.4827 -1.1809
 1040SOL    HW215180   7.541   9.865   9.035 -0.8207  0.2420  0.7888
 1041SOL     OW15181   2.906   6.842   4.300 -0.0532 -0.3587 -0.2438
 1041SOL    HW115182   2.985   6.803   4.252 -0.9835 -0.2044 -1.9403
 1041SOL    HW215183   2.837   6.771   4.313 -1.2253  0.3753 -2.2125
 1042SOL     OW15184   2.947   0.967   4.740 -0.2361 -0.7725  0.1091
 1042SOL    HW115185   2.907   1.051   4.777  0.5328 -0.5738  0.5206
 1042SOL    HW215186   3.009   0.989   4.665 -0.3915 -1.0177 -0.0953
 1043SOL     OW15187   0.589   7.269   2.526 -0.7011 -0.1739 -0.6717
 1043SOL    HW115188   0.578   7.258   2.625  0.3362 -0.1953 -0.5591
 1043SOL    HW215189   0.595   7.366   2.504 -2.0224 -0.1139 -0.8410
 1044SOL     OW15190   4.049   6.896   1.812 -0.3321 -0.1275 -0.1270
 1044SOL    HW115191   4.043   6.836   1.892  1.4983  1.5301  1.2930
 1044SOL    HW215192   4.138   6.885   1.769 -0.2190  1.1319 -0.2097
 1045SOL     OW15193   3.553   8.670   3.742 -0.5730 -0.3588  0.3245
 1045SOL    HW115194   3.612   8.622   3.678 -0.6836 -0.6576  0.4483
 1045SOL    HW215195   3.572   8.768   3.738 -1.0083 -0.3103 -0.6095
 1046SOL     OW15196   3.962   6.586   4.326  0.5230 -0.1636 -0.3487
 1046SOL    HW115197   4.041   6.646   4.341  0.5641  0.2075 -1.9475
 1046SOL    HW215198   3.988   6.492   4.347  1.9715 -0.3021 -2.5244
 1047SOL     OW15199   8.003   9.190   4.161  0.7029 -0.6920  0.1244
 1047SOL    HW115200   8.079   9.179   4.097  0.3308 -3.4376  0.0660
 1047SOL    HW215201   7.947   9.269   4.135  1.7353 -0.5508 -1.7042
 1048SOL     OW15202   2.324   0.629   7.099 -0.2590  0.0828 -0.3261
 1048SOL    HW115203   2.410   0.675   7.075 -0.0615 -0.0448  0.1298
 1048SOL    HW215204   2.306   0.556   7.034 -0.7093  0.9764 -1.2152
 1049SOL     OW15205   9.910   8.642   2.749 -0.7448  0.2980 -0.0719
 1049SOL    HW115206   9.849   8.669   2.675 -0.7042 -1.2339 -0.6924
 1049SOL    HW215207   9.886   8.550   2.780  0.1786  0.3431  0.8070
 1050SOL     OW15208   0.890   2.951   8.322 -0.1281 -0.3348  0.1527
 1050SOL    HW115209   0.837   2.907   8.394 -1.3170 -0.2423 -0.6569
 1050SOL    HW215210   0.844   3.036   8.294  1.1707  0.4672  0.4032
 1051SOL     OW15211   9.109   5.453   0.497 -0.6361 -0.6785 -0.3465
 1051SOL    HW115212   9.121   5.362   0.458  1.7815  0.1046 -1.5319
 1051SOL    HW215213   9.179   5.514   0.461 -2.6974  1.8718 -0.1851
 1052SOL     OW15214   4.805   1.247   1.540 -0.4872 -0.6352 -0.4718
 1052SOL    HW115215   4.776   1.245   1.636 -0.3070 -0.1417 -0.4053
 1052SOL    HW215216   4.729   1.280   1.484 -0.3823 -0.2827 -0.4138
 1053SOL     OW15217   0.844   9.052   6.467  0.2881  0.5750 -0.4949
 1053SOL    HW115218   0.935   9.074   6.432  0.0307  1.2395 -0.7776
 1053SOL    HW215219   0.795   9.137   6.487 -0.3130  0.2254 -0.4610
 1054SOL     OW15220   8.031   6.300   3.920 -0.5644 -0.1165 -0.0988
 1054SOL    HW115221   7.984   6.228   3.871 -0.9409  0.0580  0.0019
 1054SOL    HW215222   7.964   6.355   3.971  0.0113 -1.8283  2.6527
 1055SOL     OW15223   7.174   9.795   6.114  0.4205  0.8494 -0.1134
 1055SOL    HW115224   7.133   9.741   6.040 -1.1411  1.4190  0.3159
 1055SOL    HW215225   7.186   9.738   6.195 -1.9492  1.2762  0.5936
 1056SOL     OW15226   9.023   6.989   5.742  0.6167  0.1566  0.1396
 1056SOL    HW115227   9.113   7.024   5.713  0.2666  1.5872  0.7398
 1056SOL    HW215228   9.001   6.907   5.689  3.2203 -1.4449  1.4521
 1057SOL     OW15229   8.780   2.614   4.096  0.4250 -0.4151 -0.0622
 1057SOL    HW115230   8.799   2.516   4.097  0.9733 -0.3087  1.9057
 1057SOL    HW215231   8.760   2.643   4.002 -1.2175 -2.6643 -0.4459
 1058SOL     OW15232   0.015   5.605   6.885 -0.0233 -0.1577  0.2220
 1058SOL    HW115233  -0.059   5.538   6.886  0.1569 -0.3428  0.8403
 1058SOL    HW215234  -0.022   5.696   6.902 -0.3793  0.0203 -1.3691
 1059SOL     OW15235   3.789   2.957   9.550  0.5591  0.0839  0.0887
 1059SOL    HW115236   3.797   2.857   9.542 -0.5524 -0.1041  1.1512
 1059SOL    HW215237   3.805   2.984   9.645 -1.6971  0.6345  0.3537
 1060SOL     OW15238   7.286   6.698   2.544  0.1447 -0.0119 -0.0956
 1060SOL    HW115239   7.247   6.786   2.570  0.8567  0.4603 -0.6148
 1060SOL    HW215240   7.328   6.655   2.624 -1.7558 -0.7035  0.5577
 1061SOL     OW15241   3.449   4.584   9.039 -0.0127 -0.2627 -0.3721
 1061SOL    HW115242   3.506   4.525   8.983 -0.8068 -1.3782 -0.0238
 1061SOL    HW215243   3.412   4.532   9.116  0.5938  1.1065  0.8620
 1062SOL     OW15244   5.930   4.244   9.612  0.3975 -0.0023 -0.6360
 1062SOL    HW115245   6.012   4.225   9.558 -0.5235 -1.3604 -1.5682
 1062SOL    HW215246   5.850   4.242   9.553 -0.4822 -0.2047  0.5494
 1063SOL     OW15247   2.498   0.382   3.667  0.1391 -0.3712 -0.5326
 1063SOL    HW115248   2.465   0.465   3.622  0.2541  1.0119  1.8432
 1063SOL    HW215249   2.447   0.303   3.633 -2.7626  1.1750  0.0229
 1064SOL     OW15250   8.859   1.304   8.897  0.6580  0.4031  0.2134
 1064SOL    HW115251   8.888   1.212   8.925  0.5352  0.4253  0.4162
 1064SOL    HW215252   8.807   1.346   8.971 -1.1796 -0.2041 -0.7086
 1065SOL     OW15253   9.410   7.179   6.649  0.6473  0.2381  0.2366
 1065SOL    HW115254   9.420   7.207   6.744 -0.6748 -0.4024  0.5723
 1065SOL    HW215255   9.378   7.085   6.645  1.7153 -0.0958 -0.8575
 1066SOL     OW15256   3.810   8.070   7.012  0.2219 -0.2531  0.6621
 1066SOL    HW115257   3.832   8.167   7.011  1.3207 -0.5094 -2.1728
 1066SOL    HW215258   3.820   8.035   7.106 -0.5838  2.4100  1.7974
 1067SOL     OW15259   4.805   5.582   3.010  0.0475 -0.3985 -0.1555
 1067SOL    HW115260   4.723   5.562   2.956  0.3682 -2.2185 -0.0093
 1067SOL    HW215261   4.867   5.503   3.005  0.7005 -0.0020  1.7146
 1068SOL     OW15262   5.945   0.789   6.944 -0.0033  0.3162 -0.3706
 1068SOL    HW115263   5.979   0.800   6.851 -0.0489  0.8907 -0.3227
 1068SOL    HW215264   5.965   0.697   6.977  0.6113  0.3312 -0.7030
 1069SOL     OW15265   8.138   7.660   5.640 -0.1961  0.2621 -0.3589
 1069SOL    HW115266   8.189   7.656   5.554 -0.8582  1.5490 -0.8297
 1069SOL    HW215267   8.059   7.599   5.635 -0.4978  0.6849 -0.8488
 1070SOL     OW15268   9.060   5.617   4.903  0.3353 -0.4171 -0.0762
 1070SOL    HW115269   9.059   5.623   4.803 -0.2059  0.4866 -0.0165
 1070SOL    HW215270   9.120   5.687   4.940  2.9867 -2.6773  0.1136
 1071SOL     OW15271   1.103   2.951   8.154  0.2362  0.0850  0.5104
 1071SOL    HW115272   1.037   2.962   8.228  1.1808 -0.6603  1.4817
 1071SOL    HW215273   1.144   2.860   8.159  0.7209  0.2316 -0.5902
 1072SOL     OW15274   0.331   3.398   9.949 -0.4063  0.7227 -0.0424
 1072SOL    HW115275   0.415   3.447   9.926  0.7415 -0.1167  2.3343
 1072SOL    HW215276   0.260   3.464   9.973  0.0548  1.3523 -0.3937
 1073SOL     OW15277   6.453   0.361   5.628 -0.5467  0.1304  0.1789
 1073SOL    HW115278   6.384   0.288   5.622 -0.0147 -0.4704  1.2452
 1073SOL    HW215279   6.507   0.362   5.543 -1.5574  0.3027 -0.4721
 1074SOL     OW15280   2.197   0.176   7.360  0.2977  0.3564 -0.7566
 1074SOL    HW115281   2.294   0.193   7.338  0.7064  0.2347  0.8849
 1074SOL    HW215282   2.180   0.202   7.455 -1.0617 -0.5370 -0.7494
 1075SOL     OW15283   8.078   4.838   6.357  0.3188 -0.4269 -0.2590
 1075SOL    HW115284   8.089   4.877   6.266  2.4334  0.5708  0.3867
 1075SOL    HW215285   8.024   4.900   6.414  1.5910  0.4255  0.0416
 1076SOL     OW15286   6.765   8.779   4.598 -0.3508 -0.1514  0.0690
 1076SOL    HW115287   6.737   8.827   4.681 -0.6870  0.6186 -0.4900
 1076SOL    HW215288   6.720   8.689   4.595 -0.4526 -0.1191  0.6419
 1077SOL     OW15289   7.585   1.573   0.591  0.4893 -0.4369  0.0721
 1077SOL    HW115290   7.578   1.548   0.495 -0.1738 -2.7430  0.6820
 1077SOL    HW215291   7.665   1.632   0.605  1.8286 -1.8312 -1.5311
 1078SOL     OW15292   0.901   1.574   0.609  0.1784 -0.1367  0.0718
 1078SOL    HW115293   0.903   1.537   0.702 -2.3757  0.7384  0.5383
 1078SOL    HW215294   0.986   1.552   0.562  1.4368 -0.7688  2.5488
 1079SOL     OW15295   7.455   4.188   7.558  0.5189  0.1186 -0.1020
 1079SOL    HW115296   7.441   4.270   7.613 -2.4358 -0.2544 -0.2457
 1079SOL    HW215297   7.483   4.112   7.617 -0.0901  0.3804  0.5293
 1080SOL     OW15298   9.147   7.252   5.955  0.2249 -0.4136 -0.0677
 1080SOL    HW115299   9.198   7.287   5.876 -0.1405 -4.4919 -2.2848
 1080SOL    HW215300   9.050   7.249   5.932 -0.1355  0.1733  1.3199
 1081SOL     OW15301   0.115   0.864   4.904  0.0222 -0.6470 -0.0615
 1081SOL    HW115302   0.040   0.803   4.881  0.4548 -0.6274 -1.6211
 1081SOL    HW215303   0.167   0.827   4.981 -1.1520 -1.0203  0.5532
 1082SOL     OW15304   4.959   7.887   8.029  0.4533 -0.1668 -0.1036
 1082SOL    HW115305   5.001   7.837   8.105 -0.4913  0.1975  0.6663
 1082SOL    HW215306   4.864   7.860   8.020  0.8812 -1.1241 -1.9641
 1083SOL     OW15307   4.542   0.849   5.904  0.3331 -0.1499 -0.1928
 1083SOL    HW115308   4.602   0.806   5.837 -0.6620 -0.6543 -0.7730
 1083SOL    HW215309   4.447   0.826   5.883 -0.1964  1.9851 -0.2633
 1084SOL     OW15310   0.928   1.476   0.852 -0.4250 -0.6208  0.6556
 1084SOL    HW115311   1.023   1.447   0.837  0.0363  2.1880 -2.3818
 1084SOL    HW215312   0.924   1.537   0.931  0.8276  1.4822 -0.8607
 1085SOL     OW15313   2.489   1.807   0.979  0.3914 -0.5450 -0.1528
 1085SOL    HW115314   2.425   1.771   0.912 -1.7121 -0.6121  1.8156
 1085SOL    HW215315   2.510   1.903   0.957 -0.5007 -0.4793 -0.7364
 1086SOL     OW15316   9.181   2.723   2.418 -0.0347 -0.2235 -0.8157
 1086SOL    HW115317   9.158   2.783   2.341 -1.5210 -1.5169 -1.3951
 1086SOL    HW215318   9.249   2.656   2.389 -1.8307 -1.7670 -1.4737
 1087SOL     OW15319   9.329   4.193   4.807  0.1929 -0.2285  0.0367
 1087SOL    HW115320   9.328   4.094   4.794 -1.6734 -0.1813 -0.2879
 1087SOL    HW215321   9.339   4.238   4.719 -0.6858 -0.0992  0.0035
 1088SOL     OW15322   8.340   9.829   5.536  0.0568 -0.0211  0.5490
 1088SOL    HW115323   8.280   9.909   5.543 -2.2342 -1.7384  1.3961
 1088SOL    HW215324   8.307   9.771   5.461 -0.2916 -1.7378  2.0111
 1089SOL     OW15325   3.558   4.347   1.601 -0.6356  0.2241  0.3051
 1089SOL    HW115326   3.488   4.419   1.611  0.7620  1.6353  0.1639
 1089SOL    HW215327   3.619   4.370   1.525 -0.7650 -1.6386 -0.3721
 1090SOL     OW15328   2.695   8.970   2.242  0.0620  0.1745  0.1020
 1090SOL    HW115329   2.659   8.877   2.252 -0.1320  0.2521  0.1321
 1090SOL    HW215330   2.742   8.997   2.326  1.3156 -0.4066 -0.3922
 1091SOL     OW15331   6.833   8.328   6.237  0.0661  0.2614  0.3803
 1091SOL    HW115332   6.836   8.334   6.138  1.2704 -0.2241  0.3754
 1091SOL    HW215333   6.909   8.271   6.269 -0.1589  0.6267  1.5916
 1092SOL     OW15334   7.750   3.605   9.160 -0.1047  0.2492 -0.6175
 1092SOL    HW115335   7.774   3.665   9.084  0.0948  0.1697 -0.6179
 1092SOL    HW215336   7.656   3.622   9.187 -0.4191 -0.2744 -1.3855
 1093SOL     OW15337   2.277   8.153   6.360  1.1562  0.3875  0.5160
 1093SOL    HW115338   2.321   8.204   6.286 -0.7654 -1.1787 -1.7690
 1093SOL    HW215339   2.205   8.209   6.400  1.5107  0.8563  0.4997
 1094SOL     OW15340   8.866   6.852   3.737  0.1837 -0.3075 -0.2556
 1094SOL    HW115341   8.912   6.783   3.682  1.5706  0.6188 -0.2857
 1094SOL    HW215342   8.808   6.808   3.805 -0.0684 -1.4786 -1.2224
 1095SOL     OW15343   3.935   0.512   6.825  0.1755 -0.2402  0.1227
 1095SOL    HW115344   4.031   0.526   6.801  0.3717  1.8204  1.8949
 1095SOL    HW215345   3.888   0.600   6.825 -1.8349 -1.2876 -1.1435
 1096SOL     OW15346   9.327   4.681   0.064  0.2707  0.6852  0.6169
 1096SOL    HW115347   9.309   4.604   0.125 -1.4411 -0.6863 -1.5178
 1096SOL    HW215348   9.372   4.647  -0.020 -2.1419  1.7033 -1.1368
 1097SOL     OW15349   0.554   7.363   0.416  0.3757  0.7704 -0.0573
 1097SOL    HW115350   0.585   7.290   0.477 -0.9330  0.8551  0.7104
 1097SOL    HW215351   0.524   7.324   0.329  2.2598  0.6535 -0.6862
 1098SOL     OW15352   0.274   7.538   9.265  0.0981  0.1678 -0.1125
 1098SOL    HW115353   0.320   7.474   9.326 -1.1361 -0.8367 -0.2146
 1098SOL    HW215354   0.242   7.489   9.184 -2.8206  0.4596  0.8333
 1099SOL     OW15355   0.694   0.842   2.291  0.9426  0.1940  0.2093
 1099SOL    HW115356   0.720   0.841   2.387  2.5301 -1.5004 -0.2111
 1099SOL    HW215357   0.754   0.904   2.241 -0.5301  1.8485  0.4715
 1100SOL     OW15358   0.678   5.041   5.127  0.3967 -0.1761  0.2981
 1100SOL    HW115359   0.707   5.105   5.056 -0.9432  0.2693  0.1387
 1100SOL    HW215360   0.711   4.949   5.105  2.0841  0.4051  0.3852
 1101SOL     OW15361   8.422   4.147   9.652 -0.1998  0.4789  0.0763
 1101SOL    HW115362   8.324   4.165   9.663  0.2253  1.6545  2.2238
 1101SOL    HW215363   8.474   4.230   9.672  1.3002 -0.4551  0.1483
 1102SOL     OW15364   4.053   5.729   0.547 -0.2150  0.2406 -0.0038
 1102SOL    HW115365   4.147   5.734   0.578  0.2232 -1.1734 -1.0340
 1102SOL    HW215366   4.015   5.821   0.539  0.8343  0.7803  1.1195
 1103SOL     OW15367   5.340   8.962   6.190 -0.0291  0.8015  0.0530
 1103SOL    HW115368   5.281   8.891   6.227 -0.4424  0.4884 -1.1940
 1103SOL    HW215369   5.432   8.925   6.177  0.1053  0.8984  0.7090
 1104SOL     OW15370   9.904   1.674   9.728 -0.2749  0.3743 -0.5660
 1104SOL    HW115371   9.961   1.668   9.646 -1.3000  1.5326 -1.3730
 1104SOL    HW215372   9.854   1.589   9.740  1.9302 -0.8385  0.3961
 1105SOL     OW15373   0.703   9.118   8.389 -0.5389 -0.2199  0.4114
 1105SOL    HW115374   0.801   9.115   8.408 -0.2771 -2.7727 -1.0597
 1105SOL    HW215375   0.678   9.207   8.352  0.8834  1.0452  2.3967
 1106SOL     OW15376   5.332   4.866   9.633 -0.0719 -0.1346 -0.3961
 1106SOL    HW115377   5.289   4.808   9.702  0.3129  0.7050  0.5571
 1106SOL    HW215378   5.293   4.958   9.638  1.4676  0.5044  0.1308
 1107SOL     OW15379   8.004   6.791   4.226  0.0363 -0.3856  0.2341
 1107SOL    HW115380   8.033   6.876   4.181  1.2066 -0.2273  1.2415
 1107SOL    HW215381   8.070   6.768   4.298 -1.6629 -0.7734  1.6889
 1108SOL     OW15382   9.897   2.669   9.368 -0.0632 -0.1517 -0.5311
 1108SOL    HW115383   9.803   2.634   9.362 -0.7932  1.6624 -0.0441
 1108SOL    HW215384   9.919   2.687   9.464  0.0728  1.2873 -0.8253
 1109SOL     OW15385   9.989   2.319   9.960 -0.0885 -0.0652 -0.2916
 1109SOL    HW115386  10.015   2.380  10.034  0.1581  0.4842 -0.8332
 1109SOL    HW215387   9.900   2.278   9.981 -0.3698  0.6678 -0.0513
 1110SOL     OW15388   0.768   1.705   9.903 -0.1895  0.2557  0.1597
 1110SOL    HW115389   0.716   1.716   9.819 -1.9513  2.5602  1.4895
 1110SOL    HW215390   0.841   1.638   9.889 -0.1173  0.9999 -3.3317
 1111SOL     OW15391   7.628   4.838   5.625 -0.2897 -0.5418  0.2078
 1111SOL    HW115392   7.574   4.890   5.559  0.3244  0.8805  0.8167
 1111SOL    HW215393   7.717   4.815   5.585  0.3017  0.8037  0.7170
 1112SOL     OW15394   9.348   8.438   9.794  0.2223  0.2353 -0.0579
 1112SOL    HW115395   9.369   8.430   9.892  1.1963  0.3288 -0.2521
 1112SOL    HW215396   9.304   8.354   9.762  1.2600 -0.3862  0.1381
 1113SOL     OW15397   0.633   8.552  10.059 -0.3559  0.1936 -0.2545
 1113SOL    HW115398   0.585   8.475  10.018 -0.5412  0.7022 -1.0028
 1113SOL    HW215399   0.666   8.613   9.987  3.8066 -1.5370  0.0267
 1114SOL     OW15400   5.152   8.764   3.495 -0.3435  0.2295 -0.4802
 1114SOL    HW115401   5.069   8.750   3.548  1.4938 -1.2074  2.1425
 1114SOL    HW215402   5.153   8.703   3.416 -1.3394 -0.4246  0.0130
 1115SOL     OW15403   0.628   8.938   7.636  0.6190  0.5245  0.0190
 1115SOL    HW115404   0.678   8.864   7.683 -0.8892 -1.2259 -1.0423
 1115SOL    HW215405   0.530   8.924   7.648  0.3121  2.2383 -0.4165
 1116SOL     OW15406   3.086   9.796   1.737 -0.0674  0.3281 -0.2608
 1116SOL    HW115407   3.019   9.867   1.755  0.4479  0.8526 -0.3723
 1116SOL    HW215408   3.040   9.708   1.728 -0.4270  0.2022  2.5841
 1117SOL     OW15409   4.814   4.812   0.013 -0.0763 -0.0164  0.0156
 1117SOL    HW115410   4.813   4.893   0.071 -1.0508 -0.3118  0.4203
 1117SOL    HW215411   4.893   4.755   0.036 -0.4052 -0.0856  0.9870
 1118SOL     OW15412   1.425   4.234   7.438 -0.7480 -0.3102  0.3002
 1118SOL    HW115413   1.353   4.169   7.460 -1.9425  1.3418  1.3677
 1118SOL    HW215414   1.385   4.322   7.413  0.8813  0.5186  0.5098
 1119SOL     OW15415   0.338   5.422   4.365  0.4945 -0.1707  0.2923
 1119SOL    HW115416   0.347   5.343   4.426  0.5558 -0.6987 -0.3898
 1119SOL    HW215417   0.382   5.502   4.406  0.9721 -0.6482  0.7160
 1120SOL     OW15418   5.965   6.484   1.808  0.4340 -0.3990  0.2910
 1120SOL    HW115419   6.003   6.504   1.718 -0.1677 -2.2310 -0.3926
 1120SOL    HW215420   5.874   6.444   1.798  0.1436 -0.1534  1.7368
 1121SOL     OW15421   1.920   4.889   7.130  0.6673 -0.0958 -0.2980
 1121SOL    HW115422   1.956   4.796   7.132  2.1529  0.4920  1.0208
 1121SOL    HW215423   1.844   4.898   7.194  0.3272 -0.4670 -0.6464
 1122SOL     OW15424   2.095   1.646   1.405  0.5784 -0.7835 -0.5433
 1122SOL    HW115425   2.120   1.658   1.309 -1.3980 -0.1266 -0.9949
 1122SOL    HW215426   2.171   1.678   1.463  1.4963 -0.5036 -1.8753
 1123SOL     OW15427   0.211   2.777   7.510 -0.1094  0.5259  0.1709
 1123SOL    HW115428   0.245   2.836   7.436  1.4164 -0.5757 -0.0216
 1123SOL    HW215429   0.288   2.727   7.550 -1.2059 -0.2736  1.2766
 1124SOL     OW15430   2.591   7.482   1.813  0.7181 -0.3898 -0.2976
 1124SOL    HW115431   2.515   7.418   1.827 -0.8912  1.8267  1.3642
 1124SOL    HW215432   2.650   7.482   1.894 -0.5231  1.8181  0.6402
 1125SOL     OW15433   2.925   7.118   1.805 -1.1235  0.5899  0.2500
 1125SOL    HW115434   2.874   7.112   1.891  0.4428  1.5119  1.2868
 1125SOL    HW215435   2.875   7.176   1.741 -1.2764  1.7140  1.3434
 1126SOL     OW15436   9.824   1.481   5.934 -0.0600 -0.5542 -0.8993
 1126SOL    HW115437   9.738   1.491   5.884  0.1719 -0.6412 -1.3262
 1126SOL    HW215438   9.824   1.542   6.013  0.0396  0.4694 -1.6625
 1127SOL     OW15439   5.880   2.832   0.766  0.0975  0.3266 -0.1609
 1127SOL    HW115440   5.980   2.835   0.755 -0.0163 -0.5403 -1.4902
 1127SOL    HW215441   5.837   2.845   0.677 -0.9986  1.3812  0.5122
 1128SOL     OW15442   6.673   8.537   4.566 -0.0786  0.2526 -0.2378
 1128SOL    HW115443   6.603   8.495   4.508 -0.0501  0.8130 -0.6713
 1128SOL    HW215444   6.751   8.474   4.573 -0.4418 -0.1900 -0.0967
 1129SOL     OW15445   9.342   4.046   5.539  0.9754  0.2311 -0.1843
 1129SOL    HW115446   9.288   4.094   5.470 -0.2423  1.3311  1.4902
 1129SOL    HW215447   9.404   4.112   5.583  1.3529 -0.3453  0.1486
 1130SOL     OW15448   0.061   2.230   0.236 -0.2151 -0.5299  0.2495
 1130SOL    HW115449  -0.002   2.167   0.191  0.1350  0.5710 -1.8192
 1130SOL    HW215450   0.154   2.214   0.204 -0.0837  0.8752 -0.1159
 1131SOL     OW15451   1.882   3.684   6.483 -0.5085 -0.4345  0.1997
 1131SOL    HW115452   1.943   3.728   6.417  0.9963 -1.2478  1.0115
 1131SOL    HW215453   1.815   3.629   6.434 -1.2429  1.2477 -0.7505
 1132SOL     OW15454   5.225   3.238   0.688  0.0863 -1.2861 -0.1523
 1132SOL    HW115455   5.179   3.180   0.756  0.1967 -0.9229  0.2336
 1132SOL    HW215456   5.159   3.266   0.618  0.0567 -1.9588 -0.3963
 1133SOL     OW15457   9.982   8.789   7.950 -0.6359  0.5841  0.0809
 1133SOL    HW115458   9.998   8.773   8.047 -0.3661  0.1070 -0.0401
 1133SOL    HW215459   9.984   8.887   7.931  0.8797  0.5978  0.2808
 1134SOL     OW15460   8.320   2.483   5.255 -0.2021 -0.1281 -0.0430
 1134SOL    HW115461   8.412   2.446   5.238 -0.1828 -0.3699  0.5670
 1134SOL    HW215462   8.271   2.423   5.318 -0.5614  0.3259  0.1130
 1135SOL     OW15463   0.659   1.982   4.111  0.5038 -0.6140  0.4397
 1135SOL    HW115464   0.740   2.021   4.155  1.1991 -1.5978  0.0337
 1135SOL    HW215465   0.665   1.995   4.012 -1.7704  2.9514  0.6807
 1136SOL     OW15466   1.946   4.802   2.162 -0.0289 -0.0077 -0.2853
 1136SOL    HW115467   1.913   4.892   2.190  1.2925 -0.0470  1.4121
 1136SOL    HW215468   1.898   4.774   2.079 -0.6920  2.1113 -0.6441
 1137SOL     OW15469   1.632   6.449   9.844  0.3660 -0.0438 -0.3580
 1137SOL    HW115470   1.585   6.416   9.762  0.5725  0.4126 -0.6613
 1137SOL    HW215471   1.601   6.541   9.866  1.0142  0.2076 -0.4833
 1138SOL     OW15472   3.778   8.374   2.128  0.6498  0.1355  0.5470
 1138SOL    HW115473   3.692   8.422   2.149  0.6876 -0.0553  1.1427
 1138SOL    HW215474   3.773   8.281   2.163  1.2092  0.2097  0.8125
 1139SOL     OW15475   6.894   2.492   8.989 -0.0991 -0.1709 -0.2284
 1139SOL    HW115476   6.891   2.480   8.890 -2.8764 -0.0302 -0.2023
 1139SOL    HW215477   6.905   2.403   9.033 -0.7419 -0.4611 -0.6340
 1140SOL     OW15478   9.456   4.781   1.301 -0.2851 -0.1458 -0.3510
 1140SOL    HW115479   9.476   4.858   1.363  1.2958 -0.0142 -0.9905
 1140SOL    HW215480   9.445   4.698   1.355 -0.8125  0.3170  0.2607
 1141SOL     OW15481   8.712   0.524   9.460 -0.6515 -0.1078 -0.1634
 1141SOL    HW115482   8.715   0.502   9.362 -1.8345  0.0151 -0.2419
 1141SOL    HW215483   8.779   0.468   9.509  0.4246  0.3114 -1.1297
 1142SOL     OW15484   2.977   7.767   1.868 -0.3030  0.4335  0.0478
 1142SOL    HW115485   3.065   7.719   1.874 -0.5125 -0.0895 -0.9368
 1142SOL    HW215486   2.913   7.728   1.934 -0.0863  0.1820  0.1112
 1143SOL     OW15487   6.571   5.131   2.611  0.2060 -0.0508 -0.4218
 1143SOL    HW115488   6.646   5.196   2.600  1.0065 -1.3250 -2.7295
 1143SOL    HW215489   6.606   5.044   2.645 -0.0553 -0.9595 -2.4162
 1144SOL     OW15490   3.709   3.456   6.001 -0.3303  0.1836 -0.1299
 1144SOL    HW115491   3.682   3.461   6.097 -0.7976  1.6175 -0.3199
 1144SOL    HW215492   3.633   3.422   5.947  0.4073 -2.0320  0.1827
 1145SOL     OW15493   0.569   1.719   3.567 -0.5670 -0.0451  0.3844
 1145SOL    HW115494   0.529   1.666   3.643  0.6723 -1.5289  0.0113
 1145SOL    HW215495   0.525   1.692   3.481 -0.2220 -0.1852  0.2496
 1146SOL     OW15496   8.437   7.048   5.370  0.5290 -0.8115 -0.0755
 1146SOL    HW115497   8.467   7.122   5.310  0.8830 -2.3321 -1.8310
 1146SOL    HW215498   8.337   7.044   5.371  0.5328 -1.7051 -1.7650
 1147SOL     OW15499   0.983   9.223   0.681  0.2040  0.0677  0.0030
 1147SOL    HW115500   1.012   9.173   0.762 -1.1315 -1.9448 -0.7030
 1147SOL    HW215501   0.885   9.208   0.666  0.3399  0.7628 -1.7238
 1148SOL     OW15502   1.558   2.797   7.631 -0.0235  0.1980  0.1922
 1148SOL    HW115503   1.538   2.705   7.598  0.6259 -0.1779  0.8470
 1148SOL    HW215504   1.653   2.802   7.661  0.1984  1.3196 -0.6453
 1149SOL     OW15505   4.965   9.093   5.568 -0.0879  0.1259  0.4762
 1149SOL    HW115506   4.894   9.112   5.635 -0.5966  0.1241 -0.0581
 1149SOL    HW215507   4.983   8.995   5.564  2.2879  0.3805  2.9820
 1150SOL     OW15508   6.352   7.402   4.005  0.0752 -0.8108  0.8245
 1150SOL    HW115509   6.434   7.405   4.062 -0.2434  0.1207  1.2363
 1150SOL    HW215510   6.376   7.368   3.914  1.2205  1.0361  0.4268
 1151SOL     OW15511   6.888   8.334   4.242 -0.0403 -0.7058  0.0514
 1151SOL    HW115512   6.840   8.405   4.190 -0.9341 -1.7123 -0.5089
 1151SOL    HW215513   6.982   8.326   4.210 -0.1886 -0.3721 -0.4661
 1152SOL     OW15514   7.944   5.805   7.239 -0.0289  0.5077  0.2127
 1152SOL    HW115515   8.005   5.757   7.176 -1.5599 -0.3411 -0.6635
 1152SOL    HW215516   7.918   5.745   7.314  0.5688  1.0201  0.8403
 1153SOL     OW15517   2.751   0.272   2.608  0.2459 -0.0139  0.0973
 1153SOL    HW115518   2.726   0.180   2.638  0.4373  0.2333  1.0557
 1153SOL    HW215519   2.703   0.339   2.665  2.7816  0.4618  1.7460
 1154SOL     OW15520   1.548   0.200   0.493 -0.5098 -0.0904  0.1258
 1154SOL    HW115521   1.481   0.128   0.476 -2.1297  1.2808  0.5254
 1154SOL    HW215522   1.596   0.223   0.408 -1.8952  0.2365 -0.5722
 1155SOL     OW15523   1.544   9.654   8.771  0.5732 -0.3712 -0.7361
 1155SOL    HW115524   1.466   9.717   8.767  0.0303 -0.8418  1.7137
 1155SOL    HW215525   1.626   9.706   8.794  0.1877 -0.4935  0.9490
 1156SOL     OW15526   3.795   7.462   3.385 -0.2406 -0.2238 -0.1935
 1156SOL    HW115527   3.822   7.529   3.316  1.5388 -2.1711 -1.4546
 1156SOL    HW215528   3.877   7.428   3.431 -1.3239  0.2061  2.1192
 1157SOL     OW15529   9.671   5.447   6.234 -0.3225  1.1591  0.0754
 1157SOL    HW115530   9.594   5.422   6.292 -0.5191  0.8308 -0.3246
 1157SOL    HW215531   9.683   5.378   6.162  0.9603  0.6812  0.7222
 1158SOL     OW15532   7.806   1.648   7.453  0.4883 -0.5474 -0.5003
 1158SOL    HW115533   7.771   1.741   7.465 -2.4463 -1.8107  1.5022
 1158SOL    HW215534   7.902   1.645   7.480  0.4830  1.7918 -0.1122
 1159SOL     OW15535   5.072   3.577   8.886 -0.0139 -0.1776  0.4512
 1159SOL    HW115536   4.995   3.628   8.846  0.4009  0.7750  0.8482
 1159SOL    HW215537   5.049   3.550   8.979 -0.3241 -0.9359  0.1623
 1160SOL     OW15538   1.464   4.586   9.064 -0.3336 -0.6516 -0.0149
 1160SOL    HW115539   1.386   4.553   9.116 -0.1845  1.5657  1.6712
 1160SOL    HW215540   1.458   4.685   9.052  0.2295 -0.9397 -3.2685
 1161SOL     OW15541   0.805   0.591   3.745 -0.0349  0.0106  0.2217
 1161SOL    HW115542   0.842   0.683   3.760 -0.1925  0.1553 -0.2762
 1161SOL    HW215543   0.811   0.568   3.648 -0.7210 -0.1954  0.2235
 1162SOL     OW15544   7.661   8.708   4.971 -0.3805 -0.3486 -0.2092
 1162SOL    HW115545   7.751   8.684   4.935  0.2363  1.6489 -0.0551
 1162SOL    HW215546   7.590   8.658   4.920  0.8025 -2.2270 -0.0714
 1163SOL     OW15547   5.875   2.075   9.088 -0.3860 -0.1775 -0.3541
 1163SOL    HW115548   5.876   2.089   9.187 -0.6965 -1.3874 -0.1760
 1163SOL    HW215549   5.805   2.009   9.064  0.8055 -1.1490 -1.2081
 1164SOL     OW15550   9.023   3.705   6.872 -0.3643 -0.1599 -0.0679
 1164SOL    HW115551   9.104   3.763   6.861 -1.7622  1.6290 -1.1379
 1164SOL    HW215552   9.018   3.641   6.795  1.1708 -1.7098  1.1025
 1165SOL     OW15553   1.358   4.389   6.100  0.3979 -0.1165 -0.2457
 1165SOL    HW115554   1.306   4.470   6.071  1.2113  0.3136 -0.5119
 1165SOL    HW215555   1.296   4.311   6.105 -1.0079  1.1232  2.8387
 1166SOL     OW15556   7.621   4.204   4.400  0.5726  0.0553  0.2304
 1166SOL    HW115557   7.614   4.111   4.363 -0.8123  0.3045 -0.1530
 1166SOL    HW215558   7.577   4.208   4.489 -0.5490  0.6660 -0.3516
 1167SOL     OW15559   1.072   2.304   5.636  0.2250 -0.1168 -0.5697
 1167SOL    HW115560   1.058   2.247   5.555 -2.7831  0.1760 -0.3041
 1167SOL    HW215561   1.077   2.245   5.717  2.1124 -0.3244 -0.8114
 1168SOL     OW15562   3.560   7.842   8.730  0.2364 -0.4828  0.1161
 1168SOL    HW115563   3.646   7.890   8.711  1.0316 -0.4036  3.6132
 1168SOL    HW215564   3.491   7.907   8.761 -0.3872 -0.8586 -0.4700
 1169SOL     OW15565   8.831   0.984   6.779  0.0712  0.1445 -0.0426
 1169SOL    HW115566   8.920   0.954   6.812 -0.4369 -0.1425  1.0757
 1169SOL    HW215567   8.841   1.026   6.689  1.0140 -1.9126 -0.9224
 1170SOL     OW15568   0.006   9.080   9.694 -0.3242  0.3081 -0.5073
 1170SOL    HW115569   0.043   9.171   9.680  1.4648  0.3041  3.6395
 1170SOL    HW215570  -0.078   9.085   9.748 -0.4712 -0.4553 -0.6541
 1171SOL     OW15571   9.190   0.371   5.895  0.5797 -0.3542  0.7292
 1171SOL    HW115572   9.176   0.387   5.797  0.0370  0.0589  0.8703
 1171SOL    HW215573   9.288   0.357   5.912  0.7744  0.3219  0.2333
 1172SOL     OW15574   1.979   7.536   6.496 -0.7152  0.1175  0.2424
 1172SOL    HW115575   1.898   7.594   6.507 -0.8885  0.0144 -0.4483
 1172SOL    HW215576   1.981   7.499   6.403  0.9240  1.3008 -0.2154
 1173SOL     OW15577   4.646   1.490   5.397  0.0182 -0.0120 -0.1308
 1173SOL    HW115578   4.658   1.452   5.489  1.8115  1.0788  0.0978
 1173SOL    HW215579   4.689   1.429   5.330  2.2432  1.1738  0.1670
 1174SOL     OW15580   2.143   3.336   9.848 -0.3388  0.2023  0.1746
 1174SOL    HW115581   2.109   3.243   9.862  1.6408 -0.6186 -0.3713
 1174SOL    HW215582   2.233   3.333   9.805  0.6229  2.3441  1.9656
 1175SOL     OW15583   9.986   9.578   8.722  0.4613 -0.0137  0.0526
 1175SOL    HW115584  10.023   9.595   8.631  0.3222  1.0326  0.1785
 1175SOL    HW215585   9.946   9.663   8.758 -3.0347 -1.3519 -0.5220
 1176SOL     OW15586   4.586   5.126   6.368 -0.0797  0.3999  0.5384
 1176SOL    HW115587   4.619   5.035   6.393 -0.5817 -0.1819 -0.8371
 1176SOL    HW215588   4.492   5.137   6.400  0.0737  0.5484  0.9456
 1177SOL     OW15589   1.751   9.231   1.479 -0.3334 -0.0355 -0.0771
 1177SOL    HW115590   1.780   9.297   1.408 -0.7053  0.6036  0.3567
 1177SOL    HW215591   1.681   9.171   1.442  1.0289 -1.1382 -0.9268
 1178SOL     OW15592   7.344   2.553   5.203  0.2916 -0.3686  0.0754
 1178SOL    HW115593   7.443   2.556   5.195  0.2912 -0.1864  0.1612
 1178SOL    HW215594   7.303   2.585   5.117  0.3119 -1.3442 -0.3147
 1179SOL     OW15595   4.604   9.996   8.717 -0.5540  0.4637  0.2539
 1179SOL    HW115596   4.527  10.058   8.701 -1.3285 -1.1738 -2.7924
 1179SOL    HW215597   4.689  10.041   8.690 -1.2615 -0.1807 -3.3414
 1180SOL     OW15598   3.916   1.945   4.535 -0.1761 -0.5805 -0.4812
 1180SOL    HW115599   3.931   1.861   4.484  0.5517 -1.2466  0.8231
 1180SOL    HW215600   3.824   1.980   4.514  0.1329 -0.8114 -2.2673
 1181SOL     OW15601   0.599   0.221   3.195  0.0550  0.3738 -0.0284
 1181SOL    HW115602   0.502   0.217   3.219  0.4088  0.4398  1.4461
 1181SOL    HW215603   0.632   0.315   3.202  0.1947  0.3762 -0.6765
 1182SOL     OW15604   1.773   2.818   9.783 -0.2279 -0.5282  0.5106
 1182SOL    HW115605   1.818   2.835   9.695 -3.0146  0.0368 -0.8544
 1182SOL    HW215606   1.790   2.723   9.811 -0.6018 -1.1893 -1.4309
 1183SOL     OW15607   6.834   2.516   0.366  0.1370 -0.0868 -0.0447
 1183SOL    HW115608   6.907   2.448   0.364 -0.4077 -0.6899  0.4361
 1183SOL    HW215609   6.873   2.606   0.385  0.3768 -0.9151  3.6423
 1184SOL     OW15610   5.100   0.071   7.513 -0.0546  0.1322 -0.1547
 1184SOL    HW115611   5.049   0.033   7.590  0.9335  0.4534  0.6656
 1184SOL    HW215612   5.097   0.171   7.517  0.6868  0.1517 -0.0671
 1185SOL     OW15613   5.222   2.671   0.456 -0.0212 -0.1076 -0.9986
 1185SOL    HW115614   5.212   2.577   0.424  2.8290 -0.5415 -0.7615
 1185SOL    HW215615   5.290   2.674   0.529  0.0662  2.1764 -1.1509
 1186SOL     OW15616   0.159   3.097   6.908  0.1149  0.3231 -0.2917
 1186SOL    HW115617   0.178   2.999   6.903 -0.7265  0.1425 -0.0612
 1186SOL    HW215618   0.062   3.113   6.892  0.7147  1.3739 -3.0595
 1187SOL     OW15619   9.255   9.993   3.905 -0.1497  0.1388 -0.4106
 1187SOL    HW115620   9.174   9.949   3.944 -0.3032  0.5812 -0.2211
 1187SOL    HW215621   9.229  10.045   3.824  0.0518 -0.2145 -0.7036
 1188SOL     OW15622   9.277   1.254   9.496 -0.0401 -0.1481 -0.3140
 1188SOL    HW115623   9.270   1.166   9.449 -1.4442 -0.4617  0.4537
 1188SOL    HW215624   9.309   1.324   9.432  0.8987 -1.1717 -0.9751
 1189SOL     OW15625   0.549   8.570   7.617  0.0026  0.1534 -0.4413
 1189SOL    HW115626   0.635   8.613   7.645 -0.4857  1.3184 -0.6808
 1189SOL    HW215627   0.526   8.600   7.525 -0.6906 -0.1237 -0.3583
 1190SOL     OW15628   1.189   6.079   7.561  0.2286 -0.4546  0.5852
 1190SOL    HW115629   1.159   6.097   7.655  3.0138  0.0185  1.4202
 1190SOL    HW215630   1.210   6.165   7.516 -0.7402 -0.7102 -0.3661
 1191SOL     OW15631   1.149   9.412   1.515 -0.3708  0.5078 -0.4893
 1191SOL    HW115632   1.215   9.386   1.585 -0.9949 -0.7363 -0.3513
 1191SOL    HW215633   1.070   9.351   1.518  0.4198 -0.7583 -3.4853
 1192SOL     OW15634   3.600   7.988   8.333  0.3431 -0.0251  0.6353
 1192SOL    HW115635   3.620   7.890   8.331 -1.3746 -0.3771 -1.3943
 1192SOL    HW215636   3.530   8.007   8.402 -2.0236 -0.8502 -1.4278
 1193SOL     OW15637   1.326   2.094   7.789 -0.0334  0.2662 -0.2374
 1193SOL    HW115638   1.347   2.068   7.695 -0.0330  2.0974 -0.7584
 1193SOL    HW215639   1.252   2.161   7.790 -0.5839 -0.3463  1.1193
 1194SOL     OW15640   4.834   0.583   6.205  0.5932  0.1118 -0.1742
 1194SOL    HW115641   4.828   0.644   6.126  1.4237 -2.7915 -2.5473
 1194SOL    HW215642   4.764   0.512   6.198  1.0580 -0.5239  1.4237
 1195SOL     OW15643   1.132   9.192   6.772 -0.6079 -0.6267  0.0833
 1195SOL    HW115644   1.061   9.251   6.734 -0.3193 -0.9993 -1.0583
 1195SOL    HW215645   1.208   9.185   6.707 -0.2562 -1.5537  0.5829
 1196SOL     OW15646   4.954   3.185   8.898  0.1845  0.1399  0.2487
 1196SOL    HW115647   4.934   3.255   8.828  0.1749  0.9904  1.0946
 1196SOL    HW215648   4.872   3.170   8.954  0.2403 -0.4354  0.1765
 1197SOL     OW15649   8.574   3.720   6.883  0.1978 -0.2655  0.3953
 1197SOL    HW115650   8.489   3.759   6.917  0.8282  0.0943  1.5842
 1197SOL    HW215651   8.645   3.790   6.880  0.4293 -0.5301 -0.7115
 1198SOL     OW15652   4.301   6.543   1.087 -0.0239  0.4940 -0.5848
 1198SOL    HW115653   4.331   6.637   1.100 -0.4391  0.3906  1.1926
 1198SOL    HW215654   4.291   6.525   0.989 -0.8857  2.5863 -0.9040
 1199SOL     OW15655   5.770   3.668   1.469 -0.4307  0.6136 -0.3258
 1199SOL    HW115656   5.672   3.657   1.452 -0.2803  1.8843 -2.2181
 1199SOL    HW215657   5.819   3.586   1.437 -0.9606 -0.5124  1.6812
 1200SOL     OW15658   0.469   1.666   1.415  0.0270  0.0327 -0.5474
 1200SOL    HW115659   0.476   1.631   1.322 -0.0095 -3.0611  0.5422
 1200SOL    HW215660   0.416   1.602   1.470 -1.2807  2.5734  1.2605
 1201SOL     OW15661   9.159   9.797   9.264  0.6344 -0.0398  0.3761
 1201SOL    HW115662   9.171   9.880   9.319  1.2593  0.7028 -0.8772
 1201SOL    HW215663   9.147   9.822   9.168 -2.5435 -1.2098  0.4233
 1202SOL     OW15664   4.730   9.782   0.930 -0.1183  0.1032 -0.0805
 1202SOL    HW115665   4.776   9.865   0.962  2.7986 -0.7036 -1.9353
 1202SOL    HW215666   4.798   9.718   0.895 -2.6512 -1.4940 -2.2842
 1203SOL     OW15667   6.866   3.932   2.492 -0.5893  0.3998  0.1478
 1203SOL    HW115668   6.782   3.942   2.546 -0.4070  0.7603  0.3619
 1203SOL    HW215669   6.844   3.941   2.395 -0.8523  0.1688  0.1873
 1204SOL     OW15670   3.449   3.364   6.565  0.1832  0.1250 -0.3071
 1204SOL    HW115671   3.479   3.274   6.598  1.7553  0.8367  0.2372
 1204SOL    HW215672   3.526   3.412   6.523 -0.9090  0.7789 -1.6109
 1205SOL     OW15673   4.058   3.084   2.496 -0.1132  0.3935 -0.4061
 1205SOL    HW115674   4.095   3.162   2.445  0.7023 -0.4032 -1.0363
 1205SOL    HW215675   3.964   3.105   2.524 -0.0046  1.4878 -0.8244
 1206SOL     OW15676   8.618   7.407   8.692  0.0647  0.2296  0.2315
 1206SOL    HW115677   8.670   7.463   8.628  0.8680 -1.2206 -0.4100
 1206SOL    HW215678   8.673   7.389   8.773 -0.2235  0.4392  0.4758
 1207SOL     OW15679   4.542   9.489   7.796  0.0686 -0.0748 -0.1628
 1207SOL    HW115680   4.513   9.570   7.847 -0.6290 -0.2045 -0.3500
 1207SOL    HW215681   4.494   9.409   7.831 -0.5930 -0.1295 -1.1941
 1208SOL     OW15682   0.453   9.454   2.101  0.1531  0.3529  0.2122
 1208SOL    HW115683   0.395   9.513   2.157 -1.2906 -1.8432  1.0524
 1208SOL    HW215684   0.543   9.445   2.144 -0.5297 -0.2888  1.4982
 1209SOL     OW15685   8.488   7.799  10.026 -0.4792 -0.0529  0.3765
 1209SOL    HW115686   8.529   7.766  10.111 -0.5493 -0.2999  0.3141
 1209SOL    HW215687   8.495   7.899  10.022  1.2732 -0.1748 -0.2186
 1210SOL     OW15688   9.911   3.258   9.024 -0.1077 -0.7357 -0.3641
 1210SOL    HW115689   9.972   3.276   9.102 -0.2977 -0.0379 -0.3730
 1210SOL    HW215690   9.966   3.229   8.945  0.0082 -2.3041  0.2743
 1211SOL     OW15691   2.175   3.939   3.001  0.6891 -1.0520 -0.0032
 1211SOL    HW115692   2.126   3.862   3.042  0.2645 -1.5815 -1.4662
 1211SOL    HW215693   2.182   3.925   2.902  0.8635  0.6390 -0.2473
 1212SOL     OW15694   0.382   8.328   0.727  0.5505 -0.4274  0.2599
 1212SOL    HW115695   0.474   8.355   0.754  0.8832 -0.0853 -1.1928
 1212SOL    HW215696   0.387   8.263   0.651 -0.4151 -0.0154 -0.1591
 1213SOL     OW15697   2.512   2.195   5.547  0.1889 -0.4190  0.0422
 1213SOL    HW115698   2.586   2.225   5.487 -0.2583  1.3436  0.3527
 1213SOL    HW215699   2.551   2.150   5.628  0.9733  1.1476  0.5632
 1214SOL     OW15700   4.240   4.519   5.535  0.0077 -0.7238 -0.4184
 1214SOL    HW115701   4.157   4.545   5.485 -2.0260 -2.5568  1.8929
 1214SOL    HW215702   4.243   4.420   5.546  1.5666 -0.5220  1.1352
 1215SOL     OW15703   1.000   9.238   5.854 -0.4836 -0.0219  0.0978
 1215SOL    HW115704   1.012   9.161   5.790  1.5950 -0.5067  1.0183
 1215SOL    HW215705   0.976   9.320   5.802  1.6307 -0.2977 -1.4381
 1216SOL     OW15706   7.474   1.148   1.636  0.1014 -0.0664  0.0590
 1216SOL    HW115707   7.403   1.206   1.597 -0.1008 -0.3753 -0.0412
 1216SOL    HW215708   7.432   1.069   1.680  0.3511  0.0825  0.5624
 1217SOL     OW15709   2.948   5.949   1.331 -0.0644  0.7062  1.0033
 1217SOL    HW115710   2.872   5.966   1.269 -0.0276 -0.1826  0.6954
 1217SOL    HW215711   3.028   6.003   1.303  0.4510 -0.9094 -0.7177
 1218SOL     OW15712   0.034   8.186   4.812 -0.1670  0.5069  0.1517
 1218SOL    HW115713  -0.019   8.187   4.727 -1.8128 -0.3941  1.1578
 1218SOL    HW215714   0.053   8.091   4.838  2.0001  0.8035 -0.2154
 1219SOL     OW15715   4.011   4.418   9.340 -0.8211 -0.2269 -0.2477
 1219SOL    HW115716   3.971   4.470   9.416  0.4246 -0.1951  0.3976
 1219SOL    HW215717   3.980   4.323   9.343 -1.4205 -0.0275 -0.1794
 1220SOL     OW15718   0.897   8.037   5.941 -0.0164 -0.3971 -0.2922
 1220SOL    HW115719   0.929   7.957   5.891 -0.3324  1.1305 -2.9992
 1220SOL    HW215720   0.807   8.065   5.906  1.2536  2.7080 -1.1996
 1221SOL     OW15721   7.565   5.281   9.083 -0.1727  0.3009 -0.2935
 1221SOL    HW115722   7.630   5.285   9.007 -1.3357 -0.5234 -1.3389
 1221SOL    HW215723   7.600   5.336   9.159  2.0827 -0.6424 -0.5825
 1222SOL     OW15724   7.254   7.266   6.302  0.6766  0.5997 -0.0342
 1222SOL    HW115725   7.235   7.339   6.367  1.1382  0.5457  0.1598
 1222SOL    HW215726   7.292   7.187   6.350  0.4584  0.3362 -0.2834
 1223SOL     OW15727   5.022   3.707   6.251 -0.9358  0.2874 -0.1186
 1223SOL    HW115728   5.033   3.613   6.282  0.4750  0.5929  0.3313
 1223SOL    HW215729   4.925   3.729   6.246 -1.2913 -1.3523 -0.7204
 1224SOL     OW15730   7.381   3.384   1.824  0.4144 -0.0735  0.0965
 1224SOL    HW115731   7.382   3.310   1.891  0.7237 -0.4102 -0.2791
 1224SOL    HW215732   7.296   3.383   1.773  0.8030 -0.7485 -0.5474
 1225SOL     OW15733   6.669   9.715   3.886 -0.5120 -0.0187 -0.3359
 1225SOL    HW115734   6.671   9.765   3.800 -0.5490  0.8158  0.1455
 1225SOL    HW215735   6.711   9.625   3.873 -1.5509 -0.3428 -1.4984
 1226SOL     OW15736   9.569   4.662   4.385  0.3768 -0.0887  1.0394
 1226SOL    HW115737   9.571   4.760   4.409  1.4892 -0.3021  1.8450
 1226SOL    HW215738   9.660   4.624   4.394 -0.1029 -1.2661  0.9399
 1227SOL     OW15739   9.217   0.223   0.850 -0.3365 -0.0791 -0.1652
 1227SOL    HW115740   9.160   0.173   0.915 -0.4767  2.2792  1.5637
 1227SOL    HW215741   9.171   0.308   0.824  2.0369  1.4800  0.6603
 1228SOL     OW15742   2.714   4.933   9.324 -0.3146  0.3562  0.3433
 1228SOL    HW115743   2.757   4.852   9.286  1.8643  1.2561  0.8108
 1228SOL    HW215744   2.748   4.949   9.417 -0.4404  1.9977  0.1247
 1229SOL     OW15745   2.165   5.777   9.884  0.1591 -0.2535 -0.1434
 1229SOL    HW115746   2.184   5.821   9.797 -0.7474  0.8989  0.2314
 1229SOL    HW215747   2.248   5.732   9.917  0.6686 -0.1869 -1.2930
 1230SOL     OW15748   9.805   2.852   1.914 -0.2683  0.0590  0.2414
 1230SOL    HW115749   9.791   2.937   1.862  1.6758 -0.1029 -0.5868
 1230SOL    HW215750   9.794   2.871   2.012 -2.4212  0.6929 -0.0934
 1231SOL     OW15751   1.632   5.213   7.568 -0.0878 -0.0921  0.0473
 1231SOL    HW115752   1.664   5.149   7.497 -0.2434 -1.1861  0.9438
 1231SOL    HW215753   1.533   5.222   7.562  0.1794  2.0776 -1.7198
 1232SOL     OW15754   8.270   2.756   2.715 -0.4053 -0.5464  0.3677
 1232SOL    HW115755   8.269   2.659   2.691  0.8043 -0.5026  0.1431
 1232SOL    HW215756   8.322   2.769   2.799  0.9406  0.1373 -0.5666
 1233SOL     OW15757   8.404   9.106   2.903 -0.0807  0.3942  0.5073
 1233SOL    HW115758   8.439   9.013   2.897  0.2477  0.6545 -2.1426
 1233SOL    HW215759   8.308   9.104   2.930 -0.9344 -0.8938 -2.4656
 1234SOL     OW15760   4.780   4.062   5.455  0.0571  0.8731 -0.3531
 1234SOL    HW115761   4.696   4.079   5.404  0.9086  0.1968 -2.0111
 1234SOL    HW215762   4.801   4.142   5.512 -0.5992  1.8922 -1.5202
 1235SOL     OW15763   3.511   3.880   0.084  0.3547 -0.1354  0.1211
 1235SOL    HW115764   3.515   3.801   0.022  2.2384 -0.4926  0.6720
 1235SOL    HW215765   3.580   3.947   0.056 -0.2105  0.6440  0.5812
 1236SOL     OW15766   8.492   4.374   9.785  0.7872  0.0776 -0.3332
 1236SOL    HW115767   8.515   4.351   9.879  1.9063 -1.3274 -0.9288
 1236SOL    HW215768   8.456   4.467   9.781 -0.3820 -0.2592  1.6365
 1237SOL     OW15769   5.342   0.327   2.816 -0.2061 -0.0070  0.2488
 1237SOL    HW115770   5.423   0.374   2.851  0.5352 -0.9050 -0.2552
 1237SOL    HW215771   5.260   0.371   2.853  0.5150  0.4892  1.2831
 1238SOL     OW15772   1.740   6.476   5.157 -0.2243 -0.6935  0.4134
 1238SOL    HW115773   1.726   6.537   5.079 -0.4837 -1.0545  0.1758
 1238SOL    HW215774   1.809   6.515   5.218  0.1611 -0.5320 -0.1243
 1239SOL     OW15775   0.045   2.159   9.304  0.5224 -0.6854 -0.5586
 1239SOL    HW115776   0.107   2.220   9.255  1.1105 -1.5856 -0.9318
 1239SOL    HW215777  -0.036   2.142   9.247  0.2488 -0.0852 -0.3614
 1240SOL     OW15778   5.728   9.450   3.249 -0.2445  0.0496  0.4436
 1240SOL    HW115779   5.630   9.456   3.266 -0.2718 -0.9230  0.6505
 1240SOL    HW215780   5.777   9.465   3.335 -0.3098 -2.3318  0.9330
 1241SOL     OW15781   2.836   2.693   8.548 -0.0122  0.0430 -0.0988
 1241SOL    HW115782   2.769   2.765   8.569 -1.6287 -1.8347  1.3135
 1241SOL    HW215783   2.923   2.716   8.591 -0.3369  1.4387 -0.1438
 1242SOL     OW15784   8.330   7.464   0.792  0.0840 -0.9463  0.1597
 1242SOL    HW115785   8.305   7.430   0.883 -1.2213 -2.2638 -0.6698
 1242SOL    HW215786   8.348   7.386   0.732  2.5363 -0.0690 -0.2937
 1243SOL     OW15787   6.112   2.627   0.072 -0.7410 -0.0554 -0.0265
 1243SOL    HW115788   6.124   2.709   0.127  0.3088 -0.3248  0.1526
 1243SOL    HW215789   6.166   2.552   0.110 -0.2437 -0.3336 -1.2428
 1244SOL     OW15790   6.111   7.705   5.950  0.5979 -0.5145 -0.5546
 1244SOL    HW115791   6.169   7.786   5.940 -0.4393  0.2783 -0.1468
 1244SOL    HW215792   6.015   7.732   5.945  0.2505 -1.7600 -0.6964
 1245SOL     OW15793   3.885   9.879   4.361 -0.7244  0.0341  0.3888
 1245SOL    HW115794   3.921   9.952   4.420 -0.5744 -0.0869  0.4485
 1245SOL    HW215795   3.819   9.824   4.412  0.7685 -1.2140  1.0433
 1246SOL     OW15796   3.694   6.604   3.131  0.1480  0.4669  0.5142
 1246SOL    HW115797   3.772   6.596   3.070 -0.3586  3.4175 -0.5879
 1246SOL    HW215798   3.726   6.633   3.222  0.3897  1.2192  0.1935
 1247SOL     OW15799   7.058   0.405   6.686 -0.0649  0.1547 -0.7132
 1247SOL    HW115800   7.118   0.479   6.715 -1.3676  0.5654  0.9721
 1247SOL    HW215801   7.075   0.323   6.741  0.6640 -0.5083 -1.8942
 1248SOL     OW15802   9.442   3.414   8.886 -0.6202  0.1093  0.0213
 1248SOL    HW115803   9.348   3.392   8.911 -0.4404 -1.0093 -0.2828
 1248SOL    HW215804   9.502   3.394   8.964 -0.5132 -0.0652 -0.1050
 1249SOL     OW15805   9.363   7.076   8.818 -0.1120  0.3661  0.0681
 1249SOL    HW115806   9.393   7.017   8.893 -1.4702 -0.3576  0.0578
 1249SOL    HW215807   9.354   7.023   8.734 -1.6139  0.4987  0.1224
 1250SOL     OW15808   3.829   3.505   9.079 -0.5180 -0.5399 -0.4836
 1250SOL    HW115809   3.904   3.500   9.144  0.2675  3.2552 -0.9469
 1250SOL    HW215810   3.866   3.515   8.986 -1.5822 -0.4254 -0.9028
 1251SOL     OW15811   3.464   9.831   7.734  0.3906  0.1879 -0.1253
 1251SOL    HW115812   3.395   9.789   7.674  0.4747 -1.1191  0.6703
 1251SOL    HW215813   3.472   9.777   7.817  0.2284  2.0274  1.1083
 1252SOL     OW15814   0.264   9.599   4.733  0.3825 -0.3003  0.1735
 1252SOL    HW115815   0.276   9.698   4.740  0.8244 -0.3351 -0.0561
 1252SOL    HW215816   0.178   9.573   4.776  0.9346  0.0219  1.4982
 1253SOL     OW15817   2.373   9.727   0.350  0.0160 -0.0689  0.1081
 1253SOL    HW115818   2.392   9.697   0.443 -0.9173  1.0128  0.6622
 1253SOL    HW215819   2.454   9.713   0.293 -0.5960 -4.2389  0.1512
 1254SOL     OW15820   6.670   2.002   1.368 -0.8116  0.1746  0.5810
 1254SOL    HW115821   6.661   1.920   1.311 -0.8951  0.7961 -0.3069
 1254SOL    HW215822   6.721   1.979   1.451  0.8414 -0.3584 -0.5484
 1255SOL     OW15823   1.728   1.848   7.123  0.5266  0.2444  0.3501
 1255SOL    HW115824   1.763   1.919   7.184  1.0797 -0.3037  0.6686
 1255SOL    HW215825   1.641   1.813   7.158 -0.8484  2.2474 -0.9180
 1256SOL     OW15826   9.348   1.270   9.762  0.2161 -0.2187  0.2120
 1256SOL    HW115827   9.340   1.366   9.787  1.2383 -0.0760 -0.0127
 1256SOL    HW215828   9.319   1.257   9.667  1.2123  0.0620 -0.1347
 1257SOL     OW15829   3.616   0.166   1.848  0.1589 -0.0605 -0.6068
 1257SOL    HW115830   3.538   0.220   1.881  0.2078 -0.4970  0.2276
 1257SOL    HW215831   3.626   0.084   1.904 -0.8075 -1.6886 -2.8060
 1258SOL     OW15832   1.401   9.708   2.477  0.0086  0.6687  0.4615
 1258SOL    HW115833   1.378   9.613   2.497  0.9128  0.2153 -0.6120
 1258SOL    HW215834   1.328   9.768   2.511 -1.8200 -0.5962 -1.1427
 1259SOL     OW15835   3.637   0.947   5.798 -0.0167  0.8302 -0.1531
 1259SOL    HW115836   3.672   0.867   5.846 -0.9365 -0.9316 -2.3541
 1259SOL    HW215837   3.709   1.016   5.791  0.7293  0.3161  1.9224
 1260SOL     OW15838   9.089   0.042   5.517  0.1421 -0.2663  0.4806
 1260SOL    HW115839   9.083   0.071   5.421  2.6666 -2.6405 -0.4557
 1260SOL    HW215840   9.086   0.122   5.576  0.7565  1.4276 -1.7156
 1261SOL     OW15841   3.155   0.564   4.144  0.1573 -0.6857  0.2272
 1261SOL    HW115842   3.181   0.566   4.241 -3.3658  1.7718  1.2476
 1261SOL    HW215843   3.055   0.566   4.136  0.3783 -0.2398 -3.4834
 1262SOL     OW15844   6.287   8.538   5.173  0.8022  0.1661  0.0427
 1262SOL    HW115845   6.345   8.565   5.097  1.4400  0.9327  0.8018
 1262SOL    HW215846   6.327   8.568   5.259  0.5459 -1.4870  0.7658
 1263SOL     OW15847   0.900   8.563   4.178  0.3749  0.5481 -0.2195
 1263SOL    HW115848   0.991   8.605   4.185  0.0412  1.0409  1.5975
 1263SOL    HW215849   0.831   8.635   4.176 -0.0378  0.1488 -0.2980
 1264SOL     OW15850   0.398   6.690   2.082  0.4069 -0.1391  0.3000
 1264SOL    HW115851   0.484   6.735   2.058  0.8566 -0.7199  0.8186
 1264SOL    HW215852   0.344   6.750   2.141  0.7892 -0.0854  0.5919
 1265SOL     OW15853   5.802   1.739   0.690 -0.3229 -0.5369 -0.0671
 1265SOL    HW115854   5.846   1.649   0.680 -0.8975 -0.9340  0.8979
 1265SOL    HW215855   5.792   1.781   0.600  1.0878 -0.8907 -0.4157
 1266SOL     OW15856   2.098   8.157   8.824 -0.4191 -0.5583  0.1746
 1266SOL    HW115857   2.047   8.211   8.890 -0.2287  0.5832 -0.5836
 1266SOL    HW215858   2.128   8.216   8.749  1.9329 -1.2259  0.5572
 1267SOL     OW15859   9.409   4.624   7.306 -0.2786 -0.3263  0.0477
 1267SOL    HW115860   9.340   4.554   7.286  0.5637 -1.3290  0.6076
 1267SOL    HW215861   9.382   4.675   7.388  0.5112 -1.9218  1.3399
 1268SOL     OW15862   6.822   4.446   9.117  0.3355  0.5158 -0.1703
 1268SOL    HW115863   6.819   4.349   9.093  0.2325  0.2805  0.8040
 1268SOL    HW215864   6.892   4.491   9.062 -0.2631  0.0814 -1.3037
 1269SOL     OW15865   2.125   3.998   5.483  0.1960  0.7210 -0.6173
 1269SOL    HW115866   2.035   3.957   5.490  0.1189  1.0500  0.4008
 1269SOL    HW215867   2.147   4.047   5.567  1.7530 -0.2221 -0.4488
 1270SOL     OW15868   9.760   5.229   4.804 -0.7834 -0.2646 -0.5766
 1270SOL    HW115869   9.689   5.246   4.873 -1.8300 -1.8328 -1.2417
 1270SOL    HW215870   9.737   5.278   4.720  0.9737  2.4145  0.4197
 1271SOL     OW15871   0.204   7.955   4.111 -0.3202  0.2782 -0.0909
 1271SOL    HW115872   0.116   7.997   4.089 -0.4942 -0.1627 -0.2391
 1271SOL    HW215873   0.262   7.956   4.030 -0.5959 -0.4368 -0.3017
 1272SOL     OW15874   4.927   9.809   2.390 -0.0679 -0.0472  0.3965
 1272SOL    HW115875   4.938   9.716   2.355 -0.2048  0.5032 -1.1745
 1272SOL    HW215876   5.017   9.850   2.407  0.1080  0.6719 -2.0861
 1273SOL     OW15877   9.000   1.180   0.501  0.0939  0.2801 -0.3014
 1273SOL    HW115878   9.008   1.082   0.521 -0.5822  0.4380  0.8012
 1273SOL    HW215879   9.010   1.195   0.403  1.7177 -0.7392 -0.3163
 1274SOL     OW15880   3.577   2.291   7.764  0.0265  0.5376  0.1086
 1274SOL    HW115881   3.632   2.229   7.820 -0.8609  0.4726  0.9214
 1274SOL    HW215882   3.637   2.352   7.712  0.8576  1.0107  1.5960
 1275SOL     OW15883   8.757   7.929   4.978  0.4601  0.0035 -0.2247
 1275SOL    HW115884   8.810   8.015   4.979  1.1456 -0.4169  2.7677
 1275SOL    HW215885   8.752   7.891   5.070 -0.4066 -2.8711 -1.3921
 1276SOL     OW15886   5.043   3.394   2.646  0.2172 -0.2184  0.0835
 1276SOL    HW115887   4.981   3.316   2.644  0.7744 -0.6686  0.0337
 1276SOL    HW215888   4.994   3.477   2.622 -0.5596 -0.4307  0.9057
 1277SOL     OW15889   3.778   2.183   3.986 -0.2389  0.0295 -0.3630
 1277SOL    HW115890   3.863   2.206   3.940  0.0045  0.6824  0.4066
 1277SOL    HW215891   3.705   2.245   3.955  0.3570  1.7368  1.5141
 1278SOL     OW15892   6.293   8.775   3.637  0.7616  0.2492 -0.1406
 1278SOL    HW115893   6.350   8.719   3.697  0.3012 -2.6561 -2.3174
 1278SOL    HW215894   6.347   8.853   3.604  2.6755 -1.0189 -0.1062
 1279SOL     OW15895   1.510   4.141   3.915  0.2465  0.3353  0.1704
 1279SOL    HW115896   1.528   4.043   3.907  0.8375  0.5329 -1.0891
 1279SOL    HW215897   1.451   4.170   3.839 -2.6016  0.3626  2.3317
 1280SOL     OW15898   1.610   4.506   8.053  0.1847 -0.1378  0.3918
 1280SOL    HW115899   1.630   4.532   8.147  0.5754  0.7720  0.0594
 1280SOL    HW215900   1.695   4.504   8.000 -0.2949  1.5193 -0.4731
 1281SOL     OW15901   7.638   1.301   5.407  0.1730  0.4728  0.0910
 1281SOL    HW115902   7.608   1.359   5.331  0.7125  0.0683 -0.4330
 1281SOL    HW215903   7.733   1.322   5.428  0.1835  0.2034  0.3054
 1282SOL     OW15904   1.029   3.255   7.216  0.1335 -0.2313  0.4367
 1282SOL    HW115905   0.966   3.178   7.212 -0.2126  0.0869 -0.2925
 1282SOL    HW215906   0.991   3.327   7.273 -0.2732  0.0597 -0.2015
 1283SOL     OW15907   7.172   6.318   7.221  0.9630  0.6108 -0.6003
 1283SOL    HW115908   7.090   6.325   7.165 -0.1634 -1.8729  0.6273
 1283SOL    HW215909   7.231   6.246   7.185  0.5127 -0.5993  1.0028
 1284SOL     OW15910   7.465   4.053   0.385  0.5092 -0.1618 -0.1056
 1284SOL    HW115911   7.375   4.009   0.389  0.5650 -0.1412  1.5329
 1284SOL    HW215912   7.536   3.983   0.376  0.3885 -0.2115 -0.7402
 1285SOL     OW15913   6.329   4.875   1.191 -0.2425  0.2938 -0.4902
 1285SOL    HW115914   6.263   4.940   1.231  0.8162 -0.2072  2.1941
 1285SOL    HW215915   6.422   4.903   1.217  0.3105 -1.4637 -0.5366
 1286SOL     OW15916   1.958   7.996   3.810  0.3625 -0.2535 -0.3136
 1286SOL    HW115917   2.034   8.019   3.871  1.5671 -1.1290 -1.4927
 1286SOL    HW215918   1.872   8.001   3.862  1.3884 -1.2030  1.5131
 1287SOL     OW15919   8.690   8.369   6.796 -0.0536  0.0705 -0.0275
 1287SOL    HW115920   8.640   8.453   6.817 -0.3517 -0.5748  1.9205
 1287SOL    HW215921   8.777   8.369   6.847  0.8293  0.0644 -1.5021
 1288SOL     OW15922   2.891   7.554   6.846  0.1921  0.1655  0.3046
 1288SOL    HW115923   2.822   7.515   6.786  0.2478  0.6576 -0.0833
 1288SOL    HW215924   2.852   7.572   6.936  0.2309 -1.0107  0.5627
 1289SOL     OW15925   8.333   8.996   8.074 -0.0356  0.2245  0.2299
 1289SOL    HW115926   8.404   8.970   8.008  0.3830 -0.4054  0.9150
 1289SOL    HW215927   8.281   8.915   8.100 -0.1331  0.4534  0.7406
 1290SOL     OW15928   0.497   4.117   3.923 -0.7077  0.0528 -0.0019
 1290SOL    HW115929   0.495   4.099   4.021 -0.5995 -0.7440 -0.1455
 1290SOL    HW215930   0.422   4.179   3.899 -0.8551  0.0912  0.5475
 1291SOL     OW15931   1.692   9.525   5.969 -0.1302 -0.1799  0.4436
 1291SOL    HW115932   1.694   9.569   6.059 -0.3850  1.6327 -0.4324
 1291SOL    HW215933   1.769   9.556   5.915 -0.6129 -0.4008 -0.3769
 1292SOL     OW15934   2.287   6.129   0.425  0.3601 -0.0992  0.0412
 1292SOL    HW115935   2.341   6.052   0.460 -1.8100 -1.3812  0.6933
 1292SOL    HW215936   2.190   6.104   0.426 -0.4716  2.9984  1.1027
 1293SOL     OW15937   1.902   6.278   2.253  0.0461 -0.0357  0.2366
 1293SOL    HW115938   1.991   6.297   2.295  1.1322  0.7698 -2.3515
 1293SOL    HW215939   1.868   6.360   2.207 -0.8401 -1.0539 -0.9521
 1294SOL     OW15940   9.674   6.106   7.634  0.3149  0.0088 -0.0540
 1294SOL    HW115941   9.663   6.020   7.584 -0.0574  0.3421 -0.5534
 1294SOL    HW215942   9.766   6.111   7.672  0.2517 -0.7264  0.2036
 1295SOL     OW15943   8.643   5.900   0.439 -0.3344 -0.4736  0.2017
 1295SOL    HW115944   8.654   5.811   0.397 -1.3162  0.2011 -1.5093
 1295SOL    HW215945   8.589   5.960   0.380  0.7025  1.4158  1.0890
 1296SOL     OW15946   8.405   6.222   6.962  0.2160  0.4140 -0.4458
 1296SOL    HW115947   8.385   6.272   7.047 -0.0338  0.3854 -0.4866
 1296SOL    HW215948   8.371   6.128   6.970  1.7846 -0.1252  0.1063
 1297SOL     OW15949   2.584   4.233   3.200  0.3244 -0.1253  0.3773
 1297SOL    HW115950   2.674   4.190   3.190  0.1895 -0.5876  1.1587
 1297SOL    HW215951   2.514   4.167   3.174  0.2253  0.3920 -0.7069
 1298SOL     OW15952   3.739   8.630   7.063 -0.2713  0.1508 -0.2434
 1298SOL    HW115953   3.721   8.717   7.109  1.2119  0.2457  0.1845
 1298SOL    HW215954   3.756   8.646   6.966 -0.3921  0.2882 -0.2427
 1299SOL     OW15955   5.131   3.089   0.877 -0.0581 -0.1730 -0.0341
 1299SOL    HW115956   5.200   3.050   0.938 -0.6854 -1.4394 -0.1273
 1299SOL    HW215957   5.044   3.097   0.926 -0.1580  0.3190 -0.2820
 1300SOL     OW15958   9.463   8.235   7.900  0.2450  0.0152  0.3346
 1300SOL    HW115959   9.527   8.205   7.971 -0.2013  0.5935  0.9838
 1300SOL    HW215960   9.490   8.325   7.866  0.7244 -0.4625 -0.5605
 1301SOL     OW15961   9.457   1.606   4.958 -0.1683  0.4889  0.0586
 1301SOL    HW115962   9.447   1.510   4.985  0.7149  0.0892 -0.9779
 1301SOL    HW215963   9.403   1.624   4.877 -1.7082  1.3280  1.2523
 1302SOL     OW15964   1.466   3.859   6.767 -0.1576 -0.4819  0.3441
 1302SOL    HW115965   1.458   3.834   6.864 -2.2191  1.3324  0.6822
 1302SOL    HW215966   1.397   3.811   6.714  0.8531 -1.3351 -0.2201
 1303SOL     OW15967   8.570   7.448   9.776 -0.1286  0.3189 -0.4635
 1303SOL    HW115968   8.557   7.355   9.811 -2.2943  0.4302 -0.8616
 1303SOL    HW215969   8.481   7.494   9.770  0.8810  2.3247 -0.5491
 1304SOL     OW15970   1.146   8.286   0.475 -0.4151 -0.7294 -0.0813
 1304SOL    HW115971   1.075   8.306   0.407  0.4179 -0.1863 -0.7960
 1304SOL    HW215972   1.175   8.370   0.520 -0.0465 -0.9150  0.0341
 1305SOL     OW15973   4.444   0.362   1.616  0.1933  0.4124  0.2379
 1305SOL    HW115974   4.363   0.414   1.590  1.5115  1.9558 -0.9309
 1305SOL    HW215975   4.481   0.315   1.536  1.5190  1.2608  0.3352
 1306SOL     OW15976   0.477   5.491   5.368  0.1143  0.0545 -0.4061
 1306SOL    HW115977   0.472   5.505   5.269 -1.3193  0.6873 -0.2577
 1306SOL    HW215978   0.566   5.521   5.402 -0.1910  1.8874 -1.1966
 1307SOL     OW15979   1.537   6.857   7.999 -0.8774  0.0716 -0.0163
 1307SOL    HW115980   1.495   6.918   8.065 -0.9009  0.1152 -0.0706
 1307SOL    HW215981   1.623   6.897   7.966 -0.3761 -0.3974  0.7052
 1308SOL     OW15982   1.194   6.780   3.723  0.3443  0.1459  0.1296
 1308SOL    HW115983   1.190   6.687   3.688 -0.1090 -0.2455  1.2038
 1308SOL    HW215984   1.145   6.785   3.810 -0.7836  1.6839 -0.5738
 1309SOL     OW15985   3.124   6.193  10.022 -0.2666  0.2524  0.7574
 1309SOL    HW115986   3.192   6.248   9.974 -0.5104  1.5070  1.7954
 1309SOL    HW215987   3.093   6.243  10.103 -3.5974  0.4285 -0.5505
 1310SOL     OW15988   9.329   4.908   6.779  0.5900  0.1760 -0.6290
 1310SOL    HW115989   9.378   4.986   6.819 -1.8386  0.5557  1.7296
 1310SOL    HW215990   9.338   4.828   6.838  2.1312 -1.0709 -2.4856
 1311SOL     OW15991   3.488   5.578   7.616 -0.2013  0.0374 -0.0343
 1311SOL    HW115992   3.532   5.549   7.701  1.5907 -0.8196 -1.2237
 1311SOL    HW215993   3.460   5.497   7.564 -0.6425  0.5425 -0.5843
 1312SOL     OW15994   1.007   5.308   4.807  0.0330 -0.3406  0.1651
 1312SOL    HW115995   0.995   5.381   4.739  0.2336 -0.5596 -0.1103
 1312SOL    HW215996   1.079   5.334   4.871  0.3535 -0.4434 -0.1455
 1313SOL     OW15997   7.864   7.883   3.879 -0.0251  0.2886  0.1195
 1313SOL    HW115998   7.913   7.809   3.926 -2.8895 -1.6689  0.2114
 1313SOL    HW215999   7.887   7.970   3.921  3.2249 -0.5650  0.2014
 1314SOL     OW16000   1.837   4.373   2.340  0.1158  0.1898  0.5977
 1314SOL    HW116001   1.750   4.421   2.332  0.2248  1.0289  3.6939
 1314SOL    HW216002   1.911   4.432   2.306 -0.3960 -0.1799 -1.2014
 1315SOL     OW16003   1.310   2.981   3.186  0.0691 -0.1889 -0.6881
 1315SOL    HW116004   1.328   2.907   3.122 -0.1642  0.8922 -2.0379
 1315SOL    HW216005   1.229   3.032   3.157 -0.0570  0.3118  0.4858
 1316SOL     OW16006   3.365   4.454   5.362  0.9599 -0.3097  0.4812
 1316SOL    HW116007   3.301   4.475   5.287  0.8882  2.3311  1.2362
 1316SOL    HW216008   3.321   4.390   5.425  0.4248 -1.3256 -0.8842
 1317SOL     OW16009   6.915   6.335   7.094 -0.2386  0.2581  0.1040
 1317SOL    HW116010   6.854   6.339   7.014 -0.7582  3.5202  0.6079
 1317SOL    HW216011   6.902   6.416   7.150  1.8491 -0.8547  2.2837
 1318SOL     OW16012   9.225   6.204   6.292  0.0453  0.1004 -0.2525
 1318SOL    HW116013   9.317   6.216   6.330 -0.4930  1.9767  0.4950
 1318SOL    HW216014   9.229   6.217   6.193  0.1792  2.7091  0.0706
 1319SOL     OW16015   9.858   4.907   8.088 -0.3347  0.1954 -0.0126
 1319SOL    HW116016   9.939   4.893   8.145  1.3062  0.9121 -2.0990
 1319SOL    HW216017   9.808   4.987   8.120 -1.3807 -1.3880  2.5298
 1320SOL     OW16018   3.065   2.743   8.684 -0.6936  0.1846  0.0015
 1320SOL    HW116019   3.159   2.719   8.707 -0.8187  0.0654  0.3962
 1320SOL    HW216020   3.002   2.698   8.748 -1.1126 -1.1112 -1.3095
 1321SOL     OW16021   3.875   3.342  10.028 -0.3550 -0.0460  0.3704
 1321SOL    HW116022   3.787   3.378   9.996  0.1003  2.0661  1.4069
 1321SOL    HW216023   3.863   3.248  10.061 -2.3780  0.4677  1.1581
 1322SOL     OW16024   2.817   6.527   5.568  0.4294  0.0492 -0.4216
 1322SOL    HW116025   2.824   6.432   5.598 -1.4003 -0.1609 -0.6095
 1322SOL    HW216026   2.870   6.540   5.484  2.6754 -0.1997  0.9163
 1323SOL     OW16027   6.450   0.048   6.934 -0.2503  0.2031  0.7365
 1323SOL    HW116028   6.506   0.110   6.878 -1.5165 -1.4940 -2.5632
 1323SOL    HW216029   6.354   0.067   6.917 -0.6582 -2.6044 -0.2938
 1324SOL     OW16030   4.606   9.881   8.973  0.2274 -0.1602  0.7905
 1324SOL    HW116031   4.627   9.944   8.898  1.3069 -1.0843  0.3153
 1324SOL    HW216032   4.507   9.867   8.977  0.1390  0.0887 -0.2978
 1325SOL     OW16033   4.264   8.760   1.353  0.3864 -0.6706  0.6312
 1325SOL    HW116034   4.275   8.859   1.340  0.1468 -0.7829 -0.4662
 1325SOL    HW216035   4.351   8.714   1.336 -0.3892 -1.0161 -2.6588
 1326SOL     OW16036   4.464   5.660   1.809 -0.5990 -0.2387  0.1392
 1326SOL    HW116037   4.460   5.678   1.907 -0.7014 -0.4088  0.1675
 1326SOL    HW216038   4.560   5.661   1.779 -0.6771  1.5613 -0.1026
 1327SOL     OW16039   2.070   6.009   6.479  0.7329 -0.6713 -0.1662
 1327SOL    HW116040   2.109   5.918   6.463 -0.6999 -1.1097 -1.2520
 1327SOL    HW216041   2.004   6.030   6.407  1.4448  1.4678 -0.2287
 1328SOL     OW16042   5.549   1.475   1.667 -0.1479 -0.1737 -0.1563
 1328SOL    HW116043   5.638   1.522   1.668 -0.3325  0.1551  1.4878
 1328SOL    HW216044   5.564   1.377   1.677 -0.0720  0.0891  2.6910
 1329SOL     OW16045   0.342   2.099   8.855 -0.1870  0.2207  0.3826
 1329SOL    HW116046   0.371   2.076   8.947  0.5522 -1.3468 -0.2347
 1329SOL    HW216047   0.344   2.199   8.843  2.8111  0.2791  1.0537
 1330SOL     OW16048   0.875   7.130   6.923 -0.4727  0.2153 -0.0247
 1330SOL    HW116049   0.859   7.080   6.838  0.0256 -0.7516  0.4449
 1330SOL    HW216050   0.898   7.225   6.902 -0.9756  0.1388 -0.9387
 1331SOL     OW16051   2.806   7.459   0.882 -0.1201 -0.2392 -0.8547
 1331SOL    HW116052   2.772   7.455   0.976 -0.0884 -0.5633 -0.8588
 1331SOL    HW216053   2.807   7.555   0.852  1.0298 -0.0116 -0.1088
 1332SOL     OW16054   1.392   8.308   7.881 -0.4545 -0.0549 -0.5757
 1332SOL    HW116055   1.319   8.323   7.949 -0.3004 -1.1278 -0.1533
 1332SOL    HW216056   1.385   8.377   7.809 -2.6739 -0.8550 -1.1964
 1333SOL     OW16057   0.705   4.343   5.962  0.5114 -0.1550 -0.3108
 1333SOL    HW116058   0.733   4.399   6.041  0.3534 -0.2977 -0.1515
 1333SOL    HW216059   0.648   4.267   5.994 -0.7511  0.6049 -0.7287
 1334SOL     OW16060   6.460   5.530   7.285 -0.4714 -0.6144 -0.2598
 1334SOL    HW116061   6.372   5.558   7.324  0.3422 -0.0037  1.1485
 1334SOL    HW216062   6.516   5.610   7.267  0.8602 -1.1410  1.3937
 1335SOL     OW16063   3.242   0.093   7.954  0.2020  0.2806  0.0329
 1335SOL    HW116064   3.278   0.003   7.980  2.1736  0.8834 -0.4868
 1335SOL    HW216065   3.285   0.123   7.869  0.7215  2.3786  0.9870
 1336SOL     OW16066   5.429   5.482   1.031  0.5610 -0.2766 -0.0254
 1336SOL    HW116067   5.344   5.531   1.050  0.3302 -0.4722 -0.5129
 1336SOL    HW216068   5.463   5.440   1.115 -0.9505 -1.9427 -0.1942
 1337SOL     OW16069   3.020   1.378   4.563  0.4735 -0.3349 -0.0761
 1337SOL    HW116070   3.084   1.386   4.639 -0.6056  0.4491  0.7707
 1337SOL    HW216071   2.930   1.351   4.597  0.0497 -0.2630 -1.1059
 1338SOL     OW16072   1.691   8.334   1.334 -0.5607  0.4198 -0.7391
 1338SOL    HW116073   1.784   8.315   1.304 -0.8051 -0.8046 -0.7342
 1338SOL    HW216074   1.655   8.255   1.384 -1.0079  1.5077  0.7154
 1339SOL     OW16075   9.153   3.951   1.596 -0.1584  0.0823  0.4624
 1339SOL    HW116076   9.145   3.859   1.633 -2.2449 -0.1957 -0.6230
 1339SOL    HW216077   9.154   3.948   1.496  0.7470  1.1704  0.4196
 1340SOL     OW16078   3.130   9.513   8.514  0.5882 -0.0551  0.1944
 1340SOL    HW116079   3.106   9.594   8.460 -1.6419 -1.9797 -1.7686
 1340SOL    HW216080   3.107   9.430   8.464  1.5728 -1.9576  2.7428
 1341SOL     OW16081   5.245   8.514   6.421  0.1127 -0.2158  0.0811
 1341SOL    HW116082   5.201   8.446   6.363  1.0313 -0.2921 -0.5267
 1341SOL    HW216083   5.332   8.478   6.455  0.5465  0.6006 -0.1437
 1342SOL     OW16084   5.686   0.118   7.385  0.5151  0.0940  0.0972
 1342SOL    HW116085   5.679   0.111   7.485  0.6763  0.2715  0.1182
 1342SOL    HW216086   5.603   0.078   7.344  0.8966 -0.8956  0.2712
 1343SOL     OW16087   1.681   6.579   2.389  0.3328 -0.1433 -0.0930
 1343SOL    HW116088   1.668   6.506   2.455  0.7450 -0.6101 -0.5245
 1343SOL    HW216089   1.611   6.650   2.403 -0.4295 -0.8932 -0.0536
 1344SOL     OW16090   7.999   7.781   8.127 -0.0390 -0.4377  0.2792
 1344SOL    HW116091   7.942   7.846   8.178  0.8941  1.6019 -1.2023
 1344SOL    HW216092   8.035   7.712   8.190 -2.1428 -0.3439  1.6474
 1345SOL     OW16093   4.310   6.273   2.418  0.1189  0.2373 -0.0828
 1345SOL    HW116094   4.263   6.192   2.382  0.7882 -0.3686  0.3855
 1345SOL    HW216095   4.402   6.278   2.380  0.4422  0.2015  0.6772
 1346SOL     OW16096   8.484   2.750   2.075  0.2706  0.4037 -0.6639
 1346SOL    HW116097   8.447   2.818   2.012 -0.5721  0.5276 -0.0416
 1346SOL    HW216098   8.479   2.659   2.033 -0.4460  0.4646 -0.7177
 1347SOL     OW16099   3.701   3.267   5.058  0.2355 -0.3861  0.1244
 1347SOL    HW116100   3.617   3.290   5.106 -1.2565  1.6181 -3.2654
 1347SOL    HW216101   3.774   3.329   5.086 -0.1093 -0.4084  1.0957
 1348SOL     OW16102   9.882   0.150   0.851  0.1968 -0.4257  0.2989
 1348SOL    HW116103   9.966   0.114   0.809  0.1972 -0.6822  0.5202
 1348SOL    HW216104   9.901   0.239   0.892  0.6497 -1.0112  1.3829
 1349SOL     OW16105   2.122   2.260   5.799  0.5359  0.4113 -0.6326
 1349SOL    HW116106   2.206   2.206   5.792 -0.6342 -1.2903 -1.9154
 1349SOL    HW216107   2.138   2.351   5.762  2.2192  0.5919  0.5024
 1350SOL     OW16108   9.959   2.531   6.433 -0.3399 -0.4475  0.0609
 1350SOL    HW116109  10.005   2.612   6.470 -2.5650  0.0908  1.7568
 1350SOL    HW216110   9.888   2.559   6.369 -1.1125 -1.0179  0.6471
 1351SOL     OW16111   9.298   9.508   2.840  0.6424 -0.0994  0.1481
 1351SOL    HW116112   9.396   9.493   2.854  1.2942  3.7208  0.2737
 1351SOL    HW216113   9.282   9.533   2.745  0.1571  1.5765  0.6495
 1352SOL     OW16114   2.610   6.096   1.174  0.4812  0.4498 -0.5143
 1352SOL    HW116115   2.542   6.036   1.216  1.2117  0.1565  0.2679
 1352SOL    HW216116   2.635   6.061   1.084 -0.0580  0.2957 -0.6027
 1353SOL     OW16117   1.036   5.010   7.316 -0.1430  0.2693 -0.0753
 1353SOL    HW116118   1.008   5.077   7.248 -0.1751  0.4698  0.1362
 1353SOL    HW216119   1.061   4.924   7.270 -1.3111  0.0151 -0.2379
 1354SOL     OW16120   1.320   9.236   7.725 -0.1595  0.0080  0.3556
 1354SOL    HW116121   1.299   9.320   7.775 -1.6443  1.0543 -1.9385
 1354SOL    HW216122   1.383   9.257   7.650 -2.2136 -0.4754 -1.5635
 1355SOL     OW16123   9.943   3.098   7.840  0.1552  0.2474 -0.4602
 1355SOL    HW116124   9.928   3.037   7.918  0.9623 -0.3536 -0.7686
 1355SOL    HW216125  10.030   3.146   7.852 -0.0364  0.6511 -0.6736
 1356SOL     OW16126   3.028   4.073   0.815 -0.0796  0.3763 -0.4928
 1356SOL    HW116127   3.055   4.169   0.814  0.5603  0.2156  0.5076
 1356SOL    HW216128   3.064   4.028   0.733  0.6503  0.7196 -0.3637
 1357SOL     OW16129   9.217   2.351   7.861 -0.4370 -0.1699 -0.2940
 1357SOL    HW116130   9.165   2.423   7.816  0.0879  0.2455 -0.2491
 1357SOL    HW216131   9.307   2.387   7.888 -0.7776 -0.3812  1.1649
 1358SOL     OW16132   0.061   4.725   3.158 -0.8649 -0.6547 -0.5127
 1358SOL    HW116133   0.106   4.675   3.233  0.8038  1.3245 -0.1527
 1358SOL    HW216134  -0.028   4.757   3.189 -0.3777 -0.2408  0.5054
 1359SOL     OW16135   7.162   9.401   8.621  0.5266 -0.3962  0.0938
 1359SOL    HW116136   7.238   9.368   8.678 -0.0145 -1.0725  0.4272
 1359SOL    HW216137   7.198   9.430   8.532  0.9697 -2.2793 -0.3583
 1360SOL     OW16138   7.724   0.978   2.313 -0.0614 -0.5839 -0.2735
 1360SOL    HW116139   7.660   0.917   2.361 -0.6227 -0.8739 -1.3551
 1360SOL    HW216140   7.778   0.924   2.248  1.3892 -0.3555  0.7426
 1361SOL     OW16141   6.552   0.819   7.737  0.3837 -0.3685  0.4796
 1361SOL    HW116142   6.538   0.720   7.736  0.4479 -0.3769 -0.1272
 1361SOL    HW216143   6.485   0.862   7.677 -0.2740  0.0456  1.5131
 1362SOL     OW16144   0.102   5.436   3.238 -0.0929  0.1343 -0.1092
 1362SOL    HW116145   0.003   5.446   3.246 -0.1958 -2.2332  2.3844
 1362SOL    HW216146   0.143   5.436   3.329  1.8379 -2.0623 -0.9329
 1363SOL     OW16147   8.563   9.391   4.866  0.4567 -0.2940  0.1183
 1363SOL    HW116148   8.564   9.313   4.928 -0.2521 -0.0800  0.3989
 1363SOL    HW216149   8.652   9.436   4.869  0.4492 -0.3229  0.9263
 1364SOL     OW16150   8.344   7.356   9.961 -0.2505  0.5109  0.0600
 1364SOL    HW116151   8.294   7.309   9.889  1.4464  2.9313 -2.8502
 1364SOL    HW216152   8.337   7.455   9.946  3.0689  0.9710  1.1126
 1365SOL     OW16153   6.996   2.620   1.539  0.9416  0.1581  0.0587
 1365SOL    HW116154   6.969   2.713   1.562  3.8279  1.1232 -0.1969
 1365SOL    HW216155   7.056   2.584   1.611  1.7576 -0.6075 -0.9799
 1366SOL     OW16156   2.881   8.007   8.746 -0.4892  0.0257 -0.5263
 1366SOL    HW116157   2.961   8.065   8.762  0.0181 -0.5493 -0.9349
 1366SOL    HW216158   2.834   7.991   8.833  0.2324 -0.1954 -0.1715
 1367SOL     OW16159   2.399   3.150   1.070 -0.0853 -0.3520 -0.0446
 1367SOL    HW116160   2.446   3.062   1.072 -0.2251 -0.4212  0.2007
 1367SOL    HW216161   2.394   3.187   1.163  0.0954 -0.0199 -0.1640
 1368SOL     OW16162   1.440   6.804   2.899  0.1256  0.0966  0.3864
 1368SOL    HW116163   1.529   6.824   2.859 -0.7161  1.1662 -0.9980
 1368SOL    HW216164   1.411   6.882   2.956 -0.3996  0.2195 -0.0420
 1369SOL     OW16165   9.069   7.637   4.529  0.3307 -0.0127  0.1083
 1369SOL    HW116166   9.001   7.570   4.499  1.0729 -0.7052 -0.0660
 1369SOL    HW216167   9.160   7.607   4.499  0.8964  0.1112  1.6649
 1370SOL     OW16168   8.319   3.620   0.763 -0.2114  0.7014 -0.1173
 1370SOL    HW116169   8.414   3.630   0.793 -0.2494 -0.5341  0.4750
 1370SOL    HW216170   8.264   3.586   0.840 -0.9565  0.6042 -0.6926
 1371SOL     OW16171   3.638   9.058   8.570  0.5206  0.5673  0.1514
 1371SOL    HW116172   3.659   8.963   8.550 -0.2530  0.1733  1.1577
 1371SOL    HW216173   3.571   9.092   8.505  0.2826  0.2183  0.2151
 1372SOL     OW16174   4.523   7.564   1.736 -0.0569  0.3976 -0.2578
 1372SOL    HW116175   4.539   7.528   1.828  0.7606  1.3320 -0.0322
 1372SOL    HW216176   4.570   7.652   1.726 -0.9638  0.7754 -1.2387
 1373SOL     OW16177   0.461   3.187   9.612  0.8356 -0.2927  0.5001
 1373SOL    HW116178   0.385   3.203   9.675  2.5824  3.6702  1.8078
 1373SOL    HW216179   0.431   3.201   9.518 -0.4346 -0.3411  0.8952
 1374SOL     OW16180   1.747   1.869   8.075  0.0361  0.6428 -0.4137
 1374SOL    HW116181   1.842   1.849   8.099 -0.1663 -0.2851 -0.3452
 1374SOL    HW216182   1.731   1.967   8.079  0.4324  0.6470  1.6710
 1375SOL     OW16183   2.062   8.743   4.997 -0.2373  0.5355  0.2312
 1375SOL    HW116184   2.087   8.648   4.982 -1.7686  0.2889 -0.8554
 1375SOL    HW216185   1.965   8.756   4.979  0.1742  2.5254 -0.8031
 1376SOL     OW16186   3.859   8.745   6.833  0.1785 -0.1426  0.1863
 1376SOL    HW116187   3.861   8.818   6.764 -0.3075 -0.8784 -0.6107
 1376SOL    HW216188   3.909   8.775   6.914  0.6619  0.7740 -0.4385
 1377SOL     OW16189   1.649   0.681   5.435  0.1717  0.5013  0.7377
 1377SOL    HW116190   1.709   0.615   5.481 -0.5586  0.6615  1.9476
 1377SOL    HW216191   1.698   0.767   5.424  0.5682  0.2685  0.6380
 1378SOL     OW16192   4.867   9.036   4.860  0.3515 -0.4026 -0.2295
 1378SOL    HW116193   4.955   8.990   4.846  0.6977 -0.0409  0.6797
 1378SOL    HW216194   4.864   9.073   4.953 -1.2277 -1.4369  0.1623
 1379SOL     OW16195   9.292   5.371   9.872  0.2437  0.0546  0.5051
 1379SOL    HW116196   9.273   5.335   9.963  2.1350  0.0521  0.9084
 1379SOL    HW216197   9.391   5.374   9.856 -0.0580 -0.1987 -1.6465
 1380SOL     OW16198   1.664   1.847   2.021 -0.5400 -0.8752  0.3854
 1380SOL    HW116199   1.576   1.895   2.020 -0.1738 -0.2165 -0.1244
 1380SOL    HW216200   1.648   1.748   2.027 -1.3422 -0.8427 -1.0586
 1381SOL     OW16201   7.437   5.678   3.963 -0.1643 -0.1127 -0.6132
 1381SOL    HW116202   7.411   5.597   4.016  1.3741 -0.0625  0.2762
 1381SOL    HW216203   7.413   5.761   4.015  1.1387 -0.0605 -0.0637
 1382SOL     OW16204   1.419   2.783   2.594 -0.4323 -0.3025 -0.3118
 1382SOL    HW116205   1.472   2.835   2.527 -2.1354  1.2099 -0.5328
 1382SOL    HW216206   1.373   2.846   2.656 -1.1544 -1.6132  0.5058
 1383SOL     OW16207   4.120   1.681   9.421  0.1882 -0.4239  0.6380
 1383SOL    HW116208   4.165   1.691   9.510 -0.9632  0.0354  1.1851
 1383SOL    HW216209   4.027   1.649   9.435 -0.2093  0.2829 -0.3604
 1384SOL     OW16210   3.599   1.525   8.071  0.8171 -0.0791  0.1746
 1384SOL    HW116211   3.572   1.590   8.000  3.6505  1.9023  0.8230
 1384SOL    HW216212   3.585   1.566   8.161 -0.1300 -1.5177  0.6990
 1385SOL     OW16213   5.179   7.204   6.152 -0.1488 -0.0996 -0.0814
 1385SOL    HW116214   5.208   7.137   6.084  0.3656  0.7591 -0.7196
 1385SOL    HW216215   5.226   7.185   6.239  0.0455 -0.5248 -0.2767
 1386SOL     OW16216   7.169   8.871   8.873  0.2384  0.1916 -0.7352
 1386SOL    HW116217   7.135   8.952   8.824 -0.7961  0.6198  0.6684
 1386SOL    HW216218   7.198   8.897   8.965  1.0734 -0.8207 -0.7081
 1387SOL     OW16219   2.234   2.288   6.086  0.1340  0.5491 -0.3171
 1387SOL    HW116220   2.142   2.298   6.047 -0.7531 -0.6257  1.4414
 1387SOL    HW216221   2.261   2.192   6.085  0.3136  0.5579  1.4143
 1388SOL     OW16222   0.288   9.141   5.860  0.3355  0.1011 -0.2354
 1388SOL    HW116223   0.332   9.083   5.790  0.1401 -0.1067 -0.1861
 1388SOL    HW216224   0.347   9.220   5.879  0.7488 -0.2434 -0.0791
 1389SOL     OW16225   8.847   6.708   1.042 -0.5196  0.8212 -0.0829
 1389SOL    HW116226   8.836   6.806   1.058  0.7380  1.1297 -1.0043
 1389SOL    HW216227   8.885   6.693   0.950  1.1612 -0.4271  0.7860
 1390SOL     OW16228   4.653   0.281   2.663 -0.1073  0.2232 -0.1744
 1390SOL    HW116229   4.667   0.315   2.755  1.1493 -1.3825  0.2616
 1390SOL    HW216230   4.659   0.357   2.598 -1.0822  1.3728  1.0512
 1391SOL     OW16231   4.163   3.369   7.138 -0.2512  0.2492 -0.0966
 1391SOL    HW116232   4.154   3.468   7.141  0.3987  0.3882 -1.9343
 1391SOL    HW216233   4.180   3.334   7.230 -2.2902  1.6402  0.8316
 1392SOL     OW16234   4.246   8.030   1.591  0.3092  0.2135 -0.4873
 1392SOL    HW116235   4.199   7.996   1.509 -2.1065  0.5938  0.6845
 1392SOL    HW216236   4.299   8.111   1.567 -0.6726  0.5401 -1.6347
 1393SOL     OW16237   0.696   4.317   0.736 -0.0186 -0.0081  0.1367
 1393SOL    HW116238   0.612   4.264   0.748  0.5082 -0.6139  1.2135
 1393SOL    HW216239   0.752   4.311   0.819  1.4141 -0.1927 -0.8235
 1394SOL     OW16240   4.087   8.592   9.166 -0.1745 -0.0421  0.0397
 1394SOL    HW116241   4.019   8.617   9.234  0.4677 -1.3007  1.1718
 1394SOL    HW216242   4.044   8.537   9.094 -0.8131  1.1287 -0.4826
 1395SOL     OW16243   9.518   6.026   3.613  0.1459 -0.3366 -0.3480
 1395SOL    HW116244   9.569   6.005   3.529 -0.8381 -2.3863 -0.4554
 1395SOL    HW216245   9.581   6.036   3.689  0.8274 -1.5154 -0.7426
 1396SOL     OW16246   4.566   3.287   3.320 -0.1433 -0.2415  0.3976
 1396SOL    HW116247   4.516   3.201   3.330 -1.3926  0.3952 -0.2516
 1396SOL    HW216248   4.664   3.268   3.318 -0.3503 -1.5187  1.5399
 1397SOL     OW16249   6.878   9.912   9.584  0.4143  0.2643 -0.6126
 1397SOL    HW116250   6.806   9.980   9.577  1.3213  1.2992  0.0101
 1397SOL    HW216251   6.921   9.899   9.495  0.9936  1.3347 -0.4864
 1398SOL     OW16252   1.545   2.781   8.440 -0.5395 -0.0088  0.2925
 1398SOL    HW116253   1.580   2.834   8.363 -0.1044 -0.8309 -0.0857
 1398SOL    HW216254   1.452   2.750   8.420 -1.0678  1.2161  0.8174
 1399SOL     OW16255   8.690   9.811   0.251 -0.3165 -0.1796 -0.2035
 1399SOL    HW116256   8.715   9.870   0.174  1.6860 -1.9157 -0.9531
 1399SOL    HW216257   8.751   9.830   0.328  1.0266 -1.9344 -0.7994
 1400SOL     OW16258   6.445   4.654   9.218 -0.4449 -0.0200 -0.0755
 1400SOL    HW116259   6.357   4.666   9.172 -1.0779 -0.9974  0.8589
 1400SOL    HW216260   6.518   4.646   9.150 -1.5126 -2.6049 -0.9765
 1401SOL     OW16261   2.241   9.245   7.807 -0.3291 -1.0914 -0.3049
 1401SOL    HW116262   2.205   9.335   7.832 -0.4195 -1.4240  0.7642
 1401SOL    HW216263   2.334   9.236   7.842  0.7788 -0.3002 -2.9108
 1402SOL     OW16264   2.621   7.747   6.493  0.6235 -0.7502  0.0116
 1402SOL    HW116265   2.588   7.832   6.451 -1.7450 -1.0895  1.1158
 1402SOL    HW216266   2.666   7.691   6.423  0.3482  0.4888 -1.1848
 1403SOL     OW16267   0.612   5.700   9.169 -0.3357  0.3502  0.9641
 1403SOL    HW116268   0.545   5.664   9.234 -1.1497 -1.0172 -0.6129
 1403SOL    HW216269   0.700   5.710   9.215 -0.9068 -0.5803  2.2876
 1404SOL     OW16270   4.801   5.001   6.832 -0.1620 -0.0302  0.0419
 1404SOL    HW116271   4.853   5.041   6.757  1.3719  0.2721  1.2454
 1404SOL    HW216272   4.778   5.073   6.898 -2.3246 -0.1090 -0.5685
 1405SOL     OW16273   4.772   1.561   0.680 -1.1333  0.1698  0.4334
 1405SOL    HW116274   4.804   1.652   0.706  0.1629 -0.1030 -0.1781
 1405SOL    HW216275   4.845   1.495   0.694 -1.5579 -0.5347 -0.5897
 1406SOL     OW16276   6.252   0.589   2.799 -0.1973  0.2802 -0.1822
 1406SOL    HW116277   6.327   0.593   2.734  0.1936  1.1565  0.3186
 1406SOL    HW216278   6.234   0.680   2.835  0.2623 -0.3585  1.6972
 1407SOL     OW16279   8.245   6.004   4.822  0.1775  0.4801 -1.1937
 1407SOL    HW116280   8.334   5.959   4.830  0.9463  1.7156 -2.3810
 1407SOL    HW216281   8.190   5.985   4.903  1.6603 -0.0203 -0.2856
 1408SOL     OW16282   5.075   7.385   3.721  0.1481 -0.6416 -0.1744
 1408SOL    HW116283   5.092   7.366   3.624  0.2157 -0.4756 -0.1959
 1408SOL    HW216284   4.978   7.376   3.740  0.3282 -2.1411  0.0707
 1409SOL     OW16285   3.043   3.458   3.046 -0.3111 -0.0090 -0.1934
 1409SOL    HW116286   3.058   3.364   3.075 -0.3791 -0.4432 -1.5433
 1409SOL    HW216287   3.018   3.514   3.125  0.6056 -0.9302  0.7619
 1410SOL     OW16288   0.615   1.841   2.514 -0.4306 -0.1135  0.2745
 1410SOL    HW116289   0.523   1.873   2.491 -0.4595  0.1507  0.7532
 1410SOL    HW216290   0.675   1.920   2.527 -0.3632 -0.2659  0.8879
 1411SOL     OW16291   3.848   4.498   9.071  0.5497  0.2395  0.3374
 1411SOL    HW116292   3.775   4.432   9.090 -0.5369  1.6541  1.1479
 1411SOL    HW216293   3.936   4.450   9.069 -0.2405 -1.2652  0.7143
 1412SOL     OW16294   5.147   2.940   0.618 -0.5611  0.1690  0.2054
 1412SOL    HW116295   5.170   3.002   0.694 -1.0534  2.7863 -1.7141
 1412SOL    HW216296   5.223   2.877   0.603  0.2054  0.6688  1.8311
 1413SOL     OW16297   2.567   7.135   7.860  0.2994  0.0690  0.0904
 1413SOL    HW116298   2.642   7.198   7.878  1.2649 -1.0425  0.0939
 1413SOL    HW216299   2.480   7.177   7.884  1.0731  0.7519  1.7716
 1414SOL     OW16300   5.734   9.029   4.250  0.1151  0.5363 -0.3060
 1414SOL    HW116301   5.652   9.016   4.305  0.1799 -0.9907 -0.5548
 1414SOL    HW216302   5.792   9.098   4.293 -0.9512  1.0953  0.2594
 1415SOL     OW16303   1.939   1.420   6.226  0.4820  0.0374  0.3830
 1415SOL    HW116304   1.855   1.371   6.202  0.2321  0.9052 -0.5646
 1415SOL    HW216305   2.010   1.399   6.159  1.1024 -0.8709  1.3083
 1416SOL     OW16306   4.167   7.718   1.264  0.0704 -0.2473  0.3856
 1416SOL    HW116307   4.215   7.679   1.185  1.0280 -1.0642  1.3606
 1416SOL    HW216308   4.148   7.646   1.331 -2.0672  0.1553  0.2598
 1417SOL     OW16309   4.553   9.337   8.525  0.3076 -0.2624 -0.6761
 1417SOL    HW116310   4.517   9.430   8.528  0.4090 -0.2653  0.5467
 1417SOL    HW216311   4.574   9.305   8.617  0.1154 -1.5641 -1.0674
 1418SOL     OW16312   8.550   2.787   5.478  0.2335 -0.1207 -0.4041
 1418SOL    HW116313   8.508   2.823   5.561  1.9436 -2.6401  1.6132
 1418SOL    HW216314   8.607   2.858   5.436 -0.5389  1.1406  0.6334
 1419SOL     OW16315   2.676   5.280   8.171 -0.3010 -0.3039  0.1107
 1419SOL    HW116316   2.708   5.185   8.175  0.7259  0.0672  0.9960
 1419SOL    HW216317   2.672   5.318   8.263 -0.8450  0.4693 -0.2271
 1420SOL     OW16318   6.167   7.437   5.922 -0.1501 -0.1425  0.4354
 1420SOL    HW116319   6.116   7.428   5.837  0.6304 -0.9094  0.0310
 1420SOL    HW216320   6.163   7.531   5.955 -1.0618 -0.0058 -0.0622
 1421SOL     OW16321   0.779   2.451   2.937 -0.3038  0.2093 -0.1002
 1421SOL    HW116322   0.701   2.463   2.999  1.8680 -0.4202  2.8824
 1421SOL    HW216323   0.800   2.354   2.928 -1.5206  0.1814 -3.1057
 1422SOL     OW16324   6.844   8.363   5.936  0.3435  0.6003  0.1348
 1422SOL    HW116325   6.939   8.341   5.915  0.6310  0.6882  1.3036
 1422SOL    HW216326   6.787   8.343   5.857  1.5698  2.2435 -1.1938
 1423SOL     OW16327   8.104   3.412   8.466 -0.0095 -0.2616  0.0388
 1423SOL    HW116328   8.156   3.496   8.477  0.2252 -0.2192 -1.2880
 1423SOL    HW216329   8.050   3.417   8.382  0.5278 -1.6848 -0.4107
 1424SOL     OW16330   6.957   0.467   6.424 -0.1505 -0.4161 -0.6883
 1424SOL    HW116331   7.044   0.483   6.376 -0.8670 -1.5113 -2.3957
 1424SOL    HW216332   6.974   0.466   6.522  1.4109  1.5087 -0.8921
 1425SOL     OW16333   0.572   2.833   2.878  0.1919  0.0253  0.3036
 1425SOL    HW116334   0.529   2.920   2.853 -1.0955 -0.0918  2.0019
 1425SOL    HW216335   0.653   2.818   2.821  0.0798  2.0360 -0.4267
 1426SOL     OW16336   3.392   6.019   3.697 -0.0276 -0.4032 -0.2925
 1426SOL    HW116337   3.335   6.097   3.721  0.4944 -0.1169  0.0362
 1426SOL    HW216338   3.476   6.021   3.752 -0.3888 -1.6483  0.3395
 1427SOL     OW16339   8.237   6.210   6.201 -0.2956  0.5581  0.3554
 1427SOL    HW116340   8.197   6.131   6.153 -0.6758  0.1700  1.2929
 1427SOL    HW216341   8.177   6.289   6.190  0.5376  0.9554 -1.3411
 1428SOL     OW16342   6.604   8.251   6.413  0.5040  0.0415 -0.3953
 1428SOL    HW116343   6.626   8.284   6.505  1.5349  0.3972 -0.7665
 1428SOL    HW216344   6.658   8.301   6.346  0.4750 -0.9039 -1.1315
 1429SOL     OW16345   5.682   9.852   2.128 -0.1265 -0.4330  0.0224
 1429SOL    HW116346   5.642   9.844   2.219 -0.3921 -0.9234 -0.1336
 1429SOL    HW216347   5.640   9.929   2.080  0.3147  0.0812  0.4684
 1430SOL     OW16348   0.770   3.472   9.131  0.1120 -0.0597  0.0929
 1430SOL    HW116349   0.716   3.390   9.109  2.1629 -1.9102  1.7458
 1430SOL    HW216350   0.803   3.513   9.046 -1.2196 -0.7258 -0.7784
 1431SOL     OW16351   6.504   8.631   6.920  0.5091 -0.0044 -0.3332
 1431SOL    HW116352   6.487   8.652   7.016 -2.7880 -0.2785 -0.7804
 1431SOL    HW216353   6.428   8.576   6.884  0.6348  1.8219 -3.6280
 1432SOL     OW16354   8.290   1.267   1.295 -0.9235 -0.6562 -0.1762
 1432SOL    HW116355   8.341   1.223   1.370 -1.0760 -0.6586 -0.0748
 1432SOL    HW216356   8.290   1.366   1.310 -1.3144 -0.6899  0.0508
 1433SOL     OW16357   4.720   0.668   9.123 -0.1259 -0.6840 -0.0241
 1433SOL    HW116358   4.696   0.764   9.112 -0.4744 -0.7927 -0.1966
 1433SOL    HW216359   4.698   0.638   9.216  1.2494 -0.2279  0.4584
 1434SOL     OW16360   7.581   6.006   3.980 -0.1407  0.1118 -0.4368
 1434SOL    HW116361   7.512   5.963   4.038  2.1802 -1.8460  0.9621
 1434SOL    HW216362   7.625   6.081   4.030 -1.3996  1.5328 -1.4218
 1435SOL     OW16363   7.058   5.504   7.548  0.0210  0.0620  0.3770
 1435SOL    HW116364   7.096   5.451   7.624  2.1430 -0.4095 -0.9818
 1435SOL    HW216365   6.960   5.521   7.565  0.4972  0.1963  3.3195
 1436SOL     OW16366   8.870   1.905   1.396  0.7143  0.6340  0.4966
 1436SOL    HW116367   8.844   1.870   1.485  1.3364  0.7935  0.7484
 1436SOL    HW216368   8.856   2.004   1.393 -0.0853  0.5147  0.1323
 1437SOL     OW16369   0.277   5.417   7.596  0.0066 -0.0023  0.3455
 1437SOL    HW116370   0.339   5.395   7.520 -1.3751 -2.1100 -0.2342
 1437SOL    HW216371   0.261   5.515   7.598  0.9062  0.2105 -1.4393
 1438SOL     OW16372   0.278   9.097   6.695  0.2260  0.3419  0.2702
 1438SOL    HW116373   0.349   9.146   6.745  0.0105  0.0661  0.8628
 1438SOL    HW216374   0.302   9.000   6.691  1.6523  0.7542 -2.6374
 1439SOL     OW16375   3.715   5.722   4.582  0.0942 -0.0042  0.4987
 1439SOL    HW116376   3.774   5.792   4.622 -0.7314  0.7538  0.4034
 1439SOL    HW216377   3.737   5.633   4.622  1.3051  0.2626  0.4526
 1440SOL     OW16378   1.378   8.605   3.981  0.2124 -0.2823 -0.2250
 1440SOL    HW116379   1.425   8.689   3.957  0.1179 -0.3033 -0.4865
 1440SOL    HW216380   1.330   8.569   3.900 -1.0484  0.2566  0.2705
 1441SOL     OW16381   3.666   9.820   2.621  0.9847  0.0707  0.2155
 1441SOL    HW116382   3.730   9.810   2.544  1.6440  1.2770  0.5930
 1441SOL    HW216383   3.573   9.829   2.585  0.9520 -2.1692 -0.3215
 1442SOL     OW16384   0.249   2.193   7.762  0.1327  0.2494 -0.1116
 1442SOL    HW116385   0.150   2.197   7.772  0.0437  0.1450 -0.9294
 1442SOL    HW216386   0.282   2.103   7.791  0.0536  0.4749  0.6883
 1443SOL     OW16387   1.900   9.450   5.634 -0.6408  0.3065  0.3130
 1443SOL    HW116388   1.955   9.368   5.648  0.4527  1.0013  0.0867
 1443SOL    HW216389   1.932   9.499   5.553 -1.4326  0.8404  0.3162
 1444SOL     OW16390   8.753   2.427   2.960  0.1057 -0.4297  0.1605
 1444SOL    HW116391   8.741   2.367   2.880 -2.0344 -1.1541  0.9956
 1444SOL    HW216392   8.675   2.417   3.021  1.5322  0.4288  2.1701
 1445SOL     OW16393   4.707   5.802   3.711 -0.3417  0.1561 -0.2433
 1445SOL    HW116394   4.699   5.727   3.777  1.6220  0.4774  0.3871
 1445SOL    HW216395   4.675   5.771   3.621 -0.3592 -1.1806  0.2128
 1446SOL     OW16396   9.572   5.192   2.430  0.0501  0.3935 -0.3034
 1446SOL    HW116397   9.550   5.282   2.392  0.2121  0.9446  0.8608
 1446SOL    HW216398   9.527   5.182   2.519  0.1978 -0.5959 -0.3369
 1447SOL     OW16399   4.329   4.272   2.869  0.2565  0.1630  0.1500
 1447SOL    HW116400   4.418   4.316   2.867 -0.5567  1.9785  1.8892
 1447SOL    HW216401   4.259   4.337   2.836 -0.9150  0.1248  2.4376
 1448SOL     OW16402   3.649   0.178   9.371  0.1120 -0.8074 -0.1495
 1448SOL    HW116403   3.581   0.214   9.434  2.7135  2.3699  1.0155
 1448SOL    HW216404   3.621   0.198   9.277 -1.3371 -1.0106  0.2270
 1449SOL     OW16405   3.475   7.544   9.815 -0.1521 -0.1834  0.1839
 1449SOL    HW116406   3.568   7.530   9.780 -0.0572 -1.0866  0.7859
 1449SOL    HW216407   3.431   7.455   9.828 -0.4099  0.1604  1.7587
 1450SOL     OW16408   3.861   4.276   1.757 -0.4312  0.1530  0.0867
 1450SOL    HW116409   3.766   4.301   1.739 -0.4432 -1.1761 -1.6913
 1450SOL    HW216410   3.922   4.345   1.718 -0.6265  0.4043  0.2255
 1451SOL     OW16411   1.541   3.098   3.222  0.1839  0.2472  0.4178
 1451SOL    HW116412   1.455   3.048   3.211  1.1749 -1.2824 -0.4708
 1451SOL    HW216413   1.583   3.113   3.132  1.0710  0.5901  0.8838
 1452SOL     OW16414   0.483   9.657   8.640  0.6164  0.1618  0.2498
 1452SOL    HW116415   0.432   9.618   8.716 -0.8906  1.3338 -0.1391
 1452SOL    HW216416   0.581   9.656   8.661  0.2593 -0.0801  1.9401
 1453SOL     OW16417   9.218   0.477   3.472  0.1824  0.1240 -0.3085
 1453SOL    HW116418   9.141   0.534   3.502  0.4614  1.0503 -1.3182
 1453SOL    HW216419   9.184   0.385   3.450 -0.8798  0.8986 -2.0141
 1454SOL     OW16420   9.170   1.459   6.404  0.4818 -0.1860  0.1530
 1454SOL    HW116421   9.172   1.364   6.434  1.0909  0.2270  1.4378
 1454SOL    HW216422   9.077   1.496   6.412  0.8582  0.2934  2.7516
 1455SOL     OW16423   6.316   9.137   5.679  0.0449 -0.6268  0.0760
 1455SOL    HW116424   6.262   9.089   5.748  1.6065 -2.4013  0.1143
 1455SOL    HW216425   6.258   9.204   5.632 -1.7349 -1.3018  1.2418
 1456SOL     OW16426   8.700   1.098   3.958 -0.0286 -0.4171  0.9283
 1456SOL    HW116427   8.784   1.045   3.957  0.6068  0.5943  0.6241
 1456SOL    HW216428   8.696   1.153   4.042  0.0969  0.2900  0.4802
 1457SOL     OW16429   9.175   5.484   9.153 -0.4051  0.2715 -0.0142
 1457SOL    HW116430   9.230   5.483   9.236  0.4672  0.1407 -0.5747
 1457SOL    HW216431   9.151   5.578   9.130 -0.0084  0.3737 -0.0187
 1458SOL     OW16432   0.689   0.033   3.377  0.9914 -0.3557  0.0264
 1458SOL    HW116433   0.656   0.077   3.294  0.3188  1.0765  1.0213
 1458SOL    HW216434   0.706  -0.064   3.359 -0.0360 -0.2677 -1.5271
 1459SOL     OW16435   7.565   2.328   3.338 -0.2627  0.2174 -0.7165
 1459SOL    HW116436   7.492   2.266   3.367 -0.4367  0.3829 -0.7999
 1459SOL    HW216437   7.640   2.325   3.404 -2.0197  2.9916  1.5190
 1460SOL     OW16438   6.267   2.181   9.006  0.7044  0.7028  0.3729
 1460SOL    HW116439   6.227   2.216   9.091  2.6302 -0.2700  1.7265
 1460SOL    HW216440   6.282   2.256   8.943  0.8427  1.7098  1.5815
 1461SOL     OW16441   0.587   5.758   9.542 -0.1009 -0.1127  0.4041
 1461SOL    HW116442   0.506   5.804   9.578  0.0794 -0.5792  1.4103
 1461SOL    HW216443   0.667   5.784   9.595  0.2592 -0.3849 -0.0001
 1462SOL     OW16444   1.378   1.563   4.181  0.1902  0.1919 -0.2950
 1462SOL    HW116445   1.413   1.651   4.147 -1.0464  1.0529  0.5944
 1462SOL    HW216446   1.453   1.499   4.193  1.3095  1.6136  0.4646
 1463SOL     OW16447   4.377   9.839   6.176 -0.1594 -0.4990 -0.2344
 1463SOL    HW116448   4.367   9.747   6.139 -0.1434 -0.1453 -1.1200
 1463SOL    HW216449   4.293   9.890   6.161  0.1599 -0.0722 -0.5712
 1464SOL     OW16450   1.440   9.507   8.459 -0.2938  0.5002 -0.1052
 1464SOL    HW116451   1.539   9.502   8.450 -0.2248 -2.0043  1.4643
 1464SOL    HW216452   1.398   9.423   8.424 -1.6668  0.5620  1.2909
 1465SOL     OW16453   1.115   6.025   4.668 -0.6739 -0.2137  0.1941
 1465SOL    HW116454   1.075   6.114   4.689  0.1833  0.5555 -1.3128
 1465SOL    HW216455   1.042   5.961   4.643 -1.2966  0.0606  1.2847
 1466SOL     OW16456   6.579   9.977   4.526 -0.0045  0.3879  0.0677
 1466SOL    HW116457   6.556  10.004   4.433 -1.3138 -0.3362  0.1622
 1466SOL    HW216458   6.655   9.912   4.525  0.2467  0.6933 -0.4703
 1467SOL     OW16459   3.642   0.584   6.564  0.4329  0.2610 -0.1046
 1467SOL    HW116460   3.693   0.670   6.556 -0.0901  0.8815  2.6318
 1467SOL    HW216461   3.664   0.541   6.652 -1.5839 -0.8872 -0.1411
 1468SOL     OW16462   0.111   7.306   4.939  0.0859 -0.2003 -0.5199
 1468SOL    HW116463   0.192   7.264   4.981  0.0276 -1.7054 -1.8190
 1468SOL    HW216464   0.111   7.284   4.841  0.1003  3.0013 -1.2777
 1469SOL     OW16465   4.202   3.250   2.050 -0.1949 -0.6344  0.5515
 1469SOL    HW116466   4.138   3.191   2.001  0.7220 -0.2376 -1.1495
 1469SOL    HW216467   4.164   3.342   2.058 -0.3549 -0.7068  0.6318
 1470SOL     OW16468   6.012   9.947   3.658 -0.1686 -0.6678 -0.4325
 1470SOL    HW116469   5.932  10.007   3.664 -0.3265 -0.7663 -1.5535
 1470SOL    HW216470   5.993   9.873   3.594  0.6601 -0.9597 -0.3418
 1471SOL     OW16471   4.042   2.477   0.692  0.2067  0.4173  0.3198
 1471SOL    HW116472   3.980   2.418   0.744  0.5193  0.8800  1.2220
 1471SOL    HW216473   3.995   2.561   0.665 -0.1693 -0.1322 -0.7709
 1472SOL     OW16474   8.979   0.283   9.622 -0.0534 -0.6625 -0.0301
 1472SOL    HW116475   8.891   0.297   9.667  1.3643  3.2185  1.7025
 1472SOL    HW216476   9.023   0.201   9.659 -0.3500  0.6498  3.3976
 1473SOL     OW16477   1.694   2.229   1.748  0.4053  0.1721 -0.0923
 1473SOL    HW116478   1.689   2.304   1.681  2.0608  0.1565 -0.2622
 1473SOL    HW216479   1.686   2.267   1.840  1.7662  0.6604 -0.1508
 1474SOL     OW16480   3.060   2.268   7.052 -0.5133  0.6028 -0.2501
 1474SOL    HW116481   3.031   2.172   7.054 -1.3832  0.8886  1.4682
 1474SOL    HW216482   3.012   2.316   6.979 -1.2086  0.0854 -0.1360
 1475SOL     OW16483   9.225   2.055   6.078  0.6087  0.1139  0.2143
 1475SOL    HW116484   9.188   2.103   5.998  1.6101 -0.1400 -0.3980
 1475SOL    HW216485   9.149   2.013   6.128 -0.0037  0.0936 -0.7080
 1476SOL     OW16486   8.774   2.852   8.882 -0.3328 -0.2254 -0.0347
 1476SOL    HW116487   8.754   2.764   8.924  1.2750 -1.9103 -2.6858
 1476SOL    HW216488   8.871   2.856   8.856 -0.3618  2.3415  0.0854
 1477SOL     OW16489   3.453   8.826   0.393  0.2369 -0.1504 -0.4020
 1477SOL    HW116490   3.533   8.873   0.432  0.8689  0.3300 -2.2100
 1477SOL    HW216491   3.412   8.767   0.462 -0.1653  2.5244  1.7345
 1478SOL     OW16492   8.132   0.386   9.023 -0.1766 -0.6335 -0.0661
 1478SOL    HW116493   8.231   0.403   9.016 -0.1983 -0.8974 -1.1865
 1478SOL    HW216494   8.082   0.463   8.985 -0.4945  0.7816  3.0639
 1479SOL     OW16495   3.479   4.156   2.813 -0.0372  0.0027  0.3472
 1479SOL    HW116496   3.396   4.195   2.772  0.7185  1.5007  0.2065
 1479SOL    HW216497   3.484   4.059   2.792 -1.0607  0.1863 -0.8050
 1480SOL     OW16498   4.256   3.486   3.820 -0.2795  0.4065 -0.3453
 1480SOL    HW116499   4.343   3.454   3.782 -0.7928 -1.5235  0.0441
 1480SOL    HW216500   4.190   3.411   3.820 -2.4012  2.2386 -1.9215
 1481SOL     OW16501   0.557   6.671   8.905  0.2527  0.3568  0.4227
 1481SOL    HW116502   0.535   6.631   8.994  0.2273  1.0196  0.7164
 1481SOL    HW216503   0.655   6.693   8.902  0.4612 -0.5942 -0.0888
 1482SOL     OW16504   1.372   1.222   5.279  0.0104 -0.4289  0.1118
 1482SOL    HW116505   1.299   1.277   5.239 -0.0870 -0.7531 -0.1558
 1482SOL    HW216506   1.455   1.231   5.224  0.1599 -0.0903  0.3955
 1483SOL     OW16507   2.103   6.595   7.250  0.1323  0.2338 -0.3963
 1483SOL    HW116508   2.148   6.539   7.319 -0.1048 -1.7158 -1.7985
 1483SOL    HW216509   2.171   6.646   7.198  0.4364  0.2750  0.0434
 1484SOL     OW16510   6.422   1.387   5.361  0.2125 -0.4430 -0.0854
 1484SOL    HW116511   6.388   1.431   5.278  1.0595 -1.3971 -0.9507
 1484SOL    HW216512   6.372   1.302   5.377  2.3632 -2.0624 -1.5842
 1485SOL     OW16513   8.101   9.131   6.130  0.2810  0.0469  0.2593
 1485SOL    HW116514   8.150   9.209   6.091  3.0748 -1.8839 -0.2461
 1485SOL    HW216515   8.142   9.106   6.217 -0.1325 -1.3250  0.0689
 1486SOL     OW16516   3.759   7.788   0.522  0.2869 -0.0216 -0.4996
 1486SOL    HW116517   3.782   7.880   0.553 -0.4767 -0.1550  0.4845
 1486SOL    HW216518   3.663   7.768   0.544  0.0829 -0.5875 -1.8338
 1487SOL     OW16519   5.430   7.668   7.880 -0.1940 -0.1723  0.1458
 1487SOL    HW116520   5.414   7.765   7.865  0.7305 -0.1208 -0.5525
 1487SOL    HW216521   5.356   7.615   7.838 -0.0171  0.1767 -0.6165
 1488SOL     OW16522   7.403   3.511   8.319  0.0221 -0.4539 -0.2796
 1488SOL    HW116523   7.361   3.534   8.231  1.2472  1.8538 -0.2935
 1488SOL    HW216524   7.483   3.452   8.304 -0.2629 -0.7518 -0.6368
 1489SOL     OW16525   8.768   0.786   4.998  0.0830  0.0997  0.2067
 1489SOL    HW116526   8.764   0.756   4.903  1.8473 -0.1614  0.1928
 1489SOL    HW216527   8.844   0.850   5.010 -1.1778  1.4802  1.0931
 1490SOL     OW16528   9.175   6.260   0.279 -0.4393  0.0745 -0.1982
 1490SOL    HW116529   9.174   6.251   0.180 -1.0131  2.6433 -0.4465
 1490SOL    HW216530   9.270   6.259   0.311 -0.2105  0.1709 -0.8596
 1491SOL     OW16531   3.553   7.198   6.803 -0.6252 -0.0563  0.2328
 1491SOL    HW116532   3.491   7.275   6.787 -0.6035 -0.3002 -1.1078
 1491SOL    HW216533   3.622   7.224   6.871 -0.1821  1.3701 -0.7232
 1492SOL     OW16534   4.079   1.225   8.908  0.2161  0.3976 -0.5864
 1492SOL    HW116535   4.096   1.227   8.809  1.7152  1.4236 -0.3204
 1492SOL    HW216536   4.148   1.280   8.955  0.0779 -0.8438  1.1149
 1493SOL     OW16537   3.468   1.760   0.636  0.5684 -0.4088 -0.1794
 1493SOL    HW116538   3.382   1.810   0.648  1.1544  0.3544  0.9519
 1493SOL    HW216539   3.467   1.677   0.693  0.2706 -0.8147 -0.7707
 1494SOL     OW16540   9.947   9.634   3.944  0.2889 -0.0739  0.0109
 1494SOL    HW116541   9.860   9.670   3.908 -0.4801 -0.8106  1.1050
 1494SOL    HW216542   9.932   9.543   3.983  1.1655  0.5642  1.9043
 1495SOL     OW16543   0.072   8.598   1.376 -0.4398  0.4161  0.5215
 1495SOL    HW116544   0.069   8.678   1.317 -0.9150  0.1876  0.2252
 1495SOL    HW216545   0.166   8.567   1.386 -0.2026  1.2920  1.0295
 1496SOL     OW16546   8.134   8.509   0.461  0.0045  0.0765 -0.2326
 1496SOL    HW116547   8.139   8.607   0.479  0.4324  0.0687 -0.2975
 1496SOL    HW216548   8.138   8.459   0.547 -0.9080  0.1341 -0.1454
 1497SOL     OW16549   0.282   4.252   6.171 -0.3053  0.6827  0.3108
 1497SOL    HW116550   0.310   4.313   6.097  2.4874 -1.1277 -0.1924
 1497SOL    HW216551   0.335   4.274   6.253 -0.5287  0.0594  0.6232
 1498SOL     OW16552   8.526   6.130   5.446  0.3008 -0.3567  0.1314
 1498SOL    HW116553   8.624   6.138   5.461  0.4224 -1.2616 -0.1342
 1498SOL    HW216554   8.508   6.053   5.385 -0.5072  0.4181 -0.6141
 1499SOL     OW16555   4.525   4.100   9.808  0.2258  0.2481  0.9298
 1499SOL    HW116556   4.568   4.189   9.819  0.1139  0.2448  1.3823
 1499SOL    HW216557   4.585   4.029   9.846  0.7114  0.0339 -0.1977
 1500SOL     OW16558   2.554   7.057   0.591  0.0243  0.7476 -0.0898
 1500SOL    HW116559   2.635   7.042   0.647 -0.8651  1.2655  1.3557
 1500SOL    HW216560   2.562   7.144   0.542  0.1779  0.9818  0.3481
 1501SOL     OW16561   3.936   0.517   6.063  0.5674 -0.1847 -0.2200
 1501SOL    HW116562   3.909   0.605   6.102  0.3168 -0.2066 -0.3424
 1501SOL    HW216563   3.922   0.445   6.130 -0.8971 -0.3757 -0.7049
 1502SOL     OW16564   4.879   2.106  10.003  0.3664 -1.2756 -0.6160
 1502SOL    HW116565   4.854   2.159  10.084  2.1416  0.0180 -0.8884
 1502SOL    HW216566   4.796   2.072   9.959 -0.7604  0.3206  0.2079
 1503SOL     OW16567   9.768   4.519   7.759  0.0275 -0.0290  0.0333
 1503SOL    HW116568   9.708   4.577   7.703 -0.2309 -0.4020 -0.0817
 1503SOL    HW216569   9.733   4.515   7.852  0.6332  0.8450  0.3011
 1504SOL     OW16570   4.350   8.355   7.479 -0.2367  0.2486 -0.6067
 1504SOL    HW116571   4.384   8.316   7.393  0.5897  0.8849 -0.5736
 1504SOL    HW216572   4.343   8.282   7.547  2.7096  0.3724 -0.1145
 1505SOL     OW16573   9.767   0.132   1.916 -0.6512 -0.3829  0.0276
 1505SOL    HW116574   9.732   0.063   1.980 -1.4578  0.4951  0.5365
 1505SOL    HW216575   9.710   0.134   1.834  0.0049 -1.0596 -0.4533
 1506SOL     OW16576   3.360   1.301   6.344 -0.2676 -0.5641 -0.4036
 1506SOL    HW116577   3.429   1.272   6.411 -0.2694  1.3844  0.4872
 1506SOL    HW216578   3.326   1.221   6.295  0.3769 -1.9323  1.3052
 1507SOL     OW16579   5.512   4.263   0.415 -0.3605  0.0153  0.5655
 1507SOL    HW116580   5.421   4.285   0.382  0.8252  2.6672 -1.0714
 1507SOL    HW216581   5.557   4.201   0.350 -0.0649  0.7442  0.0776
 1508SOL     OW16582   5.126   5.938   9.386 -0.3524 -0.0538 -0.2426
 1508SOL    HW116583   5.153   5.984   9.302 -1.2529 -3.1533 -2.2896
 1508SOL    HW216584   5.089   6.005   9.450  0.9668  2.4483 -2.0225
 1509SOL     OW16585   2.769   6.487   4.640 -0.5462 -0.5326 -0.1795
 1509SOL    HW116586   2.757   6.486   4.541  3.0036  1.7311 -0.7064
 1509SOL    HW216587   2.840   6.421   4.666 -2.8469 -2.5775  1.1397
 1510SOL     OW16588   0.654   6.314   1.776  0.0388 -0.1922  0.2543
 1510SOL    HW116589   0.603   6.356   1.851 -1.2067  0.0012 -0.6842
 1510SOL    HW216590   0.721   6.380   1.740  0.7345 -0.3332  1.2688
 1511SOL     OW16591   0.715   1.230   2.248 -0.2361  0.3670 -0.0671
 1511SOL    HW116592   0.746   1.136   2.231 -2.0904 -0.0072 -1.6152
 1511SOL    HW216593   0.763   1.267   2.327  1.0707 -1.6260  0.1194
 1512SOL     OW16594   2.121   4.315   9.924 -0.9599 -0.0089 -0.3180
 1512SOL    HW116595   2.023   4.301   9.906 -1.4204  1.6971  0.7838
 1512SOL    HW216596   2.157   4.381   9.859 -0.7959  0.2279  0.0194
 1513SOL     OW16597   0.025   9.158   5.713  0.0448 -0.0928 -0.3513
 1513SOL    HW116598   0.103   9.133   5.771 -0.1919 -1.8940 -0.7796
 1513SOL    HW216599  -0.033   9.078   5.699 -0.8757  0.7707 -1.5961
 1514SOL     OW16600   6.302   3.290   1.520  0.7830  0.5387  0.6529
 1514SOL    HW116601   6.363   3.367   1.506  0.3587  1.1549  2.1261
 1514SOL    HW216602   6.323   3.246   1.607 -1.7842  1.6461  1.8896
 1515SOL     OW16603   6.678   3.896   9.244  0.0445  0.0121 -0.2061
 1515SOL    HW116604   6.609   3.955   9.285 -0.1136  0.4539 -1.0947
 1515SOL    HW216605   6.665   3.802   9.276 -1.6204 -0.0939 -1.1639
 1516SOL     OW16606   2.576   3.446  10.011 -0.1238 -0.0688 -0.3426
 1516SOL    HW116607   2.477   3.429  10.004 -0.1471 -0.3673  0.6416
 1516SOL    HW216608   2.625   3.384   9.950 -0.5111 -0.3160 -0.4080
 1517SOL     OW16609   6.286   0.358   7.607  0.2071  0.3401 -0.6394
 1517SOL    HW116610   6.354   0.358   7.534  0.5692  1.7203 -0.2999
 1517SOL    HW216611   6.294   0.272   7.659  1.4730  0.3477 -0.7935
 1518SOL     OW16612   2.503   4.729   6.055  0.3685  0.5338  0.5083
 1518SOL    HW116613   2.447   4.749   6.135 -1.8263  1.0521 -1.1339
 1518SOL    HW216614   2.445   4.715   5.975  2.5506  0.7195 -1.1702
 1519SOL     OW16615   4.154   0.585   6.697  0.0812 -0.4138 -0.0962
 1519SOL    HW116616   4.236   0.583   6.640  1.6888  0.5032  2.0858
 1519SOL    HW216617   4.168   0.649   6.773 -2.3313 -0.9055  0.8165
 1520SOL     OW16618   2.250   8.632   4.574  0.5536  0.1507 -0.1421
 1520SOL    HW116619   2.237   8.569   4.497 -0.5235  1.3646 -0.9617
 1520SOL    HW216620   2.161   8.663   4.608  0.9577 -1.2744  2.3747
 1521SOL     OW16621   5.535   2.820   1.028 -0.3242  0.6694 -0.9438
 1521SOL    HW116622   5.627   2.860   1.032 -1.0150  2.1243  1.2130
 1521SOL    HW216623   5.536   2.740   0.967  3.1732 -1.4207  1.6302
 1522SOL     OW16624   9.965   9.415   9.097 -0.2763  0.2740  0.0766
 1522SOL    HW116625   9.870   9.421   9.064 -0.7592 -0.1723  1.3371
 1522SOL    HW216626  10.000   9.323   9.082 -0.0318  0.4479 -0.4231
 1523SOL     OW16627   0.794   4.516   8.971 -0.1222 -0.0772  0.6124
 1523SOL    HW116628   0.885   4.486   8.999 -0.6303 -0.6897  1.6711
 1523SOL    HW216629   0.800   4.602   8.921  1.1344 -0.6678 -0.2810
 1524SOL     OW16630   8.100   0.348   3.528  0.0413 -0.2026  0.1682
 1524SOL    HW116631   8.193   0.383   3.536 -0.5305  1.1812  0.9752
 1524SOL    HW216632   8.102   0.248   3.531  1.5845 -0.2235 -0.8709
 1525SOL     OW16633   4.077   9.360   4.937 -0.8635  0.1356  0.1452
 1525SOL    HW116634   4.044   9.289   4.874 -1.1374  0.6476 -0.2944
 1525SOL    HW216635   4.146   9.415   4.890  0.5101 -0.8178  0.9961
 1526SOL     OW16636   0.507   4.770   1.705  0.7310  0.0020  0.2432
 1526SOL    HW116637   0.493   4.839   1.633 -2.2117  0.2576  0.9914
 1526SOL    HW216638   0.464   4.802   1.790  0.1888 -2.3015  0.8664
 1527SOL     OW16639   7.285   7.651   6.613 -0.3667 -0.0398 -0.5955
 1527SOL    HW116640   7.254   7.746   6.618  0.3810  0.1806  0.0026
 1527SOL    HW216641   7.269   7.606   6.701  0.0066 -0.2351 -0.6241
 1528SOL     OW16642   6.350   6.284   1.205  0.4007 -0.2128  0.3783
 1528SOL    HW116643   6.256   6.279   1.173  0.1413 -1.8175  1.3266
 1528SOL    HW216644   6.393   6.368   1.172 -1.0013 -0.0359 -1.0252
 1529SOL     OW16645   5.996   0.421   4.480  0.3987  0.1440 -0.2233
 1529SOL    HW116646   6.004   0.488   4.407 -0.3480 -0.3752 -0.7886
 1529SOL    HW216647   5.901   0.415   4.510  0.2551 -1.4457 -0.9347
 1530SOL     OW16648   4.432   7.859   1.663 -0.3709  0.6386 -0.1664
 1530SOL    HW116649   4.366   7.926   1.627  0.7945  1.0268 -1.6216
 1530SOL    HW216650   4.479   7.814   1.587  0.1696 -0.5287  0.8424
 1531SOL     OW16651   1.800   6.205   9.621  0.0571  0.2650  0.9077
 1531SOL    HW116652   1.805   6.297   9.580 -0.7522  0.3045  0.8965
 1531SOL    HW216653   1.887   6.184   9.665  0.8320  0.3677 -0.5378
 1532SOL     OW16654   0.644   9.788   3.942 -0.5047 -0.2010 -0.4024
 1532SOL    HW116655   0.670   9.762   3.849  0.3420 -0.8311 -0.0014
 1532SOL    HW216656   0.726   9.814   3.993 -0.7468 -1.3938  0.6413
 1533SOL     OW16657   9.905   5.999   1.489 -0.2180  0.2676 -0.2633
 1533SOL    HW116658   9.904   6.085   1.437 -1.1330  1.1109  1.1032
 1533SOL    HW216659   9.900   5.922   1.426  2.5534  1.1479 -1.6447
 1534SOL     OW16660   4.755   8.359   4.372  0.4115 -0.1265 -0.2323
 1534SOL    HW116661   4.800   8.418   4.438  0.0026 -1.2447  1.0792
 1534SOL    HW216662   4.774   8.263   4.395 -1.3218 -0.5718 -0.5838
 1535SOL     OW16663   8.092   4.075   6.136 -0.3599 -1.1840 -0.0500
 1535SOL    HW116664   8.053   4.145   6.195 -1.5287 -1.3576 -0.6096
 1535SOL    HW216665   8.140   4.119   6.059  2.3633 -0.9172  1.7160
 1536SOL     OW16666   7.353   9.770   5.890 -0.3452 -0.1628 -0.4017
 1536SOL    HW116667   7.305   9.741   5.973 -1.3877 -0.6829 -1.1707
 1536SOL    HW216668   7.452   9.770   5.907 -0.3925 -2.5685  0.1492
 1537SOL     OW16669   1.191   2.273   0.649  0.4418 -0.0226  0.7627
 1537SOL    HW116670   1.260   2.238   0.712  0.9467  0.0474  0.2468
 1537SOL    HW216671   1.232   2.340   0.587 -0.5821  1.6771  1.9043
 1538SOL     OW16672   3.387   9.938   3.507 -0.0205  0.8842 -0.1017
 1538SOL    HW116673   3.356   9.896   3.421 -0.9154 -0.3894  0.8266
 1538SOL    HW216674   3.320  10.006   3.537 -0.7417 -0.1551  0.6603
 1539SOL     OW16675   8.768   1.430   2.948 -0.0962  0.0144 -0.2028
 1539SOL    HW116676   8.866   1.447   2.940  0.1773 -0.7042  1.4173
 1539SOL    HW216677   8.730   1.491   3.018 -0.4325 -1.1022  0.5912
 1540SOL     OW16678   9.778   8.194   1.809  0.4439  0.2024  0.1005
 1540SOL    HW116679   9.814   8.126   1.745  0.1485 -0.4535  0.6224
 1540SOL    HW216680   9.701   8.154   1.860  1.2944  0.3857  1.5520
 1541SOL     OW16681   0.148   1.372   1.924  0.0524  0.1162 -0.2569
 1541SOL    HW116682   0.093   1.436   1.977 -0.6923 -0.8949  0.1964
 1541SOL    HW216683   0.092   1.331   1.852  0.4419 -0.2792 -0.3391
 1542SOL     OW16684   4.617   2.480   2.044  0.5332 -0.2704 -0.1087
 1542SOL    HW116685   4.530   2.508   2.004  1.0874  1.2611 -0.2435
 1542SOL    HW216686   4.658   2.408   1.988 -0.7727 -1.2155  0.1177
 1543SOL     OW16687   8.553   9.014   8.341  0.5541 -0.3930  0.0673
 1543SOL    HW116688   8.486   9.072   8.386 -3.2134 -4.2652 -0.3176
 1543SOL    HW216689   8.550   9.030   8.242 -0.1574 -0.8715  0.0074
 1544SOL     OW16690   8.844   5.743   5.757  0.0396 -0.8609  0.4557
 1544SOL    HW116691   8.828   5.741   5.658 -0.3025  0.6454  0.4800
 1544SOL    HW216692   8.858   5.837   5.788  0.1742 -1.3163  1.8423
 1545SOL     OW16693   2.255   4.483   7.358 -0.4636  0.6209  0.2286
 1545SOL    HW116694   2.316   4.521   7.289 -1.1276 -0.3878 -0.9191
 1545SOL    HW216695   2.283   4.390   7.380 -0.6793  0.6918  0.8092
 1546SOL     OW16696   2.202   8.648   0.600  0.0912  0.0442 -0.1445
 1546SOL    HW116697   2.216   8.692   0.511 -1.9862  0.9721 -0.0427
 1546SOL    HW216698   2.151   8.710   0.659 -0.4487 -1.4340  0.9578
 1547SOL     OW16699   5.102   2.254   0.980  0.5507  0.2976 -0.2788
 1547SOL    HW116700   5.114   2.154   0.979 -2.0608 -0.0557 -2.3691
 1547SOL    HW216701   5.168   2.296   0.919  0.5940 -0.3118 -0.6537
 1548SOL     OW16702   1.729   1.403   1.988  0.2226  0.3038  0.2218
 1548SOL    HW116703   1.761   1.466   1.918  0.0155 -1.0730 -1.1290
 1548SOL    HW216704   1.788   1.322   1.991 -0.0784  0.1080  1.2848
 1549SOL     OW16705   9.139   0.219   3.075 -0.0482 -0.3116 -0.5845
 1549SOL    HW116706   9.120   0.124   3.051 -1.9415  0.0696 -0.7141
 1549SOL    HW216707   9.110   0.279   3.000  1.6514  0.3318 -0.7407
 1550SOL     OW16708   6.333   0.383   2.027 -0.0466 -0.1231 -0.0999
 1550SOL    HW116709   6.259   0.376   1.960  0.4719 -0.7514 -0.6034
 1550SOL    HW216710   6.383   0.468   2.013 -0.1784 -0.0718 -0.2598
 1551SOL     OW16711   9.282   9.550   4.350 -0.1598  0.1731  0.0221
 1551SOL    HW116712   9.273   9.609   4.269  0.8859  1.1540  0.6008
 1551SOL    HW216713   9.207   9.484   4.351 -2.2343  2.4330  0.1211
 1552SOL     OW16714   7.541   2.808   2.545 -0.3217 -0.5178 -0.7377
 1552SOL    HW116715   7.548   2.908   2.549  1.0114 -0.6166 -0.4015
 1552SOL    HW216716   7.632   2.768   2.547 -0.8063 -1.7191 -1.7530
 1553SOL     OW16717   0.043   0.457   4.188  0.2032  0.1509  0.6012
 1553SOL    HW116718   0.122   0.495   4.238  0.7512  1.2347 -1.0600
 1553SOL    HW216719   0.039   0.358   4.203  0.7120  0.3712  2.3077
 1554SOL     OW16720   1.494   7.906   0.317 -0.1573  0.4525 -0.7643
 1554SOL    HW116721   1.531   7.937   0.405  0.4998 -0.4001 -0.7332
 1554SOL    HW216722   1.402   7.943   0.305 -0.5539 -0.0247  0.6354
 1555SOL     OW16723   1.454   3.189   7.522 -0.0318 -0.1160 -0.2539
 1555SOL    HW116724   1.500   3.141   7.447 -0.2327  1.2294 -1.2689
 1555SOL    HW216725   1.496   3.163   7.609  0.1839 -1.7254 -0.8185
 1556SOL     OW16726   2.701   2.098   2.861  0.1903  0.5077  0.1503
 1556SOL    HW116727   2.784   2.153   2.874  0.3054  0.8421 -1.8103
 1556SOL    HW216728   2.637   2.147   2.802 -0.8288 -0.3458  0.5246
 1557SOL     OW16729   1.053   6.254   2.283 -0.0437 -0.1103 -0.0382
 1557SOL    HW116730   1.067   6.213   2.193 -0.0686 -1.0751  0.3974
 1557SOL    HW216731   1.000   6.192   2.341  0.5077  0.2305  0.8466
 1558SOL     OW16732   4.067   3.806   2.415  0.3932  0.0660  0.2496
 1558SOL    HW116733   3.990   3.810   2.479  0.0287  0.1480 -0.1899
 1558SOL    HW216734   4.153   3.807   2.466  0.1013 -0.2870  0.7552
 1559SOL     OW16735   5.199   7.714   5.556  0.6404 -0.1121  0.1265
 1559SOL    HW116736   5.245   7.649   5.617  0.4947 -0.3888 -0.0583
 1559SOL    HW216737   5.232   7.702   5.462  1.2405  0.6630  0.2344
 1560SOL     OW16738   6.931   9.409   2.721  0.0483  0.2112  0.0525
 1560SOL    HW116739   6.944   9.505   2.698 -0.1036  0.1127 -0.4431
 1560SOL    HW216740   6.840   9.379   2.691  0.2032 -0.1635 -0.0536
 1561SOL     OW16741   7.156   4.478   0.490 -0.0509  0.2541 -0.2121
 1561SOL    HW116742   7.114   4.388   0.500  0.7010 -0.1134 -0.3013
 1561SOL    HW216743   7.243   4.480   0.540  0.3912  0.6131 -0.9760
 1562SOL     OW16744   7.582   1.149  10.009 -0.2815  0.1335  0.5425
 1562SOL    HW116745   7.681   1.132  10.008 -0.4210 -0.7201 -1.5868
 1562SOL    HW216746   7.563   1.237   9.966 -0.7562 -1.9926 -3.9393
 1563SOL     OW16747   2.098   3.733   2.278  0.2564  0.1986  0.5545
 1563SOL    HW116748   2.196   3.722   2.295  0.3544 -0.7468 -0.5776
 1563SOL    HW216749   2.053   3.763   2.362  1.3183 -0.6093  1.4260
 1564SOL     OW16750   4.074   2.148   7.576 -0.5087  0.4341  0.4365
 1564SOL    HW116751   3.977   2.169   7.587 -0.1582  2.1863  0.3451
 1564SOL    HW216752   4.129   2.213   7.628  0.6791  0.6916 -1.0765
 1565SOL     OW16753   1.593   7.434   7.655  0.0691  0.2517 -0.6854
 1565SOL    HW116754   1.627   7.487   7.732 -1.1489  1.3069 -0.8467
 1565SOL    HW216755   1.517   7.376   7.684  0.0522  0.1426 -0.9405
 1566SOL     OW16756   5.680   7.936   7.293 -0.8438 -0.5916  0.0531
 1566SOL    HW116757   5.624   7.853   7.296  0.5174 -1.4935  1.5877
 1566SOL    HW216758   5.775   7.913   7.315 -0.1575  1.1528 -0.9692
 1567SOL     OW16759   8.698   5.147   5.458 -0.2619 -0.3734  0.3460
 1567SOL    HW116760   8.729   5.218   5.395 -0.1767  0.7374  1.6043
 1567SOL    HW216761   8.603   5.123   5.438 -0.5417  0.6576  0.3771
 1568SOL     OW16762   1.379   9.594   7.777 -0.2282  0.4460  0.5238
 1568SOL    HW116763   1.376   9.677   7.833 -0.9615  0.7149  0.0852
 1568SOL    HW216764   1.286   9.566   7.753 -0.0981 -1.6173  2.3094
 1569SOL     OW16765   9.090   5.653   7.489  0.3098  0.0998  0.6782
 1569SOL    HW116766   9.117   5.749   7.502 -1.6337  0.4052  2.7514
 1569SOL    HW216767   9.141   5.595   7.553  0.2338 -0.0401  0.6125
 1570SOL     OW16768   5.151   0.660   5.551  0.1959 -0.3133 -0.4706
 1570SOL    HW116769   5.200   0.578   5.579 -0.2316 -0.4245 -0.0349
 1570SOL    HW216770   5.211   0.740   5.561  0.5852 -0.5603 -0.8190
 1571SOL     OW16771   2.911   8.962   0.153  0.0366  0.0771  0.3634
 1571SOL    HW116772   2.851   9.010   0.217 -0.0893  1.2165 -0.5875
 1571SOL    HW216773   2.991   9.019   0.132  0.3474 -0.5071 -0.0783
 1572SOL     OW16774   9.475   5.260   0.055  0.2433  0.3290 -0.4473
 1572SOL    HW116775   9.558   5.204   0.052  1.5373  2.1844 -0.0144
 1572SOL    HW216776   9.499   5.356   0.040 -1.5318  1.1725  1.8034
 1573SOL     OW16777   5.938   6.486   1.077  0.5970  0.6107 -0.1271
 1573SOL    HW116778   5.896   6.508   1.165  1.1657  0.7173  0.1187
 1573SOL    HW216779   5.936   6.566   1.019  2.4817  1.2643  0.6934
 1574SOL     OW16780   2.934   5.748   6.217 -0.3018  0.0995 -0.5386
 1574SOL    HW116781   2.914   5.653   6.193  0.9899 -0.4050  0.3218
 1574SOL    HW216782   2.856   5.786   6.268 -0.9689 -0.3811 -1.1884
 1575SOL     OW16783   4.699   9.645   3.806 -0.0125 -0.4624 -0.3061
 1575SOL    HW116784   4.746   9.667   3.720  2.5870 -0.3478  1.1175
 1575SOL    HW216785   4.766   9.617   3.874 -1.8697  1.0763  2.2224
 1576SOL     OW16786   4.313   4.197   5.705  0.2236  0.3826 -0.2945
 1576SOL    HW116787   4.219   4.192   5.738 -0.1850  1.5359 -1.2578
 1576SOL    HW216788   4.321   4.141   5.622  0.4768  0.0244 -0.0325
 1577SOL     OW16789   9.389   0.897   4.937 -0.5899 -0.4039 -0.5734
 1577SOL    HW116790   9.486   0.884   4.954 -0.4145  0.4769 -0.8835
 1577SOL    HW216791   9.376   0.961   4.860 -1.4224  1.9214  1.4366
 1578SOL     OW16792   2.786   2.162   6.642  0.1727  0.3312 -0.0295
 1578SOL    HW116793   2.790   2.111   6.557 -0.9056  0.9613 -0.4646
 1578SOL    HW216794   2.691   2.174   6.670  0.4182  1.7134  0.2898
 1579SOL     OW16795   8.825   9.890   2.688  0.4454 -0.1960  0.6112
 1579SOL    HW116796   8.738   9.928   2.657  1.2423  0.6731 -0.6028
 1579SOL    HW216797   8.897   9.960   2.682  1.5798 -1.3830 -0.0342
 1580SOL     OW16798   3.674   0.572   6.284 -0.0554 -0.3638 -0.1268
 1580SOL    HW116799   3.625   0.582   6.371  0.9525  1.6389  0.2498
 1580SOL    HW216800   3.734   0.651   6.271  2.2399 -2.2062 -1.1022
 1581SOL     OW16801   1.159   4.923   1.362  0.3849  0.0086 -0.1013
 1581SOL    HW116802   1.106   5.008   1.357  0.4519  0.0966  0.5433
 1581SOL    HW216803   1.172   4.899   1.458  1.0382 -0.3165 -0.2708
 1582SOL     OW16804   8.852   8.283   1.919 -0.5511  0.2771 -0.1463
 1582SOL    HW116805   8.927   8.255   1.859 -1.7076  0.5022 -1.7348
 1582SOL    HW216806   8.802   8.202   1.950 -0.2606  0.1970  0.1170
 1583SOL     OW16807   0.046   2.363   2.712 -0.3191 -0.7718 -0.3699
 1583SOL    HW116808   0.060   2.461   2.696  1.6665 -1.0762 -0.6376
 1583SOL    HW216809   0.065   2.313   2.628 -1.0756 -1.4192 -0.1598
 1584SOL     OW16810   4.859   3.149   0.969  0.0623 -0.0617  0.4167
 1584SOL    HW116811   4.822   3.213   0.903 -1.7231  1.9501  3.2534
 1584SOL    HW216812   4.797   3.071   0.979  1.3574 -1.4153 -1.7220
 1585SOL     OW16813   9.645   3.373   0.098  0.3354 -0.5526 -0.8323
 1585SOL    HW116814   9.569   3.433   0.123 -0.5877 -2.0329  0.0079
 1585SOL    HW216815   9.648   3.364  -0.001 -0.3780 -0.2012 -0.8954
 1586SOL     OW16816   1.943   0.971   6.585 -0.2423  0.0418 -0.3121
 1586SOL    HW116817   1.933   0.927   6.496 -1.0367 -0.7863  0.1835
 1586SOL    HW216818   1.874   1.042   6.595 -0.5131 -0.2454 -0.1330
 1587SOL     OW16819   0.948   6.095   5.508  0.5517  0.1395  0.4444
 1587SOL    HW116820   0.859   6.129   5.478 -0.4273 -1.3468  1.6021
 1587SOL    HW216821   1.001   6.066   5.428 -0.5351 -0.2661 -0.1371
 1588SOL     OW16822   6.763   3.963   9.607  0.0423  0.2464  0.6148
 1588SOL    HW116823   6.730   3.873   9.636 -2.1573  1.3849  1.7789
 1588SOL    HW216824   6.698   4.002   9.542  0.9158  1.0748  0.2322
 1589SOL     OW16825   0.405   9.002   5.656 -0.0618  0.2858 -0.3794
 1589SOL    HW116826   0.469   8.927   5.667  0.1025  0.6213  1.0957
 1589SOL    HW216827   0.454   9.084   5.627 -0.1398  0.0023 -1.3176
 1590SOL     OW16828   8.025   9.738   7.939  0.3076 -0.0576 -0.0195
 1590SOL    HW116829   8.063   9.646   7.934  0.5618  0.0060  0.7034
 1590SOL    HW216830   7.958   9.743   8.013  0.1760  0.2999 -0.1592
 1591SOL     OW16831   4.201   5.264   1.176 -0.0515 -0.3104  0.0741
 1591SOL    HW116832   4.146   5.315   1.242  0.7770  0.4812  0.1574
 1591SOL    HW216833   4.153   5.261   1.088 -0.5738 -0.2760  0.3531
 1592SOL     OW16834   3.484   3.990   7.559  0.3245  0.4904 -0.0986
 1592SOL    HW116835   3.538   3.964   7.638 -0.2676  0.4711  0.3039
 1592SOL    HW216836   3.417   4.060   7.586 -0.4374 -0.1150 -0.3898
 1593SOL     OW16837   4.662   9.359   7.141 -0.0858 -0.2470  0.2837
 1593SOL    HW116838   4.744   9.328   7.190  1.1587  0.8006 -1.1024
 1593SOL    HW216839   4.641   9.453   7.168  0.8008  0.4579 -1.3762
 1594SOL     OW16840   3.334   9.952   6.427 -0.0329  0.1349  0.0104
 1594SOL    HW116841   3.352  10.014   6.350 -3.4591 -0.6842 -1.5530
 1594SOL    HW216842   3.340   9.857   6.396 -3.1325 -0.1971  0.2522
 1595SOL     OW16843   1.252   2.163   1.768 -0.1169  0.0485 -0.4100
 1595SOL    HW116844   1.320   2.154   1.696  0.7567  0.8461  0.2946
 1595SOL    HW216845   1.261   2.253   1.812 -1.0666 -0.1648  0.2511
 1596SOL     OW16846   4.850   2.217   9.431 -0.1107 -0.0146 -0.3340
 1596SOL    HW116847   4.910   2.298   9.433 -0.5150  0.3003 -0.8257
 1596SOL    HW216848   4.773   2.232   9.494 -0.7918  0.4603 -1.2754
 1597SOL     OW16849   0.626   3.099   6.299  0.1741  0.1411 -0.4790
 1597SOL    HW116850   0.643   3.197   6.293 -0.3796  0.2115 -0.8975
 1597SOL    HW216851   0.593   3.066   6.211  2.2582 -0.7797 -0.9571
 1598SOL     OW16852   2.282   3.718   3.872  0.3547  0.2044 -0.2577
 1598SOL    HW116853   2.313   3.671   3.789 -2.7352 -0.3231 -1.1575
 1598SOL    HW216854   2.206   3.668   3.913  0.0786  1.9139  1.4022
 1599SOL     OW16855   4.666   3.178   1.826 -0.0522 -0.0744 -0.7064
 1599SOL    HW116856   4.741   3.229   1.868  1.1870 -0.3625 -2.5006
 1599SOL    HW216857   4.579   3.219   1.852  0.8857  2.3693 -1.3349
 1600SOL     OW16858   6.989   9.737   4.686 -0.0463  0.5379 -0.1659
 1600SOL    HW116859   6.907   9.708   4.735  0.8764  1.5775  2.0533
 1600SOL    HW216860   7.019   9.664   4.625 -1.6654 -0.4774  0.2113
 1601SOL     OW16861   9.204   7.959   2.717  0.2600 -0.1404 -0.8503
 1601SOL    HW116862   9.193   7.972   2.816  0.6151 -1.6761 -0.5946
 1601SOL    HW216863   9.274   8.022   2.683  1.4578 -0.8587  0.2248
 1602SOL     OW16864   3.804   4.683   5.615  0.2863 -0.4929  0.2672
 1602SOL    HW116865   3.778   4.692   5.519 -0.9138  0.9233  0.7027
 1602SOL    HW216866   3.772   4.595   5.649  0.4721 -0.8876 -0.5644
 1603SOL     OW16867   9.940   3.575   2.262  0.4068 -0.1611  0.0221
 1603SOL    HW116868   9.938   3.607   2.167  1.1335 -0.7800 -0.2002
 1603SOL    HW216869  10.032   3.545   2.285 -0.0675 -1.2465  0.5122
 1604SOL     OW16870   6.819   5.278   7.154 -0.0505 -0.1115 -0.3713
 1604SOL    HW116871   6.757   5.287   7.233 -0.5221 -0.6337 -0.6707
 1604SOL    HW216872   6.856   5.185   7.153 -0.8908 -0.4461 -1.3697
 1605SOL     OW16873   6.738   3.018   0.692 -0.4861 -0.1045  0.4599
 1605SOL    HW116874   6.815   2.957   0.711 -0.9271 -1.2014 -1.2140
 1605SOL    HW216875   6.666   3.002   0.759  0.4873  0.5237  1.6859
 1606SOL     OW16876   1.316   0.543   5.569  0.2191  0.3059  0.4216
 1606SOL    HW116877   1.384   0.562   5.498 -1.0291 -0.8992 -1.1351
 1606SOL    HW216878   1.363   0.522   5.655  1.8403 -1.2439 -0.8021
 1607SOL     OW16879   2.681   7.650   4.517 -0.0349  0.0223 -0.1785
 1607SOL    HW116880   2.761   7.591   4.505  0.7048  1.1309 -0.7777
 1607SOL    HW216881   2.598   7.596   4.502  0.6365 -0.8118 -0.9958
 1608SOL     OW16882   1.753   5.280   0.357  0.4537  0.0254  0.5412
 1608SOL    HW116883   1.791   5.360   0.310  1.3280  0.5871  2.1464
 1608SOL    HW216884   1.666   5.255   0.315  1.1089  0.6161 -1.2351
 1609SOL     OW16885   2.389   7.848   1.693 -0.3515  0.6592 -0.0395
 1609SOL    HW116886   2.468   7.797   1.660 -0.0705  0.5083  0.8631
 1609SOL    HW216887   2.354   7.805   1.777 -0.8700  1.2162  0.0321
 1610SOL     OW16888   8.846   4.287   7.010  0.1652  0.0214  0.8770
 1610SOL    HW116889   8.833   4.214   6.943  0.1246  0.3246  0.5542
 1610SOL    HW216890   8.887   4.366   6.966 -0.6491  0.5289  1.0260
 1611SOL     OW16891   2.020   6.320   5.753  0.4980  0.5755 -0.0065
 1611SOL    HW116892   1.979   6.331   5.843 -1.6548 -1.3316 -0.6902
 1611SOL    HW216893   2.070   6.403   5.727  2.4938  0.5910  3.5658
 1612SOL     OW16894   2.758   3.021   1.084  0.1376  0.7822  0.0317
 1612SOL    HW116895   2.849   2.983   1.104 -0.3360  0.4659  1.6824
 1612SOL    HW216896   2.711   2.962   1.018  1.6677  1.7298 -1.9720
 1613SOL     OW16897   9.711   1.431   5.027 -0.4560  0.5026 -0.2704
 1613SOL    HW116898   9.809   1.441   5.008 -0.0790 -1.7927  0.3323
 1613SOL    HW216899   9.690   1.472   5.115 -0.0734  1.1811 -0.4910
 1614SOL     OW16900   6.616   9.219   5.613  0.1348 -0.3797 -0.1432
 1614SOL    HW116901   6.528   9.183   5.644  0.9002 -0.8608  1.5298
 1614SOL    HW216902   6.647   9.289   5.678  1.5095 -1.0160 -0.1099
 1615SOL     OW16903   1.745   4.874   7.987 -0.1400  0.7550 -0.0571
 1615SOL    HW116904   1.837   4.893   8.020 -0.3423  0.6603  0.5810
 1615SOL    HW216905   1.738   4.895   7.890  0.7181  0.2023 -0.2412
 1616SOL     OW16906   9.102   8.342   0.154 -0.3388 -0.4964 -0.0292
 1616SOL    HW116907   9.090   8.440   0.139  0.0726 -0.4036  0.2357
 1616SOL    HW216908   9.130   8.326   0.249  1.0236 -0.7509 -0.4667
 1617SOL     OW16909   2.145   6.466   8.410 -0.1200  0.0974 -0.7133
 1617SOL    HW116910   2.131   6.382   8.358 -1.1075 -1.3422  1.7864
 1617SOL    HW216911   2.057   6.498   8.446  0.7462  0.0800  1.5170
 1618SOL     OW16912   9.318   9.588   6.002  0.0842  0.1690  0.6722
 1618SOL    HW116913   9.228   9.595   5.959 -0.1742  0.7202  1.2947
 1618SOL    HW216914   9.386   9.636   5.947 -0.2762  1.0171  0.9704
 1619SOL     OW16915   8.970   5.936   2.873  0.9475 -1.0002 -0.4352
 1619SOL    HW116916   8.960   5.873   2.796 -0.2057 -1.3210 -0.0381
 1619SOL    HW216917   9.013   5.889   2.949  2.8825 -0.4446 -1.1515
 1620SOL     OW16918   0.346   8.121   8.544 -0.2459 -0.5474 -0.5399
 1620SOL    HW116919   0.440   8.086   8.548 -0.2612 -0.4620  1.0213
 1620SOL    HW216920   0.345   8.217   8.571 -0.7922 -0.5519 -0.5416
 1621SOL     OW16921   6.053   2.594   0.442  0.0543  0.3833  0.5336
 1621SOL    HW116922   6.139   2.616   0.396 -1.3519  2.7232 -1.1406
 1621SOL    HW216923   5.990   2.551   0.377 -0.6591  0.3280  1.2518
 1622SOL     OW16924   3.311   8.558   6.359  0.3566 -0.1719 -0.0881
 1622SOL    HW116925   3.274   8.556   6.452 -1.5759  0.6201 -0.8126
 1622SOL    HW216926   3.325   8.465   6.326 -1.9581 -0.5280 -0.1430
 1623SOL     OW16927   1.352   8.043   4.266 -0.3017 -0.3073  0.2733
 1623SOL    HW116928   1.284   7.987   4.313 -1.2768  0.7073  0.0804
 1623SOL    HW216929   1.418   7.983   4.220 -2.1031 -1.3103 -1.0842
 1624SOL     OW16930   7.550   4.455   0.898  1.1716 -0.5918 -0.1368
 1624SOL    HW116931   7.522   4.362   0.921  1.3141 -0.4053  0.7977
 1624SOL    HW216932   7.507   4.519   0.961 -0.4352  0.1455 -1.9427
 1625SOL     OW16933   8.618   6.013   2.666  0.2232  0.7395 -0.1152
 1625SOL    HW116934   8.624   5.986   2.762 -0.4402  3.3358  0.7121
 1625SOL    HW216935   8.522   6.023   2.641  0.3722 -0.6805 -1.2975
 1626SOL     OW16936   0.667   4.284   5.114 -0.1963  0.2386 -0.6686
 1626SOL    HW116937   0.741   4.246   5.170 -0.1818 -0.7412 -1.3499
 1626SOL    HW216938   0.619   4.210   5.068 -2.3397  0.7667  0.6607
 1627SOL     OW16939   4.986   3.396   8.708  0.2688  0.6536  0.2402
 1627SOL    HW116940   5.039   3.409   8.624 -0.9362  0.8950 -0.5038
 1627SOL    HW216941   5.015   3.463   8.777 -0.3887  2.0489 -0.8143
 1628SOL     OW16942   5.812   9.514   4.317  0.0925  0.4208 -0.6368
 1628SOL    HW116943   5.731   9.492   4.264 -0.3200 -1.8204  0.8691
 1628SOL    HW216944   5.794   9.499   4.414  3.0943 -2.6761 -0.4809
 1629SOL     OW16945   1.405   8.153   9.606  0.4278  0.0473  0.3966
 1629SOL    HW116946   1.505   8.158   9.604  0.3960  0.5205 -1.0578
 1629SOL    HW216947   1.375   8.077   9.548 -0.0846  0.3953  0.2071
 1630SOL     OW16948   2.894   5.085   1.201 -0.0917 -0.0746 -0.0688
 1630SOL    HW116949   2.847   5.092   1.288 -2.9680 -1.1363 -1.4896
 1630SOL    HW216950   2.844   5.136   1.131  1.5527 -0.1761 -1.3654
 1631SOL     OW16951   3.670   8.253   9.135 -0.1273  0.0606 -0.9077
 1631SOL    HW116952   3.698   8.163   9.102 -1.8797 -0.2665 -1.5927
 1631SOL    HW216953   3.573   8.266   9.114  0.0327  1.9624 -0.4786
 1632SOL     OW16954   7.885   1.722   8.445 -0.1376  0.1231 -0.2652
 1632SOL    HW116955   7.841   1.633   8.433 -0.8430  0.4807 -0.3403
 1632SOL    HW216956   7.950   1.718   8.521 -1.6875  0.1188  1.0661
 1633SOL     OW16957   8.067   2.169   2.443  0.4139 -0.3737 -0.8282
 1633SOL    HW116958   8.033   2.180   2.349 -1.9568 -1.2254 -0.0972
 1633SOL    HW216959   8.042   2.250   2.497  0.7142 -0.4174 -0.6249
 1634SOL     OW16960   7.563   7.961   6.151  0.2930 -0.8378  0.0500
 1634SOL    HW116961   7.620   7.879   6.156  1.0837 -0.4541 -2.1769
 1634SOL    HW216962   7.621   8.041   6.135 -0.6239 -0.0775  0.4894
 1635SOL     OW16963   5.179   6.240   2.219 -0.0436 -0.0871 -0.0250
 1635SOL    HW116964   5.131   6.158   2.248  0.8227 -0.8181 -0.6297
 1635SOL    HW216965   5.217   6.287   2.299 -0.4649 -0.3180  0.3088
 1636SOL     OW16966   2.506   4.859   5.637  0.0109 -0.3340  0.1618
 1636SOL    HW116967   2.578   4.875   5.703  1.3072  1.9489 -1.7531
 1636SOL    HW216968   2.546   4.847   5.546 -1.9616  0.1473 -0.7939
 1637SOL     OW16969   0.894   2.678   3.045 -0.2204 -0.0527  0.8187
 1637SOL    HW116970   0.853   2.603   2.994  0.0229  0.5709 -0.2954
 1637SOL    HW216971   0.852   2.764   3.017 -0.5334  0.2347  2.1207
 1638SOL     OW16972   2.018   6.742   7.464 -0.4449  0.2173 -0.0764
 1638SOL    HW116973   2.034   6.686   7.383  0.6762 -1.2511  1.1221
 1638SOL    HW216974   1.922   6.772   7.465 -1.0527 -1.5917 -0.8087
 1639SOL     OW16975   2.566   0.442   9.945 -0.1066 -0.5423  0.1291
 1639SOL    HW116976   2.541   0.393  10.028  3.2361 -0.7255  1.1043
 1639SOL    HW216977   2.643   0.396   9.900  1.6794  2.5339 -0.1170
 1640SOL     OW16978   7.017   5.309   8.811 -0.0688  0.0337  0.6936
 1640SOL    HW116979   7.076   5.344   8.738 -0.5755  0.4200  0.4729
 1640SOL    HW216980   7.074   5.284   8.890  0.6472 -1.6770 -0.3151
 1641SOL     OW16981   5.654   0.226   3.408  0.5174  0.1094 -0.2312
 1641SOL    HW116982   5.606   0.145   3.442  1.4544 -0.3987 -0.1274
 1641SOL    HW216983   5.726   0.199   3.344  1.8902  0.7311  1.0214
 1642SOL     OW16984   3.500   9.139   1.965 -0.1541 -0.4775 -0.0336
 1642SOL    HW116985   3.598   9.122   1.967  0.0116  0.3712 -0.6049
 1642SOL    HW216986   3.464   9.116   1.874 -0.6740 -1.7580  0.4774
 1643SOL     OW16987   2.879   1.163   7.989 -0.3642  0.1105  0.4020
 1643SOL    HW116988   2.818   1.109   8.047 -0.5944  1.0839  1.0813
 1643SOL    HW216989   2.972   1.157   8.025 -0.4067  0.2418  0.5362
 1644SOL     OW16990   3.470   9.323   3.063  0.1629 -0.0499 -0.3008
 1644SOL    HW116991   3.446   9.276   3.149 -0.4838  0.7806 -0.0265
 1644SOL    HW216992   3.517   9.408   3.084  0.8221 -0.2898 -0.7960
 1645SOL     OW16993   0.740   2.017   9.094 -0.2470  0.3844  0.5225
 1645SOL    HW116994   0.674   2.092   9.084 -2.4802 -1.5269  0.4820
 1645SOL    HW216995   0.774   2.016   9.188 -1.6042  0.3393  1.0307
 1646SOL     OW16996   7.257   6.012   8.019 -0.5869 -0.1424  0.7331
 1646SOL    HW116997   7.297   6.048   8.104 -0.4609 -1.4648  1.2460
 1646SOL    HW216998   7.286   5.917   8.006 -2.0841 -0.5315  0.1542
 1647SOL     OW16999   2.407   4.040   2.616  0.0223 -0.5827  0.1505
 1647SOL    HW117000   2.492   4.057   2.666 -0.3640 -1.7743  1.2434
 1647SOL    HW217001   2.425   4.042   2.518  1.3301 -0.9579  0.3753
 1648SOL     OW17002   9.665   4.520   9.374  0.0254 -0.4954  0.4049
 1648SOL    HW117003   9.757   4.559   9.380 -0.4210  0.5858  0.3060
 1648SOL    HW217004   9.599   4.584   9.413 -0.8210 -0.7845 -0.5356
 1649SOL     OW17005   4.861   8.530   0.986  0.2407 -0.3425  0.2573
 1649SOL    HW117006   4.856   8.597   0.912  1.3786 -0.3934  0.1306
 1649SOL    HW217007   4.807   8.449   0.961  1.3306 -0.7346 -0.9300
 1650SOL     OW17008   7.802   0.497   3.798 -0.0921 -0.0676  0.2422
 1650SOL    HW117009   7.895   0.463   3.812 -0.3186 -1.4549 -1.4413
 1650SOL    HW217010   7.753   0.434   3.739 -1.7385  1.2868  0.1506
 1651SOL     OW17011   9.783   8.662   5.740  0.8058  0.6240  0.4475
 1651SOL    HW117012   9.864   8.605   5.744  1.4934  1.6890  2.0485
 1651SOL    HW217013   9.702   8.604   5.730  1.5435 -0.5795  1.3170
 1652SOL     OW17014   0.797   8.485   6.771 -0.2626  0.1019  0.2057
 1652SOL    HW117015   0.808   8.567   6.826 -1.8445 -0.5249  1.4699
 1652SOL    HW217016   0.850   8.410   6.811  0.2157  0.1671 -0.2843
 1653SOL     OW17017   3.840   5.607   1.103  0.1852 -0.1607  0.0234
 1653SOL    HW117018   3.773   5.649   1.042  0.1203  2.0280  1.5367
 1653SOL    HW217019   3.823   5.509   1.110 -1.4549  0.0109 -1.3489
 1654SOL     OW17020   4.720   8.544   7.788 -0.0758  0.1102 -0.5362
 1654SOL    HW117021   4.729   8.628   7.735  1.9155  0.0290 -0.3524
 1654SOL    HW217022   4.695   8.469   7.726  0.5230  0.3576 -1.0852
 1655SOL     OW17023   0.345   9.603   1.752 -0.3195 -0.6246 -1.0353
 1655SOL    HW117024   0.295   9.559   1.677  0.8317 -1.2938 -1.4367
 1655SOL    HW217025   0.423   9.653   1.714 -1.4288  1.5204 -0.5464
 1656SOL     OW17026   0.556   0.893   1.945 -1.3262 -0.2869 -0.4936
 1656SOL    HW117027   0.574   0.854   2.035 -0.3389  0.4728 -0.3434
 1656SOL    HW217028   0.563   0.993   1.950 -3.7821 -0.0600 -0.8681
 1657SOL     OW17029   4.372   6.670   3.134 -0.3141 -0.2312  0.0127
 1657SOL    HW117030   4.278   6.694   3.109 -0.8158  0.0695  2.1499
 1657SOL    HW217031   4.432   6.685   3.055 -1.4964  3.0041 -0.3512
 1658SOL     OW17032   8.764   9.837   4.954  0.3384  0.4415 -0.0914
 1658SOL    HW117033   8.750   9.750   5.001 -3.5353  1.6236  1.0642
 1658SOL    HW217034   8.766   9.821   4.855 -1.6741 -0.8146  0.0542
 1659SOL     OW17035   6.611   9.645   7.972  0.8689  0.2068 -1.0522
 1659SOL    HW117036   6.616   9.652   8.072  0.3166 -0.3801 -0.9807
 1659SOL    HW217037   6.629   9.734   7.932 -1.0260  0.9462 -0.3359
 1660SOL     OW17038   0.107   0.157   8.779  0.3078  0.2169 -0.1784
 1660SOL    HW117039   0.103   0.065   8.818  0.4203  0.3380  0.1153
 1660SOL    HW217040   0.018   0.200   8.785  0.2920  0.1848 -0.1819
 1661SOL     OW17041   4.226   0.735   6.907 -0.6199 -0.2271 -0.0553
 1661SOL    HW117042   4.179   0.750   6.994 -1.5998  0.5654 -0.7051
 1661SOL    HW217043   4.285   0.813   6.888  0.3806 -0.8660  0.3802
 1662SOL     OW17044   9.153   6.229   8.264 -0.1853  0.2197 -0.1590
 1662SOL    HW117045   9.143   6.326   8.240 -1.2536 -0.1808 -1.4101
 1662SOL    HW217046   9.091   6.175   8.207  1.4087 -1.3453 -0.4408
 1663SOL     OW17047   4.348   2.237   6.283  0.0921 -0.3736  0.0469
 1663SOL    HW117048   4.345   2.335   6.302 -4.0762 -0.4411  0.1142
 1663SOL    HW217049   4.334   2.220   6.186 -0.1175 -0.9685  0.1763
 1664SOL     OW17050   4.321   0.406   0.593 -0.2429 -0.2560 -0.5353
 1664SOL    HW117051   4.287   0.312   0.584 -1.1151 -0.0633  0.5614
 1664SOL    HW217052   4.346   0.423   0.689  1.3036  0.1661 -1.0047
 1665SOL     OW17053   8.039   1.934   7.789 -0.0588  0.0318  0.1286
 1665SOL    HW117054   8.096   1.869   7.839 -0.4838  0.1968  0.8285
 1665SOL    HW217055   8.075   2.026   7.800  0.5594 -0.0775 -0.8873
 1666SOL     OW17056   7.734   6.943   7.524 -0.0894  0.4381 -0.0263
 1666SOL    HW117057   7.743   6.961   7.623  0.5034  1.4030 -0.2444
 1666SOL    HW217058   7.638   6.935   7.501 -0.1607 -2.2462  1.0464
 1667SOL     OW17059   9.246   7.678   2.684 -0.3778  0.5896 -0.0798
 1667SOL    HW117060   9.227   7.776   2.680  0.1179  0.7208  0.6245
 1667SOL    HW217061   9.339   7.664   2.719  0.1318 -0.0846 -1.6622
 1668SOL     OW17062   4.730   8.442   6.481 -0.2159 -0.1657 -0.3328
 1668SOL    HW117063   4.814   8.425   6.533  0.3137 -0.8053 -1.3561
 1668SOL    HW217064   4.717   8.540   6.470  0.8561 -0.0719 -0.8635
 1669SOL     OW17065   3.541   5.673  10.052 -0.2314  0.2669 -0.2636
 1669SOL    HW117066   3.492   5.742  10.106  0.1421  0.3920 -0.0813
 1669SOL    HW217067   3.535   5.585  10.097 -0.0042  0.3513 -0.0681
 1670SOL     OW17068   4.054   2.476   7.412 -0.5762  0.0247  0.1447
 1670SOL    HW117069   4.062   2.423   7.497  0.7184 -0.2003 -0.1035
 1670SOL    HW217070   4.106   2.431   7.340 -1.1534  0.5573 -0.6114
 1671SOL     OW17071   1.044   6.851   8.973  0.4322  0.2321  0.3672
 1671SOL    HW117072   1.130   6.901   8.969 -0.1861  1.3202  0.4122
 1671SOL    HW217073   0.968   6.914   8.958 -0.3842 -0.6409  0.7699
 1672SOL     OW17074   9.617   8.587   1.835 -0.5136  0.0715  0.8893
 1672SOL    HW117075   9.695   8.549   1.885  0.5201 -0.3237 -0.9688
 1672SOL    HW217076   9.536   8.586   1.893  0.0289 -2.8123  1.6498
 1673SOL     OW17077   5.654   8.031   8.361 -0.2015 -0.2492 -0.1599
 1673SOL    HW117078   5.694   8.116   8.327 -0.2090 -0.4199 -0.6135
 1673SOL    HW217079   5.631   8.040   8.458  0.4176  0.0368 -0.0408
 1674SOL     OW17080   9.870   3.573   7.550  0.1376 -0.1710 -0.4537
 1674SOL    HW117081   9.911   3.537   7.466 -1.0511 -0.8221 -0.7641
 1674SOL    HW217082   9.879   3.506   7.623 -0.4676 -0.3700 -0.5569
 1675SOL     OW17083   9.229   1.228   4.905  0.3226  0.6755 -0.3246
 1675SOL    HW117084   9.136   1.234   4.941  1.0558  0.3893  1.6666
 1675SOL    HW217085   9.295   1.230   4.981  1.9871  1.8555 -1.7546
 1676SOL     OW17086   1.716   4.385   1.461 -0.0882 -0.5041  0.4184
 1676SOL    HW117087   1.777   4.457   1.427  1.0050 -1.1931  0.8708
 1676SOL    HW217088   1.750   4.296   1.431 -0.0120 -1.0111  1.9436
 1677SOL     OW17089   7.165   0.798   0.285  0.1358 -0.0826 -0.2806
 1677SOL    HW117090   7.259   0.768   0.300  0.1466 -0.2078 -0.6139
 1677SOL    HW217091   7.110   0.721   0.253  0.0636  0.1473 -0.7095
 1678SOL     OW17092   2.331   3.302   3.102  0.1503  0.4235  0.1264
 1678SOL    HW117093   2.299   3.396   3.092 -0.3759  0.2084 -0.2981
 1678SOL    HW217094   2.356   3.266   3.012  0.3491  0.1604  0.2859
 1679SOL     OW17095   3.560   9.813   9.244  0.3058 -0.6206  0.3991
 1679SOL    HW117096   3.467   9.814   9.279 -0.3042  2.7755 -1.0889
 1679SOL    HW217097   3.625   9.812   9.320 -0.9286 -1.5934  1.4546
 1680SOL     OW17098   0.933   8.092   7.219 -0.1019  0.3842  0.0769
 1680SOL    HW117099   0.942   7.999   7.256 -0.6246  0.7678  1.1989
 1680SOL    HW217100   0.910   8.088   7.122 -2.1596 -0.6617  0.6002
 1681SOL     OW17101   2.992   6.607   0.731  0.3404 -0.3319  0.5723
 1681SOL    HW117102   3.091   6.620   0.728  0.2099  1.2236  1.9872
 1681SOL    HW217103   2.958   6.636   0.820 -1.5957  0.7500 -0.4938
 1682SOL     OW17104   9.548   3.833   6.911  0.3337 -0.2056 -0.0547
 1682SOL    HW117105   9.500   3.751   6.880  1.3859 -1.3503  1.2274
 1682SOL    HW217106   9.496   3.876   6.985  0.2423 -0.2607 -0.0879
 1683SOL     OW17107   4.285   6.599   2.470  0.2488 -0.6239  0.0613
 1683SOL    HW117108   4.213   6.605   2.538  0.3604 -0.3915  0.1604
 1683SOL    HW217109   4.296   6.504   2.440 -0.1116 -0.6535  0.0298
 1684SOL     OW17110   0.276   8.108   6.490  0.2233 -0.6585 -0.1514
 1684SOL    HW117111   0.184   8.128   6.525  1.0887  2.5215  0.4933
 1684SOL    HW217112   0.269   8.048   6.410 -2.5232  0.4521 -0.8050
 1685SOL     OW17113   3.988   8.184   5.669 -0.4216 -0.3451 -0.0634
 1685SOL    HW117114   4.027   8.142   5.751  1.3999 -0.6972 -1.0703
 1685SOL    HW217115   3.994   8.120   5.593 -1.1834  0.3319 -0.6979
 1686SOL     OW17116   1.669   4.784   2.451  0.1967 -0.3949  0.0922
 1686SOL    HW117117   1.739   4.730   2.499  0.6766  0.2911  0.1681
 1686SOL    HW217118   1.676   4.768   2.353 -1.8898 -3.1312  0.3324
 1687SOL     OW17119   8.272   8.885   9.842 -0.3988 -0.1808 -0.1237
 1687SOL    HW117120   8.276   8.983   9.824 -0.5815 -0.2638 -0.6209
 1687SOL    HW217121   8.303   8.867   9.935 -0.2246  0.3355 -0.0807
 1688SOL     OW17122   1.194   9.425   7.429  0.0189 -0.5318 -0.2246
 1688SOL    HW117123   1.126   9.370   7.477 -0.0212  1.1612  1.7067
 1688SOL    HW217124   1.277   9.432   7.485 -0.1483  1.7513 -0.2294
 1689SOL     OW17125   1.545   3.272   0.588 -0.0465  0.1772  0.5446
 1689SOL    HW117126   1.505   3.247   0.676 -0.0923 -1.1377  0.1580
 1689SOL    HW217127   1.628   3.218   0.572  0.9147  1.6438  0.5557
 1690SOL     OW17128   8.565   0.899   3.762 -0.2486 -0.1944 -0.6613
 1690SOL    HW117129   8.622   0.950   3.699 -0.4498 -1.1267 -1.6142
 1690SOL    HW217130   8.555   0.950   3.848  2.1814 -0.1312 -0.4021
 1691SOL     OW17131   7.284   6.055   1.262 -0.2950  0.0870 -0.0520
 1691SOL    HW117132   7.250   6.008   1.344 -0.3633 -0.6978 -0.5312
 1691SOL    HW217133   7.302   5.988   1.190 -0.8869  0.8490 -0.9209
 1692SOL     OW17134   3.230   2.070   6.575  0.5509 -0.0350  0.3350
 1692SOL    HW117135   3.239   2.022   6.662  1.3450 -0.1614  0.1890
 1692SOL    HW217136   3.190   2.160   6.591  1.2720  0.1892  0.9167
 1693SOL     OW17137   5.318   0.851   5.616  0.7258  0.0433  0.5305
 1693SOL    HW117138   5.397   0.828   5.559  0.3563  0.1969 -0.0569
 1693SOL    HW217139   5.331   0.941   5.657  1.4527 -0.5046  1.5262
 1694SOL     OW17140   8.596   4.759   2.234  0.3335 -0.2516  0.3198
 1694SOL    HW117141   8.623   4.812   2.154  2.0862 -2.4158 -0.6006
 1694SOL    HW217142   8.516   4.800   2.276 -0.3359  1.2244 -2.2704
 1695SOL     OW17143   1.823   0.721   2.066 -1.0293 -0.4294 -0.4751
 1695SOL    HW117144   1.724   0.732   2.062 -0.8637  0.5486 -2.1417
 1695SOL    HW217145   1.855   0.675   1.983 -0.2577 -2.1442  0.7575
 1696SOL     OW17146   1.414   3.300   0.187 -0.0098  0.4040 -0.0703
 1696SOL    HW117147   1.364   3.335   0.108 -0.8613  0.6118  0.5559
 1696SOL    HW217148   1.364   3.224   0.227  0.1507  0.6462  0.5955
 1697SOL     OW17149   7.680   7.328   7.726  0.1729  0.4998  0.7020
 1697SOL    HW117150   7.682   7.349   7.629  1.9717  1.4819  0.9301
 1697SOL    HW217151   7.769   7.292   7.755  0.2608  1.9308  2.3310
 1698SOL     OW17152   1.494   0.472   5.794 -0.0697  0.2681  0.0452
 1698SOL    HW117153   1.526   0.386   5.754 -0.4003 -0.0351  0.4255
 1698SOL    HW217154   1.458   0.454   5.886  2.1503  1.1986  1.1197
 1699SOL     OW17155   8.339   9.438   2.444 -0.1412 -0.1326 -0.3371
 1699SOL    HW117156   8.274   9.367   2.472 -1.3741  0.1788 -2.2538
 1699SOL    HW217157   8.371   9.419   2.351 -1.0649  2.1620 -1.1802
 1700SOL     OW17158   6.541   5.709   2.723 -0.1556 -0.4373  0.0105
 1700SOL    HW117159   6.634   5.735   2.700  0.2575 -2.2469 -0.4831
 1700SOL    HW217160   6.539   5.666   2.814 -0.4722 -0.5758 -0.0584
 1701SOL     OW17161   1.122   0.805   0.024  0.3680 -0.1887  0.4562
 1701SOL    HW117162   1.202   0.837  -0.026 -0.8652  2.6111  0.2171
 1701SOL    HW217163   1.087   0.879   0.082 -1.9971 -1.4053  0.6253
 1702SOL     OW17164   8.816   9.929   1.524 -0.0553  0.3440  0.0744
 1702SOL    HW117165   8.836   9.860   1.454 -0.8814  0.7510 -0.5854
 1702SOL    HW217166   8.740   9.897   1.581 -0.3779  0.6565 -0.1731
 1703SOL     OW17167   0.616   1.581   1.108  0.0443 -0.4012 -0.4944
 1703SOL    HW117168   0.625   1.505   1.173 -1.4504  0.6024  0.9355
 1703SOL    HW217169   0.607   1.545   1.016  0.6385 -1.9123  0.0124
 1704SOL     OW17170   0.701   8.758   2.899 -0.0635  0.4245  0.5750
 1704SOL    HW117171   0.760   8.838   2.912  0.1839  0.3447 -0.0204
 1704SOL    HW217172   0.618   8.768   2.953  0.3530  0.6870  1.1745
 1705SOL     OW17173   4.445   4.235   1.017  0.4975 -0.1236 -0.0685
 1705SOL    HW117174   4.453   4.135   1.020  0.9908 -0.1284 -1.4241
 1705SOL    HW217175   4.386   4.261   0.941 -0.3813  0.5897  0.8415
 1706SOL     OW17176   1.272   2.892   0.009 -0.0458 -0.1189 -0.1973
 1706SOL    HW117177   1.180   2.932   0.017 -1.1373 -2.5427 -0.0196
 1706SOL    HW217178   1.313   2.885   0.100  1.0374  2.4917 -0.4420
 1707SOL     OW17179   7.308   5.830   5.960  0.5819 -0.1021 -0.2966
 1707SOL    HW117180   7.281   5.858   6.052  0.0795  0.8088 -0.7144
 1707SOL    HW217181   7.311   5.910   5.900 -1.1890 -0.9528 -1.5866
 1708SOL     OW17182   9.542   4.105   6.157 -0.2082  0.5430 -0.4941
 1708SOL    HW117183   9.545   4.153   6.069 -0.9320  1.0026 -0.2721
 1708SOL    HW217184   9.463   4.044   6.159  0.1745  0.0505 -0.4102
 1709SOL     OW17185   1.681   5.125   7.299 -0.0100  0.0665 -0.0287
 1709SOL    HW117186   1.679   5.025   7.289  0.2387 -0.2910  2.9507
 1709SOL    HW217187   1.588   5.161   7.293 -0.2403 -0.4951  0.1781
 1710SOL     OW17188   7.308   0.741   8.165  0.0016  0.2006  0.1341
 1710SOL    HW117189   7.228   0.696   8.205 -1.5567  1.8009 -1.1134
 1710SOL    HW217190   7.391   0.697   8.200 -1.4096 -3.2304 -0.5530
 1711SOL     OW17191   0.055   7.851   4.495  0.2952 -0.1566 -0.1904
 1711SOL    HW117192   0.136   7.890   4.538  2.2391 -2.0355 -1.9685
 1711SOL    HW217193   0.032   7.764   4.539  0.0958 -0.3089 -0.5877
 1712SOL     OW17194   1.546   2.572   4.565 -0.3187 -0.4216 -0.7529
 1712SOL    HW117195   1.461   2.586   4.617  0.0404 -0.5425 -0.1310
 1712SOL    HW217196   1.573   2.476   4.571  1.0904  0.0603  0.9632
 1713SOL     OW17197   2.722   2.944   8.592 -0.4397  0.3432 -0.0968
 1713SOL    HW117198   2.711   3.043   8.603 -1.0354  0.4063 -1.2665
 1713SOL    HW217199   2.706   2.899   8.680 -0.1587  1.2772  0.4425
 1714SOL     OW17200   1.053   7.057   7.564 -0.0376  0.1679 -0.1339
 1714SOL    HW117201   1.103   7.140   7.588  4.1664 -2.5782  1.2181
 1714SOL    HW217202   0.984   7.038   7.634  0.5613  1.2692  0.7633
 1715SOL     OW17203   1.225   1.705   5.335  0.0268  0.3423  0.5834
 1715SOL    HW117204   1.291   1.763   5.382 -1.6789  2.6884  0.1811
 1715SOL    HW217205   1.255   1.610   5.338  1.9933  1.0085  2.8053
 1716SOL     OW17206   9.083   1.321   3.389  0.0393 -0.4082 -0.0746
 1716SOL    HW117207   9.103   1.383   3.313 -0.1478  0.2044  0.3694
 1716SOL    HW217208   8.990   1.339   3.422  0.2294 -0.4764  0.4897
 1717SOL     OW17209   3.728   5.002   9.548 -0.1634 -0.0978 -0.1044
 1717SOL    HW117210   3.732   5.101   9.557  0.9395 -0.1042 -0.4266
 1717SOL    HW217211   3.703   4.961   9.636  1.2353  0.3600  0.5090
 1718SOL     OW17212   1.671   1.152   1.703 -0.5167 -0.1227 -0.0815
 1718SOL    HW117213   1.653   1.106   1.790 -0.0255 -2.6403 -1.2801
 1718SOL    HW217214   1.757   1.203   1.710  0.0164 -1.0930  0.6124
 1719SOL     OW17215   1.836   0.080   0.328 -0.0823 -0.2383 -0.1742
 1719SOL    HW117216   1.900   0.084   0.404  0.4427 -0.6471 -0.5891
 1719SOL    HW217217   1.849   0.160   0.270 -0.4752  0.0679  0.1597
 1720SOL     OW17218   8.369   6.329   3.376  0.0456  0.1382 -0.3114
 1720SOL    HW117219   8.363   6.236   3.413  2.0250 -0.8049 -2.2116
 1720SOL    HW217220   8.290   6.347   3.317  0.7816 -1.2251 -1.7596
 1721SOL     OW17221   5.582   1.587   1.192 -0.2374  0.5213  0.2024
 1721SOL    HW117222   5.672   1.621   1.221 -0.5249  1.9488 -0.5571
 1721SOL    HW217223   5.511   1.637   1.241 -0.6315 -0.1830  0.3473
 1722SOL     OW17224   5.662   4.054   1.010 -0.0379 -0.4456 -0.4268
 1722SOL    HW117225   5.613   4.084   1.092  0.3623  0.8713 -0.6627
 1722SOL    HW217226   5.723   3.979   1.034 -0.2393 -0.3549  0.3917
 1723SOL     OW17227   2.606   1.104   0.650  0.1151 -0.0938 -0.2865
 1723SOL    HW117228   2.603   1.093   0.551 -0.6404  0.3656 -0.3153
 1723SOL    HW217229   2.701   1.096   0.681  0.3434 -0.3202 -1.0334
 1724SOL     OW17230   4.098   5.636   2.594 -0.1599  0.2127  0.4169
 1724SOL    HW117231   4.191   5.649   2.627 -0.5468 -0.4839  1.8361
 1724SOL    HW217232   4.052   5.724   2.586  0.7383  0.5968 -0.6902
 1725SOL     OW17233   6.185   1.958   2.238  0.1307  0.4350 -0.4449
 1725SOL    HW117234   6.141   1.966   2.149 -1.8652  0.9728  0.5490
 1725SOL    HW217235   6.172   1.866   2.273  0.2209  0.4508 -0.3704
 1726SOL     OW17236   5.994   1.964   2.029  0.2485 -0.1651  0.1048
 1726SOL    HW117237   6.005   1.925   1.938 -0.9225  0.0068 -0.1200
 1726SOL    HW217238   5.948   2.053   2.022 -0.0634 -0.2585  0.8838
 1727SOL     OW17239   3.077   9.639   3.393 -0.0219  0.1256  0.5077
 1727SOL    HW117240   3.088   9.639   3.492  1.1926 -0.9430  0.3838
 1727SOL    HW217241   3.015   9.713   3.366  2.0840  2.4386  1.7964
 1728SOL     OW17242   9.430   4.129   7.812 -0.0023 -0.0848 -0.1734
 1728SOL    HW117243   9.512   4.157   7.763  0.0238  1.0891  0.5086
 1728SOL    HW217244   9.443   4.143   7.910 -0.7480 -0.5903  0.0033
 1729SOL     OW17245   0.394   5.126   5.972 -0.5318 -0.4929 -0.6005
 1729SOL    HW117246   0.466   5.195   5.966  1.3700 -2.4335 -0.5957
 1729SOL    HW217247   0.351   5.130   6.062  0.0863  0.1352 -0.3276
 1730SOL     OW17248   7.053   7.469   6.876  0.3203  0.1931  0.2963
 1730SOL    HW117249   7.147   7.443   6.855 -0.0019  1.7004 -3.4028
 1730SOL    HW217250   7.053   7.558   6.921  0.8197 -1.4709  3.7154
 1731SOL     OW17251   5.406   9.204   5.803 -0.3835 -0.1640 -0.2013
 1731SOL    HW117252   5.314   9.207   5.842  0.0606 -1.1216  0.9310
 1731SOL    HW217253   5.417   9.121   5.749  0.5601 -1.2479  1.5924
 1732SOL     OW17254   5.441   2.052   5.574 -0.1920  0.3857  0.0315
 1732SOL    HW117255   5.363   1.992   5.561  1.1155 -1.1490 -1.0270
 1732SOL    HW217256   5.411   2.140   5.609 -2.3475 -0.2692 -0.1362
 1733SOL     OW17257   9.088   1.474   5.653 -0.4144 -0.3017  0.1279
 1733SOL    HW117258   9.012   1.452   5.715 -0.3038  1.9024  1.0834
 1733SOL    HW217259   9.137   1.554   5.688  0.7429 -0.1013 -1.8996
 1734SOL     OW17260   0.869   2.756   3.464  0.1479 -0.2876 -0.0254
 1734SOL    HW117261   0.816   2.814   3.402  0.2201  0.0279  0.2077
 1734SOL    HW217262   0.806   2.708   3.527  0.1096 -0.2374 -0.0257
 1735SOL     OW17263   6.376   1.308   2.445  0.0037 -0.1450 -0.1044
 1735SOL    HW117264   6.396   1.290   2.541 -0.7767  0.8298  0.2555
 1735SOL    HW217265   6.283   1.280   2.424  0.0277  0.0333 -0.4672
 1736SOL     OW17266   7.862   9.641   7.759 -0.4040 -0.1680 -0.0199
 1736SOL    HW117267   7.909   9.607   7.677  1.1429 -0.9714  1.1516
 1736SOL    HW217268   7.930   9.676   7.824 -1.3398 -2.0232  2.0307
 1737SOL     OW17269   7.852   2.323   8.402  0.1234 -0.3750 -0.3128
 1737SOL    HW117270   7.831   2.337   8.498 -1.7690 -0.5118 -0.6974
 1737SOL    HW217271   7.769   2.299   8.352  0.9110  0.5960 -2.1471
 1738SOL     OW17272   9.082   2.555   7.743  0.5464 -0.1696 -0.1717
 1738SOL    HW117273   9.095   2.642   7.790 -2.6453  0.6615 -0.7029
 1738SOL    HW217274   9.067   2.573   7.645  2.5288 -1.5294 -0.7412
 1739SOL     OW17275   9.542   8.306   2.700 -0.6229 -0.3785 -0.9470
 1739SOL    HW117276   9.639   8.321   2.715 -0.2805 -2.2923 -1.0939
 1739SOL    HW217277   9.491   8.327   2.783  0.6002 -5.2308  1.2204
 1740SOL     OW17278   8.642   6.403   8.557 -0.4345  0.3870  0.5207
 1740SOL    HW117279   8.633   6.475   8.626  0.2060 -0.0204  1.0328
 1740SOL    HW217280   8.739   6.384   8.540 -0.5960 -0.3827  0.4208
 1741SOL     OW17281   7.995   9.758   2.630 -0.5157  0.0427  0.1156
 1741SOL    HW117282   7.969   9.848   2.595 -2.5846  0.1394  1.8175
 1741SOL    HW217283   8.051   9.711   2.561  0.5763  2.5820 -0.8202
 1742SOL     OW17284   9.773   9.112   1.431  0.5380 -0.4141 -0.0286
 1742SOL    HW117285   9.796   9.192   1.375  0.5458 -0.6584 -0.3686
 1742SOL    HW217286   9.812   9.030   1.391  1.2635 -0.4781  0.7929
 1743SOL     OW17287   3.949   3.465   3.462  0.0527 -0.2868 -0.3480
 1743SOL    HW117288   4.031   3.410   3.482  0.4552 -0.3698 -2.1133
 1743SOL    HW217289   3.971   3.532   3.391 -1.1681  0.3185 -0.1580
 1744SOL     OW17290   1.619   4.936   2.735 -0.3349 -0.7521 -0.8052
 1744SOL    HW117291   1.563   4.876   2.792  0.1399 -0.1107  0.3379
 1744SOL    HW217292   1.610   4.908   2.639 -0.7228 -2.1565 -0.3677
 1745SOL     OW17293   9.900   6.573   8.128 -0.0065 -0.1542 -0.3531
 1745SOL    HW117294   9.869   6.503   8.193 -3.4344 -0.1467 -1.8436
 1745SOL    HW217295   9.954   6.529   8.056 -0.9715 -1.0905 -0.5340
 1746SOL     OW17296   6.784   8.354   7.682 -0.8857 -0.0760 -0.0269
 1746SOL    HW117297   6.883   8.342   7.683 -0.8907 -0.0942  0.4355
 1746SOL    HW217298   6.742   8.294   7.750 -1.2977 -0.7776 -0.8945
 1747SOL     OW17299   3.964   9.239   8.433 -0.3967  0.3921  0.5848
 1747SOL    HW117300   3.920   9.225   8.522 -1.7029  0.9052  0.0269
 1747SOL    HW217301   4.008   9.329   8.431 -1.9876  1.1623  0.0448
 1748SOL     OW17302   1.683   4.007   4.395 -0.3449 -0.3175  0.0750
 1748SOL    HW117303   1.610   3.995   4.463 -0.0622  0.1698  0.4679
 1748SOL    HW217304   1.736   4.088   4.417  0.8915 -1.1716  0.3188
 1749SOL     OW17305   9.642   5.115   9.145 -0.8494  0.1905  0.3374
 1749SOL    HW117306   9.546   5.100   9.169 -0.4559  0.5722  2.2285
 1749SOL    HW217307   9.699   5.054   9.199 -0.0211 -0.1496 -0.9034
 1750SOL     OW17308   1.141   1.658   4.239  0.5838 -0.4535  0.5212
 1750SOL    HW117309   1.231   1.615   4.247  0.0037 -2.1761 -1.8648
 1750SOL    HW217310   1.108   1.650   4.145 -0.7039  2.9568  0.5891
 1751SOL     OW17311   7.931   0.717   6.553 -0.9432  0.0441 -0.2564
 1751SOL    HW117312   7.982   0.688   6.472 -1.7867 -0.9277 -0.4470
 1751SOL    HW217313   7.960   0.664   6.632  0.0608  1.1673  0.1463
 1752SOL     OW17314   4.321   6.303   1.938 -0.2655 -0.4978 -0.0445
 1752SOL    HW117315   4.241   6.261   1.895 -1.3292  0.4916  0.8996
 1752SOL    HW217316   4.353   6.380   1.883 -1.6495  0.7927  0.8992
 1753SOL     OW17317   7.058   7.717   5.593  0.0991 -0.2758  0.3561
 1753SOL    HW117318   6.984   7.732   5.528 -0.3132 -2.5031  0.2660
 1753SOL    HW217319   7.028   7.653   5.664  2.4593 -2.6587 -0.7013
 1754SOL     OW17320   6.585   9.437   5.439 -0.9686  0.7999 -0.1270
 1754SOL    HW117321   6.493   9.464   5.468 -1.1810  0.7786 -0.7693
 1754SOL    HW217322   6.613   9.355   5.489 -0.0791  2.5127  2.2869
 1755SOL     OW17323   1.540   6.443   4.051 -0.5303 -0.1135  0.0001
 1755SOL    HW117324   1.577   6.536   4.045  0.1721 -0.2957  1.2487
 1755SOL    HW217325   1.441   6.447   4.060 -0.3870  0.5761  1.4055
 1756SOL     OW17326   8.605   5.725   2.277  0.1688 -0.2759  0.2879
 1756SOL    HW117327   8.506   5.738   2.272  0.3500  1.0536 -0.1449
 1756SOL    HW217328   8.630   5.643   2.227 -0.6743 -0.3832  0.0250
 1757SOL     OW17329   9.186   5.426   7.637  0.2572 -0.2737  0.0245
 1757SOL    HW117330   9.197   5.351   7.571  1.0350 -1.6641  1.7010
 1757SOL    HW217331   9.169   5.388   7.728 -2.7820  1.6471  0.3091
 1758SOL     OW17332   1.796   0.864   6.365 -0.4397  0.1859  0.3243
 1758SOL    HW117333   1.721   0.882   6.428  0.4236  2.1418  0.8134
 1758SOL    HW217334   1.799   0.935   6.295  2.4690  1.5706  1.7508
 1759SOL     OW17335   4.863   0.340   2.885 -0.3752  0.3433 -0.7599
 1759SOL    HW117336   4.936   0.406   2.896 -0.4864  0.4155 -0.4275
 1759SOL    HW217337   4.890   0.253   2.927 -0.9305  0.7149  0.3826
 1760SOL     OW17338   0.661   8.767   6.221  0.2812  0.1223  0.2954
 1760SOL    HW117339   0.586   8.730   6.166  0.3819  1.8358 -1.0112
 1760SOL    HW217340   0.624   8.805   6.306 -0.3799  1.2438 -0.4842
 1761SOL     OW17341   6.246   1.894   5.709  0.4946 -0.2147  0.1185
 1761SOL    HW117342   6.184   1.903   5.787  0.3910  0.9428 -0.0853
 1761SOL    HW217343   6.237   1.974   5.650  1.7609 -0.3116 -0.2237
 1762SOL     OW17344   1.740   3.370   0.095  0.4686 -0.0033  0.3390
 1762SOL    HW117345   1.780   3.410   0.178  1.2309 -0.2807  0.1121
 1762SOL    HW217346   1.676   3.298   0.120  0.3478  0.2235  0.6968
 1763SOL     OW17347   3.834   6.754   9.125  0.0729  0.2375 -0.7101
 1763SOL    HW117348   3.860   6.695   9.048  1.4646  1.1323 -0.9299
 1763SOL    HW217349   3.795   6.839   9.090 -0.7529 -0.0093 -0.4034
 1764SOL     OW17350   7.966   6.830   8.776 -0.2676 -0.2164  0.2024
 1764SOL    HW117351   7.970   6.803   8.680 -1.5758  1.1738 -0.2388
 1764SOL    HW217352   7.881   6.798   8.817 -0.2052  0.1494  0.6267
 1765SOL     OW17353   3.417   0.928   9.688  0.4528  1.0248 -0.2259
 1765SOL    HW117354   3.513   0.916   9.660  0.1453  1.6572 -1.5943
 1765SOL    HW217355   3.411   1.003   9.753  0.8425  1.2015 -0.3918
 1766SOL     OW17356   1.739   2.255   0.225  0.4374 -0.3052 -0.2877
 1766SOL    HW117357   1.687   2.251   0.310  2.2804 -0.6538  0.8738
 1766SOL    HW217358   1.756   2.350   0.200  0.0233 -0.2018 -0.1704
 1767SOL     OW17359   9.938   1.327   6.742 -0.5405 -0.0848  0.1314
 1767SOL    HW117360   9.987   1.383   6.808 -0.6086 -1.9649  1.8524
 1767SOL    HW217361   9.998   1.304   6.665  0.8761 -1.2420  1.5509
 1768SOL     OW17362   8.326   0.195   5.235  0.1847 -0.0127 -0.2062
 1768SOL    HW117363   8.268   0.115   5.217  0.8208 -0.4185 -0.4602
 1768SOL    HW217364   8.378   0.218   5.153  0.0192  0.6539 -0.1256
 1769SOL     OW17365   8.626   1.759   5.450 -0.5946 -0.4599  0.6328
 1769SOL    HW117366   8.678   1.724   5.372 -0.0863  1.2986  0.1451
 1769SOL    HW217367   8.623   1.690   5.522  1.6379 -0.9522  0.3003
 1770SOL     OW17368   0.710   4.327   6.544  0.1767  0.3387  0.4427
 1770SOL    HW117369   0.746   4.329   6.637  1.4285  1.1931 -0.0490
 1770SOL    HW217370   0.611   4.341   6.547  0.1672  0.0385  1.6713
 1771SOL     OW17371   1.551   6.388   6.201  0.4870 -0.1616 -0.0912
 1771SOL    HW117372   1.467   6.363   6.250  0.4833 -2.3678 -1.1539
 1771SOL    HW217373   1.533   6.469   6.145 -0.4826  0.3355  0.9266
 1772SOL     OW17374   9.437   3.564   3.398  0.1963  0.1955 -0.0539
 1772SOL    HW117375   9.501   3.492   3.422 -0.0905  0.2769  0.9826
 1772SOL    HW217376   9.347   3.524   3.380 -0.0911  0.3437  1.0388
 1773SOL     OW17377   4.992   7.056   1.635  0.2844  0.4190 -0.0300
 1773SOL    HW117378   5.034   6.985   1.579  0.2010  0.4534 -0.1339
 1773SOL    HW217379   4.893   7.055   1.622  0.3079  0.7170 -0.2149
 1774SOL     OW17380   2.492   9.334   2.527  0.5240 -0.3422 -0.2341
 1774SOL    HW117381   2.482   9.366   2.620  0.1677 -1.2406  0.0466
 1774SOL    HW217382   2.424   9.263   2.508 -0.4883  0.9673 -1.6956
 1775SOL     OW17383   4.267   6.359   3.640 -0.5075 -0.2937  0.6486
 1775SOL    HW117384   4.269   6.263   3.669 -0.0911 -0.2659  0.7181
 1775SOL    HW217385   4.334   6.373   3.566 -0.9836 -0.1857  0.2380
 1776SOL     OW17386   6.254   5.301   1.372  0.3442 -0.0070 -0.6312
 1776SOL    HW117387   6.335   5.259   1.413  0.2404  0.7702  0.3938
 1776SOL    HW217388   6.235   5.389   1.417 -1.5367 -0.5509 -0.2981
 1777SOL     OW17389   5.898   1.643   9.790  0.1574 -0.0862  0.4476
 1777SOL    HW117390   5.922   1.590   9.709  0.4170  1.7836 -0.7453
 1777SOL    HW217391   5.804   1.623   9.817 -0.3530  0.2006 -1.0834
 1778SOL     OW17392   7.498   2.693   8.443  0.4346  0.2037  0.2556
 1778SOL    HW117393   7.551   2.772   8.475 -1.2763  1.3065  0.4576
 1778SOL    HW217394   7.422   2.677   8.506 -0.1836 -0.5997 -0.6837
 1779SOL     OW17395   0.819   6.137   4.360  0.1058 -0.3956 -0.7721
 1779SOL    HW117396   0.722   6.151   4.379  0.3476 -0.3271  0.4450
 1779SOL    HW217397   0.864   6.225   4.351  0.3052 -0.4106  0.0110
 1780SOL     OW17398   1.970   9.501   8.241 -0.4691  0.0465 -0.0153
 1780SOL    HW117399   2.049   9.452   8.204 -0.7206 -0.6495  0.3614
 1780SOL    HW217400   1.932   9.560   8.170 -1.5002 -1.9601 -1.1814
 1781SOL     OW17401   6.691   4.825   0.859 -0.4647  0.3646 -0.2101
 1781SOL    HW117402   6.688   4.909   0.912 -1.5501  0.1374  0.1149
 1781SOL    HW217403   6.696   4.847   0.762  1.4868  0.7799 -0.0286
 1782SOL     OW17404   0.088   3.857   3.132 -0.2435  0.1606  0.3790
 1782SOL    HW117405   0.057   3.951   3.149 -0.1739  0.1078  0.8238
 1782SOL    HW217406   0.118   3.848   3.038 -2.8621 -0.1411 -0.4613
 1783SOL     OW17407   9.142   7.657   5.828 -0.4364 -0.2852 -0.3702
 1783SOL    HW117408   9.084   7.583   5.797 -1.8885  0.7514 -0.1831
 1783SOL    HW217409   9.098   7.705   5.904  1.3476 -0.4256  0.7882
 1784SOL     OW17410   0.506   9.387   3.520  0.5792  0.4107 -0.1488
 1784SOL    HW117411   0.442   9.370   3.595 -1.7739 -1.7407 -2.5180
 1784SOL    HW217412   0.466   9.455   3.458  0.7230 -0.6978 -1.4697
 1785SOL     OW17413   3.428   8.637   9.512  0.1286  0.4665 -0.1484
 1785SOL    HW117414   3.419   8.562   9.578  0.9682 -0.6398 -1.2613
 1785SOL    HW217415   3.352   8.700   9.524  1.0287  1.0767  2.8420
 1786SOL     OW17416   6.425   6.139   0.354  0.3029  0.2360 -0.6942
 1786SOL    HW117417   6.341   6.152   0.407  1.5950  0.3572  1.3792
 1786SOL    HW217418   6.416   6.059   0.295 -1.0329 -0.1080 -0.0392
 1787SOL     OW17419   2.817   6.022   0.338 -0.0232 -0.5105  0.0236
 1787SOL    HW117420   2.726   5.980   0.333  0.8679 -2.6648  1.2806
 1787SOL    HW217421   2.887   5.952   0.321  1.4949  0.4612  2.1189
 1788SOL     OW17422   3.578   5.736   8.148 -0.7586 -0.1601  0.1331
 1788SOL    HW117423   3.506   5.724   8.217 -1.3631 -0.5911 -0.5669
 1788SOL    HW217424   3.537   5.766   8.062 -0.5424 -3.5760 -1.2555
 1789SOL     OW17425   0.790   2.782   8.135  0.3011 -0.2792 -0.2148
 1789SOL    HW117426   0.853   2.845   8.179 -1.7831  1.7297  0.0349
 1789SOL    HW217427   0.827   2.753   8.047  1.9511  0.1113  0.3326
 1790SOL     OW17428   8.478   0.677   1.353 -0.0613  0.3863 -0.9392
 1790SOL    HW117429   8.408   0.736   1.312 -1.3119 -1.0454 -0.9184
 1790SOL    HW217430   8.451   0.581   1.342  0.2025 -0.0936  2.0618
 1791SOL     OW17431   3.360   9.693   5.733 -0.0437  0.1543  0.6011
 1791SOL    HW117432   3.313   9.736   5.656  0.5553  1.0722  0.7513
 1791SOL    HW217433   3.330   9.736   5.818  0.6918  0.4039  0.7375
 1792SOL     OW17434   3.656   4.588   9.521  0.1069  0.4469  0.3472
 1792SOL    HW117435   3.664   4.489   9.510 -0.9633  0.4616 -0.7235
 1792SOL    HW217436   3.598   4.607   9.600 -0.2391  0.1959  0.1600
 1793SOL     OW17437   8.837   6.314   4.597  0.1443 -0.2758 -0.1687
 1793SOL    HW117438   8.753   6.278   4.639 -0.4960  1.7221  0.3246
 1793SOL    HW217439   8.888   6.365   4.666  0.5625  0.5566 -1.0936
 1794SOL     OW17440   1.546   7.093   5.497  0.4595 -0.1889  0.0391
 1794SOL    HW117441   1.635   7.069   5.458  0.2185 -0.9017 -0.0907
 1794SOL    HW217442   1.485   7.124   5.423  0.1824 -0.9940 -0.0806
 1795SOL     OW17443   3.824   5.998   7.125 -0.2691  0.0552 -0.3695
 1795SOL    HW117444   3.735   6.041   7.111 -0.0083  0.1078 -1.9129
 1795SOL    HW217445   3.855   5.956   7.040  1.0118 -0.2982  0.2578
 1796SOL     OW17446   4.087   9.458   8.262 -1.0319  0.5310  0.2420
 1796SOL    HW117447   4.126   9.452   8.353 -0.6702  1.0298  0.1248
 1796SOL    HW217448   3.993   9.491   8.268 -1.8983 -1.8901  0.6252
 1797SOL     OW17449   4.169   0.821   0.584  0.5024  0.4620 -0.3678
 1797SOL    HW117450   4.158   0.899   0.522  0.1630  1.0042  0.3638
 1797SOL    HW217451   4.084   0.768   0.587  0.3245  0.7754  0.0904
 1798SOL     OW17452   6.702   3.550   0.872  0.1833  0.2901 -0.2345
 1798SOL    HW117453   6.693   3.601   0.958  1.8412  1.6908 -0.8434
 1798SOL    HW217454   6.678   3.455   0.887  1.0979  0.3693  1.9582
 1799SOL     OW17455   8.665   4.519   5.284 -0.2230  0.0056 -0.0443
 1799SOL    HW117456   8.726   4.597   5.270  2.2977 -1.9055 -0.0286
 1799SOL    HW217457   8.642   4.478   5.196  0.7762 -0.9348  0.1195
 1800SOL     OW17458   2.469   2.794   5.407 -0.5411 -0.5736  0.2307
 1800SOL    HW117459   2.483   2.768   5.502  0.0138 -0.3073  0.2235
 1800SOL    HW217460   2.557   2.792   5.359 -0.5907  0.7107  0.0830
 1801SOL     OW17461   4.319   9.322   9.102 -0.2320  0.4456 -0.4573
 1801SOL    HW117462   4.243   9.386   9.103 -0.0670  0.6307  1.5471
 1801SOL    HW217463   4.395   9.359   9.156  0.4686 -0.7074 -0.6226
 1802SOL     OW17464   9.716   2.244   5.694 -0.1158  0.2641  0.3028
 1802SOL    HW117465   9.665   2.161   5.716  1.4441 -0.7031  0.3660
 1802SOL    HW217466   9.672   2.322   5.738 -0.5159 -0.7884  1.8310
 1803SOL     OW17467   1.224   4.626   6.056  0.1734 -0.2071  0.5630
 1803SOL    HW117468   1.198   4.717   6.024  1.1270 -0.3884 -0.7911
 1803SOL    HW217469   1.158   4.594   6.123 -0.6407  1.1331  0.4246
 1804SOL     OW17470   2.271   7.471   2.124 -0.3887  0.0242 -0.1603
 1804SOL    HW117471   2.212   7.505   2.197 -0.2796  0.5209 -0.3024
 1804SOL    HW217472   2.216   7.426   2.054 -0.5654  0.2231 -0.1466
 1805SOL     OW17473   5.629   5.041   8.328  0.1468  0.1357 -0.0615
 1805SOL    HW117474   5.620   4.953   8.374 -0.1863  0.8965  1.3503
 1805SOL    HW217475   5.619   5.115   8.394 -1.0946  1.2676 -1.4710
 1806SOL     OW17476   9.290   8.683   3.942  0.4230  0.4099 -0.0905
 1806SOL    HW117477   9.223   8.749   3.978  0.3117  0.3712 -0.2246
 1806SOL    HW217478   9.371   8.733   3.911  0.3647  0.4791 -0.1350
 1807SOL     OW17479   3.695   1.764   1.954  0.2699 -0.2478 -0.4359
 1807SOL    HW117480   3.626   1.693   1.942 -0.7219  0.6447 -0.0687
 1807SOL    HW217481   3.744   1.749   2.040 -1.2212  0.5715  0.5723
 1808SOL     OW17482   6.129   8.990   4.294 -0.0030 -0.2108  0.0939
 1808SOL    HW117483   6.112   8.903   4.248  1.9936 -0.3814 -0.3935
 1808SOL    HW217484   6.096   9.065   4.237 -2.1844 -0.6505  0.7399
 1809SOL     OW17485   9.272   9.223   5.449 -0.0921 -0.6181  0.0707
 1809SOL    HW117486   9.333   9.283   5.501  1.5410 -2.4781  0.3809
 1809SOL    HW217487   9.245   9.269   5.364 -0.3349  1.2442  1.1380
 1810SOL     OW17488   6.594   8.435   3.404  0.4396 -0.1519 -0.3516
 1810SOL    HW117489   6.507   8.385   3.400  0.3852 -0.2024  1.1165
 1810SOL    HW217490   6.609   8.484   3.318  0.1049 -2.0411 -1.5106
 1811SOL     OW17491   1.316   2.799   1.620 -0.2239 -0.5808  0.2463
 1811SOL    HW117492   1.216   2.797   1.617 -0.2510 -1.4139  1.2168
 1811SOL    HW217493   1.346   2.830   1.710  0.3761 -2.0812  0.5871
 1812SOL     OW17494   8.337   9.802   3.535 -0.6096 -0.2693  0.6910
 1812SOL    HW117495   8.335   9.740   3.457 -1.9550  2.1244 -1.2587
 1812SOL    HW217496   8.432   9.831   3.551 -0.4126 -0.1124 -0.6338
 1813SOL     OW17497   1.531   6.395   1.566 -0.0508 -0.1751  0.4691
 1813SOL    HW117498   1.464   6.324   1.547  1.9803 -1.8619 -0.5548
 1813SOL    HW217499   1.523   6.468   1.498 -0.4636 -0.6458  0.0075
 1814SOL     OW17500   5.052   3.032   2.323  0.5055 -0.3968 -0.5847
 1814SOL    HW117501   5.058   2.932   2.325  1.8379 -0.2874  1.9056
 1814SOL    HW217502   5.125   3.071   2.378 -0.2801  1.9717 -1.1755
 1815SOL     OW17503   0.721   2.177   1.369  0.1700 -0.7663 -0.4107
 1815SOL    HW117504   0.774   2.262   1.365 -1.4155  0.1470 -3.6204
 1815SOL    HW217505   0.631   2.196   1.407 -0.0921 -1.0648 -0.8797
 1816SOL     OW17506   7.541   0.857   2.902 -0.1249 -0.1515 -0.8809
 1816SOL    HW117507   7.556   0.945   2.857  0.4174  0.2339  0.0345
 1816SOL    HW217508   7.629   0.821   2.934 -0.3276 -1.0918 -1.3832
 1817SOL     OW17509   1.103   4.250   8.031  0.1066  0.3310 -0.1430
 1817SOL    HW117510   1.128   4.311   8.106  2.7170  0.8474 -1.3558
 1817SOL    HW217511   1.161   4.270   7.952 -1.1396 -1.6379 -1.5913
 1818SOL     OW17512   3.575   5.359   2.575  0.1660 -0.9097 -0.2371
 1818SOL    HW117513   3.477   5.365   2.556 -0.2116 -0.6803  1.6294
 1818SOL    HW217514   3.622   5.437   2.534 -0.5904 -0.4431 -0.2324
 1819SOL     OW17515   8.032   5.515   8.926 -0.5503  0.3999 -0.1619
 1819SOL    HW117516   8.107   5.476   8.872 -0.6905  2.6653 -2.0695
 1819SOL    HW217517   8.063   5.599   8.971 -1.4589  0.4189  0.4473
 1820SOL     OW17518   8.275   6.846   4.148  0.1145 -0.4479 -0.1216
 1820SOL    HW117519   8.313   6.902   4.222 -2.2181 -0.8955  1.4875
 1820SOL    HW217520   8.243   6.906   4.074  1.0931  0.1121 -0.0940
 1821SOL     OW17521   3.036   6.776   2.560  0.5165  0.0596 -0.2218
 1821SOL    HW117522   3.013   6.869   2.531  1.4579  0.3977  0.1111
 1821SOL    HW217523   2.952   6.722   2.568  0.0668  0.5569 -1.5127
 1822SOL     OW17524   7.143   2.276   3.804  0.3280  0.2720 -0.4956
 1822SOL    HW117525   7.138   2.227   3.717 -0.7244  0.0430 -0.3083
 1822SOL    HW217526   7.162   2.373   3.787 -0.4885  0.3383 -1.0058
 1823SOL     OW17527   3.266   6.329   8.560  0.6387 -0.3104 -0.5633
 1823SOL    HW117528   3.193   6.356   8.624  0.6192 -0.5086 -0.4995
 1823SOL    HW217529   3.236   6.347   8.466  0.6271 -0.1107 -0.5214
 1824SOL     OW17530   3.184   4.016   0.548 -0.1421  0.3454  0.0199
 1824SOL    HW117531   3.261   3.954   0.563 -0.9771 -1.6406 -3.4226
 1824SOL    HW217532   3.211   4.088   0.484 -0.8655  0.1992 -0.4548
 1825SOL     OW17533   0.830   5.444   4.280 -0.2346  0.0002  0.0635
 1825SOL    HW117534   0.826   5.472   4.184 -0.4192  1.1552  0.3984
 1825SOL    HW217535   0.926   5.432   4.308 -0.1155  1.1004  0.1353
 1826SOL     OW17536   7.462   7.759   7.424 -0.5815  0.0387  0.4212
 1826SOL    HW117537   7.391   7.781   7.491 -1.7301 -2.0022 -0.0749
 1826SOL    HW217538   7.541   7.721   7.471 -1.4484 -1.5454  0.6450
 1827SOL     OW17539   1.877   7.986   9.588  0.2753  0.1384  0.3241
 1827SOL    HW117540   1.871   8.006   9.490  0.2157  0.2823  0.3561
 1827SOL    HW217541   1.956   7.928   9.606 -0.4913 -1.0332  0.0008
 1828SOL     OW17542   5.193   1.039   0.261  0.4082 -0.6645  0.0521
 1828SOL    HW117543   5.250   1.094   0.201 -1.1766  0.6157 -0.3033
 1828SOL    HW217544   5.124   0.991   0.206 -1.1543  0.6424  0.8357
 1829SOL     OW17545   9.833   3.303   9.446 -0.0978  0.3881  0.3045
 1829SOL    HW117546   9.923   3.344   9.460 -0.6849  1.8963 -0.2522
 1829SOL    HW217547   9.836   3.244   9.366  0.3740  0.4813  0.2500
 1830SOL     OW17548   6.110   1.039   3.357 -0.1205 -0.1683  0.4448
 1830SOL    HW117549   6.040   0.969   3.358  1.2476 -1.5508  3.4725
 1830SOL    HW217550   6.070   1.127   3.383 -1.5736 -0.0065 -2.1389
 1831SOL     OW17551   1.419   0.595   5.294  0.3514  0.4580 -0.0915
 1831SOL    HW117552   1.464   0.538   5.226 -0.8617 -0.3118 -0.2623
 1831SOL    HW217553   1.487   0.656   5.336  1.7110 -1.2021  0.2058
 1832SOL     OW17554   8.815   3.307   9.246 -0.0279 -0.3709 -0.1333
 1832SOL    HW117555   8.772   3.384   9.198 -0.6640 -0.2145  0.6630
 1832SOL    HW217556   8.783   3.305   9.341  1.7892 -0.2262  0.5003
 1833SOL     OW17557   3.088   2.091   3.419  0.4325 -0.3882  0.2763
 1833SOL    HW117558   3.043   2.024   3.478 -0.1718  1.5017  2.0418
 1833SOL    HW217559   3.026   2.117   3.344  0.2034 -0.9208  0.2819
 1834SOL     OW17560   1.503   2.777   6.961  0.2250  0.1670  0.0806
 1834SOL    HW117561   1.525   2.765   7.058  3.3062  1.2599 -0.4416
 1834SOL    HW217562   1.489   2.874   6.942 -2.6930 -0.2409 -0.1647
 1835SOL     OW17563   3.332   3.302   9.259  0.3615  0.1227  0.6394
 1835SOL    HW117564   3.425   3.340   9.259  0.1724  0.6371 -0.8365
 1835SOL    HW217565   3.291   3.316   9.169 -0.9254 -0.6641  1.0927
 1836SOL     OW17566   8.973   3.276   6.017  0.0128 -0.1268 -0.0661
 1836SOL    HW117567   9.030   3.355   5.995 -0.6197  0.1127 -0.8581
 1836SOL    HW217568   9.025   3.213   6.075  0.8690  0.3890 -0.2601
 1837SOL     OW17569   9.484   3.122   2.253  0.3788  0.1048 -0.2921
 1837SOL    HW117570   9.481   3.023   2.270  0.5203 -0.0829 -1.3717
 1837SOL    HW217571   9.440   3.170   2.330  1.6143 -0.7099  0.9422
 1838SOL     OW17572   8.098   3.083   0.771 -0.3187  0.0951  0.5493
 1838SOL    HW117573   8.140   3.171   0.793 -1.5308  0.8884 -0.2274
 1838SOL    HW217574   8.170   3.015   0.754  0.6167  0.6853  2.1040
 1839SOL     OW17575   3.580   5.714   3.222  0.4745  0.4647  0.0168
 1839SOL    HW117576   3.482   5.712   3.199  0.3155  1.1158  0.6442
 1839SOL    HW217577   3.613   5.620   3.232 -0.1350  0.2469  0.0169
 1840SOL     OW17578   8.482   0.929   2.875 -0.8379 -0.3048 -0.2309
 1840SOL    HW117579   8.484   1.000   2.945  1.1099  0.3329 -0.8983
 1840SOL    HW217580   8.407   0.946   2.811 -1.8897 -0.2386  1.0149
 1841SOL     OW17581   2.782   3.481   8.710  0.8639 -0.5899 -0.1513
 1841SOL    HW117582   2.719   3.447   8.779  1.7291  0.6521  1.2803
 1841SOL    HW217583   2.736   3.549   8.652  1.0106  0.6619  1.1888
 1842SOL     OW17584   8.337   1.055   6.052  0.3339  0.6000 -0.0259
 1842SOL    HW117585   8.377   1.018   5.968 -0.9415 -1.1461  0.0936
 1842SOL    HW217586   8.254   1.106   6.029  1.5917  2.6734 -0.0937
 1843SOL     OW17587   9.194   1.999   4.534  0.3214 -0.4426  0.2265
 1843SOL    HW117588   9.278   2.013   4.586  0.2675 -2.4982  0.9091
 1843SOL    HW217589   9.115   2.000   4.596  0.1043 -1.3104 -0.0368
 1844SOL     OW17590   0.563   2.209   5.203  0.4301  0.1986  0.4211
 1844SOL    HW117591   0.529   2.150   5.130  2.1087 -1.5243  0.9698
 1844SOL    HW217592   0.661   2.225   5.189 -0.1239  3.4314 -0.0732
 1845SOL     OW17593   2.198   5.593   6.106 -0.5709 -0.6964 -0.4472
 1845SOL    HW117594   2.228   5.572   6.013  1.4645 -0.7198  0.1956
 1845SOL    HW217595   2.216   5.689   6.126 -0.1420 -0.9277  0.2557
 1846SOL     OW17596   1.680   1.370   0.195  0.2513  0.5398 -0.4343
 1846SOL    HW117597   1.685   1.461   0.235  0.0355  0.1764  0.4220
 1846SOL    HW217598   1.755   1.314   0.230  0.9607  0.6688 -1.6960
 1847SOL     OW17599   1.641   4.487   5.729  0.1102 -0.0869 -0.3081
 1847SOL    HW117600   1.725   4.477   5.675  0.4015 -1.0725  0.3210
 1847SOL    HW217601   1.627   4.405   5.785 -0.8763  0.3864  0.1502
 1848SOL     OW17602   2.159   5.012   7.061  0.4366 -0.6558 -0.1439
 1848SOL    HW117603   2.186   5.061   7.144 -1.5594  0.4429 -0.1111
 1848SOL    HW217604   2.088   4.945   7.082  0.8001 -1.2480 -0.7604
 1849SOL     OW17605   1.608   9.415   6.356  0.8096  0.2195 -0.0330
 1849SOL    HW117606   1.618   9.437   6.453  0.5909 -0.1320  0.0664
 1849SOL    HW217607   1.532   9.353   6.343 -0.0271  1.3464 -0.5945
 1850SOL     OW17608   8.395   3.229   0.704  1.0606 -0.0535  0.1210
 1850SOL    HW117609   8.331   3.237   0.628  1.4715 -0.2693 -0.2518
 1850SOL    HW217610   8.450   3.146   0.692 -0.4599 -1.3664  1.8623
 1851SOL     OW17611   9.878   9.529   2.203 -0.1063  0.2271  0.5915
 1851SOL    HW117612   9.960   9.487   2.243 -0.4870  0.3871  1.5367
 1851SOL    HW217613   9.804   9.462   2.201 -0.2278  0.3619  0.5830
 1852SOL     OW17614   1.486   9.959   8.136  0.4175  0.0838  0.4217
 1852SOL    HW117615   1.441   9.965   8.225 -0.1150  0.9769  0.0950
 1852SOL    HW217616   1.504   9.863   8.114  0.8616 -0.1135  1.6403
 1853SOL     OW17617   8.867   8.981   4.163 -0.3651 -0.4012 -0.4230
 1853SOL    HW117618   8.804   8.921   4.213  0.2538 -0.7085 -0.0091
 1853SOL    HW217619   8.862   8.961   4.065 -1.7739  0.3777 -0.5274
 1854SOL     OW17620   0.042   4.398   6.241  0.2470  0.3386 -0.1183
 1854SOL    HW117621   0.034   4.449   6.156 -1.1594 -2.4145 -1.6744
 1854SOL    HW217622   0.127   4.345   6.240  0.8982  1.3387  0.8015
 1855SOL     OW17623   8.674   3.302   9.470 -0.2743  0.3153 -0.0740
 1855SOL    HW117624   8.587   3.346   9.494  0.6746  0.2706  3.9184
 1855SOL    HW217625   8.748   3.347   9.519  1.7390 -0.8317 -1.9781
 1856SOL     OW17626   3.775   4.734   4.151  0.2184  0.0272  0.3945
 1856SOL    HW117627   3.805   4.728   4.056 -0.8647 -0.7331  0.0963
 1856SOL    HW217628   3.706   4.805   4.160  1.1091  0.8500  0.8290
 1857SOL     OW17629   1.151   7.221   9.385  0.0626 -0.1296 -0.1324
 1857SOL    HW117630   1.123   7.174   9.469 -3.7792  0.7343 -0.8693
 1857SOL    HW217631   1.153   7.320   9.400 -1.2355  0.0716 -1.2073
 1858SOL     OW17632   0.485   1.830   7.333  0.2166  0.7357 -0.5220
 1858SOL    HW117633   0.524   1.778   7.257 -0.9130 -0.1850 -0.4799
 1858SOL    HW217634   0.491   1.928   7.312  0.5856  0.5188 -1.4660
 1859SOL     OW17635   2.917   7.154   0.081 -0.1856 -0.1226  1.0368
 1859SOL    HW117636   2.825   7.164   0.043  0.2085  0.5004  0.2245
 1859SOL    HW217637   2.983   7.141   0.007  0.6725  1.6581  1.4476
 1860SOL     OW17638   3.639   7.100   4.586  0.1796  0.1036  0.1092
 1860SOL    HW117639   3.578   7.179   4.593  0.3112  0.2573 -0.4878
 1860SOL    HW217640   3.672   7.076   4.677 -1.4621 -0.5226  0.5650
 1861SOL     OW17641   5.424   7.083   2.778 -0.5045 -0.1432 -0.9109
 1861SOL    HW117642   5.481   7.123   2.849 -1.8408 -0.7670  0.5349
 1861SOL    HW217643   5.447   7.124   2.690  0.1001  1.7534  0.1053
 1862SOL     OW17644   2.779   0.433   7.452  0.3583 -0.0579 -0.3743
 1862SOL    HW117645   2.836   0.360   7.489  1.0628  1.4930  1.7163
 1862SOL    HW217646   2.837   0.499   7.404 -0.0827 -0.0861 -0.9470
 1863SOL     OW17647   0.390   2.077   2.763 -0.1157  0.0217 -0.1501
 1863SOL    HW117648   0.323   2.037   2.699  0.0872 -0.0139 -0.3401
 1863SOL    HW217649   0.356   2.067   2.856  0.1009 -0.9335 -0.1682
 1864SOL     OW17650   7.184   9.931   4.059  0.0749 -0.3916 -0.4911
 1864SOL    HW117651   7.097   9.976   4.038 -0.5746 -0.6548  1.4883
 1864SOL    HW217652   7.166   9.850   4.115  1.5964 -0.4361 -0.0605
 1865SOL     OW17653   9.752   3.534   6.757  0.1574 -0.0697  0.3186
 1865SOL    HW117654   9.730   3.533   6.854 -1.1756 -0.5795  0.0143
 1865SOL    HW217655   9.754   3.629   6.725  1.8997  0.1886  1.1142
 1866SOL     OW17656   3.348   9.068   3.601 -0.0946 -0.1857  0.3580
 1866SOL    HW117657   3.279   9.084   3.672 -0.9757  0.3337 -0.6117
 1866SOL    HW217658   3.351   9.146   3.539  0.9612 -0.4643  0.0518
 1867SOL     OW17659   1.556   2.808   9.568 -0.5358  0.7794  0.0512
 1867SOL    HW117660   1.495   2.740   9.610 -0.6297  1.0366  0.3397
 1867SOL    HW217661   1.646   2.768   9.553  0.8392  1.8811  4.5108
 1868SOL     OW17662   8.049   5.667   5.960  0.8729 -0.1528  0.3068
 1868SOL    HW117663   7.993   5.728   6.017  0.0066 -0.0583 -0.6387
 1868SOL    HW217664   8.109   5.721   5.903  1.0979 -0.2223  0.4777
 1869SOL     OW17665   8.861   3.424   4.156  0.7984 -0.1665  0.3138
 1869SOL    HW117666   8.927   3.449   4.226 -0.7575 -1.6365  2.3704
 1869SOL    HW217667   8.867   3.325   4.139 -0.8330 -0.3020  0.5006
 1870SOL     OW17668   7.972   7.466   8.435 -0.3549 -0.0229  0.5745
 1870SOL    HW117669   8.042   7.452   8.505 -0.8030  2.4787  1.5919
 1870SOL    HW217670   8.009   7.523   8.362 -1.0296  0.5022  0.6389
 1871SOL     OW17671   4.911   3.228   7.805 -0.6388 -0.4664  0.5835
 1871SOL    HW117672   4.958   3.257   7.888 -0.9022  0.6582  0.3457
 1871SOL    HW217673   4.844   3.157   7.827  1.4572 -2.4153  0.8647
 1872SOL     OW17674   5.567   3.368   1.093  0.2547  0.2944  0.3688
 1872SOL    HW117675   5.575   3.285   1.039  2.1581 -0.3338  1.6081
 1872SOL    HW217676   5.553   3.446   1.031  0.2759 -0.6794 -0.8876
 1873SOL     OW17677   4.718   5.340   8.146  0.2840  0.6408  0.2482
 1873SOL    HW117678   4.645   5.282   8.110  0.2769 -0.8868  2.6070
 1873SOL    HW217679   4.801   5.327   8.092 -0.4032  0.3159 -0.7489
 1874SOL     OW17680   5.069   1.627   0.112 -0.8638 -0.5389  0.4250
 1874SOL    HW117681   5.056   1.725   0.098  0.0029 -0.3200  1.0975
 1874SOL    HW217682   4.991   1.577   0.074 -1.5119  0.4382  0.4593
 1875SOL     OW17683   9.054   1.159   7.483 -0.6688 -0.1732 -0.2409
 1875SOL    HW117684   9.142   1.130   7.444  0.3362  1.3637  0.8162
 1875SOL    HW217685   9.015   1.231   7.426 -0.0747  0.7997  0.5492
 1876SOL     OW17686   1.197   4.839   5.868 -0.4819  0.4279 -0.1190
 1876SOL    HW117687   1.108   4.798   5.851 -0.2044  0.4236 -1.6312
 1876SOL    HW217688   1.223   4.896   5.790  0.6369  0.7837  0.5020
 1877SOL     OW17689   3.783   5.950   8.693 -0.0063 -0.3457 -0.1125
 1877SOL    HW117690   3.753   6.027   8.637  0.5840 -0.0417 -0.0137
 1877SOL    HW217691   3.833   5.984   8.773 -1.4863 -0.7384  1.0096
 1878SOL     OW17692   5.536   0.734   5.763  0.1176  0.3401 -0.4971
 1878SOL    HW117693   5.444   0.744   5.803 -0.2155  0.8856 -1.3949
 1878SOL    HW217694   5.552   0.638   5.740  1.0851 -0.3779  2.7605
 1879SOL     OW17695   3.593   9.785   9.894  0.3906  0.2155  0.4742
 1879SOL    HW117696   3.586   9.721   9.817 -0.2709  0.1767  0.5611
 1879SOL    HW217697   3.650   9.745   9.966  0.3348 -0.0986  0.3433
 1880SOL     OW17698   7.127   3.164   2.606  0.2989 -0.0585 -0.1105
 1880SOL    HW117699   7.044   3.206   2.642  0.4482 -0.5141  0.8070
 1880SOL    HW217700   7.105   3.076   2.563  0.2809 -0.1008 -0.0153
 1881SOL     OW17701   4.101   0.080   5.549 -0.0968 -0.1475 -0.5320
 1881SOL    HW117702   4.148   0.152   5.601 -1.1424 -0.5550  1.0229
 1881SOL    HW217703   4.030   0.122   5.491  0.5717  0.2419 -1.0760
 1882SOL     OW17704   5.329   8.504   7.279  0.4870  0.5240  0.2691
 1882SOL    HW117705   5.396   8.441   7.318  1.1219  1.3421  0.5166
 1882SOL    HW217706   5.260   8.526   7.348  0.9801  1.0911  0.5852
 1883SOL     OW17707   0.322   0.463   3.046 -0.5249  0.3651  0.0614
 1883SOL    HW117708   0.407   0.499   3.008 -1.4385  1.7795 -0.6649
 1883SOL    HW217709   0.298   0.379   2.997 -0.5589  1.0072 -1.0538
 1884SOL     OW17710   1.425   1.495   2.487  0.0837  0.0071 -0.0851
 1884SOL    HW117711   1.335   1.462   2.457  0.3082 -0.3312 -0.4031
 1884SOL    HW217712   1.483   1.417   2.510  0.6764  0.1651 -1.0019
 1885SOL     OW17713   3.661   0.405   3.982  0.0281 -0.0672 -0.0016
 1885SOL    HW117714   3.757   0.433   3.982  0.3703 -1.2163  0.1840
 1885SOL    HW217715   3.654   0.311   4.015 -1.2446  0.2759  0.7322
 1886SOL     OW17716   5.829   0.359   7.388 -0.0324  0.5198 -0.2165
 1886SOL    HW117717   5.818   0.407   7.475  0.2083 -0.1553  0.1932
 1886SOL    HW217718   5.777   0.273   7.391  1.4019 -0.3636 -0.0650
 1887SOL     OW17719   3.227   7.856   2.131  0.3804 -0.2452 -0.1255
 1887SOL    HW117720   3.134   7.892   2.143 -0.2453 -2.1167  0.8789
 1887SOL    HW217721   3.223   7.772   2.077  1.4609 -0.5130  0.2085
 1888SOL     OW17722   2.091   9.143   0.557 -0.2197  0.0648  0.3689
 1888SOL    HW117723   2.112   9.238   0.534 -1.0566  0.4214  1.0379
 1888SOL    HW217724   2.176   9.093   0.574  0.1520  1.2008  1.9937
 1889SOL     OW17725   6.221   8.972   7.933 -0.1899  0.2462 -0.4935
 1889SOL    HW117726   6.237   9.064   7.897 -0.8781  0.5052 -0.1403
 1889SOL    HW217727   6.127   8.965   7.966  0.2746 -0.1422  0.7824
 1890SOL     OW17728   6.624   1.797   4.659  0.0514 -0.1615 -0.0556
 1890SOL    HW117729   6.534   1.842   4.655  0.2948  0.5441  1.7591
 1890SOL    HW217730   6.654   1.775   4.567 -1.0782  1.4200 -0.8338
 1891SOL     OW17731   6.595   5.234   0.754  0.0650 -0.0167  0.1531
 1891SOL    HW117732   6.499   5.225   0.729 -0.1126 -1.2521  1.2123
 1891SOL    HW217733   6.651   5.239   0.672 -0.6160 -2.5791 -0.5197
 1892SOL     OW17734   7.661   6.776   5.461  0.0878 -0.0017  0.1228
 1892SOL    HW117735   7.744   6.787   5.514  0.5781  0.6290 -0.7673
 1892SOL    HW217736   7.593   6.725   5.515  1.7017 -2.1463  0.1619
 1893SOL     OW17737   3.865   4.076   7.850 -0.4245  0.0615  0.1687
 1893SOL    HW117738   3.898   4.036   7.936  1.2061 -2.1091 -1.4268
 1893SOL    HW217739   3.887   4.173   7.848  4.5422 -0.9340 -0.0790
 1894SOL     OW17740   9.453   2.620   2.964 -0.3191  1.0788  0.5976
 1894SOL    HW117741   9.374   2.613   3.025 -0.1492  0.3262  0.7311
 1894SOL    HW217742   9.422   2.623   2.869 -0.4905  0.5729  0.6405
 1895SOL     OW17743   1.131   2.060   0.472 -0.7745  0.0736  0.4551
 1895SOL    HW117744   1.107   2.106   0.387  0.5400 -0.6896 -0.3381
 1895SOL    HW217745   1.161   2.128   0.539 -0.3247  0.5223 -0.1979
 1896SOL     OW17746   7.803   8.445   4.233  0.0257  0.3528  0.2740
 1896SOL    HW117747   7.785   8.432   4.330 -2.4661  0.1032 -0.2009
 1896SOL    HW217748   7.731   8.502   4.192 -0.5401 -1.9266 -2.0171
 1897SOL     OW17749   9.279   5.698   8.962 -0.5763  0.5288  0.2520
 1897SOL    HW117750   9.266   5.617   8.905 -2.2151 -0.6431  2.2202
 1897SOL    HW217751   9.371   5.694   9.003 -1.0836 -1.0141  1.3101
 1898SOL     OW17752   1.098   7.056   0.260  0.3110 -0.1226 -0.0525
 1898SOL    HW117753   1.097   7.154   0.238  1.0158 -0.0973 -0.0049
 1898SOL    HW217754   1.046   7.006   0.192 -1.2802  0.4370  0.7105
 1899SOL     OW17755   6.698   0.933   7.924 -0.1933 -0.1998 -0.3182
 1899SOL    HW117756   6.773   0.988   7.888 -1.2717  1.8688  0.5527
 1899SOL    HW217757   6.641   0.902   7.847 -0.1158  0.6928 -0.7459
 1900SOL     OW17758   6.136   7.219   6.073 -0.3883  0.2864  0.0474
 1900SOL    HW117759   6.199   7.227   6.150  1.1927 -1.0741 -1.0735
 1900SOL    HW217760   6.154   7.294   6.008 -1.4455  1.1944  0.7835
 1901SOL     OW17761   3.231   9.226   7.134  0.3369 -0.7621  0.1422
 1901SOL    HW117762   3.214   9.324   7.144  0.8063 -0.7334  0.6936
 1901SOL    HW217763   3.185   9.176   7.207  0.4336 -0.9141  0.1014
 1902SOL     OW17764   3.908   1.785   3.927 -0.2371  0.5637 -0.5756
 1902SOL    HW117765   3.849   1.838   3.866 -1.1869  0.3356  0.1527
 1902SOL    HW217766   4.004   1.810   3.909 -0.7589  4.4578  1.5240
 1903SOL     OW17767   1.483   3.804   7.702  0.7502  0.2338 -0.0608
 1903SOL    HW117768   1.542   3.836   7.627  0.7476 -1.1995 -0.7024
 1903SOL    HW217769   1.466   3.706   7.691  2.0203 -0.3501  2.6869
 1904SOL     OW17770   8.652   3.253   5.777  0.1186  0.1044 -0.2895
 1904SOL    HW117771   8.711   3.221   5.852 -0.4350 -0.6969 -0.1928
 1904SOL    HW217772   8.677   3.205   5.693 -0.5317 -0.3844 -0.2050
 1905SOL     OW17773   4.272   4.566   0.951 -0.1064 -0.1206 -0.2491
 1905SOL    HW117774   4.289   4.570   1.049  2.0172  0.2292 -0.6161
 1905SOL    HW217775   4.242   4.473   0.927  1.1404 -0.7373  0.4750
 1906SOL     OW17776   9.491   7.973   1.503 -0.4115 -0.2925  0.7334
 1906SOL    HW117777   9.459   7.959   1.597  0.2757  0.8803  1.1520
 1906SOL    HW217778   9.414   7.996   1.444 -0.4497  2.0220  1.6349
 1907SOL     OW17779   3.360   3.108   5.002  0.2935  0.0040  0.0013
 1907SOL    HW117780   3.376   3.118   4.904 -1.1902  0.3583 -0.2163
 1907SOL    HW217781   3.271   3.065   5.017  0.5089 -0.0397  1.1937
 1908SOL     OW17782   9.036   0.107   6.277 -0.0023 -0.4100  0.4821
 1908SOL    HW117783   8.955   0.159   6.304  1.5679  0.9078  2.8258
 1908SOL    HW217784   9.061   0.131   6.184  0.1617  2.3963  1.2036
 1909SOL     OW17785   5.938   7.053   3.982  0.1115  0.2257  0.3795
 1909SOL    HW117786   6.012   7.004   4.029 -1.5766 -1.3378  1.5043
 1909SOL    HW217787   5.938   7.149   4.010  0.1693 -0.3260  2.3335
 1910SOL     OW17788   8.323   1.525   7.438 -0.0342 -0.1323 -0.1570
 1910SOL    HW117789   8.225   1.543   7.449 -0.0639  0.0473 -0.6817
 1910SOL    HW217790   8.357   1.473   7.516 -0.3896  0.4537  0.3897
 1911SOL     OW17791   8.048   0.251   8.753 -0.2998 -0.4551  0.1737
 1911SOL    HW117792   8.146   0.236   8.742 -0.4065 -1.4975  0.5722
 1911SOL    HW217793   8.028   0.349   8.744  0.7822 -0.2258  0.1732
 1912SOL     OW17794   9.621   1.679   1.521 -0.1584 -0.3883  0.2757
 1912SOL    HW117795   9.529   1.655   1.492 -0.0169 -0.9953  0.3269
 1912SOL    HW217796   9.616   1.740   1.601 -0.5155 -0.0832  0.0224
 1913SOL     OW17797   2.820   0.797   8.402 -0.3669 -0.2394 -0.8886
 1913SOL    HW117798   2.838   0.889   8.439  0.2161  0.4647 -2.8817
 1913SOL    HW217799   2.809   0.733   8.478 -1.6874  1.6367  0.5706
 1914SOL     OW17800   4.486   7.608   5.364 -0.8078  0.4559  0.1269
 1914SOL    HW117801   4.390   7.602   5.391 -0.8546 -1.0181 -0.3037
 1914SOL    HW217802   4.494   7.666   5.282 -1.2819  0.8849  0.3829
 1915SOL     OW17803   3.937   0.347   9.312  0.0031 -0.4356 -0.1861
 1915SOL    HW117804   3.941   0.355   9.212 -1.0197  0.3001 -0.1718
 1915SOL    HW217805   3.846   0.373   9.344  0.0164 -1.5973  0.8548
 1916SOL     OW17806   1.029   9.625   8.945 -0.8455 -0.5999  0.1430
 1916SOL    HW117807   0.951   9.669   8.903 -1.4074 -2.4138 -0.7898
 1916SOL    HW217808   1.040   9.533   8.907  0.9729 -0.8441  1.1723
 1917SOL     OW17809   9.608   5.563   1.934 -0.1529  0.4156 -0.7880
 1917SOL    HW117810   9.511   5.548   1.912  0.0523  0.1174 -1.4896
 1917SOL    HW217811   9.639   5.494   1.999 -0.5627  0.8577 -0.1101
 1918SOL     OW17812   4.004   7.897   6.919 -0.4367 -0.1713  0.4202
 1918SOL    HW117813   3.927   7.960   6.921 -0.4134 -0.0996 -0.9799
 1918SOL    HW217814   3.976   7.808   6.956 -1.6702 -0.6939 -1.7409
 1919SOL     OW17815   7.616   7.157   4.621  0.3589  0.1270  0.2846
 1919SOL    HW117816   7.699   7.140   4.567  0.2034  0.8978 -0.2041
 1919SOL    HW217817   7.552   7.211   4.566 -0.5647 -0.6775  0.5739
 1920SOL     OW17818   7.066   6.391   6.694  0.1753 -0.4655 -0.1573
 1920SOL    HW117819   7.003   6.450   6.746  2.9883  1.3922  1.2579
 1920SOL    HW217820   7.014   6.317   6.651 -3.0006  1.1396  0.7507
 1921SOL     OW17821   9.804   8.223   9.489  0.2701 -0.4624 -0.3462
 1921SOL    HW117822   9.810   8.313   9.445 -1.1793  0.2537  0.8557
 1921SOL    HW217823   9.746   8.162   9.435  0.1133 -0.2177 -0.4547
 1922SOL     OW17824   1.799   3.558   7.106  0.3635  0.2758  0.1927
 1922SOL    HW117825   1.833   3.601   7.022 -1.5950  1.5871  0.0434
 1922SOL    HW217826   1.740   3.622   7.154 -0.9169 -1.5233  1.0606
 1923SOL     OW17827   2.949   2.819   4.695 -0.3144  0.1017 -0.3582
 1923SOL    HW117828   3.045   2.818   4.668 -0.7699 -2.6911 -1.9406
 1923SOL    HW217829   2.894   2.768   4.630 -3.3054  3.6140 -0.8115
 1924SOL     OW17830   9.971   5.328   4.931 -0.2528 -0.1633 -0.2792
 1924SOL    HW117831  10.029   5.372   4.863 -0.8624 -0.5300 -1.0503
 1924SOL    HW217832   9.888   5.293   4.887 -1.0891  0.3907  0.7963
 1925SOL     OW17833   2.393   5.873   2.251 -0.6787  0.4296  0.4353
 1925SOL    HW117834   2.324   5.802   2.237 -1.0712  0.7938  0.5415
 1925SOL    HW217835   2.430   5.865   2.343 -0.3840  0.0656  0.2893
 1926SOL     OW17836   3.874   0.824   5.201 -0.1792 -0.1328  0.2266
 1926SOL    HW117837   3.826   0.772   5.131  0.0707  1.6743 -1.3199
 1926SOL    HW217838   3.821   0.906   5.225  0.4782  0.0703  1.0346
 1927SOL     OW17839   6.839   3.189   2.365 -0.5953  0.1560 -0.3825
 1927SOL    HW117840   6.918   3.231   2.410 -0.5801 -0.2048 -0.0728
 1927SOL    HW217841   6.796   3.256   2.305  1.9850 -0.6175 -3.2298
 1928SOL     OW17842   8.306   7.086   8.939  0.4976 -0.3413 -0.1092
 1928SOL    HW117843   8.383   7.109   8.880 -0.0398  0.5496 -0.4744
 1928SOL    HW217844   8.317   7.132   9.028  0.5865 -0.5320 -0.0221
 1929SOL     OW17845   2.238   7.906   0.106  0.2169  0.0364 -0.2374
 1929SOL    HW117846   2.217   7.820   0.152  1.0265 -0.5734 -0.9883
 1929SOL    HW217847   2.175   7.977   0.137 -1.4151 -1.1787 -0.6787
 1930SOL     OW17848   4.899   1.064   8.328  0.1676 -0.9215  0.0985
 1930SOL    HW117849   4.824   1.120   8.362 -0.9556 -1.1007 -1.9698
 1930SOL    HW217850   4.862   0.988   8.274  1.7707 -2.0834  0.5846
 1931SOL     OW17851   3.991   2.346   7.920 -0.2932 -0.4703  0.3795
 1931SOL    HW117852   3.958   2.360   7.827  0.4543 -0.2655  0.1488
 1931SOL    HW217853   4.029   2.431   7.955 -1.7476 -0.1875  1.3495
 1932SOL     OW17854   1.279   3.287   9.552 -0.0186  0.0338 -0.0633
 1932SOL    HW117855   1.296   3.265   9.456 -1.1491 -1.1401 -0.0138
 1932SOL    HW217856   1.259   3.384   9.561  1.4407  0.4189 -0.8195
 1933SOL     OW17857   0.086   7.296   3.744  0.5921 -0.7214 -0.1269
 1933SOL    HW117858   0.079   7.373   3.808  0.7405 -0.9082  0.1149
 1933SOL    HW217859  -0.001   7.245   3.744  1.1169 -1.6500  1.1103
 1934SOL     OW17860   2.761   9.743   2.456 -0.2235  0.3335  0.4477
 1934SOL    HW117861   2.740   9.825   2.403  0.7614  0.3235  0.0411
 1934SOL    HW217862   2.816   9.681   2.400 -0.0597 -0.1325  1.1307
 1935SOL     OW17863   9.780   7.093   7.229  0.5990 -0.1567  0.5682
 1935SOL    HW117864   9.815   7.114   7.321 -0.1157  1.2752  0.5389
 1935SOL    HW217865   9.776   7.178   7.176 -0.4060 -0.7341 -0.2916
 1936SOL     OW17866   7.520   5.544   5.276  0.0629 -0.1993 -0.1003
 1936SOL    HW117867   7.498   5.509   5.367 -1.8109  0.4762 -0.2704
 1936SOL    HW217868   7.558   5.636   5.285 -1.0768  0.2774 -0.0445
 1937SOL     OW17869   0.522   8.291   9.001  0.5667 -0.3513  0.1813
 1937SOL    HW117870   0.469   8.295   9.085 -0.5411  0.6836 -0.5544
 1937SOL    HW217871   0.514   8.200   8.960 -0.0617 -0.4064  0.4356
 1938SOL     OW17872   8.814   9.727   8.687  0.2874  0.6058 -0.5827
 1938SOL    HW117873   8.824   9.815   8.641  1.8538 -0.4435 -2.3340
 1938SOL    HW217874   8.889   9.714   8.752  0.4035  0.3334 -0.7656
 1939SOL     OW17875   0.112   3.035   1.274 -0.5318  0.1685 -0.4278
 1939SOL    HW117876   0.067   2.960   1.225 -0.5481 -0.2585  0.2334
 1939SOL    HW217877   0.139   3.004   1.365 -0.0763  0.8175 -0.3380
 1940SOL     OW17878   5.922   1.829   5.272 -0.3261  0.6855 -0.0567
 1940SOL    HW117879   5.992   1.763   5.298 -1.2368 -0.6234 -0.8788
 1940SOL    HW217880   5.853   1.835   5.344 -0.4500  0.4493 -0.1550
 1941SOL     OW17881   2.851   1.887   4.442 -0.1066 -0.2384  0.2099
 1941SOL    HW117882   2.944   1.922   4.450 -0.3836  0.4577  0.4089
 1941SOL    HW217883   2.819   1.857   4.532  0.0417 -0.7729  0.0847
 1942SOL     OW17884   6.294   4.598   0.158  0.0284 -0.1271 -0.1084
 1942SOL    HW117885   6.349   4.519   0.182  0.3312 -0.3786 -1.6187
 1942SOL    HW217886   6.335   4.646   0.080 -1.2188  0.3715 -0.4807
 1943SOL     OW17887   0.348   2.602   2.568 -0.0924 -1.0580 -0.2095
 1943SOL    HW117888   0.408   2.678   2.543 -0.5768  0.1115  2.0897
 1943SOL    HW217889   0.339   2.540   2.490  3.1115 -0.6146 -1.0037
 1944SOL     OW17890   7.550   1.811   3.756  0.5821  0.5352 -0.0887
 1944SOL    HW117891   7.474   1.823   3.819 -0.9098  0.0762 -1.7610
 1944SOL    HW217892   7.635   1.799   3.807 -0.4845  0.9368  1.7971
 1945SOL     OW17893   1.221   0.073   8.981  0.1187 -0.3214 -0.5660
 1945SOL    HW117894   1.233   0.115   9.071  0.1572 -1.9940  0.2296
 1945SOL    HW217895   1.306   0.081   8.929 -0.9155  3.7016 -1.8307
 1946SOL     OW17896   7.793   4.041   1.315 -0.3314  0.1123 -1.1381
 1946SOL    HW117897   7.805   3.947   1.285  0.6059 -0.2194  0.2345
 1946SOL    HW217898   7.696   4.065   1.312 -0.4670 -0.5195 -2.5423
 1947SOL     OW17899   6.512   8.394   8.382  0.2181  0.0734  0.1406
 1947SOL    HW117900   6.511   8.318   8.318  1.2391 -1.0945  1.4923
 1947SOL    HW217901   6.423   8.439   8.383 -0.0086 -0.3448 -1.5549
 1948SOL     OW17902   2.375   7.626   9.953 -0.2213  0.8176  0.2498
 1948SOL    HW117903   2.279   7.644   9.935 -0.2629  0.1906 -0.1747
 1948SOL    HW217904   2.423   7.610   9.866  0.3101  1.3650  0.4404
 1949SOL     OW17905   5.485   3.810   2.086 -0.0905  0.3113  0.6288
 1949SOL    HW117906   5.571   3.766   2.060  0.7092  1.6558  0.9535
 1949SOL    HW217907   5.424   3.742   2.127  1.1417 -0.4803  1.1748
 1950SOL     OW17908   0.192   3.662   3.280 -0.7396 -0.5798  0.1606
 1950SOL    HW117909   0.154   3.651   3.373 -0.3495 -1.4323  0.2212
 1950SOL    HW217910   0.149   3.741   3.236  1.1638  1.6492  2.1327
 1951SOL     OW17911   3.758   7.917   9.719 -0.0425 -0.1228 -0.3078
 1951SOL    HW117912   3.710   7.847   9.665 -1.0744  0.4823 -0.1832
 1951SOL    HW217913   3.691   7.981   9.757  0.7535 -0.0843  1.0374
 1952SOL     OW17914   2.121   5.894   9.621  0.8757  0.0812 -0.1088
 1952SOL    HW117915   2.165   5.844   9.547 -1.0086 -2.9997  0.7738
 1952SOL    HW217916   2.022   5.889   9.611  0.6289  2.6174  0.7091
 1953SOL     OW17917   1.502   8.504   5.352 -0.2980  0.8879 -0.2224
 1953SOL    HW117918   1.445   8.432   5.311  0.0311  0.3608  0.2398
 1953SOL    HW217919   1.512   8.580   5.287 -0.3983  0.3830 -0.8292
 1954SOL     OW17920   3.914   9.992   1.947  0.4218  0.4463  0.4510
 1954SOL    HW117921   3.916  10.027   2.041  1.1392  1.4390  0.0705
 1954SOL    HW217922   3.829   9.940   1.933  0.3491  0.2140  1.6703
 1955SOL     OW17923   6.062   9.414   4.265 -0.4535  0.6028  0.2322
 1955SOL    HW117924   6.107   9.383   4.349 -1.6857 -1.2435  0.2120
 1955SOL    HW217925   5.972   9.452   4.287 -1.4193 -1.2862 -0.4144
 1956SOL     OW17926   3.652   0.236   7.297 -0.0420  0.0475  0.2067
 1956SOL    HW117927   3.693   0.168   7.237  0.4126  1.7174 -1.4330
 1956SOL    HW217928   3.559   0.208   7.321 -0.5505 -0.2499 -1.9940
 1957SOL     OW17929   9.108   2.022   7.543 -0.3421 -0.3044 -0.1139
 1957SOL    HW117930   9.047   2.044   7.619 -0.5480 -0.0037 -0.3640
 1957SOL    HW217931   9.099   2.092   7.472  0.2291 -0.3114 -0.1886
 1958SOL     OW17932   7.185   5.191   8.563 -0.3603  0.1927  0.2109
 1958SOL    HW117933   7.264   5.234   8.605 -2.9222  1.8297  3.5492
 1958SOL    HW217934   7.134   5.258   8.510 -0.8118 -0.3096 -0.0010
 1959SOL     OW17935   3.532   6.442   0.518  0.3328 -1.1704 -0.0137
 1959SOL    HW117936   3.595   6.402   0.585  0.6093 -1.3449 -0.3762
 1959SOL    HW217937   3.444   6.394   0.522  0.4471 -1.3786  0.0169
 1960SOL     OW17938   7.557   9.249   5.383  0.2189 -0.1114 -0.2971
 1960SOL    HW117939   7.651   9.285   5.387 -0.1878  0.7428  3.1615
 1960SOL    HW217940   7.495   9.320   5.351  0.3178  0.3406  0.4927
 1961SOL     OW17941   8.804   9.336   5.990 -0.7749  0.3020 -0.0301
 1961SOL    HW117942   8.880   9.328   6.054 -1.4592 -0.3234  0.7147
 1961SOL    HW217943   8.839   9.341   5.896  0.2397  1.3192  0.3935
 1962SOL     OW17944   9.385   0.861   6.311 -0.7239 -0.0794  0.7657
 1962SOL    HW117945   9.440   0.809   6.246  0.4184  0.0529  1.6064
 1962SOL    HW217946   9.317   0.915   6.261  0.8947  0.9205 -0.4189
 1963SOL     OW17947   0.166   3.902   0.624  0.0262  0.2322  0.1750
 1963SOL    HW117948   0.219   3.824   0.592 -0.9075 -0.0021 -0.8124
 1963SOL    HW217949   0.225   3.983   0.629  0.4344  0.0103 -1.0555
 1964SOL     OW17950   3.091   1.430   3.269 -0.1254  0.4652  0.2595
 1964SOL    HW117951   3.003   1.422   3.222 -0.1334 -0.7754  0.4821
 1964SOL    HW217952   3.154   1.485   3.213  0.5779 -2.8005 -2.2560
 1965SOL     OW17953   1.258   4.242   6.643  0.0488  0.3574  0.6374
 1965SOL    HW117954   1.273   4.260   6.740 -1.0483 -2.2706  1.3324
 1965SOL    HW217955   1.183   4.299   6.609  0.3469  1.1771  1.3668
 1966SOL     OW17956   6.741   0.670   5.511 -0.5729 -0.5771 -0.3694
 1966SOL    HW117957   6.673   0.719   5.456  1.9684  1.3406 -1.8635
 1966SOL    HW217958   6.776   0.731   5.583  0.6738 -1.0415 -0.5753
 1967SOL     OW17959   7.048   5.722   0.758  0.4090  0.2355 -0.3619
 1967SOL    HW117960   7.015   5.629   0.771  0.8020  0.3456  1.4952
 1967SOL    HW217961   7.148   5.724   0.770  0.3535  0.9643  0.0101
 1968SOL     OW17962   4.121   6.172   1.124 -0.2039  0.0167  0.1647
 1968SOL    HW117963   4.151   6.239   1.057 -2.0082  0.4346 -0.2469
 1968SOL    HW217964   4.193   6.160   1.194  1.4978 -0.1079 -1.5654
 1969SOL     OW17965   3.801   5.583   2.084  0.3592  0.5076 -0.4470
 1969SOL    HW117966   3.865   5.660   2.086 -0.7179  1.3880  0.7175
 1969SOL    HW217967   3.844   5.503   2.127 -0.4765  2.0424  3.4982
 1970SOL     OW17968   7.270   6.754   3.963  0.2690  0.1442  0.0827
 1970SOL    HW117969   7.286   6.844   3.922  1.8400 -0.2263 -0.1548
 1970SOL    HW217970   7.193   6.759   4.026  0.2602  1.6236 -0.0352
 1971SOL     OW17971   0.821   8.145   7.838 -0.6659  0.5017  0.3655
 1971SOL    HW117972   0.764   8.190   7.769 -0.9882 -0.2981  0.1053
 1971SOL    HW217973   0.768   8.073   7.883  0.2694 -0.4995 -0.1463
 1972SOL     OW17974   3.221   6.136   2.692 -0.2329  0.3328  0.2453
 1972SOL    HW117975   3.310   6.160   2.654 -0.9184  1.4181 -0.7240
 1972SOL    HW217976   3.179   6.064   2.636  0.3425 -0.7089  1.1356
 1973SOL     OW17977   8.327   6.620   9.716 -0.0244  0.2633  0.2783
 1973SOL    HW117978   8.310   6.573   9.630  0.6070  0.8964 -0.1946
 1973SOL    HW217979   8.308   6.558   9.792 -1.1503 -0.1066 -0.3037
 1974SOL     OW17980   4.015   1.197   8.620  0.2911  0.3603  0.0053
 1974SOL    HW117981   3.961   1.277   8.597 -1.1202 -0.6496 -0.2519
 1974SOL    HW217982   4.050   1.155   8.536  0.0171  0.0106  0.0669
 1975SOL     OW17983   2.397   4.035   3.144 -0.3763  0.2967 -0.3128
 1975SOL    HW117984   2.300   4.010   3.144 -0.4700  0.6546  0.1394
 1975SOL    HW217985   2.450   3.963   3.188 -0.6040  0.7396  0.6839
 1976SOL     OW17986   9.324   3.958   5.987  0.8020 -0.3022  0.4509
 1976SOL    HW117987   9.353   4.045   5.947  3.3683 -0.9391  0.8501
 1976SOL    HW217988   9.299   3.973   6.083 -0.4157  0.2819  0.0589
 1977SOL     OW17989   4.472   3.598   1.883  0.3032 -0.0474 -0.2372
 1977SOL    HW117990   4.497   3.675   1.824  0.2426 -0.2933 -0.5879
 1977SOL    HW217991   4.553   3.565   1.931  0.3457  0.1814 -0.1486
 1978SOL     OW17992   8.411   0.233   4.689  0.0455 -0.3073 -0.5836
 1978SOL    HW117993   8.373   0.315   4.732 -1.1506 -1.3539  0.3923
 1978SOL    HW217994   8.342   0.161   4.688  1.3306 -1.5583 -0.7486
 1979SOL     OW17995   4.320   1.745   1.238  0.2213 -0.1130  0.2460
 1979SOL    HW117996   4.298   1.709   1.148  1.1521  2.1080 -0.9087
 1979SOL    HW217997   4.254   1.710   1.305 -1.9377  0.1261 -1.7077
 1980SOL     OW17998   3.207   0.663   3.225  0.1348  1.1051 -0.5834
 1980SOL    HW117999   3.148   0.645   3.303  0.8980  1.0236 -0.0198
 1980SOL    HW218000   3.279   0.728   3.251  1.2003  0.0413 -0.8353
 1981SOL     OW18001   6.639   2.074   6.281 -0.0930 -0.3526 -0.2276
 1981SOL    HW118002   6.593   1.991   6.249 -0.3281 -0.5556  0.6139
 1981SOL    HW218003   6.571   2.142   6.306  0.0913 -0.0775 -0.4728
 1982SOL     OW18004   3.225   8.927   4.787  0.1920  0.4605  0.3411
 1982SOL    HW118005   3.247   8.836   4.752  1.2274  1.0859 -0.6307
 1982SOL    HW218006   3.173   8.978   4.719 -0.7594  0.4538  1.0517
 1983SOL     OW18007   2.041   0.393   5.481 -0.2780  0.0649  0.0588
 1983SOL    HW118008   2.062   0.324   5.550  0.1223 -0.0119 -0.1377
 1983SOL    HW218009   1.980   0.462   5.520  0.3177  0.2756  0.6290
 1984SOL     OW18010   7.417   6.298   0.898 -0.0111 -0.1876  0.1610
 1984SOL    HW118011   7.425   6.266   0.993 -1.5135 -0.7936  0.0912
 1984SOL    HW218012   7.415   6.219   0.836 -1.8416  0.0967 -0.1583
 1985SOL     OW18013   1.915   7.261   6.771 -0.0271 -0.0999  0.3200
 1985SOL    HW118014   1.999   7.271   6.825  1.0521 -0.4414 -1.2580
 1985SOL    HW218015   1.837   7.249   6.833  1.2149 -0.8055  1.8007
 1986SOL     OW18016   6.199   9.353   5.371  0.0391  0.5994 -0.3464
 1986SOL    HW118017   6.250   9.326   5.289 -0.1163 -1.1447  0.0963
 1986SOL    HW218018   6.258   9.405   5.432  0.9890 -0.4917 -0.3154
 1987SOL     OW18019   1.643   2.327   5.978 -0.1647  0.7013  0.4225
 1987SOL    HW118020   1.632   2.365   5.886  2.1009  0.3085 -0.0331
 1987SOL    HW218021   1.686   2.395   6.037  1.1582 -0.0815  0.3822
 1988SOL     OW18022   4.097   3.454   5.307 -0.2183  0.0698  0.8261
 1988SOL    HW118023   4.037   3.463   5.387 -0.9458  2.5512  0.0546
 1988SOL    HW218024   4.192   3.457   5.336 -0.4810 -0.0898  1.7110
 1989SOL     OW18025   4.816   9.788   7.426  0.3842  0.0271 -0.0164
 1989SOL    HW118026   4.739   9.846   7.399 -0.9208 -1.9578 -0.6997
 1989SOL    HW218027   4.871   9.766   7.345 -0.3526 -1.4073 -0.1404
 1990SOL     OW18028   6.920   5.042   1.088 -0.0810 -0.5072  0.0750
 1990SOL    HW118029   6.874   5.086   1.164  0.9168  0.9872 -0.1724
 1990SOL    HW218030   6.934   4.945   1.109 -0.8550 -0.3572  1.2935
 1991SOL     OW18031   2.074   3.978   4.415  0.7472 -0.3319  0.1763
 1991SOL    HW118032   2.171   3.987   4.393  0.7901 -0.5989  0.2600
 1991SOL    HW218033   2.023   4.051   4.370  1.1225  0.4208  0.9667
 1992SOL     OW18034   7.897   6.825   6.747 -0.1204 -0.0700 -0.5862
 1992SOL    HW118035   7.982   6.814   6.798 -1.1774 -0.6611  1.0779
 1992SOL    HW218036   7.822   6.841   6.811 -1.2123  0.7632 -2.0625
 1993SOL     OW18037   0.323   0.169   2.999  0.3272 -0.1033  0.2616
 1993SOL    HW118038   0.412   0.123   2.994 -1.6677 -3.9817 -0.9354
 1993SOL    HW218039   0.269   0.130   3.074  0.0382  3.1151  1.8213
 1994SOL     OW18040   3.474   2.566   9.380 -0.0653  0.4856 -0.6689
 1994SOL    HW118041   3.521   2.482   9.353  2.3197  1.7733 -0.7030
 1994SOL    HW218042   3.530   2.645   9.355 -2.3196  2.1076 -0.7639
 1995SOL     OW18043   2.713   5.142   4.172  0.3832 -0.3437  0.4999
 1995SOL    HW118044   2.631   5.097   4.138 -0.2216  1.0885  0.0514
 1995SOL    HW218045   2.694   5.185   4.260  0.4261  0.6199  0.0534
 1996SOL     OW18046   6.459   0.156   7.727  0.3756  0.1543  0.3483
 1996SOL    HW118047   6.410   0.079   7.766  0.3502 -0.4653 -0.8760
 1996SOL    HW218048   6.468   0.229   7.795 -0.6842 -0.4321  1.1136
 1997SOL     OW18049   8.024   4.485   2.639  0.2856  0.3169  0.7395
 1997SOL    HW118050   8.080   4.462   2.559 -0.2184  0.4552  0.3481
 1997SOL    HW218051   8.003   4.583   2.637  2.7281  0.9285  2.5787
 1998SOL     OW18052   5.541   8.943   2.852 -0.0689 -0.3966 -0.5984
 1998SOL    HW118053   5.494   8.897   2.928 -0.5829  0.0571 -0.6433
 1998SOL    HW218054   5.608   9.008   2.889 -0.0193 -0.4818 -0.5374
 1999SOL     OW18055   1.252   9.604   6.743 -0.0741 -0.2755 -0.1112
 1999SOL    HW118056   1.264   9.506   6.731 -0.7612 -0.5615  1.5213
 1999SOL    HW218057   1.197   9.640   6.667 -1.3808 -1.4754  0.2502
 2000SOL     OW18058   7.564   0.150   5.428  0.8825  0.2173 -0.1676
 2000SOL    HW118059   7.490   0.110   5.373 -1.4716  0.2719  2.7751
 2000SOL    HW218060   7.551   0.249   5.434  0.6316  0.1206  1.1066
 2001SOL     OW18061   4.056   8.399   0.301  0.5182 -0.3566 -0.6621
 2001SOL    HW118062   4.082   8.486   0.343  0.6343 -0.2794 -0.8936
 2001SOL    HW218063   3.971   8.410   0.251  1.3932  0.0490 -2.0964
 2002SOL     OW18064   6.210   0.933   4.010  0.5851 -0.8359 -0.1229
 2002SOL    HW118065   6.249   1.018   4.046  2.3841 -2.3874  1.7051
 2002SOL    HW218066   6.257   0.908   3.926  0.4091 -0.2860 -0.3842
 2003SOL     OW18067   4.626   8.140   0.895 -0.0609  0.2227 -0.3290
 2003SOL    HW118068   4.684   8.085   0.835  0.7275  1.5917 -0.8500
 2003SOL    HW218069   4.530   8.112   0.883  0.4171 -1.6758  0.1322
 2004SOL     OW18070   2.535   2.769   9.315  0.4286  0.3727 -0.2826
 2004SOL    HW118071   2.623   2.783   9.269  0.1253 -0.2215 -1.0501
 2004SOL    HW218072   2.461   2.797   9.254  0.0932  1.2159  0.5005
 2005SOL     OW18073   9.101   3.965   1.972 -0.3628 -0.1694  0.0752
 2005SOL    HW118074   9.092   3.911   2.056  0.2365  2.5888  1.9773
 2005SOL    HW218075   9.011   4.001   1.945 -0.7790 -2.0885 -1.2484
 2006SOL     OW18076   0.312   6.150   0.519  0.4320  0.8156 -0.1676
 2006SOL    HW118077   0.362   6.077   0.566  1.0369  0.9975 -0.5281
 2006SOL    HW218078   0.287   6.120   0.427 -2.4281 -0.2684  0.8851
 2007SOL     OW18079   4.123   3.828   9.205  0.1763  0.6477 -0.2367
 2007SOL    HW118080   4.134   3.905   9.142  0.5907  1.2014  0.5001
 2007SOL    HW218081   4.136   3.742   9.156  1.8382  1.1082 -0.6390
 2008SOL     OW18082   9.982   6.939   5.125 -0.0116 -0.3163  0.3912
 2008SOL    HW118083   9.920   6.960   5.200  0.6507  2.1291  0.3135
 2008SOL    HW218084  10.072   6.914   5.162  0.3456  0.9926  0.4223
 2009SOL     OW18085   9.344   2.267   2.386 -0.1749  0.2123  0.4126
 2009SOL    HW118086   9.374   2.188   2.332 -2.1474  0.0360 -0.4532
 2009SOL    HW218087   9.369   2.254   2.482 -0.6285 -1.5375  0.2945
 2010SOL     OW18088   2.379   9.455   6.332  0.2100  0.3330  0.4163
 2010SOL    HW118089   2.321   9.418   6.259 -1.3108 -1.3730  2.3970
 2010SOL    HW218090   2.327   9.455   6.418  2.3170  1.2431  1.7170
 2011SOL     OW18091   9.694   3.766   7.848 -0.2000  0.1916 -0.4287
 2011SOL    HW118092   9.772   3.821   7.817  0.4104  0.4162  1.4602
 2011SOL    HW218093   9.621   3.770   7.780  1.2581  0.3549 -2.0084
 2012SOL     OW18094   1.755   2.285   2.004  0.1725 -0.0350  0.8567
 2012SOL    HW118095   1.774   2.352   2.076 -0.9589 -0.0181  1.1365
 2012SOL    HW218096   1.751   2.193   2.044 -0.5419 -0.0163  0.8327
 2013SOL     OW18097   9.921   3.879   4.976  0.3308 -0.2828  0.0321
 2013SOL    HW118098   9.974   3.963   4.973  1.7059 -1.1451 -0.3939
 2013SOL    HW218099   9.850   3.882   4.906  0.5386  0.4154 -0.1516
 2014SOL     OW18100   0.106   1.719   6.600  0.0245 -0.4184 -0.0491
 2014SOL    HW118101   0.188   1.664   6.583  0.5832  0.7211 -1.1416
 2014SOL    HW218102   0.065   1.744   6.512  0.8725  2.4981  0.3465
 2015SOL     OW18103   9.950   4.362   2.361 -0.2106 -0.0219 -0.0502
 2015SOL    HW118104  10.002   4.418   2.296 -0.5580 -0.4075 -0.6629
 2015SOL    HW218105   9.860   4.402   2.375  0.2591  0.6819  1.0612
 2016SOL     OW18106   1.204   5.757   8.617 -0.1063 -0.3017 -0.9690
 2016SOL    HW118107   1.302   5.777   8.620 -0.3176  0.5504  0.2954
 2016SOL    HW218108   1.189   5.660   8.636  0.5457 -0.5972 -1.9480
 2017SOL     OW18109   8.634   3.862   9.976 -0.3853 -0.1762  0.3563
 2017SOL    HW118110   8.667   3.939  10.030  0.0934 -0.7343  0.8605
 2017SOL    HW218111   8.548   3.888   9.932 -1.0955  0.0816  1.8555
 2018SOL     OW18112   4.698   0.570   5.896  0.2707  0.0895  0.4252
 2018SOL    HW118113   4.739   0.643   5.842 -0.0253 -0.3634 -0.4197
 2018SOL    HW218114   4.767   0.499   5.914 -0.3425 -1.1104 -1.7714
 2019SOL     OW18115   2.612   1.168   5.602 -0.1977  0.4047 -0.2257
 2019SOL    HW118116   2.691   1.184   5.661 -0.7967  0.1899  0.6539
 2019SOL    HW218117   2.564   1.085   5.632 -2.1721  1.8726  0.8367
 2020SOL     OW18118   4.584   2.745   9.484  0.7434  0.5454  0.1435
 2020SOL    HW118119   4.656   2.804   9.446 -0.1715  1.4681 -0.1825
 2020SOL    HW218120   4.509   2.738   9.419  0.0735  0.4415  0.9256
 2021SOL     OW18121   0.173   5.043   3.500 -0.3218  0.1619  0.5559
 2021SOL    HW118122   0.202   4.952   3.529  1.1612 -0.3219 -2.3301
 2021SOL    HW218123   0.199   5.109   3.571  0.8709 -1.3226  1.5478
 2022SOL     OW18124   7.039   1.550   4.476 -0.2680 -0.3380  0.7379
 2022SOL    HW118125   7.095   1.484   4.426 -0.4093  0.6600 -0.7508
 2022SOL    HW218126   6.944   1.519   4.476 -0.5186  0.3634 -0.8721
 2023SOL     OW18127   4.292   0.464   8.743 -0.4390 -0.2335 -0.0343
 2023SOL    HW118128   4.299   0.364   8.740 -0.5422 -0.2946  1.3472
 2023SOL    HW218129   4.261   0.493   8.834  1.3698  1.1469  0.1836
 2024SOL     OW18130   7.030   5.978   6.782  0.2051 -0.8750 -0.0688
 2024SOL    HW118131   7.127   5.984   6.757  0.1366 -1.6052 -0.5490
 2024SOL    HW218132   7.016   6.019   6.872  0.5644  1.2606 -0.9722
 2025SOL     OW18133   1.860   7.540   2.597 -0.3260  0.4633  0.2282
 2025SOL    HW118134   1.763   7.563   2.598 -0.0301  1.6288  2.3730
 2025SOL    HW218135   1.907   7.596   2.529 -1.4748 -1.6104 -2.3866
 2026SOL     OW18136   7.287   2.595   8.640  0.0072 -0.3482 -0.4839
 2026SOL    HW118137   7.226   2.525   8.675  2.0235 -1.8671  0.0844
 2026SOL    HW218138   7.320   2.651   8.715  0.9667 -0.8837 -0.4995
 2027SOL     OW18139   3.634   3.013   2.955  0.4980 -0.6496  0.3152
 2027SOL    HW118140   3.713   3.074   2.961  0.0535  0.0041 -0.3243
 2027SOL    HW218141   3.550   3.065   2.972  0.1275 -1.1207 -0.0342
 2028SOL     OW18142   0.324   3.509   7.286  0.4884 -0.2369  0.1304
 2028SOL    HW118143   0.413   3.467   7.268 -0.1547 -1.3390 -0.5314
 2028SOL    HW218144   0.251   3.452   7.246 -0.3594  1.9443 -1.5460
 2029SOL     OW18145   3.364   0.181   1.515  0.0374 -0.0574  0.0270
 2029SOL    HW118146   3.371   0.257   1.580 -0.3735  0.7494 -0.8606
 2029SOL    HW218147   3.270   0.147   1.515  0.8632 -2.5404  2.6027
 2030SOL     OW18148   7.513   2.206   6.420 -0.1345  0.3909 -0.1093
 2030SOL    HW118149   7.466   2.172   6.338  0.4427 -2.1884  0.6008
 2030SOL    HW218150   7.607   2.228   6.397  0.2772 -1.1736  0.0322
 2031SOL     OW18151   4.368   5.080   3.381 -0.0276 -0.2219 -0.4574
 2031SOL    HW118152   4.343   5.087   3.478  1.1062  1.7787 -0.2789
 2031SOL    HW218153   4.405   4.989   3.363 -0.9691 -0.8724  0.8141
 2032SOL     OW18154   1.517   6.777   4.777 -0.0646 -0.3241  0.0179
 2032SOL    HW118155   1.466   6.694   4.754  0.7142 -0.6829 -0.4196
 2032SOL    HW218156   1.493   6.806   4.870 -1.0869 -0.4675 -0.1944
 2033SOL     OW18157   0.235   9.036   8.916 -0.4919  0.2505  0.0384
 2033SOL    HW118158   0.200   8.959   8.862 -2.1695  1.2366 -0.3060
 2033SOL    HW218159   0.236   9.011   9.013  0.2700 -0.6802 -0.2026
 2034SOL     OW18160   8.389   0.111   3.437 -0.2020 -0.3721  0.9222
 2034SOL    HW118161   8.433   0.022   3.425 -1.0823 -0.6927  0.0861
 2034SOL    HW218162   8.412   0.146   3.528  2.1312 -0.3344  0.3534
 2035SOL     OW18163   5.626   5.667   7.958  0.0307  0.5842  0.3008
 2035SOL    HW118164   5.713   5.707   7.932 -0.4096  0.4704 -1.4017
 2035SOL    HW218165   5.554   5.736   7.949  0.0014  0.8245  2.1734
 2036SOL     OW18166   3.556   2.301   4.749  0.0210 -0.2161  0.0348
 2036SOL    HW118167   3.545   2.342   4.659  0.8129  1.8113  0.8480
 2036SOL    HW218168   3.646   2.325   4.786 -1.2497  1.0614  2.3947
 2037SOL     OW18169   9.752   9.426   9.515  0.3444 -0.6134  0.0804
 2037SOL    HW118170   9.720   9.396   9.605 -2.0318  1.1443 -0.1082
 2037SOL    HW218171   9.683   9.405   9.446  0.7335  0.8701 -0.7975
 2038SOL     OW18172   3.292   7.524   2.916  0.1663  0.2765  0.0796
 2038SOL    HW118173   3.288   7.481   2.826 -0.5533  0.9848 -0.2338
 2038SOL    HW218174   3.386   7.522   2.950  0.3102 -0.6415 -0.3673
 2039SOL     OW18175   1.156   2.550   4.149  0.0634 -0.1493 -0.3973
 2039SOL    HW118176   1.075   2.498   4.122  0.8802 -0.8842 -1.4924
 2039SOL    HW218177   1.172   2.623   4.083  0.3140 -0.0361 -0.2127
 2040SOL     OW18178   1.804   5.366   3.650 -0.6936 -0.1415 -0.6678
 2040SOL    HW118179   1.740   5.442   3.662 -1.2348 -0.7134  0.1439
 2040SOL    HW218180   1.788   5.323   3.562 -0.9750  0.1429 -0.7571
 2041SOL     OW18181   7.621   0.240   8.338 -0.2812 -0.3542 -0.1750
 2041SOL    HW118182   7.613   0.229   8.239  0.8189 -1.0041 -0.2041
 2041SOL    HW218183   7.672   0.323   8.358 -0.7209 -0.0912 -0.1494
 2042SOL     OW18184   7.611   0.120   3.966 -0.1866  0.2735  0.3178
 2042SOL    HW118185   7.597   0.037   4.020  0.1753 -0.6456 -0.9754
 2042SOL    HW218186   7.534   0.132   3.903  1.2002 -0.7531 -1.6202
 2043SOL     OW18187   7.713   5.185   6.019  0.5071 -0.7468  0.7023
 2043SOL    HW118188   7.788   5.195   6.084 -0.5530  1.7863  1.6116
 2043SOL    HW218189   7.652   5.264   6.026 -0.3893 -1.0807 -2.4330
 2044SOL     OW18190   2.785   9.488   3.930 -0.1844  0.3343  0.1039
 2044SOL    HW118191   2.822   9.403   3.966  2.6016  1.1821 -0.6861
 2044SOL    HW218192   2.823   9.506   3.840 -2.3839  1.3561 -0.6494
 2045SOL     OW18193   8.305   3.056   2.221 -0.5155  0.1006  0.4456
 2045SOL    HW118194   8.333   3.013   2.307  1.6022 -0.3649 -0.4373
 2045SOL    HW218195   8.355   3.142   2.210 -0.7453  0.1347 -0.3354
 2046SOL     OW18196   8.605   8.132   1.965  0.0395  0.3670 -0.3144
 2046SOL    HW118197   8.554   8.176   2.039 -1.6173 -0.9499 -0.6606
 2046SOL    HW218198   8.589   8.182   1.880 -1.3856 -0.5541 -0.5957
 2047SOL     OW18199   2.240   2.158   8.474 -0.6361 -0.1721 -0.4664
 2047SOL    HW118200   2.170   2.199   8.533 -0.5474  1.0416 -1.1881
 2047SOL    HW218201   2.307   2.228   8.449  0.5618 -1.2098 -0.1997
 2048SOL     OW18202   4.369   5.835   4.333 -0.2579 -0.1126  0.1919
 2048SOL    HW118203   4.353   5.895   4.254  2.4405  0.4789  0.0429
 2048SOL    HW218204   4.388   5.742   4.301  1.4375  0.2591  0.0992
 2049SOL     OW18205   1.312   6.927   3.376 -0.2187 -0.3257  0.2377
 2049SOL    HW118206   1.373   6.848   3.368 -0.0449 -0.1865  0.1780
 2049SOL    HW218207   1.349   6.991   3.443 -1.2684 -1.1180  1.6020
 2050SOL     OW18208   1.903   3.417   0.634  0.5300 -0.2532 -0.2917
 2050SOL    HW118209   1.810   3.437   0.666  0.5614  0.9523 -0.9042
 2050SOL    HW218210   1.917   3.460   0.545  1.4828 -0.9219 -0.4699
 2051SOL     OW18211   9.236   7.084   7.916  0.5336 -0.4380  0.0405
 2051SOL    HW118212   9.235   7.179   7.945 -1.2407 -1.7471  4.8368
 2051SOL    HW218213   9.155   7.066   7.860  0.1891  0.6094  0.1897
 2052SOL     OW18214   8.547   9.406   1.852 -0.0367 -0.2011  0.0094
 2052SOL    HW118215   8.468   9.467   1.857  1.4453  1.9301 -1.6247
 2052SOL    HW218216   8.607   9.435   1.777  1.6818 -2.5241  0.4309
 2053SOL     OW18217   0.038   6.448   4.542 -0.1765  0.3087  0.1872
 2053SOL    HW118218   0.009   6.356   4.567  0.9410 -0.1777 -0.2994
 2053SOL    HW218219   0.113   6.443   4.477 -0.9896  1.5718 -0.8806
 2054SOL     OW18220   8.027   9.876   5.994  0.6174  0.3582 -0.3637
 2054SOL    HW118221   7.965   9.819   6.048  1.8144  0.8611  1.5590
 2054SOL    HW218222   7.973   9.932   5.930 -0.8507  0.2007  0.7055
 2055SOL     OW18223   3.003   0.933   9.488  0.1937 -0.2514  0.1787
 2055SOL    HW118224   2.956   0.848   9.463 -1.7540  0.1951  2.2187
 2055SOL    HW218225   3.044   0.922   9.578  0.2902  0.8571  0.2673
 2056SOL     OW18226   2.912   2.904   9.582 -0.2885  0.0755  0.3473
 2056SOL    HW118227   2.891   2.806   9.586 -1.1107  0.2395  0.1217
 2056SOL    HW218228   2.959   2.924   9.496  0.1624 -0.1693  0.5319
 2057SOL     OW18229   8.596   9.932   3.793  0.0783 -0.6428 -0.1467
 2057SOL    HW118230   8.546   9.944   3.707  1.4026 -0.7301 -0.9451
 2057SOL    HW218231   8.570   9.844   3.834  0.3802 -1.1835 -1.1018
 2058SOL     OW18232   3.030   0.454   1.589 -0.4691 -0.7088  0.0557
 2058SOL    HW118233   3.019   0.553   1.578  0.1929 -0.5774  0.6164
 2058SOL    HW218234   2.939   0.411   1.588 -0.8416  0.0277  1.0371
 2059SOL     OW18235   0.147   0.752   8.265 -0.0732 -0.3148  0.0394
 2059SOL    HW118236   0.098   0.813   8.203  0.2876 -0.9533 -0.8814
 2059SOL    HW218237   0.235   0.792   8.289  0.3468 -0.6588 -0.9004
 2060SOL     OW18238   3.172   3.929   3.778  0.4689 -0.2637 -0.1143
 2060SOL    HW118239   3.097   3.969   3.831  0.8779  0.4015 -0.0325
 2060SOL    HW218240   3.142   3.843   3.737 -0.5408  0.3172 -0.6140
 2061SOL     OW18241   8.719   1.505   9.401 -0.5612 -0.0652 -0.0173
 2061SOL    HW118242   8.722   1.600   9.433  0.4731 -0.0301 -0.1982
 2061SOL    HW218243   8.749   1.445   9.475 -3.4659 -0.4648  0.8731
 2062SOL     OW18244   1.225   2.341   6.833 -0.4359 -0.7607 -0.4999
 2062SOL    HW118245   1.226   2.405   6.756 -1.1780 -1.5889 -1.2066
 2062SOL    HW218246   1.292   2.269   6.818  1.1036  0.3653  0.7626
 2063SOL     OW18247   4.613   1.278   4.185 -0.2212 -0.2248  0.1033
 2063SOL    HW118248   4.584   1.183   4.198  1.4963 -0.6063  1.4787
 2063SOL    HW218249   4.598   1.329   4.270  1.5337 -0.0196  0.3085
 2064SOL     OW18250   1.896   7.409   6.266  0.4204 -0.1361 -0.0698
 2064SOL    HW118251   1.831   7.349   6.313  1.5029  0.0408  1.6903
 2064SOL    HW218252   1.847   7.488   6.228 -0.1763  0.9651  2.8650
 2065SOL     OW18253   7.235   4.896   0.980 -0.4797 -0.1471  0.4024
 2065SOL    HW118254   7.161   4.898   0.913  0.2499 -0.0058 -0.4065
 2065SOL    HW218255   7.199   4.925   1.069 -1.6465 -1.1827  0.2814
 2066SOL     OW18256   1.515   2.980   9.062  0.1465 -0.1245  0.2990
 2066SOL    HW118257   1.526   2.942   9.154  2.6463  0.0072  0.0814
 2066SOL    HW218258   1.533   2.909   8.994 -0.4327  0.1042 -0.0924
 2067SOL     OW18259   0.514   8.452   5.304  0.0679 -0.1851  0.3865
 2067SOL    HW118260   0.476   8.421   5.392 -0.3848 -1.5255 -0.2782
 2067SOL    HW218261   0.479   8.544   5.285  0.3714  0.2266  1.7293
 2068SOL     OW18262   0.511   9.279   2.865  0.4054  0.0154 -0.3955
 2068SOL    HW118263   0.511   9.179   2.863 -0.0257 -0.0339  1.0801
 2068SOL    HW218264   0.452   9.314   2.792  2.0709 -0.7440 -2.1438
 2069SOL     OW18265   6.952   0.814   4.011 -0.1537 -0.2789  0.1089
 2069SOL    HW118266   7.052   0.820   4.012 -0.1231 -0.8876  0.8703
 2069SOL    HW218267   6.913   0.904   3.989  0.5730 -0.2357 -1.0603
 2070SOL     OW18268   7.737   5.418   4.117  0.3802  0.1427  0.1184
 2070SOL    HW118269   7.642   5.400   4.143 -0.6473  0.7707 -3.0777
 2070SOL    HW218270   7.771   5.343   4.061  1.7006  0.0678  1.0003
 2071SOL     OW18271   2.566   0.834   2.259  0.0704  0.1884 -0.6819
 2071SOL    HW118272   2.540   0.768   2.188 -1.4840  1.0311 -0.9125
 2071SOL    HW218273   2.588   0.922   2.216 -1.6638  0.9415 -0.0746
 2072SOL     OW18274   9.203   8.687   6.470 -0.3647  0.1040  0.0287
 2072SOL    HW118275   9.121   8.662   6.522 -0.9909  0.0077 -0.9792
 2072SOL    HW218276   9.283   8.640   6.508 -0.9483 -0.6365  0.3598
 2073SOL     OW18277   6.384   8.142   4.456  0.0148 -0.0175  0.2821
 2073SOL    HW118278   6.473   8.113   4.421 -0.2668 -1.4547  0.7263
 2073SOL    HW218279   6.395   8.226   4.509  1.5678 -1.5325  2.5149
 2074SOL     OW18280   3.918   8.794   4.768  0.1962 -0.3423  0.3944
 2074SOL    HW118281   3.885   8.708   4.730 -1.0018  0.8397 -1.3004
 2074SOL    HW218282   4.006   8.818   4.726 -0.3551  0.1621 -0.4836
 2075SOL     OW18283   1.074   9.053   5.647  0.0501 -0.1773 -0.0207
 2075SOL    HW118284   1.001   8.985   5.646  0.8623 -1.0810  0.7647
 2075SOL    HW218285   1.091   9.085   5.554 -0.9945 -0.3365 -0.2710
 2076SOL     OW18286   5.211   0.696   1.855  0.1610 -0.2021 -0.7780
 2076SOL    HW118287   5.191   0.658   1.765 -0.4096 -0.2026 -0.6516
 2076SOL    HW218288   5.144   0.766   1.878 -0.1605 -0.7418 -0.0322
 2077SOL     OW18289   3.734   4.219   2.702  0.5903  0.2632 -0.0668
 2077SOL    HW118290   3.652   4.192   2.752  1.0223 -2.2614 -0.6799
 2077SOL    HW218291   3.776   4.298   2.747 -0.3786 -0.4418  2.1330
 2078SOL     OW18292   3.788   9.884   3.887  0.1036 -0.0138 -0.5211
 2078SOL    HW118293   3.787   9.845   3.979  0.4838  0.8472 -0.1443
 2078SOL    HW218294   3.696   9.879   3.848 -0.1266 -0.0928  0.0296
 2079SOL     OW18295   7.435   7.779   2.424  0.0089 -0.1470 -0.3020
 2079SOL    HW118296   7.480   7.797   2.511 -1.2069 -1.2150  0.5499
 2079SOL    HW218297   7.387   7.692   2.428  1.8977 -1.3687 -2.8320
 2080SOL     OW18298   9.871   2.246   4.189 -0.0396  0.4969 -0.2087
 2080SOL    HW118299   9.883   2.197   4.102  2.8688 -0.9012  0.9204
 2080SOL    HW218300   9.833   2.183   4.257 -2.0686  1.5217 -0.3474
 2081SOL     OW18301   2.920   0.872   7.142  0.1227  0.6903 -0.4612
 2081SOL    HW118302   3.006   0.906   7.104  0.6998 -1.3239 -1.0396
 2081SOL    HW218303   2.845   0.888   7.078  0.7320 -0.8308 -1.5784
 2082SOL     OW18304   4.368   6.920   3.283 -0.2476 -0.0128 -0.2133
 2082SOL    HW118305   4.359   6.844   3.218 -0.4327 -2.0691  2.1231
 2082SOL    HW218306   4.459   6.920   3.322 -0.0715  1.3479 -0.6036
 2083SOL     OW18307   2.505   6.059   7.003 -0.5264 -0.0341 -0.3711
 2083SOL    HW118308   2.451   5.977   6.985  1.8680 -1.4583 -1.1905
 2083SOL    HW218309   2.602   6.035   7.009 -0.1481  2.0853  3.5735
 2084SOL     OW18310   9.060   4.690   3.253 -0.1650 -0.2628 -0.2803
 2084SOL    HW118311   9.117   4.708   3.173 -1.2826 -1.8640 -1.4715
 2084SOL    HW218312   9.001   4.769   3.271  1.8629  1.1197  0.5299
 2085SOL     OW18313   6.778   4.384   8.694 -0.5295  0.4573  0.2457
 2085SOL    HW118314   6.759   4.290   8.722 -1.4722  0.2905 -0.8898
 2085SOL    HW218315   6.718   4.408   8.617  2.2819  0.7084 -1.9538
 2086SOL     OW18316   5.608   7.283   6.362  0.1791 -0.3130 -0.1836
 2086SOL    HW118317   5.532   7.267   6.299 -0.3970 -0.4820  0.5429
 2086SOL    HW218318   5.639   7.378   6.355 -0.0846 -0.2530 -0.5010
 2087SOL     OW18319   4.008   8.631   3.788 -0.3416 -0.9252  0.0743
 2087SOL    HW118320   3.992   8.730   3.782  1.2560 -0.7853 -2.6934
 2087SOL    HW218321   3.924   8.586   3.819 -1.3134  1.2040  0.6871
 2088SOL     OW18322   3.814   0.628   7.493  0.0610  0.2761 -0.2484
 2088SOL    HW118323   3.833   0.561   7.420 -0.1215  0.7717 -0.7591
 2088SOL    HW218324   3.717   0.620   7.519 -0.0191  0.5002 -0.4747
 2089SOL     OW18325   1.786   6.640   4.908  0.1688 -0.2839  0.6457
 2089SOL    HW118326   1.776   6.648   4.809  1.4764  1.5262  0.6495
 2089SOL    HW218327   1.733   6.712   4.953 -1.0680 -1.5714  1.3313
 2090SOL     OW18328   2.032   4.016   8.022 -0.6277 -0.2978  0.3121
 2090SOL    HW118329   2.119   3.970   8.008  0.9487  2.5255  0.4838
 2090SOL    HW218330   2.021   4.038   8.119  0.7323  3.5387 -0.3302
 2091SOL     OW18331   6.392   8.919   4.676  0.0297 -0.3550 -0.3396
 2091SOL    HW118332   6.399   8.987   4.604 -2.0517  0.4839  0.2147
 2091SOL    HW218333   6.475   8.921   4.733 -0.2656  2.1380  0.0344
 2092SOL     OW18334   5.556   2.318   9.819  0.2774 -0.3661  0.5287
 2092SOL    HW118335   5.634   2.381   9.823  0.4576 -0.5646  0.1551
 2092SOL    HW218336   5.481   2.360   9.768  0.8285 -0.9124 -0.7648
 2093SOL     OW18337   0.412   4.280   6.431 -0.0360  0.1116 -0.0397
 2093SOL    HW118338   0.409   4.181   6.438 -1.5427  0.1143 -0.6604
 2093SOL    HW218339   0.335   4.320   6.481  1.6306  1.0758  1.8721
 2094SOL     OW18340   4.967   4.943   7.507  0.6751 -0.2330 -0.6205
 2094SOL    HW118341   5.003   4.941   7.413  0.6677  0.0489 -0.6297
 2094SOL    HW218342   4.869   4.958   7.504  0.6898 -0.1307 -0.5616
 2095SOL     OW18343   8.868   7.970   6.805  0.0441 -0.0035 -0.1521
 2095SOL    HW118344   8.869   7.912   6.723 -1.1889  0.2217 -0.3363
 2095SOL    HW218345   8.925   8.051   6.789 -1.7408  1.0149 -1.5317
 2096SOL     OW18346   8.491   0.814   5.090 -0.0513  0.0146 -0.0893
 2096SOL    HW118347   8.573   0.856   5.051  0.0347 -0.2228 -0.1646
 2096SOL    HW218348   8.515   0.766   5.174  0.0898 -0.9917 -0.7020
 2097SOL     OW18349   8.832   6.401   6.863 -0.7403 -0.3617  0.1845
 2097SOL    HW118350   8.886   6.385   6.780 -0.2163 -0.1272  0.4791
 2097SOL    HW218351   8.746   6.352   6.856 -0.5936 -0.5384 -0.4002
 2098SOL     OW18352   7.961   1.898   4.844 -0.3088 -0.6565 -0.0751
 2098SOL    HW118353   7.979   1.976   4.784 -0.9108  0.4310  1.1531
 2098SOL    HW218354   7.865   1.898   4.871 -0.3449 -1.9086 -0.1671
 2099SOL     OW18355   7.761   0.064   4.465  0.0784  0.0742  0.5897
 2099SOL    HW118356   7.795   0.134   4.528 -0.5338  0.4236  0.5363
 2099SOL    HW218357   7.838   0.009   4.432  0.3645 -0.3068  1.8753
 2100SOL     OW18358   2.075   5.855   8.739 -0.0567 -0.2117  0.5913
 2100SOL    HW118359   2.069   5.793   8.661  1.2182  0.5595 -0.1507
 2100SOL    HW218360   2.075   5.803   8.824 -0.1141 -1.1455  0.0248
 2101SOL     OW18361   9.596   5.535   8.825 -0.2711 -0.1413 -0.5943
 2101SOL    HW118362   9.501   5.561   8.813 -0.2023 -0.3718 -1.7465
 2101SOL    HW218363   9.654   5.598   8.773  0.3353  1.0590  1.5148
 2102SOL     OW18364   6.382   8.614   4.802 -0.1293 -1.0673  0.2290
 2102SOL    HW118365   6.471   8.660   4.794 -0.3236 -0.2333  2.5357
 2102SOL    HW218366   6.313   8.680   4.832 -1.2558 -2.0254 -0.2091
 2103SOL     OW18367   7.995   8.056   9.337 -0.0033  0.3297 -0.0009
 2103SOL    HW118368   7.974   8.088   9.429  1.2255  1.4032 -0.0932
 2103SOL    HW218369   7.914   8.011   9.299 -1.9543  3.7302 -0.0511
 2104SOL     OW18370   1.578   0.052   3.459  0.1037 -0.1428 -0.3060
 2104SOL    HW118371   1.633   0.055   3.543  0.6631  0.0092 -0.6808
 2104SOL    HW218372   1.637   0.065   3.380 -0.7100  1.7931 -0.6130
 2105SOL     OW18373   8.766   8.947   1.416  0.1970  0.5325  0.2875
 2105SOL    HW118374   8.829   8.928   1.341 -0.6789  0.0151 -0.3224
 2105SOL    HW218375   8.807   9.014   1.478  1.8762 -0.7548  0.5974
 2106SOL     OW18376   9.055   4.077   9.966  0.3020 -0.2026 -0.4365
 2106SOL    HW118377   8.968   4.108   9.929  0.2203  0.5035  0.3354
 2106SOL    HW218378   9.039   4.015  10.043  0.4784  1.2089  0.7513
 2107SOL     OW18379   9.307   3.040   8.570 -0.0793 -0.1483  0.2642
 2107SOL    HW118380   9.269   3.112   8.628 -1.3440 -1.0029  0.5286
 2107SOL    HW218381   9.318   3.075   8.477 -1.4656  0.1605  0.1970
 2108SOL     OW18382   7.768   0.467   0.298 -0.1415  0.3584  0.0713
 2108SOL    HW118383   7.751   0.472   0.397 -0.3607  1.6457 -0.0250
 2108SOL    HW218384   7.693   0.418   0.254 -1.9615  3.0158  0.0817
 2109SOL     OW18385   4.233   4.157   3.163 -0.2231  0.1039 -0.3526
 2109SOL    HW118386   4.300   4.191   3.229 -1.9262  0.7820  1.0748
 2109SOL    HW218387   4.279   4.099   3.095  1.6135 -0.3965  1.2697
 2110SOL     OW18388   6.259   2.892   1.844 -0.3183  0.1874  0.1074
 2110SOL    HW118389   6.317   2.873   1.765 -0.7898  1.5358 -0.5860
 2110SOL    HW218390   6.262   2.815   1.908  0.9958 -0.4073 -0.6624
 2111SOL     OW18391   4.294   8.944   8.871  0.2587  0.7304  1.0307
 2111SOL    HW118392   4.294   8.852   8.910 -1.4931  0.2927  0.0494
 2111SOL    HW218393   4.235   9.003   8.926 -0.2837  0.7315  0.4472
 2112SOL     OW18394   0.598   6.329   0.039 -0.2194 -0.1169  0.2861
 2112SOL    HW118395   0.501   6.308   0.050 -0.0197 -0.7266  0.8947
 2112SOL    HW218396   0.652   6.277   0.105  0.4917  0.5221  0.2236
 2113SOL     OW18397   5.084   4.785   1.539  0.1365 -0.2434  0.0327
 2113SOL    HW118398   5.165   4.771   1.596 -2.0244  1.8876  3.8769
 2113SOL    HW218399   5.085   4.878   1.502  0.2123 -0.7536 -1.2749
 2114SOL     OW18400   1.968   6.986   3.163 -0.0950 -0.3728  0.1255
 2114SOL    HW118401   2.059   6.973   3.124  0.3258 -1.1947  1.3431
 2114SOL    HW218402   1.900   6.991   3.090  0.9872  0.7934 -0.8265
 2115SOL     OW18403   0.932   8.246   6.845  0.2609 -0.0506 -0.3318
 2115SOL    HW118404   0.934   8.148   6.826 -1.2080 -0.4580  1.3974
 2115SOL    HW218405   1.023   8.277   6.872  0.7938 -0.8876 -1.1686
 2116SOL     OW18406   9.226   9.695   8.379  0.3195 -0.1148 -0.0634
 2116SOL    HW118407   9.281   9.692   8.295  0.2925 -1.8471 -0.0381
 2116SOL    HW218408   9.139   9.648   8.363 -0.3609  0.9774  0.4501
 2117SOL     OW18409   2.306   1.582   6.052  0.9584  0.2297 -0.0837
 2117SOL    HW118410   2.366   1.661   6.066  0.2502  0.8527 -0.4676
 2117SOL    HW218411   2.242   1.603   5.978 -0.4342  0.0053  1.0411
 2118SOL     OW18412   0.532   5.965   7.406 -0.4180  0.4150  0.0549
 2118SOL    HW118413   0.628   5.942   7.389 -0.9084 -0.1849 -2.0854
 2118SOL    HW218414   0.500   6.031   7.338 -1.7120  0.0630  0.2919
 2119SOL     OW18415   4.238   0.847   1.000 -0.6400 -0.2283  0.1009
 2119SOL    HW118416   4.292   0.785   1.058  2.9730  1.8660 -0.8650
 2119SOL    HW218417   4.186   0.909   1.058 -1.3185 -1.6690  1.0710
 2120SOL     OW18418   7.957   8.616   2.464 -0.4422 -0.2816  0.0544
 2120SOL    HW118419   7.904   8.534   2.443  0.3914 -0.8627  0.1581
 2120SOL    HW218420   7.999   8.606   2.555  0.3068 -0.0829 -0.2612
 2121SOL     OW18421   4.433   6.065   9.316  0.4661  0.6014  0.2158
 2121SOL    HW118422   4.337   6.080   9.293  0.3771 -0.1412  0.0899
 2121SOL    HW218423   4.458   6.120   9.395  0.1250  1.3400 -0.1851
 2122SOL     OW18424   0.085   8.190   3.253  0.1109  0.0362  0.2689
 2122SOL    HW118425   0.013   8.227   3.312 -0.6767 -0.3397 -0.4529
 2122SOL    HW218426   0.078   8.091   3.250  1.0409 -0.0459  0.6707
 2123SOL     OW18427   8.448   4.671   7.130  0.2913  0.3677 -0.6737
 2123SOL    HW118428   8.500   4.650   7.047  0.4358  1.4568 -0.8607
 2123SOL    HW218429   8.353   4.641   7.118  0.9176 -1.9699 -0.1901
 2124SOL     OW18430   5.032   3.325   0.502 -0.7010  0.1382  0.1508
 2124SOL    HW118431   4.956   3.385   0.478 -0.7293  0.2603  0.5310
 2124SOL    HW218432   5.037   3.250   0.437 -1.3967 -0.0873  0.3507
 2125SOL     OW18433   8.083   6.894   7.130  0.6006  0.5189 -0.3343
 2125SOL    HW118434   7.984   6.905   7.118  0.5443 -0.7533 -1.0436
 2125SOL    HW218435   8.103   6.877   7.226 -0.2018 -2.6212 -0.6900
 2126SOL     OW18436   2.453   7.313   0.143  0.1889 -0.1226 -0.2991
 2126SOL    HW118437   2.458   7.375   0.064  1.2582 -1.0122 -0.9447
 2126SOL    HW218438   2.357   7.298   0.167 -0.1195  0.8235 -0.9012
 2127SOL     OW18439   8.623   4.716   7.681 -0.4127 -0.6173 -0.6030
 2127SOL    HW118440   8.630   4.670   7.769 -2.3180  1.7852  0.9031
 2127SOL    HW218441   8.714   4.742   7.649  0.1635  0.4959  1.8116
 2128SOL     OW18442   6.455   0.400   8.279 -0.2800 -0.3257 -0.5852
 2128SOL    HW118443   6.394   0.322   8.296  0.6569 -1.0769 -0.6630
 2128SOL    HW218444   6.466   0.453   8.363 -1.2564 -0.0263 -0.6375
 2129SOL     OW18445   1.184   4.620   0.252 -0.0432 -0.1090  0.5878
 2129SOL    HW118446   1.181   4.691   0.181 -0.7037 -0.2713  0.4482
 2129SOL    HW218447   1.118   4.642   0.324  3.0018  1.8530  2.9079
 2130SOL     OW18448   5.777   3.647   1.042 -0.2493  0.0791  0.1016
 2130SOL    HW118449   5.687   3.645   0.999 -0.3420 -1.0092  0.3263
 2130SOL    HW218450   5.779   3.721   1.110 -0.1710  1.6365 -1.5812
 2131SOL     OW18451   6.834   8.450   3.866  0.0851  0.3606 -0.0020
 2131SOL    HW118452   6.922   8.498   3.870  0.0173  0.5755 -0.9999
 2131SOL    HW218453   6.775   8.495   3.799 -0.8593  0.3243  0.7920
 2132SOL     OW18454   0.513   2.228   6.055  0.4582 -0.5470  0.1394
 2132SOL    HW118455   0.460   2.272   6.127 -2.8414 -0.2080 -2.3787
 2132SOL    HW218456   0.611   2.242   6.071 -0.2023 -0.4533  4.4597
 2133SOL     OW18457   8.215   5.893   9.765 -0.3185 -0.1255 -0.2071
 2133SOL    HW118458   8.124   5.893   9.808  0.3438 -1.4208  1.2368
 2133SOL    HW218459   8.282   5.855   9.829  1.6000  2.5579 -0.5507
 2134SOL     OW18460   0.184   9.722   3.982  0.1632 -0.2852 -0.1352
 2134SOL    HW118461   0.256   9.672   3.933  0.5010  0.8894 -0.8562
 2134SOL    HW218462   0.095   9.683   3.959  0.5679 -1.9271  0.9796
 2135SOL     OW18463   2.855   5.520   6.727  0.5258 -0.1018 -0.3751
 2135SOL    HW118464   2.804   5.575   6.793  0.3156  0.3675 -0.9200
 2135SOL    HW218465   2.935   5.572   6.696  3.4532 -2.2304  3.2234
 2136SOL     OW18466   4.188   2.196   0.084 -0.3346  0.5622  0.1702
 2136SOL    HW118467   4.273   2.237   0.116  0.5598 -1.0166 -0.1650
 2136SOL    HW218468   4.151   2.137   0.156  0.3097 -0.9273 -0.7008
 2137SOL     OW18469   0.383   5.499   1.033 -0.1157 -0.0659 -0.0878
 2137SOL    HW118470   0.467   5.548   1.059  0.8881 -1.9582  0.3784
 2137SOL    HW218471   0.401   5.444   0.951 -1.3803  0.7631 -0.9265
 2138SOL     OW18472   1.945   2.156   3.072  0.2549 -0.2835 -0.0407
 2138SOL    HW118473   1.933   2.071   3.020  1.0292 -0.9840  0.9204
 2138SOL    HW218474   1.856   2.200   3.084  0.2092  0.6815 -3.2544
 2139SOL     OW18475   3.689   1.154   8.085 -0.0281  0.1048 -0.1591
 2139SOL    HW118476   3.613   1.149   8.020  0.0837 -1.7616 -0.1694
 2139SOL    HW218477   3.654   1.143   8.178  0.2017 -0.4826 -0.1430
 2140SOL     OW18478   8.367   7.774   0.418 -0.9107  0.0792  0.3540
 2140SOL    HW118479   8.322   7.840   0.357 -0.1683  1.4890  1.2837
 2140SOL    HW218480   8.454   7.812   0.450 -0.9464 -0.9239  1.7188
 2141SOL     OW18481   6.499   4.624   0.900  0.5055  0.6647  0.0922
 2141SOL    HW118482   6.434   4.630   0.975 -0.7535  2.3831 -1.1015
 2141SOL    HW218483   6.564   4.699   0.906  0.7103  0.5164 -0.2571
 2142SOL     OW18484   4.920   1.508   1.495 -0.1938 -0.1591  0.0019
 2142SOL    HW118485   4.895   1.411   1.501 -2.9079  0.4857 -0.1616
 2142SOL    HW218486   4.895   1.554   1.581  1.1702  0.3881  0.1138
 2143SOL     OW18487   7.358   1.508   4.875  0.2579  0.5020  0.4608
 2143SOL    HW118488   7.311   1.427   4.908  2.3603 -0.8757  0.2043
 2143SOL    HW218489   7.334   1.525   4.779  2.0478 -1.5922 -0.4018
 2144SOL     OW18490   0.704   6.498   3.928 -0.2813 -0.1723  0.0274
 2144SOL    HW118491   0.638   6.461   3.863 -0.1692 -1.0468  0.3915
 2144SOL    HW218492   0.689   6.455   4.018 -0.1362  0.6701  0.4568
 2145SOL     OW18493   7.394   9.242   6.135  0.3506 -0.0371  0.0042
 2145SOL    HW118494   7.475   9.210   6.087 -0.1401  0.0018 -0.8678
 2145SOL    HW218495   7.318   9.248   6.071 -1.0377 -2.5768  1.3371
 2146SOL     OW18496   9.441   9.962   6.498  0.1239 -0.7767 -0.1571
 2146SOL    HW118497   9.346   9.985   6.475  0.5993 -2.3710 -4.0002
 2146SOL    HW218498   9.450   9.863   6.505  1.8839 -0.7317 -1.6521
 2147SOL     OW18499   1.963   9.715   2.516 -0.5013  0.5002 -0.1119
 2147SOL    HW118500   1.868   9.745   2.505  0.0811  1.8491 -1.7386
 2147SOL    HW218501   1.979   9.634   2.460 -1.0707 -0.6149  1.3177
 2148SOL     OW18502   4.095   9.834   4.207  0.4622 -0.1735  0.6914
 2148SOL    HW118503   4.005   9.833   4.250 -1.1961 -1.2328 -2.6090
 2148SOL    HW218504   4.140   9.922   4.224 -2.6874  1.7241 -0.5467
 2149SOL     OW18505   5.303   1.312   0.688  0.1266 -0.0378 -0.1356
 2149SOL    HW118506   5.242   1.300   0.766 -0.8045  1.2048 -0.6643
 2149SOL    HW218507   5.280   1.397   0.640 -1.2347 -2.2415 -3.5260
 2150SOL     OW18508   9.213   2.801   8.159  0.2142 -0.3031  0.1456
 2150SOL    HW118509   9.313   2.801   8.155  0.2567  0.0059  1.0393
 2150SOL    HW218510   9.176   2.803   8.066  1.0385  0.4351 -0.1808
 2151SOL     OW18511   0.384   9.769   6.520  0.6349 -0.4792 -0.0138
 2151SOL    HW118512   0.287   9.789   6.527  0.5685 -0.4957 -0.7823
 2151SOL    HW218513   0.397   9.683   6.470  1.0810  0.2272 -1.1317
 2152SOL     OW18514   0.584   8.394   6.045  0.2218 -0.2165 -0.3196
 2152SOL    HW118515   0.678   8.428   6.047  0.3947 -0.5555 -1.6350
 2152SOL    HW218516   0.556   8.367   6.137 -0.3056  4.3933  1.0006
 2153SOL     OW18517   3.407   0.725   7.043  0.6511  0.5802  0.2140
 2153SOL    HW118518   3.377   0.703   6.950  1.7186  0.7164 -0.1746
 2153SOL    HW218519   3.456   0.647   7.082  1.4054  1.0109  0.1405
 2154SOL     OW18520   2.740   7.254   0.440  0.2251 -0.0850  0.0063
 2154SOL    HW118521   2.839   7.254   0.449 -0.0080 -1.0727  3.0562
 2154SOL    HW218522   2.709   7.343   0.408  2.0676  0.3071 -0.7181
 2155SOL     OW18523   5.495   5.625  10.055 -0.1870  0.0532  0.1581
 2155SOL    HW118524   5.456   5.557   9.993  0.6506 -1.5283  1.3344
 2155SOL    HW218525   5.561   5.581  10.116 -0.7430  1.6211  1.9536
 2156SOL     OW18526   2.228   9.637   6.941 -0.5204  0.0556  0.4426
 2156SOL    HW118527   2.291   9.653   7.017 -0.9055 -2.1445  1.2909
 2156SOL    HW218528   2.208   9.539   6.935  0.5674 -0.0305 -3.3831
 2157SOL     OW18529   8.196   4.598   2.101  0.2277 -0.5025 -0.3880
 2157SOL    HW118530   8.235   4.669   2.041  0.9824 -0.8099 -0.2762
 2157SOL    HW218531   8.102   4.622   2.125  0.6455  0.7129  0.0623
 2158SOL     OW18532   1.592   6.305   8.749 -0.0374  0.3931 -0.2245
 2158SOL    HW118533   1.628   6.244   8.680  2.0373  1.2980  0.0310
 2158SOL    HW218534   1.665   6.333   8.811 -1.6888  0.2131  1.8835
 2159SOL     OW18535   0.177   0.121   2.124  0.0245 -0.1348  0.5712
 2159SOL    HW118536   0.185   0.202   2.066  1.4222  0.7884  2.0178
 2159SOL    HW218537   0.163   0.041   2.067 -2.4761  1.2381 -0.8297
 2160SOL     OW18538   3.217   4.704   5.931  0.1599 -0.0580 -0.0112
 2160SOL    HW118539   3.209   4.741   5.838 -0.4401  0.3397  0.1959
 2160SOL    HW218540   3.314   4.697   5.956  0.4359 -2.7573 -1.6980
 2161SOL     OW18541   2.016   8.497   6.651  0.7068 -0.1051 -0.1705
 2161SOL    HW118542   1.937   8.510   6.710 -0.2620 -0.8884 -1.2530
 2161SOL    HW218543   2.073   8.579   6.652 -0.6411  0.8496 -0.1353
 2162SOL     OW18544   2.354   0.946   1.513 -0.4208 -0.1177 -0.6585
 2162SOL    HW118545   2.298   0.981   1.438  0.2308  2.9198  0.1765
 2162SOL    HW218546   2.295   0.932   1.593 -0.4081  0.7983 -0.4804
 2163SOL     OW18547   9.163   1.080   6.049  0.1829 -0.1025 -0.4169
 2163SOL    HW118548   9.150   0.981   6.052 -0.6804  0.0038 -0.6392
 2163SOL    HW218549   9.074   1.125   6.052  0.4282  0.6229 -3.0047
 2164SOL     OW18550   6.039   7.176   3.473 -0.0779  0.0100 -0.5455
 2164SOL    HW118551   5.974   7.240   3.433 -0.4477 -1.2715 -2.0406
 2164SOL    HW218552   6.127   7.185   3.427  0.2381  0.3249  0.1108
 2165SOL     OW18553   1.039   6.490   8.336 -0.6100  0.3318  0.4880
 2165SOL    HW118554   1.098   6.410   8.350  1.2230  1.2582 -1.8467
 2165SOL    HW218555   0.959   6.463   8.283 -0.9079 -0.3159  1.2499
 2166SOL     OW18556   4.952   4.808   2.058  0.3582 -0.1655  0.0521
 2166SOL    HW118557   4.945   4.905   2.039  1.1685 -0.0647  0.2380
 2166SOL    HW218558   4.908   4.756   1.985  2.6954  0.2405 -1.6907
 2167SOL     OW18559   2.517   8.894   6.560  0.6068 -0.0825 -0.2560
 2167SOL    HW118560   2.537   8.985   6.594 -0.1341  0.7206 -1.8807
 2167SOL    HW218561   2.491   8.834   6.635 -0.4666  1.4798  0.6297
 2168SOL     OW18562   2.569   6.498   0.267  0.2884  0.4537  0.0292
 2168SOL    HW118563   2.574   6.596   0.288 -1.7407  0.2270  1.8723
 2168SOL    HW218564   2.660   6.458   0.270  1.1772  2.3406 -1.0483
 2169SOL     OW18565   1.614   8.338   7.553 -0.1201  0.1923  0.0516
 2169SOL    HW118566   1.661   8.269   7.496  1.9766  0.7411  1.0612
 2169SOL    HW218567   1.682   8.392   7.602 -1.8515  1.0765  1.5258
 2170SOL     OW18568   8.475   8.649   1.138  0.6839 -0.5564  0.1096
 2170SOL    HW118569   8.441   8.659   1.044 -1.5072 -0.4228  0.8874
 2170SOL    HW218570   8.479   8.552   1.161  1.0506 -0.5819 -0.0511
 2171SOL     OW18571   4.594   3.074   0.804  0.2991  0.5340 -0.0718
 2171SOL    HW118572   4.622   3.122   0.721  0.5041  0.0196 -0.2973
 2171SOL    HW218573   4.641   2.986   0.810 -0.2055  0.2829  0.2615
 2172SOL     OW18574   8.489   4.957   5.953 -0.2953 -0.2833 -0.3897
 2172SOL    HW118575   8.572   5.008   5.973 -0.7032 -0.0147  0.6044
 2172SOL    HW218576   8.430   5.010   5.892 -1.9358  1.6248  2.7252
 2173SOL     OW18577   3.921   7.108   6.857 -0.1284 -0.2637  0.3694
 2173SOL    HW118578   3.938   7.119   6.759 -1.4496  0.2629  0.1916
 2173SOL    HW218579   4.006   7.127   6.907  0.4831 -0.2504 -0.6509
 2174SOL     OW18580   5.639   9.954   5.736  0.0780  0.3042 -0.1997
 2174SOL    HW118581   5.566   9.891   5.759 -0.2570 -0.3136 -2.8114
 2174SOL    HW218582   5.716   9.942   5.800 -0.4537 -1.8742  0.0481
 2175SOL     OW18583   1.126   7.305   5.470 -0.8499 -0.0806 -0.0816
 2175SOL    HW118584   1.212   7.262   5.498 -0.3028  0.7972 -0.3920
 2175SOL    HW218585   1.051   7.268   5.525  0.2264  1.7743  2.7601
 2176SOL     OW18586   2.220   1.152   7.303  0.3391  0.3639  0.1551
 2176SOL    HW118587   2.257   1.223   7.363  1.4395  0.2087 -0.3229
 2176SOL    HW218588   2.134   1.183   7.262  0.6076  1.2546  0.2707
 2177SOL     OW18589   1.839   9.924   4.501 -0.2407 -0.9012  0.4444
 2177SOL    HW118590   1.895   9.863   4.557  2.0997  0.1314 -0.7163
 2177SOL    HW218591   1.858  10.019   4.525 -1.4326 -0.5223 -0.0514
 2178SOL     OW18592   8.242   1.305   9.628 -0.1731 -0.0030 -0.5118
 2178SOL    HW118593   8.202   1.373   9.567 -0.0142  0.5153 -0.0474
 2178SOL    HW218594   8.186   1.296   9.710 -0.8101 -1.2677 -1.0733
 2179SOL     OW18595   3.260   0.649   1.622  0.4010  0.1792 -0.4270
 2179SOL    HW118596   3.223   0.674   1.711 -1.2734 -3.0840 -0.1187
 2179SOL    HW218597   3.193   0.672   1.551  0.6898  0.4840 -0.6056
 2180SOL     OW18598   2.998   0.881   3.298 -0.3265 -0.1926 -0.6085
 2180SOL    HW118599   3.080   0.927   3.333 -0.6219  0.5198 -0.8366
 2180SOL    HW218600   2.965   0.930   3.218 -0.6157 -0.8495 -0.8948
 2181SOL     OW18601   7.039   1.527   2.034  0.0105 -0.8232  0.9864
 2181SOL    HW118602   6.956   1.576   2.060  1.3163  1.0082  1.8333
 2181SOL    HW218603   7.119   1.576   2.069  1.5039 -2.0010 -0.6689
 2182SOL     OW18604   6.855   6.570   5.858  0.4831 -0.1183 -0.5074
 2182SOL    HW118605   6.786   6.627   5.904  1.8031 -1.4351  3.2560
 2182SOL    HW218606   6.819   6.477   5.847  0.9356 -0.3155 -0.3185
 2183SOL     OW18607   1.464   6.553   7.300  0.0363 -0.1950 -0.3134
 2183SOL    HW118608   1.554   6.534   7.339 -0.2681 -2.2478 -0.5750
 2183SOL    HW218609   1.456   6.510   7.210 -1.8309 -1.6112  0.4779
 2184SOL     OW18610   3.746   4.711   5.336  0.1066 -0.1664  0.1629
 2184SOL    HW118611   3.724   4.614   5.328  0.3214 -0.1335 -0.8349
 2184SOL    HW218612   3.662   4.764   5.342 -0.0118 -0.4621  1.4553
 2185SOL     OW18613   4.348   4.299   2.575  0.8438 -0.4764 -0.3635
 2185SOL    HW118614   4.373   4.357   2.652 -0.5792 -2.2736  1.5055
 2185SOL    HW218615   4.292   4.223   2.607 -0.3697 -0.8870 -3.2950
 2186SOL     OW18616   4.834   3.922   8.339 -0.2379  0.5192  0.4989
 2186SOL    HW118617   4.787   3.982   8.403 -0.6994 -1.2214  1.8580
 2186SOL    HW218618   4.911   3.878   8.386 -0.2217 -0.3278 -0.3075
 2187SOL     OW18619   5.333   8.655   8.791 -0.0725  0.4006  0.1754
 2187SOL    HW118620   5.316   8.580   8.727 -0.3046  0.0254  0.6768
 2187SOL    HW218621   5.323   8.742   8.743  0.9257  0.1047 -0.5865
 2188SOL     OW18622   0.865   7.814   2.564 -0.3806  0.4564 -0.1853
 2188SOL    HW118623   0.800   7.886   2.590 -0.5306  0.1692  0.2450
 2188SOL    HW218624   0.839   7.775   2.476  1.8062  3.4804 -2.2810
 2189SOL     OW18625   2.357   6.663   7.182 -0.1657 -0.1336 -0.4236
 2189SOL    HW118626   2.419   6.676   7.259 -0.5004 -1.2294  0.0363
 2189SOL    HW218627   2.368   6.739   7.117  1.5707 -0.2518 -0.2939
 2190SOL     OW18628   3.703   4.258   9.560 -0.5239 -0.8152 -0.0115
 2190SOL    HW118629   3.789   4.226   9.599 -0.0771  1.1129  0.6670
 2190SOL    HW218630   3.636   4.273   9.633 -0.3397  0.8652 -0.1590
 2191SOL     OW18631   7.340   8.701   6.289  0.3948 -0.1120  0.0355
 2191SOL    HW118632   7.275   8.644   6.240 -1.3372  0.2521  1.8346
 2191SOL    HW218633   7.291   8.775   6.335  1.8892 -0.6156  2.5331
 2192SOL     OW18634   2.710   1.453   2.134  0.2731  0.0818 -0.2572
 2192SOL    HW118635   2.713   1.548   2.104 -0.0012 -0.1236 -0.9660
 2192SOL    HW218636   2.791   1.405   2.099 -0.0438 -0.1573 -0.6722
 2193SOL     OW18637   1.719   4.958   4.788  0.0336  0.2215  0.2155
 2193SOL    HW118638   1.620   4.961   4.802  0.0869  1.6054  0.3536
 2193SOL    HW218639   1.765   4.988   4.872  0.5947 -1.1986  0.4281
 2194SOL     OW18640   9.592   9.781   8.834  0.1764  0.2918  0.1406
 2194SOL    HW118641   9.558   9.759   8.742 -1.0029  2.1189  0.1130
 2194SOL    HW218642   9.535   9.853   8.874  0.2538 -0.9683  2.5971
 2195SOL     OW18643   0.157   7.703   7.962 -0.2871  0.3667 -0.4706
 2195SOL    HW118644   0.173   7.796   7.931 -2.5166  1.1776  0.7679
 2195SOL    HW218645   0.060   7.682   7.960  0.0682 -1.5230  0.4534
 2196SOL     OW18646   8.478   2.772   8.799 -0.1186 -0.5284  0.2651
 2196SOL    HW118647   8.496   2.738   8.891  0.5639 -1.3026 -0.1433
 2196SOL    HW218648   8.565   2.795   8.755 -0.3976 -0.7528 -0.4108
 2197SOL     OW18649   9.315   6.963   8.162 -0.0397 -0.2912 -0.8758
 2197SOL    HW118650   9.315   6.980   8.064 -0.0248  0.6088 -0.7207
 2197SOL    HW218651   9.283   7.044   8.210  1.5666 -0.1273 -0.0395
 2198SOL     OW18652   1.017   2.840   6.470 -0.4923 -0.3391 -0.3551
 2198SOL    HW118653   0.929   2.809   6.436 -0.5271 -1.0254  0.3357
 2198SOL    HW218654   1.036   2.932   6.437 -0.8071 -0.7452 -1.6801
 2199SOL     OW18655   4.589   7.651   5.623  0.3894  0.6092 -0.1879
 2199SOL    HW118656   4.522   7.637   5.550  0.7130 -1.0384 -0.1773
 2199SOL    HW218657   4.675   7.606   5.599  0.7430  0.7160  0.8545
 2200SOL     OW18658   9.800   2.721   0.433  0.5273  0.4935  0.1108
 2200SOL    HW118659   9.791   2.633   0.479  1.0491  1.8459  2.9094
 2200SOL    HW218660   9.727   2.731   0.365  0.7087 -2.2305 -0.5298
 2201SOL     OW18661   2.644   8.354   1.804  0.6174 -0.8893  0.0570
 2201SOL    HW118662   2.738   8.382   1.823  0.1753 -0.9721  2.5357
 2201SOL    HW218663   2.642   8.255   1.788  1.0162 -0.8144 -0.4653
 2202SOL     OW18664   9.611   4.973   2.004  0.6594  0.3823 -0.6150
 2202SOL    HW118665   9.690   4.977   2.065  1.3649 -1.1870 -1.4145
 2202SOL    HW218666   9.534   5.023   2.047  1.7061  0.9320  0.6755
 2203SOL     OW18667   1.616   2.324   4.638  0.6833 -0.2138 -0.1780
 2203SOL    HW118668   1.685   2.383   4.679  2.0589  0.3627 -3.1494
 2203SOL    HW218669   1.609   2.239   4.691  1.7379  0.8331  1.6916
 2204SOL     OW18670   8.029   6.473   7.485  0.0495 -0.5384 -0.6431
 2204SOL    HW118671   8.114   6.443   7.441  0.4995 -1.1728  0.6659
 2204SOL    HW218672   7.972   6.394   7.506  0.3587 -0.3471  0.9784
 2205SOL     OW18673   6.133   6.790   0.926  0.3270  0.1269  0.2958
 2205SOL    HW118674   6.034   6.785   0.912  0.0141  1.8253  1.6980
 2205SOL    HW218675   6.158   6.883   0.954  2.2533 -0.4201  0.4807
 2206SOL     OW18676   9.264   8.449   1.619  0.5018  0.5722 -0.2503
 2206SOL    HW118677   9.220   8.537   1.601 -0.3774  0.2033  0.1039
 2206SOL    HW218678   9.338   8.435   1.552  1.7906  2.3564  0.7736
 2207SOL     OW18679   5.986   9.781   4.254 -0.1155  0.4754  0.2319
 2207SOL    HW118680   5.903   9.727   4.241 -0.2250  0.8650 -0.6877
 2207SOL    HW218681   6.055   9.754   4.187  1.4867 -1.7165  2.6338
 2208SOL     OW18682   2.562   2.170   6.040  0.8221 -0.2027 -0.0483
 2208SOL    HW118683   2.529   2.111   6.114  1.0850 -0.0079  0.2269
 2208SOL    HW218684   2.639   2.225   6.073  1.0976 -0.2907 -0.5414
 2209SOL     OW18685   5.394   7.869   2.966  0.2702  0.3182  0.2674
 2209SOL    HW118686   5.340   7.797   3.009  1.2449 -1.0314 -0.7168
 2209SOL    HW218687   5.371   7.957   3.007 -3.7238  0.0067 -1.0934
 2210SOL     OW18688   7.856   3.538   8.621 -0.1651  0.4794 -0.0692
 2210SOL    HW118689   7.767   3.492   8.614 -0.0886  0.4297 -0.7091
 2210SOL    HW218690   7.925   3.486   8.571  0.2848  0.3803  0.6459
 2211SOL     OW18691   2.419   0.604   3.505 -0.1793 -0.1218  0.6435
 2211SOL    HW118692   2.431   0.572   3.411 -1.2672 -0.3649  0.5728
 2211SOL    HW218693   2.340   0.665   3.509 -0.3433 -0.3897  1.4632
 2212SOL     OW18694   4.427   9.686   1.657  0.0176 -0.1386 -0.3314
 2212SOL    HW118695   4.360   9.760   1.661 -0.0699 -0.2802  1.0097
 2212SOL    HW218696   4.506   9.709   1.714 -0.1710 -1.2402  0.3841
 2213SOL     OW18697   0.789   2.154   4.563  0.8286 -0.0325 -0.0963
 2213SOL    HW118698   0.738   2.069   4.575  1.2446 -0.3696 -0.6802
 2213SOL    HW218699   0.887   2.133   4.563  0.9038  0.3438 -1.0923
 2214SOL     OW18700   0.446   0.124   6.668 -0.4291 -0.2308  0.2972
 2214SOL    HW118701   0.509   0.058   6.709  0.7459  1.8055  1.8256
 2214SOL    HW218702   0.491   0.171   6.592 -0.6679  0.0398  0.3213
 2215SOL     OW18703   7.446   1.711   5.077 -0.0283  0.2298 -0.0216
 2215SOL    HW118704   7.408   1.646   5.010  0.7536 -0.6960  0.4201
 2215SOL    HW218705   7.436   1.673   5.169 -0.1209  1.0220  0.2962
 2216SOL     OW18706   4.889   1.584   6.633 -0.3526  0.3523 -0.7198
 2216SOL    HW118707   4.913   1.546   6.722 -1.7026  2.1466  0.4288
 2216SOL    HW218708   4.962   1.562   6.567  0.7160 -0.8773  0.8262
 2217SOL     OW18709   9.452   3.763   0.586  0.4553 -0.1562 -0.2142
 2217SOL    HW118710   9.442   3.702   0.665 -1.1500 -0.9990 -1.0462
 2217SOL    HW218711   9.378   3.829   0.585  0.7524  0.1721 -0.7467
 2218SOL     OW18712   7.117   7.170   5.315 -0.2666  0.2522 -0.4351
 2218SOL    HW118713   7.213   7.178   5.341 -0.0783 -1.4746 -0.4971
 2218SOL    HW218714   7.086   7.254   5.271  1.4415  0.5440 -1.1074
 2219SOL     OW18715   1.217   4.530   6.489 -0.1036  0.6630 -0.0107
 2219SOL    HW118716   1.305   4.490   6.515 -0.1738 -0.8008 -1.8672
 2219SOL    HW218717   1.147   4.503   6.554  0.6599  1.1498  1.0215
 2220SOL     OW18718   0.581   8.006   5.096 -0.1868 -0.2119 -0.0498
 2220SOL    HW118719   0.681   7.999   5.091 -0.0901  0.4035  0.8134
 2220SOL    HW218720   0.555   8.103   5.102 -0.9166 -0.2872 -1.7315
 2221SOL     OW18721   9.926   6.375   7.357 -0.3021  0.0487 -0.0275
 2221SOL    HW118722  10.004   6.365   7.419 -0.3089  1.3081  0.2029
 2221SOL    HW218723   9.940   6.319   7.276  0.5587 -0.2034  0.2869
 2222SOL     OW18724   8.789   4.555   2.128 -0.2048 -0.1368  0.3785
 2222SOL    HW118725   8.794   4.479   2.194 -2.3227  0.1568  0.9389
 2222SOL    HW218726   8.710   4.612   2.150 -1.5711 -0.5936 -3.0139
 2223SOL     OW18727   9.167   0.509   0.894  0.0307  0.3953  0.0342
 2223SOL    HW118728   9.232   0.456   0.948 -1.6583 -1.5530  0.2025
 2223SOL    HW218729   9.097   0.547   0.954 -0.4490  0.2915 -0.4569
 2224SOL     OW18730   9.034   0.022   1.669 -0.1301 -0.0053  0.5186
 2224SOL    HW118731   9.120  -0.018   1.638  0.4817  1.4185  0.3300
 2224SOL    HW218732   8.957  -0.030   1.632  0.6522 -1.2809  0.6825
 2225SOL     OW18733   5.667   3.459   0.413 -0.3019  0.1431  0.0598
 2225SOL    HW118734   5.683   3.556   0.428  1.2020  0.0875 -1.0402
 2225SOL    HW218735   5.713   3.406   0.486  0.6524  0.1835 -0.5003
 2226SOL     OW18736   3.671   2.914   6.713  0.6168  0.0099  0.1779
 2226SOL    HW118737   3.760   2.869   6.714  0.9154  0.5446 -1.2321
 2226SOL    HW218738   3.603   2.854   6.755  0.7720 -2.3114 -2.7178
 2227SOL     OW18739   1.970   6.445   3.191  0.4118  0.1654  0.2718
 2227SOL    HW118740   1.929   6.535   3.179 -0.5156 -0.0273  1.8214
 2227SOL    HW218741   2.026   6.423   3.111 -2.2110  0.5978 -1.7809
 2228SOL     OW18742   9.620   8.831   9.733  0.1148 -0.3515 -0.6150
 2228SOL    HW118743   9.651   8.823   9.828  1.5160 -0.1129 -1.0353
 2228SOL    HW218744   9.585   8.923   9.717 -0.9248 -0.6526 -0.1009
 2229SOL     OW18745   3.898   0.333   0.273  0.1480  0.3904 -0.1476
 2229SOL    HW118746   3.814   0.311   0.223 -0.2096  0.6187  0.3462
 2229SOL    HW218747   3.954   0.250   0.282 -0.3946  0.0606  0.2153
 2230SOL     OW18748   7.065   1.963   3.743  0.3725  0.0274 -0.2505
 2230SOL    HW118749   7.124   1.929   3.670  0.2166 -1.2605  0.2248
 2230SOL    HW218750   7.041   1.889   3.805 -0.2598  0.9184  0.5983
 2231SOL     OW18751   4.215   6.404   8.266 -0.2176 -0.0976  0.1074
 2231SOL    HW118752   4.199   6.445   8.356  1.4094  0.7324  0.0231
 2231SOL    HW218753   4.206   6.475   8.195 -0.0100 -0.4378 -0.2598
 2232SOL     OW18754   2.150   6.463   7.724 -0.3106 -0.4018 -0.1769
 2232SOL    HW118755   2.085   6.425   7.658 -0.9035  0.6012 -0.1883
 2232SOL    HW218756   2.231   6.405   7.729 -1.6864 -2.2923  0.6801
 2233SOL     OW18757   0.113   5.931   7.289 -0.2236 -0.2730  0.1539
 2233SOL    HW118758   0.144   5.836   7.296 -0.7421 -0.3106  2.2344
 2233SOL    HW218759   0.014   5.935   7.303  0.0500  0.7703  1.8710
 2234SOL     OW18760   7.871   4.369   1.730  0.2233  0.0231  0.2921
 2234SOL    HW118761   7.896   4.383   1.826  0.7010 -0.9808  0.3121
 2234SOL    HW218762   7.871   4.457   1.683  0.6854  0.4310  1.0433
 2235SOL     OW18763   1.203   1.659   0.908 -0.0879  0.5344  0.2579
 2235SOL    HW118764   1.275   1.688   0.971  0.3806  1.8418 -0.8526
 2235SOL    HW218765   1.113   1.685   0.945  0.1687  1.0000  0.5557
 2236SOL     OW18766   0.117   3.907   4.708  0.3230 -0.1084 -0.8651
 2236SOL    HW118767   0.094   3.820   4.752 -0.3502  0.6925  0.3912
 2236SOL    HW218768   0.202   3.897   4.656  1.9979 -0.6426  1.9032
 2237SOL     OW18769   3.895   5.273   1.689  0.4225  0.1722 -0.0345
 2237SOL    HW118770   3.876   5.366   1.722  1.2268  0.5471 -0.6119
 2237SOL    HW218771   3.980   5.273   1.637 -0.0884 -0.6892 -0.8965
 2238SOL     OW18772   2.227   8.232   9.925  0.1295  0.0923 -0.2179
 2238SOL    HW118773   2.148   8.211   9.982  0.4857 -1.9413 -0.4422
 2238SOL    HW218774   2.270   8.316   9.957 -2.8227  1.9123 -0.8354
 2239SOL     OW18775   1.614   1.408   4.221  0.4677 -0.6787 -0.2660
 2239SOL    HW118776   1.631   1.310   4.210  1.0345 -0.6816  0.5935
 2239SOL    HW218777   1.649   1.438   4.310 -1.5757 -0.1305  0.3802
 2240SOL     OW18778   7.326   0.891   0.845  0.4963  0.1534 -0.2003
 2240SOL    HW118779   7.307   0.829   0.770 -1.0180 -0.8270  0.9744
 2240SOL    HW218780   7.248   0.894   0.908  1.1626  2.0484  0.5869
 2241SOL     OW18781   0.711   8.485   1.408 -0.1353 -0.2482 -0.6764
 2241SOL    HW118782   0.673   8.533   1.487  0.2276 -2.0094  0.5975
 2241SOL    HW218783   0.642   8.424   1.369  0.3089 -0.9150 -0.4382
 2242SOL     OW18784   8.001   4.062   2.707  0.6194  0.1521 -0.1975
 2242SOL    HW118785   7.988   4.092   2.612  0.0435  1.7683  0.3826
 2242SOL    HW218786   8.056   4.130   2.756  0.4985 -0.4389  0.7663
 2243SOL     OW18787   6.447   6.880   5.541 -0.2406 -0.5006 -0.1741
 2243SOL    HW118788   6.362   6.861   5.493  0.2509 -1.5021 -0.6692
 2243SOL    HW218789   6.499   6.795   5.552  1.3452  0.3148 -1.1339
 2244SOL     OW18790   8.863   4.941   4.733 -0.3838  0.1624  0.0488
 2244SOL    HW118791   8.802   5.020   4.742 -1.5838 -0.7222 -0.2535
 2244SOL    HW218792   8.906   4.943   4.643 -0.3124  0.5389  0.0892
 2245SOL     OW18793   1.759   5.113   2.976  0.3622 -0.0900 -0.2751
 2245SOL    HW118794   1.709   5.063   2.905  0.2115  0.7981 -0.8085
 2245SOL    HW218795   1.760   5.211   2.953 -0.0919  0.2661  1.2029
 2246SOL     OW18796   2.294   9.747   8.254  0.3551 -0.3251  0.0330
 2246SOL    HW118797   2.347   9.754   8.339  0.7187  0.3834 -0.2472
 2246SOL    HW218798   2.212   9.804   8.262 -0.1826 -1.1400  0.3324
 2247SOL     OW18799   7.486   9.044   9.341  0.0076 -1.2320  0.1878
 2247SOL    HW118800   7.477   8.981   9.418 -0.9301 -1.2940  0.0418
 2247SOL    HW218801   7.421   9.018   9.270 -0.4650 -0.0296  0.1700
 2248SOL     OW18802   5.482   0.470   5.228 -0.1281  0.2574 -0.1866
 2248SOL    HW118803   5.441   0.403   5.291 -1.8470 -0.4426 -2.0032
 2248SOL    HW218804   5.432   0.556   5.234 -0.8903 -0.0981 -1.2364
 2249SOL     OW18805   2.082   2.804   3.412 -0.3421  0.4945 -0.0310
 2249SOL    HW118806   2.089   2.870   3.337 -1.5919  1.3563  0.6036
 2249SOL    HW218807   2.156   2.821   3.478  1.7487 -1.2786 -1.8098
 2250SOL     OW18808   0.092   6.680   2.896  0.7762  0.1631  0.3712
 2250SOL    HW118809   0.132   6.757   2.945  1.0345  0.2517  0.0183
 2250SOL    HW218810   0.060   6.710   2.806 -2.1421  0.6230  1.4965
 2251SOL     OW18811   3.857   3.819   9.306  0.0275 -0.0082 -0.1147
 2251SOL    HW118812   3.807   3.906   9.314 -1.3028 -0.5832 -1.8873
 2251SOL    HW218813   3.940   3.833   9.252 -0.7231 -0.0525 -1.2809
 2252SOL     OW18814   3.249   9.652   6.722 -0.3238 -0.0867  0.0062
 2252SOL    HW118815   3.346   9.659   6.698 -0.7976 -2.0366 -2.6787
 2252SOL    HW218816   3.197   9.621   6.643 -3.2980  1.7268  1.1734
 2253SOL     OW18817   7.186   9.184   6.665  0.4415  1.1704  0.0034
 2253SOL    HW118818   7.213   9.192   6.761  1.2437 -1.7223  0.0434
 2253SOL    HW218819   7.086   9.183   6.659  0.3906 -0.1346  0.9609
 2254SOL     OW18820   8.647   9.056   3.435 -0.0291  0.7903  0.0377
 2254SOL    HW118821   8.708   9.133   3.457 -1.3454  1.7063  0.5674
 2254SOL    HW218822   8.555   9.077   3.468 -0.5476 -0.7415 -0.4237
 2255SOL     OW18823   7.972   0.531   4.337  0.0509  0.2226 -0.2198
 2255SOL    HW118824   8.029   0.449   4.346 -0.6114 -0.1586  0.5099
 2255SOL    HW218825   7.879   0.511   4.368 -0.4181  0.9248 -1.1513
 2256SOL     OW18826   0.057   2.129   1.022  0.6492 -0.0080 -0.1417
 2256SOL    HW118827   0.136   2.166   1.071  1.1398  0.2207 -1.0861
 2256SOL    HW218828   0.048   2.031   1.042  0.6372  0.1572  0.6711
 2257SOL     OW18829   2.583   6.046   4.935  0.0161  0.2321  0.0593
 2257SOL    HW118830   2.659   6.110   4.918  1.9907 -2.1452 -0.3191
 2257SOL    HW218831   2.584   6.021   5.032 -0.3257  0.2349  0.0612
 2258SOL     OW18832   2.331   4.584   2.634  0.2444  0.1555  0.8104
 2258SOL    HW118833   2.402   4.646   2.600  0.5240 -0.0736  0.9810
 2258SOL    HW218834   2.373   4.512   2.688 -0.1028 -0.0832  0.7590
 2259SOL     OW18835   6.855   9.344   6.261  0.1905 -0.6557  0.7007
 2259SOL    HW118836   6.755   9.342   6.250  0.3646 -0.2005 -1.2536
 2259SOL    HW218837   6.890   9.251   6.264 -0.2097 -0.8179  0.4113
 2260SOL     OW18838   7.585   9.707   4.513 -0.0664 -0.0175  0.1157
 2260SOL    HW118839   7.506   9.746   4.560  1.6428  1.7427  1.6619
 2260SOL    HW218840   7.576   9.722   4.414 -1.8369 -0.2399  0.2217
 2261SOL     OW18841   7.392   8.847   4.111 -0.6023 -0.5848 -0.0027
 2261SOL    HW118842   7.442   8.932   4.130  0.0378 -0.6459 -1.3628
 2261SOL    HW218843   7.323   8.833   4.182 -1.0086  1.3034  0.0138
 2262SOL     OW18844   1.906   9.323   7.376  0.2616 -0.0287  0.2198
 2262SOL    HW118845   1.841   9.312   7.301 -1.6364  1.2730  1.6264
 2262SOL    HW218846   1.922   9.234   7.420 -0.1982 -0.4306 -0.4159
 2263SOL     OW18847   9.783   7.357   9.558  0.4582 -0.1287 -0.3493
 2263SOL    HW118848   9.752   7.273   9.513  1.0579  0.3284 -1.6472
 2263SOL    HW218849   9.877   7.377   9.530  0.7259  0.3526  0.8595
 2264SOL     OW18850   0.522   1.215   8.896 -0.1787 -0.2297  0.1752
 2264SOL    HW118851   0.552   1.186   8.805  1.5410  1.7580  0.0722
 2264SOL    HW218852   0.559   1.306   8.916 -2.2599  0.2459  2.0289
 2265SOL     OW18853   0.684   9.343   7.007  0.2032 -0.0910  0.6262
 2265SOL    HW118854   0.719   9.413   6.944 -3.1056  1.8208  0.7729
 2265SOL    HW218855   0.739   9.343   7.091  0.6946  1.8834  0.3312
 2266SOL     OW18856   2.493   3.743   5.181  0.2095 -0.4176 -0.1352
 2266SOL    HW118857   2.493   3.801   5.100  0.1379  0.1320  0.2573
 2266SOL    HW218858   2.416   3.767   5.240  0.1092 -0.9932 -0.0286
 2267SOL     OW18859   8.311   2.016   9.029 -0.1728 -0.3954  0.5032
 2267SOL    HW118860   8.372   2.094   9.015 -1.4284  0.6068  0.5095
 2267SOL    HW218861   8.271   2.021   9.120 -0.2899 -1.0313  0.4908
 2268SOL     OW18862   7.187   3.337   0.972 -0.4888 -0.1707  0.0410
 2268SOL    HW118863   7.259   3.269   0.960  0.7570  1.0630  0.3079
 2268SOL    HW218864   7.172   3.352   1.070 -2.4456 -1.7908  0.0027
 2269SOL     OW18865   2.222   3.160   6.129 -0.2523 -0.3560 -0.4467
 2269SOL    HW118866   2.160   3.119   6.195 -0.3887  0.5309 -0.0124
 2269SOL    HW218867   2.281   3.090   6.090 -0.5022 -0.9580  0.2548
 2270SOL     OW18868   4.270   4.587   1.839  0.0522 -0.3512 -0.3244
 2270SOL    HW118869   4.227   4.676   1.852 -0.3539 -0.8044  1.5056
 2270SOL    HW218870   4.243   4.525   1.913  2.0933 -1.3140 -0.3392
 2271SOL     OW18871   1.064   4.282   5.204 -0.5091  0.2606  0.2531
 2271SOL    HW118872   1.152   4.238   5.186  0.4759  0.8402  3.3371
 2271SOL    HW218873   0.995   4.212   5.223 -0.2605 -0.1250 -0.2546
 2272SOL     OW18874   3.676   3.100   0.232  0.5920  0.2909  0.5600
 2272SOL    HW118875   3.662   3.060   0.323  1.9974  0.6315  0.9278
 2272SOL    HW218876   3.587   3.118   0.190 -0.0656 -0.6736  1.5086
 2273SOL     OW18877   1.591   2.083   8.533  0.2768 -0.1971  0.0258
 2273SOL    HW118878   1.510   2.030   8.558  0.0639  0.5556  0.9799
 2273SOL    HW218879   1.669   2.023   8.521  0.0046 -0.7344  0.9547
 2274SOL     OW18880   1.311   2.281   4.089  0.3685 -0.0896  0.4388
 2274SOL    HW118881   1.288   2.318   3.999  2.2721  0.4927  0.1696
 2274SOL    HW218882   1.276   2.342   4.160 -0.3772 -0.0961  0.0785
 2275SOL     OW18883   3.974   1.428   7.296 -0.8096 -0.3795 -0.2704
 2275SOL    HW118884   3.944   1.433   7.391 -0.8514  0.1397 -0.3104
 2275SOL    HW218885   4.070   1.398   7.293  0.0980  2.3910  0.0818
 2276SOL     OW18886   2.640   3.178   5.371 -0.0065  0.6166 -0.0712
 2276SOL    HW118887   2.707   3.222   5.430  0.5553  1.0426 -1.0192
 2276SOL    HW218888   2.554   3.229   5.375 -0.0958  0.4045  0.6949
 2277SOL     OW18889   8.527   8.724   1.758  0.3023  0.0560  0.0494
 2277SOL    HW118890   8.595   8.786   1.797 -0.9334 -0.3428  2.9641
 2277SOL    HW218891   8.548   8.708   1.662  3.1642  1.4974  0.3811
 2278SOL     OW18892   5.216   0.296   8.604 -0.1382  0.5204  0.2191
 2278SOL    HW118893   5.139   0.331   8.551  0.2027  2.1057  0.7291
 2278SOL    HW218894   5.243   0.365   8.672  1.4608 -0.1817  0.3182
 2279SOL     OW18895   6.921   2.152   1.516  0.2592  0.1876 -0.4077
 2279SOL    HW118896   6.858   2.076   1.536  0.1293  0.7166  1.2564
 2279SOL    HW218897   7.013   2.116   1.501 -0.0937 -0.4288 -1.1548
 2280SOL     OW18898   1.226   7.774   0.594 -0.2592 -0.0716 -0.5169
 2280SOL    HW118899   1.244   7.772   0.495 -1.5949 -0.7302 -0.7575
 2280SOL    HW218900   1.131   7.747   0.611 -0.0116 -0.0396  0.9595
 2281SOL     OW18901   4.499   2.240   8.562  0.0232  0.0076 -0.1573
 2281SOL    HW118902   4.442   2.186   8.501  1.6929  2.1900 -3.8276
 2281SOL    HW218903   4.447   2.317   8.598 -0.8549 -1.0563  0.8662
 2282SOL     OW18904   8.857   9.870   9.566 -0.0074 -0.0813  0.2305
 2282SOL    HW118905   8.827   9.780   9.533  0.3332 -0.2175  0.2832
 2282SOL    HW218906   8.933   9.857   9.630 -0.1087  0.2306  0.4126
 2283SOL     OW18907   6.522   7.583   5.588  0.0930 -0.4669 -0.3012
 2283SOL    HW118908   6.463   7.579   5.668  0.1190 -0.3497 -0.2747
 2283SOL    HW218909   6.519   7.676   5.550 -1.6568 -1.0709 -1.7368
 2284SOL     OW18910   7.758   1.604   5.447  0.0901  0.4115  0.2354
 2284SOL    HW118911   7.802   1.611   5.358  1.7082  0.9481  1.0652
 2284SOL    HW218912   7.687   1.674   5.455  0.9083  1.2744 -0.0908
 2285SOL     OW18913   4.855   3.701   2.119 -0.7844  0.2666 -0.1142
 2285SOL    HW118914   4.788   3.733   2.186 -0.9100 -1.2769  0.5168
 2285SOL    HW218915   4.891   3.779   2.068 -1.2824  1.3692  1.1956
 2286SOL     OW18916   8.860   2.353   8.381 -0.2149  0.4752 -1.3233
 2286SOL    HW118917   8.764   2.379   8.392  0.2658  1.2454  1.4454
 2286SOL    HW218918   8.916   2.436   8.369  0.5420  0.3744  1.1112
 2287SOL     OW18919   2.243   5.639   0.495  0.4242 -0.0470  0.4965
 2287SOL    HW118920   2.240   5.557   0.553  0.4342  0.6701  1.5285
 2287SOL    HW218921   2.337   5.654   0.463  0.5776  0.0130  0.9724
 2288SOL     OW18922   4.712   4.941   2.552 -0.7148  0.1421  0.0552
 2288SOL    HW118923   4.633   4.914   2.497  0.7411 -3.0099 -0.6556
 2288SOL    HW218924   4.777   4.990   2.494 -0.5543 -0.4539 -0.2744
 2289SOL     OW18925   8.462   5.116   2.356  0.0073  0.2965 -0.2047
 2289SOL    HW118926   8.385   5.161   2.311 -0.4057  1.0599  1.2591
 2289SOL    HW218927   8.544   5.126   2.299 -0.6812  0.5486 -1.1673
 2290SOL     OW18928   0.566   8.390   8.173 -0.2035  0.2530  0.2203
 2290SOL    HW118929   0.640   8.410   8.109  0.2800  0.2460  0.7828
 2290SOL    HW218930   0.514   8.473   8.191 -1.6188 -0.1608 -1.7917
 2291SOL     OW18931   4.561   0.902   8.625 -0.1511  0.1331  0.4207
 2291SOL    HW118932   4.554   1.002   8.619  0.3688  0.0831 -1.1125
 2291SOL    HW218933   4.561   0.875   8.721  0.4643  1.6632  0.8664
 2292SOL     OW18934   7.942   1.629   5.819  0.0263 -0.1987  0.7896
 2292SOL    HW118935   7.857   1.661   5.860 -0.8318 -2.0440  0.4783
 2292SOL    HW218936   7.982   1.703   5.764 -1.9527  0.3344  0.0158
 2293SOL     OW18937   0.419   8.198   1.562  0.2334  0.2976 -0.3366
 2293SOL    HW118938   0.502   8.143   1.569  1.4377  2.3767  3.0022
 2293SOL    HW218939   0.343   8.151   1.606  0.9307  0.6410  1.2777
 2294SOL     OW18940   9.538   4.251   3.372 -0.3597 -0.2266 -0.6559
 2294SOL    HW118941   9.614   4.310   3.343 -0.5361  0.4782  0.3008
 2294SOL    HW218942   9.460   4.265   3.312 -0.7716  1.3322  0.2224
 2295SOL     OW18943   0.830   1.847   4.406  1.3662 -0.0415  0.2482
 2295SOL    HW118944   0.730   1.839   4.405  1.1617  2.1179 -2.5403
 2295SOL    HW218945   0.870   1.755   4.410 -0.6913 -0.8914  2.7565
 2296SOL     OW18946   6.349   1.197   6.220 -0.4213  0.3814  0.3908
 2296SOL    HW118947   6.326   1.243   6.134  2.4688 -0.5809 -0.9340
 2296SOL    HW218948   6.405   1.117   6.202 -1.0435 -0.7297  3.0883
 2297SOL     OW18949   7.103   9.211   7.031 -0.0011 -0.7296 -0.6510
 2297SOL    HW118950   7.131   9.253   7.117 -0.6845  1.4492 -1.4525
 2297SOL    HW218951   7.171   9.143   7.003  1.4815  0.3166  0.3538
 2298SOL     OW18952   2.744   9.020   8.447  0.7875 -0.1261 -0.0438
 2298SOL    HW118953   2.768   9.061   8.359 -0.9878  2.5476  0.6526
 2298SOL    HW218954   2.797   9.065   8.520  0.3680 -0.5442  0.5227
 2299SOL     OW18955   9.475   4.068   1.448 -0.2403 -0.3930  0.0204
 2299SOL    HW118956   9.445   4.080   1.543 -1.6473 -2.1883 -0.1696
 2299SOL    HW218957   9.561   4.116   1.434 -1.0118  1.5406  1.6737
 2300SOL     OW18958   2.492   5.991   2.768 -0.4002 -0.3756 -0.1684
 2300SOL    HW118959   2.588   5.988   2.740 -0.1793  2.2675  0.1850
 2300SOL    HW218960   2.445   6.065   2.719 -1.4710  0.3770  1.9299
 2301SOL     OW18961   1.853   8.258   5.396 -0.1545 -0.8372  0.7330
 2301SOL    HW118962   1.910   8.295   5.469 -0.2691  0.0588  0.3684
 2301SOL    HW218963   1.767   8.308   5.391 -0.6279 -1.6353  0.7228
 2302SOL     OW18964   7.936   5.938   0.077  0.7990 -0.0028  0.4781
 2302SOL    HW118965   7.930   6.014   0.142  2.1054 -0.0096  0.6140
 2302SOL    HW218966   7.851   5.886   0.079  0.3202  0.7939  1.2015
 2303SOL     OW18967   2.361   6.465   9.271 -0.5642  0.4801  0.2071
 2303SOL    HW118968   2.331   6.545   9.219  0.0936  1.3322  1.1246
 2303SOL    HW218969   2.282   6.409   9.295 -1.1580  1.4481  0.5226
 2304SOL     OW18970   9.297   7.880   9.692  0.5494  0.2451  0.1088
 2304SOL    HW118971   9.360   7.848   9.621  2.0474  1.5389  0.8147
 2304SOL    HW218972   9.329   7.968   9.727 -1.6061  0.8600  0.5879
 2305SOL     OW18973   1.273   2.585   3.314  0.3922  1.1394 -0.5051
 2305SOL    HW118974   1.295   2.665   3.370 -0.0423  1.9316 -1.4433
 2305SOL    HW218975   1.175   2.585   3.293  0.2910  0.0613 -0.0656
 2306SOL     OW18976   1.238   2.750   9.388 -0.5148 -0.0298 -0.2614
 2306SOL    HW118977   1.320   2.762   9.332 -0.3763  2.5327  0.4205
 2306SOL    HW218978   1.185   2.834   9.387 -2.4317 -1.2123  0.4476
 2307SOL     OW18979   8.570   6.071  10.004  0.4197  0.0342  0.2154
 2307SOL    HW118980   8.626   6.142  10.047  0.7716  1.0491 -1.8369
 2307SOL    HW218981   8.538   6.007  10.074  0.3143  2.0519  2.0808
 2308SOL     OW18982   5.202   1.311   8.388  0.1737 -0.1661  0.8448
 2308SOL    HW118983   5.178   1.385   8.324  1.4028  1.2907  2.0304
 2308SOL    HW218984   5.175   1.223   8.348  1.2986  0.6636 -1.8961
 2309SOL     OW18985   8.829   0.902   2.918 -0.7273  0.5867  0.5357
 2309SOL    HW118986   8.769   0.982   2.908 -0.1554  0.8671 -0.7406
 2309SOL    HW218987   8.924   0.931   2.914 -0.4727  0.2131  3.1640
 2310SOL     OW18988   5.481   1.725   1.428 -0.3378 -0.2892  0.3734
 2310SOL    HW118989   5.517   1.644   1.475 -1.3849 -1.6418 -1.1036
 2310SOL    HW218990   5.554   1.793   1.418  1.2236 -2.0448 -0.4925
 2311SOL     OW18991   6.751   1.748   4.888  0.0252  0.2356  0.0515
 2311SOL    HW118992   6.706   1.744   4.798 -1.1077 -0.5554  0.6393
 2311SOL    HW218993   6.761   1.655   4.924  2.6674  0.3606 -0.3157
 2312SOL     OW18994   7.118   5.065   3.038 -0.0356  0.2603  0.1012
 2312SOL    HW118995   7.192   5.086   2.974 -1.1932  0.6395 -1.1369
 2312SOL    HW218996   7.139   4.980   3.086  0.9361  0.0587 -0.6703
 2313SOL     OW18997   7.835   2.369   8.841  0.4957 -0.2999  0.1448
 2313SOL    HW118998   7.895   2.290   8.850 -0.1752 -0.7950  0.2873
 2313SOL    HW218999   7.869   2.429   8.769  3.1116  1.1941  2.5331
 2314SOL     OW19000   4.575   4.445   5.967  0.2559  0.2014  0.2912
 2314SOL    HW119001   4.568   4.522   6.031  0.0433  0.9740 -0.6438
 2314SOL    HW219002   4.660   4.396   5.983 -0.0582  0.0432  1.5435
 2315SOL     OW19003   7.271   1.176   6.789  0.2063  0.7629 -0.0655
 2315SOL    HW119004   7.278   1.270   6.823 -0.1048  0.9677 -0.5657
 2315SOL    HW219005   7.177   1.157   6.761  0.0615 -0.0164  0.9439
 2316SOL     OW19006   6.800   2.510   8.654  0.0409  0.4202 -0.0024
 2316SOL    HW119007   6.823   2.417   8.681 -0.4538  0.6265  1.1800
 2316SOL    HW219008   6.884   2.561   8.632  0.3023 -0.3223 -0.7568
 2317SOL     OW19009   8.872   0.989   7.618  0.0670 -0.2585  0.2235
 2317SOL    HW119010   8.808   0.923   7.578  0.3043 -1.9828  2.5758
 2317SOL    HW219011   8.946   1.006   7.553 -1.2573 -0.4351 -1.3811
 2318SOL     OW19012   8.790   0.502   4.813 -0.8596 -0.1864 -0.4161
 2318SOL    HW119013   8.715   0.536   4.756  0.2338  1.1275 -1.0775
 2318SOL    HW219014   8.877   0.521   4.769 -0.0784 -0.8620  0.8093
 2319SOL     OW19015   0.791   3.120   6.702 -0.1036  0.0475  0.0606
 2319SOL    HW119016   0.823   3.155   6.614 -0.5442 -1.3048 -0.6387
 2319SOL    HW219017   0.801   3.192   6.771  2.4592  0.3498 -0.5627
 2320SOL     OW19018   0.314   3.690   2.085  0.1220  0.4995  0.4107
 2320SOL    HW119019   0.344   3.765   2.144 -0.3965  0.1841  1.0777
 2320SOL    HW219020   0.233   3.717   2.034 -0.0860  0.3894  0.6779
 2321SOL     OW19021   6.919   3.967   2.948 -0.3722 -0.1945  0.6667
 2321SOL    HW119022   6.860   3.890   2.926 -1.1690  0.3200  0.9929
 2321SOL    HW219023   6.898   4.000   3.040  0.2068  0.1885  0.6656
 2322SOL     OW19024   1.687   9.975   4.189  0.3470 -0.3495  0.0632
 2322SOL    HW119025   1.661   9.923   4.270 -0.8001 -0.0633 -0.1114
 2322SOL    HW219026   1.720  10.065   4.217 -2.1985  0.6201  0.1293
 2323SOL     OW19027   7.899   1.950   3.522 -0.6487  0.1491 -0.2071
 2323SOL    HW119028   7.834   1.876   3.506  0.7147 -0.9561 -0.6497
 2323SOL    HW219029   7.874   1.998   3.606 -0.5432 -1.9094  1.0254
 2324SOL     OW19030   9.663   1.015   4.622 -0.5464 -0.3560 -0.3064
 2324SOL    HW119031   9.661   1.111   4.593  2.1634  0.0456  0.6627
 2324SOL    HW219032   9.611   0.959   4.558 -2.2343  1.7711 -0.8397
 2325SOL     OW19033   7.712   2.624   0.994  0.0570  0.2906 -0.0898
 2325SOL    HW119034   7.709   2.525   1.008 -0.8922  0.3926  0.3954
 2325SOL    HW219035   7.773   2.644   0.917 -0.3398 -0.7143 -0.6694
 2326SOL     OW19036   9.011   8.040   4.527  0.0260 -0.1060  0.1301
 2326SOL    HW119037   9.017   7.947   4.565  1.1447 -0.4755 -0.9149
 2326SOL    HW219038   8.962   8.037   4.440 -1.2132  0.5137  0.7974
 2327SOL     OW19039   4.637   1.529   8.525 -0.3798 -0.5431 -0.1524
 2327SOL    HW119040   4.600   1.619   8.499 -1.7683 -1.0408  0.0452
 2327SOL    HW219041   4.582   1.491   8.599 -1.2318 -2.5714 -1.7903
 2328SOL     OW19042   9.209   8.537   2.803  0.2978 -0.6005  0.5873
 2328SOL    HW119043   9.162   8.506   2.720 -0.0700 -0.1745  0.6350
 2328SOL    HW219044   9.203   8.637   2.809 -0.2417 -0.6780  1.4658
 2329SOL     OW19045   8.373   0.571   6.510 -0.1614 -0.4219 -0.5876
 2329SOL    HW119046   8.303   0.641   6.496  0.5717  0.1304 -1.5185
 2329SOL    HW219047   8.454   0.594   6.458  0.4736 -1.4274 -0.0600
 2330SOL     OW19048   9.720   5.402   7.183 -0.0217  0.6341  0.1862
 2330SOL    HW119049   9.752   5.399   7.088  1.3968 -2.8893  0.7123
 2330SOL    HW219050   9.798   5.417   7.244 -0.3091 -1.0900  1.0224
 2331SOL     OW19051   0.418   0.176   9.766 -1.1513 -0.2931 -0.4130
 2331SOL    HW119052   0.464   0.218   9.844 -0.7237 -0.6653 -0.4648
 2331SOL    HW219053   0.320   0.169   9.786 -1.1181  0.0758 -0.1158
 2332SOL     OW19054   0.914   5.717   1.959  0.0287 -0.8600  0.0360
 2332SOL    HW119055   0.983   5.718   1.887  0.9717 -0.7081  0.9402
 2332SOL    HW219056   0.890   5.622   1.980  0.8969 -0.9594  0.6064
 2333SOL     OW19057   7.146   2.992   9.183 -0.2763  0.8684  0.9736
 2333SOL    HW119058   7.115   3.036   9.267 -1.1279  0.9073  0.6462
 2333SOL    HW219059   7.192   3.059   9.124  0.0557  0.9044  1.2714
 2334SOL     OW19060   0.627   5.858   3.717 -0.2758  0.1866  0.4315
 2334SOL    HW119061   0.656   5.831   3.625 -1.0387  0.2168  0.1775
 2334SOL    HW219062   0.695   5.921   3.756  1.2801 -1.7294  0.8630
 2335SOL     OW19063   3.007   0.024   3.177  0.3485 -0.3687 -0.5513
 2335SOL    HW119064   3.009  -0.071   3.146  0.0354 -0.2726 -0.8629
 2335SOL    HW219065   3.069   0.079   3.121  1.0529 -0.5224  0.0706
 2336SOL     OW19066   8.186   3.934   8.604  0.2964 -0.0218  0.0110
 2336SOL    HW119067   8.099   3.947   8.650 -0.0218 -0.9451 -0.3298
 2336SOL    HW219068   8.171   3.897   8.512  1.0909 -1.0250  0.2778
 2337SOL     OW19069   8.247   8.535   5.957 -0.2605 -0.6078 -0.0713
 2337SOL    HW119070   8.289   8.446   5.975 -0.8375 -0.4755  2.0394
 2337SOL    HW219071   8.294   8.578   5.880  1.0966 -2.0271 -0.0760
 2338SOL     OW19072   2.796   8.865   5.728 -0.0997 -0.4893  0.0857
 2338SOL    HW119073   2.772   8.947   5.780 -0.3094 -0.3145 -0.2895
 2338SOL    HW219074   2.730   8.851   5.654  0.4489 -0.4870 -0.4097
 2339SOL     OW19075   9.299   2.615   1.719  0.1012 -0.1505  0.5509
 2339SOL    HW119076   9.393   2.649   1.725  0.0600  0.8277 -2.9480
 2339SOL    HW219077   9.296   2.518   1.744  1.9481 -0.0524  1.1918
 2340SOL     OW19078   0.363   5.490   0.331 -0.2235 -0.2280 -0.2895
 2340SOL    HW119079   0.461   5.471   0.344 -0.6205 -0.6912  2.3712
 2340SOL    HW219080   0.351   5.584   0.299  1.0684  0.0278 -0.0626
 2341SOL     OW19081   9.464   4.515   4.612  0.4572 -0.3628 -0.1099
 2341SOL    HW119082   9.509   4.544   4.528 -2.0502  1.4674 -0.8753
 2341SOL    HW219083   9.368   4.493   4.594 -0.6167  1.7442  2.5129
 2342SOL     OW19084   8.319   5.877   0.493 -0.0908 -0.5561 -0.1993
 2342SOL    HW119085   8.338   5.956   0.552  0.9653 -1.2903  0.4634
 2342SOL    HW219086   8.222   5.855   0.497  0.1216 -1.2487  2.1599
 2343SOL     OW19087   4.413   3.816   0.312 -0.0477  0.3824 -0.1120
 2343SOL    HW119088   4.358   3.742   0.272 -1.5870  0.9467  0.9323
 2343SOL    HW219089   4.416   3.806   0.411  0.2344  1.3938 -0.0103
 2344SOL     OW19090   7.783   6.630   7.952  0.0791  0.0674 -0.0123
 2344SOL    HW119091   7.741   6.541   7.967 -0.3359  0.5092  1.5235
 2344SOL    HW219092   7.825   6.662   8.037  0.7472  1.0764 -0.7025
 2345SOL     OW19093   3.375   3.175   6.250 -0.3205 -0.3309  0.1548
 2345SOL    HW119094   3.307   3.133   6.310  0.5087  0.8404  1.9741
 2345SOL    HW219095   3.358   3.274   6.245  0.3912 -0.2343 -0.5061
 2346SOL     OW19096   9.479   0.906   4.427 -0.4847 -0.7365 -0.2197
 2346SOL    HW119097   9.398   0.857   4.459 -2.7231  0.7273 -3.3991
 2346SOL    HW219098   9.492   0.888   4.330  2.1748  0.2397 -0.0693
 2347SOL     OW19099   6.361   1.610   6.855  0.3571 -0.2141 -0.2460
 2347SOL    HW119100   6.325   1.700   6.827  1.1908 -0.0985 -0.9703
 2347SOL    HW219101   6.375   1.554   6.773  2.5401  0.0158 -0.0479
 2348SOL     OW19102   5.160   0.928   8.342 -0.0506  0.2352  0.3110
 2348SOL    HW119103   5.192   0.978   8.261  0.4448 -0.6757 -0.0685
 2348SOL    HW219104   5.062   0.942   8.354 -0.2621 -0.2104 -0.8647
 2349SOL     OW19105   1.779   5.777   1.487 -0.1327  0.4752 -0.6018
 2349SOL    HW119106   1.790   5.683   1.455  0.2294  0.6785 -1.0835
 2349SOL    HW219107   1.846   5.796   1.559  0.7195  0.7779 -1.4492
 2350SOL     OW19108   0.992   6.519   4.772 -0.8610 -0.2851  0.0440
 2350SOL    HW119109   0.933   6.487   4.698 -1.1662  0.8738 -0.2226
 2350SOL    HW219110   0.987   6.618   4.778 -0.2786 -0.3131  1.1563
 2351SOL     OW19111   6.219   8.972   6.972  0.3484  0.1814 -0.5965
 2351SOL    HW119112   6.150   8.925   7.027  2.0009 -0.4878  0.9433
 2351SOL    HW219113   6.184   9.062   6.945 -0.5286  0.5061  1.4973
 2352SOL     OW19114   4.526   9.737   4.512  0.0752  0.4222  0.0229
 2352SOL    HW119115   4.595   9.686   4.563 -0.3483 -1.3066 -1.0893
 2352SOL    HW219116   4.441   9.739   4.565  0.8289  2.2185  1.2187
 2353SOL     OW19117   2.400   5.042   3.316 -0.7591  1.0854 -0.1765
 2353SOL    HW119118   2.355   4.981   3.250 -1.7641 -0.3397  1.7620
 2353SOL    HW219119   2.353   5.130   3.317 -2.0329  0.4184  0.0911
 2354SOL     OW19120   8.327   0.347   9.252 -0.3250  0.0755 -0.2505
 2354SOL    HW119121   8.233   0.381   9.261 -0.5961 -1.0514  1.3591
 2354SOL    HW219122   8.329   0.273   9.184 -0.2850  1.1967 -1.4951
 2355SOL     OW19123   1.571   4.357   7.698 -0.8510  0.1250  0.4283
 2355SOL    HW119124   1.501   4.314   7.641 -1.6859  0.0175  1.5148
 2355SOL    HW219125   1.618   4.428   7.645 -1.3927 -0.1889 -0.4893
 2356SOL     OW19126   2.328   8.761   2.150  0.3710  0.1272  0.1523
 2356SOL    HW119127   2.319   8.845   2.203  0.5561  1.4657 -1.8638
 2356SOL    HW219128   2.250   8.701   2.170  0.7256  0.3480  2.3089
 2357SOL     OW19129   4.342   0.067   6.568  0.1786  0.4798 -0.6378
 2357SOL    HW119130   4.336   0.131   6.491 -1.7043  0.3350 -0.6510
 2357SOL    HW219131   4.323   0.116   6.653 -0.6864  0.0668 -0.5877
 2358SOL     OW19132   1.380   6.201   6.721 -0.0051 -0.8170  0.6445
 2358SOL    HW119133   1.342   6.234   6.808 -1.2990  1.5366 -0.7469
 2358SOL    HW219134   1.426   6.277   6.674 -1.8699 -1.3084 -2.0661
 2359SOL     OW19135   1.231   9.273   8.569 -0.1757 -0.1597 -0.8274
 2359SOL    HW119136   1.200   9.184   8.603  1.8966 -0.5019  0.2995
 2359SOL    HW219137   1.305   9.259   8.503  0.7499  0.7371  0.0147
 2360SOL     OW19138   0.639   8.828   2.603 -0.6892  0.3546  0.3237
 2360SOL    HW119139   0.645   8.770   2.685  0.1154 -1.3972 -0.9503
 2360SOL    HW219140   0.670   8.920   2.626 -1.4743  0.1684  2.2519
 2361SOL     OW19141   1.070   6.224   5.909 -0.0093  0.1832 -0.2269
 2361SOL    HW119142   1.105   6.204   5.818 -2.5418 -0.5722 -1.0749
 2361SOL    HW219143   0.996   6.291   5.902  0.1807  0.5755  1.3438
 2362SOL     OW19144   9.498   3.407   2.930  0.6338 -0.1454 -0.3703
 2362SOL    HW119145   9.588   3.431   2.967 -0.0832  0.0321  1.3029
 2362SOL    HW219146   9.454   3.489   2.894 -0.1406  0.3558  1.6664
 2363SOL     OW19147   7.528   1.090   0.875 -0.1803 -0.0977  0.2793
 2363SOL    HW119148   7.516   1.152   0.953 -2.3070  0.2028 -0.2531
 2363SOL    HW219149   7.457   1.020   0.877  1.4455 -1.7892  0.1530
 2364SOL     OW19150   0.872   7.756   9.863 -0.0445  0.3209 -0.1624
 2364SOL    HW119151   0.878   7.815   9.944 -1.7755  1.1240 -0.6087
 2364SOL    HW219152   0.963   7.747   9.823  0.7376  0.3616  1.5445
 2365SOL     OW19153   2.941   6.296   9.509  0.0838  0.2548 -0.5881
 2365SOL    HW119154   2.984   6.340   9.587 -0.3631 -0.4293  0.0552
 2365SOL    HW219155   3.008   6.242   9.459  0.0152 -0.6870  0.3233
 2366SOL     OW19156   9.254   8.121   9.419 -0.0178 -0.3632  0.1038
 2366SOL    HW119157   9.200   8.168   9.350 -0.3705 -2.8967 -1.4054
 2366SOL    HW219158   9.351   8.142   9.406 -0.1663 -0.0925 -0.5833
 2367SOL     OW19159   0.592   7.785   7.669 -0.2738  0.0812 -0.6862
 2367SOL    HW119160   0.618   7.690   7.651  0.4471  0.3214 -0.9055
 2367SOL    HW219161   0.533   7.817   7.595 -0.4710 -0.1752 -0.6426
 2368SOL     OW19162   1.599   5.209   4.246  0.2854 -0.7305 -0.6238
 2368SOL    HW119163   1.536   5.189   4.320 -0.3630 -2.8671 -1.6993
 2368SOL    HW219164   1.641   5.124   4.214  0.6827  0.1619 -2.5675
 2369SOL     OW19165   5.815   8.705   5.542 -0.0670  0.4553 -0.6990
 2369SOL    HW119166   5.846   8.630   5.483  2.3250 -0.5030  1.6153
 2369SOL    HW219167   5.741   8.673   5.600  0.1729  0.2117 -0.5234
 2370SOL     OW19168   5.007   8.480   2.367 -0.6692 -0.0843 -0.0345
 2370SOL    HW119169   4.936   8.416   2.396 -2.0550  1.1121 -0.7023
 2370SOL    HW219170   5.046   8.525   2.447 -1.9420  0.5550  0.2485
 2371SOL     OW19171   0.464   1.490   0.340  0.6311 -0.0321  0.4541
 2371SOL    HW119172   0.397   1.552   0.382 -0.8643  0.1666 -2.1321
 2371SOL    HW219173   0.556   1.519   0.365 -0.1219  1.7811  1.2406
 2372SOL     OW19174   9.888   3.406   4.783  0.6830 -0.2903 -0.0987
 2372SOL    HW119175   9.871   3.412   4.685 -1.1115  1.1750  0.2765
 2372SOL    HW219176   9.802   3.386   4.831  1.3981 -0.2597  1.2304
 2373SOL     OW19177   6.384   9.076   4.405  0.5643 -0.7963 -0.3055
 2373SOL    HW119178   6.290   9.042   4.402  0.3265 -0.2129  0.3408
 2373SOL    HW219179   6.433   9.048   4.322 -1.1322  1.6143 -2.1840
 2374SOL     OW19180   5.274   0.028   4.813  0.3289  0.2333  0.6813
 2374SOL    HW119181   5.269  -0.055   4.757 -0.7669  0.1558  0.8799
 2374SOL    HW219182   5.249   0.107   4.757  0.7635  0.3501  0.6543
 2375SOL     OW19183   9.541   8.171   1.180 -0.0620 -0.0985 -0.2861
 2375SOL    HW119184   9.587   8.248   1.135 -1.2062  0.1487 -1.0506
 2375SOL    HW219185   9.442   8.182   1.171 -0.2546 -1.1041  0.5495
 2376SOL     OW19186   0.894   0.787   7.406 -0.1816  0.1718  0.4122
 2376SOL    HW119187   0.938   0.698   7.417 -0.1765  0.1090 -0.1335
 2376SOL    HW219188   0.809   0.789   7.459 -0.4793 -0.3608 -0.0381
 2377SOL     OW19189   0.461   5.551   5.928  0.4349 -0.0278 -0.2558
 2377SOL    HW119190   0.371   5.554   5.885  0.4502 -1.3712 -0.3923
 2377SOL    HW219191   0.522   5.615   5.882 -0.1119  0.0042 -0.9486
 2378SOL     OW19192   4.970   5.520   7.454  0.1448 -0.0245  0.5450
 2378SOL    HW119193   4.996   5.423   7.459 -0.3155 -0.0807  2.4182
 2378SOL    HW219194   5.052   5.576   7.441  0.6973 -0.5132  1.8410
 2379SOL     OW19195   3.063   5.745   8.736  0.1864 -0.8710  0.0168
 2379SOL    HW119196   3.137   5.719   8.797  0.1536  1.2303  1.0305
 2379SOL    HW219197   3.094   5.817   8.673 -0.0718 -2.2961 -1.7792
 2380SOL     OW19198   3.437   2.806   3.596  0.3220 -0.4431  0.4971
 2380SOL    HW119199   3.437   2.766   3.688  1.3313  0.1512  0.7536
 2380SOL    HW219200   3.457   2.903   3.602 -0.8109 -0.1491 -0.2573
 2381SOL     OW19201   1.600   9.728   2.222  0.0385  0.1635  0.5972
 2381SOL    HW119202   1.612   9.827   2.223  2.3856 -0.0959  2.2552
 2381SOL    HW219203   1.536   9.702   2.294 -1.5761  0.5618 -0.6703
 2382SOL     OW19204   9.600   0.481   0.777 -0.6593  0.3891  0.4590
 2382SOL    HW119205   9.566   0.441   0.692  1.1533  0.9059 -0.5523
 2382SOL    HW219206   9.625   0.577   0.761 -0.6863  0.6093  1.6835
 2383SOL     OW19207   0.144   5.292   9.736 -0.1452 -0.4201  0.4345
 2383SOL    HW119208   0.209   5.367   9.745 -1.1313  0.5069 -0.1605
 2383SOL    HW219209   0.182   5.210   9.778  1.0902  0.3148  0.7587
 2384SOL     OW19210   3.082   1.229   0.924 -0.1064 -0.1164 -0.9629
 2384SOL    HW119211   2.991   1.200   0.953 -0.3208 -0.9993 -2.4797
 2384SOL    HW219212   3.080   1.326   0.899  0.1236  0.7244  2.0426
 2385SOL     OW19213   6.005   5.115   1.024  0.2646  0.1026 -0.2796
 2385SOL    HW119214   6.010   5.164   1.110 -2.3161  0.7039 -0.4473
 2385SOL    HW219215   5.994   5.179   0.948  0.3238 -0.5420 -0.8494
 2386SOL     OW19216   0.003   5.569   5.792  0.0054 -0.0638  0.3167
 2386SOL    HW119217   0.095   5.531   5.803 -0.9228 -3.3669 -2.5888
 2386SOL    HW219218  -0.050   5.550   5.875  0.8670 -1.3788  0.5886
 2387SOL     OW19219   5.821   1.032   3.765  0.6010  0.3900 -0.5455
 2387SOL    HW119220   5.729   1.056   3.734  0.4412  1.1134  0.4670
 2387SOL    HW219221   5.888   1.094   3.724  0.2757  2.0667  1.3990
 2388SOL     OW19222   8.839   6.878   4.358  0.3332  0.1897  0.2585
 2388SOL    HW119223   8.805   6.915   4.444 -0.3044 -2.0947  1.0272
 2388SOL    HW219224   8.764   6.876   4.291  0.2209 -0.2312  0.3956
 2389SOL     OW19225   9.792   0.778   5.244 -0.9092 -0.1573 -0.6563
 2389SOL    HW119226   9.856   0.848   5.211  0.3178 -1.5710 -1.3662
 2389SOL    HW219227   9.745   0.811   5.325 -2.1014  2.4083 -2.3099
 2390SOL     OW19228   4.049   0.451   1.860  0.1355 -0.1372  0.6345
 2390SOL    HW119229   4.033   0.459   1.762 -0.5668 -1.9353  0.5944
 2390SOL    HW219230   3.969   0.412   1.905  0.7500 -0.0920  1.8068
 2391SOL     OW19231   9.841   7.582   4.881 -0.3880  0.6228 -0.1442
 2391SOL    HW119232   9.752   7.538   4.881  0.1113 -0.3942 -1.5366
 2391SOL    HW219233   9.906   7.525   4.931 -0.6918  1.7662  1.6111
 2392SOL     OW19234   3.238   3.558   2.865  0.2869 -0.1326 -0.2289
 2392SOL    HW119235   3.211   3.655   2.863  1.8557  0.3648  1.3665
 2392SOL    HW219236   3.198   3.514   2.945  0.6828 -0.4582 -0.2080
 2393SOL     OW19237   1.130   2.927   2.032  0.0047 -0.0062  0.0682
 2393SOL    HW119238   1.077   2.905   1.951  1.4429 -2.4548 -0.2760
 2393SOL    HW219239   1.078   2.900   2.114 -1.4676  2.5176  0.0168
 2394SOL     OW19240   7.679   8.072   2.565  0.2254  0.1041 -0.1029
 2394SOL    HW119241   7.728   8.146   2.611  1.8952 -0.4106 -0.9875
 2394SOL    HW219242   7.613   8.110   2.500 -0.3949  0.8077  0.9290
 2395SOL     OW19243   0.032   1.685   8.365  0.1279 -0.4585 -0.1485
 2395SOL    HW119244   0.076   1.748   8.430 -1.3910 -1.3409  1.7866
 2395SOL    HW219245   0.061   1.591   8.385 -0.2139 -0.7208 -0.8800
 2396SOL     OW19246   9.888   9.834   4.723 -0.5463  0.0582  0.0282
 2396SOL    HW119247   9.915   9.930   4.718  0.7126 -0.3678 -2.1936
 2396SOL    HW219248   9.817   9.816   4.655  1.3798 -1.2208 -1.7004
 2397SOL     OW19249   8.259   6.172   2.960 -0.0962  0.3101  0.6965
 2397SOL    HW119250   8.287   6.267   2.947  1.2800 -0.4039 -1.9207
 2397SOL    HW219251   8.267   6.148   3.057  3.0907  1.8019  0.8639
 2398SOL     OW19252   4.416   4.821   0.702 -0.2212 -0.1886  0.3821
 2398SOL    HW119253   4.399   4.735   0.653  0.7896 -0.7447  0.9923
 2398SOL    HW219254   4.513   4.847   0.691 -0.9155  1.8696 -1.3812
 2399SOL     OW19255   9.015   2.312   4.728 -0.3866  0.2551  0.4823
 2399SOL    HW119256   8.918   2.335   4.740 -0.5731 -0.3378  0.0934
 2399SOL    HW219257   9.070   2.384   4.770 -0.9529  1.8188 -1.3662
 2400SOL     OW19258   5.852   7.772   5.250  0.0922  0.0715 -0.2270
 2400SOL    HW119259   5.846   7.674   5.270  0.6642  0.5902  2.7678
 2400SOL    HW219260   5.777   7.820   5.296  2.3901  1.5360  2.1174
 2401SOL     OW19261   9.970   5.103   3.838 -0.1694  0.1265 -0.3800
 2401SOL    HW119262   9.941   5.196   3.818  2.2954  0.3531 -3.3404
 2401SOL    HW219263   9.895   5.039   3.819 -0.9119  1.2606 -1.2754
 2402SOL     OW19264   7.282   5.848   1.077  0.2389 -0.0425  0.1074
 2402SOL    HW119265   7.241   5.770   1.124  0.5590 -0.5564 -0.4639
 2402SOL    HW219266   7.264   5.841   0.979 -0.8336  1.2642  0.1893
 2403SOL     OW19267   0.545   6.873   8.338 -0.6368 -0.1322  0.5293
 2403SOL    HW119268   0.565   6.862   8.436 -1.5638 -2.6687  0.4834
 2403SOL    HW219269   0.621   6.920   8.294 -0.6266  1.9307  2.6256
 2404SOL     OW19270   8.688   2.809   6.297  0.3349 -0.0285 -0.1031
 2404SOL    HW119271   8.729   2.890   6.256  0.4665  0.1014  0.2789
 2404SOL    HW219272   8.628   2.838   6.372 -0.1769 -0.2372 -0.4289
 2405SOL     OW19273   7.754   1.547   9.792 -0.0000  0.3737  0.3208
 2405SOL    HW119274   7.800   1.548   9.703  0.1233 -0.7435  0.3672
 2405SOL    HW219275   7.738   1.452   9.820 -4.5835  0.6690 -0.8635
 2406SOL     OW19276   3.458   4.843   8.211  0.4455  0.0427  0.2902
 2406SOL    HW119277   3.458   4.899   8.128 -0.2955 -1.9089 -1.0746
 2406SOL    HW219278   3.367   4.804   8.225  1.2471 -1.7707  0.5487
 2407SOL     OW19279   8.063   3.519   9.796 -0.5231  0.4877  0.0672
 2407SOL    HW119280   8.102   3.537   9.706 -1.4477  1.7473 -0.0916
 2407SOL    HW219281   8.071   3.422   9.817  0.2534  0.2906 -1.1015
 2408SOL     OW19282   0.630   6.946   4.951 -0.6792 -0.0493 -0.6077
 2408SOL    HW119283   0.706   6.885   4.929 -0.5624 -0.0555 -0.1786
 2408SOL    HW219284   0.645   6.988   5.040 -0.2318  1.4400 -1.3755
 2409SOL     OW19285   3.859   4.177   6.658 -0.9439 -0.1203  0.1324
 2409SOL    HW119286   3.852   4.110   6.585  1.3606  0.2828 -0.5095
 2409SOL    HW219287   3.907   4.258   6.625  2.2180 -0.8275  2.5931
 2410SOL     OW19288   4.117   0.424   5.890  0.0396  0.8441  0.0059
 2410SOL    HW119289   4.196   0.428   5.950 -0.4216 -0.4367  0.7369
 2410SOL    HW219290   4.038   0.465   5.936 -0.3435 -0.2474  0.3610
 2411SOL     OW19291   2.393   3.305   3.754 -0.3285 -0.2999  0.3224
 2411SOL    HW119292   2.425   3.375   3.818  0.9231 -0.1880 -0.4021
 2411SOL    HW219293   2.304   3.332   3.716  1.4269  2.3919 -2.1302
 2412SOL     OW19294   9.689   3.802   3.503  0.0468  0.0986 -0.2795
 2412SOL    HW119295   9.754   3.811   3.427 -0.1290  0.3480 -0.4030
 2412SOL    HW219296   9.605   3.850   3.480 -1.0417 -2.1115 -1.0670
 2413SOL     OW19297   6.842   1.400   1.383 -0.5999  0.3175  0.3900
 2413SOL    HW119298   6.752   1.397   1.425 -0.6355  3.1533  0.5669
 2413SOL    HW219299   6.907   1.350   1.440 -2.0894 -2.1165  0.0507
 2414SOL     OW19300   7.269   7.257   2.851  0.3451  0.4331 -0.2269
 2414SOL    HW119301   7.222   7.318   2.787  1.0103  2.4401  1.1488
 2414SOL    HW219302   7.211   7.241   2.931 -0.9569 -2.9751 -1.7334
 2415SOL     OW19303   9.128   4.023   9.110 -0.2603 -0.2383  0.0419
 2415SOL    HW119304   9.097   3.930   9.133 -2.4393  0.2630 -0.8409
 2415SOL    HW219305   9.067   4.090   9.151  0.9776  0.8271  0.1927
 2416SOL     OW19306   0.283   1.962   4.762  0.3903  0.0321  0.5099
 2416SOL    HW119307   0.319   1.893   4.698  0.0578 -1.0078  1.4374
 2416SOL    HW219308   0.265   1.919   4.850  0.5801  1.4110  1.2227
 2417SOL     OW19309   1.877   1.224   9.955  0.0531 -0.0481  0.0133
 2417SOL    HW119310   1.968   1.262   9.936 -0.5825  1.2184 -0.5134
 2417SOL    HW219311   1.876   1.185  10.047  1.1082 -0.0062  0.0491
 2418SOL     OW19312   5.973   5.897   8.127  0.2865 -0.1693 -0.2945
 2418SOL    HW119313   6.015   5.831   8.188 -0.4546  0.0054  0.4089
 2418SOL    HW219314   5.951   5.853   8.039  0.8868 -0.5426 -0.2544
 2419SOL     OW19315   4.190   2.019   6.735  0.0763 -0.8077 -0.5217
 2419SOL    HW119316   4.226   2.101   6.691  0.3708 -1.1857 -0.9835
 2419SOL    HW219317   4.242   1.999   6.818 -2.1561  1.4439  1.5085
 2420SOL     OW19318   5.796   0.774   5.793  0.1228 -0.6538  0.5172
 2420SOL    HW119319   5.847   0.743   5.712  0.0433  1.5369 -0.4050
 2420SOL    HW219320   5.698   0.765   5.775  0.0967  0.2289  0.1948
 2421SOL     OW19321   3.414   3.095   0.929 -0.0132  0.1396 -0.2071
 2421SOL    HW119322   3.402   3.025   0.858  1.3789 -0.9737  0.6134
 2421SOL    HW219323   3.457   3.053   1.009 -0.7194  1.5868  0.9453
 2422SOL     OW19324   2.345   8.063   0.578  0.2372 -0.7285 -0.2524
 2422SOL    HW119325   2.320   8.116   0.497  0.8766  0.3076  0.2197
 2422SOL    HW219326   2.425   8.104   0.621 -0.7576 -0.6338  1.5339
 2423SOL     OW19327   3.241   7.439   8.973 -0.6973 -0.2220 -0.4407
 2423SOL    HW119328   3.168   7.481   9.026  0.5817 -1.3194  2.2538
 2423SOL    HW219329   3.317   7.504   8.963  0.3588 -1.0727  1.8158
 2424SOL     OW19330   0.539   3.007   6.781  0.0206 -0.0973 -0.3252
 2424SOL    HW119331   0.635   3.022   6.756 -0.1214 -0.4627 -1.1085
 2424SOL    HW219332   0.486   3.088   6.757  0.0477 -0.0841 -0.3416
 2425SOL     OW19333   3.162   4.926   6.489 -0.1923 -0.5828  0.0226
 2425SOL    HW119334   3.150   5.006   6.430  1.3946 -0.7480 -0.5572
 2425SOL    HW219335   3.204   4.852   6.437  2.4624 -0.2893  1.6190
 2426SOL     OW19336   2.949   5.311   7.728  0.0712  0.2698 -0.0461
 2426SOL    HW119337   2.896   5.348   7.804 -0.6684  1.3140 -1.0667
 2426SOL    HW219338   3.019   5.377   7.700 -1.8252  1.3305 -2.4438
 2427SOL     OW19339   7.048   5.378   1.899  0.5338 -0.3781 -0.1729
 2427SOL    HW119340   7.109   5.380   1.819 -0.1411 -0.7197 -0.6983
 2427SOL    HW219341   7.092   5.329   1.974  1.4234  0.4720 -0.1305
 2428SOL     OW19342   4.238   9.166   5.976  0.1545 -0.4577 -0.3300
 2428SOL    HW119343   4.225   9.140   5.880 -2.0591 -1.5152  0.2390
 2428SOL    HW219344   4.336   9.164   5.997  0.6389 -0.6802 -2.4257
 2429SOL     OW19345   9.496   8.589   0.149 -0.5404 -0.4706  0.4137
 2429SOL    HW119346   9.510   8.496   0.185  1.5286 -0.0569  0.7847
 2429SOL    HW219347   9.427   8.636   0.203 -1.4683 -1.7355  0.3423
 2430SOL     OW19348   1.909   5.698   6.264  0.5411  0.2019 -0.7139
 2430SOL    HW119349   1.873   5.618   6.216  0.6438  0.3860 -1.0936
 2430SOL    HW219350   1.848   5.775   6.251 -0.1736 -0.1198  0.6257
 2431SOL     OW19351   3.431   7.398   6.138 -0.0866  0.0256  0.2582
 2431SOL    HW119352   3.385   7.449   6.211 -2.5898  0.3832 -1.4765
 2431SOL    HW219353   3.431   7.300   6.160  0.1667  0.2434  1.2370
 2432SOL     OW19354   0.831   4.201   0.935  0.3898 -0.2612  0.2111
 2432SOL    HW119355   0.778   4.118   0.914  1.4315 -0.8215 -0.2292
 2432SOL    HW219356   0.867   4.193   1.028 -0.8806  0.4356  0.7698
 2433SOL     OW19357   6.516   4.013   2.436 -0.4384  0.0175  0.2866
 2433SOL    HW119358   6.498   3.915   2.447  0.8739 -0.2101  0.5340
 2433SOL    HW219359   6.495   4.041   2.343  0.3908 -0.7852 -0.1507
 2434SOL     OW19360   9.064   6.903   0.665  0.4181 -0.3167 -0.1730
 2434SOL    HW119361   9.159   6.873   0.674  0.7590  1.0601  0.8002
 2434SOL    HW219362   9.059   7.003   0.665 -1.1786 -0.3581  1.4176
 2435SOL     OW19363   4.363   9.795   4.724 -0.3973 -0.2355 -0.0763
 2435SOL    HW119364   4.301   9.865   4.757 -1.3530 -1.4226  0.7009
 2435SOL    HW219365   4.325   9.704   4.743  0.7145 -0.9735 -1.2367
 2436SOL     OW19366   7.166   0.983   8.699  0.0605 -0.9696 -0.4765
 2436SOL    HW119367   7.158   0.966   8.797 -3.5570  0.8661 -0.3505
 2436SOL    HW219368   7.151   0.898   8.649  0.9291 -1.7253  0.5229
 2437SOL     OW19369   3.533   4.719   9.315  0.0458  0.8618 -0.0920
 2437SOL    HW119370   3.581   4.798   9.277  0.8453  1.1085  1.4026
 2437SOL    HW219371   3.588   4.678   9.387 -0.4253 -0.9966 -0.7703
 2438SOL     OW19372   2.996   8.013   9.554  0.3951 -0.0994  0.0879
 2438SOL    HW119373   2.925   8.074   9.518  1.0435 -0.5441 -2.0148
 2438SOL    HW219374   2.961   7.966   9.635 -1.6859 -0.2284 -0.8421
 2439SOL     OW19375   2.764   6.211   2.407  0.4840  0.3858  0.1847
 2439SOL    HW119376   2.696   6.232   2.477 -0.2392 -2.6661  0.5004
 2439SOL    HW219377   2.725   6.145   2.342  3.0569 -1.3213  0.2997
 2440SOL     OW19378   0.628   4.679   8.454  0.1676  0.3158 -0.0135
 2440SOL    HW119379   0.569   4.651   8.530 -0.3212  2.0141  0.2553
 2440SOL    HW219380   0.714   4.629   8.459 -0.2841 -0.3764  1.0435
 2441SOL     OW19381   5.676   5.253   1.778 -0.2854 -0.2691 -0.5122
 2441SOL    HW119382   5.621   5.172   1.798  1.2256 -1.2459 -0.2330
 2441SOL    HW219383   5.769   5.225   1.754  0.0983  1.3563 -0.9819
 2442SOL     OW19384   8.705   8.725   6.040 -0.9544 -0.3154 -0.0199
 2442SOL    HW119385   8.771   8.704   5.968  0.0589  0.2944  0.7175
 2442SOL    HW219386   8.688   8.644   6.095 -1.0686 -0.5552 -0.4091
 2443SOL     OW19387   2.935   9.640   6.690 -0.1452 -0.2069  0.5493
 2443SOL    HW119388   2.992   9.630   6.608  1.2442 -1.3837  1.6464
 2443SOL    HW219389   2.840   9.616   6.668 -0.0559  0.8064 -1.0401
 2444SOL     OW19390   2.645   7.840   3.106 -0.2425 -0.3622 -0.6486
 2444SOL    HW119391   2.590   7.800   3.033  0.7863 -2.4976 -0.3013
 2444SOL    HW219392   2.678   7.767   3.166  0.3638  1.1942  0.9561
 2445SOL     OW19393   0.076   7.580   3.942 -0.3651 -0.1676 -0.3987
 2445SOL    HW119394   0.064   7.603   4.038 -1.7965 -2.2681 -0.0461
 2445SOL    HW219395   0.159   7.625   3.907 -1.1836  2.6480  1.0994
 2446SOL     OW19396   8.887   4.137   2.184 -1.0289 -0.6727 -0.3464
 2446SOL    HW119397   8.797   4.095   2.192 -1.5025  0.2274 -0.8271
 2446SOL    HW219398   8.891   4.220   2.240 -0.6725 -0.4263 -0.7261
 2447SOL     OW19399   2.822   7.782   4.716 -0.6964 -0.5250  0.3826
 2447SOL    HW119400   2.863   7.873   4.709 -0.1347 -0.6639  1.6369
 2447SOL    HW219401   2.778   7.758   4.630 -1.7169  1.3484  0.3502
 2448SOL     OW19402   5.576   7.229   5.807  0.2228  0.0820  0.1542
 2448SOL    HW119403   5.550   7.174   5.887  1.1948 -2.6992 -1.3717
 2448SOL    HW219404   5.675   7.241   5.806  0.1322  0.8205 -0.2193
 2449SOL     OW19405   0.409   3.153   8.626  0.3516  0.2709  0.4013
 2449SOL    HW119406   0.347   3.151   8.548  0.7603  2.2194 -0.0119
 2449SOL    HW219407   0.405   3.243   8.670  3.6122  0.8233 -0.2775
 2450SOL     OW19408   2.163   8.200   5.570 -0.2137 -0.1127  0.4657
 2450SOL    HW119409   2.121   8.147   5.496 -2.1907  1.2705  0.5515
 2450SOL    HW219410   2.211   8.279   5.532 -0.1784 -0.0864  0.5658
 2451SOL     OW19411   8.378   4.915   5.355  0.8356  0.3078 -0.2884
 2451SOL    HW119412   8.382   4.911   5.455  1.6256  0.7116 -0.3030
 2451SOL    HW219413   8.469   4.900   5.317  0.2850 -1.2810 -1.0032
 2452SOL     OW19414   2.288   7.345   7.635 -0.0449  0.1718  0.0522
 2452SOL    HW119415   2.312   7.291   7.715  0.8012  0.2127 -0.1694
 2452SOL    HW219416   2.271   7.285   7.557 -1.6933  0.0831  0.4630
 2453SOL     OW19417   8.634   6.828   9.611 -1.0747 -0.1983 -0.3959
 2453SOL    HW119418   8.652   6.729   9.614 -0.6271 -0.1754 -1.7561
 2453SOL    HW219419   8.548   6.848   9.658 -0.2659 -1.0109  1.4384
 2454SOL     OW19420   7.426   5.603   3.693  0.1325 -1.0872  0.5465
 2454SOL    HW119421   7.392   5.674   3.631  2.4457 -0.8051 -0.4345
 2454SOL    HW219422   7.412   5.633   3.788 -0.6214 -0.1580  0.1545
 2455SOL     OW19423   5.554   6.029   9.921 -0.7188  0.1129 -0.8939
 2455SOL    HW119424   5.579   6.092   9.848  1.4352  1.4255  0.9411
 2455SOL    HW219425   5.587   5.937   9.898 -0.7782  0.3497 -1.9464
 2456SOL     OW19426   1.603   2.974   7.373 -0.2832  0.1032 -0.2476
 2456SOL    HW119427   1.672   2.971   7.301 -0.3304 -2.2130 -0.2562
 2456SOL    HW219428   1.566   2.882   7.387 -1.4732  0.8243  1.5753
 2457SOL     OW19429   3.295   2.647  10.024  0.1547 -0.1348 -0.3596
 2457SOL    HW119430   3.260   2.613   9.937 -1.1789 -0.4615  0.3025
 2457SOL    HW219431   3.294   2.747  10.023  0.8719 -0.1248 -1.0054
 2458SOL     OW19432   3.902   7.938   7.274 -0.4465  0.4142 -0.5374
 2458SOL    HW119433   3.955   7.984   7.346 -0.3877 -3.7294  2.2257
 2458SOL    HW219434   3.965   7.900   7.206 -0.1208 -0.5433  0.2863
 2459SOL     OW19435   4.477   1.687   7.742  0.1526 -0.2613  0.2247
 2459SOL    HW119436   4.528   1.632   7.808 -0.3591 -0.5891  0.3486
 2459SOL    HW219437   4.410   1.744   7.790  0.4839  0.2538  0.0723
 2460SOL     OW19438   7.851   3.238   7.671  0.0622 -0.3289 -0.5404
 2460SOL    HW119439   7.913   3.248   7.749  0.9397  1.8174 -1.4646
 2460SOL    HW219440   7.904   3.211   7.590 -0.3538  0.4663 -1.0838
 2461SOL     OW19441   8.874   6.931   6.705  0.6069  0.0536 -0.0601
 2461SOL    HW119442   8.952   6.988   6.678 -0.4236  0.9013 -1.3647
 2461SOL    HW219443   8.904   6.836   6.715  2.1051  0.6121  0.9424
 2462SOL     OW19444   2.388   9.995   4.485 -0.7104 -0.2045  0.1725
 2462SOL    HW119445   2.301  10.002   4.535 -0.2728 -1.6640  1.1583
 2462SOL    HW219446   2.429  10.086   4.477 -2.7485  0.6342 -1.0645
 2463SOL     OW19447   5.623   8.123   6.884  0.1017  0.4571  0.7204
 2463SOL    HW119448   5.671   8.198   6.931 -1.2109  1.6573  0.1803
 2463SOL    HW219449   5.565   8.074   6.949  1.3035 -0.3890  1.1693
 2464SOL     OW19450   1.523   4.019   2.557  0.8962  0.9713 -0.3220
 2464SOL    HW119451   1.456   4.093   2.558  0.5087  0.6143  1.7203
 2464SOL    HW219452   1.590   4.033   2.630  1.3368 -0.2336 -0.4798
 2465SOL     OW19453   2.724   6.640   4.276 -0.5602  0.1970  0.4431
 2465SOL    HW119454   2.628   6.658   4.295 -0.8596 -0.4145 -0.4680
 2465SOL    HW219455   2.745   6.545   4.297 -0.3011  0.1734  0.0812
 2466SOL     OW19456   6.700   2.488   2.972 -0.2540  0.2415  0.5463
 2466SOL    HW119457   6.794   2.460   2.951 -0.3472 -0.3826  0.9542
 2466SOL    HW219458   6.699   2.586   2.991  0.2843  0.2925  0.3360
 2467SOL     OW19459   1.318   4.688   0.829 -0.0243  0.2947  0.2054
 2467SOL    HW119460   1.408   4.658   0.862  0.5316  2.6702  0.9189
 2467SOL    HW219461   1.292   4.632   0.750  0.5961 -2.5668  1.9616
 2468SOL     OW19462   1.945   3.354   3.225  0.2638  0.1609 -0.6722
 2468SOL    HW119463   2.010   3.418   3.266 -0.1462  0.6028 -0.7172
 2468SOL    HW219464   1.955   3.354   3.126 -0.5303  1.0131 -0.7569
 2469SOL     OW19465   8.138   9.617   2.838  0.2876 -0.5215  0.1850
 2469SOL    HW119466   8.237   9.606   2.831  0.5207  0.4986  1.5033
 2469SOL    HW219467   8.107   9.685   2.772  0.8250  0.8521  1.3055
 2470SOL     OW19468   3.962   9.110   2.310  0.0891 -0.1609  0.7755
 2470SOL    HW119469   3.927   9.047   2.379 -0.0679 -3.8212 -2.4866
 2470SOL    HW219470   4.061   9.119   2.320  0.0941 -0.8696  1.3455
 2471SOL     OW19471   0.720   2.358   1.072 -0.2290  0.2238  0.2583
 2471SOL    HW119472   0.667   2.365   1.156 -1.4658  0.6360 -0.5338
 2471SOL    HW219473   0.676   2.292   1.011  1.4981 -1.2322  0.5291
 2472SOL     OW19474   7.707   6.382   3.238 -0.9689 -0.5051  0.2386
 2472SOL    HW119475   7.653   6.376   3.154  0.8033  0.9952 -1.0579
 2472SOL    HW219476   7.750   6.294   3.257 -0.7882 -0.6498 -0.8371
 2473SOL     OW19477   1.343   5.650   3.490 -0.8637  0.0530 -0.1446
 2473SOL    HW119478   1.354   5.658   3.391 -0.7953  0.0166 -0.1406
 2473SOL    HW219479   1.328   5.741   3.529  0.7700  0.2833 -0.0036
 2474SOL     OW19480   0.264   5.185   4.212 -0.3034  0.0007  0.1496
 2474SOL    HW119481   0.299   5.263   4.265 -0.5687 -0.0388  0.3838
 2474SOL    HW219482   0.165   5.194   4.200 -0.4126 -0.5650  0.6196
 2475SOL     OW19483   0.715   2.133   0.479 -0.8790 -0.5422 -0.3214
 2475SOL    HW119484   0.717   2.221   0.431 -0.8053 -0.2124  0.2791
 2475SOL    HW219485   0.666   2.066   0.423  1.4094 -0.8668 -2.0232
 2476SOL     OW19486   5.573   9.479   4.158  0.6595 -0.1405 -0.1097
 2476SOL    HW119487   5.496   9.417   4.176  0.6578 -0.0066  0.3377
 2476SOL    HW219488   5.540   9.559   4.108  0.4849 -0.0252  0.1886
 2477SOL     OW19489   0.510   1.031   9.099 -0.1945 -0.0692  0.4376
 2477SOL    HW119490   0.498   1.079   9.012 -0.6455 -0.6154  0.2023
 2477SOL    HW219491   0.605   1.044   9.131 -0.2472  0.7860  0.2667
 2478SOL     OW19492   4.213   3.254   4.945  0.7793  0.6989 -0.6307
 2478SOL    HW119493   4.221   3.179   5.011  0.6162  0.4962 -0.8434
 2478SOL    HW219494   4.292   3.255   4.885  0.3749  0.1856 -1.1673
 2479SOL     OW19495   9.112   3.795   0.453 -0.9776  0.2961  0.1685
 2479SOL    HW119496   9.040   3.746   0.501 -0.5441 -1.3945 -0.8277
 2479SOL    HW219497   9.159   3.856   0.516 -1.8825 -0.1958  1.3345
 2480SOL     OW19498   3.148   2.096   7.710  0.0180 -0.9127 -0.2604
 2480SOL    HW119499   3.095   2.056   7.635 -0.0743  0.6309 -1.0345
 2480SOL    HW219500   3.162   2.027   7.781  1.5935 -2.9174 -2.4335
 2481SOL     OW19501   5.229   4.776   0.056 -0.3282  0.3071  0.1342
 2481SOL    HW119502   5.252   4.680   0.043 -0.8837  0.3062 -0.9126
 2481SOL    HW219503   5.310   4.826   0.084  0.2275 -0.2585 -0.4555
 2482SOL     OW19504   4.248   4.038   6.450 -0.4929  0.2876  0.1652
 2482SOL    HW119505   4.271   3.986   6.368 -1.5034  0.5844 -0.3098
 2482SOL    HW219506   4.241   3.976   6.528  0.0160 -0.0554 -0.0617
 2483SOL     OW19507   7.226   1.889   3.547  0.4167  0.4687 -0.5404
 2483SOL    HW119508   7.268   1.801   3.527  1.0789  0.5443  0.4537
 2483SOL    HW219509   7.280   1.962   3.506  1.5442  0.5953  1.0815
 2484SOL     OW19510   2.058   1.054   0.494 -0.6295 -0.0299  0.3223
 2484SOL    HW119511   2.125   1.036   0.566 -1.7873  3.3719  2.3899
 2484SOL    HW219512   1.974   1.002   0.514 -1.2328  1.4931  1.9754
 2485SOL     OW19513   2.310   0.952   7.453 -0.4892 -0.3032 -0.0033
 2485SOL    HW119514   2.294   1.032   7.395  2.3024 -0.7447 -1.4992
 2485SOL    HW219515   2.263   0.872   7.415 -1.5463  0.1594  0.3213
 2486SOL     OW19516   7.749   0.753   7.361 -0.0028  0.4567 -0.2252
 2486SOL    HW119517   7.802   0.824   7.317 -0.9717  2.2219  1.3762
 2486SOL    HW219518   7.805   0.707   7.430 -0.2810  1.7402  0.8678
 2487SOL     OW19519   4.771   3.075   2.311 -0.0213 -0.2023  0.0542
 2487SOL    HW119520   4.739   2.998   2.255  0.0485 -0.8067  0.8191
 2487SOL    HW219521   4.870   3.071   2.319  0.1840  1.1995 -1.6419
 2488SOL     OW19522   3.602   9.267   6.979 -1.0556 -0.5087  0.1006
 2488SOL    HW119523   3.700   9.253   6.993 -0.9403  0.0585 -0.1174
 2488SOL    HW219524   3.551   9.211   7.044 -0.5945 -1.1658 -0.0930
 2489SOL     OW19525   7.325   0.966   1.840 -0.1096  0.0664 -0.0131
 2489SOL    HW119526   7.366   0.899   1.778  0.9984  0.0961  0.6674
 2489SOL    HW219527   7.227   0.970   1.824  0.1608  0.1342 -1.8206
 2490SOL     OW19528   4.493   4.669   9.176  0.3297 -0.1979 -0.6554
 2490SOL    HW119529   4.495   4.663   9.076 -1.6793  0.1135 -0.7302
 2490SOL    HW219530   4.429   4.602   9.212  2.0352 -1.2319  0.5310
 2491SOL     OW19531   9.693   3.114   0.189  0.7520  0.3848 -0.0553
 2491SOL    HW119532   9.646   3.104   0.276  1.9269 -1.2069  0.4078
 2491SOL    HW219533   9.675   3.205   0.152 -0.4548  0.7613  1.4233
 2492SOL     OW19534   6.289   2.412   4.798 -0.1021 -0.3293  0.3637
 2492SOL    HW119535   6.305   2.314   4.789  0.5088 -0.0987 -1.2388
 2492SOL    HW219536   6.203   2.428   4.847 -0.5646 -1.6522 -0.0083
 2493SOL     OW19537   1.952   1.621   5.630  0.0931 -1.1540 -0.0965
 2493SOL    HW119538   1.863   1.629   5.675 -0.7240  0.6031 -1.9906
 2493SOL    HW219539   1.965   1.526   5.600 -1.1422 -1.4249  0.1869
 2494SOL     OW19540   2.648   3.210   7.398  0.3021 -0.1013 -0.2884
 2494SOL    HW119541   2.569   3.182   7.453  0.7394  1.1426  1.0024
 2494SOL    HW219542   2.719   3.247   7.458  1.4990 -0.3377 -1.5307
 2495SOL     OW19543   4.214   2.745   4.836  0.1609  0.5382  0.0245
 2495SOL    HW119544   4.281   2.742   4.762  2.0097 -0.5408  1.7154
 2495SOL    HW219545   4.123   2.762   4.797  0.8127 -1.7223 -2.6732
 2496SOL     OW19546   3.638   5.736   0.525 -0.2682  0.1585 -0.0345
 2496SOL    HW119547   3.689   5.750   0.440 -0.4385  0.9851 -0.0071
 2496SOL    HW219548   3.547   5.777   0.517  0.1986  1.4301  1.0149
 2497SOL     OW19549   0.050   7.607   7.105 -0.1719 -0.6483  0.2127
 2497SOL    HW119550   0.082   7.534   7.165  0.9192  1.6800  2.6000
 2497SOL    HW219551   0.129   7.652   7.063 -0.7367  0.1417 -0.0213
 2498SOL     OW19552   1.457   7.692   7.541 -0.4081 -0.3878 -0.1470
 2498SOL    HW119553   1.491   7.598   7.541 -0.2973 -0.3492 -0.4556
 2498SOL    HW219554   1.435   7.720   7.634 -1.4128 -1.0701 -0.1807
 2499SOL     OW19555   8.023   8.088   0.315 -0.1169 -0.7175 -0.4935
 2499SOL    HW119556   7.992   8.019   0.381 -1.4856  0.3745  0.0295
 2499SOL    HW219557   7.970   8.080   0.231  0.6748 -1.2047 -0.9475
 2500SOL     OW19558   6.883   1.980   9.752 -0.3544  0.7560 -0.6908
 2500SOL    HW119559   6.890   1.896   9.804 -1.2521  0.3804 -1.1552
 2500SOL    HW219560   6.968   1.996   9.701  0.3502  0.8895  0.5134
 2501SOL     OW19561   7.078   0.327   9.689  0.1367 -0.9673 -0.2052
 2501SOL    HW119562   7.149   0.387   9.725 -0.7662 -0.9108  1.5219
 2501SOL    HW219563   7.102   0.232   9.707  0.1505 -0.9811 -0.2987
 2502SOL     OW19564   3.069   8.032   5.139  0.5532  0.1286  0.3707
 2502SOL    HW119565   3.029   8.001   5.225 -0.7097 -1.7505 -0.8538
 2502SOL    HW219566   2.997   8.048   5.072  1.5074  1.7949 -0.2816
 2503SOL     OW19567   9.810   5.752   1.823 -0.0506  0.0605  0.2606
 2503SOL    HW119568   9.757   5.687   1.878  0.7780 -1.0134 -0.1821
 2503SOL    HW219569   9.901   5.714   1.805  0.3145  1.1868 -0.3297
 2504SOL     OW19570   1.205   4.965   6.841 -0.2119  0.4752 -0.8526
 2504SOL    HW119571   1.186   5.013   6.756  2.4325  0.2138 -1.6566
 2504SOL    HW219572   1.137   4.893   6.856 -2.6958  2.7593 -0.9516
 2505SOL     OW19573   0.141   9.220   2.844  0.0635 -0.1711  0.2871
 2505SOL    HW119574   0.204   9.156   2.799  0.2776  0.0097  0.3241
 2505SOL    HW219575   0.049   9.183   2.843 -0.3238  0.8073 -2.2494
 2506SOL     OW19576   6.795   9.984   4.906  0.7487  0.1415 -0.1663
 2506SOL    HW119577   6.735  10.010   4.981  0.6309  0.4641 -0.3690
 2506SOL    HW219578   6.750   9.915   4.849  0.4078  0.6683 -0.5412
 2507SOL     OW19579   5.582   2.728   2.354 -0.3453  0.3729 -0.3420
 2507SOL    HW119580   5.645   2.801   2.330  1.5190 -1.5128 -1.3519
 2507SOL    HW219581   5.632   2.655   2.402 -2.3540  0.1722  1.5471
 2508SOL     OW19582   3.677   8.443   0.315  0.3277  0.3400 -0.1886
 2508SOL    HW119583   3.731   8.480   0.391  1.3023 -3.0268  0.8406
 2508SOL    HW219584   3.738   8.403   0.247 -0.7010  0.0044 -0.9325
 2509SOL     OW19585   9.107   4.830   5.108 -0.3603 -0.5492 -0.0120
 2509SOL    HW119586   9.091   4.891   5.031  0.5893  0.9281  0.9388
 2509SOL    HW219587   9.193   4.781   5.095 -0.2837 -0.4244  0.0380
 2510SOL     OW19588   2.148   9.417   7.491  0.2529 -0.2109  0.0881
 2510SOL    HW119589   2.174   9.486   7.560 -0.5679  0.4140 -0.2167
 2510SOL    HW219590   2.049   9.407   7.491  0.1268  0.8696 -2.0183
 2511SOL     OW19591   0.661   5.602   5.527 -0.5087  0.3374 -0.2176
 2511SOL    HW119592   0.684   5.640   5.617  1.2098 -0.2870 -0.3722
 2511SOL    HW219593   0.683   5.504   5.526  1.7296  0.8083 -2.0520
 2512SOL     OW19594   5.781   1.789   1.181 -0.3853 -0.1203  0.9951
 2512SOL    HW119595   5.687   1.806   1.151  0.2641  0.3336 -0.8729
 2512SOL    HW219596   5.825   1.875   1.204 -0.4114 -0.3342  1.8817
 2513SOL     OW19597   0.021   9.965   5.953  0.7284 -0.3311 -0.0523
 2513SOL    HW119598  -0.062   9.944   6.005  1.3192 -0.2346  0.9282
 2513SOL    HW219599   0.003   9.950   5.856 -0.7051  0.5044  0.0634
 2514SOL     OW19600   4.853   2.744   2.511  0.1123 -0.3006  0.3165
 2514SOL    HW119601   4.767   2.722   2.466  0.7520 -1.4090 -0.3800
 2514SOL    HW219602   4.920   2.772   2.442  0.7603 -0.9088  0.7043
 2515SOL     OW19603   9.048   8.745   6.898  0.1461 -0.0735 -0.2045
 2515SOL    HW119604   9.073   8.683   6.823  0.0370  0.7550 -0.9370
 2515SOL    HW219605   8.960   8.787   6.877  0.6282  0.9874 -0.1223
 2516SOL     OW19606   3.476   3.345   7.213  0.4173  0.3861 -0.4184
 2516SOL    HW119607   3.442   3.263   7.258 -1.0819  1.2312  0.0305
 2516SOL    HW219608   3.547   3.320   7.147 -0.5429 -1.3522 -0.8283
 2517SOL     OW19609   6.733   3.611   2.374 -0.1225 -0.3535 -0.1666
 2517SOL    HW119610   6.787   3.549   2.430 -0.5705 -0.4397  0.1701
 2517SOL    HW219611   6.787   3.693   2.354 -0.8882  0.8797  2.6273
 2518SOL     OW19612   8.175   1.838   7.313  0.0867 -0.4193  0.6626
 2518SOL    HW119613   8.171   1.752   7.262 -0.5606  1.1862 -2.0846
 2518SOL    HW219614   8.271   1.865   7.325  0.2507 -0.8671  0.3812
 2519SOL     OW19615   0.698   4.642   3.256 -0.2775  0.1923 -0.0687
 2519SOL    HW119616   0.689   4.550   3.217  0.2809  0.3742 -0.6354
 2519SOL    HW219617   0.735   4.704   3.187 -0.8871  0.9023  0.2419
 2520SOL     OW19618   9.488   3.844   9.050 -0.4030 -0.4001  0.7014
 2520SOL    HW119619   9.574   3.833   9.001 -0.1275  4.4716 -0.2262
 2520SOL    HW219620   9.412   3.819   8.990  0.1608  1.0323 -0.6689
 2521SOL     OW19621   8.492   0.549   1.005  0.4079 -0.0599  0.0863
 2521SOL    HW119622   8.459   0.643   0.995 -0.4667  0.0141  3.1144
 2521SOL    HW219623   8.420   0.493   1.046  0.9426 -2.0571 -1.6265
 2522SOL     OW19624   3.747   1.366   0.500  0.5233 -0.5272 -0.0359
 2522SOL    HW119625   3.649   1.349   0.513 -0.2377  0.6593 -3.6148
 2522SOL    HW219626   3.800   1.300   0.553 -2.2295 -2.6167  0.2220
 2523SOL     OW19627   6.455   5.640   0.236 -0.3613 -0.2730  0.1067
 2523SOL    HW119628   6.517   5.569   0.271 -1.4253 -2.4033 -2.1525
 2523SOL    HW219629   6.367   5.599   0.212 -0.7678  1.6778 -1.9135
 2524SOL     OW19630   0.682   4.540   0.595  0.3085  0.1344 -0.7162
 2524SOL    HW119631   0.706   4.457   0.644  0.2195 -0.0029 -0.9061
 2524SOL    HW219632   0.764   4.578   0.553  0.5024  0.5996  0.0658
 2525SOL     OW19633   9.665   6.973   9.245  0.5118  0.0629 -0.3431
 2525SOL    HW119634   9.568   6.996   9.256  0.8773  0.9409  1.2384
 2525SOL    HW219635   9.690   6.980   9.149 -0.4529  2.1625 -0.4759
 2526SOL     OW19636   8.657   4.889   8.361 -0.1665 -0.2408 -0.1654
 2526SOL    HW119637   8.730   4.885   8.293 -0.1704 -1.6893 -0.1000
 2526SOL    HW219638   8.673   4.820   8.431 -0.7929  0.4565  0.6709
 2527SOL     OW19639   5.523   4.785   0.347 -0.1569 -0.4250  0.1400
 2527SOL    HW119640   5.569   4.776   0.436 -0.5710 -0.8172  0.3150
 2527SOL    HW219641   5.424   4.781   0.361 -0.1975 -2.0919 -0.5236
 2528SOL     OW19642   8.939   4.589   5.702 -0.3838  0.3621 -0.4295
 2528SOL    HW119643   8.978   4.536   5.627  0.1575  0.3502 -0.1416
 2528SOL    HW219644   8.866   4.536   5.745  0.7878 -0.5619  0.4595
 2529SOL     OW19645   8.572   8.827   2.889 -0.3656 -0.1987 -0.5024
 2529SOL    HW119646   8.661   8.871   2.878 -0.1045 -0.4894  0.4171
 2529SOL    HW219647   8.563   8.753   2.823  1.1499 -1.8626  1.1051
 2530SOL     OW19648   0.858   9.832   9.730  0.0450  0.3796 -0.1400
 2530SOL    HW119649   0.764   9.833   9.763  0.0349 -0.8558 -0.0959
 2530SOL    HW219650   0.868   9.759   9.661  1.3001 -0.4217  0.8606
 2531SOL     OW19651   7.711   7.077   6.225 -0.1683 -0.7533  0.0498
 2531SOL    HW119652   7.763   7.022   6.290  0.9427  0.4724  0.2221
 2531SOL    HW219653   7.645   7.134   6.276  0.8735  0.3890  0.1345
 2532SOL     OW19654   9.147   3.534   3.840 -0.1622  0.5640  0.3793
 2532SOL    HW119655   9.154   3.626   3.879 -2.1999  0.1813  1.7046
 2532SOL    HW219656   9.208   3.472   3.889 -0.0029  0.8591  0.5562
 2533SOL     OW19657   7.191   1.054   2.836  0.4988 -0.0192  0.0867
 2533SOL    HW119658   7.108   1.082   2.789 -0.9467 -3.1869  0.6054
 2533SOL    HW219659   7.211   1.118   2.910 -1.8096  0.4750  0.3126
 2534SOL     OW19660   4.169   9.812   8.569 -0.0898 -0.3039 -0.9120
 2534SOL    HW119661   4.214   9.734   8.612  0.7997  0.8543  0.2948
 2534SOL    HW219662   4.229   9.849   8.498  0.7293  1.0358  0.4704
 2535SOL     OW19663   6.301   3.304   9.123  0.0470  0.3177  0.0219
 2535SOL    HW119664   6.271   3.234   9.188  0.9751 -0.3180 -0.2265
 2535SOL    HW219665   6.231   3.316   9.053 -0.0695 -0.4474  0.0020
 2536SOL     OW19666   0.663   5.667   2.602  0.3644  0.1891 -0.0858
 2536SOL    HW119667   0.576   5.681   2.649  0.3063 -0.3060 -0.0467
 2536SOL    HW219668   0.735   5.719   2.648 -0.2794  2.2433 -1.2909
 2537SOL     OW19669   5.074   7.159   3.257  0.1682 -0.3109  0.6168
 2537SOL    HW119670   5.162   7.119   3.231 -1.1848 -2.3341 -1.0798
 2537SOL    HW219671   5.032   7.203   3.177 -0.5660  0.2316  1.2880
 2538SOL     OW19672   9.075   8.826   5.138 -0.1274 -0.0035  0.4540
 2538SOL    HW119673   9.015   8.775   5.200 -2.1385  2.0761  0.2994
 2538SOL    HW219674   9.068   8.789   5.046  0.7918 -1.3752  0.9185
 2539SOL     OW19675   1.668   8.167   9.681 -0.1278  0.2745 -0.0526
 2539SOL    HW119676   1.698   8.262   9.690  0.2448  0.2322 -0.8090
 2539SOL    HW219677   1.746   8.110   9.656 -0.3937 -0.1972  0.1902
 2540SOL     OW19678   4.000   4.564   9.899 -0.1448  0.7819  0.0595
 2540SOL    HW119679   4.045   4.547   9.812 -0.7394 -1.8554  0.2181
 2540SOL    HW219680   4.064   4.547   9.974 -0.3949  0.3794  0.1880
 2541SOL     OW19681   4.286   5.594   0.209 -0.3302 -0.8434 -0.7569
 2541SOL    HW119682   4.248   5.509   0.246 -0.1103 -1.2329 -1.4221
 2541SOL    HW219683   4.339   5.574   0.127 -0.2741 -0.0610 -0.9144
 2542SOL     OW19684   2.457   2.805   8.349 -0.1127 -0.0485  0.0164
 2542SOL    HW119685   2.547   2.776   8.316 -0.3325 -1.0259  0.2694
 2542SOL    HW219686   2.462   2.901   8.378  0.7382  0.0310 -0.3703
 2543SOL     OW19687   9.593   0.202   9.909 -0.5788  0.4249  0.0364
 2543SOL    HW119688   9.515   0.229   9.852 -2.3825 -1.1221  1.6791
 2543SOL    HW219689   9.622   0.109   9.884 -0.7756  0.0997  1.0094
 2544SOL     OW19690   2.935   7.761   0.541 -0.5579  0.7126 -0.1904
 2544SOL    HW119691   2.924   7.739   0.638  1.0018  2.4291  0.3918
 2544SOL    HW219692   2.957   7.678   0.490 -2.1626 -0.3403  0.7766
 2545SOL     OW19693   7.318   2.086   8.797  0.5226  0.3539  0.1133
 2545SOL    HW119694   7.405   2.040   8.813 -0.0556 -1.8243 -2.4876
 2545SOL    HW219695   7.310   2.109   8.700 -2.0501 -0.1367  0.1723
 2546SOL     OW19696   5.837   0.507   7.621  0.0185 -0.2463 -0.0871
 2546SOL    HW119697   5.814   0.475   7.713  0.5705 -0.1182  0.0982
 2546SOL    HW219698   5.763   0.565   7.586 -0.0642 -0.0578  0.3965
 2547SOL     OW19699   0.435   6.259   9.179  0.5136 -0.1951  0.1150
 2547SOL    HW119700   0.447   6.165   9.209 -1.8855 -0.4210  0.4411
 2547SOL    HW219701   0.470   6.321   9.249  2.2268 -0.8178 -0.1621
 2548SOL     OW19702   7.714   7.400   3.420  0.0387  0.2848  0.0298
 2548SOL    HW119703   7.618   7.417   3.399  0.2352  1.4628  0.0887
 2548SOL    HW219704   7.771   7.473   3.383  1.0379 -0.9682 -0.9671
 2549SOL     OW19705   1.167   2.013   9.700  0.4159  0.2018 -0.3152
 2549SOL    HW119706   1.255   1.966   9.711  0.1517 -0.3150 -0.3752
 2549SOL    HW219707   1.151   2.031   9.603 -0.8722 -2.3240 -0.6224
 2550SOL     OW19708   4.502   8.144   9.360 -0.2494  0.5350  1.0582
 2550SOL    HW119709   4.494   8.121   9.457 -0.1908 -1.3917  0.6418
 2550SOL    HW219710   4.589   8.110   9.325 -0.3649  1.0242  0.2891
 2551SOL     OW19711   1.071   9.791   5.709 -0.4378 -0.5197  0.5716
 2551SOL    HW119712   1.007   9.853   5.664  0.3571 -0.6369 -0.7307
 2551SOL    HW219713   1.033   9.698   5.708  0.4682 -0.8990 -1.7001
 2552SOL     OW19714   3.310   2.441   4.474 -0.3718 -0.4042  0.3907
 2552SOL    HW119715   3.305   2.535   4.441  0.0914 -0.6930 -0.5001
 2552SOL    HW219716   3.401   2.404   4.457 -0.7010 -1.1800  0.2957
 2553SOL     OW19717   2.302   1.415   9.528  0.2052  0.1176  0.4926
 2553SOL    HW119718   2.326   1.363   9.610  0.6682  0.3513  0.5090
 2553SOL    HW219719   2.208   1.449   9.537 -0.1342 -0.7990  0.4311
 2554SOL     OW19720   4.856   8.013   6.284 -0.4190 -0.3182 -0.8571
 2554SOL    HW119721   4.865   8.078   6.359  3.5683 -1.9194  0.1836
 2554SOL    HW219722   4.796   7.938   6.311 -0.5408  0.0895  0.0016
 2555SOL     OW19723   8.781   1.172   2.837 -0.1495  0.4890 -0.3331
 2555SOL    HW119724   8.872   1.153   2.875 -0.7988 -1.0241  0.4895
 2555SOL    HW219725   8.737   1.242   2.893 -0.4967 -0.6298  0.8051
 2556SOL     OW19726   6.216   2.003   8.810 -0.0322  0.2623 -0.1120
 2556SOL    HW119727   6.230   2.073   8.880 -0.4030 -0.5006  0.7283
 2556SOL    HW219728   6.303   1.980   8.768  0.2903  0.2571  0.5536
 2557SOL     OW19729   5.230   0.642   7.655 -0.0105  0.3395 -0.3191
 2557SOL    HW119730   5.213   0.544   7.668 -0.8857  0.3183 -1.6168
 2557SOL    HW219731   5.246   0.661   7.558  1.0414  1.3561  0.0358
 2558SOL     OW19732   4.711   6.028   9.341 -0.0439  0.3976  0.5058
 2558SOL    HW119733   4.618   6.025   9.376  0.5066  0.3966  2.0528
 2558SOL    HW219734   4.765   5.957   9.386  0.9107  0.9688  0.2781
 2559SOL     OW19735   2.559   5.110   0.109 -0.5146 -0.5407  0.0435
 2559SOL    HW119736   2.490   5.170   0.067  0.1889 -1.6592 -2.7992
 2559SOL    HW219737   2.650   5.147   0.091 -0.2448 -0.3364  1.7621
 2560SOL     OW19738   8.338   1.556   8.183  0.4221  0.5135 -0.0316
 2560SOL    HW119739   8.325   1.614   8.263 -0.6060  0.3348 -0.0705
 2560SOL    HW219740   8.254   1.553   8.129  1.1362  0.7032 -1.1679
 2561SOL     OW19741   2.520   8.727   2.716 -0.5295 -0.1109 -0.1641
 2561SOL    HW119742   2.580   8.714   2.637 -0.6718  0.9230 -0.4461
 2561SOL    HW219743   2.424   8.722   2.687 -0.5829  0.3093 -0.0669
 2562SOL     OW19744   4.074   8.700   2.704  0.9153 -0.0383 -0.2448
 2562SOL    HW119745   4.127   8.784   2.690  0.7285 -0.3065 -2.8599
 2562SOL    HW219746   3.979   8.725   2.725  1.2235  0.3949  0.7006
 2563SOL     OW19747   8.684   0.324   4.986  0.1937  0.1361 -0.2322
 2563SOL    HW119748   8.744   0.295   5.061 -0.4560 -0.7096 -0.0360
 2563SOL    HW219749   8.728   0.398   4.935  1.7162 -0.9577 -0.5313
 2564SOL     OW19750   0.014   1.871   9.338 -0.5544 -0.0543 -0.3847
 2564SOL    HW119751   0.024   1.969   9.354  0.1575  0.3419 -2.9963
 2564SOL    HW219752  -0.081   1.844   9.356 -1.1828  1.4510 -1.3313
 2565SOL     OW19753   0.899   5.218   1.417 -0.0132  0.2925 -0.9250
 2565SOL    HW119754   0.854   5.135   1.451  0.7239  0.0555 -0.5317
 2565SOL    HW219755   0.832   5.272   1.365 -0.7362 -0.1031 -0.4248
 2566SOL     OW19756   0.112   7.542   0.501 -0.3380  0.1043  0.0587
 2566SOL    HW119757   0.134   7.599   0.580  1.2007 -1.1352  0.5301
 2566SOL    HW219758   0.031   7.487   0.521 -0.4940  0.4604  0.4139
 2567SOL     OW19759   2.861   5.408   7.995  0.1652 -0.3491 -0.3612
 2567SOL    HW119760   2.960   5.404   8.012  0.5255  1.7905 -1.7135
 2567SOL    HW219761   2.813   5.361   8.068  2.1536 -0.7406  0.7370
 2568SOL     OW19762   4.954   7.422   5.854 -0.3540 -0.0288 -0.0745
 2568SOL    HW119763   4.875   7.463   5.899 -0.4366 -2.6723  2.3947
 2568SOL    HW219764   4.924   7.348   5.794  0.1415 -0.0065 -0.3538
 2569SOL     OW19765   1.363   9.204   9.702 -0.2932  0.2825 -0.7238
 2569SOL    HW119766   1.407   9.273   9.758 -1.1329  1.0056 -0.9503
 2569SOL    HW219767   1.380   9.113   9.742 -0.3045  0.7251  0.3057
 2570SOL     OW19768   6.954   7.869   5.383  0.7574  0.6281  0.7798
 2570SOL    HW119769   6.901   7.947   5.350  1.4709  0.6877 -0.2227
 2570SOL    HW219770   7.051   7.893   5.387  0.9897 -0.2262  0.4072
 2571SOL     OW19771   8.168   7.158   4.309 -0.0868  0.1293 -0.4284
 2571SOL    HW119772   8.175   7.254   4.284 -0.7864 -0.0268 -1.2601
 2571SOL    HW219773   8.129   7.150   4.400 -0.2775  0.6312 -0.4655
 2572SOL     OW19774   2.177   6.177   1.738  0.2231 -0.0113 -0.4587
 2572SOL    HW119775   2.162   6.114   1.814 -0.7015 -0.4734 -1.0095
 2572SOL    HW219776   2.161   6.271   1.769 -1.2632 -0.2890 -0.3585
 2573SOL     OW19777   4.942   5.316   1.084  0.2046  0.1431 -0.0110
 2573SOL    HW119778   5.034   5.278   1.073  0.5937  0.9947  0.2309
 2573SOL    HW219779   4.933   5.397   1.026  0.1941  1.0615  1.2445
 2574SOL     OW19780   9.567   7.509   1.008 -0.9802 -0.7049  1.3734
 2574SOL    HW119781   9.538   7.580   0.944  1.2228  0.1577  1.2936
 2574SOL    HW219782   9.518   7.424   0.988 -0.8445 -0.2540 -1.0191
 2575SOL     OW19783   4.181   6.627   8.054  0.5510 -0.1582  0.0656
 2575SOL    HW119784   4.166   6.692   8.128 -0.8283  0.2508 -0.5544
 2575SOL    HW219785   4.221   6.675   7.976  1.1422 -0.4055  0.2125
 2576SOL     OW19786   9.543   1.329   4.343 -0.3614 -0.3821  0.5281
 2576SOL    HW119787   9.456   1.299   4.302 -1.6117  1.6938  1.5670
 2576SOL    HW219788   9.588   1.252   4.387 -0.6926 -1.9114 -1.7590
 2577SOL     OW19789   6.160   5.310   1.717  0.3420 -0.1133 -0.1739
 2577SOL    HW119790   6.117   5.236   1.666 -0.8788  1.3065 -1.2649
 2577SOL    HW219791   6.090   5.378   1.741  1.2785  0.2705  1.5554
 2578SOL     OW19792   3.696   7.122   2.708  0.1375  0.0129 -0.0715
 2578SOL    HW119793   3.708   7.150   2.804  1.7009 -0.2205 -0.1891
 2578SOL    HW219794   3.678   7.024   2.704  3.2681 -0.5999 -0.1939
 2579SOL     OW19795   9.174   6.967   1.149  0.1401 -0.0452 -0.8155
 2579SOL    HW119796   9.229   6.888   1.173  1.1329  1.4048  1.9250
 2579SOL    HW219797   9.205   7.004   1.061  2.6848 -0.0129  0.0609
 2580SOL     OW19798   9.446   9.809   2.144  0.3227  0.8894  0.0129
 2580SOL    HW119799   9.430   9.715   2.112 -1.0579  0.1872  2.5966
 2580SOL    HW219800   9.531   9.813   2.195  0.3203  1.0155  0.0066
 2581SOL     OW19801   7.670   0.346   6.403 -0.2318 -0.1666  0.3947
 2581SOL    HW119802   7.596   0.336   6.336  0.2693  0.6346 -0.2874
 2581SOL    HW219803   7.690   0.256   6.443 -0.6583 -0.6292 -0.4066
 2582SOL     OW19804   6.111   4.732   8.654 -0.3268  0.2248  0.1061
 2582SOL    HW119805   6.163   4.781   8.725  3.7726 -1.7115 -1.3595
 2582SOL    HW219806   6.081   4.797   8.585  1.8477  1.2498  0.0612
 2583SOL     OW19807   0.912   6.505   7.201  0.4913  0.0217  0.1256
 2583SOL    HW119808   0.867   6.505   7.291  0.4637 -0.5192  0.1117
 2583SOL    HW219809   0.992   6.564   7.204 -0.0121  0.7092  0.2565
 2584SOL     OW19810   9.873   9.980   4.089 -0.0249 -0.5105  0.2722
 2584SOL    HW119811   9.914   9.957   4.001  0.0511 -0.2553  0.2396
 2584SOL    HW219812   9.834   9.898   4.131 -0.9879 -0.4491 -0.4806
 2585SOL     OW19813   3.611   4.255   9.817  0.3340  0.2058 -0.0228
 2585SOL    HW119814   3.655   4.341   9.843 -0.3871  0.4587  0.4019
 2585SOL    HW219815   3.666   4.178   9.848  2.9047  0.4756 -3.6956
 2586SOL     OW19816   8.914   8.310   6.915  0.5033  0.2756 -0.3240
 2586SOL    HW119817   8.963   8.256   6.847  1.0427  0.0891  0.2005
 2586SOL    HW219818   8.977   8.378   6.954 -0.2844  1.6036 -1.3149
 2587SOL     OW19819   9.245   4.245   3.904  0.0526 -0.3116  0.2737
 2587SOL    HW119820   9.192   4.178   3.853 -2.0261  0.3899  1.4684
 2587SOL    HW219821   9.242   4.333   3.857  0.0980 -0.2501  0.3847
 2588SOL     OW19822   2.388   2.272   9.720 -0.1449  0.1049 -0.2606
 2588SOL    HW119823   2.381   2.284   9.819 -0.1391  1.4470 -0.4157
 2588SOL    HW219824   2.413   2.177   9.700  1.5431  0.2244  1.1016
 2589SOL     OW19825   0.693   7.619   0.822 -0.1287  0.4505  0.2731
 2589SOL    HW119826   0.698   7.566   0.737 -0.4882 -0.6056  0.8942
 2589SOL    HW219827   0.641   7.567   0.890 -0.2206  1.4829  0.9963
 2590SOL     OW19828   4.704   1.758   4.383 -0.7022  0.5390 -0.1223
 2590SOL    HW119829   4.785   1.743   4.440 -1.6119 -1.6688  0.6519
 2590SOL    HW219830   4.649   1.831   4.423  0.0927  0.9350  0.2673
 2591SOL     OW19831   3.054   0.749   5.427  0.0762 -0.4886  0.1090
 2591SOL    HW119832   3.083   0.700   5.345 -0.8838 -3.0769  1.2768
 2591SOL    HW219833   3.073   0.847   5.415  2.0904 -1.0989 -2.2392
 2592SOL     OW19834   2.068   2.067   0.641 -0.4646  0.0406  0.0418
 2592SOL    HW119835   2.146   2.086   0.701 -0.2791 -0.2878 -0.0917
 2592SOL    HW219836   2.101   2.030   0.555 -0.8019 -0.6158  0.1944
 2593SOL     OW19837   1.115   6.346   7.477 -0.0825 -0.2220 -0.2723
 2593SOL    HW119838   1.117   6.442   7.504 -2.3351  0.0861 -1.1213
 2593SOL    HW219839   1.033   6.302   7.513 -0.1523 -1.2841 -1.6418
 2594SOL     OW19840   0.670   5.971   5.569 -0.4170 -0.5410 -0.3846
 2594SOL    HW119841   0.748   5.918   5.602  1.2598  0.9772 -1.7656
 2594SOL    HW219842   0.641   5.936   5.480 -0.5602 -0.3755 -0.4034
 2595SOL     OW19843   4.964   9.564   7.553 -0.2285  0.2293  0.2574
 2595SOL    HW119844   4.905   9.606   7.483 -1.7653 -0.4763  1.1067
 2595SOL    HW219845   4.917   9.567   7.642  1.5994  0.8864  1.2217
 2596SOL     OW19846   6.045   8.945   2.780 -0.5310  0.1461 -0.4109
 2596SOL    HW119847   5.954   8.904   2.768 -1.4078  1.6788  0.8093
 2596SOL    HW219848   6.043   9.041   2.752  0.3622  0.5501  0.8464
 2597SOL     OW19849   2.915   4.552   1.027 -0.2331 -0.6855 -0.1560
 2597SOL    HW119850   2.997   4.512   1.069 -1.0363 -3.3144 -0.9612
 2597SOL    HW219851   2.839   4.547   1.091 -0.3831 -0.6289 -0.3302
 2598SOL     OW19852   9.886   2.400   8.996  0.4555  0.1581 -0.0582
 2598SOL    HW119853   9.924   2.476   9.048  0.8996 -0.3383  0.3497
 2598SOL    HW219854   9.903   2.314   9.045  0.1037 -0.2187 -0.5925
 2599SOL     OW19855   1.377   4.593   5.468 -0.9421 -0.1340  0.1252
 2599SOL    HW119856   1.314   4.609   5.543 -1.3748  1.9589 -0.6441
 2599SOL    HW219857   1.371   4.669   5.403  0.8416 -0.9477 -1.0262
 2600SOL     OW19858   1.618   5.834   3.356  0.1644  0.0694 -0.6026
 2600SOL    HW119859   1.679   5.829   3.435 -1.0574 -1.4163  0.2587
 2600SOL    HW219860   1.534   5.881   3.381  0.0820  0.2705 -1.2436
 2601SOL     OW19861   8.510   9.546   6.223 -1.0393  0.2880  0.3830
 2601SOL    HW119862   8.509   9.458   6.175 -0.3920 -0.6130  1.9923
 2601SOL    HW219863   8.600   9.588   6.213 -1.1234  0.4364  0.2360
 2602SOL     OW19864   7.691   4.801   9.429  0.6764  0.4357 -0.2893
 2602SOL    HW119865   7.696   4.760   9.338 -0.1619  1.3249 -0.7395
 2602SOL    HW219866   7.598   4.794   9.464  0.9339  0.3566  0.3811
 2603SOL     OW19867   0.299   3.303   5.777  0.3689  0.5890  0.1392
 2603SOL    HW119868   0.317   3.371   5.849 -0.1323 -0.0600  0.8871
 2603SOL    HW219869   0.375   3.238   5.773  0.5029  0.7611 -0.0654
 2604SOL     OW19870   7.965   9.458   3.220 -0.2589 -0.3381 -0.2954
 2604SOL    HW119871   7.870   9.444   3.248  0.6267 -1.2401  2.3634
 2604SOL    HW219872   7.992   9.552   3.238 -0.0026 -0.6515  0.9969
 2605SOL     OW19873   1.891   5.825   1.935  0.2047 -0.3947  0.5234
 2605SOL    HW119874   1.920   5.792   2.025 -1.7709 -0.7350  1.0614
 2605SOL    HW219875   1.870   5.747   1.876 -0.7423 -0.1665  0.5410
 2606SOL     OW19876   9.420   5.565   7.693  0.5133  0.3587  0.8985
 2606SOL    HW119877   9.416   5.639   7.626  1.3177 -0.6058 -0.2381
 2606SOL    HW219878   9.347   5.500   7.676  1.1345 -0.2492  0.5092
 2607SOL     OW19879   6.965   4.650   9.309 -0.9005  0.1322  0.5028
 2607SOL    HW119880   6.969   4.739   9.264 -1.6391  0.2496  0.6589
 2607SOL    HW219881   6.927   4.582   9.246 -0.0705 -0.1372  0.2882
 2608SOL     OW19882   6.585   3.659   8.565 -0.0873 -0.3570  0.2610
 2608SOL    HW119883   6.503   3.655   8.508  0.7567 -2.4867 -0.8659
 2608SOL    HW219884   6.664   3.678   8.507  0.7389 -2.2073  0.7403
 2609SOL     OW19885   5.742   5.361   2.313  0.1764  0.5798  0.6986
 2609SOL    HW119886   5.685   5.441   2.296 -3.2277 -1.8931 -0.1636
 2609SOL    HW219887   5.803   5.346   2.235  0.8229  2.2816  0.8623
 2610SOL     OW19888   6.046   4.574   7.900  0.2011 -0.0182 -0.2122
 2610SOL    HW119889   6.123   4.522   7.936  0.0243 -0.6797 -0.7630
 2610SOL    HW219890   6.050   4.574   7.800 -0.2676  0.3055 -0.2329
 2611SOL     OW19891   1.475   7.292   9.601 -0.4394  0.3429 -0.5193
 2611SOL    HW119892   1.550   7.330   9.654  0.7492 -0.3195 -1.7060
 2611SOL    HW219893   1.501   7.288   9.504 -0.1977 -4.2516 -0.3366
 2612SOL     OW19894   6.360   1.231   4.579 -0.3245 -0.4824 -0.0519
 2612SOL    HW119895   6.335   1.240   4.482 -0.7613 -1.5192 -0.0336
 2612SOL    HW219896   6.345   1.319   4.625 -0.1136  0.0181 -0.9226
 2613SOL     OW19897   4.787   4.355   0.503 -0.3984 -0.5347  0.1434
 2613SOL    HW119898   4.825   4.287   0.442 -1.5961  0.5679 -1.8968
 2613SOL    HW219899   4.855   4.382   0.571  1.0025 -1.6348 -0.8142
 2614SOL     OW19900   7.317   9.424   6.487  0.0787 -0.0401 -0.0565
 2614SOL    HW119901   7.263   9.340   6.490 -0.3573  0.2615  0.9913
 2614SOL    HW219902   7.414   9.401   6.476 -0.1852 -0.6089 -1.2835
 2615SOL     OW19903   7.431   2.707   4.815 -0.1329  0.0195 -0.1089
 2615SOL    HW119904   7.503   2.769   4.847  1.6313 -2.5197  1.0386
 2615SOL    HW219905   7.426   2.710   4.715 -0.2801  2.2123 -0.0491
 2616SOL     OW19906   2.251   7.593   2.762  0.1226  0.3612  0.2725
 2616SOL    HW119907   2.156   7.618   2.784 -0.3439 -1.7727  0.7669
 2616SOL    HW219908   2.257   7.571   2.665 -0.4141 -1.7563  0.7007
 2617SOL     OW19909   4.536   3.004   3.259  0.7816 -0.6358 -0.2429
 2617SOL    HW119910   4.603   3.035   3.192  1.4767 -0.9797  0.2820
 2617SOL    HW219911   4.542   2.905   3.268  1.0207 -0.5437  0.6674
 2618SOL     OW19912   4.252   2.077   5.954 -0.7570 -0.2092  0.8065
 2618SOL    HW119913   4.231   2.015   6.030  0.4951 -0.3121  1.0770
 2618SOL    HW219914   4.344   2.057   5.919 -1.0052  0.3860 -0.2024
 2619SOL     OW19915   2.619   6.327   7.892 -0.0722 -0.1349 -0.0399
 2619SOL    HW119916   2.696   6.288   7.942  0.6246  1.1729 -0.0748
 2619SOL    HW219917   2.624   6.299   7.796 -0.6097 -1.4647  0.3106
 2620SOL     OW19918   8.401   8.231   7.633  0.2790  0.0208  0.3886
 2620SOL    HW119919   8.417   8.133   7.617  1.4397  0.1840  0.5189
 2620SOL    HW219920   8.326   8.242   7.698  0.2709 -0.7907  0.5266
 2621SOL     OW19921   2.300   2.104   7.917  0.2105  0.3366 -0.7354
 2621SOL    HW119922   2.345   2.193   7.919 -0.6181  0.7483  1.8099
 2621SOL    HW219923   2.201   2.116   7.926  0.2465 -0.9119  1.7037
 2622SOL     OW19924   3.075   5.321   4.689  0.3256 -0.1129 -0.3675
 2622SOL    HW119925   3.003   5.358   4.749  0.3560 -1.4509  0.5232
 2622SOL    HW219926   3.084   5.379   4.608  0.1599  1.6417  0.8428
 2623SOL     OW19927   4.369   7.375   4.438  0.0192  0.5700  0.0194
 2623SOL    HW119928   4.367   7.386   4.338 -0.7997  1.6350  0.1331
 2623SOL    HW219929   4.276   7.357   4.471  0.4709 -0.9514  0.4751
 2624SOL     OW19930   3.394   2.294   1.706 -0.4254 -0.5103  0.0331
 2624SOL    HW119931   3.384   2.223   1.776  1.8781  0.7732  1.7481
 2624SOL    HW219932   3.380   2.384   1.748 -0.8391  0.1967 -1.5705
 2625SOL     OW19933   3.346   4.454   3.782  0.1713 -0.0199 -0.2531
 2625SOL    HW119934   3.346   4.541   3.830 -2.3979 -0.9456  1.5166
 2625SOL    HW219935   3.284   4.459   3.704  0.5581 -0.0766 -0.5694
 2626SOL     OW19936   9.144   5.918   4.323  0.0597 -0.2971 -0.0298
 2626SOL    HW119937   9.082   5.995   4.336  1.4799  0.7763  0.4005
 2626SOL    HW219938   9.157   5.901   4.226 -0.5972 -0.2772 -0.1231
 2627SOL     OW19939   9.263   2.520   9.710 -0.2192 -0.3444 -0.1308
 2627SOL    HW119940   9.228   2.545   9.800 -1.1734 -0.1520 -0.5492
 2627SOL    HW219941   9.236   2.590   9.643  0.4049 -0.5315 -0.5766
 2628SOL     OW19942   0.439   2.633   4.426 -0.0386 -0.1656  0.3111
 2628SOL    HW119943   0.416   2.730   4.436 -0.1330 -0.2756  1.2285
 2628SOL    HW219944   0.394   2.581   4.498  0.6554 -0.7915  0.2986
 2629SOL     OW19945   7.825   3.594   6.308  0.4000  0.0136  0.4899
 2629SOL    HW119946   7.903   3.534   6.289 -0.5709 -0.2433 -2.8469
 2629SOL    HW219947   7.825   3.670   6.243 -0.9867  1.1609  1.8006
 2630SOL     OW19948   9.524   8.836   2.678 -0.6751 -0.3536  0.2855
 2630SOL    HW119949   9.494   8.743   2.697 -2.7256  0.1928 -0.1557
 2630SOL    HW219950   9.559   8.878   2.762 -1.9426 -0.7419  1.0204
 2631SOL     OW19951   4.293   2.816   5.566  0.1855  0.3757  0.1786
 2631SOL    HW119952   4.280   2.782   5.659 -0.1812  0.0223 -0.0030
 2631SOL    HW219953   4.255   2.909   5.559  0.4922  0.5248  0.4633
 2632SOL     OW19954   0.289   8.474   8.958 -0.5544  0.1295  0.4601
 2632SOL    HW119955   0.249   8.491   9.048 -0.5571  1.4740  0.2174
 2632SOL    HW219956   0.324   8.380   8.954 -1.7809 -0.3745  1.3847
 2633SOL     OW19957   6.005   4.343   0.340 -0.0942  0.3953 -0.1011
 2633SOL    HW119958   5.945   4.401   0.394  2.1309  1.2814  1.5073
 2633SOL    HW219959   6.034   4.393   0.258 -1.1229  0.1419 -0.6321
 2634SOL     OW19960   3.389   1.979   6.207 -0.0905  0.6163 -0.1770
 2634SOL    HW119961   3.353   1.902   6.259 -1.3881  0.8317 -0.7318
 2634SOL    HW219962   3.430   2.046   6.269  2.1984 -1.0953  0.2109
 2635SOL     OW19963   3.384   9.242   7.499  0.1398  0.0119 -0.9414
 2635SOL    HW119964   3.418   9.148   7.488  0.7786  0.3875 -2.3346
 2635SOL    HW219965   3.439   9.304   7.443  0.5034  1.4070  0.8864
 2636SOL     OW19966   8.336   0.476   3.298 -1.1848  0.0999  0.0674
 2636SOL    HW119967   8.334   0.467   3.397 -0.6214 -1.7715 -0.0870
 2636SOL    HW219968   8.375   0.565   3.273 -0.7001  0.2944  1.5060
 2637SOL     OW19969   2.062   4.375   0.871  0.0795  0.0794 -0.2520
 2637SOL    HW119970   2.078   4.388   0.773  0.9368  1.1442  0.0155
 2637SOL    HW219971   2.119   4.300   0.905  1.2310  0.9583 -0.2018
 2638SOL     OW19972   2.287   1.281   3.346  0.1244  0.0398  0.0220
 2638SOL    HW119973   2.297   1.264   3.248 -1.4765 -0.3856 -0.0705
 2638SOL    HW219974   2.363   1.238   3.395 -0.3869 -1.8210 -0.8080
 2639SOL     OW19975   1.813   2.470   6.455 -0.0375 -0.2785 -0.4808
 2639SOL    HW119976   1.886   2.406   6.477  0.4707  0.1068 -1.0144
 2639SOL    HW219977   1.725   2.423   6.455  0.0586 -0.4670  1.4650
 2640SOL     OW19978   0.801   2.475   0.243 -0.7673  0.0750 -0.3954
 2640SOL    HW119979   0.866   2.507   0.312  0.9443 -3.6415 -0.2197
 2640SOL    HW219980   0.719   2.439   0.289  0.2175 -2.0607 -0.2689
 2641SOL     OW19981   6.416   9.183   3.083  0.5339 -0.4476  0.1283
 2641SOL    HW119982   6.414   9.271   3.037  1.6239 -0.6026 -0.2211
 2641SOL    HW219983   6.441   9.195   3.179  1.7896 -0.4827 -0.1876
 2642SOL     OW19984   3.486   1.920   0.883  0.5662  0.1524 -0.7489
 2642SOL    HW119985   3.571   1.902   0.932  1.9258  0.8249 -2.7879
 2642SOL    HW219986   3.433   1.836   0.875  1.7576 -0.5988 -0.7772
 2643SOL     OW19987   0.960   5.197   2.184  0.0816  1.0125 -0.3028
 2643SOL    HW119988   0.932   5.186   2.280  1.3753  0.7317  0.0522
 2643SOL    HW219989   0.911   5.131   2.127  0.1582  0.3879  0.3450
 2644SOL     OW19990   4.444   3.155   9.945 -0.0932 -0.2056  0.3746
 2644SOL    HW119991   4.410   3.064   9.921 -1.8557  0.7980 -1.0500
 2644SOL    HW219992   4.393   3.191  10.023 -0.0574 -0.0242  0.3151
 2645SOL     OW19993   3.806   6.118   4.041 -0.4344 -0.0305  0.5239
 2645SOL    HW119994   3.827   6.216   4.041 -0.2561 -0.0574 -1.0191
 2645SOL    HW219995   3.768   6.092   4.130 -0.8916  1.5359  0.8007
 2646SOL     OW19996   3.083   6.357   0.148  0.1839  0.3927  0.3174
 2646SOL    HW119997   3.167   6.407   0.167  0.9689 -0.8421  0.1438
 2646SOL    HW219998   3.044   6.325   0.235  0.4046  0.1462  0.3259
 2647SOL     OW19999   3.203   5.511   6.853  0.4604  0.1305 -0.0785
 2647SOL    HW120000   3.171   5.536   6.944  2.5003 -0.1076  0.7225
 2647SOL    HW220001   3.201   5.411   6.843 -0.2016  0.1779 -0.4756
 2648SOL     OW20002   0.787   9.141   6.854 -0.1763  0.1118  0.1433
 2648SOL    HW120003   0.778   9.053   6.900  0.8210 -0.1662 -0.1747
 2648SOL    HW220004   0.740   9.212   6.907 -1.9705 -0.8034 -0.1999
 2649SOL     OW20005   9.019   2.194   7.951  0.2613  0.3726  0.1389
 2649SOL    HW120006   8.989   2.168   8.043  1.1456 -0.5863  0.1599
 2649SOL    HW220007   9.104   2.246   7.957  0.9187 -0.6614 -0.2140
 2650SOL     OW20008   1.424   7.339   7.870  0.0055 -0.0593  0.2396
 2650SOL    HW120009   1.383   7.295   7.949 -0.0222  0.8767  0.7533
 2650SOL    HW220010   1.453   7.432   7.894 -2.5898  1.2856 -1.5862
 2651SOL     OW20011   4.784   8.267   2.367 -0.4883  0.2691  0.3039
 2651SOL    HW120012   4.847   8.195   2.397 -0.1201  0.6436  0.4407
 2651SOL    HW220013   4.697   8.227   2.341 -0.5214 -0.1595  1.0501
 2652SOL     OW20014   9.440   7.860   6.549 -0.7722  0.2349  0.2073
 2652SOL    HW120015   9.387   7.853   6.464 -1.9833 -0.9117  1.0283
 2652SOL    HW220016   9.504   7.783   6.554  1.5956  2.0285 -1.1503
 2653SOL     OW20017   1.755   2.926   7.140  0.9383 -0.0939  0.2275
 2653SOL    HW120018   1.827   2.857   7.130  2.3154  1.3493 -0.0900
 2653SOL    HW220019   1.742   2.974   7.053  0.6506  0.6692  0.6832
 2654SOL     OW20020   3.141   5.150   8.122  0.5565 -1.0600 -0.1327
 2654SOL    HW120021   3.214   5.131   8.188  0.2028 -1.3936  0.1634
 2654SOL    HW220022   3.153   5.242   8.086  0.5467 -0.7319  0.6747
 2655SOL     OW20023   8.359   0.926   1.252 -0.1103 -0.2241 -0.6435
 2655SOL    HW120024   8.420   0.980   1.310 -0.7141  0.3745 -0.5544
 2655SOL    HW220025   8.312   0.986   1.187 -1.1887 -0.5539 -0.1872
 2656SOL     OW20026   2.745   0.911   6.920 -0.0334 -0.0794  0.0017
 2656SOL    HW120027   2.653   0.925   6.884  0.7122 -1.1320 -2.3885
 2656SOL    HW220028   2.799   0.994   6.905  0.4874 -0.7684 -2.0003
 2657SOL     OW20029   7.299   9.224   4.553 -0.2867  0.4942 -0.0196
 2657SOL    HW120030   7.228   9.167   4.594 -0.3756  0.3106 -0.4211
 2657SOL    HW220031   7.328   9.294   4.618  0.4088 -0.5245  0.7547
 2658SOL     OW20032   8.793   5.976   7.832  0.7346 -0.1821  0.5311
 2658SOL    HW120033   8.768   5.943   7.741  0.7999 -0.3145  0.5604
 2658SOL    HW220034   8.863   6.047   7.824  1.2093 -0.6457  0.5043
 2659SOL     OW20035   4.674   4.838   1.699  0.5152 -0.2452  0.3407
 2659SOL    HW120036   4.610   4.782   1.646 -1.2771  0.9953  1.1395
 2659SOL    HW220037   4.734   4.778   1.753 -2.5862 -1.4446  2.6187
 2660SOL     OW20038   2.158   9.468   3.704  0.1488  0.5085  0.6377
 2660SOL    HW120039   2.216   9.406   3.756  0.6396  0.9254  0.5934
 2660SOL    HW220040   2.113   9.418   3.630  0.2523  0.1330  0.8295
 2661SOL     OW20041   3.129   9.301   3.491 -0.5569 -0.0119  0.2947
 2661SOL    HW120042   3.074   9.306   3.407  0.5528 -0.6130 -0.4770
 2661SOL    HW220043   3.189   9.381   3.496 -2.2934  1.2398  1.7184
 2662SOL     OW20044   1.581   8.678   3.450  0.0961 -0.3207 -0.1302
 2662SOL    HW120045   1.673   8.698   3.485  0.2246  0.7832 -1.0770
 2662SOL    HW220046   1.578   8.699   3.352 -0.5359 -2.4344 -0.5957
 2663SOL     OW20047   8.021   0.751   3.191 -0.2650  0.1454 -0.4921
 2663SOL    HW120048   8.041   0.752   3.289 -1.0082 -1.5912 -0.3070
 2663SOL    HW220049   8.051   0.664   3.151 -1.0484  0.3570 -1.5794
 2664SOL     OW20050   9.536   4.319   2.926  0.1278  0.1525 -0.2635
 2664SOL    HW120051   9.605   4.250   2.943  1.4290  1.2849 -0.8723
 2664SOL    HW220052   9.445   4.278   2.934  0.8783 -1.5915 -0.4890
 2665SOL     OW20053   5.901   6.805   5.186  0.0975  0.3354 -0.3298
 2665SOL    HW120054   5.909   6.794   5.285  2.8464 -0.4747 -0.6069
 2665SOL    HW220055   5.933   6.896   5.159 -1.7986  1.0162 -0.3827
 2666SOL     OW20056   8.067   3.082   3.590 -0.1405  0.3408 -0.3945
 2666SOL    HW120057   8.000   3.141   3.636 -0.0556  0.9936 -1.1033
 2666SOL    HW220058   8.119   3.032   3.658  1.6825  3.1410  0.3505
 2667SOL     OW20059   3.951   3.514   1.015  0.2038  0.1470 -0.7642
 2667SOL    HW120060   3.973   3.450   0.941 -1.8625 -0.9344 -0.4848
 2667SOL    HW220061   3.929   3.462   1.098  1.9317  1.3285  0.4855
 2668SOL     OW20062   0.105   0.627   3.028 -0.6350 -0.3252 -0.5540
 2668SOL    HW120063   0.165   0.561   3.075 -0.8210 -0.8774 -1.0759
 2668SOL    HW220064   0.116   0.717   3.069 -0.7337 -0.7787  0.4918
 2669SOL     OW20065   3.873   0.409   7.340 -0.0341 -0.1421 -0.5130
 2669SOL    HW120066   3.936   0.348   7.388  0.6703 -0.1312 -1.4038
 2669SOL    HW220067   3.793   0.358   7.311  0.9141 -0.8485 -1.9542
 2670SOL     OW20068   7.934   4.797   4.528  0.0700  0.2967 -0.2669
 2670SOL    HW120069   8.028   4.790   4.561 -0.0312 -1.1867 -0.2651
 2670SOL    HW220070   7.930   4.766   4.433 -0.1388  1.8600 -0.7735
 2671SOL     OW20071   2.370   1.961   6.397 -0.2035  0.0307 -0.0850
 2671SOL    HW120072   2.326   2.036   6.445  0.8166  0.6749 -0.1383
 2671SOL    HW220073   2.427   1.909   6.461 -0.0414 -0.0304 -0.2778
 2672SOL     OW20074   9.435   6.281   9.083  0.0723 -0.2466 -0.6658
 2672SOL    HW120075   9.354   6.335   9.063 -0.8755 -0.8708  1.3017
 2672SOL    HW220076   9.438   6.201   9.024 -0.5846 -0.0744 -0.9358
 2673SOL     OW20077   0.318   5.205   2.006  0.1823 -0.3048 -0.3508
 2673SOL    HW120078   0.298   5.266   1.930 -1.7535 -1.2799 -0.6572
 2673SOL    HW220079   0.259   5.229   2.084  1.5024  0.0978  0.5532
 2674SOL     OW20080   3.397   7.512   2.257  0.1022 -0.5622 -0.3536
 2674SOL    HW120081   3.440   7.593   2.297 -2.0675  0.9537 -1.0445
 2674SOL    HW220082   3.370   7.450   2.330 -0.4989  0.5011  0.3416
 2675SOL     OW20083   1.578   8.213   6.405 -0.3807  0.3397 -0.6733
 2675SOL    HW120084   1.645   8.253   6.343  0.4514  0.4444  0.3040
 2675SOL    HW220085   1.611   8.125   6.438 -0.8024  0.3152 -0.3073
 2676SOL     OW20086   3.309   6.261   8.885 -0.5368  0.0856 -0.5231
 2676SOL    HW120087   3.321   6.335   8.819 -1.2735 -1.4379 -2.4399
 2676SOL    HW220088   3.392   6.204   8.887 -0.7004 -0.1532 -0.5004
 2677SOL     OW20089   5.145   0.458   2.955  0.0365  0.6673  0.0466
 2677SOL    HW120090   5.145   0.547   3.000  1.7356  0.6549  0.1023
 2677SOL    HW220091   5.146   0.386   3.025 -0.3687  0.6093 -0.0053
 2678SOL     OW20092   0.525   9.862   9.449 -0.0710 -0.0342 -0.6622
 2678SOL    HW120093   0.537   9.897   9.542  0.7338 -1.2763 -0.2808
 2678SOL    HW220094   0.580   9.917   9.385  2.1080 -1.2578  0.0890
 2679SOL     OW20095   1.338   4.929   8.487 -0.2378 -0.5856  0.3805
 2679SOL    HW120096   1.314   4.845   8.536 -0.5601  0.0812  1.4036
 2679SOL    HW220097   1.257   4.964   8.440 -0.6274  0.1934  1.5828
 2680SOL     OW20098   3.096   0.228   0.397  0.1532 -0.4353 -0.2138
 2680SOL    HW120099   3.127   0.292   0.468  0.4970  0.8117 -1.4656
 2680SOL    HW220100   2.997   0.219   0.401  0.1646 -0.3305  0.3917
 2681SOL     OW20101   1.725   0.732   3.102 -0.1203 -0.2332 -0.5082
 2681SOL    HW120102   1.721   0.640   3.064 -3.2465 -0.4360  0.2442
 2681SOL    HW220103   1.653   0.744   3.170  0.7488  2.5128 -0.0042
 2682SOL     OW20104   4.045   0.281   3.807 -0.4145  0.2038 -0.4180
 2682SOL    HW120105   4.128   0.229   3.786  0.3149  1.5090 -0.8511
 2682SOL    HW220106   3.976   0.263   3.737 -0.3850 -0.6425 -0.2310
 2683SOL     OW20107   4.499   1.606   0.847  0.4527  0.2603 -0.0367
 2683SOL    HW120108   4.421   1.655   0.885  0.1029  0.0493 -0.4772
 2683SOL    HW220109   4.581   1.629   0.899 -0.0043  0.0459  0.7861
 2684SOL     OW20110   3.256   4.010   7.148 -0.1073  0.0256  1.0502
 2684SOL    HW120111   3.278   3.953   7.070  0.5467  1.4640  0.1609
 2684SOL    HW220112   3.159   4.000   7.170 -0.2773 -0.4503  0.1051
 2685SOL     OW20113   9.582   3.217   5.748  0.2362  0.3969 -0.2433
 2685SOL    HW120114   9.490   3.177   5.740  0.7384 -0.6477 -0.9021
 2685SOL    HW220115   9.626   3.181   5.831  1.0834 -1.2670 -1.3856
 2686SOL     OW20116   4.625   6.398   8.196  0.0137  0.1261  0.5864
 2686SOL    HW120117   4.595   6.493   8.198 -0.3963 -0.0103  0.9625
 2686SOL    HW220118   4.626   6.362   8.289 -2.6924 -1.1324  0.1597
 2687SOL     OW20119   7.340   0.871   9.119 -0.1717 -0.6187  0.2495
 2687SOL    HW120120   7.252   0.900   9.082  0.4564  0.1205 -0.6939
 2687SOL    HW220121   7.359   0.777   9.091 -0.7376 -0.8379  0.6034
 2688SOL     OW20122   6.027   1.382   6.554 -0.0957  0.2071 -0.2523
 2688SOL    HW120123   5.953   1.446   6.530 -0.1965 -0.2208 -1.1298
 2688SOL    HW220124   6.023   1.361   6.652 -1.2799  0.0290 -0.3245
 2689SOL     OW20125   4.312   8.428   4.830  0.3153  0.3816  0.5857
 2689SOL    HW120126   4.381   8.435   4.758  1.5409 -0.1596  1.6880
 2689SOL    HW220127   4.244   8.501   4.818  0.6350  0.4473 -0.9563
 2690SOL     OW20128   8.606   9.776   9.815  0.2342 -0.3711 -0.1592
 2690SOL    HW120129   8.596   9.853   9.752  3.4243 -1.1999 -1.8187
 2690SOL    HW220130   8.646   9.808   9.901 -0.2125  0.1045 -0.1230
 2691SOL     OW20131   7.208   6.293   1.669 -0.0938  0.1334  0.4886
 2691SOL    HW120132   7.139   6.270   1.600 -0.4711  1.3819  0.4348
 2691SOL    HW220133   7.250   6.381   1.646  1.6525 -0.6828  0.4216
 2692SOL     OW20134   3.111   1.224   7.662 -0.3862 -0.2643 -0.1624
 2692SOL    HW120135   3.165   1.226   7.746 -1.2509  0.5018  0.3904
 2692SOL    HW220136   3.054   1.142   7.661 -0.4887 -0.1963  0.0760
 2693SOL     OW20137   3.545   9.569   5.305  0.4356  0.5585  0.5481
 2693SOL    HW120138   3.542   9.645   5.240  0.5551 -0.4540 -0.6573
 2693SOL    HW220139   3.632   9.569   5.352  0.0480  1.7720  1.2914
 2694SOL     OW20140   2.317   1.755   0.777  0.6263  0.2004  0.3550
 2694SOL    HW120141   2.320   1.851   0.752 -0.7756 -0.1949 -1.3919
 2694SOL    HW220142   2.223   1.729   0.800  0.8009 -0.9981 -0.2522
 2695SOL     OW20143   3.324   3.516   2.128 -0.4465 -0.2460  0.4171
 2695SOL    HW120144   3.378   3.503   2.211 -1.3698 -0.1022  1.0390
 2695SOL    HW220145   3.328   3.434   2.072 -0.7269 -0.7383  1.1218
 2696SOL     OW20146   6.236   9.812   3.785 -0.4033  0.1993  0.3240
 2696SOL    HW120147   6.157   9.852   3.738  1.9594  2.5338 -1.8100
 2696SOL    HW220148   6.295   9.885   3.819  0.7217 -1.5140  2.1808
 2697SOL     OW20149   2.504   3.948   7.415 -0.5097 -0.2110  0.2426
 2697SOL    HW120150   2.444   3.986   7.486 -0.4619  0.9165 -0.3058
 2697SOL    HW220151   2.503   4.009   7.335  0.8272 -0.5404 -0.0298
 2698SOL     OW20152   6.602   1.119   4.658  0.4334 -0.0279 -0.4756
 2698SOL    HW120153   6.524   1.170   4.622  0.0577  0.2323  0.6934
 2698SOL    HW220154   6.600   1.026   4.621 -1.5307 -0.6209  1.0205
 2699SOL     OW20155   0.935   4.222   2.362  0.0052  0.1570  0.2754
 2699SOL    HW120156   0.891   4.206   2.274  1.5836 -0.1758 -0.4780
 2699SOL    HW220157   1.032   4.242   2.347  0.3208 -0.0755  1.9552
 2700SOL     OW20158   2.995   3.292   9.565  0.2881  0.5164 -0.0672
 2700SOL    HW120159   2.912   3.245   9.592  0.9717  0.6856  2.4121
 2700SOL    HW220160   2.973   3.382   9.528 -0.7822 -0.4137 -1.7235
 2701SOL     OW20161   8.113   8.897   0.144 -0.4926 -0.5079 -0.1398
 2701SOL    HW120162   8.212   8.908   0.135 -0.3441 -1.2490  0.4895
 2701SOL    HW220163   8.092   8.802   0.167 -1.3774 -0.4282 -0.6019
 2702SOL     OW20164   9.239   8.342   8.515  0.1038  0.1645 -0.2199
 2702SOL    HW120165   9.266   8.342   8.418  0.9367  2.0174 -0.0014
 2702SOL    HW220166   9.154   8.393   8.525  0.7548  1.1776  0.2092
 2703SOL     OW20167   2.458   9.139   9.711  0.0536 -0.2793 -0.0136
 2703SOL    HW120168   2.443   9.052   9.663 -0.2918 -0.7935  1.0018
 2703SOL    HW220169   2.501   9.120   9.799 -0.4594  0.5517  0.4179
 2704SOL     OW20170   9.253   1.995   8.954  0.1065  0.1545 -0.1558
 2704SOL    HW120171   9.331   2.016   8.894  1.0427 -0.4945  0.8096
 2704SOL    HW220172   9.286   1.947   9.035 -1.3125 -0.0869  0.2867
 2705SOL     OW20173   0.912   2.640   7.932 -0.4365  0.6305  0.0084
 2705SOL    HW120174   0.944   2.670   7.842  1.3064 -0.6682  0.1671
 2705SOL    HW220175   0.989   2.605   7.985 -1.5304  0.8850  1.8255
 2706SOL     OW20176   1.217   6.234   0.147  0.3502 -0.0761  0.3985
 2706SOL    HW120177   1.231   6.212   0.244  0.2664 -3.0816 -0.2411
 2706SOL    HW220178   1.297   6.206   0.094  0.4835  1.7418 -0.4136
 2707SOL     OW20179   1.547   2.514   6.838  0.2353 -0.4307 -0.6356
 2707SOL    HW120180   1.540   2.436   6.900  0.4505 -1.0163 -1.3429
 2707SOL    HW220181   1.532   2.598   6.889  0.2666 -0.9166  0.1859
 2708SOL     OW20182   2.956   8.361   7.960  0.4259 -0.8165  0.3211
 2708SOL    HW120183   3.044   8.376   7.917 -0.4115 -0.2141 -1.2238
 2708SOL    HW220184   2.893   8.435   7.935 -0.6861 -1.5252  0.9442
 2709SOL     OW20185   0.528   6.889   2.269  0.4454  0.4281 -0.4822
 2709SOL    HW120186   0.550   6.792   2.284 -0.4033  0.6505  2.6395
 2709SOL    HW220187   0.433   6.906   2.296  1.2217  2.5198  1.0298
 2710SOL     OW20188   1.991   4.179   8.857 -0.0740 -0.0923  0.3009
 2710SOL    HW120189   2.091   4.177   8.855 -0.0735  0.7174 -1.4463
 2710SOL    HW220190   1.957   4.093   8.894  1.2556 -0.3263  1.0451
 2711SOL     OW20191   1.725   1.273   9.339 -0.1942 -0.0816  0.3840
 2711SOL    HW120192   1.816   1.284   9.299 -0.5034 -0.3170 -0.3957
 2711SOL    HW220193   1.675   1.203   9.288 -0.5526 -0.4726  1.2663
 2712SOL     OW20194   8.693   9.471   9.116  0.5840  0.9324  0.1151
 2712SOL    HW120195   8.715   9.438   9.025 -1.3704  1.6489 -0.6375
 2712SOL    HW220196   8.647   9.560   9.110 -0.4403  0.5423  1.7162
 2713SOL     OW20197   2.499   2.249   7.031 -0.0159  0.4739 -0.1521
 2713SOL    HW120198   2.580   2.217   6.981 -0.1200 -0.2769  0.1414
 2713SOL    HW220199   2.431   2.175   7.034 -0.6162  1.0248 -0.1982
 2714SOL     OW20200   1.526   1.899   3.606 -0.4711  0.6404  1.0851
 2714SOL    HW120201   1.520   1.996   3.581  0.3819  0.0575 -1.5768
 2714SOL    HW220202   1.622   1.871   3.606 -0.8071 -0.5625  0.2848
 2715SOL     OW20203   6.387   7.810   5.298  0.0770  0.2739 -0.5717
 2715SOL    HW120204   6.429   7.829   5.387  1.0488 -1.8633 -0.5442
 2715SOL    HW220205   6.292   7.841   5.299  0.5628  1.7852  0.6329
 2716SOL     OW20206   2.940   1.501   7.162  0.1999 -0.0129  0.7146
 2716SOL    HW120207   3.019   1.562   7.159  0.3678 -0.2727 -0.1959
 2716SOL    HW220208   2.883   1.516   7.082 -0.4734 -0.1077  1.1691
 2717SOL     OW20209   4.902   3.181   8.555 -0.2599 -0.4175  0.2817
 2717SOL    HW120210   4.991   3.135   8.556  0.9645  1.7755 -2.0055
 2717SOL    HW220211   4.911   3.270   8.599 -1.1307  0.1404 -0.6613
 2718SOL     OW20212   3.850   9.305   9.340 -0.1312  0.4998  0.0512
 2718SOL    HW120213   3.826   9.240   9.412 -0.8972  0.3198 -0.3651
 2718SOL    HW220214   3.794   9.288   9.259 -1.5013  2.7339  0.4988
 2719SOL     OW20215   9.608   2.197   3.130 -0.2726 -0.6148  0.1093
 2719SOL    HW120216   9.684   2.192   3.195  1.0311  3.8060 -0.9244
 2719SOL    HW220217   9.538   2.259   3.166 -0.1584  0.7911 -1.9916
 2720SOL     OW20218   6.387   3.663   0.963  0.1153 -0.2798  0.4580
 2720SOL    HW120219   6.287   3.668   0.966  0.1061 -0.9479  1.3249
 2720SOL    HW220220   6.418   3.665   0.867 -0.7183 -0.0416  0.1906
 2721SOL     OW20221   4.585   4.987   0.273 -0.4276  0.0843  0.2214
 2721SOL    HW120222   4.663   4.958   0.329 -0.1180  0.4548 -0.0131
 2721SOL    HW220223   4.549   4.909   0.223  0.1859  0.0374 -0.1483
 2722SOL     OW20224   9.970   3.250   6.525 -0.2343  0.5513 -0.0626
 2722SOL    HW120225   9.925   3.294   6.447  0.4607  2.6378  0.6756
 2722SOL    HW220226   9.981   3.152   6.506  0.3030  1.0769 -2.7845
 2723SOL     OW20227   0.305   6.683   5.440  0.4478 -0.4823  0.0757
 2723SOL    HW120228   0.270   6.597   5.477 -0.3615 -0.2819 -0.1920
 2723SOL    HW220229   0.397   6.701   5.475  0.6377 -1.4813  0.0872
 2724SOL     OW20230   4.423   1.447   1.209 -0.5588 -0.3826 -0.0682
 2724SOL    HW120231   4.383   1.356   1.200 -0.1856 -0.4806 -0.7315
 2724SOL    HW220232   4.516   1.447   1.171 -1.2639  0.7633 -1.8118
 2725SOL     OW20233   1.244   6.552   6.755 -0.1752  0.8162  0.3271
 2725SOL    HW120234   1.164   6.516   6.706 -0.6341  1.8620  0.3079
 2725SOL    HW220235   1.234   6.532   6.852  0.1123 -0.1041  0.1760
 2726SOL     OW20236   0.460   7.890   1.240  0.4786 -0.3420  0.5445
 2726SOL    HW120237   0.476   7.914   1.144 -1.1590 -0.9374  0.1218
 2726SOL    HW220238   0.399   7.957   1.281 -0.3642 -1.1592  0.6357
 2727SOL     OW20239   4.973   9.737   4.734  0.4174  0.0194  0.7159
 2727SOL    HW120240   5.071   9.732   4.748  0.4637 -1.1295 -0.0113
 2727SOL    HW220241   4.947   9.832   4.712  1.1868  0.5654  2.0837
 2728SOL     OW20242   7.833   2.656   9.116 -0.5022 -1.1604 -0.0156
 2728SOL    HW120243   7.922   2.697   9.093 -0.3619 -2.9321 -2.9291
 2728SOL    HW220244   7.763   2.727   9.119  0.6554 -0.0172  0.2308
 2729SOL     OW20245   1.129   8.172   4.998 -0.0509 -0.4379  0.0502
 2729SOL    HW120246   1.178   8.258   4.980  0.2925 -0.6063  0.1817
 2729SOL    HW220247   1.108   8.127   4.911 -1.4310  0.4403 -0.0916
 2730SOL     OW20248   0.544   1.715   4.118 -0.1355  0.1710  0.1374
 2730SOL    HW120249   0.534   1.814   4.105  0.2363 -0.0100 -1.7468
 2730SOL    HW220250   0.458   1.670   4.096  0.5796 -0.1716 -2.0714
 2731SOL     OW20251   6.869   1.993   6.147 -0.2276  0.1396 -0.1863
 2731SOL    HW120252   6.790   2.037   6.189 -0.2740 -0.6824  0.6274
 2731SOL    HW220253   6.840   1.910   6.099  0.2774 -0.9170  1.2639
 2732SOL     OW20254   3.244   3.003   1.638 -0.3979  0.0730 -0.5491
 2732SOL    HW120255   3.313   3.055   1.587  1.6936  0.4046  2.4844
 2732SOL    HW220256   3.283   2.915   1.666 -1.4758 -0.0683  0.5321
 2733SOL     OW20257   3.862   7.648   1.209 -0.1649 -0.0550 -0.1751
 2733SOL    HW120258   3.856   7.655   1.309 -1.1976 -0.0939 -0.2303
 2733SOL    HW220259   3.799   7.577   1.177  0.4389 -0.2980 -0.8214
 2734SOL     OW20260   8.601   6.376   2.883  0.1433  0.1879 -0.4317
 2734SOL    HW120261   8.612   6.473   2.904  0.0782  0.3922 -1.3277
 2734SOL    HW220262   8.687   6.339   2.847  0.3954 -0.2733  0.6338
 2735SOL     OW20263   1.146   2.947   5.627  0.1286 -0.2179  0.0448
 2735SOL    HW120264   1.107   2.922   5.539 -0.1901  0.6077 -0.0509
 2735SOL    HW220265   1.214   3.019   5.615 -1.6306  1.5758  0.7353
 2736SOL     OW20266   4.910   6.390   1.836  0.3061  0.0938 -0.5640
 2736SOL    HW120267   4.926   6.399   1.934  1.3326 -1.3532 -0.6015
 2736SOL    HW220268   4.861   6.472   1.803 -1.7215 -0.2368  1.4850
 2737SOL     OW20269   8.318   2.365   3.653 -0.3085 -0.0163  0.0870
 2737SOL    HW120270   8.396   2.338   3.597 -0.6426  0.5580 -0.6783
 2737SOL    HW220271   8.249   2.408   3.594  0.2052  2.4825  1.2555
 2738SOL     OW20272   1.708   9.473   2.042  0.4064 -0.2524 -0.6709
 2738SOL    HW120273   1.625   9.487   1.988 -0.7696 -0.3641  1.0534
 2738SOL    HW220274   1.709   9.379   2.076  0.9579 -0.0818 -0.2124
 2739SOL     OW20275   6.517   3.096   0.266 -0.1061 -0.1820  0.2849
 2739SOL    HW120276   6.563   3.124   0.351  1.4113 -2.2821  0.1890
 2739SOL    HW220277   6.434   3.151   0.253  2.3997  3.8148  0.4160
 2740SOL     OW20278   1.562   1.722   4.453 -0.5665  0.3487 -0.1795
 2740SOL    HW120279   1.641   1.780   4.472 -0.4679  0.2816 -0.3773
 2740SOL    HW220280   1.527   1.744   4.361 -0.3361 -0.1236 -0.3806
 2741SOL     OW20281   7.105   4.156   9.682 -0.1637 -0.1791 -0.0312
 2741SOL    HW120282   7.058   4.155   9.594  0.3442  1.6686 -0.3443
 2741SOL    HW220283   7.202   4.175   9.668  0.1700 -1.1556  0.8354
 2742SOL     OW20284   1.434   1.487   4.556 -1.2184 -0.3758  0.3525
 2742SOL    HW120285   1.468   1.565   4.504 -3.5064  1.2493  1.1827
 2742SOL    HW220286   1.489   1.476   4.639  0.6954 -1.2514 -1.0046
 2743SOL     OW20287   6.380   5.166   7.213 -0.1678  0.2204 -0.3711
 2743SOL    HW120288   6.426   5.200   7.296  0.2394  0.5480 -0.7274
 2743SOL    HW220289   6.362   5.243   7.152  0.1520 -0.1166 -0.8879
 2744SOL     OW20290   5.384   4.759   1.188  0.3532  0.1476 -0.0284
 2744SOL    HW120291   5.456   4.736   1.254  0.9140 -1.0980 -1.0559
 2744SOL    HW220292   5.304   4.702   1.205 -0.3743  1.4579  1.0449
 2745SOL     OW20293   1.521   2.559   7.469 -0.2703 -0.1873 -0.7173
 2745SOL    HW120294   1.451   2.578   7.401 -0.4624 -0.1868 -0.5177
 2745SOL    HW220295   1.611   2.563   7.426 -0.3851 -0.0663 -0.9447
 2746SOL     OW20296   3.704   1.430   4.394  0.6055  0.1356 -0.5135
 2746SOL    HW120297   3.634   1.381   4.446  1.6934  0.1625  0.9986
 2746SOL    HW220298   3.681   1.425   4.296 -2.0966  1.1000  0.0140
 2747SOL     OW20299   8.296   4.310   0.995  0.2016  0.3904  0.2761
 2747SOL    HW120300   8.376   4.300   0.937 -1.8892  0.2432 -2.7102
 2747SOL    HW220301   8.278   4.224   1.044  1.4603  0.2353  0.4732
 2748SOL     OW20302   1.382   9.468   5.603  0.2776  0.0232  0.0863
 2748SOL    HW120303   1.375   9.369   5.593 -0.0393 -0.1680  1.8796
 2748SOL    HW220304   1.414   9.489   5.696 -0.4234  1.6134 -0.0254
 2749SOL     OW20305   3.176   5.404   8.058  0.1605 -0.4778  1.0080
 2749SOL    HW120306   3.265   5.390   8.014 -0.3946  1.9653 -1.0292
 2749SOL    HW220307   3.168   5.500   8.087 -1.8101 -0.6707  1.1693
 2750SOL     OW20308   3.552   0.080   8.326  0.1050  0.3860 -0.0626
 2750SOL    HW120309   3.511   0.135   8.254 -1.7744 -0.8111  0.0609
 2750SOL    HW220310   3.651   0.077   8.313 -0.0649  1.3802 -1.7476
 2751SOL     OW20311   7.067   0.986   3.184 -0.3601 -0.6124 -0.6339
 2751SOL    HW120312   7.039   0.891   3.172  0.6712 -0.9441 -0.5012
 2751SOL    HW220313   7.163   0.996   3.158 -0.2889  0.2644 -0.0747
 2752SOL     OW20314   6.664   5.088   7.432  0.1534 -0.1941  0.2915
 2752SOL    HW120315   6.661   5.184   7.401  1.1878  0.9880  3.6650
 2752SOL    HW220316   6.571   5.055   7.446 -0.1753  0.7462  0.3872
 2753SOL     OW20317   0.661   1.931   3.824  0.1883 -0.6683  0.1413
 2753SOL    HW120318   0.644   1.992   3.746 -2.6074  1.4593  2.3021
 2753SOL    HW220319   0.599   1.853   3.820 -0.1128 -0.4414  0.3284
 2754SOL     OW20320   1.975   3.573   2.104 -0.0426  0.7726  0.1652
 2754SOL    HW120321   2.007   3.633   2.177 -0.3626  0.3293  0.6739
 2754SOL    HW220322   2.014   3.603   2.017  0.7311  1.0013  0.5886
 2755SOL     OW20323   1.344   0.542   0.712 -0.3319 -0.0501 -0.0818
 2755SOL    HW120324   1.427   0.592   0.737  0.0527 -0.5991 -0.2469
 2755SOL    HW220325   1.314   0.571   0.621  0.2015 -0.5138 -0.4077
 2756SOL     OW20326   4.233   6.078   2.845  0.0215  0.3066  0.1277
 2756SOL    HW120327   4.205   6.092   2.940  0.6454  2.3448  0.0373
 2756SOL    HW220328   4.260   6.166   2.805  0.7898 -0.6977 -1.6083
 2757SOL     OW20329   6.413   0.882   6.805  0.7999 -0.2580 -0.0108
 2757SOL    HW120330   6.390   0.880   6.902  1.0933 -2.6606  0.0248
 2757SOL    HW220331   6.378   0.967   6.764 -1.2404 -0.2453  1.7030
 2758SOL     OW20332   1.605   8.984   9.967 -0.5695  0.0299 -0.4182
 2758SOL    HW120333   1.661   8.931  10.031 -0.2849  0.7323 -0.0910
 2758SOL    HW220334   1.558   9.057  10.016 -0.7220  0.2752 -0.9290
 2759SOL     OW20335   1.823   2.977   6.410 -0.0358 -0.3090 -0.1274
 2759SOL    HW120336   1.800   2.880   6.412 -0.9347 -0.0967  0.0731
 2759SOL    HW220337   1.830   3.011   6.504  1.6327 -0.4939 -0.1809
 2760SOL     OW20338   2.704   5.627   3.744  0.3757  0.5133 -0.1612
 2760SOL    HW120339   2.663   5.602   3.656 -0.6177  0.0014  0.4270
 2760SOL    HW220340   2.803   5.627   3.737  0.3183 -0.6125 -0.9940
 2761SOL     OW20341   1.380   6.817   6.153 -0.0375 -0.3421 -0.1208
 2761SOL    HW120342   1.298   6.765   6.130 -0.0015 -0.5457  0.2108
 2761SOL    HW220343   1.369   6.912   6.124 -1.1152  0.0572  1.5346
 2762SOL     OW20344   8.385   2.376   1.762 -0.4282 -0.5072 -0.5476
 2762SOL    HW120345   8.391   2.335   1.671  0.7789 -0.9195 -0.2853
 2762SOL    HW220346   8.300   2.347   1.806 -0.4487 -1.2570 -1.0798
 2763SOL     OW20347   1.050   4.300   0.752  0.6944  0.0902 -0.6036
 2763SOL    HW120348   1.075   4.223   0.694 -2.3782 -0.2008 -1.6204
 2763SOL    HW220349   0.971   4.275   0.809  1.8549  1.3312  1.6418
 2764SOL     OW20350   6.898   2.489   3.375 -0.8223  0.2571  0.2782
 2764SOL    HW120351   6.950   2.508   3.292 -0.9078 -0.0716  0.1484
 2764SOL    HW220352   6.815   2.437   3.351 -1.0249  0.4642  0.5244
 2765SOL     OW20353   8.008   1.654   3.256  0.3479  0.8434  0.3681
 2765SOL    HW120354   7.964   1.594   3.189  0.4961  1.6385 -0.4464
 2765SOL    HW220355   8.038   1.599   3.335 -0.7676  0.0687  0.2630
 2766SOL     OW20356   8.013   5.376   0.292  1.1442  0.5544  0.1717
 2766SOL    HW120357   8.095   5.423   0.261  1.4616 -0.8962 -1.2050
 2766SOL    HW220358   8.020   5.278   0.273 -1.5629  0.6220 -1.4494
 2767SOL     OW20359   8.348   4.327   3.309 -0.1351  0.0823 -0.0693
 2767SOL    HW120360   8.421   4.316   3.377  1.3363 -1.1940 -1.8108
 2767SOL    HW220361   8.317   4.236   3.279  0.1618  0.6229 -2.0648
 2768SOL     OW20362   9.671   3.559   4.606  0.3267 -0.2118 -0.3655
 2768SOL    HW120363   9.698   3.624   4.678 -0.8141  1.5368 -1.4646
 2768SOL    HW220364   9.722   3.579   4.522  1.1546 -1.8066 -0.2586
 2769SOL     OW20365   9.008   6.938   4.716  0.6418 -0.1759 -0.1767
 2769SOL    HW120366   9.059   6.856   4.690  1.2092 -0.1917  0.9814
 2769SOL    HW220367   8.929   6.948   4.656 -0.9462 -3.0222  1.3474
 2770SOL     OW20368   4.415   8.732   0.173 -0.3756 -0.3797 -0.1410
 2770SOL    HW120369   4.384   8.825   0.153 -0.4491 -0.1579  1.0042
 2770SOL    HW220370   4.337   8.670   0.172 -0.0160 -0.9067 -3.4751
 2771SOL     OW20371   1.887   9.665   9.472  0.0767 -0.4490 -0.1223
 2771SOL    HW120372   1.979   9.628   9.461 -0.2028 -0.6687 -1.8905
 2771SOL    HW220373   1.851   9.693   9.383 -2.3497 -2.2433  0.2175
 2772SOL     OW20374   9.283   5.382   8.276  0.4779  0.1242 -0.6116
 2772SOL    HW120375   9.258   5.286   8.261 -0.0371  0.6028 -2.9893
 2772SOL    HW220376   9.204   5.441   8.259  0.7231  0.9799  1.0707
 2773SOL     OW20377   7.658   8.892   3.709  1.0469  0.3950 -0.7054
 2773SOL    HW120378   7.586   8.961   3.709  0.4122 -0.2396  0.5260
 2773SOL    HW220379   7.619   8.804   3.680  0.9247 -0.3123  1.4795
 2774SOL     OW20380   8.950   7.569   7.354 -0.1975 -0.2399  0.9594
 2774SOL    HW120381   9.037   7.521   7.371  0.1094  0.5485  1.6289
 2774SOL    HW220382   8.969   7.656   7.308 -0.7477 -0.6885 -0.1328
 2775SOL     OW20383   5.042   8.143   2.422  0.4031  0.2597  0.0937
 2775SOL    HW120384   5.038   8.044   2.428 -0.9647  0.3891  1.6192
 2775SOL    HW220385   5.092   8.179   2.501  1.3936  0.7565 -0.7493
 2776SOL     OW20386   4.343   8.674   8.251 -0.6452  0.5930  0.4899
 2776SOL    HW120387   4.359   8.616   8.331  1.7003 -2.8163 -2.2632
 2776SOL    HW220388   4.402   8.754   8.257  1.4078 -0.8915  1.0519
 2777SOL     OW20389   9.757   3.605   9.551 -0.0768 -0.0006 -0.1714
 2777SOL    HW120390   9.747   3.543   9.473  0.2493  0.5406 -0.6482
 2777SOL    HW220391   9.853   3.635   9.558 -0.4848  1.4657 -0.7330
 2778SOL     OW20392   7.747   2.179   1.415  0.0558  0.2190 -0.0180
 2778SOL    HW120393   7.691   2.097   1.402 -0.4821  0.6596 -0.5065
 2778SOL    HW220394   7.768   2.191   1.512 -0.1914 -0.2818  0.0938
 2779SOL     OW20395   2.040   8.153   5.834  0.8374  0.7488  0.3745
 2779SOL    HW120396   2.062   8.166   5.738 -0.7678 -2.7143 -0.5430
 2779SOL    HW220397   2.089   8.073   5.869  0.8044  1.5161  2.2437
 2780SOL     OW20398   0.295   4.642   2.766  0.0144  0.7019 -0.3680
 2780SOL    HW120399   0.201   4.649   2.801 -0.4481 -1.0781 -1.2030
 2780SOL    HW220400   0.352   4.595   2.833  0.3985  2.0572  0.2721
 2781SOL     OW20401   1.078   7.199   1.042 -0.1717  0.3103  0.2634
 2781SOL    HW120402   1.127   7.261   1.102  2.6176 -0.6076 -0.9952
 2781SOL    HW220403   1.125   7.110   1.040 -1.0204 -0.1253 -2.1349
 2782SOL     OW20404   1.635   4.227   7.250 -0.7005 -0.6466 -1.0300
 2782SOL    HW120405   1.550   4.225   7.303 -0.6051  2.0127 -0.7268
 2782SOL    HW220406   1.681   4.139   7.259 -2.1422 -1.2438  0.9171
 2783SOL     OW20407   7.773   6.893   2.280 -0.1552  0.1310  0.0770
 2783SOL    HW120408   7.752   6.990   2.283 -0.8545 -0.0492  1.3747
 2783SOL    HW220409   7.750   6.851   2.368 -0.2422 -1.2831 -0.6066
 2784SOL     OW20410   0.832   9.207   2.854 -0.0010 -0.3041 -0.5062
 2784SOL    HW120411   0.817   9.118   2.895  1.2363 -0.8872 -1.2833
 2784SOL    HW220412   0.922   9.242   2.880 -1.3858  1.7828  1.6771
 2785SOL     OW20413   4.771   2.175   5.322 -0.3990 -0.1609  0.2563
 2785SOL    HW120414   4.842   2.146   5.387 -0.1729  0.2758  0.2029
 2785SOL    HW220415   4.681   2.154   5.360 -0.2362 -0.9125  0.2336
 2786SOL     OW20416   1.745   4.184   8.216  0.5193 -0.8453 -0.2433
 2786SOL    HW120417   1.693   4.185   8.131 -0.9187 -2.7540  0.5528
 2786SOL    HW220418   1.777   4.091   8.234 -0.9883 -0.9137  2.3235
 2787SOL     OW20419   1.281   2.942   2.764  0.6480 -0.2415 -0.8797
 2787SOL    HW120420   1.213   3.001   2.807 -0.7670 -1.8654 -0.8113
 2787SOL    HW220421   1.328   2.889   2.834  1.4744  0.3436 -0.9891
 2788SOL     OW20422   3.545   4.138   1.083  0.5162  0.4232 -0.1867
 2788SOL    HW120423   3.573   4.044   1.066  0.6001  0.4671 -0.2964
 2788SOL    HW220424   3.519   4.181   0.996  2.4335  1.1276 -0.4446
 2789SOL     OW20425   4.321   9.319   4.283 -0.4785  1.0648 -0.0662
 2789SOL    HW120426   4.405   9.320   4.228 -0.3824 -0.3833  0.0298
 2789SOL    HW220427   4.341   9.348   4.376 -0.3200  1.8960 -0.3577
 2790SOL     OW20428   0.640   4.622   2.834  0.3131 -0.2320  0.0747
 2790SOL    HW120429   0.618   4.718   2.816  0.7357 -0.1724 -0.1214
 2790SOL    HW220430   0.573   4.584   2.897  1.2612  0.7690  1.7357
 2791SOL     OW20431   5.130   9.072   2.572 -0.0579  0.3637 -0.1240
 2791SOL    HW120432   5.168   9.067   2.480 -1.0776  3.1442 -0.7441
 2791SOL    HW220433   5.038   9.109   2.568 -0.1608  0.4038  2.0265
 2792SOL     OW20434   2.544   7.815   0.778 -0.2836 -0.3828  0.4695
 2792SOL    HW120435   2.538   7.765   0.864 -0.5376  0.4448  0.9346
 2792SOL    HW220436   2.586   7.904   0.794 -0.2406 -0.2616 -0.2804
 2793SOL     OW20437   0.164   6.885   6.220 -0.8006 -0.1358 -0.5449
 2793SOL    HW120438   0.227   6.940   6.165  1.1305  0.0305  1.7564
 2793SOL    HW220439   0.217   6.826   6.281 -2.8838  0.4786  1.9042
 2794SOL     OW20440   2.140   6.622   0.411  0.0928 -0.1895  0.6077
 2794SOL    HW120441   2.054   6.571   0.422 -0.0937  0.1760  0.8603
 2794SOL    HW220442   2.215   6.558   0.399 -0.3028 -0.5064 -0.2260
 2795SOL     OW20443   1.374   8.722   9.206  0.4895  0.7434  0.1512
 2795SOL    HW120444   1.329   8.691   9.123 -0.3401 -0.0140  0.8770
 2795SOL    HW220445   1.438   8.652   9.238 -1.0230 -0.0460  1.5172
 2796SOL     OW20446   7.706   2.027   8.647  0.1361  0.2053  0.4250
 2796SOL    HW120447   7.804   2.044   8.640  0.2489 -0.3082  0.7632
 2796SOL    HW220448   7.690   1.944   8.700 -0.4305 -0.5405 -0.8873
 2797SOL     OW20449   3.154   4.867   4.490  0.0265 -0.1788 -0.2562
 2797SOL    HW120450   3.253   4.882   4.500 -0.2754  2.1117 -0.4315
 2797SOL    HW220451   3.106   4.954   4.502 -2.1856 -1.6645  2.2394
 2798SOL     OW20452   1.962   4.594   6.082  0.4631  0.5124 -0.2873
 2798SOL    HW120453   1.918   4.677   6.048 -0.8320 -0.1356 -0.2213
 2798SOL    HW220454   1.911   4.557   6.160  0.6983 -0.6488 -0.6620
 2799SOL     OW20455   5.326   0.183   4.279 -0.3206 -0.1812  0.1277
 2799SOL    HW120456   5.372   0.259   4.235 -0.9911  1.4014  2.0827
 2799SOL    HW220457   5.383   0.149   4.355 -0.9002 -0.3310  0.5020
 2800SOL     OW20458   8.772   2.690   2.525  0.4126  0.3109  0.6299
 2800SOL    HW120459   8.744   2.778   2.563 -0.9521  0.8173 -1.5169
 2800SOL    HW220460   8.779   2.696   2.426 -0.7864 -2.2769  0.3370
 2801SOL     OW20461   3.287   7.046   4.726 -0.2808 -0.1202  0.3415
 2801SOL    HW120462   3.351   7.122   4.715  0.1208 -0.6495 -1.1329
 2801SOL    HW220463   3.333   6.960   4.704 -1.5014 -0.5071 -0.7473
 2802SOL     OW20464   0.944   4.227   6.425  0.2209 -0.1429  0.7004
 2802SOL    HW120465   0.967   4.131   6.407  0.4034 -0.5478  3.0067
 2802SOL    HW220466   0.849   4.234   6.456 -0.4929  0.7015 -1.5193
 2803SOL     OW20467   7.765   0.577   5.392  0.4891  0.1493 -0.0721
 2803SOL    HW120468   7.775   0.611   5.486  0.8776  1.1574 -0.4789
 2803SOL    HW220469   7.761   0.654   5.329 -0.7226 -0.4987 -0.8042
 2804SOL     OW20470   6.620   1.274   0.453 -0.2699  0.4811 -0.2972
 2804SOL    HW120471   6.536   1.222   0.466  0.4804 -0.7007 -0.1477
 2804SOL    HW220472   6.698   1.223   0.490  0.7950  0.6713 -2.2266
 2805SOL     OW20473   3.893   2.812   4.899 -0.5072 -0.3789 -0.1691
 2805SOL    HW120474   3.862   2.907   4.890  3.8516  1.0708 -0.8927
 2805SOL    HW220475   3.884   2.784   4.995 -0.8260  1.1488  0.2694
 2806SOL     OW20476   3.117   4.512   3.630  0.1003 -0.0211  0.4919
 2806SOL    HW120477   3.070   4.494   3.716  0.2844  1.2616  0.8769
 2806SOL    HW220478   3.082   4.452   3.559 -0.7880 -0.3672  1.2195
 2807SOL     OW20479   0.189   4.940   1.655  0.7422 -0.5138 -0.7801
 2807SOL    HW120480   0.254   4.965   1.584  1.0268  1.9358  0.3113
 2807SOL    HW220481   0.100   4.982   1.635  0.9573  0.6152  0.5467
 2808SOL     OW20482   9.070   4.786   2.611  0.0716 -0.0433  0.0824
 2808SOL    HW120483   9.028   4.829   2.691 -2.3271 -1.2054 -0.5225
 2808SOL    HW220484   9.005   4.722   2.569  2.5274 -2.0714 -0.7454
 2809SOL     OW20485   2.039   5.250   3.750  0.0452 -0.4346  0.1505
 2809SOL    HW120486   1.970   5.322   3.743  1.4469  0.8931 -0.3337
 2809SOL    HW220487   2.118   5.285   3.801  2.0082 -0.6244 -2.6794
 2810SOL     OW20488   4.758   0.487   8.340 -0.0797  0.1750  0.2396
 2810SOL    HW120489   4.758   0.539   8.254 -1.5749 -0.6060 -0.2652
 2810SOL    HW220490   4.741   0.548   8.417  0.6478  0.7916 -0.0872
 2811SOL     OW20491   7.481   6.187   5.366 -1.1427  0.0188 -0.0414
 2811SOL    HW120492   7.569   6.224   5.335 -0.0141 -0.9968  1.8481
 2811SOL    HW220493   7.436   6.139   5.291  0.5806 -0.6554 -0.6695
 2812SOL     OW20494   8.714   6.313   9.587  0.1030  0.3665  0.2213
 2812SOL    HW120495   8.745   6.243   9.524 -0.6237 -0.9424  1.2876
 2812SOL    HW220496   8.645   6.275   9.649 -2.8566  2.8699 -1.3328
 2813SOL     OW20497   5.319   9.104   7.139 -0.0541 -0.0606 -0.0914
 2813SOL    HW120498   5.417   9.104   7.122 -0.1550  0.6712 -0.7228
 2813SOL    HW220499   5.282   9.014   7.119  0.0346  0.4454 -2.6973
 2814SOL     OW20500   8.761   1.963   6.495 -0.3642  0.2367  0.3988
 2814SOL    HW120501   8.691   1.895   6.476 -0.9108  0.9158 -0.0263
 2814SOL    HW220502   8.846   1.937   6.449  0.2843 -1.6609  2.5649
 2815SOL     OW20503   1.407   2.553   4.313  0.1829  0.5482 -0.4168
 2815SOL    HW120504   1.428   2.551   4.411 -1.2334  2.4846 -0.0375
 2815SOL    HW220505   1.311   2.577   4.300  0.0510 -0.8634 -2.2736
 2816SOL     OW20506   4.618   4.407   9.225 -0.0177 -0.1222 -0.5357
 2816SOL    HW120507   4.529   4.450   9.237 -0.4453 -0.4023 -2.5832
 2816SOL    HW220508   4.684   4.450   9.286 -0.8680  2.1319 -1.1576
 2817SOL     OW20509   7.576   1.675   2.489  0.1655 -0.1187  0.2554
 2817SOL    HW120510   7.602   1.598   2.546  0.1089 -0.0335  0.3978
 2817SOL    HW220511   7.602   1.658   2.394 -1.3355 -1.0204 -0.0057
 2818SOL     OW20512   6.510   5.249   9.929 -0.3172  1.1286 -1.1145
 2818SOL    HW120513   6.421   5.237   9.973  0.1484 -1.4080 -0.8045
 2818SOL    HW220514   6.503   5.226   9.832  0.2029 -0.0161 -0.8878
 2819SOL     OW20515   1.898   7.123   1.414  1.0114  0.2074 -0.0505
 2819SOL    HW120516   1.936   7.199   1.361  0.2504  0.3468 -0.3991
 2819SOL    HW220517   1.925   7.037   1.370  0.5033  0.3183 -0.5946
 2820SOL     OW20518   4.082   1.485   8.448 -0.0801  0.2552 -0.7187
 2820SOL    HW120519   4.029   1.418   8.396  1.4402 -0.8223 -0.9490
 2820SOL    HW220520   4.046   1.492   8.541  1.8271 -3.5823  0.4500
 2821SOL     OW20521   1.603   5.106   8.722  0.0520 -0.2470  0.4060
 2821SOL    HW120522   1.691   5.069   8.750  0.4645  0.6434  0.2872
 2821SOL    HW220523   1.588   5.087   8.624  0.6652  0.6835  0.1282
 2822SOL     OW20524   9.510   7.865   4.406  0.1887  0.0688 -0.0723
 2822SOL    HW120525   9.442   7.870   4.333 -0.5050 -0.6163  0.5267
 2822SOL    HW220526   9.465   7.876   4.495  0.9548  0.3325  0.2846
 2823SOL     OW20527   2.766   3.954   8.130  0.7611 -0.0299 -0.4290
 2823SOL    HW120528   2.727   3.927   8.042 -0.0220 -0.7369  0.1278
 2823SOL    HW220529   2.726   3.898   8.203  1.3973  0.5558  0.3783
 2824SOL     OW20530   8.373   6.274   7.582  0.2974 -0.4475  0.2153
 2824SOL    HW120531   8.388   6.352   7.643  1.5510  0.5330 -1.3320
 2824SOL    HW220532   8.298   6.219   7.618 -0.4510  1.3293  1.4740
 2825SOL     OW20533   8.326   4.617   9.743  0.4411 -0.5686 -0.0523
 2825SOL    HW120534   8.272   4.696   9.771  2.1295  0.9788 -1.0306
 2825SOL    HW220535   8.322   4.607   9.643  1.3121 -0.8870 -0.0661
 2826SOL     OW20536   9.225   9.380   2.458 -0.3695 -0.0336 -0.3251
 2826SOL    HW120537   9.153   9.444   2.486 -0.7550 -0.2950 -0.7080
 2826SOL    HW220538   9.278   9.418   2.383  0.9549  0.8569  1.0330
 2827SOL     OW20539   4.859   2.452   4.900  0.0811  0.1200  0.1331
 2827SOL    HW120540   4.809   2.436   4.985 -0.0005  0.0776  0.0767
 2827SOL    HW220541   4.873   2.550   4.888 -1.3916  0.2439 -0.6640
 2828SOL     OW20542   2.880   4.886   9.879  0.0290 -0.5635 -0.4008
 2828SOL    HW120543   2.951   4.841   9.825 -2.0450 -1.0272 -2.8242
 2828SOL    HW220544   2.868   4.980   9.846 -0.1071 -0.3053  0.3789
 2829SOL     OW20545   9.859   6.669   9.880 -0.1280 -0.2158  0.4800
 2829SOL    HW120546   9.864   6.733   9.803  1.6137  0.1168  0.8566
 2829SOL    HW220547   9.769   6.677   9.924 -0.3539  1.1163 -0.2129
 2830SOL     OW20548   9.729   5.489   5.727 -0.1416  0.2738  0.3599
 2830SOL    HW120549   9.792   5.566   5.715  0.6386 -0.6249 -1.5677
 2830SOL    HW220550   9.777   5.414   5.774 -0.0625 -0.0651 -0.2640
 2831SOL     OW20551   1.082   9.301   3.036  0.3807 -0.2693  0.2649
 2831SOL    HW120552   1.179   9.321   3.022  0.3567  0.2088  0.7678
 2831SOL    HW220553   1.048   9.351   3.115 -0.6827  0.8652 -0.8796
 2832SOL     OW20554   0.439   9.963   3.960  0.0113  0.1299  0.1999
 2832SOL    HW120555   0.352   9.926   3.931 -0.1286 -0.8023  1.7256
 2832SOL    HW220556   0.511   9.895   3.947  0.4500  0.7645 -0.7168
 2833SOL     OW20557   8.647   3.660   3.710 -0.0780 -0.3655 -0.2089
 2833SOL    HW120558   8.725   3.664   3.647 -0.4668 -0.9746 -0.7352
 2833SOL    HW220559   8.671   3.603   3.789  0.7936  1.2721  0.7561
 2834SOL     OW20560   8.489   5.367   1.145 -0.1760 -0.4484 -0.1873
 2834SOL    HW120561   8.552   5.290   1.141 -0.5751 -0.7334 -1.1953
 2834SOL    HW220562   8.471   5.400   1.052  0.4364  1.2281  0.2666
 2835SOL     OW20563   7.281   9.884   7.438 -0.5902 -0.6123 -0.0092
 2835SOL    HW120564   7.368   9.885   7.389 -0.1025 -0.0771  0.8612
 2835SOL    HW220565   7.274   9.799   7.490 -0.4285 -0.4930  0.2073
 2836SOL     OW20566   7.643   2.026   9.745  0.2262  0.1436 -0.2572
 2836SOL    HW120567   7.573   1.957   9.763 -0.0921  0.3213 -0.7920
 2836SOL    HW220568   7.681   2.058   9.832 -1.8275  1.5498  0.1691
 2837SOL     OW20569   6.121   5.621   6.989 -0.3582 -0.5029  0.3704
 2837SOL    HW120570   6.188   5.592   6.920  0.6041 -1.2639  1.6004
 2837SOL    HW220571   6.133   5.719   7.007  0.5001 -0.6477  0.6439
 2838SOL     OW20572   7.603   7.505   4.018 -0.4723  0.1131  0.1359
 2838SOL    HW120573   7.508   7.477   4.028 -0.9928  1.4568 -0.8990
 2838SOL    HW220574   7.616   7.595   4.059  0.4599 -0.2265  0.6169
 2839SOL     OW20575   2.820   3.776   5.128  0.0972 -0.3330 -0.1638
 2839SOL    HW120576   2.778   3.749   5.215  1.3762 -0.6214  0.3825
 2839SOL    HW220577   2.799   3.871   5.108  0.5733  0.0147  0.9488
 2840SOL     OW20578   4.271   4.601   0.647 -0.3049 -1.2060 -0.4169
 2840SOL    HW120579   4.279   4.604   0.746  2.7105 -0.5378 -0.6554
 2840SOL    HW220580   4.269   4.506   0.617  1.5808 -1.4378  0.1159
 2841SOL     OW20581   6.958   9.052   9.018  0.0822 -0.3072  0.2541
 2841SOL    HW120582   6.947   8.955   8.997 -1.1056  0.3513 -2.3360
 2841SOL    HW220583   6.932   9.107   8.939  2.9516  2.0883  0.8634
 2842SOL     OW20584   9.568   0.902   7.359 -0.5153 -0.8916  0.0377
 2842SOL    HW120585   9.524   0.935   7.275  0.4801 -1.1489 -0.5996
 2842SOL    HW220586   9.650   0.958   7.377  0.1012 -1.7748  0.0104
 2843SOL     OW20587   0.968   9.615   0.117  0.2171  0.0161 -0.0627
 2843SOL    HW120588   0.905   9.549   0.077  0.7712 -1.5767  1.6290
 2843SOL    HW220589   0.916   9.692   0.156 -0.6324 -0.9051  0.6442
 2844SOL     OW20590   3.023   2.835   1.066  0.1954 -0.1566 -0.0857
 2844SOL    HW120591   3.071   2.922   1.054  0.9498 -0.4633  0.6490
 2844SOL    HW220592   3.087   2.766   1.100 -0.8742 -0.4263  1.4543
 2845SOL     OW20593   2.481   0.046   8.844 -0.4257  0.1792  0.2660
 2845SOL    HW120594   2.531   0.129   8.816 -0.1249 -0.6476 -1.7530
 2845SOL    HW220595   2.400   0.035   8.786 -0.4034 -0.9851  0.4497
 2846SOL     OW20596   7.743   4.661   7.355  0.1916 -0.5576 -0.1219
 2846SOL    HW120597   7.655   4.684   7.314 -0.4868 -1.5593  0.7283
 2846SOL    HW220598   7.774   4.573   7.319  2.0592  0.9269 -2.2773
 2847SOL     OW20599   0.911   3.007   6.114 -0.1905 -0.0080 -0.0937
 2847SOL    HW120600   0.967   2.971   6.040 -0.2955  0.5377 -0.4409
 2847SOL    HW220601   0.923   3.106   6.120 -1.0297  0.0971 -0.0945
 2848SOL     OW20602   7.985   2.308   0.232 -0.2054 -0.3599 -0.5411
 2848SOL    HW120603   7.926   2.327   0.154 -0.2376 -0.5704 -0.5670
 2848SOL    HW220604   8.080   2.304   0.203 -0.4298 -2.9380 -1.0064
 2849SOL     OW20605   2.840   1.007   5.144 -0.1590  0.4018  0.2387
 2849SOL    HW120606   2.895   1.002   5.227  0.8957  0.3455 -0.4603
 2849SOL    HW220607   2.793   0.920   5.130 -1.8944  1.0341  1.8117
 2850SOL     OW20608   0.947   5.405   9.981  0.5669 -0.0180  0.2640
 2850SOL    HW120609   1.038   5.448   9.981  0.9605 -0.8379  1.4621
 2850SOL    HW220610   0.908   5.411  10.073 -0.3841 -0.1379 -0.1271
 2851SOL     OW20611   7.394   0.980   2.211 -0.0117 -0.2591  0.3363
 2851SOL    HW120612   7.382   1.027   2.298  0.5931 -0.9720  0.8066
 2851SOL    HW220613   7.411   1.047   2.138 -1.2426  0.3914  0.6284
 2852SOL     OW20614   1.801   8.491   0.043  0.4743 -0.4035  0.2113
 2852SOL    HW120615   1.783   8.555  -0.032  3.3111 -0.6112 -0.6925
 2852SOL    HW220616   1.727   8.424   0.048 -1.0987  1.2126 -0.6509
 2853SOL     OW20617   5.747   9.393   3.971  0.0929 -0.1574 -0.1316
 2853SOL    HW120618   5.666   9.425   4.020  0.1748  0.3367 -0.3136
 2853SOL    HW220619   5.728   9.305   3.929 -0.2674 -0.1652  0.0474
 2854SOL     OW20620   9.284   6.824   6.089  0.4676 -0.1458 -0.6085
 2854SOL    HW120621   9.364   6.883   6.097  0.9901 -0.9456  0.0976
 2854SOL    HW220622   9.304   6.748   6.027  0.4353 -0.6413 -0.0139
 2855SOL     OW20623   3.913   6.727   7.677  0.2582 -0.3757  0.1513
 2855SOL    HW120624   3.859   6.647   7.650 -1.5120 -0.1012  2.7234
 2855SOL    HW220625   3.931   6.724   7.775  3.2910  0.5804 -0.3083
 2856SOL     OW20626   0.352   7.134   4.882 -0.4303 -0.5271  0.2237
 2856SOL    HW120627   0.298   7.172   4.807 -0.5084 -0.9891  0.0442
 2856SOL    HW220628   0.374   7.038   4.862 -1.3880 -0.9730  1.3048
 2857SOL     OW20629   2.450   5.682   2.896 -0.9041  0.7383  0.3039
 2857SOL    HW120630   2.467   5.719   2.987 -0.2078  0.5179  0.2638
 2857SOL    HW220631   2.465   5.753   2.828  0.6501  0.3376  0.2107
 2858SOL     OW20632   3.563   8.994   6.144  0.6254  0.3850  0.1058
 2858SOL    HW120633   3.482   8.969   6.197  0.8087 -1.0936 -0.2890
 2858SOL    HW220634   3.539   9.003   6.047  0.8682  0.2084  0.0263
 2859SOL     OW20635   9.963   6.493   3.709 -0.2360 -0.2074  0.0409
 2859SOL    HW120636   9.898   6.561   3.677  0.6134  0.0824 -1.0972
 2859SOL    HW220637  10.038   6.538   3.756 -1.0118 -0.5655  1.6486
 2860SOL     OW20638   2.700   2.009   7.729  0.6322  0.0883 -0.1091
 2860SOL    HW120639   2.770   2.066   7.686 -0.6100  0.9084 -1.0691
 2860SOL    HW220640   2.735   1.973   7.815  1.4771  2.2228  0.4747
 2861SOL     OW20641   9.992   9.493   0.972  0.2212  0.4362 -0.6387
 2861SOL    HW120642  10.036   9.483   0.882 -0.3539 -0.7520 -0.8039
 2861SOL    HW220643   9.893   9.484   0.961  0.1692  0.0114  0.1571
 2862SOL     OW20644   7.978   6.086   2.623 -1.0884  0.0300  0.0625
 2862SOL    HW120645   8.013   6.163   2.676  1.0635  0.1469 -1.4471
 2862SOL    HW220646   7.967   6.115   2.527  1.0007 -1.9028 -0.7840
 2863SOL     OW20647   7.283   1.450   6.922  0.7745 -0.3593 -0.8591
 2863SOL    HW120648   7.282   1.549   6.911  3.1154 -0.3364 -1.1487
 2863SOL    HW220649   7.231   1.424   7.003 -0.8295  0.9935 -1.4317
 2864SOL     OW20650   4.582   9.773   3.486 -0.1910 -0.3888 -0.1084
 2864SOL    HW120651   4.498   9.738   3.528 -0.3430 -0.2193 -0.2706
 2864SOL    HW220652   4.600   9.866   3.518  1.5467 -1.4593  2.2675
 2865SOL     OW20653   1.745   1.771   6.433  0.0236 -0.3642  0.0463
 2865SOL    HW120654   1.838   1.766   6.397 -0.0182 -3.4956  0.2357
 2865SOL    HW220655   1.719   1.867   6.445  3.2334  0.5579  0.0662
 2866SOL     OW20656   4.304   3.196   7.014 -0.3124 -0.3015  0.9529
 2866SOL    HW120657   4.260   3.275   7.058 -2.7347 -1.1791  0.2114
 2866SOL    HW220658   4.255   3.175   6.929  1.3064 -1.6218  0.3405
 2867SOL     OW20659   3.670   7.448   9.635 -0.4815  0.0118  0.5626
 2867SOL    HW120660   3.757   7.406   9.608 -1.0057 -1.2221  0.7770
 2867SOL    HW220661   3.598   7.416   9.575 -0.9487  0.3577  0.9375
 2868SOL     OW20662   4.470   2.150   2.508  0.1365  0.1681 -0.0628
 2868SOL    HW120663   4.481   2.095   2.425  0.7012  0.2116 -0.0167
 2868SOL    HW220664   4.541   2.220   2.512  1.0794 -0.8248  1.2240
 2869SOL     OW20665   8.780   5.417   5.209  0.2896  0.2769  0.2182
 2869SOL    HW120666   8.689   5.458   5.203  0.5418  0.9146  0.7472
 2869SOL    HW220667   8.837   5.471   5.271  0.2525 -1.5412  1.8834
 2870SOL     OW20668   8.338   1.885   5.392 -0.4328  0.1481 -0.2228
 2870SOL    HW120669   8.291   1.801   5.419  0.7978 -0.4354  0.1259
 2870SOL    HW220670   8.398   1.915   5.466 -0.9366  1.4016 -0.3033
 2871SOL     OW20671   2.166   0.997   6.767  0.1950  0.0154  0.7020
 2871SOL    HW120672   2.086   0.982   6.709  0.4895 -1.0872  0.5641
 2871SOL    HW220673   2.222   1.071   6.730  0.9998 -1.4639 -1.1175
 2872SOL     OW20674   2.062   9.861   9.701 -0.1651 -0.1430  0.2610
 2872SOL    HW120675   1.966   9.870   9.674 -0.0798  1.8496  0.5528
 2872SOL    HW220676   2.068   9.809   9.786 -0.6468 -3.9969 -1.9316
 2873SOL     OW20677   9.981   6.641   5.747  0.1179  0.6333 -0.0167
 2873SOL    HW120678   9.995   6.548   5.713 -2.9092  0.1830 -0.2170
 2873SOL    HW220679  10.033   6.705   5.692  0.3846 -0.7206 -1.3740
 2874SOL     OW20680   3.535   1.352   9.896  0.4109  0.4781 -0.1973
 2874SOL    HW120681   3.565   1.396   9.981 -0.8977  2.2149 -0.6129
 2874SOL    HW220682   3.540   1.417   9.821  1.3169 -0.9795 -1.4251
 2875SOL     OW20683   9.008   5.262   1.917  0.0182 -0.1190 -0.4654
 2875SOL    HW120684   9.072   5.321   1.966 -0.3229 -0.3090  0.2242
 2875SOL    HW220685   9.027   5.167   1.940 -0.5458 -0.1725 -0.2200
 2876SOL     OW20686   4.020   3.337   1.589  0.4895  0.7463 -0.8062
 2876SOL    HW120687   4.058   3.304   1.503 -2.5342 -0.4095 -1.7485
 2876SOL    HW220688   3.983   3.429   1.576  1.6790  1.3182 -0.2392
 2877SOL     OW20689   2.606   3.621   2.582 -0.2073 -0.1807 -0.3719
 2877SOL    HW120690   2.543   3.572   2.641 -0.5630  0.8662  0.1275
 2877SOL    HW220691   2.661   3.684   2.637  0.4875 -0.2647 -0.9580
 2878SOL     OW20692   9.934   5.706   9.491 -0.3043  0.0856 -0.1610
 2878SOL    HW120693   9.857   5.643   9.486  0.2652 -0.5731 -0.7960
 2878SOL    HW220694   9.957   5.738   9.399 -0.3711  0.9579  0.1194
 2879SOL     OW20695   4.169   6.826   9.990 -0.5276  0.1333  0.0773
 2879SOL    HW120696   4.225   6.762   9.938  1.7259  1.4180  0.8338
 2879SOL    HW220697   4.141   6.902   9.931 -3.4569 -1.6080 -0.9003
 2880SOL     OW20698   5.082   3.521   9.147  0.2393  0.5953  0.1237
 2880SOL    HW120699   5.168   3.478   9.121  0.4375  1.3508 -0.4769
 2880SOL    HW220700   5.100   3.601   9.204 -0.0875  0.4256  0.4678
 2881SOL     OW20701   8.462   4.547   0.573  0.2871 -0.4575 -0.0867
 2881SOL    HW120702   8.468   4.449   0.593  0.8268 -0.4727 -0.3104
 2881SOL    HW220703   8.366   4.574   0.566  0.1167 -0.8166  0.7498
 2882SOL     OW20704   8.324   0.231   3.190  0.0909  0.1994 -0.6819
 2882SOL    HW120705   8.359   0.181   3.269 -2.7352 -0.4356  0.2468
 2882SOL    HW220706   8.334   0.329   3.205  0.1769  0.0613  0.1838
 2883SOL     OW20707   1.736   5.911   1.240  0.6546  0.4263  0.6332
 2883SOL    HW120708   1.777   5.868   1.320 -0.7507  0.0945  1.2031
 2883SOL    HW220709   1.647   5.868   1.222  0.2844  1.5197 -0.1910
 2884SOL     OW20710   9.106   7.299   2.578 -0.2126  0.4506  0.3381
 2884SOL    HW120711   9.083   7.315   2.674 -0.2474 -1.4405  0.6757
 2884SOL    HW220712   9.190   7.348   2.554 -0.4367  1.2608  1.2233
 2885SOL     OW20713   4.585   8.753   1.829  0.3683  0.2601 -0.1334
 2885SOL    HW120714   4.500   8.731   1.782 -0.8545 -2.3240  3.0308
 2885SOL    HW220715   4.644   8.671   1.830  1.2084  0.8645  1.0392
 2886SOL     OW20716   9.000   1.940   7.199  0.4618  0.1929 -0.0158
 2886SOL    HW120717   8.925   1.882   7.232  0.8126 -0.0709  0.3189
 2886SOL    HW220718   8.989   1.954   7.101  1.4721 -2.1300 -0.5088
 2887SOL     OW20719   2.021   5.525   9.330 -0.8844  0.1947 -0.1022
 2887SOL    HW120720   1.978   5.613   9.310 -0.9856 -0.1428 -1.4184
 2887SOL    HW220721   2.025   5.471   9.246 -0.6147 -0.9626  0.6547
 2888SOL     OW20722   8.873   0.116   9.945 -0.3249  0.5410 -0.4087
 2888SOL    HW120723   8.893   0.166  10.029 -1.8843 -0.7920  0.7986
 2888SOL    HW220724   8.824   0.175   9.881 -0.5042  1.0988  0.2408
 2889SOL     OW20725   1.084   2.460   8.090 -0.7279 -0.5322 -0.1233
 2889SOL    HW120726   1.091   2.405   8.007 -1.2908 -0.2605 -0.3514
 2889SOL    HW220727   1.048   2.404   8.164 -2.0242 -0.2756 -0.5498
 2890SOL     OW20728   2.717   5.140   9.819 -0.3341  0.0360 -0.8647
 2890SOL    HW120729   2.629   5.093   9.831 -1.2072  1.1598 -2.6688
 2890SOL    HW220730   2.702   5.238   9.813  0.8971  0.1549 -2.3743
 2891SOL     OW20731   5.512   4.567   2.757 -0.0249  0.0784  0.4410
 2891SOL    HW120732   5.502   4.647   2.816 -1.5987 -0.4123  0.8611
 2891SOL    HW220733   5.542   4.489   2.813  0.6906  0.1689  0.1840
 2892SOL     OW20734   8.411   0.657   7.959  0.2839 -0.5492  0.1129
 2892SOL    HW120735   8.473   0.733   7.940 -0.8134 -0.1022 -1.8144
 2892SOL    HW220736   8.332   0.691   8.010  2.1858 -1.3570  3.7699
 2893SOL     OW20737   7.557   3.358   0.551 -0.3763  0.1063  0.4413
 2893SOL    HW120738   7.604   3.323   0.471  0.9925  0.2179  1.1671
 2893SOL    HW220739   7.491   3.428   0.524  0.1195  0.1783 -0.5777
 2894SOL     OW20740   5.391   1.555   5.119 -0.8238  0.1978 -0.0897
 2894SOL    HW120741   5.359   1.460   5.122  0.4355 -0.2648 -1.1193
 2894SOL    HW220742   5.420   1.578   5.026 -2.2348  1.9750 -0.1207
 2895SOL     OW20743   7.736   3.982   8.924  0.3573  0.6053 -0.0309
 2895SOL    HW120744   7.658   3.991   8.862  1.2236 -1.1896 -1.4501
 2895SOL    HW220745   7.798   3.912   8.888  2.7890  2.2359  0.8776
 2896SOL     OW20746   6.460   4.364   0.773 -0.4656  0.0643 -0.0424
 2896SOL    HW120747   6.525   4.293   0.799 -0.2281  0.5601  0.7263
 2896SOL    HW220748   6.478   4.446   0.826 -0.3236  0.9158 -1.3803
 2897SOL     OW20749   4.505   5.957   3.229  0.1596 -0.1608  0.4193
 2897SOL    HW120750   4.538   5.946   3.135 -0.2855  0.7602  0.1455
 2897SOL    HW220751   4.523   6.050   3.260 -1.4583  0.1464  0.5248
 2898SOL     OW20752   8.922   5.985   4.998  0.6836  0.1706  0.8424
 2898SOL    HW120753   8.984   5.949   4.928 -0.7877 -0.8716  0.0611
 2898SOL    HW220754   8.935   6.084   5.006  2.6609 -0.0723  0.9081
 2899SOL     OW20755   3.346   6.575   7.439  0.0638  0.5528  0.1710
 2899SOL    HW120756   3.265   6.627   7.414  0.3252  1.3485  0.9786
 2899SOL    HW220757   3.428   6.630   7.424  0.2373  1.0390  2.6867
 2900SOL     OW20758   3.748   1.060   5.272 -0.1054 -0.1337  0.0651
 2900SOL    HW120759   3.769   1.155   5.251 -2.1592  0.3248 -0.0545
 2900SOL    HW220760   3.673   1.056   5.338  0.2494 -1.6652  0.4067
 2901SOL     OW20761   8.968   2.194   5.311  0.2403 -0.0930  0.2569
 2901SOL    HW120762   8.973   2.231   5.403  1.7728  0.6877 -0.1088
 2901SOL    HW220763   9.005   2.101   5.311 -0.7012 -0.4706  0.6071
 2902SOL     OW20764   0.266   7.670   4.830  0.1516  0.3342 -0.1838
 2902SOL    HW120765   0.251   7.615   4.748  0.5488  0.2214 -0.1834
 2902SOL    HW220766   0.311   7.615   4.900 -1.4858  0.0152  0.6401
 2903SOL     OW20767   8.467   3.080   4.659 -0.0319 -0.2613  0.4877
 2903SOL    HW120768   8.381   3.119   4.689  0.3712  0.9247  0.1375
 2903SOL    HW220769   8.500   3.015   4.728 -1.5582 -1.2812  0.2742
 2904SOL     OW20770   0.423   0.253   1.062 -0.2174 -0.2914  0.2563
 2904SOL    HW120771   0.370   0.255   1.147  0.2309 -1.3029  0.5749
 2904SOL    HW220772   0.471   0.165   1.056 -0.3200 -0.2535 -1.0920
 2905SOL     OW20773   0.921   1.145   9.917 -0.6306 -0.4541  0.3463
 2905SOL    HW120774   0.859   1.211   9.959 -0.6720 -1.0516  1.2434
 2905SOL    HW220775   0.873   1.099   9.841 -1.1003 -0.5170  0.6757
 2906SOL     OW20776   6.546   6.119   1.322  0.3132  0.2481 -0.5012
 2906SOL    HW120777   6.538   6.123   1.422  0.0419  0.5669 -0.5348
 2906SOL    HW220778   6.498   6.196   1.282  2.4764  1.4966 -0.7820
 2907SOL     OW20779   9.020   8.883   0.944 -0.4062 -0.4280 -0.6154
 2907SOL    HW120780   8.963   8.921   0.871  0.1126  1.1765 -0.2092
 2907SOL    HW220781   9.115   8.907   0.929 -0.4712  1.1997  1.3410
 2908SOL     OW20782   1.132   4.086   4.403  0.0725 -0.2871  0.1125
 2908SOL    HW120783   1.185   4.017   4.354  1.9964  1.5929 -0.5478
 2908SOL    HW220784   1.041   4.092   4.363  0.5593 -1.0300 -1.1595
 2909SOL     OW20785   8.431   7.273   2.268 -0.2192 -0.1037 -0.0829
 2909SOL    HW120786   8.340   7.243   2.298 -0.1499 -0.4168 -0.1827
 2909SOL    HW220787   8.428   7.369   2.243 -0.8855 -0.5012 -1.5901
 2910SOL     OW20788   4.235   9.440   2.454  0.4972 -0.2087 -0.2316
 2910SOL    HW120789   4.143   9.477   2.465  0.4560 -0.3108 -0.2362
 2910SOL    HW220790   4.230   9.347   2.418  0.5870 -0.3510  0.1164
 2911SOL     OW20791   9.159   4.768   9.521  0.2281 -0.2160  0.4582
 2911SOL    HW120792   9.198   4.693   9.575 -0.1239 -0.7030  0.0402
 2911SOL    HW220793   9.078   4.803   9.567  0.1171 -0.4133  0.4146
 2912SOL     OW20794   7.283   5.926   6.438  0.3528  0.1308  0.4235
 2912SOL    HW120795   7.259   5.830   6.423  2.2990 -0.4503  0.8219
 2912SOL    HW220796   7.263   5.951   6.533  1.5834 -0.4356  0.8387
 2913SOL     OW20797   3.001   1.327   9.331 -0.3203  0.0578  0.5488
 2913SOL    HW120798   3.017   1.371   9.419 -0.9430  0.4858  0.4502
 2913SOL    HW220799   3.061   1.247   9.322  0.2777  0.4488  1.0404
 2914SOL     OW20800   1.803   0.229   4.190 -0.1223  0.0487 -0.2809
 2914SOL    HW120801   1.882   0.175   4.162  0.1739  0.2974  0.0690
 2914SOL    HW220802   1.786   0.301   4.122 -0.5403 -0.5067 -0.7651
 2915SOL     OW20803   4.866   1.848   6.740 -0.4025  0.5329 -0.6037
 2915SOL    HW120804   4.880   1.756   6.703  1.4565  0.3411  0.4722
 2915SOL    HW220805   4.898   1.916   6.674  0.8207  0.2849 -0.2782
 2916SOL     OW20806   9.045   2.574   1.913  0.7017 -0.0752  0.1939
 2916SOL    HW120807   9.103   2.632   1.971 -0.2844  1.0548  0.0719
 2916SOL    HW220808   8.963   2.625   1.888 -0.1663 -1.5308  0.0541
 2917SOL     OW20809   8.488   6.324   5.627 -0.3373  1.2174  0.3480
 2917SOL    HW120810   8.466   6.404   5.571  2.3557  1.6784 -0.1258
 2917SOL    HW220811   8.486   6.242   5.571 -1.5157  1.1368  0.4850
 2918SOL     OW20812   0.899   4.214   7.134  0.4040 -0.2762 -0.5501
 2918SOL    HW120813   0.951   4.190   7.052  0.4408  1.7486 -1.1401
 2918SOL    HW220814   0.810   4.251   7.107  0.6443  0.9435  0.3128
 2919SOL     OW20815   0.126   6.145   8.444  0.5919 -0.2415 -0.2892
 2919SOL    HW120816   0.207   6.202   8.430  1.1735 -0.6015  1.3743
 2919SOL    HW220817   0.079   6.174   8.528  0.1174 -1.2974 -0.1824
 2920SOL     OW20818   4.326   1.483   2.068  0.5203 -0.5523 -0.7628
 2920SOL    HW120819   4.292   1.391   2.053  0.1821 -0.3390 -1.3331
 2920SOL    HW220820   4.249   1.547   2.071  0.7601 -0.2725 -0.4767
 2921SOL     OW20821   6.625   0.337   2.654 -0.0297 -0.1630 -0.1611
 2921SOL    HW120822   6.712   0.311   2.612  0.2651  0.3700  0.1072
 2921SOL    HW220823   6.565   0.258   2.658  0.4949 -0.5707 -0.2300
 2922SOL     OW20824   2.544   5.177   9.394 -0.1136 -0.1163 -0.4991
 2922SOL    HW120825   2.498   5.216   9.315 -0.9173 -0.5183 -0.2306
 2922SOL    HW220826   2.579   5.086   9.370 -3.3368 -1.7057  0.5921
 2923SOL     OW20827   4.495   0.044   2.283 -0.0998  0.1523  0.2563
 2923SOL    HW120828   4.418   0.024   2.345  0.1960 -0.0904  0.5499
 2923SOL    HW220829   4.464   0.105   2.211 -1.0145 -1.2999 -0.6120
 2924SOL     OW20830   5.587   1.348   9.931  0.0985  0.6950 -0.3521
 2924SOL    HW120831   5.533   1.274   9.972  1.6773 -0.0101  0.5113
 2924SOL    HW220832   5.657   1.378   9.995  0.3239  2.0402 -1.2041
 2925SOL     OW20833   7.797   8.262   5.612  0.6059  0.0568  0.2693
 2925SOL    HW120834   7.748   8.199   5.551 -1.6857  0.8382  1.2235
 2925SOL    HW220835   7.833   8.338   5.559  1.0509 -0.6913 -0.5102
 2926SOL     OW20836   2.968   5.826   0.213  0.1152  0.1928 -0.1020
 2926SOL    HW120837   3.001   5.735   0.238  0.5514  0.2604 -0.4097
 2926SOL    HW220838   2.992   5.844   0.117  0.4372  0.8086  0.0903
 2927SOL     OW20839   2.058   8.496   1.215  0.6528 -0.0983  0.8524
 2927SOL    HW120840   1.997   8.528   1.287  1.3319  0.3487  1.2290
 2927SOL    HW220841   2.028   8.405   1.185 -1.5115  1.0473 -0.5174
 2928SOL     OW20842   8.217   4.497   5.813  0.3958  0.4174 -0.1341
 2928SOL    HW120843   8.126   4.481   5.852  0.4341 -0.3825 -0.3753
 2928SOL    HW220844   8.268   4.557   5.874 -0.1713  0.5966  0.1751
 2929SOL     OW20845   7.998   0.279   4.855 -0.3884  0.2604  0.2700
 2929SOL    HW120846   8.011   0.192   4.903  0.3428  1.3953  2.1758
 2929SOL    HW220847   7.988   0.353   4.921 -2.1293  1.4941 -1.3148
 2930SOL     OW20848   9.665   1.605   6.817 -0.5848  0.4165 -0.1987
 2930SOL    HW120849   9.570   1.635   6.820 -0.6481  0.2347 -0.4191
 2930SOL    HW220850   9.700   1.594   6.911 -0.7535  0.5684 -0.1198
 2931SOL     OW20851   0.245   3.414   6.850 -0.0138 -1.0161  0.1828
 2931SOL    HW120852   0.186   3.483   6.809  1.7404  1.2608  1.3766
 2931SOL    HW220853   0.261   3.340   6.785 -1.6169 -0.1288 -1.2488
 2932SOL     OW20854   2.580   4.091   3.975 -0.0976  0.2554 -0.5118
 2932SOL    HW120855   2.655   4.147   4.011  1.9627 -1.6457 -1.6819
 2932SOL    HW220856   2.568   4.011   4.034 -2.0056  1.1168  0.3000
 2933SOL     OW20857   8.038   9.052   7.524 -0.2222 -0.0604 -0.1229
 2933SOL    HW120858   8.046   9.126   7.591  2.1372 -0.7756  0.4316
 2933SOL    HW220859   7.992   8.974   7.566 -1.3293  0.5286 -0.2322
 2934SOL     OW20860   0.034   0.739  10.026 -0.0567 -0.4167 -0.3092
 2934SOL    HW120861   0.059   0.815   9.967 -1.8020 -1.7232 -2.7780
 2934SOL    HW220862   0.050   0.652   9.978  0.2404 -1.5850  1.8123
 2935SOL     OW20863   7.935   4.158   3.522 -0.4288  0.3519 -0.2434
 2935SOL    HW120864   7.851   4.158   3.576  1.0440  1.5506  2.1515
 2935SOL    HW220865   7.992   4.080   3.549 -0.4047  0.0024 -1.2771
 2936SOL     OW20866   9.529   6.848   2.792 -0.6255 -0.3936  0.3098
 2936SOL    HW120867   9.534   6.879   2.887 -1.2113  1.7268 -0.3099
 2936SOL    HW220868   9.575   6.915   2.733 -1.8416 -0.7577 -1.0829
 2937SOL     OW20869   1.712   9.030   4.965 -0.2744  0.1488 -0.8269
 2937SOL    HW120870   1.747   9.118   4.933 -0.0730  0.5206  0.3739
 2937SOL    HW220871   1.613   9.038   4.983 -0.0920  0.3865  0.1101
 2938SOL     OW20872   9.805   1.026   3.682  0.0421 -0.2476  0.6696
 2938SOL    HW120873   9.854   1.113   3.684 -0.4496 -0.0030  2.6559
 2938SOL    HW220874   9.862   0.957   3.637  0.2451  1.1807 -1.3801
 2939SOL     OW20875   4.880   7.995   2.732 -0.1759  0.4610  0.2355
 2939SOL    HW120876   4.895   7.955   2.641 -0.3650  1.4888 -0.2606
 2939SOL    HW220877   4.817   7.938   2.784 -1.5716  0.8641 -0.9873
 2940SOL     OW20878   3.620   9.598   6.480 -0.3122  0.2214  0.0844
 2940SOL    HW120879   3.654   9.530   6.545  2.4725  2.4880  1.1145
 2940SOL    HW220880   3.674   9.595   6.396  1.0591  2.3318  0.8460
 2941SOL     OW20881   4.928   2.479   6.310  0.0281 -0.0777  0.4291
 2941SOL    HW120882   4.953   2.556   6.370 -0.4003 -0.5089  1.1700
 2941SOL    HW220883   4.863   2.510   6.241 -0.0832  0.2490  0.6793
 2942SOL     OW20884   1.518   1.189   5.508 -0.0671  0.7664 -0.1237
 2942SOL    HW120885   1.461   1.186   5.591 -1.1722  2.7806 -0.7888
 2942SOL    HW220886   1.459   1.202   5.428  1.1484  0.5770 -1.0530
 2943SOL     OW20887   9.468   1.757   5.183 -0.0035  0.0773  0.4802
 2943SOL    HW120888   9.370   1.747   5.194 -0.1230  1.0537  0.3594
 2943SOL    HW220889   9.504   1.679   5.132 -0.8553  0.1820 -0.2861
 2944SOL     OW20890   6.350   3.192   9.754 -0.9336 -0.5960  0.5581
 2944SOL    HW120891   6.270   3.136   9.777 -0.5720 -0.2312  2.9066
 2944SOL    HW220892   6.350   3.274   9.811 -0.1735  0.6073 -1.1497
 2945SOL     OW20893   0.130   9.999   7.087 -0.5043  0.1307  0.6168
 2945SOL    HW120894   0.083   9.913   7.068  0.2492 -0.2372  0.3829
 2945SOL    HW220895   0.107  10.031   7.179 -0.8717 -0.2609  0.6616
 2946SOL     OW20896   0.368   3.127   3.896  0.3815  0.0309 -0.1986
 2946SOL    HW120897   0.405   3.041   3.860  1.3844  0.8695 -1.2410
 2946SOL    HW220898   0.422   3.156   3.975  0.9937  0.4498 -0.7597
 2947SOL     OW20899   7.046   1.881   1.132 -0.5807  0.4414  0.1194
 2947SOL    HW120900   7.084   1.816   1.066 -1.6004  0.1478 -0.1945
 2947SOL    HW220901   6.966   1.926   1.092  0.0494  1.8161  0.3809
 2948SOL     OW20902   8.461   0.880   1.548  0.6740 -0.2841  0.5277
 2948SOL    HW120903   8.437   0.785   1.531  1.1354  0.0620 -2.4471
 2948SOL    HW220904   8.553   0.898   1.513 -0.6343  1.9853 -1.9490
 2949SOL     OW20905   3.100   9.596   6.938  0.6146  0.1637  0.5926
 2949SOL    HW120906   3.021   9.640   6.980  0.3616  0.1849  0.0987
 2949SOL    HW220907   3.116   9.635   6.847  0.5549 -0.5689  0.2660
 2950SOL     OW20908   7.405   4.891  10.036  0.3349  0.2531  0.1299
 2950SOL    HW120909   7.418   4.828  10.112 -1.7303  0.1987  0.4716
 2950SOL    HW220910   7.381   4.840   9.954  0.6299  0.4615 -0.0899
 2951SOL     OW20911   0.917   8.929   3.814 -0.1347  0.5045 -0.5192
 2951SOL    HW120912   0.975   8.971   3.744 -1.1798  0.8723 -1.1584
 2951SOL    HW220913   0.843   8.879   3.771  0.3451 -0.9139  0.2863
 2952SOL     OW20914   7.966   5.446   6.543  0.2039 -0.2997 -0.1926
 2952SOL    HW120915   8.017   5.525   6.510 -1.9244  1.5821  0.9148
 2952SOL    HW220916   8.011   5.408   6.624  1.2214 -0.2445 -0.7235
 2953SOL     OW20917   3.738   5.042   0.790 -0.3734  0.0627 -0.3492
 2953SOL    HW120918   3.831   5.032   0.823 -0.6050 -0.1840  0.2339
 2953SOL    HW220919   3.707   4.955   0.750 -0.3781  0.1189 -0.4661
 2954SOL     OW20920   1.289   0.783   8.399 -0.2230 -0.5722 -0.3228
 2954SOL    HW120921   1.195   0.772   8.429 -0.9437  2.5751 -1.2573
 2954SOL    HW220922   1.305   0.728   8.317 -1.4051 -0.6844 -0.4866
 2955SOL     OW20923   4.454   1.612   2.250 -0.9142 -0.0985  0.3080
 2955SOL    HW120924   4.418   1.551   2.180 -1.3812 -0.7962  1.1368
 2955SOL    HW220925   4.519   1.676   2.209  1.6533 -2.8665 -0.1367
 2956SOL     OW20926   6.888   3.030   4.210 -0.2333 -0.1143 -0.4118
 2956SOL    HW120927   6.845   2.998   4.126  0.2971 -0.2907 -0.6201
 2956SOL    HW220928   6.935   3.117   4.193  0.0379 -0.2483 -0.3478
 2957SOL     OW20929   4.264   4.762   8.591  0.0345  0.3164 -0.2590
 2957SOL    HW120930   4.262   4.832   8.520  2.4168 -0.8250 -1.4845
 2957SOL    HW220931   4.336   4.696   8.572 -1.4900 -1.9239  1.4344
 2958SOL     OW20932   6.221   6.183   0.875  0.0113  0.1783  0.1618
 2958SOL    HW120933   6.312   6.176   0.836 -0.6611 -1.4442 -1.1592
 2958SOL    HW220934   6.154   6.144   0.812 -1.6850  1.9615  0.8183
 2959SOL     OW20935   5.208   6.412   1.024  0.3246 -0.3612  0.1633
 2959SOL    HW120936   5.226   6.461   1.109 -0.3981  0.8046 -0.3406
 2959SOL    HW220937   5.116   6.373   1.027 -0.5702  1.6038 -0.9714
 2960SOL     OW20938   4.465   0.397   3.290 -0.7470 -0.0039  0.1754
 2960SOL    HW120939   4.460   0.304   3.326 -0.6004  0.1216  0.5172
 2960SOL    HW220940   4.561   0.423   3.280 -0.7791 -0.2785 -0.9143
 2961SOL     OW20941   0.290   1.774   3.653 -0.6371  0.0659  0.1051
 2961SOL    HW120942   0.280   1.873   3.665 -1.3112  0.3269 -2.4489
 2961SOL    HW220943   0.375   1.754   3.605 -0.3287 -0.6312  0.9292
 2962SOL     OW20944   8.482   8.899   6.091  0.1442 -0.2067  0.0141
 2962SOL    HW120945   8.423   8.910   6.011  0.3198  1.2232  0.0705
 2962SOL    HW220946   8.572   8.865   6.062 -0.6846 -2.3498 -0.0751
 2963SOL     OW20947   1.063   7.017   9.913  0.5172  0.2855 -0.2207
 2963SOL    HW120948   1.095   7.008  10.008  0.9671  5.5080  0.2574
 2963SOL    HW220949   0.966   6.991   9.908  0.5645 -0.3229  1.5881
 2964SOL     OW20950   0.143   3.670   8.517  0.5645  0.0639  0.1209
 2964SOL    HW120951   0.076   3.659   8.590  1.3119 -3.2847  0.3953
 2964SOL    HW220952   0.119   3.609   8.441  2.6099 -0.2671 -0.2716
 2965SOL     OW20953   0.928   9.620   4.348 -0.4520  0.2118 -0.1928
 2965SOL    HW120954   0.882   9.546   4.300 -1.5494 -0.1986  1.4364
 2965SOL    HW220955   1.027   9.614   4.331 -0.7997 -0.0189 -2.2035
 2966SOL     OW20956   8.243   6.015   2.212 -0.5793  0.1885  0.0101
 2966SOL    HW120957   8.267   6.041   2.118 -2.2803  0.9690 -0.2202
 2966SOL    HW220958   8.257   5.916   2.223  0.6626  0.2667 -0.7334
 2967SOL     OW20959   9.403   7.884   3.915 -0.8394 -0.3872 -0.0834
 2967SOL    HW120960   9.433   7.959   3.974  0.0247 -0.6032 -0.2422
 2967SOL    HW220961   9.384   7.920   3.823  0.9757 -0.5884 -0.5570
 2968SOL     OW20962   5.576   6.198   9.423  0.4484  0.0869 -0.1412
 2968SOL    HW120963   5.637   6.177   9.500 -0.5242 -0.8199  0.4011
 2968SOL    HW220964   5.584   6.294   9.399 -0.1121  0.6628  1.8862
 2969SOL     OW20965   1.647   9.033   9.274 -0.2510 -0.0540 -0.2229
 2969SOL    HW120966   1.644   9.120   9.226 -2.0662  0.2499  0.3828
 2969SOL    HW220967   1.570   9.027   9.338  1.4061 -0.9580  1.7630
 2970SOL     OW20968   1.384   9.982   1.702 -0.2043  0.2977 -0.3666
 2970SOL    HW120969   1.463   9.980   1.642 -0.0326  0.9338 -0.1629
 2970SOL    HW220970   1.326  10.061   1.680  0.1222  0.8211  0.6229
 2971SOL     OW20971   1.440   9.339   1.199  0.0037 -0.0604 -0.1456
 2971SOL    HW120972   1.485   9.398   1.266 -1.1870 -0.9196  1.4325
 2971SOL    HW220973   1.342   9.338   1.216 -0.1374 -1.4945 -0.9572
 2972SOL     OW20974   3.349   6.491   3.632  0.4933 -0.2398  0.1959
 2972SOL    HW120975   3.345   6.559   3.559  2.4686 -0.2178  0.0947
 2972SOL    HW220976   3.438   6.446   3.631 -0.5311 -2.3068  0.7435
 2973SOL     OW20977   0.680   4.611   7.155  0.0477 -0.0829 -0.0501
 2973SOL    HW120978   0.680   4.658   7.243  0.9893 -0.2531  0.0424
 2973SOL    HW220979   0.587   4.581   7.133 -0.6532  2.1244 -0.2670
 2974SOL     OW20980   8.187   1.543   7.811 -0.5897  0.4171  0.1634
 2974SOL    HW120981   8.273   1.526   7.764 -0.9303 -0.7559 -0.0634
 2974SOL    HW220982   8.180   1.640   7.836  1.4833  0.2237  1.5691
 2975SOL     OW20983   7.908   2.078   3.184 -0.2612 -0.1206  0.0575
 2975SOL    HW120984   7.888   2.042   3.274  0.0058  0.5312  0.3873
 2975SOL    HW220985   7.924   2.177   3.191 -0.3783 -0.0455 -0.7206
 2976SOL     OW20986   9.483   4.809   9.662 -0.6650 -0.2240  0.1335
 2976SOL    HW120987   9.498   4.783   9.566 -1.5051 -2.8674  0.6897
 2976SOL    HW220988   9.526   4.898   9.679  2.4347 -1.2397 -1.8490
 2977SOL     OW20989   7.017   4.153   9.413 -0.0842  0.2647  0.4546
 2977SOL    HW120990   7.092   4.183   9.354  0.5196  0.8084  1.4848
 2977SOL    HW220991   6.957   4.090   9.363  0.2145  1.0124 -0.8409
 2978SOL     OW20992   9.171   7.011   2.662  0.0977  0.4393 -0.0682
 2978SOL    HW120993   9.107   7.068   2.612  1.2215 -0.4161 -2.5629
 2978SOL    HW220994   9.257   7.003   2.611  0.8038 -1.5623  1.3386
 2979SOL     OW20995   6.331   0.249   7.982 -0.6332 -0.1044 -0.2470
 2979SOL    HW120996   6.276   0.331   7.966 -1.0008 -0.3525 -0.2650
 2979SOL    HW220997   6.412   0.273   8.035 -0.6729  0.2937 -0.3641
 2980SOL     OW20998   0.841   8.990   3.046 -0.7041 -0.3751 -0.2501
 2980SOL    HW120999   0.799   8.978   3.135  1.2330 -1.6854  0.5065
 2980SOL    HW221000   0.941   8.986   3.054 -0.5117 -1.4764 -2.6051
 2981SOL     OW21001   0.478   6.987   7.928 -0.6052  0.4147 -0.1448
 2981SOL    HW121002   0.407   6.973   7.997 -0.7007  1.5194 -0.0109
 2981SOL    HW221003   0.517   7.078   7.938 -0.3220  0.4283 -1.2780
 2982SOL     OW21004   2.514   2.452   2.149  0.0815 -0.1255 -0.0133
 2982SOL    HW121005   2.593   2.392   2.159  0.2238  0.1420  0.4751
 2982SOL    HW221006   2.546   2.544   2.125 -0.0879 -0.0257  0.1492
 2983SOL     OW21007   6.574   9.625   5.219 -0.4313  0.3565  0.3887
 2983SOL    HW121008   6.583   9.550   5.284 -0.9294 -1.5784 -1.6937
 2983SOL    HW221009   6.660   9.637   5.169 -0.6075  0.6276  0.1470
 2984SOL     OW21010   5.639   8.060   8.832  0.3534 -0.1155 -0.2531
 2984SOL    HW121011   5.595   7.975   8.860  1.5682 -1.0089 -0.9992
 2984SOL    HW221012   5.618   8.132   8.897 -1.0699 -0.8751  0.1342
 2985SOL     OW21013   2.957   0.340   5.625 -0.2084  0.4402 -0.1712
 2985SOL    HW121014   3.042   0.287   5.615  0.0106  0.8195 -0.3580
 2985SOL    HW221015   2.893   0.314   5.554 -0.6518 -0.6027  0.6127
 2986SOL     OW21016   1.934   6.705   2.293 -0.8250  0.1143  0.5948
 2986SOL    HW121017   1.852   6.648   2.301 -0.2758 -0.6755  0.7207
 2986SOL    HW221018   1.913   6.798   2.322 -1.7215 -0.0402  0.4618
 2987SOL     OW21019   0.846   9.590   0.566 -0.1637  0.1629  0.2632
 2987SOL    HW121020   0.804   9.586   0.657 -0.5323 -3.3326  0.0124
 2987SOL    HW221021   0.774   9.595   0.497  0.0888  1.7890  0.1085
 2988SOL     OW21022   9.363   2.712   1.165  0.2692  0.7273  0.1561
 2988SOL    HW121023   9.331   2.658   1.087 -1.7869  2.4749 -0.2599
 2988SOL    HW221024   9.388   2.804   1.134 -0.6910  1.4786  1.5677
 2989SOL     OW21025   7.339   9.633   2.988  0.0414 -0.0939 -0.2694
 2989SOL    HW121026   7.283   9.555   3.017 -0.1193  0.4941  1.0484
 2989SOL    HW221027   7.430   9.626   3.028 -0.3070  0.9301  0.7651
 2990SOL     OW21028   3.160   3.976   7.674 -0.1071  0.0728 -0.5434
 2990SOL    HW121029   3.183   4.026   7.757 -0.9646 -1.4186  0.6030
 2990SOL    HW221030   3.140   3.881   7.696 -0.3964 -0.3289 -2.4487
 2991SOL     OW21031   8.732   9.429   9.659 -0.0792 -0.2525 -0.3822
 2991SOL    HW121032   8.637   9.414   9.685  0.6245 -1.7664  1.4080
 2991SOL    HW221033   8.785   9.456   9.739  1.3023 -0.9410 -1.0417
 2992SOL     OW21034   4.756   9.322   6.710 -0.2042 -0.2709  0.1237
 2992SOL    HW121035   4.799   9.335   6.620 -0.3260 -1.1746 -0.0713
 2992SOL    HW221036   4.698   9.401   6.731  1.2881  0.8188  0.2433
 2993SOL     OW21037   9.773   7.776   6.143  0.0152  0.2946  0.2708
 2993SOL    HW121038   9.763   7.863   6.192  0.0383 -0.0046  0.8124
 2993SOL    HW221039   9.695   7.764   6.081  0.7953  1.4152 -0.9314
 2994SOL     OW21040   3.537   2.962   2.421 -0.6001  0.4714 -0.3361
 2994SOL    HW121041   3.520   2.989   2.326 -3.6728  1.5555  0.4582
 2994SOL    HW221042   3.476   3.013   2.481 -0.5149 -2.1048  2.0169
 2995SOL     OW21043   2.601   1.614   6.289  0.0906  0.0503  0.1390
 2995SOL    HW121044   2.692   1.628   6.248  0.2840 -0.4679  0.3982
 2995SOL    HW221045   2.539   1.684   6.253  0.7802  0.8851  0.5434
 2996SOL     OW21046   3.796   8.550   9.503  0.7462 -0.5665 -0.4447
 2996SOL    HW121047   3.761   8.522   9.414 -4.2729  0.1102  1.1724
 2996SOL    HW221048   3.782   8.478   9.570  1.0619  0.3301  0.6155
 2997SOL     OW21049   5.370   4.197   0.660 -0.1178 -0.2253  0.2767
 2997SOL    HW121050   5.366   4.099   0.680  0.2680 -0.4431 -0.6981
 2997SOL    HW221051   5.434   4.213   0.585  0.7387  0.9126  1.2361
 2998SOL     OW21052   3.951   7.330   2.828  0.2523 -0.6551  0.0556
 2998SOL    HW121053   3.890   7.275   2.884  0.1023 -0.2493  0.2852
 2998SOL    HW221054   4.042   7.288   2.828 -0.1490 -1.5547 -0.7237
 2999SOL     OW21055   5.705   8.328   8.652 -0.0436  0.3916  0.5978
 2999SOL    HW121056   5.703   8.242   8.703 -0.6756  0.8572  1.3761
 2999SOL    HW221057   5.632   8.329   8.584 -0.4982  0.6121  1.0884
 3000SOL     OW21058   1.479   2.058   4.139 -0.0605  0.2794 -0.5550
 3000SOL    HW121059   1.405   2.119   4.112  0.1557  0.8314  0.0959
 3000SOL    HW221060   1.524   2.093   4.222  0.1139 -0.7104 -0.2187
 3001SOL     OW21061   0.926   2.311   0.752 -0.2059  0.1330  0.0395
 3001SOL    HW121062   1.017   2.313   0.711  0.0704 -0.3470  0.6279
 3001SOL    HW221063   0.886   2.221   0.740 -0.1171 -0.0140  0.8348
 3002SOL     OW21064   7.526   7.657   5.876 -0.2437 -0.1848 -0.0051
 3002SOL    HW121065   7.581   7.730   5.833  1.0490  0.3733  2.4730
 3002SOL    HW221066   7.570   7.569   5.860  0.5252  0.0810  0.6007
 3003SOL     OW21067   9.721   8.432   4.522  0.0086 -0.1541  0.3449
 3003SOL    HW121068   9.717   8.431   4.422  1.5892  0.2401  0.2768
 3003SOL    HW221069   9.769   8.351   4.554 -0.4380 -0.2450  0.7890
 3004SOL     OW21070   3.242   9.025   0.403 -0.5129 -1.1026  0.0236
 3004SOL    HW121071   3.334   9.065   0.401 -0.1067 -1.9469  1.1542
 3004SOL    HW221072   3.248   8.928   0.381 -1.4587 -0.6387 -2.4022
 3005SOL     OW21073   0.351   8.701   1.782  0.2811  0.0008  0.8123
 3005SOL    HW121074   0.397   8.615   1.806  0.1080 -0.0268  1.0420
 3005SOL    HW221075   0.252   8.687   1.779  0.3205 -0.0814 -0.2694
 3006SOL     OW21076   8.868   9.387   5.706 -0.4482 -0.0794  0.0085
 3006SOL    HW121077   8.785   9.366   5.654 -0.1387 -1.6798  0.1353
 3006SOL    HW221078   8.919   9.459   5.659 -2.2281  1.4003  0.2892
 3007SOL     OW21079   0.065   1.168   1.724  0.3976 -0.1995 -0.2940
 3007SOL    HW121080   0.136   1.099   1.738  0.8530  0.7743  2.4125
 3007SOL    HW221081   0.056   1.187   1.626  1.8268 -2.4485 -0.8883
 3008SOL     OW21082   5.536   1.281   0.816  0.7726 -0.0416 -0.1470
 3008SOL    HW121083   5.511   1.323   0.903 -0.1616 -0.5317 -0.1811
 3008SOL    HW221084   5.455   1.271   0.758  1.4560  0.6973 -1.2642
 3009SOL     OW21085   3.820   0.791   1.973  0.4234  0.4084 -1.0412
 3009SOL    HW121086   3.743   0.737   2.006  1.1296 -0.2694 -0.4874
 3009SOL    HW221087   3.905   0.745   1.995  1.0675  2.0622  0.0404
 3010SOL     OW21088   0.847   3.833   6.544  0.1629  0.0759 -0.1565
 3010SOL    HW121089   0.826   3.841   6.642  0.4227  0.0310 -0.0972
 3010SOL    HW221090   0.918   3.900   6.520  1.8685 -1.5817  0.2007
 3011SOL     OW21091   3.510   9.515   8.154  0.1285 -0.2198  0.1029
 3011SOL    HW121092   3.438   9.501   8.222  0.9725  0.1806  1.0959
 3011SOL    HW221093   3.509   9.441   8.088 -1.7930  0.2594 -0.4312
 3012SOL     OW21094   4.727   4.426   1.682  0.1442 -0.4455  0.1490
 3012SOL    HW121095   4.658   4.375   1.734 -0.5621 -0.8389 -1.1546
 3012SOL    HW221096   4.700   4.431   1.586  0.7821  1.4358  0.0541
 3013SOL     OW21097   6.301   5.355   7.007  0.1598 -0.2276 -0.5621
 3013SOL    HW121098   6.204   5.333   7.002 -0.0967  0.6260  0.6633
 3013SOL    HW221099   6.316   5.432   7.069  1.6125 -0.3078 -0.7794
 3014SOL     OW21100   9.809   5.381   8.096 -0.3618 -0.1661 -0.1398
 3014SOL    HW121101   9.808   5.440   8.016 -0.6331 -1.1583 -0.8761
 3014SOL    HW221102   9.728   5.322   8.096 -0.7448  0.3328  1.2471
 3015SOL     OW21103   6.076   9.653   6.101  0.1099 -0.0639 -0.7309
 3015SOL    HW121104   6.137   9.635   6.024 -1.1106 -0.3407 -1.6307
 3015SOL    HW221105   6.029   9.569   6.127 -0.0343  0.1907 -0.1425
 3016SOL     OW21106   2.810   6.958   3.801 -0.2064  0.3176 -0.0452
 3016SOL    HW121107   2.858   6.885   3.850  0.5295  2.2114  2.1851
 3016SOL    HW221108   2.859   6.979   3.716 -0.5606 -1.9073 -0.8242
 3017SOL     OW21109   4.451   6.277   0.597 -0.1136  0.2481 -0.0833
 3017SOL    HW121110   4.478   6.255   0.503 -0.2563 -0.2510 -0.0117
 3017SOL    HW221111   4.382   6.349   0.595 -0.3499  0.0198 -0.3836
 3018SOL     OW21112   1.289   2.704   5.650  0.1879 -0.3144  0.3996
 3018SOL    HW121113   1.264   2.801   5.640  0.7986 -0.1333  0.5741
 3018SOL    HW221114   1.218   2.647   5.611 -0.0053  0.2220 -0.0448
 3019SOL     OW21115   0.077   2.066   0.683 -0.8372  0.1752 -0.0280
 3019SOL    HW121116   0.148   2.022   0.738 -0.3130 -1.3012 -1.8450
 3019SOL    HW221117   0.005   2.099   0.743  0.6367  0.3184  1.7150
 3020SOL     OW21118   2.251   4.968   5.590  0.1015 -0.4403  0.0570
 3020SOL    HW121119   2.347   4.938   5.593  0.3341  0.1589 -1.0803
 3020SOL    HW221120   2.221   4.974   5.495 -0.6183  0.7519  0.3497
 3021SOL     OW21121   8.310   9.858   4.966  0.3857 -0.3531 -0.0837
 3021SOL    HW121122   8.374   9.931   4.993  1.1122 -0.9934 -0.0690
 3021SOL    HW221123   8.227   9.866   5.020  0.9396 -0.2526  0.7709
 3022SOL     OW21124   4.333   2.348   1.593  0.2535 -0.0383  0.0492
 3022SOL    HW121125   4.256   2.290   1.564  0.5183  0.9439 -2.8048
 3022SOL    HW221126   4.300   2.442   1.605  0.5124 -0.1078  1.3028
 3023SOL     OW21127   4.601   8.631   7.406 -0.1147  0.4035  0.0996
 3023SOL    HW121128   4.667   8.572   7.453  0.0539 -0.4841 -1.2178
 3023SOL    HW221129   4.509   8.612   7.440 -0.2051 -1.4794 -1.1374
 3024SOL     OW21130   9.529   8.713   2.361  0.3390 -0.0352 -0.6125
 3024SOL    HW121131   9.444   8.689   2.314 -0.7712  1.0647  0.7884
 3024SOL    HW221132   9.522   8.688   2.458  1.6586 -0.0112 -0.4961
 3025SOL     OW21133   9.833   5.409   8.846  0.2425  0.0672 -0.3114
 3025SOL    HW121134   9.914   5.459   8.815  0.1110  1.0596  0.8906
 3025SOL    HW221135   9.756   5.471   8.855  0.2081 -0.2179  1.6906
 3026SOL     OW21136   2.812   7.011   8.089  0.1703  0.0015 -0.4551
 3026SOL    HW121137   2.795   7.108   8.071  0.4344 -0.3050 -2.4114
 3026SOL    HW221138   2.753   6.956   8.030  0.8685 -1.0422 -0.1775
 3027SOL     OW21139   3.215   3.660   4.721  0.3668  0.1394 -0.3806
 3027SOL    HW121140   3.304   3.686   4.758  0.1563  1.2750 -0.6562
 3027SOL    HW221141   3.181   3.579   4.769  1.8108 -0.6612 -0.6720
 3028SOL     OW21142   4.831   1.759   5.261 -0.4235 -0.1340 -0.0423
 3028SOL    HW121143   4.874   1.670   5.279  1.4602  0.6602 -0.4942
 3028SOL    HW221144   4.787   1.792   5.345  2.2565  0.2853  1.2662
 3029SOL     OW21145   8.790   8.738   7.640 -0.5878  0.1823 -0.4768
 3029SOL    HW121146   8.872   8.700   7.597 -0.8860 -0.4666 -0.4759
 3029SOL    HW221147   8.816   8.810   7.704  0.0522 -0.7118  0.2729
 3030SOL     OW21148   5.878   0.164   2.390  0.0702  0.2376 -0.1370
 3030SOL    HW121149   5.972   0.179   2.421 -0.4538  1.2828  1.0098
 3030SOL    HW221150   5.823   0.129   2.466 -0.2189 -1.4303 -1.1046
 3031SOL     OW21151   5.045   5.898   3.247 -0.2086 -0.4228  0.1196
 3031SOL    HW121152   4.945   5.890   3.255 -0.2371  0.2974  0.5155
 3031SOL    HW221153   5.088   5.855   3.326 -0.1969 -0.9839 -0.1929
 3032SOL     OW21154   1.096   0.531   5.248  0.0413 -0.1557  0.7606
 3032SOL    HW121155   1.065   0.513   5.341  2.1752 -0.0676  1.5059
 3032SOL    HW221156   1.190   0.564   5.249 -0.4988  1.6395 -1.3036
 3033SOL     OW21157   0.360   1.776   9.737 -0.0135 -0.0139  0.5049
 3033SOL    HW121158   0.446   1.825   9.750  0.2364 -0.2586 -0.1790
 3033SOL    HW221159   0.321   1.754   9.826  0.8663 -0.3148  0.8258
 3034SOL     OW21160   8.363   4.347   4.690  0.2007  0.4272 -0.5356
 3034SOL    HW121161   8.388   4.284   4.763  2.0366  1.5521 -0.1710
 3034SOL    HW221162   8.273   4.321   4.653 -0.3199 -0.7039  1.4660
 3035SOL     OW21163   6.010   8.369   8.283 -0.3851 -0.7595  0.0785
 3035SOL    HW121164   6.029   8.357   8.381 -0.9475  0.6944  0.3658
 3035SOL    HW221165   6.075   8.434   8.244 -1.5145  0.3010 -0.0523
 3036SOL     OW21166   2.152   5.934   1.896  0.5041 -0.0628 -0.1119
 3036SOL    HW121167   2.180   5.956   1.989 -0.3547  0.9471 -0.0815
 3036SOL    HW221168   2.063   5.889   1.898  0.4186  0.0927 -0.4511
 3037SOL     OW21169   9.808   0.389   9.878  0.2897 -0.0373  0.2592
 3037SOL    HW121170   9.797   0.466   9.814  0.4379  0.1568  0.4663
 3037SOL    HW221171   9.719   0.350   9.898 -0.1759  2.0900  2.6190
 3038SOL     OW21172   7.623   0.913   3.261  0.0777  0.5945 -0.0890
 3038SOL    HW121173   7.712   0.956   3.272  1.3651 -1.8374 -0.7628
 3038SOL    HW221174   7.589   0.931   3.168  0.1845  0.9111 -0.0689
 3039SOL     OW21175   1.177   5.469   3.665  0.8204  0.5637 -0.3913
 3039SOL    HW121176   1.256   5.508   3.616 -1.0961  1.9961 -2.4245
 3039SOL    HW221177   1.117   5.422   3.600  0.3144 -1.1045  1.2461
 3040SOL     OW21178   4.677   6.299   9.925 -0.7657  0.2771 -0.3801
 3040SOL    HW121179   4.721   6.237   9.860  0.3949  0.4221  0.2629
 3040SOL    HW221180   4.730   6.383   9.932  0.8950 -0.9813  3.1212
 3041SOL     OW21181   2.751   4.947   5.773 -0.0455 -0.1489  0.5031
 3041SOL    HW121182   2.804   4.949   5.858 -0.0350  0.9085  0.4718
 3041SOL    HW221183   2.704   5.034   5.761 -0.8093 -0.6408 -0.0972
 3042SOL     OW21184   4.834   8.292   8.924  0.7084 -0.3040  0.1432
 3042SOL    HW121185   4.889   8.326   9.001  0.9847  0.1592 -0.2533
 3042SOL    HW221186   4.868   8.203   8.896 -0.0105 -0.9216  1.1866
 3043SOL     OW21187   9.374   4.811   2.050  0.8089 -0.3976  0.1038
 3043SOL    HW121188   9.336   4.842   2.137 -0.8823  2.0644 -1.4422
 3043SOL    HW221189   9.468   4.842   2.042  0.2565  1.3696  0.1284
 3044SOL     OW21190   3.932   8.771   9.319  0.1485 -0.4448 -0.1379
 3044SOL    HW121191   3.918   8.732   9.410 -1.0874 -1.7791 -0.8799
 3044SOL    HW221192   3.846   8.813   9.287  0.5571 -0.0432 -0.7208
 3045SOL     OW21193   2.667   7.841   0.265 -0.3554 -0.4302  0.2746
 3045SOL    HW121194   2.654   7.776   0.339  0.0872 -0.5519  0.2463
 3045SOL    HW221195   2.765   7.855   0.250 -0.4458 -0.0505  0.0259
 3046SOL     OW21196   2.415   9.696   7.408  0.2027 -0.2511 -1.0767
 3046SOL    HW121197   2.372   9.612   7.440 -1.5090  1.4178  1.2033
 3046SOL    HW221198   2.388   9.714   7.313 -0.7828 -1.3842 -1.0124
 3047SOL     OW21199   1.100   2.791   0.238  0.4352 -0.0345  0.0974
 3047SOL    HW121200   1.056   2.718   0.186  0.7600 -0.5046  0.4742
 3047SOL    HW221201   1.162   2.751   0.305  0.4339  0.5812  0.4721
 3048SOL     OW21202   7.733   6.691   2.800  0.5762  0.3325 -0.3994
 3048SOL    HW121203   7.758   6.709   2.895 -0.2516  0.7767 -0.2615
 3048SOL    HW221204   7.694   6.600   2.792  1.1739  0.0782 -0.4126
 3049SOL     OW21205   6.595   9.922   3.691 -0.2147  0.6094 -0.1117
 3049SOL    HW121206   6.617  10.013   3.656 -0.7806  1.1481  0.9137
 3049SOL    HW221207   6.520   9.929   3.757 -0.9710 -0.7365 -0.8187
 3050SOL     OW21208   9.332   1.279   6.818 -0.1932  0.3329  0.1007
 3050SOL    HW121209   9.401   1.328   6.766  1.9077 -0.2903  2.1916
 3050SOL    HW221210   9.299   1.338   6.892  0.9137 -0.6777  1.4252
 3051SOL     OW21211   1.931   2.832   0.950 -0.4030 -0.0779 -0.6618
 3051SOL    HW121212   1.862   2.878   0.895 -2.7114 -1.3946  1.0805
 3051SOL    HW221213   1.908   2.841   1.047  1.8748 -0.5416 -0.0488
 3052SOL     OW21214   1.537   8.230   4.424 -0.0103 -0.1538  0.2831
 3052SOL    HW121215   1.600   8.251   4.499  0.8873 -0.8946 -0.2495
 3052SOL    HW221216   1.532   8.307   4.362 -0.2029  0.1948  0.7302
 3053SOL     OW21217   4.167   8.352   1.066  0.6260 -0.2048  0.2831
 3053SOL    HW121218   4.139   8.425   1.128  1.1197  0.4830 -0.2901
 3053SOL    HW221219   4.098   8.340   0.995  0.4953 -0.3644  0.4373
 3054SOL     OW21220   1.434   5.580   2.207  0.0677  0.0161 -0.0728
 3054SOL    HW121221   1.464   5.485   2.196 -0.5838 -0.4507  2.0364
 3054SOL    HW221222   1.500   5.629   2.264 -0.2027  0.5350 -0.2039
 3055SOL     OW21223   5.035   8.092   9.229 -0.4836  0.3095  0.1337
 3055SOL    HW121224   5.091   8.167   9.264  0.4004 -0.3810  0.2038
 3055SOL    HW221225   5.091   8.029   9.175 -1.3880  0.1472 -0.6462
 3056SOL     OW21226   5.255   9.024   2.995 -0.0334 -0.0055 -0.4143
 3056SOL    HW121227   5.331   8.965   3.021 -1.0678 -0.7067  1.1050
 3056SOL    HW221228   5.192   8.974   2.935 -0.4935 -0.1790  0.2145
 3057SOL     OW21229   3.751   4.854   8.845 -0.8111  0.2228  0.2456
 3057SOL    HW121230   3.738   4.952   8.862 -4.1066 -0.5244  2.7130
 3057SOL    HW221231   3.770   4.808   8.932 -1.1331 -1.5570 -0.6150
 3058SOL     OW21232   0.952   2.532   0.465  0.3159 -0.1583 -0.1533
 3058SOL    HW121233   0.960   2.540   0.564  2.1158 -0.4688 -0.2455
 3058SOL    HW221234   1.038   2.495   0.428 -0.8116 -1.3138 -1.6850
 3059SOL     OW21235   1.977   8.565   4.696 -1.0521  0.1765 -0.4084
 3059SOL    HW121236   2.021   8.562   4.785  1.0984 -0.4700 -1.4741
 3059SOL    HW221237   1.991   8.479   4.648 -0.8286  1.0771 -2.0032
 3060SOL     OW21238   7.913   5.570   3.517  0.0824 -0.2721 -0.0160
 3060SOL    HW121239   7.866   5.611   3.596 -1.1024 -0.2625 -0.7093
 3060SOL    HW221240   7.962   5.488   3.546 -1.2628 -0.8991  0.5278
 3061SOL     OW21241   8.418   5.385   8.307  0.0239 -0.6254  0.3125
 3061SOL    HW121242   8.409   5.316   8.380  1.4317  0.0593  1.1391
 3061SOL    HW221243   8.466   5.345   8.230  0.7345 -0.6120  0.7452
 3062SOL     OW21244   8.841   3.193   2.887 -0.1380 -0.9751 -0.0028
 3062SOL    HW121245   8.911   3.195   2.959  0.2408 -1.5914 -0.3491
 3062SOL    HW221246   8.757   3.153   2.922 -0.3814 -0.0510  0.4727
 3063SOL     OW21247   1.362   8.640   5.090 -1.0479 -0.2593  0.1228
 3063SOL    HW121248   1.410   8.588   5.019 -0.0937  0.7443  0.0334
 3063SOL    HW221249   1.287   8.584   5.126 -2.5073 -0.2113 -2.7293
 3064SOL     OW21250   1.583   1.320   8.632  0.3661  0.0016  0.3814
 3064SOL    HW121251   1.614   1.382   8.560  1.4892 -0.4219  0.4908
 3064SOL    HW221252   1.525   1.249   8.593 -0.9360  1.1000  0.2525
 3065SOL     OW21253   8.601   0.711   6.417 -0.0862 -0.3015  0.5218
 3065SOL    HW121254   8.659   0.715   6.498  0.0222  0.1425  0.4206
 3065SOL    HW221255   8.641   0.766   6.344 -0.8697  0.3829  0.6031
 3066SOL     OW21256   0.775   9.640   7.793 -0.1819  0.1179 -0.1145
 3066SOL    HW121257   0.855   9.699   7.789 -0.9780  1.1675 -0.4453
 3066SOL    HW221258   0.724   9.658   7.878 -1.6998  1.5626 -1.3110
 3067SOL     OW21259   3.489   5.105   7.578  0.1801 -0.1412 -0.0271
 3067SOL    HW121260   3.425   5.140   7.646 -0.9868  0.7327 -1.5530
 3067SOL    HW221261   3.579   5.093   7.621 -0.7458 -0.5237  1.9035
 3068SOL     OW21262   9.667   8.991   0.285  0.3866 -0.4375  0.1115
 3068SOL    HW121263   9.743   9.039   0.329  1.0569 -2.3730  1.0834
 3068SOL    HW221264   9.591   8.982   0.350  0.6569 -1.6173  0.2611
 3069SOL     OW21265   3.133   8.051   1.590  0.0926 -0.0784 -0.8498
 3069SOL    HW121266   3.195   7.978   1.562  0.4786  0.2731 -0.9072
 3069SOL    HW221267   3.109   8.039   1.687  2.0824  1.0918 -0.1884
 3070SOL     OW21268   1.367   9.360   6.993 -0.2866 -0.2297 -0.2728
 3070SOL    HW121269   1.377   9.358   6.894  1.5421  0.4122 -0.1043
 3070SOL    HW221270   1.367   9.454   7.025  2.1283 -0.4915  0.6125
 3071SOL     OW21271   7.335   5.018   3.590  0.3621 -0.0712  0.2375
 3071SOL    HW121272   7.428   5.027   3.553  0.8113  4.0328  2.1041
 3071SOL    HW221273   7.272   5.074   3.536 -1.3863 -3.8298 -1.8129
 3072SOL     OW21274   3.281   2.810   7.016 -0.3358  0.2069 -0.5070
 3072SOL    HW121275   3.266   2.909   7.015  0.5623  0.3552  0.2809
 3072SOL    HW221276   3.370   2.789   6.976 -0.1974 -0.2203  0.0189
 3073SOL     OW21277   4.204   0.533   8.977  0.2130 -0.5613  0.1273
 3073SOL    HW121278   4.120   0.480   8.992 -0.7306  1.1145  0.8946
 3073SOL    HW221279   4.269   0.513   9.051 -1.1171  1.2002  1.8234
 3074SOL     OW21280   4.579   4.247   8.804  0.0872  0.0040  0.1083
 3074SOL    HW121281   4.594   4.229   8.901 -0.3724 -0.4876  0.0914
 3074SOL    HW221282   4.606   4.341   8.782  0.4602  0.0235  0.6529
 3075SOL     OW21283   2.766   1.788   8.238 -0.3137 -0.2872  0.6441
 3075SOL    HW121284   2.671   1.796   8.268 -0.5940  0.4618 -0.3997
 3075SOL    HW221285   2.773   1.721   8.165  0.1804 -1.2868  1.6006
 3076SOL     OW21286   3.920   3.403   3.847  0.3422  0.3694  0.0396
 3076SOL    HW121287   3.859   3.470   3.890  0.1913  1.2011 -1.4273
 3076SOL    HW221288   3.930   3.324   3.907  1.5865  2.2836  2.4131
 3077SOL     OW21289   9.742   0.533   7.605 -0.1463  0.2349 -0.2620
 3077SOL    HW121290   9.782   0.442   7.591 -1.7079 -0.4120 -0.6578
 3077SOL    HW221291   9.774   0.596   7.535  0.1668 -0.2743 -0.5740
 3078SOL     OW21292   1.806   8.580   9.200  0.4410  0.2588  0.2986
 3078SOL    HW121293   1.764   8.670   9.185 -0.4742 -0.1703  0.2166
 3078SOL    HW221294   1.904   8.591   9.215  0.2995  1.2950  0.5239
 3079SOL     OW21295   6.683   3.340   7.993  0.1102 -0.7648 -0.1322
 3079SOL    HW121296   6.741   3.417   7.966 -0.4844 -1.2494 -2.8448
 3079SOL    HW221297   6.741   3.261   8.012  0.4693 -0.7667 -1.1935
 3080SOL     OW21298   5.697   2.450   8.662 -0.1546  0.0039 -0.2234
 3080SOL    HW121299   5.770   2.518   8.665  1.6363 -1.9503  1.2672
 3080SOL    HW221300   5.643   2.464   8.578  1.5568  1.8227 -1.0715
 3081SOL     OW21301   2.747   7.918   6.217  0.1452 -0.5042  0.7525
 3081SOL    HW121302   2.823   7.899   6.154 -0.9467  0.5850 -0.9536
 3081SOL    HW221303   2.763   8.006   6.262  0.0809 -0.4610  0.6899
 3082SOL     OW21304   0.528   9.784   2.232  0.7447 -0.4633 -0.0385
 3082SOL    HW121305   0.442   9.806   2.185  0.6650 -1.3040 -0.3005
 3082SOL    HW221306   0.604   9.825   2.182  0.5146  0.1024  0.0721
 3083SOL     OW21307   2.909   9.144   8.628 -0.0109  0.1028  0.8263
 3083SOL    HW121308   3.004   9.156   8.601 -0.0863  1.3593  1.0523
 3083SOL    HW221309   2.903   9.129   8.727 -0.0192 -0.3482  0.7570
 3084SOL     OW21310   4.824   0.010   7.883  0.1923  0.4704 -0.1232
 3084SOL    HW121311   4.868   0.040   7.968  0.5606  0.3697 -0.2767
 3084SOL    HW221312   4.890  -0.044   7.829 -1.1022 -2.5408  1.1652
 3085SOL     OW21313   0.739   0.366   9.606 -0.4254 -0.1020 -0.1158
 3085SOL    HW121314   0.640   0.371   9.620 -0.4223  1.2751 -0.5345
 3085SOL    HW221315   0.783   0.442   9.654  0.2026  0.6922 -1.9207
 3086SOL     OW21316   1.180   9.036   8.948  0.1911  0.4130 -0.8898
 3086SOL    HW121317   1.277   9.054   8.956 -0.4466  4.0046 -0.5542
 3086SOL    HW221318   1.135   9.051   9.036 -0.9235  0.5475 -1.4619
 3087SOL     OW21319   2.929   1.318   0.676  0.2658 -0.2481  0.5749
 3087SOL    HW121320   3.014   1.281   0.639  1.2555  0.2457  2.3397
 3087SOL    HW221321   2.870   1.347   0.600  0.5158 -3.0722 -0.7506
 3088SOL     OW21322   6.576   2.264   3.063  0.1397 -0.0531 -0.0417
 3088SOL    HW121323   6.663   2.242   3.108  0.1362  0.6683  0.3212
 3088SOL    HW221324   6.589   2.342   3.002 -0.2809  0.1068  0.0762
 3089SOL     OW21325   3.865   4.286   8.263  0.2060 -0.0871 -0.6915
 3089SOL    HW121326   3.889   4.344   8.185  0.8310  1.4617  0.6102
 3089SOL    HW221327   3.901   4.194   8.249  0.3208  0.1870 -2.2234
 3090SOL     OW21328   9.845   5.978   9.344 -0.2998 -0.0108  0.2410
 3090SOL    HW121329   9.945   5.973   9.345 -0.1443  1.0871 -3.3901
 3090SOL    HW221330   9.808   5.886   9.333  0.3826 -0.2901  0.2345
 3091SOL     OW21331   0.165   7.557   1.452  0.0761 -0.1830 -0.0787
 3091SOL    HW121332   0.227   7.530   1.525 -0.0059 -1.8551 -0.6044
 3091SOL    HW221333   0.093   7.616   1.489  0.7672  0.0297  0.9295
 3092SOL     OW21334   7.864   7.121   5.411  0.2333 -0.0243 -0.6627
 3092SOL    HW121335   7.841   7.121   5.508 -0.7087  1.8406 -0.8602
 3092SOL    HW221336   7.816   7.046   5.366  1.5732 -1.6031  0.4997
 3093SOL     OW21337   3.851   4.636   7.861 -0.1213  0.7748  0.0721
 3093SOL    HW121338   3.907   4.719   7.863  1.2295 -0.1170 -0.2063
 3093SOL    HW221339   3.812   4.624   7.770  0.2685  0.7235 -0.0891
 3094SOL     OW21340   0.353   1.662   4.872  0.4334  0.0923  0.0270
 3094SOL    HW121341   0.277   1.611   4.832  0.9805 -0.4612 -0.3134
 3094SOL    HW221342   0.318   1.723   4.943 -0.4133  0.3287 -0.5830
 3095SOL     OW21343   2.562   0.182   2.069  0.5641  0.2347  0.1095
 3095SOL    HW121344   2.544   0.265   2.122  1.3493  1.1277 -0.9978
 3095SOL    HW221345   2.560   0.102   2.130 -1.8046  0.8722  0.9085
 3096SOL     OW21346   1.582   7.805   8.778 -0.4533 -0.2556 -0.7615
 3096SOL    HW121347   1.678   7.779   8.775 -0.0121  1.2274  0.1319
 3096SOL    HW221348   1.567   7.886   8.722 -0.8456  0.5387  0.4747
 3097SOL     OW21349   7.922   0.119   7.693 -0.2697 -0.1824 -0.0207
 3097SOL    HW121350   7.836   0.134   7.742 -1.0445 -1.2574 -1.0386
 3097SOL    HW221351   7.911   0.043   7.629  1.4827 -0.4115 -0.0599
 3098SOL     OW21352   0.091   5.084   8.938  0.0913 -0.0338  0.0002
 3098SOL    HW121353   0.009   5.109   8.990  1.0089 -0.7891  1.8746
 3098SOL    HW221354   0.129   5.166   8.895 -1.8129  0.2636 -1.1721
 3099SOL     OW21355   8.247   1.981   2.939  0.0966  0.1120  0.0129
 3099SOL    HW121356   8.228   1.941   3.029 -0.3676  0.5032  0.0939
 3099SOL    HW221357   8.318   1.928   2.893 -2.7687 -2.8176 -1.2266
 3100SOL     OW21358   3.986   1.886   9.732 -0.2474  0.2476 -0.4730
 3100SOL    HW121359   4.060   1.925   9.678  0.4565 -0.6288 -0.1610
 3100SOL    HW221360   3.975   1.938   9.817  2.9193 -2.1603  1.5290
 3101SOL     OW21361   6.096   8.457   5.574 -0.0308  0.1556  0.2522
 3101SOL    HW121362   6.045   8.394   5.632 -0.7829  0.6174  0.0982
 3101SOL    HW221363   6.044   8.476   5.491  0.3525  0.6935  0.1285
 3102SOL     OW21364   1.234   1.400   7.699 -0.2131 -0.2221  0.1425
 3102SOL    HW121365   1.237   1.428   7.795 -1.6089 -1.1559  0.4625
 3102SOL    HW221366   1.294   1.321   7.685 -1.3209 -1.1348  0.5906
 3103SOL     OW21367   1.037   7.257   0.543  0.1974  0.2373  0.0277
 3103SOL    HW121368   1.025   7.158   0.549  0.0919  0.1928 -0.8767
 3103SOL    HW221369   0.985   7.292   0.466  1.1251  0.8487 -0.3223
 3104SOL     OW21370   9.859   4.378   4.097  0.6945 -0.2356 -0.3669
 3104SOL    HW121371   9.843   4.279   4.105  0.8458 -0.1751  0.7786
 3104SOL    HW221372   9.838   4.422   4.185  2.6469  0.4729 -0.2290
 3105SOL     OW21373   0.881   3.820   1.508  0.5397 -0.4098 -0.1603
 3105SOL    HW121374   0.845   3.912   1.492 -0.3821 -1.1211 -2.4145
 3105SOL    HW221375   0.805   3.755   1.514  1.1797 -1.0185  1.5347
 3106SOL     OW21376   5.217   8.161   5.298  0.0415 -0.0016  0.2615
 3106SOL    HW121377   5.157   8.094   5.341 -0.9679  0.1213 -0.9007
 3106SOL    HW221378   5.226   8.241   5.357 -0.6436 -0.1821  0.6212
 3107SOL     OW21379   8.379   3.696   8.029  0.2746 -0.4200 -0.6388
 3107SOL    HW121380   8.359   3.718   8.124  1.1656  0.7237 -0.7120
 3107SOL    HW221381   8.313   3.629   7.996  0.3726 -1.3622  0.9919
 3108SOL     OW21382   6.051   8.757   3.810 -0.0347  0.0015 -0.2197
 3108SOL    HW121383   6.132   8.762   3.751 -1.1842  1.7198 -1.7367
 3108SOL    HW221384   6.078   8.758   3.906  1.7086  2.1751 -0.6906
 3109SOL     OW21385   1.269   5.158   8.756  0.2317  0.4138  0.4216
 3109SOL    HW121386   1.356   5.194   8.721  0.0192 -0.1071 -0.6815
 3109SOL    HW221387   1.256   5.065   8.723  0.4287 -0.4330  2.6512
 3110SOL     OW21388   9.303   8.013   3.393  0.8303 -0.6109  0.2189
 3110SOL    HW121389   9.300   7.935   3.331 -0.8235 -2.5024  2.6108
 3110SOL    HW221390   9.210   8.042   3.415  1.4247  1.4365  0.1510
 3111SOL     OW21391   8.432   4.514   8.669  0.0826 -0.7312 -0.2460
 3111SOL    HW121392   8.419   4.478   8.761  1.4394  2.2378  1.1553
 3111SOL    HW221393   8.343   4.541   8.631 -0.2851 -0.2968  0.9116
 3112SOL     OW21394   9.566   9.807   0.433 -0.3843 -0.1843 -0.8027
 3112SOL    HW121395   9.656   9.812   0.475 -1.6244 -0.1645  1.9280
 3112SOL    HW221396   9.546   9.712   0.409  0.3928 -0.1716 -1.4970
 3113SOL     OW21397   7.829   5.590   8.402  0.3617  0.5494  0.1856
 3113SOL    HW121398   7.842   5.593   8.501  0.4678  0.7144  0.1677
 3113SOL    HW221399   7.908   5.632   8.357  1.1556 -1.1472 -0.0370
 3114SOL     OW21400   7.878   2.745   8.385 -0.0995 -0.2993 -0.1094
 3114SOL    HW121401   7.833   2.676   8.329 -0.9594  1.6535 -1.8561
 3114SOL    HW221402   7.814   2.818   8.407  1.7046  1.6424 -1.1357
 3115SOL     OW21403   0.126   4.208   4.078  0.6077 -0.6787 -0.2123
 3115SOL    HW121404   0.031   4.208   4.107 -0.3872 -1.2475 -3.2887
 3115SOL    HW221405   0.164   4.301   4.087 -0.9086  0.0351 -1.0580
 3116SOL     OW21406   0.294   8.679   2.124  0.4948 -0.0597 -0.5419
 3116SOL    HW121407   0.322   8.601   2.180  2.0709 -0.7866 -2.2812
 3116SOL    HW221408   0.337   8.762   2.159 -0.5359 -0.0882  0.8211
 3117SOL     OW21409   5.397   8.603   9.497 -0.0018 -0.0800  0.3370
 3117SOL    HW121410   5.355   8.554   9.574  0.1943  0.5350  0.8349
 3117SOL    HW221411   5.456   8.675   9.531 -0.3335  0.5541 -0.4003
 3118SOL     OW21412   2.998   5.663   3.909  0.7021  0.0627  0.6789
 3118SOL    HW121413   3.022   5.575   3.867  0.9381 -0.1927  1.3478
 3118SOL    HW221414   2.992   5.652   4.008  1.6013  1.0035  0.8403
 3119SOL     OW21415   2.650   5.811   6.668 -0.2797  0.1984  0.4169
 3119SOL    HW121416   2.701   5.897   6.668 -0.4174  0.2798  0.3326
 3119SOL    HW221417   2.670   5.761   6.584 -1.1620  0.7171 -0.1102
 3120SOL     OW21418   2.488   3.677   8.414 -0.0847 -0.6869  0.3410
 3120SOL    HW121419   2.447   3.673   8.505 -0.7917 -0.4812  0.0356
 3120SOL    HW221420   2.572   3.731   8.417 -1.4350  1.4690  0.3914
 3121SOL     OW21421   1.939   5.766   2.474 -0.2667 -0.1206  0.2717
 3121SOL    HW121422   1.986   5.800   2.555 -1.6132  2.9215 -0.1353
 3121SOL    HW221423   1.941   5.666   2.473  2.3169 -0.1367  2.4843
 3122SOL     OW21424   5.949   8.708   3.150  0.0183 -0.1745  0.0291
 3122SOL    HW121425   5.866   8.683   3.100 -0.7857  1.6459  0.4272
 3122SOL    HW221426   5.933   8.698   3.248  1.2306 -2.6456  0.0046
 3123SOL     OW21427   6.292   9.827   2.329 -0.7754 -0.2792 -0.6972
 3123SOL    HW121428   6.392   9.835   2.323 -0.7411 -0.4094 -0.3423
 3123SOL    HW221429   6.251   9.852   2.242 -0.3632 -1.3154 -1.1943
 3124SOL     OW21430   2.765   9.882   8.657 -0.5235 -0.0984 -0.0034
 3124SOL    HW121431   2.732   9.900   8.750  3.0381  0.4348  1.2118
 3124SOL    HW221432   2.787   9.785   8.647 -0.0499  0.0111 -0.0182
 3125SOL     OW21433   3.442   3.554   0.591  0.4870  0.1028  0.4404
 3125SOL    HW121434   3.513   3.532   0.525 -0.0703  0.0068 -0.1345
 3125SOL    HW221435   3.442   3.486   0.664 -0.7305 -1.4138 -0.9379
 3126SOL     OW21436   9.757   7.895   3.195  0.2701  0.5216  0.7696
 3126SOL    HW121437   9.850   7.875   3.165  0.4133  1.7183  0.3880
 3126SOL    HW221438   9.742   7.994   3.195 -1.1081  0.3306  0.4872
 3127SOL     OW21439   3.369   7.459   7.039 -0.3779 -0.9494  0.6614
 3127SOL    HW121440   3.293   7.523   7.047  0.4774 -0.0550  2.0185
 3127SOL    HW221441   3.403   7.458   6.945  0.9676  2.2566  1.0319
 3128SOL     OW21442   6.425   8.738   5.812  0.9338  0.5675  0.0670
 3128SOL    HW121443   6.457   8.665   5.872 -1.7127  0.2658  1.1504
 3128SOL    HW221444   6.345   8.708   5.761  1.0723  2.0190 -1.0561
 3129SOL     OW21445   4.373   8.682   1.681 -0.0852 -0.1314 -0.4144
 3129SOL    HW121446   4.321   8.751   1.631  0.6663  0.6060 -0.1781
 3129SOL    HW221447   4.318   8.599   1.689 -0.8138  0.2768 -1.1024
 3130SOL     OW21448   7.402   3.445   9.774  0.2533  0.4549 -0.2254
 3130SOL    HW121449   7.458   3.475   9.851  0.3745 -0.2297 -0.0345
 3130SOL    HW221450   7.424   3.349   9.753 -1.5709 -0.1433  0.5067
 3131SOL     OW21451   4.608   0.927   9.278 -0.2012  0.3497  0.3530
 3131SOL    HW121452   4.637   0.838   9.312  0.2657  0.6677  0.7791
 3131SOL    HW221453   4.687   0.978   9.244 -0.4157  0.7492  0.4460
 3132SOL     OW21454   6.607   4.307   1.307 -0.1350  0.2059  0.5835
 3132SOL    HW121455   6.590   4.211   1.284  0.1113  0.4285 -0.5177
 3132SOL    HW221456   6.538   4.365   1.265  0.2714  0.6063  0.4554
 3133SOL     OW21457   3.094   8.989   5.262  0.5056  0.1414 -0.4066
 3133SOL    HW121458   3.168   8.971   5.326  0.3808 -0.6253 -0.4677
 3133SOL    HW221459   3.027   9.049   5.304  1.9114  2.1054 -0.8898
 3134SOL     OW21460   5.873   0.569   5.353  0.4312 -0.2298 -0.3339
 3134SOL    HW121461   5.964   0.527   5.355  0.4867 -0.0882  0.3862
 3134SOL    HW221462   5.829   0.551   5.265  1.1052 -0.4083 -0.6337
 3135SOL     OW21463   5.796   5.883   0.098 -0.2513 -0.0087  0.8109
 3135SOL    HW121464   5.764   5.950   0.030  0.2292 -0.1948  0.4032
 3135SOL    HW221465   5.835   5.931   0.176 -0.6827  0.2034  0.9011
 3136SOL     OW21466   2.764   5.475   2.828 -0.0014  0.1729  0.1718
 3136SOL    HW121467   2.843   5.493   2.769  0.4978 -0.8527  0.5263
 3136SOL    HW221468   2.710   5.400   2.789 -1.0951  1.1924 -0.3414
 3137SOL     OW21469   7.486   5.370   2.480 -0.0614  0.2974  0.0290
 3137SOL    HW121470   7.490   5.385   2.579 -0.6668 -0.3738  0.1619
 3137SOL    HW221471   7.427   5.439   2.438 -0.0441  0.4017  0.1724
 3138SOL     OW21472   4.751   6.038   4.160 -0.2343  0.0916 -0.8189
 3138SOL    HW121473   4.697   6.023   4.243 -0.5316  1.0267 -0.8262
 3138SOL    HW221474   4.788   5.952   4.127  2.1208  0.0401  1.7962
 3139SOL     OW21475   1.580   3.663   3.236 -0.1180 -0.6592 -0.3445
 3139SOL    HW121476   1.599   3.565   3.224  1.8377 -0.4953  1.0791
 3139SOL    HW221477   1.667   3.713   3.237 -1.1192  1.1222 -1.2364
 3140SOL     OW21478   1.271   6.259   8.068  0.8601  0.3758 -0.1348
 3140SOL    HW121479   1.240   6.189   8.132  1.0842  0.2772 -0.1312
 3140SOL    HW221480   1.370   6.273   8.080  0.4268  2.2331  1.3631
 3141SOL     OW21481   8.589   5.284   2.657 -0.2925 -0.2039  0.5353
 3141SOL    HW121482   8.551   5.191   2.660 -0.3830 -0.1592  0.8294
 3141SOL    HW221483   8.535   5.344   2.716  0.8905 -0.3866  1.8352
 3142SOL     OW21484   5.663   8.653   4.219 -0.5518  0.4555 -0.2894
 3142SOL    HW121485   5.625   8.630   4.130  0.0829 -0.6282 -0.2896
 3142SOL    HW221486   5.761   8.669   4.211 -0.4977  0.4026  0.2070
 3143SOL     OW21487   4.887   9.571   2.640 -0.4636  0.2983 -0.0215
 3143SOL    HW121488   4.790   9.591   2.625 -1.1274 -1.7150  1.5465
 3143SOL    HW221489   4.898   9.482   2.684  1.9840  1.5220  1.9953
 3144SOL     OW21490   2.613   0.786   4.208  0.0605  0.5069 -0.2849
 3144SOL    HW121491   2.596   0.740   4.295 -0.0151  1.0932  0.0117
 3144SOL    HW221492   2.526   0.807   4.164 -0.0101  2.9986  0.9650
 3145SOL     OW21493   8.967   5.123   4.005 -0.0236  0.0792  0.3904
 3145SOL    HW121494   8.958   5.132   3.906  0.9902 -0.5090  0.2374
 3145SOL    HW221495   9.059   5.150   4.033 -0.3217  0.2868  1.1798
 3146SOL     OW21496   3.699   0.630   2.608  0.6873  0.0540  0.8991
 3146SOL    HW121497   3.783   0.679   2.632  1.3004 -0.0571 -0.9782
 3146SOL    HW221498   3.720   0.560   2.540 -0.7770 -0.5933  1.0960
 3147SOL     OW21499   1.919   7.324   1.131  0.4492  0.2765 -0.0604
 3147SOL    HW121500   1.921   7.230   1.097  0.4872  0.5634 -0.8576
 3147SOL    HW221501   1.824   7.357   1.129 -0.0842 -0.8517  3.3064
 3148SOL     OW21502   8.221   8.207   3.626 -0.3943  0.0224  0.0395
 3148SOL    HW121503   8.258   8.265   3.698  0.5235  1.4352 -1.5433
 3148SOL    HW221504   8.295   8.160   3.579 -0.6404  1.9069 -2.3301
 3149SOL     OW21505   7.079   7.377   4.482  0.4740 -0.4285 -0.3377
 3149SOL    HW121506   7.133   7.441   4.537  0.4876 -0.3188 -0.4779
 3149SOL    HW221507   7.083   7.286   4.523  0.9223 -0.4626 -0.4496
 3150SOL     OW21508   9.768   2.437   1.215  0.6131 -0.6390 -0.3929
 3150SOL    HW121509   9.754   2.357   1.158  1.3300 -1.2421  0.2710
 3150SOL    HW221510   9.710   2.512   1.183 -1.7357 -2.0864  0.3609
 3151SOL     OW21511   3.440   2.235   8.621  0.1246 -0.0177  0.3635
 3151SOL    HW121512   3.426   2.242   8.522  1.0370  0.0138  0.2350
 3151SOL    HW221513   3.387   2.157   8.656 -0.1650 -0.0603 -0.1515
 3152SOL     OW21514   8.862   4.815   7.617 -0.1801  0.0912 -0.1456
 3152SOL    HW121515   8.844   4.871   7.535  0.6424  1.4330  0.5635
 3152SOL    HW221516   8.957   4.830   7.646 -0.0659 -1.4150  0.2811
 3153SOL     OW21517   2.777   4.593   1.312 -0.3802 -0.3186 -0.4653
 3153SOL    HW121518   2.761   4.506   1.357 -0.4733  0.2274  0.5549
 3153SOL    HW221519   2.874   4.600   1.288 -0.7104 -1.5115 -2.2656
 3154SOL     OW21520   0.672   8.018   2.086  0.1149 -0.1879  0.4059
 3154SOL    HW121521   0.586   7.983   2.123  0.4156 -1.1291  0.2124
 3154SOL    HW221522   0.718   7.946   2.034  0.6770  0.5222 -0.0962
 3155SOL     OW21523   8.722   5.930   6.981  0.0851 -0.1509 -0.0603
 3155SOL    HW121524   8.797   5.866   6.998 -0.0464 -0.3432 -0.1990
 3155SOL    HW221525   8.702   5.980   7.065  1.8816  1.5354 -0.6174
 3156SOL     OW21526   1.338   6.978   2.584 -0.1997  0.1249 -0.1176
 3156SOL    HW121527   1.405   6.909   2.554 -2.3253 -2.7519  1.4794
 3156SOL    HW221528   1.387   7.060   2.615  2.5596 -1.5643  0.2369
 3157SOL     OW21529   1.606   3.844   1.677  0.2523  0.1025  0.2287
 3157SOL    HW121530   1.686   3.785   1.684  0.9150  0.8838 -0.6794
 3157SOL    HW221531   1.546   3.809   1.605 -0.2219 -0.4730  0.8973
 3158SOL     OW21532   0.622   3.355   6.036  0.0791  0.1655 -0.1670
 3158SOL    HW121533   0.529   3.383   6.015  0.0405 -0.0771 -0.3148
 3158SOL    HW221534   0.669   3.327   5.952  0.4879  0.8894 -0.1845
 3159SOL     OW21535   9.062   3.103   7.415  0.4336  0.4657 -0.2462
 3159SOL    HW121536   9.149   3.084   7.368 -0.3543 -1.7932 -0.8935
 3159SOL    HW221537   8.991   3.121   7.346 -0.4399 -1.5669  0.0818
 3160SOL     OW21538   4.548   0.572   6.318 -0.1236 -0.4274 -0.1560
 3160SOL    HW121539   4.491   0.567   6.400 -0.4483 -1.0887 -0.4189
 3160SOL    HW221540   4.563   0.480   6.282  1.5473 -0.3123  0.2088
 3161SOL     OW21541   3.868   9.225   7.003 -0.3803 -0.1815 -0.5943
 3161SOL    HW121542   3.885   9.163   6.927  0.8564 -3.1825  2.0234
 3161SOL    HW221543   3.931   9.205   7.078 -3.6825  0.4575  2.5002
 3162SOL     OW21544   0.460   6.105   6.072 -0.1025 -0.0141 -0.2529
 3162SOL    HW121545   0.448   6.091   6.170  0.1182  0.3443 -0.1735
 3162SOL    HW221546   0.529   6.043   6.037  1.6358  1.5640  0.2941
 3163SOL     OW21547   8.221   5.969   3.772  0.6530 -0.1800 -0.1179
 3163SOL    HW121548   8.140   5.943   3.718 -0.3512  1.7996  0.3809
 3163SOL    HW221549   8.252   6.059   3.742  0.8826  0.3636  1.7121
 3164SOL     OW21550   1.316   7.684   5.342 -0.2065 -0.1946 -0.0084
 3164SOL    HW121551   1.407   7.724   5.352  0.5230 -1.6327 -0.6185
 3164SOL    HW221552   1.275   7.670   5.432 -0.0491  0.9487  0.2458
 3165SOL     OW21553   4.041   1.915  10.069 -0.5633 -0.5586  0.0653
 3165SOL    HW121554   4.044   1.986  10.140  0.0653 -0.4747 -0.0398
 3165SOL    HW221555   4.116   1.930  10.005  0.0806 -1.8189  0.5218
 3166SOL     OW21556   7.551   8.778   9.020 -0.4563 -0.1389  0.2187
 3166SOL    HW121557   7.480   8.715   8.988 -1.9584  1.4568  0.3134
 3166SOL    HW221558   7.542   8.865   8.972  1.9297 -0.1534 -0.2935
 3167SOL     OW21559   1.933   0.839   2.910  0.3808  0.5401 -0.0315
 3167SOL    HW121560   1.890   0.819   2.998 -1.1865  0.7080 -0.7372
 3167SOL    HW221561   1.982   0.926   2.915 -1.1593  1.4154  0.1940
 3168SOL     OW21562   8.373   5.315   1.516 -0.6124 -0.2388 -0.0366
 3168SOL    HW121563   8.465   5.355   1.519 -0.3718 -0.8172  0.5935
 3168SOL    HW221564   8.317   5.354   1.590 -0.2095 -1.4424  0.9278
 3169SOL     OW21565   8.079   1.437   8.064  0.3128  0.0394 -0.2043
 3169SOL    HW121566   7.995   1.492   8.065  0.3844  0.1448  1.0812
 3169SOL    HW221567   8.099   1.408   7.971 -0.0447  1.7129 -0.8195
 3170SOL     OW21568   2.171   9.466   7.211 -0.0178  0.5421 -0.1495
 3170SOL    HW121569   2.082   9.485   7.171  1.0398  0.1068 -2.8310
 3170SOL    HW221570   2.162   9.452   7.310 -2.8112  0.9997 -0.3210
 3171SOL     OW21571   1.030   6.061   9.183 -0.0303  0.1685  0.1550
 3171SOL    HW121572   1.081   6.112   9.114  0.2885  0.4764  0.6194
 3171SOL    HW221573   1.095   6.016   9.246 -0.3123 -0.4028  0.0457
 3172SOL     OW21574   6.505   2.093   1.774 -0.2196  0.0882  0.6593
 3172SOL    HW121575   6.503   2.138   1.685  0.8646  1.5761  1.3507
 3172SOL    HW221576   6.415   2.056   1.796 -0.2500 -1.1646 -1.4723
 3173SOL     OW21577   6.158   1.234   0.528 -0.4092  0.2029  0.6770
 3173SOL    HW121578   6.220   1.311   0.516  1.9896 -1.4981  1.7295
 3173SOL    HW221579   6.109   1.244   0.614 -1.1844  1.2590  0.1231
 3174SOL     OW21580   9.839   7.070   8.748 -0.2423 -0.1082 -0.3583
 3174SOL    HW121581   9.767   7.007   8.720 -0.2795 -0.1112 -0.2530
 3174SOL    HW221582   9.830   7.090   8.846 -0.3400  0.2005 -0.4291
 3175SOL     OW21583   5.237   3.999   9.631  0.1869 -0.1955  0.5146
 3175SOL    HW121584   5.210   4.086   9.590  0.4651 -0.2985  0.1096
 3175SOL    HW221585   5.178   3.979   9.709 -0.1170  0.1783  0.3827
 3176SOL     OW21586   3.340   2.672   8.724  0.2257  0.0399  0.3012
 3176SOL    HW121587   3.415   2.715   8.775  1.0967 -0.8861 -0.1794
 3176SOL    HW221588   3.345   2.573   8.735  0.7334 -0.2179 -1.9668
 3177SOL     OW21589   3.324   1.759   8.116 -1.1823 -0.5277 -0.2121
 3177SOL    HW121590   3.252   1.747   8.185 -0.8487 -0.9272  0.0735
 3177SOL    HW221591   3.379   1.839   8.138 -1.3737 -0.3798 -0.2777
 3178SOL     OW21592   2.174   6.094   3.362 -0.2937 -0.0585  0.0263
 3178SOL    HW121593   2.138   6.109   3.454 -1.0966 -0.3056 -0.2413
 3178SOL    HW221594   2.239   6.018   3.363  1.0459  1.0823  0.7118
 3179SOL     OW21595   0.656   4.802   9.649 -0.2823  0.7511 -0.7369
 3179SOL    HW121596   0.718   4.757   9.584 -0.3432  0.6992 -0.7601
 3179SOL    HW221597   0.650   4.748   9.733  0.2885  1.1452 -0.4394
 3180SOL     OW21598   4.127   2.602   6.116 -0.3815  0.3783 -0.1032
 3180SOL    HW121599   4.173   2.689   6.133  0.2920  0.4946 -2.3696
 3180SOL    HW221600   4.031   2.609   6.145 -0.2041  1.7038  0.1895
 3181SOL     OW21601   6.621   7.582   6.620  0.1256  0.1040 -0.6412
 3181SOL    HW121602   6.569   7.639   6.684  1.3545  0.1316  0.3507
 3181SOL    HW221603   6.558   7.525   6.567 -0.8450 -0.8743  1.5179
 3182SOL     OW21604   2.972   6.516   1.560 -0.2107  0.3528 -0.1460
 3182SOL    HW121605   2.982   6.417   1.571  0.7582  0.5135  0.5844
 3182SOL    HW221606   2.951   6.537   1.465  1.9921 -0.4039 -0.8449
 3183SOL     OW21607   0.087   5.473   6.426 -0.1680 -0.2244 -0.2325
 3183SOL    HW121608   0.146   5.444   6.502  1.2592  1.9868 -0.4593
 3183SOL    HW221609  -0.008   5.455   6.450  0.4272 -1.9566  0.9902
 3184SOL     OW21610   4.728   3.153   5.872 -0.5117  0.0755  0.3702
 3184SOL    HW121611   4.787   3.116   5.801  0.2404  0.4432  0.8049
 3184SOL    HW221612   4.741   3.103   5.957  0.4214  1.2280  0.9249
 3185SOL     OW21613   8.404   5.555   5.971 -0.0083 -0.0006  0.4988
 3185SOL    HW121614   8.355   5.598   6.046 -2.2183 -0.9833 -0.3497
 3185SOL    HW221615   8.437   5.465   5.999  1.0014  0.4939  0.9391
 3186SOL     OW21616   2.756   5.636   7.421  0.9749  0.5449 -0.4949
 3186SOL    HW121617   2.716   5.644   7.512  0.5335  0.9519 -0.7199
 3186SOL    HW221618   2.737   5.719   7.368  0.6798  0.0609 -1.1649
 3187SOL     OW21619   0.789   2.648   9.107  0.0736 -0.0623  0.1155
 3187SOL    HW121620   0.846   2.622   9.185 -2.3839  0.9107  2.3102
 3187SOL    HW221621   0.780   2.748   9.105 -0.3068 -0.1208 -1.0856
 3188SOL     OW21622   4.849   3.251   9.330 -0.4425  0.4256  0.1356
 3188SOL    HW121623   4.822   3.256   9.234 -2.0546  0.9109  0.6004
 3188SOL    HW221624   4.828   3.337   9.376  0.4826  0.2619  0.8917
 3189SOL     OW21625   6.598   3.158   2.026 -0.2236 -0.3502 -0.7374
 3189SOL    HW121626   6.638   3.243   1.991  0.5123 -1.2177 -2.0729
 3189SOL    HW221627   6.500   3.170   2.039 -0.0465  0.8503 -0.4539
 3190SOL     OW21628   6.207   2.370   0.583  0.1548  1.0574  0.1056
 3190SOL    HW121629   6.148   2.344   0.660  0.7757  2.4600  1.0684
 3190SOL    HW221630   6.158   2.436   0.525  0.6298  1.9344  0.6982
 3191SOL     OW21631   1.064   5.086   7.044 -0.1873  0.0118 -0.0062
 3191SOL    HW121632   1.144   5.051   6.996 -1.8508 -0.9362 -2.1785
 3191SOL    HW221633   1.019   5.154   6.987  0.1486  2.0176  2.0436
 3192SOL     OW21634   5.731   6.930   1.104 -0.1879 -0.5273  0.4336
 3192SOL    HW121635   5.634   6.954   1.098  0.2797  0.9513 -2.0298
 3192SOL    HW221636   5.761   6.934   1.200 -2.0660  1.0028  0.9879
 3193SOL     OW21637   9.952   4.931   9.831 -0.0490 -0.0812  0.0102
 3193SOL    HW121638  10.020   4.953   9.761 -1.1970  0.7160 -0.8844
 3193SOL    HW221639   9.890   5.009   9.842 -0.3691 -0.5150  1.3380
 3194SOL     OW21640   8.006   3.145   6.774 -0.1522  0.0533  0.1309
 3194SOL    HW121641   7.990   3.097   6.860  0.2353 -0.7632 -0.2400
 3194SOL    HW221642   7.924   3.139   6.717 -0.3178  0.3643  0.3372
 3195SOL     OW21643   3.529   3.455   2.326 -0.3544 -0.2210 -0.2043
 3195SOL    HW121644   3.591   3.531   2.347 -0.0671 -0.3875 -0.4310
 3195SOL    HW221645   3.577   3.368   2.341 -0.7579 -0.3587  0.2747
 3196SOL     OW21646   7.990   1.247   6.216  0.5155  0.3637  0.4473
 3196SOL    HW121647   7.927   1.192   6.162  0.2776  1.8201 -0.8095
 3196SOL    HW221648   7.945   1.332   6.243  1.2944  0.5289  1.2557
 3197SOL     OW21649   8.916   5.684   9.687 -0.5959  0.5243 -0.3494
 3197SOL    HW121650   8.942   5.680   9.783 -0.1927 -1.4037 -0.5280
 3197SOL    HW221651   8.894   5.779   9.662 -0.0676  1.1302  1.4580
 3198SOL     OW21652   2.184   0.617   0.846  0.1717  0.1397  0.0085
 3198SOL    HW121653   2.136   0.650   0.927 -0.2637 -1.7255  0.5439
 3198SOL    HW221654   2.120   0.566   0.788  0.8318  0.1545 -0.7419
 3199SOL     OW21655   9.897   3.154   6.790  0.2466 -0.4910  0.1884
 3199SOL    HW121656   9.925   3.217   6.718  0.4417 -1.0286 -0.2072
 3199SOL    HW221657   9.840   3.082   6.751  0.5879 -0.9479  0.5218
 3200SOL     OW21658   7.445   6.138   4.697  0.4415  0.3397  0.1792
 3200SOL    HW121659   7.491   6.053   4.675 -0.8395 -0.0066 -1.2415
 3200SOL    HW221660   7.370   6.120   4.761  0.1428  0.4067 -0.1543
 3201SOL     OW21661   0.471   3.035   8.874  1.0274 -0.1991  0.0786
 3201SOL    HW121662   0.454   3.077   8.785  1.7826 -0.0270  0.0137
 3201SOL    HW221663   0.446   2.938   8.872 -0.6199  0.2162  0.1932
 3202SOL     OW21664   2.349   2.032   0.739 -0.3497 -0.4502  0.1961
 3202SOL    HW121665   2.370   2.060   0.833  1.7097 -1.0738 -0.0582
 3202SOL    HW221666   2.413   2.075   0.676 -1.1260 -0.7865 -0.8496
 3203SOL     OW21667   9.101   0.983   4.466  0.0951  0.7404  0.2636
 3203SOL    HW121668   9.030   0.965   4.398  0.6823 -0.0593 -0.1498
 3203SOL    HW221669   9.099   1.079   4.492 -1.7965  0.5375  1.0023
 3204SOL     OW21670   8.562   3.382   8.174 -0.0595  0.0745 -0.2105
 3204SOL    HW121671   8.620   3.431   8.108  0.7104  0.6802  0.9113
 3204SOL    HW221672   8.610   3.375   8.261 -1.2744 -0.3422  0.4236
 3205SOL     OW21673   2.722   6.234   7.405  0.2535  0.2416  0.2985
 3205SOL    HW121674   2.745   6.331   7.412 -0.7195  0.5114 -0.0928
 3205SOL    HW221675   2.691   6.214   7.312 -3.2545  0.4099  1.3608
 3206SOL     OW21676   7.084   9.904   9.394 -0.1540  0.8337  0.1462
 3206SOL    HW121677   7.119   9.892   9.301 -0.7424 -1.3369  0.1775
 3206SOL    HW221678   7.124   9.834   9.454 -1.3668  0.9103  1.0576
 3207SOL     OW21679   0.289   0.998   1.794 -0.5012 -0.3088 -0.2286
 3207SOL    HW121680   0.381   0.969   1.770  0.1593  2.8583 -1.8856
 3207SOL    HW221681   0.273   0.985   1.892  1.2657 -1.9412 -0.1403
 3208SOL     OW21682   4.284   8.206   3.768  0.2703 -0.1306  0.4900
 3208SOL    HW121683   4.212   8.232   3.704  0.2280  0.3423  0.7290
 3208SOL    HW221684   4.311   8.111   3.751 -0.8189 -0.5008  0.7936
 3209SOL     OW21685   7.129   2.651   0.915 -0.0301 -0.3626 -0.1046
 3209SOL    HW121686   7.218   2.695   0.914 -0.6917  0.9848 -1.4251
 3209SOL    HW221687   7.068   2.701   0.978  0.0763 -1.1602  0.6451
 3210SOL     OW21688   9.068   2.306   8.747 -0.1820  0.0647  0.3222
 3210SOL    HW121689   9.007   2.381   8.719  0.0096  0.2154  0.3068
 3210SOL    HW221690   9.119   2.275   8.667 -0.3125 -0.1317  0.3146
 3211SOL     OW21691   2.017   2.502   3.981 -0.2544 -1.0978  0.2695
 3211SOL    HW121692   1.986   2.539   3.893 -0.2081  0.7969  1.0071
 3211SOL    HW221693   1.942   2.457   4.028 -1.0032  0.3048  0.4516
 3212SOL     OW21694   8.771   5.251   4.435 -0.0664  0.3541  0.3764
 3212SOL    HW121695   8.782   5.253   4.534  2.8703 -1.2949  0.1611
 3212SOL    HW221696   8.736   5.161   4.408 -2.9714  1.5396  0.0475
 3213SOL     OW21697   6.385   3.551   9.221 -0.2701 -0.1813 -0.4522
 3213SOL    HW121698   6.424   3.586   9.136  0.6287 -1.2849 -0.5015
 3213SOL    HW221699   6.358   3.456   9.209  0.6945 -0.6167  0.7589
 3214SOL     OW21700   8.447   8.139   7.265 -0.0750  0.3512  0.1148
 3214SOL    HW121701   8.480   8.178   7.179  0.9494 -0.0568  0.3173
 3214SOL    HW221702   8.523   8.129   7.328 -1.0348  1.9317  1.5832
 3215SOL     OW21703   2.697   3.316   3.833 -0.3283 -0.1345  0.0098
 3215SOL    HW121704   2.636   3.384   3.873  0.4128  0.3003  0.4175
 3215SOL    HW221705   2.654   3.226   3.837 -1.5114  0.3690 -0.9502
 3216SOL     OW21706   1.119   6.817   4.810  0.5422  0.1514 -0.0297
 3216SOL    HW121707   1.158   6.878   4.879  3.7320  2.5774 -3.7726
 3216SOL    HW221708   1.175   6.735   4.802  1.9080  1.2178 -1.7120
 3217SOL     OW21709   1.962   2.043   2.187 -0.2492 -0.0129  0.6421
 3217SOL    HW121710   1.865   2.036   2.207 -0.7961  1.3895 -1.4189
 3217SOL    HW221711   2.003   2.117   2.241 -1.2323  2.1873 -1.5205
 3218SOL     OW21712   5.044   9.327   8.165  0.0369 -0.7721  0.5421
 3218SOL    HW121713   5.055   9.308   8.262  0.6358  0.1912  0.6596
 3218SOL    HW221714   5.128   9.365   8.128 -0.0195 -1.6013 -0.4711
 3219SOL     OW21715   3.046   5.635   6.462 -0.1851  0.1884  0.1372
 3219SOL    HW121716   3.037   5.718   6.406  0.0474 -0.2232 -0.5104
 3219SOL    HW221717   2.978   5.568   6.433  0.7545 -0.4936 -0.4708
 3220SOL     OW21718   0.449   3.073   2.859  1.0345 -0.2608  0.4194
 3220SOL    HW121719   0.530   3.130   2.846  0.1631  1.3320  1.7448
 3220SOL    HW221720   0.378   3.102   2.796  0.6249  0.0656  1.0247
 3221SOL     OW21721   3.905   6.671   6.867  0.0787 -0.5258 -0.0726
 3221SOL    HW121722   3.852   6.592   6.898  1.1132 -0.6931  1.3329
 3221SOL    HW221723   3.862   6.755   6.899 -0.3905 -0.5676 -0.5856
 3222SOL     OW21724   6.688   9.443   3.832  0.1401 -0.1669  0.0800
 3222SOL    HW121725   6.618   9.439   3.904  0.2913  1.4757  0.3262
 3222SOL    HW221726   6.643   9.447   3.742 -0.0778  0.0241  0.1964
 3223SOL     OW21727   3.937   6.177   2.578  0.0002  0.2929  0.7007
 3223SOL    HW121728   3.946   6.084   2.612 -0.3845 -0.5728 -1.4645
 3223SOL    HW221729   4.016   6.231   2.606  1.1857 -1.2234  0.3405
 3224SOL     OW21730   9.671   8.926   5.331 -0.0824  0.5121 -0.2871
 3224SOL    HW121731   9.595   8.928   5.266  1.4145  1.4338 -2.0685
 3224SOL    HW221732   9.756   8.949   5.283  1.5617 -1.9661  1.3623
 3225SOL     OW21733   7.714   3.474   9.859 -0.8052  0.5181 -0.3079
 3225SOL    HW121734   7.754   3.436   9.776 -0.2913 -2.1343  1.0924
 3225SOL    HW221735   7.758   3.561   9.881  1.3999 -0.3933 -0.9942
 3226SOL     OW21736   2.380   2.335   1.897  0.0921 -0.4731 -0.0421
 3226SOL    HW121737   2.284   2.312   1.913 -0.3215  1.2517 -0.0566
 3226SOL    HW221738   2.427   2.346   1.984 -0.0695  0.1553 -0.0364
 3227SOL     OW21739   7.729   8.451   2.669  0.0898  0.1897  0.7204
 3227SOL    HW121740   7.710   8.424   2.575 -0.2225  0.4556  0.7104
 3227SOL    HW221741   7.826   8.432   2.690  0.6270  1.8469 -0.2322
 3228SOL     OW21742   8.537   1.009   1.813  0.3557 -0.1863 -0.2131
 3228SOL    HW121743   8.626   1.016   1.767  0.7818 -0.2601  0.5951
 3228SOL    HW221744   8.469   0.973   1.749  1.2773 -1.7117 -0.3577
 3229SOL     OW21745   6.388   0.099   2.044  0.5130 -0.6870  0.6165
 3229SOL    HW121746   6.400   0.053   1.956  0.3156  0.8177 -0.2263
 3229SOL    HW221747   6.355   0.192   2.028  0.5672 -0.3666  2.2891
 3230SOL     OW21748   5.241   2.733  10.025 -0.0278 -0.2061  0.0822
 3230SOL    HW121749   5.199   2.717   9.936  0.9083 -4.3247  0.2795
 3230SOL    HW221750   5.330   2.688  10.029  0.6229  1.1695  2.6047
 3231SOL     OW21751   1.016   5.434   6.521  0.1708 -0.8756 -0.6344
 3231SOL    HW121752   0.953   5.404   6.593  0.0359  1.4869  0.2875
 3231SOL    HW221753   1.110   5.412   6.548  0.3224  1.9265  1.3591
 3232SOL     OW21754   1.026   9.959   1.794  0.1997  0.3190  0.0684
 3232SOL    HW121755   1.082  10.034   1.757  2.8385 -2.1710 -1.2101
 3232SOL    HW221756   0.989   9.904   1.719 -3.4610  1.4632  0.9265
 3233SOL     OW21757   4.015   2.786   3.650 -0.3220 -0.3212  0.0692
 3233SOL    HW121758   3.944   2.739   3.702  0.7967 -1.4870  0.5507
 3233SOL    HW221759   3.986   2.880   3.631 -1.1391 -0.1766  1.9859
 3234SOL     OW21760   9.633   1.648   5.583 -0.5613  0.1973  0.0762
 3234SOL    HW121761   9.611   1.574   5.647  0.0769 -0.1246 -0.0701
 3234SOL    HW221762   9.704   1.707   5.622 -0.2158  0.0381 -0.2976
 3235SOL     OW21763   5.069   0.243   6.883  0.0324 -0.3297 -0.4903
 3235SOL    HW121764   4.974   0.221   6.861 -0.2145  0.0114  0.2354
 3235SOL    HW221765   5.129   0.182   6.832 -0.5576 -0.1506 -1.4139
 3236SOL     OW21766   4.542   5.303   3.683 -0.1020 -0.2059  0.4901
 3236SOL    HW121767   4.484   5.383   3.674  0.3125  0.2092  1.5117
 3236SOL    HW221768   4.632   5.330   3.716  0.2054 -1.0312  0.3498
 3237SOL     OW21769   0.835   3.505   7.206  0.6590  0.1635  0.0223
 3237SOL    HW121770   0.861   3.572   7.276  1.2652  0.3268 -0.3517
 3237SOL    HW221771   0.854   3.543   7.116  2.1791 -0.9834 -0.1607
 3238SOL     OW21772   3.293   3.908   4.537 -0.1745  0.0002  0.7415
 3238SOL    HW121773   3.324   3.813   4.531  1.0101  0.3866  0.7461
 3238SOL    HW221774   3.346   3.965   4.475 -2.2318  0.3471 -0.7743
 3239SOL     OW21775   8.278   4.080   3.128 -0.3946 -0.0982 -0.6799
 3239SOL    HW121776   8.291   4.091   3.030 -1.0723 -2.4689 -1.0643
 3239SOL    HW221777   8.190   4.034   3.145 -0.2173  0.1512  1.0191
 3240SOL     OW21778   9.541   1.918   3.112  0.0570 -0.6011 -0.3234
 3240SOL    HW121779   9.589   2.003   3.135 -1.7418  0.3602 -0.0961
 3240SOL    HW221780   9.486   1.932   3.029  0.6751 -1.9012 -0.9836
 3241SOL     OW21781   2.834   0.631   3.759 -0.0904 -0.6011 -0.3162
 3241SOL    HW121782   2.859   0.725   3.782 -0.1441 -1.2302  2.6309
 3241SOL    HW221783   2.911   0.570   3.780 -0.9171 -1.4767  0.2432
 3242SOL     OW21784   0.958   6.947   0.781  0.3523 -0.2993  0.0523
 3242SOL    HW121785   0.983   6.984   0.692 -0.1408 -0.3068 -0.0916
 3242SOL    HW221786   1.035   6.895   0.818 -0.0226 -1.7767 -1.1661
 3243SOL     OW21787   2.201   6.608   6.459  0.2898 -0.3199  0.5919
 3243SOL    HW121788   2.156   6.520   6.444  0.3623 -0.1634 -0.6490
 3243SOL    HW221789   2.249   6.634   6.375  0.5844  0.7165  1.0852
 3244SOL     OW21790   4.901   2.951   6.538 -0.0834 -0.0772 -0.2554
 3244SOL    HW121791   4.972   2.958   6.609  0.6168 -1.5491 -0.8049
 3244SOL    HW221792   4.927   3.008   6.460 -0.6615  1.2310  0.4794
 3245SOL     OW21793   5.854   5.252   8.607  0.3242  0.6440  0.5792
 3245SOL    HW121794   5.825   5.158   8.628  1.0921  0.4434  0.7476
 3245SOL    HW221795   5.884   5.256   8.512  1.8035  0.3459  1.0252
 3246SOL     OW21796   2.698   7.447   1.172  0.0625 -0.1701 -0.2243
 3246SOL    HW121797   2.661   7.457   1.265  1.8598 -3.1878  0.9050
 3246SOL    HW221798   2.632   7.398   1.115 -0.0134 -0.5226  0.1646
 3247SOL     OW21799   1.105   0.015   5.288 -0.0603 -0.3690 -0.0686
 3247SOL    HW121800   1.065  -0.044   5.218 -0.1085 -0.0443 -0.3164
 3247SOL    HW221801   1.128   0.104   5.247 -0.8621  0.1084  0.5221
 3248SOL     OW21802   3.111   0.763   8.948  0.2815 -0.2180 -0.4802
 3248SOL    HW121803   3.076   0.689   9.005  1.1993 -0.3383 -0.0674
 3248SOL    HW221804   3.083   0.851   8.986  0.8752 -0.3000  0.1498
 3249SOL     OW21805   1.910   0.592   6.957 -0.3951 -0.4071  0.0891
 3249SOL    HW121806   1.828   0.556   7.000 -0.4236 -0.7828 -0.2798
 3249SOL    HW221807   1.888   0.627   6.866 -0.0711 -0.8775 -0.1713
 3250SOL     OW21808   1.475   0.103   1.934  0.2720  0.5425 -0.3042
 3250SOL    HW121809   1.450   0.050   1.853  1.3960  1.7363 -1.4579
 3250SOL    HW221810   1.393   0.126   1.986 -0.1981 -2.7402  0.5122
 3251SOL     OW21811   3.317   9.273   5.845 -0.3984 -0.0110  0.7027
 3251SOL    HW121812   3.401   9.226   5.815 -0.7133 -0.2078  0.1117
 3251SOL    HW221813   3.241   9.209   5.841 -1.0542  0.8511 -1.2212
 3252SOL     OW21814   1.485   9.150   1.018  0.3000  0.2449  0.0183
 3252SOL    HW121815   1.431   9.076   1.058 -2.0951  0.8242 -2.0006
 3252SOL    HW221816   1.490   9.226   1.082 -1.5562  0.2773  0.1595
 3253SOL     OW21817   0.300   2.311   5.275 -0.5030  0.1155  0.0087
 3253SOL    HW121818   0.390   2.272   5.296 -0.9296 -0.7365  0.3011
 3253SOL    HW221819   0.283   2.303   5.176 -0.8988 -1.1685  0.1607
 3254SOL     OW21820   9.896   4.205   3.429 -0.3730 -0.1018 -0.0151
 3254SOL    HW121821   9.957   4.264   3.482  3.2391 -2.0241 -1.8091
 3254SOL    HW221822   9.843   4.260   3.365  0.4091  1.5436  0.7268
 3255SOL     OW21823   1.860   9.805   4.067  0.0819  0.2200  0.4801
 3255SOL    HW121824   1.950   9.789   4.106 -0.2456 -0.4525  0.9720
 3255SOL    HW221825   1.809   9.868   4.125 -1.0786 -2.1943  2.1759
 3256SOL     OW21826   2.021   8.078   9.345 -0.3339 -0.0850 -0.1901
 3256SOL    HW121827   2.024   8.176   9.328  3.1379 -0.0421  0.3724
 3256SOL    HW221828   1.948   8.037   9.290 -0.9837  2.6039 -1.4074
 3257SOL     OW21829   2.332   9.896   1.860  0.8120 -0.1037  0.2686
 3257SOL    HW121830   2.258   9.836   1.829  0.3566  2.1359 -3.3253
 3257SOL    HW221831   2.319   9.917   1.956 -3.0792 -0.0605 -0.1732
 3258SOL     OW21832   1.934   4.137   0.176  0.4286 -0.0383  0.1829
 3258SOL    HW121833   1.999   4.210   0.158  1.8485 -1.2490  0.2851
 3258SOL    HW221834   1.952   4.060   0.115 -1.2314 -0.2078 -0.1324
 3259SOL     OW21835   8.761   2.963   5.415  0.2115  0.4292 -0.1921
 3259SOL    HW121836   8.806   3.012   5.490 -0.6461 -1.9710  1.9805
 3259SOL    HW221837   8.831   2.917   5.360  0.6211 -2.5182  2.6069
 3260SOL     OW21838   6.480   6.320   8.220 -0.1887 -0.0477  0.4994
 3260SOL    HW121839   6.525   6.306   8.132 -1.7098 -0.8425 -0.1899
 3260SOL    HW221840   6.518   6.400   8.265  0.2044  0.7238 -1.1573
 3261SOL     OW21841   0.642   1.041   5.395 -0.0621  0.1037  0.6756
 3261SOL    HW121842   0.636   1.136   5.365 -1.5282 -0.1776 -0.0029
 3261SOL    HW221843   0.736   1.018   5.418  0.1582  1.9748  1.7145
 3262SOL     OW21844   9.583   7.464   6.245 -0.1963 -0.0079 -0.0728
 3262SOL    HW121845   9.557   7.377   6.287  0.5341  0.1191  0.6455
 3262SOL    HW221846   9.655   7.507   6.299  1.3513 -0.2276 -1.8965
 3263SOL     OW21847   9.847   8.894   4.105 -0.0466  0.3709  0.2721
 3263SOL    HW121848   9.876   8.866   4.197 -0.9872 -0.3800  0.3450
 3263SOL    HW221849   9.769   8.956   4.112 -0.2708  0.1257 -0.0193
 3264SOL     OW21850   1.509   5.580   0.030 -0.2044  0.0192  0.6367
 3264SOL    HW121851   1.487   5.645  -0.043 -0.2760  0.5829  1.1554
 3264SOL    HW221852   1.568   5.624   0.097 -1.6486  0.1061  1.8948
 3265SOL     OW21853   4.473   1.608   4.819 -0.0046 -0.4879 -0.7691
 3265SOL    HW121854   4.447   1.520   4.857 -0.4165  0.1272  0.3878
 3265SOL    HW221855   4.408   1.635   4.749  0.4319 -1.3535 -1.5263
 3266SOL     OW21856   9.980   0.959   0.500  0.9931  0.3243 -0.3854
 3266SOL    HW121857   9.918   1.026   0.540  1.6043  0.9702 -0.5145
 3266SOL    HW221858  10.074   0.994   0.503  1.1642 -0.0229 -1.5081
 3267SOL     OW21859   2.076   0.102   3.907 -0.0760 -0.5201  0.0983
 3267SOL    HW121860   2.008   0.158   3.858  0.6822  1.2848  1.0420
 3267SOL    HW221861   2.052   0.098   4.003 -0.8180 -2.9355 -0.1614
 3268SOL     OW21862   4.798   0.334   7.517  0.0250  0.2968 -0.3467
 3268SOL    HW121863   4.724   0.316   7.453  1.0020 -0.4177 -1.2928
 3268SOL    HW221864   4.770   0.308   7.610 -0.6204 -0.7099 -0.8184
 3269SOL     OW21865   6.089   9.788   8.032 -0.0352  0.1519  0.1503
 3269SOL    HW121866   6.137   9.871   8.061 -0.3421  0.5998 -0.6205
 3269SOL    HW221867   6.151   9.728   7.983  0.0031  0.2480  0.0830
 3270SOL     OW21868   0.363   0.321   0.309  0.0761  0.4182  0.2908
 3270SOL    HW121869   0.322   0.347   0.222 -0.4328  0.6456  0.5947
 3270SOL    HW221870   0.330   0.231   0.336  0.5603  0.1676  0.0419
 3271SOL     OW21871   0.559   7.234   3.342  0.1542 -0.6370  0.0874
 3271SOL    HW121872   0.550   7.136   3.329  0.3938 -0.6929  0.3528
 3271SOL    HW221873   0.653   7.256   3.368 -0.0666 -0.4115  0.6976
 3272SOL     OW21874   4.373   7.369   6.006 -0.2352 -0.1779  0.3674
 3272SOL    HW121875   4.337   7.324   6.088  1.1480  0.1350  1.1747
 3272SOL    HW221876   4.472   7.354   6.001  0.1171  1.9821  0.1651
 3273SOL     OW21877   0.402   1.986   6.087 -0.4150 -0.2648 -0.5228
 3273SOL    HW121878   0.312   1.995   6.044 -0.7911  1.6354  0.6097
 3273SOL    HW221879   0.453   2.070   6.075  1.0171 -1.1375 -0.6526
 3274SOL     OW21880   0.619   1.618   1.924 -0.4300  0.0022 -0.1294
 3274SOL    HW121881   0.706   1.592   1.880 -0.6975 -0.2971 -0.4857
 3274SOL    HW221882   0.602   1.557   2.001  0.5430  1.1620  1.0298
 3275SOL     OW21883   9.765   4.400   5.076  0.0574 -0.0731  0.6154
 3275SOL    HW121884   9.832   4.359   5.138 -0.2996  0.3598  1.2927
 3275SOL    HW221885   9.672   4.378   5.108 -0.1741  2.9409  2.1677
 3276SOL     OW21886   3.606   3.448   4.584  0.1729  0.7047 -0.0361
 3276SOL    HW121887   3.554   3.370   4.550  1.6096  0.2394 -1.2125
 3276SOL    HW221888   3.704   3.427   4.582  0.6427  2.8121 -1.1038
 3277SOL     OW21889   1.864   3.530   8.452  0.2641  0.3030  0.0730
 3277SOL    HW121890   1.959   3.500   8.466 -0.5131 -0.8346  3.3915
 3277SOL    HW221891   1.847   3.613   8.504 -1.1957 -0.8648  1.5215
 3278SOL     OW21892   9.799   3.072   2.529  0.0178  0.3809  0.3479
 3278SOL    HW121893   9.702   3.078   2.552 -0.3014  0.4054 -0.9562
 3278SOL    HW221894   9.845   3.158   2.554 -0.1249  0.0867  1.6721
 3279SOL     OW21895   6.474   8.747   7.164 -0.3173 -0.3516  0.1550
 3279SOL    HW121896   6.499   8.844   7.158  1.9287 -0.7474  2.2524
 3279SOL    HW221897   6.377   8.739   7.184 -0.4731  1.4763  0.2059
 3280SOL     OW21898   0.851   8.156   9.056 -0.7239  0.5483 -0.3166
 3280SOL    HW121899   0.912   8.221   9.101  0.1282 -0.3595 -0.1744
 3280SOL    HW221900   0.822   8.193   8.967  1.2800  0.2817 -1.0925
 3281SOL     OW21901   5.547   5.582   2.021  0.0719 -0.2938  0.0116
 3281SOL    HW121902   5.524   5.628   2.107 -1.7384  0.1842 -0.7118
 3281SOL    HW221903   5.499   5.626   1.946  1.6910 -0.6846 -1.2628
 3282SOL     OW21904   7.060   4.685   0.094  0.1713  0.4288  0.2884
 3282SOL    HW121905   7.111   4.681   0.180 -1.2200 -0.4800  1.0942
 3282SOL    HW221906   7.033   4.593   0.067  3.1798  0.3190 -2.7470
 3283SOL     OW21907   2.498   5.220   6.606  0.2679  0.0106 -0.0922
 3283SOL    HW121908   2.464   5.303   6.652  0.1870  0.2219 -0.5296
 3283SOL    HW221909   2.484   5.229   6.507  1.5917  0.0973 -0.2778
 3284SOL     OW21910   2.215   3.928   5.009 -0.2694  0.0831  0.0006
 3284SOL    HW121911   2.245   3.832   5.006 -0.2091  0.1145 -0.3703
 3284SOL    HW221912   2.278   3.980   5.066  0.3350  0.1300 -0.7009
 3285SOL     OW21913   5.749   8.229   7.494  0.8843  0.2614  0.4254
 3285SOL    HW121914   5.813   8.261   7.425  1.6237  0.5382  1.2341
 3285SOL    HW221915   5.736   8.130   7.484 -1.8720  0.8315 -2.4657
 3286SOL     OW21916   4.468   7.799   0.276 -0.5803  0.2997 -0.5130
 3286SOL    HW121917   4.517   7.789   0.362  1.5211 -0.4454 -1.7602
 3286SOL    HW221918   4.478   7.893   0.243 -0.9060  0.4351 -0.2260
 3287SOL     OW21919   6.278   9.315   7.059 -0.4054  0.3316 -1.1696
 3287SOL    HW121920   6.250   9.278   7.147 -1.3054  1.1406 -1.1056
 3287SOL    HW221921   6.377   9.316   7.053 -0.3505 -0.2527 -0.3977
 3288SOL     OW21922   8.415   4.438   2.210 -0.0180 -0.1591  0.6676
 3288SOL    HW121923   8.451   4.459   2.301  0.8314 -0.6190  0.4445
 3288SOL    HW221924   8.373   4.520   2.172 -0.9766 -0.1373  1.7458
 3289SOL     OW21925   8.081   8.300   2.412  0.0027  0.2520  0.1580
 3289SOL    HW121926   8.083   8.241   2.493 -0.4982  2.2537  1.6529
 3289SOL    HW221927   7.987   8.311   2.381 -0.0996  1.6417  0.9282
 3290SOL     OW21928   3.656   2.489   1.156  0.6259 -0.8046 -0.2010
 3290SOL    HW121929   3.725   2.534   1.213 -1.8420  2.4187  0.3935
 3290SOL    HW221930   3.657   2.391   1.173  3.6812 -0.5595  1.2645
 3291SOL     OW21931   8.469   2.147   1.918 -0.7433  0.0811  0.1132
 3291SOL    HW121932   8.490   2.093   1.837  2.1436 -0.4147  1.1414
 3291SOL    HW221933   8.476   2.245   1.896  1.3128 -0.0616  0.0359
 3292SOL     OW21934   9.387   0.979   8.701  0.6461 -0.3022  0.1024
 3292SOL    HW121935   9.344   0.999   8.612  1.9115 -1.6986 -0.8427
 3292SOL    HW221936   9.455   1.049   8.721  0.2140  0.1304  0.0827
 3293SOL     OW21937   0.807   4.982   0.871  0.2690  0.0227 -0.0371
 3293SOL    HW121938   0.811   4.905   0.934 -0.4100  0.1489  0.1598
 3293SOL    HW221939   0.815   4.948   0.777  0.0284 -0.2781  0.0517
 3294SOL     OW21940   4.973   1.357   0.638  0.0115 -0.0397 -0.4602
 3294SOL    HW121941   5.006   1.307   0.718 -2.1203  0.0501  0.4827
 3294SOL    HW221942   5.003   1.309   0.555  0.6772 -1.1373  0.3968
 3295SOL     OW21943   0.563   8.697   4.901  0.6603 -0.4378 -0.3117
 3295SOL    HW121944   0.606   8.643   4.828 -1.2972  0.2372 -2.0167
 3295SOL    HW221945   0.594   8.792   4.895  2.1166 -0.8010  1.0829
 3296SOL     OW21946   4.125   1.047  10.063 -0.0530 -0.5157 -0.3634
 3296SOL    HW121947   4.144   1.098  10.147  1.1097 -0.5331 -0.5976
 3296SOL    HW221948   4.092   1.110   9.993  0.7104 -0.1834 -0.4363
 3297SOL     OW21949   3.481   4.785   7.163 -0.4792 -0.2183  0.3926
 3297SOL    HW121950   3.445   4.862   7.110  1.2662  0.9569  0.8663
 3297SOL    HW221951   3.409   4.748   7.222 -1.2485  1.2519  0.3896
 3298SOL     OW21952   3.167   6.069   1.218  0.1762  0.3702 -0.1272
 3298SOL    HW121953   3.114   6.094   1.137 -0.1761 -2.0177 -0.6725
 3298SOL    HW221954   3.261   6.047   1.190  0.2611  0.3154  0.2036
 3299SOL     OW21955   7.300   4.291   9.548 -0.1322  0.3187 -0.3023
 3299SOL    HW121956   7.306   4.287   9.448  2.2561  1.5285 -0.2409
 3299SOL    HW221957   7.251   4.373   9.576  1.6169  1.4440 -0.4582
 3300SOL     OW21958   8.748   8.460   0.637  0.1327  0.0101  0.1609
 3300SOL    HW121959   8.669   8.509   0.675 -0.9995 -0.1233 -1.9519
 3300SOL    HW221960   8.717   8.392   0.572  1.9978 -0.1497 -0.5933
 3301SOL     OW21961   3.629   8.064   3.122  0.5763  0.3733 -0.3016
 3301SOL    HW121962   3.582   8.040   3.207  1.5960  0.5379  0.3247
 3301SOL    HW221963   3.720   8.022   3.122  0.7558  0.7534 -1.1088
 3302SOL     OW21964   7.823   8.958   6.927  0.1750 -0.0016  0.0254
 3302SOL    HW121965   7.747   9.019   6.904 -0.2003  0.5224  2.4567
 3302SOL    HW221966   7.788   8.866   6.945  0.2571 -0.0216  0.0834
 3303SOL     OW21967   1.442   4.240   0.950 -0.3413  0.1776  0.3278
 3303SOL    HW121968   1.513   4.273   0.887 -0.9400  1.0491  0.1020
 3303SOL    HW221969   1.434   4.140   0.942 -0.1850  0.2472 -0.7379
 3304SOL     OW21970   9.002   4.500   0.842 -0.1292 -0.4794 -0.6622
 3304SOL    HW121971   8.931   4.463   0.903 -0.0704  0.2369 -0.1500
 3304SOL    HW221972   8.972   4.589   0.808  0.8370  0.1443  0.1144
 3305SOL     OW21973   9.772   5.020   5.122 -0.1839  0.4705  0.1368
 3305SOL    HW121974   9.853   5.041   5.068 -0.6296 -0.0283 -0.7250
 3305SOL    HW221975   9.752   5.097   5.183 -0.0337  1.2876 -0.8326
 3306SOL     OW21976   2.325   1.685   0.245  0.6631  0.0321 -0.1902
 3306SOL    HW121977   2.262   1.613   0.218  0.5298  0.2255 -0.3965
 3306SOL    HW221978   2.413   1.644   0.271  0.5701 -0.2073 -0.2506
 3307SOL     OW21979   8.303   9.552   3.696  0.6105 -0.6282 -0.3639
 3307SOL    HW121980   8.220   9.532   3.749  1.3606 -0.6634  0.8125
 3307SOL    HW221981   8.302   9.648   3.668  1.3154 -0.0090  1.7021
 3308SOL     OW21982   9.100   1.248   7.923  0.2696  0.2581  0.1231
 3308SOL    HW121983   9.086   1.181   7.995 -4.6670  0.5795 -0.3756
 3308SOL    HW221984   9.134   1.202   7.841  0.6267 -0.9831  0.9552
 3309SOL     OW21985   0.185   7.664   3.523  0.3684  0.7459 -0.2621
 3309SOL    HW121986   0.241   7.587   3.492  0.6082  1.6032 -2.0519
 3309SOL    HW221987   0.091   7.633   3.536  0.2133  0.3572 -2.0844
 3310SOL     OW21988   1.257   1.951   9.325 -0.3544 -0.8499 -0.1263
 3310SOL    HW121989   1.346   1.977   9.364 -0.0399  0.0350 -1.3819
 3310SOL    HW221990   1.234   1.858   9.353  1.5595 -1.5543 -0.7796
 3311SOL     OW21991   9.168   9.662   4.128  0.4590 -0.0648  0.2374
 3311SOL    HW121992   9.122   9.677   4.215  0.1130 -2.0653  0.4096
 3311SOL    HW221993   9.120   9.711   4.056 -1.0063 -0.8676  0.6676
 3312SOL     OW21994   2.610   7.044   5.183 -0.1926  0.3412 -0.2246
 3312SOL    HW121995   2.663   6.959   5.177 -0.7600 -0.0894  0.8235
 3312SOL    HW221996   2.672   7.121   5.199  0.1192 -0.1780  1.1099
 3313SOL     OW21997   2.487   2.413   9.381 -0.6674 -0.1040 -0.0419
 3313SOL    HW121998   2.437   2.472   9.445 -0.6311 -0.2589  0.1291
 3313SOL    HW221999   2.521   2.333   9.430  0.1978  0.2557 -0.0384
 3314SOL     OW22000   0.767   7.976   8.153 -0.3620 -0.0561  0.3640
 3314SOL    HW122001   0.745   8.064   8.194  0.9906  0.2750  0.3958
 3314SOL    HW222002   0.738   7.976   8.057  0.3908  0.7262  0.1327
 3315SOL     OW22003   0.599   0.820   0.900 -0.0669 -0.4140 -0.0893
 3315SOL    HW122004   0.688   0.830   0.855 -0.3561  1.6227 -0.2342
 3315SOL    HW222005   0.611   0.769   0.985  1.8797  2.9430  1.7475
 3316SOL     OW22006   0.781   4.294   6.807 -0.3054 -0.2621 -0.1202
 3316SOL    HW122007   0.739   4.311   6.896 -0.4899  0.1032 -0.2764
 3316SOL    HW222008   0.870   4.251   6.820  0.1940  0.8784  0.2832
 3317SOL     OW22009   1.862   1.734   0.380  0.5238  0.6772 -0.0054
 3317SOL    HW122010   1.841   1.777   0.468  0.7316  0.4401  0.1637
 3317SOL    HW222011   1.779   1.697   0.340  0.0824  2.5456 -0.8725
 3318SOL     OW22012   4.301   0.159   4.481  0.7482 -0.1906  0.1444
 3318SOL    HW122013   4.307   0.209   4.568  1.6939  0.0041 -0.0367
 3318SOL    HW222014   4.377   0.095   4.474  1.7063  1.1090 -1.3720
 3319SOL     OW22015   2.654   5.852   9.200 -0.1110 -0.1623 -0.2834
 3319SOL    HW122016   2.680   5.917   9.271  0.9180  1.5701 -2.1644
 3319SOL    HW222017   2.684   5.760   9.225  3.2115  0.9360  0.0424
 3320SOL     OW22018   8.126   5.724   0.109 -0.4690 -0.6638  0.4521
 3320SOL    HW122019   8.112   5.665   0.029 -2.4364 -1.0914  1.0893
 3320SOL    HW222020   8.054   5.793   0.112  0.3604  0.1873  1.1425
 3321SOL     OW22021   1.606   3.470   1.257  0.6416 -0.4280  0.2496
 3321SOL    HW122022   1.700   3.458   1.287  1.3092 -1.3122 -2.0489
 3321SOL    HW222023   1.599   3.552   1.200 -0.4954  0.9759  2.3653
 3322SOL     OW22024   0.894   7.612   1.226 -0.2665  0.2222  0.0412
 3322SOL    HW122025   0.826   7.539   1.233  0.3334 -0.1241  3.1199
 3322SOL    HW222026   0.940   7.606   1.137 -3.5262 -0.1207 -1.6924
 3323SOL     OW22027   3.135   1.961   4.447 -0.0684  0.0220  0.5314
 3323SOL    HW122028   3.150   2.056   4.417 -1.0914 -0.4293 -1.5354
 3323SOL    HW222029   3.148   1.955   4.546 -1.4936  2.6508  0.9435
 3324SOL     OW22030   9.129   2.590   6.121  0.2012  0.0695  0.1352
 3324SOL    HW122031   9.087   2.530   6.053  1.0350 -0.0940 -0.2476
 3324SOL    HW222032   9.166   2.534   6.196 -0.5108  0.2323  0.6158
 3325SOL     OW22033   9.791   3.597   4.350  0.1881 -0.0572  0.6983
 3325SOL    HW122034   9.777   3.539   4.269  1.8551 -0.2585  0.5343
 3325SOL    HW222035   9.860   3.666   4.329 -0.9887  1.3009  1.2509
 3326SOL     OW22036   2.767   2.381   4.870 -0.2411 -0.0805 -0.4591
 3326SOL    HW122037   2.776   2.466   4.923  2.3264 -0.6558  0.0594
 3326SOL    HW222038   2.701   2.321   4.915 -0.4946  0.7517  0.3047
 3327SOL     OW22039   2.512   7.043   2.369  0.2517 -0.1511  0.1991
 3327SOL    HW122040   2.422   7.068   2.405  0.2361  1.0468 -0.6479
 3327SOL    HW222041   2.515   6.944   2.355 -1.8337  0.0754 -2.1273
 3328SOL     OW22042   8.414   5.611   1.457  0.5192 -0.5054  0.2537
 3328SOL    HW122043   8.364   5.544   1.402 -0.4089 -1.7549  2.5350
 3328SOL    HW222044   8.498   5.570   1.491  1.8833  0.7806 -1.5257
 3329SOL     OW22045   8.375   7.572   7.478 -0.2342 -0.4312 -0.0689
 3329SOL    HW122046   8.276   7.586   7.474  0.0540  1.3845 -1.3604
 3329SOL    HW222047   8.395   7.473   7.477 -1.9690 -0.7853 -1.6156
 3330SOL     OW22048   5.986   0.163   2.696 -0.1478 -0.1926  0.2069
 3330SOL    HW122049   6.000   0.262   2.691  0.4084 -0.3428 -1.6972
 3330SOL    HW222050   6.036   0.126   2.774  0.7265  0.8531  0.1559
 3331SOL     OW22051   2.730   6.893   9.628  0.0982  0.0237 -0.2161
 3331SOL    HW122052   2.644   6.941   9.642 -0.4935 -0.4646 -1.9706
 3331SOL    HW222053   2.788   6.947   9.567 -0.4436 -1.2993 -1.9540
 3332SOL     OW22054   6.539   7.644   4.432  0.1109 -0.3836 -0.5177
 3332SOL    HW122055   6.602   7.595   4.493  0.4464  1.3751  0.6131
 3332SOL    HW222056   6.590   7.711   4.379 -0.4592 -0.6493 -1.4041
 3333SOL     OW22057   1.880   8.856   7.915 -0.6167 -0.0697  0.4625
 3333SOL    HW122058   1.841   8.897   7.997  2.4019  1.9329  0.9757
 3333SOL    HW222059   1.958   8.910   7.884  0.1694 -2.4685 -2.0113
 3334SOL     OW22060   1.925   7.176   2.557  0.4887  0.3792  0.0073
 3334SOL    HW122061   1.931   7.243   2.630 -0.3903  1.0992 -0.5611
 3334SOL    HW222062   1.963   7.215   2.473  0.2559  0.0566 -0.2488
 3335SOL     OW22063   9.833   0.479   6.589 -0.0962  0.0345  0.0050
 3335SOL    HW122064   9.859   0.529   6.672  1.9047 -2.7524  1.1061
 3335SOL    HW222065   9.793   0.391   6.614  0.1328 -0.6626 -2.0175
 3336SOL     OW22066   8.049   0.344   7.678 -0.3719  0.4571 -0.4512
 3336SOL    HW122067   7.979   0.407   7.646 -0.4377  1.1096  0.9254
 3336SOL    HW222068   8.017   0.250   7.669 -1.0687  0.7153 -0.6587
 3337SOL     OW22069   7.676   6.451   7.697 -0.2760  0.0020 -0.2724
 3337SOL    HW122070   7.689   6.444   7.796 -1.6250  1.5580  0.0271
 3337SOL    HW222071   7.700   6.544   7.667 -2.6303  0.4159 -0.9564
 3338SOL     OW22072   3.970   5.316   8.195 -0.1115 -0.0865 -0.2873
 3338SOL    HW122073   4.016   5.254   8.131 -2.0310 -0.8321 -0.9869
 3338SOL    HW222074   3.882   5.344   8.156 -1.0602 -0.1125  1.7662
 3339SOL     OW22075   5.225   7.900   7.328  0.3862 -0.0620  0.0550
 3339SOL    HW122076   5.286   7.852   7.392 -0.9678 -0.7196  0.8605
 3339SOL    HW222077   5.253   7.881   7.234  1.5661 -0.1675  0.4191
 3340SOL     OW22078   9.667   1.848   2.704  0.3068 -0.5547  0.1244
 3340SOL    HW122079   9.607   1.916   2.745  0.3314  0.8542 -2.0923
 3340SOL    HW222080   9.757   1.888   2.688  0.3688 -1.1449 -1.0578
 3341SOL     OW22081   0.098   9.350   3.074 -0.0372 -0.3798 -0.3465
 3341SOL    HW122082   0.122   9.309   2.986  0.9850  1.0692 -0.7614
 3341SOL    HW222083   0.079   9.278   3.140  2.6124 -1.5593 -0.8125
 3342SOL     OW22084   9.846   6.628   3.333  0.9216 -0.2928 -0.3196
 3342SOL    HW122085   9.914   6.584   3.276  1.0020  0.9307 -1.1914
 3342SOL    HW222086   9.775   6.668   3.275  0.1275 -0.4725  0.5197
 3343SOL     OW22087   9.095   9.077   6.388 -0.4394  0.1304  0.1439
 3343SOL    HW122088   9.113   9.078   6.486  0.0908  0.1239  0.0485
 3343SOL    HW222089   9.033   9.002   6.365 -0.7237  0.2554  0.4988
 3344SOL     OW22090   4.719   8.245   5.131  0.2174  0.1476 -0.1267
 3344SOL    HW122091   4.640   8.190   5.103  1.5662 -1.1148 -1.5216
 3344SOL    HW222092   4.746   8.219   5.223 -0.7569  0.3376  0.2254
 3345SOL     OW22093   7.965   4.538   8.888 -0.0045 -0.6236  0.3440
 3345SOL    HW122094   7.956   4.457   8.946  1.9692 -1.2009 -0.1257
 3345SOL    HW222095   7.900   4.532   8.812 -0.0868 -1.6104  0.4904
 3346SOL     OW22096   2.851   2.291   6.010  0.1603  0.5611  0.1738
 3346SOL    HW122097   2.951   2.291   6.010  0.1634  0.7801 -0.3949
 3346SOL    HW222098   2.818   2.302   5.916 -0.3962  0.6235  0.3757
 3347SOL     OW22099   3.988   1.028   8.369  0.1329 -0.0453 -0.0178
 3347SOL    HW122100   4.040   0.944   8.390  3.0069  1.5705 -0.4374
 3347SOL    HW222101   4.008   1.057   8.276 -0.2518  1.5117  0.3749
 3348SOL     OW22102   9.623   9.636   7.114  0.1827  0.3048  0.0284
 3348SOL    HW122103   9.575   9.617   7.200  1.1140  0.1601  0.5285
 3348SOL    HW222104   9.617   9.556   7.054 -0.6807  0.4963 -0.1495
 3349SOL     OW22105   4.598   2.380   1.582 -0.1777 -0.5242  0.0829
 3349SOL    HW122106   4.499   2.377   1.591 -0.0923  0.7804  1.5178
 3349SOL    HW222107   4.626   2.467   1.541  0.4363 -0.5356  0.4724
 3350SOL     OW22108   2.942   4.227   4.965 -0.2601 -0.0097 -0.1096
 3350SOL    HW122109   2.986   4.293   5.026  0.1843 -0.9305  0.5803
 3350SOL    HW222110   2.905   4.275   4.886  1.8262  0.8048 -0.6212
 3351SOL     OW22111   9.387   9.740   9.425  0.6930 -0.2202  0.5675
 3351SOL    HW122112   9.424   9.818   9.476 -2.8698  0.5170  2.1911
 3351SOL    HW222113   9.325   9.773   9.354  1.1598 -1.5150 -0.4782
 3352SOL     OW22114   7.740   9.444   7.918  0.0455  0.0839 -0.1780
 3352SOL    HW122115   7.753   9.352   7.883 -1.1871 -0.0988 -0.1690
 3352SOL    HW222116   7.778   9.511   7.854  1.4543 -0.4412  0.0831
 3353SOL     OW22117   4.548   5.803   4.675  0.6453  0.5946  0.3655
 3353SOL    HW122118   4.464   5.846   4.708 -1.0341 -0.4270 -2.4720
 3353SOL    HW222119   4.618   5.873   4.661 -0.1219  1.6178  1.5114
 3354SOL     OW22120   5.219   1.268   6.389 -0.1730  0.4496  0.2342
 3354SOL    HW122121   5.223   1.168   6.380  0.7560  0.6879 -2.2201
 3354SOL    HW222122   5.311   1.304   6.401 -0.3646  1.1338 -0.3434
 3355SOL     OW22123   3.754   5.680   2.546 -0.0352 -0.3642 -0.3620
 3355SOL    HW122124   3.705   5.744   2.487 -1.1424 -0.6851  0.2027
 3355SOL    HW222125   3.805   5.615   2.491 -0.5449 -0.2614 -0.9516
 3356SOL     OW22126   6.061   4.868   2.510 -0.1231 -0.0776  0.1061
 3356SOL    HW122127   6.009   4.916   2.439 -0.5349 -1.7751 -0.7658
 3356SOL    HW222128   6.148   4.916   2.525 -0.3528  0.7317 -1.0067
 3357SOL     OW22129   2.235   0.329   4.667  0.0517 -0.7709 -0.3775
 3357SOL    HW122130   2.294   0.339   4.588  0.6249  0.9960  0.2666
 3357SOL    HW222131   2.144   0.366   4.647  0.3973  0.2911  0.0147
 3358SOL     OW22132   0.513   7.850   2.657  0.2004 -0.0743 -0.4884
 3358SOL    HW122133   0.568   7.777   2.699  0.1515  0.1052 -0.1087
 3358SOL    HW222134   0.563   7.936   2.663 -0.0325  0.0502 -0.3246
 3359SOL     OW22135   0.345   5.962   1.509  0.0802  0.0862 -0.2278
 3359SOL    HW122136   0.383   5.912   1.432  0.6893  0.1007  0.0576
 3359SOL    HW222137   0.411   6.031   1.540  0.5703 -1.0855  1.4066
 3360SOL     OW22138   9.943   8.402   2.409 -0.1617  0.1989 -0.8824
 3360SOL    HW122139   9.949   8.334   2.337 -2.3969  0.5859 -1.4712
 3360SOL    HW222140   9.978   8.490   2.375  0.1440  0.0238 -1.0192
 3361SOL     OW22141   1.274   2.674   8.450  0.4325  0.2062  0.0418
 3361SOL    HW122142   1.285   2.621   8.534  2.0580  0.9737  0.3239
 3361SOL    HW222143   1.259   2.770   8.472 -2.0011 -0.0085 -0.4864
 3362SOL     OW22144   9.010   8.463   2.964 -0.7918 -0.1551  0.2917
 3362SOL    HW122145   8.960   8.547   2.985  0.4395  0.4902  0.7134
 3362SOL    HW222146   9.095   8.487   2.916  0.1535 -1.0630  1.4905
 3363SOL     OW22147   7.601   0.459   9.307 -0.0901 -0.1211  0.2736
 3363SOL    HW122148   7.508   0.455   9.344 -0.1453  1.0971  0.2770
 3363SOL    HW222149   7.623   0.372   9.264 -1.2131 -0.4417  0.3295
 3364SOL     OW22150   1.513   5.794   1.182  0.3887  0.6059  0.3275
 3364SOL    HW122151   1.434   5.820   1.237 -0.1204  0.8208 -0.4918
 3364SOL    HW222152   1.495   5.814   1.086  0.5556 -1.4446 -0.1589
 3365SOL     OW22153   6.639   0.579   6.910  0.8010 -0.5620 -0.6202
 3365SOL    HW122154   6.558   0.598   6.854  0.5088  1.7062  0.5101
 3365SOL    HW222155   6.721   0.589   6.854  0.4841  1.0875 -0.8259
 3366SOL     OW22156   7.805   2.261   4.599 -0.3920  0.5459 -0.0406
 3366SOL    HW122157   7.834   2.326   4.529 -0.6414  2.7064  1.8141
 3366SOL    HW222158   7.734   2.201   4.561  0.4808  0.7423 -2.0469
 3367SOL     OW22159   6.676   1.777   5.712 -0.2185 -0.1296 -0.3875
 3367SOL    HW122160   6.626   1.749   5.630 -1.1864  3.2382 -1.0368
 3367SOL    HW222161   6.724   1.863   5.694  0.1864  0.2583  2.3259
 3368SOL     OW22162   3.290   3.421   6.355 -0.1019 -0.0988  0.3289
 3368SOL    HW122163   3.316   3.393   6.447 -0.3009  0.1323  0.4549
 3368SOL    HW222164   3.366   3.473   6.313  0.0050 -0.2422  0.3448
 3369SOL     OW22165   4.299   0.868   9.904 -0.3470  0.5390 -0.1607
 3369SOL    HW122166   4.392   0.901   9.891  0.0600 -0.2629  0.6821
 3369SOL    HW222167   4.254   0.920   9.977  0.2308 -0.6316  1.0362
 3370SOL     OW22168   2.327   5.600   1.052 -0.2038  0.1449 -0.7919
 3370SOL    HW122169   2.327   5.522   0.989  2.5609  0.0174 -0.6832
 3370SOL    HW222170   2.318   5.568   1.146  0.0111  0.0349 -0.8100
 3371SOL     OW22171   5.077   4.687   1.023  0.0446 -0.4267 -0.2519
 3371SOL    HW122172   5.167   4.703   0.982  0.1854 -0.1749  0.1563
 3371SOL    HW222173   5.082   4.698   1.122 -0.3432 -0.8393 -0.1812
 3372SOL     OW22174   1.869   8.210   3.651  0.0352  0.0301  0.2165
 3372SOL    HW122175   1.890   8.126   3.701 -0.0377 -0.3985 -0.4625
 3372SOL    HW222176   1.946   8.273   3.656  1.4108 -1.4121 -2.0359
 3373SOL     OW22177   6.961   1.076   1.149  0.5038  0.8428 -0.5498
 3373SOL    HW122178   6.927   1.169   1.136 -1.0358  0.3124 -0.4259
 3373SOL    HW222179   6.992   1.065   1.243 -0.6499  0.8276 -0.1582
 3374SOL     OW22180   7.886   2.877   1.526 -0.7217 -0.4629 -0.4836
 3374SOL    HW122181   7.908   2.952   1.464  0.2224  0.3432  0.8168
 3374SOL    HW222182   7.967   2.821   1.542 -0.1290  1.1191  2.4155
 3375SOL     OW22183   9.586   5.303   1.395  0.1691  0.7004 -0.9322
 3375SOL    HW122184   9.617   5.398   1.393 -1.0809  1.1558  0.8278
 3375SOL    HW222185   9.492   5.298   1.361  0.1070  0.1386 -0.6851
 3376SOL     OW22186   3.063   2.232   0.808 -0.2533 -0.3789  0.4344
 3376SOL    HW122187   2.998   2.162   0.839 -0.5948 -0.1688  0.2040
 3376SOL    HW222188   3.045   2.318   0.856  0.3417 -0.5232  0.9135
 3377SOL     OW22189   2.509   1.173   1.695  0.8191 -0.0211  0.9594
 3377SOL    HW122190   2.461   1.144   1.777 -1.5768  0.4734 -0.2185
 3377SOL    HW222191   2.543   1.093   1.646  0.9938 -0.3836  1.6648
 3378SOL     OW22192   9.170   7.458   6.148  0.6260  0.1909  0.6282
 3378SOL    HW122193   9.123   7.440   6.234 -0.4593 -0.7090 -0.1336
 3378SOL    HW222194   9.169   7.375   6.092  0.7098  0.9690 -0.5414
 3379SOL     OW22195   6.937   7.488   8.460 -0.0296  0.2535 -0.2896
 3379SOL    HW122196   7.028   7.516   8.431  0.5795 -1.1579  0.2208
 3379SOL    HW222197   6.906   7.410   8.405 -1.7508  1.9240 -1.7696
 3380SOL     OW22198   3.523   0.703   1.916 -0.1300 -0.8559  0.0626
 3380SOL    HW122199   3.513   0.603   1.924 -0.1023 -0.9280 -0.7395
 3380SOL    HW222200   3.588   0.724   1.843  1.3340 -0.2752  1.5189
 3381SOL     OW22201   8.511   2.838   4.827 -0.6698  0.0744 -0.0831
 3381SOL    HW122202   8.587   2.863   4.887 -0.9058  0.9463 -0.1382
 3381SOL    HW222203   8.462   2.760   4.866 -0.4217  0.2129  0.5119
 3382SOL     OW22204   8.236   9.649   4.458  0.6722  0.3767  0.3005
 3382SOL    HW122205   8.179   9.609   4.530  1.1028 -0.1136  0.3744
 3382SOL    HW222206   8.314   9.590   4.441  1.2831  1.1554  0.3610
 3383SOL     OW22207   3.766   5.197   6.872  0.2511  0.0394  0.3250
 3383SOL    HW122208   3.800   5.103   6.873  0.7687  0.2214 -0.0330
 3383SOL    HW222209   3.667   5.197   6.890 -0.0241 -0.6937 -1.1499
 3384SOL     OW22210   7.790   2.873   8.117  0.3241 -0.0357 -0.4967
 3384SOL    HW122211   7.803   2.810   8.041  0.6957  0.1141 -0.5560
 3384SOL    HW222212   7.878   2.895   8.158  0.1634  0.1980 -0.2753
 3385SOL     OW22213   1.220   9.552   7.166 -0.3243  0.4488 -0.1000
 3385SOL    HW122214   1.146   9.565   7.101 -0.0695 -0.9882 -0.6996
 3385SOL    HW222215   1.194   9.484   7.234  0.8587 -0.9080 -0.9812
 3386SOL     OW22216   4.020   0.029   7.926  0.3329 -0.0462 -0.4271
 3386SOL    HW122217   4.003  -0.031   8.004 -0.2580 -0.7156 -1.0771
 3386SOL    HW222218   3.940   0.086   7.909  0.5182  0.2094 -0.4658
 3387SOL     OW22219   1.106   3.943   6.095 -0.5523 -0.6717 -0.3993
 3387SOL    HW122220   1.027   3.885   6.075 -0.6486 -1.0530  0.9991
 3387SOL    HW222221   1.164   3.951   6.014 -1.2035 -1.6710 -0.9712
 3388SOL     OW22222   3.079   8.844   9.276 -0.2729 -0.7333  0.4205
 3388SOL    HW122223   3.099   8.936   9.243  0.1005 -0.3357  1.7172
 3388SOL    HW222224   3.095   8.778   9.203 -4.3400  0.5694 -1.7620
 3389SOL     OW22225   0.281   4.221   2.566  0.2104  0.0044 -0.5446
 3389SOL    HW122226   0.185   4.230   2.595 -0.3538 -2.7026 -1.4094
 3389SOL    HW222227   0.304   4.295   2.503 -0.9322  1.3968  0.6293
 3390SOL     OW22228   6.490   8.190   8.210 -0.4200  0.0539  0.0924
 3390SOL    HW122229   6.519   8.104   8.251  0.3986  0.1553 -0.2662
 3390SOL    HW222230   6.545   8.209   8.129 -0.7480  0.8009  0.0398
 3391SOL     OW22231   9.780   7.298   5.335  0.0325 -0.3377 -0.3376
 3391SOL    HW122232   9.833   7.326   5.255 -0.9530  1.6384 -0.3211
 3391SOL    HW222233   9.724   7.219   5.311  0.4447 -0.3464 -1.3207
 3392SOL     OW22234   1.963   5.384   3.122 -0.7880  0.4821  0.8166
 3392SOL    HW122235   1.994   5.476   3.095 -0.6179  0.4431  0.8770
 3392SOL    HW222236   1.866   5.387   3.145 -0.8118  0.6224  0.6996
 3393SOL     OW22237   8.379   7.780   7.987  0.6367 -0.4053 -0.0901
 3393SOL    HW122238   8.343   7.687   7.978  0.6493 -0.4714  0.5757
 3393SOL    HW222239   8.388   7.821   7.896 -2.5715  0.1465 -0.2179
 3394SOL     OW22240   7.915   4.536   4.082  0.1980  0.3112  0.2030
 3394SOL    HW122241   7.909   4.485   3.996 -0.0222 -0.5558  0.7220
 3394SOL    HW222242   8.006   4.576   4.091  0.7207 -0.8835  0.2800
 3395SOL     OW22243   2.661   2.729   0.059  0.0609 -0.4499  0.1199
 3395SOL    HW122244   2.622   2.679  -0.019  1.2664  0.2872 -0.9853
 3395SOL    HW222245   2.601   2.806   0.081  0.9370  0.7770 -1.6734
 3396SOL     OW22246   8.495   7.506   3.151 -0.0758 -0.0163  0.0325
 3396SOL    HW122247   8.398   7.517   3.127 -0.0402  1.4149  0.5035
 3396SOL    HW222248   8.551   7.550   3.081  0.3283 -2.2647 -1.1220
 3397SOL     OW22249   9.754   1.122   2.542  0.4659 -0.5045  0.8253
 3397SOL    HW122250   9.803   1.055   2.597  0.6613  0.2678  1.5869
 3397SOL    HW222251   9.655   1.109   2.553  0.5018  0.1467  1.9674
 3398SOL     OW22252   8.278   4.277   0.658 -0.5856 -0.2450 -0.4510
 3398SOL    HW122253   8.207   4.333   0.701  1.6156  1.3106  1.2812
 3398SOL    HW222254   8.329   4.228   0.729  1.7368  0.6989 -1.4117
 3399SOL     OW22255   3.240   8.758   1.118 -0.4714 -0.2498 -0.9997
 3399SOL    HW122256   3.182   8.683   1.152 -0.4636 -0.3630 -1.2346
 3399SOL    HW222257   3.184   8.825   1.070 -0.4517 -0.2008 -0.9536
 3400SOL     OW22258   3.058   3.758   6.172 -0.2240 -0.2167  0.5851
 3400SOL    HW122259   3.038   3.852   6.142 -0.0507 -0.4982 -0.4462
 3400SOL    HW222260   3.048   3.696   6.094 -1.1597 -1.1769  1.4506
 3401SOL     OW22261   4.793   2.575  10.025 -0.2177 -0.4537  0.0108
 3401SOL    HW122262   4.753   2.650   9.972 -0.0020 -0.7025 -0.5074
 3401SOL    HW222263   4.821   2.502   9.964 -0.6296 -1.0615  0.5359
 3402SOL     OW22264   1.368   7.459   7.223 -0.2713  0.1356  0.2627
 3402SOL    HW122265   1.390   7.437   7.128  1.5616 -1.5890  1.0444
 3402SOL    HW222266   1.322   7.548   7.227 -2.0733 -0.6228 -2.4000
 3403SOL     OW22267   8.564   1.284   3.253 -0.9905 -0.6339 -0.2331
 3403SOL    HW122268   8.544   1.186   3.257 -1.3565 -0.5057  1.7366
 3403SOL    HW222269   8.557   1.316   3.159 -1.0448 -2.4633 -0.8683
 3404SOL     OW22270   6.017   7.705   6.979 -0.3071  0.4750 -0.2283
 3404SOL    HW122271   6.098   7.663   7.020  0.2510  2.2203  0.4837
 3404SOL    HW222272   6.026   7.804   6.979 -2.2355  0.6830 -0.6002
 3405SOL     OW22273   1.330   4.565   5.798 -0.1029  0.3793 -0.5397
 3405SOL    HW122274   1.297   4.587   5.889  0.2603 -2.8872  0.4493
 3405SOL    HW222275   1.425   4.596   5.789  0.2515 -0.3140  0.6338
 3406SOL     OW22276   0.866   3.912   0.086  0.5861 -0.0380  0.1194
 3406SOL    HW122277   0.928   3.878   0.015  0.7615 -1.0157  0.7467
 3406SOL    HW222278   0.778   3.937   0.044  0.1809 -1.9938 -0.2204
 3407SOL     OW22279   1.121   2.607   3.706 -0.1171 -0.0718 -0.2564
 3407SOL    HW122280   1.088   2.680   3.646 -0.8339  0.3679  0.6588
 3407SOL    HW222281   1.132   2.644   3.799 -0.5305 -1.1438  0.2225
 3408SOL     OW22282   3.167   8.882   7.052 -0.1909 -0.0053 -0.1496
 3408SOL    HW122283   3.178   8.890   7.151  0.4416  2.2417 -0.3850
 3408SOL    HW222284   3.096   8.945   7.021 -0.3489 -0.6619 -1.1417
 3409SOL     OW22285   7.132   4.931   7.276 -0.2689  0.6278 -0.4827
 3409SOL    HW122286   7.139   4.882   7.363 -1.0836 -0.6050 -1.1077
 3409SOL    HW222287   7.037   4.938   7.249 -0.0881  1.8316 -0.8255
 3410SOL     OW22288   6.718   1.114   5.668 -0.3955 -0.3138  0.0298
 3410SOL    HW122289   6.743   1.187   5.604  2.1094 -0.8531  0.3670
 3410SOL    HW222290   6.678   1.155   5.750 -0.4803  0.5848 -0.4480
 3411SOL     OW22291   0.686   3.707   7.550  0.2329 -0.0155 -0.0129
 3411SOL    HW122292   0.618   3.650   7.597  1.0163 -0.2642  0.8453
 3411SOL    HW222293   0.647   3.797   7.532 -0.0599  0.1054  1.1825
 3412SOL     OW22294   4.853   7.980   5.667  0.4675  0.3198  0.2364
 3412SOL    HW122295   4.869   7.894   5.715 -1.2899  0.1486  0.5539
 3412SOL    HW222296   4.764   7.976   5.621  0.5790  1.7868 -0.1250
 3413SOL     OW22297   9.305   7.954   2.362  0.2647  0.3353 -0.6759
 3413SOL    HW122298   9.357   7.996   2.437 -0.6587  0.1691  0.0784
 3413SOL    HW222299   9.251   8.025   2.316  1.5285  0.5893 -1.7695
 3414SOL     OW22300   4.551   9.980   7.918  0.0036 -0.2608  0.1259
 3414SOL    HW122301   4.528  10.061   7.864  3.0450  1.0347  0.6678
 3414SOL    HW222302   4.649   9.962   7.911 -0.2392 -2.5220  1.9243
 3415SOL     OW22303   0.546   5.101   4.134  0.2200  0.4204 -0.1396
 3415SOL    HW122304   0.555   5.197   4.106  2.1629  0.2166 -0.2365
 3415SOL    HW222305   0.460   5.089   4.183 -0.9755  1.7989 -1.8234
 3416SOL     OW22306   3.879   2.717   5.172  0.5734  0.5009  0.1770
 3416SOL    HW122307   3.914   2.632   5.210  0.5971 -0.2640 -1.5265
 3416SOL    HW222308   3.810   2.755   5.233  1.5487 -0.0106  1.6266
 3417SOL     OW22309   1.483   4.070   3.340 -0.1038  0.0745  0.6412
 3417SOL    HW122310   1.407   4.079   3.276  1.1149  1.6448 -0.6070
 3417SOL    HW222311   1.461   4.117   3.426  0.4603  2.7860 -0.6490
 3418SOL     OW22312   2.664   9.050   3.055  0.3238  0.4683 -0.1209
 3418SOL    HW122313   2.665   9.059   2.955  0.8681  1.2321 -0.0574
 3418SOL    HW222314   2.736   8.986   3.083  0.6763  0.8403 -0.1714
 3419SOL     OW22315   2.799   0.097   8.224  0.6649 -0.3788  0.1935
 3419SOL    HW122316   2.861   0.163   8.181 -0.1068  0.1018 -0.2063
 3419SOL    HW222317   2.745   0.052   8.153  0.0845 -0.2978  0.5833
 3420SOL     OW22318   3.763   1.152   6.991 -0.1204  0.0169  0.2559
 3420SOL    HW122319   3.737   1.104   7.075  1.8490 -0.1481  0.7857
 3420SOL    HW222320   3.824   1.229   7.014  0.7407 -0.2713 -1.0416
 3421SOL     OW22321   8.047   5.622   4.735  0.3929 -0.7978 -0.0167
 3421SOL    HW122322   8.134   5.647   4.693  0.0843  0.9060  0.2841
 3421SOL    HW222323   8.045   5.657   4.829 -1.6162  1.5448 -0.8591
 3422SOL     OW22324   4.401   5.579   2.608  0.0972  0.2814 -0.2394
 3422SOL    HW122325   4.476   5.536   2.558 -0.7108 -1.9659  0.4186
 3422SOL    HW222326   4.380   5.525   2.690 -1.2145  1.7387  0.4254
 3423SOL     OW22327   7.937   6.279   7.896 -0.3492 -0.5856 -0.1807
 3423SOL    HW122328   7.923   6.189   7.856  2.4802 -0.3555 -1.8119
 3423SOL    HW222329   8.003   6.330   7.842 -0.3557  1.7194  1.8770
 3424SOL     OW22330   0.154   7.039   9.264 -0.1126  0.4514 -0.1307
 3424SOL    HW122331   0.243   7.031   9.219  0.3966  0.9312  0.7824
 3424SOL    HW222332   0.143   7.131   9.301 -1.8417  1.0417 -2.0075
 3425SOL     OW22333   7.762   7.347   4.195  0.2132  0.0105  0.6115
 3425SOL    HW122334   7.717   7.381   4.113  0.6401 -1.1472 -0.1258
 3425SOL    HW222335   7.728   7.395   4.275 -1.1608  0.2513 -0.1085
 3426SOL     OW22336   5.727   9.618   4.635  0.1652  0.3615  0.0344
 3426SOL    HW122337   5.825   9.614   4.614 -0.3412 -1.1585 -2.1868
 3426SOL    HW222338   5.703   9.544   4.698 -0.0063 -0.9379 -1.5153
 3427SOL     OW22339   0.597   1.521   6.639 -0.1129  0.3456 -0.0356
 3427SOL    HW122340   0.519   1.504   6.699 -0.1500  0.4811 -0.0453
 3427SOL    HW222341   0.656   1.590   6.680 -0.4561  0.8825 -0.4440
 3428SOL     OW22342   9.184   2.258   3.551 -0.6946 -0.1871 -0.1403
 3428SOL    HW122343   9.277   2.286   3.574 -1.9126  3.6333  0.4867
 3428SOL    HW222344   9.156   2.301   3.466 -1.7806 -1.6016 -0.5151
 3429SOL     OW22345   2.581   9.560   2.306 -0.1605  0.0802 -0.6909
 3429SOL    HW122346   2.653   9.569   2.375 -1.3686 -0.9399  0.7171
 3429SOL    HW222347   2.622   9.569   2.215  1.7549 -0.4875  0.0821
 3430SOL     OW22348   9.782   8.816  10.017 -1.0569  0.5302  0.8777
 3430SOL    HW122349   9.831   8.732   9.995 -0.0758  0.8090  1.9324
 3430SOL    HW222350   9.845   8.882  10.056 -2.3700  0.7095  2.7759
 3431SOL     OW22351   9.063   2.340   2.743  0.0031  0.3621 -0.1934
 3431SOL    HW122352   9.039   2.341   2.841 -0.1447 -0.0484 -0.2217
 3431SOL    HW222353   9.015   2.414   2.696 -1.1866 -0.4068 -0.2349
 3432SOL     OW22354   1.201   1.124   6.330  0.3549 -0.3349 -0.6369
 3432SOL    HW122355   1.281   1.164   6.374 -0.7264  0.2737  0.8013
 3432SOL    HW222356   1.141   1.196   6.296  0.2705 -0.7882 -1.4843
 3433SOL     OW22357   0.757   3.491   4.734  0.2066 -0.2493 -0.2346
 3433SOL    HW122358   0.784   3.509   4.640  1.8967  1.1099  0.4947
 3433SOL    HW222359   0.836   3.462   4.787 -0.4544  0.3304  1.0943
 3434SOL     OW22360   8.227   0.999   3.751 -0.2558 -0.4640  0.1115
 3434SOL    HW122361   8.138   0.986   3.795 -0.0916 -1.4080  0.1910
 3434SOL    HW222362   8.299   0.963   3.812 -0.0785 -2.4146 -1.1946
 3435SOL     OW22363   8.206   6.557   4.141 -0.5649 -0.4343  0.1237
 3435SOL    HW122364   8.214   6.647   4.182 -0.2741 -0.5056  0.2278
 3435SOL    HW222365   8.118   6.516   4.165 -1.0967  0.2122 -0.7086
 3436SOL     OW22366   1.772   9.841   1.958 -0.2753 -0.5984  0.1662
 3436SOL    HW122367   1.709   9.797   1.894  0.0183 -1.6330  0.5739
 3436SOL    HW222368   1.814   9.772   2.016 -0.3202  0.2952  1.2894
 3437SOL     OW22369   7.806   0.493   2.639  0.0335 -0.1273 -0.0149
 3437SOL    HW122370   7.834   0.587   2.617 -2.7083  0.6990 -0.1552
 3437SOL    HW222371   7.768   0.491   2.731  2.1649 -1.5851  0.8624
 3438SOL     OW22372   7.622   2.606   6.035 -0.4366 -0.2503  0.0255
 3438SOL    HW122373   7.671   2.692   6.023 -1.8593  0.2924 -2.3813
 3438SOL    HW222374   7.672   2.532   5.990 -0.9389 -0.0028 -0.9682
 3439SOL     OW22375   7.388   6.027   5.557  0.8984  0.1148 -0.1124
 3439SOL    HW122376   7.314   5.978   5.510  2.0257 -1.2494 -0.4992
 3439SOL    HW222377   7.428   6.094   5.496 -0.2429  1.1021  0.2124
 3440SOL     OW22378   5.485   6.687   0.572  0.0644 -0.6946  0.0886
 3440SOL    HW122379   5.408   6.624   0.578 -0.7433  0.3286  0.7206
 3440SOL    HW222380   5.557   6.659   0.635 -0.4638 -0.7530  0.6650
 3441SOL     OW22381   1.530   1.003   6.789  0.4348  0.3688  0.3686
 3441SOL    HW122382   1.589   1.081   6.811  0.7109  0.2399  0.0820
 3441SOL    HW222383   1.491   0.967   6.874  0.8945  0.3520  0.5751
 3442SOL     OW22384   4.355   4.077   9.503 -0.2792  0.0379  0.6899
 3442SOL    HW122385   4.315   3.988   9.480  0.2276  0.1121 -0.5385
 3442SOL    HW222386   4.317   4.109   9.590 -0.7503 -1.1984  0.9593
 3443SOL     OW22387   6.786   0.325   3.091  0.0915 -0.1157 -0.3478
 3443SOL    HW122388   6.884   0.322   3.070  0.4152 -0.8155  1.1992
 3443SOL    HW222389   6.735   0.348   3.008  1.6305  1.1691 -0.9594
 3444SOL     OW22390   3.841   3.947   0.839  0.3054  0.0066  0.1435
 3444SOL    HW122391   3.790   3.899   0.768  0.3130  0.8999 -0.4737
 3444SOL    HW222392   3.926   3.984   0.801 -0.6952  2.3310  0.0558
 3445SOL     OW22393   1.773   1.765   4.114  0.0080  0.5603 -0.4404
 3445SOL    HW122394   1.794   1.824   4.192  0.5463 -0.7587  0.4083
 3445SOL    HW222395   1.673   1.759   4.104 -0.1301 -1.3085  1.7260
 3446SOL     OW22396   3.833   1.307   0.216  0.0418 -0.0814 -0.2575
 3446SOL    HW122397   3.848   1.210   0.200 -0.5049 -0.1403 -0.4283
 3446SOL    HW222398   3.811   1.323   0.312 -0.2430 -0.1739 -0.3072
 3447SOL     OW22399   9.270   8.132   4.607  0.4130 -0.1617  0.1829
 3447SOL    HW122400   9.183   8.121   4.560  1.1695 -1.8052 -0.8669
 3447SOL    HW222401   9.306   8.223   4.589 -0.8647  0.3740  0.2639
 3448SOL     OW22402   1.009   9.477   3.235 -0.0209  0.5482  0.0011
 3448SOL    HW122403   0.936   9.523   3.185 -0.1116  0.3202 -0.0765
 3448SOL    HW222404   1.070   9.545   3.275 -1.3646  0.7726  1.7088
 3449SOL     OW22405   1.165   9.212   5.434  0.5909 -0.0658  0.1689
 3449SOL    HW122406   1.254   9.207   5.478  1.1406 -1.1315 -1.0413
 3449SOL    HW222407   1.170   9.275   5.356  0.3091 -0.1750  0.0603
 3450SOL     OW22408   7.538   4.619   2.557 -0.1330  0.0584 -0.0312
 3450SOL    HW122409   7.615   4.655   2.609  0.0453 -2.2605  1.3770
 3450SOL    HW222410   7.455   4.671   2.581  0.3686  0.4595  0.8851
 3451SOL     OW22411   1.425   0.156  10.066 -0.4715 -0.2152 -0.0675
 3451SOL    HW122412   1.466   0.093  10.132 -1.0224 -0.6730 -0.1583
 3451SOL    HW222413   1.326   0.139  10.060 -0.6565  0.7774  0.0421
 3452SOL     OW22414   2.025   7.292   5.996 -0.1374 -0.2087  0.4810
 3452SOL    HW122415   2.007   7.251   6.086  3.3000  1.0922  1.8425
 3452SOL    HW222416   1.977   7.239   5.926  0.0048 -3.4649  2.7000
 3453SOL     OW22417   0.589   9.270  10.005  0.2748 -0.2351  0.3076
 3453SOL    HW122418   0.537   9.235   9.926 -0.1352  1.1427 -0.0579
 3453SOL    HW222419   0.645   9.197  10.043 -0.3985 -1.2236 -0.5568
 3454SOL     OW22420   7.629   1.131   8.044 -0.0648  0.2082 -0.3390
 3454SOL    HW122421   7.669   1.102   7.957  0.2016  1.0705 -0.5152
 3454SOL    HW222422   7.543   1.083   8.059  0.9213 -1.5249 -0.0587
 3455SOL     OW22423   9.294   4.386   3.276  0.4171 -0.2280  0.9713
 3455SOL    HW122424   9.236   4.323   3.225  1.1959 -0.2646  0.1106
 3455SOL    HW222425   9.238   4.442   3.337 -0.7893  1.2187 -1.4046
 3456SOL     OW22426   1.187   1.751   2.366 -0.1428  0.0704 -0.1211
 3456SOL    HW122427   1.104   1.800   2.337 -0.0017  0.4160  0.0521
 3456SOL    HW222428   1.169   1.705   2.453 -0.4639 -0.6926 -0.5859
 3457SOL     OW22429   1.008   1.292   0.602  0.2329  0.1082 -0.3141
 3457SOL    HW122430   0.960   1.210   0.571  0.8518 -0.1217 -0.6744
 3457SOL    HW222431   1.057   1.272   0.687  0.9453 -0.0914 -0.7686
 3458SOL     OW22432   9.059   6.852   8.435  0.2978 -0.7049 -0.7128
 3458SOL    HW122433   9.050   6.790   8.356  2.3891 -2.3806  0.3348
 3458SOL    HW222434   9.063   6.946   8.403  0.7089 -1.3423 -2.5908
 3459SOL     OW22435   1.705   8.604   7.059 -0.8136 -0.6334  0.0928
 3459SOL    HW122436   1.632   8.543   7.089 -1.0825 -0.1544  0.4239
 3459SOL    HW222437   1.669   8.697   7.050 -0.1270 -0.3045  0.7275
 3460SOL     OW22438   7.674   8.853   5.216  0.3145 -0.2231 -0.3815
 3460SOL    HW122439   7.668   8.817   5.123  0.9732 -0.3274 -0.3838
 3460SOL    HW222440   7.725   8.938   5.216 -0.1957  0.0856 -0.1971
 3461SOL     OW22441   4.524   5.882   0.537 -0.2310 -0.1490  0.0206
 3461SOL    HW122442   4.611   5.839   0.562 -0.1583  0.4211  0.7632
 3461SOL    HW222443   4.502   5.954   0.603  0.0569  1.5275 -1.7052
 3462SOL     OW22444   9.956   3.984   6.031 -0.1553 -0.6801  0.7483
 3462SOL    HW122445   9.923   3.902   5.984 -0.5276 -1.1594  1.8278
 3462SOL    HW222446   9.898   4.062   6.006  0.6901 -0.5547 -0.9126
 3463SOL     OW22447   7.527   3.638   7.727  0.4572  0.0262  0.2113
 3463SOL    HW122448   7.500   3.669   7.818  1.3374 -1.3974  0.9759
 3463SOL    HW222449   7.503   3.542   7.716 -2.2760  0.8834 -2.1440
 3464SOL     OW22450   6.320   6.098   8.241 -0.1947 -0.1436  0.2438
 3464SOL    HW122451   6.383   6.176   8.236  0.4589 -0.3665  3.6796
 3464SOL    HW222452   6.226   6.131   8.228  0.1767  0.9795  0.2829
 3465SOL     OW22453   7.757   6.882   4.310 -0.7087 -0.3262 -0.0848
 3465SOL    HW122454   7.835   6.822   4.290  1.0517  1.0861  2.2321
 3465SOL    HW222455   7.674   6.826   4.321  0.5329 -2.1572  0.2700
 3466SOL     OW22456   8.093   6.201   4.170 -0.3942 -0.5639  0.1720
 3466SOL    HW122457   8.083   6.239   4.078 -1.0352 -1.8336 -0.2916
 3466SOL    HW222458   8.058   6.267   4.237  0.2188  0.4242 -0.4724
 3467SOL     OW22459   1.070   3.976   6.380 -0.2931 -0.4154  0.1401
 3467SOL    HW122460   1.162   4.013   6.374 -0.3527 -0.2551  0.2298
 3467SOL    HW222461   1.046   3.932   6.293 -0.3425  0.0287 -0.0730
 3468SOL     OW22462   3.978   5.512   2.390 -0.3144 -0.6271 -0.0107
 3468SOL    HW122463   4.037   5.437   2.363 -0.1326 -0.8175  0.8891
 3468SOL    HW222464   4.018   5.560   2.468 -0.4831  0.3352 -0.5027
 3469SOL     OW22465   8.912   5.212   7.920 -0.0881  0.3553 -0.4293
 3469SOL    HW122466   8.912   5.114   7.943  0.7739 -0.2514 -2.8794
 3469SOL    HW222467   9.005   5.247   7.924 -0.1640  0.6550 -1.2828
 3470SOL     OW22468   2.943   6.791   0.534  0.7750  0.0401 -0.2685
 3470SOL    HW122469   2.988   6.708   0.568  2.2744 -0.0428 -2.3134
 3470SOL    HW222470   2.977   6.871   0.584  1.0880 -0.3292  0.1127
 3471SOL     OW22471   5.415   5.806   1.345 -0.2689 -0.2135 -0.3309
 3471SOL    HW122472   5.501   5.812   1.295  0.7321 -0.7488  1.2733
 3471SOL    HW222473   5.388   5.897   1.376  2.0463 -0.5416  2.9057
 3472SOL     OW22474   1.393   6.808   6.956  0.0179  0.0910  0.1404
 3472SOL    HW122475   1.451   6.765   6.887 -0.0355 -1.5296  1.0846
 3472SOL    HW222476   1.448   6.832   7.036 -0.3960 -0.3610  0.5622
 3473SOL     OW22477   3.286   4.578   4.717 -0.1127  0.4987  0.1993
 3473SOL    HW122478   3.344   4.622   4.648  0.1824 -1.2131 -0.6782
 3473SOL    HW222479   3.273   4.482   4.693 -0.8197  0.1167  2.0271
 3474SOL     OW22480   8.756   6.529   7.598 -0.0078 -0.1812  0.2780
 3474SOL    HW122481   8.849   6.507   7.629 -0.4059  0.3266  1.8753
 3474SOL    HW222482   8.691   6.511   7.672 -1.1867 -0.5256 -0.8293
 3475SOL     OW22483   4.086   3.671   6.321 -0.2698 -0.2672  0.4185
 3475SOL    HW122484   4.084   3.584   6.370 -0.5264  0.0833  1.0283
 3475SOL    HW222485   4.181   3.697   6.304 -0.1944 -0.7717  0.0398
 3476SOL     OW22486   7.647   4.941   8.826 -0.1673  0.0400 -0.4241
 3476SOL    HW122487   7.692   5.021   8.865  0.0177 -0.6510  0.8422
 3476SOL    HW222488   7.641   4.869   8.896 -1.6350 -0.5200 -1.0955
 3477SOL     OW22489   1.333   7.570   6.265 -0.2934  0.3238  0.6555
 3477SOL    HW122490   1.256   7.520   6.305 -1.6995  1.6885 -0.2729
 3477SOL    HW222491   1.344   7.658   6.312 -0.5284  0.9661 -0.4627
 3478SOL     OW22492   8.859   0.120   1.341 -0.1101  0.5862 -0.1856
 3478SOL    HW122493   8.835   0.047   1.405 -0.5889  0.6126 -0.3277
 3478SOL    HW222494   8.956   0.116   1.320  0.3728  1.5469  1.7707
 3479SOL     OW22495   5.471   8.047   8.592 -0.3840 -0.0038 -0.3228
 3479SOL    HW122496   5.512   8.050   8.683 -1.6378 -0.9723  0.2934
 3479SOL    HW222497   5.387   7.993   8.596 -0.9725  0.7877 -1.8525
 3480SOL     OW22498   3.291   6.795   1.767 -0.1233  0.7788  0.0529
 3480SOL    HW122499   3.270   6.788   1.670 -0.0506  2.4142 -0.1077
 3480SOL    HW222500   3.207   6.812   1.819  0.3108  4.1902 -0.2386
 3481SOL     OW22501   1.036   3.169  10.031 -0.1497 -0.4699  0.6802
 3481SOL    HW122502   1.015   3.266  10.045 -0.4751 -0.8182  2.6207
 3481SOL    HW222503   1.045   3.152   9.933  2.3978  2.0321  0.4088
 3482SOL     OW22504   9.088   8.133   2.345  0.4711 -0.8062  0.4950
 3482SOL    HW122505   9.001   8.172   2.318  1.0469  1.2213  1.4964
 3482SOL    HW222506   9.079   8.090   2.435  0.5333 -0.5302  0.6319
 3483SOL     OW22507   1.663   2.508   3.813 -0.4847 -0.9533 -0.0558
 3483SOL    HW122508   1.593   2.494   3.883 -0.9983 -0.7437 -0.5305
 3483SOL    HW222509   1.620   2.516   3.723 -0.1018  1.9491 -0.0259
 3484SOL     OW22510   2.547   6.441   4.850 -0.3084  0.6741 -0.3859
 3484SOL    HW122511   2.565   6.438   4.948  0.9142 -2.0212 -0.6655
 3484SOL    HW222512   2.632   6.433   4.799 -1.1929 -0.8684 -1.6824
 3485SOL     OW22513   3.338   8.523   1.798 -0.2762  0.2434  0.0907
 3485SOL    HW122514   3.404   8.449   1.810 -0.8133 -0.5191 -1.5056
 3485SOL    HW222515   3.339   8.582   1.879  2.7781  0.6053 -0.1618
 3486SOL     OW22516   0.747   7.381   5.466 -0.3987  0.6152  0.1737
 3486SOL    HW122517   0.795   7.401   5.381 -0.0452 -0.3143  0.1511
 3486SOL    HW222518   0.813   7.368   5.540 -0.6729  0.6921  0.4369
 3487SOL     OW22519   8.645   2.934   8.161  0.1129  0.0253  0.3793
 3487SOL    HW122520   8.709   2.871   8.117  0.5508  0.6396  0.1289
 3487SOL    HW222521   8.693   2.985   8.232 -0.2382  0.0793  0.5735
 3488SOL     OW22522   7.013   2.363   4.522  0.0391  0.5288 -0.0668
 3488SOL    HW122523   6.974   2.422   4.593  1.3410 -0.3830  1.4511
 3488SOL    HW222524   7.052   2.419   4.449 -0.0165  1.5177  0.6514
 3489SOL     OW22525   2.938   8.307   2.045 -0.2450 -1.3596 -0.3170
 3489SOL    HW122526   3.028   8.313   2.088 -0.6646  1.5632  0.2404
 3489SOL    HW222527   2.874   8.261   2.107 -0.0991  0.1376  0.9774
 3490SOL     OW22528   0.264   7.308   5.235  0.2493  0.0984  0.4424
 3490SOL    HW122529   0.283   7.322   5.332  1.5932  1.6403 -0.0165
 3490SOL    HW222530   0.296   7.218   5.206 -1.1599 -0.8209  1.6557
 3491SOL     OW22531   8.003   4.304   2.239 -0.2407 -0.7977 -0.0419
 3491SOL    HW122532   8.044   4.273   2.325 -0.0387  2.3033  1.0568
 3491SOL    HW222533   8.068   4.363   2.191 -2.3487  1.9687  0.3963
 3492SOL     OW22534   1.930   2.091   9.143 -0.1405 -0.2955 -0.1530
 3492SOL    HW122535   1.997   2.018   9.136 -1.9497 -2.4151  3.2456
 3492SOL    HW222536   1.847   2.066   9.092  0.5837  1.0733 -2.0431
 3493SOL     OW22537   8.582   4.369   6.461 -0.1542  0.0143  0.2498
 3493SOL    HW122538   8.554   4.316   6.541 -1.1561 -1.1553 -0.8537
 3493SOL    HW222539   8.646   4.315   6.406  2.2444  1.6472  1.3652
 3494SOL     OW22540   8.527   2.593   6.222  0.5205 -0.1930  0.0420
 3494SOL    HW122541   8.569   2.678   6.253 -0.8995 -0.1114  1.8276
 3494SOL    HW222542   8.580   2.555   6.146  1.9532  1.5536  0.1415
 3495SOL     OW22543   2.534   9.432   9.470 -0.2338  0.2045 -0.2899
 3495SOL    HW122544   2.476   9.356   9.440  1.3122 -1.1906  0.2394
 3495SOL    HW222545   2.539   9.434   9.569 -1.0899  1.6518 -0.2494
 3496SOL     OW22546   3.717   3.661   4.798 -0.4699 -0.7476 -0.0282
 3496SOL    HW122547   3.714   3.704   4.708 -1.6448  0.3503  0.5219
 3496SOL    HW222548   3.691   3.565   4.790  0.5580 -0.9565 -1.0196
 3497SOL     OW22549   3.440   4.957   2.397  0.3383 -0.0777 -0.1088
 3497SOL    HW122550   3.486   4.893   2.458 -0.1154  0.8661  1.2538
 3497SOL    HW222551   3.502   5.032   2.374  0.1565  0.1328  0.0808
 3498SOL     OW22552   5.594   3.476   8.969  0.6011  0.1387  0.3617
 3498SOL    HW122553   5.643   3.407   9.021  1.4649 -1.0750 -1.9686
 3498SOL    HW222554   5.655   3.554   8.951  0.7693 -0.0825 -0.0409
 3499SOL     OW22555   9.279   8.713   2.201 -0.0350  0.1354  0.0634
 3499SOL    HW122556   9.284   8.809   2.173 -1.6386  0.6002  1.3213
 3499SOL    HW222557   9.184   8.687   2.220  0.5465 -1.2434  1.2666
 3500SOL     OW22558   0.080   6.956   5.854 -0.3671  0.3454  0.0458
 3500SOL    HW122559   0.171   6.954   5.894  0.9326 -0.4249 -2.8569
 3500SOL    HW222560   0.013   6.980   5.925  1.5880 -2.7478  3.0852
 3501SOL     OW22561   8.198   2.009   9.272  0.4135  0.3744  0.1321
 3501SOL    HW122562   8.236   2.042   9.358 -0.1381 -1.9459  1.3235
 3501SOL    HW222563   8.100   2.028   9.269  0.3462  0.0581  0.2362
 3502SOL     OW22564   4.161   6.051   2.350  0.1723 -0.5003 -0.2004
 3502SOL    HW122565   4.113   6.068   2.264  0.3721 -1.8408 -0.5824
 3502SOL    HW222566   4.121   5.971   2.395  4.0803 -3.5986 -2.0401
 3503SOL     OW22567   1.900   7.604   4.311  0.3229  0.0599  0.1381
 3503SOL    HW122568   1.907   7.674   4.239  0.6848  0.0771  0.1898
 3503SOL    HW222569   1.936   7.640   4.396 -0.0900  0.0320  0.3268
 3504SOL     OW22570   8.149   2.522   5.039 -0.1907 -0.2586 -0.1348
 3504SOL    HW122571   8.201   2.517   5.125  1.7982 -0.6820 -1.3229
 3504SOL    HW222572   8.093   2.440   5.030  1.5749 -1.4619 -0.4467
 3505SOL     OW22573   3.225   9.796   1.324  0.1249  0.2313  0.4354
 3505SOL    HW122574   3.179   9.772   1.239  1.2053 -1.0042  0.1906
 3505SOL    HW222575   3.314   9.836   1.304 -0.4734  1.8507  0.9344
 3506SOL     OW22576   7.041   9.076   8.441 -0.5732 -0.3322 -0.2463
 3506SOL    HW122577   7.021   9.003   8.375  1.1534  0.6082 -1.8677
 3506SOL    HW222578   6.957   9.129   8.457 -0.8576 -0.0737 -2.3590
 3507SOL     OW22579   1.661   9.965   1.558 -0.1502 -0.2373 -0.3404
 3507SOL    HW122580   1.699  10.056   1.542 -0.3446 -0.2327 -0.7769
 3507SOL    HW222581   1.733   9.896   1.549 -0.2770 -0.2406 -1.3136
 3508SOL     OW22582   8.284   3.367   1.444  0.4240  0.2233 -0.7883
 3508SOL    HW122583   8.210   3.406   1.499  0.2273 -0.0094 -0.8860
 3508SOL    HW222584   8.367   3.360   1.500 -0.1648 -1.3502 -0.0609
 3509SOL     OW22585   8.328   1.543   9.433 -0.4180 -0.5575  0.4242
 3509SOL    HW122586   8.327   1.643   9.436  0.1797 -0.5005 -0.8135
 3509SOL    HW222587   8.387   1.508   9.506 -0.7037 -0.0102  0.9199
 3510SOL     OW22588   0.785   2.493   9.959 -0.1130  0.0166 -0.0987
 3510SOL    HW122589   0.874   2.450   9.947  0.6573  1.3871  0.6386
 3510SOL    HW222590   0.720   2.454   9.893  0.7504 -1.7203  0.0550
 3511SOL     OW22591   6.342   3.433   0.174 -0.6609  0.0457  0.3400
 3511SOL    HW122592   6.422   3.417   0.116 -1.8452 -1.6487 -0.8484
 3511SOL    HW222593   6.334   3.531   0.192  0.8072  0.4002 -0.7912
 3512SOL     OW22594   9.933   0.428   3.826  0.0964  0.6928  0.6270
 3512SOL    HW122595   9.921   0.522   3.793 -3.2330 -0.4171 -1.5734
 3512SOL    HW222596   9.843   0.390   3.850  0.8708 -3.1189 -2.0438
 3513SOL     OW22597   1.124   9.183   1.949  0.2764  0.6509  0.4680
 3513SOL    HW122598   1.050   9.137   1.997  0.5567  1.2312  1.4697
 3513SOL    HW222599   1.089   9.265   1.904 -0.1877 -0.4229 -1.1741
 3514SOL     OW22600   1.034   4.832   2.702  1.1018 -0.0257  0.0821
 3514SOL    HW122601   1.075   4.914   2.741 -0.7705  1.2091 -0.4414
 3514SOL    HW222602   1.049   4.831   2.603 -0.2785  0.5674 -0.1525
 3515SOL     OW22603   6.951   8.018   3.310 -0.5561 -0.6280 -0.4651
 3515SOL    HW122604   7.004   8.079   3.252  0.6687 -1.6391 -0.4372
 3515SOL    HW222605   7.013   7.963   3.366 -1.6275 -1.9092 -0.5104
 3516SOL     OW22606   5.037   0.663   9.907 -0.5425 -0.1140 -0.0151
 3516SOL    HW122607   5.022   0.761   9.896 -1.0946 -0.3929 -1.9371
 3516SOL    HW222608   5.124   0.637   9.865 -1.6372 -0.8536 -1.8950
 3517SOL     OW22609   5.462   7.882   2.503  0.2464 -0.0261  0.0578
 3517SOL    HW122610   5.431   7.974   2.478  1.0587  0.1748 -0.2225
 3517SOL    HW222611   5.447   7.820   2.427 -0.6692 -0.2148  0.3881
 3518SOL     OW22612   4.385   4.644   8.050 -0.2400 -0.0294 -0.4115
 3518SOL    HW122613   4.318   4.583   8.093  0.1996  0.0967  0.4744
 3518SOL    HW222614   4.454   4.590   8.001 -0.3814 -0.2047 -0.4148
 3519SOL     OW22615   1.884   6.904   8.252  0.2647  0.2023  0.6711
 3519SOL    HW122616   1.939   6.821   8.239  0.9077  0.9194 -1.4318
 3519SOL    HW222617   1.942   6.977   8.288  0.2166  0.3881  0.3714
 3520SOL     OW22618   7.435   1.043   3.820 -0.3305  0.2641  0.4282
 3520SOL    HW122619   7.511   1.073   3.877 -0.5914 -0.5625  1.2295
 3520SOL    HW222620   7.399   1.120   3.768  0.3215  0.8932  0.9133
 3521SOL     OW22621   1.988   9.768   6.953  0.1246  0.1059  0.3203
 3521SOL    HW122622   1.959   9.723   7.038 -0.6752 -1.2512 -0.6503
 3521SOL    HW222623   2.087   9.762   6.944  0.1720 -0.1070  0.9356
 3522SOL     OW22624   8.648   0.913   4.308 -0.3446 -0.8243  0.0344
 3522SOL    HW122625   8.562   0.944   4.267  0.7376  0.8516 -1.0174
 3522SOL    HW222626   8.662   0.960   4.396 -0.5917 -1.2296  0.2899
 3523SOL     OW22627   6.394   0.019   4.856  0.0810 -0.1172 -0.5651
 3523SOL    HW122628   6.474   0.052   4.805  1.4783 -0.3116  1.4384
 3523SOL    HW222629   6.388   0.068   4.943 -3.0658  1.1949 -1.4507
 3524SOL     OW22630   8.201   5.756   7.962  0.4699 -0.0752 -0.5678
 3524SOL    HW122631   8.252   5.807   7.893 -2.5769  0.5822 -2.4327
 3524SOL    HW222632   8.222   5.658   7.952  0.3533  0.0434 -2.2332
 3525SOL     OW22633   0.209   0.727   4.581 -0.1731  0.0351 -0.2907
 3525SOL    HW122634   0.123   0.763   4.617 -0.3479 -0.5890 -0.0831
 3525SOL    HW222635   0.261   0.801   4.537 -0.7068  0.4567 -0.2070
 3526SOL     OW22636   4.611   2.426   5.526 -0.2599  1.4073 -0.0371
 3526SOL    HW122637   4.542   2.355   5.507 -0.1318  1.4406 -0.6488
 3526SOL    HW222638   4.611   2.492   5.451  1.1424  0.8467 -0.5501
 3527SOL     OW22639   4.010   9.563   8.850 -0.3446 -0.2090 -0.6405
 3527SOL    HW122640   4.026   9.477   8.802 -0.9002 -2.2460  2.6478
 3527SOL    HW222641   3.912   9.580   8.856 -0.3581 -0.7372  0.9545
 3528SOL     OW22642   8.238   8.362   8.992  0.5330 -0.2650  0.4654
 3528SOL    HW122643   8.227   8.265   8.972  0.5368 -0.3949  1.1067
 3528SOL    HW222644   8.174   8.390   9.064  0.5367  0.2048  0.2922
 3529SOL     OW22645   1.980   0.465   4.561 -0.7527  0.2521  0.7101
 3529SOL    HW122646   1.923   0.546   4.575 -0.7060  0.3165  0.5407
 3529SOL    HW222647   1.924   0.391   4.525 -0.2215  1.1827 -2.1833
 3530SOL     OW22648   2.548   3.879   0.628 -0.0580 -0.3605  0.1375
 3530SOL    HW122649   2.517   3.813   0.696  0.2389 -2.2368 -1.5138
 3530SOL    HW222650   2.629   3.926   0.663 -1.5447  0.7568  2.2403
 3531SOL     OW22651   3.427   0.031   8.781 -0.2227  0.5328 -0.6814
 3531SOL    HW122652   3.495   0.038   8.709 -0.0779 -0.3199 -0.6379
 3531SOL    HW222653   3.472   0.010   8.868 -0.6830 -2.0180 -1.0191
 3532SOL     OW22654   2.011   8.380   7.067 -0.0839 -0.1271 -0.1985
 3532SOL    HW122655   1.953   8.310   7.109 -1.1063  0.8242  0.0213
 3532SOL    HW222656   1.957   8.432   7.000  0.8082  0.0954 -0.7497
 3533SOL     OW22657   5.728   7.233   4.470  0.0083 -0.5090  0.3555
 3533SOL    HW122658   5.799   7.172   4.433  1.7282  0.9722  1.0975
 3533SOL    HW222659   5.771   7.319   4.499 -2.1874  0.5749  0.4631
 3534SOL     OW22660   0.022   3.936   2.723 -0.0397  0.1431  0.5708
 3534SOL    HW122661   0.063   3.959   2.635 -0.8275  1.4409  0.5301
 3534SOL    HW222662  -0.048   4.004   2.746  0.6757  0.2508  2.5452
 3535SOL     OW22663   0.872   8.703   5.422 -0.1346 -0.0568 -0.3145
 3535SOL    HW122664   0.823   8.681   5.338  0.0082 -0.0042 -0.4111
 3535SOL    HW222665   0.837   8.647   5.497  0.0346 -0.4169 -0.5038
 3536SOL     OW22666   7.787   2.344   0.949  0.0908 -0.5285 -0.4091
 3536SOL    HW122667   7.789   2.246   0.930  0.7162 -0.7956  1.0012
 3536SOL    HW222668   7.874   2.372   0.991  0.5801  0.9466 -2.3022
 3537SOL     OW22669   8.987   2.877   2.248  0.5852  0.6330  0.4657
 3537SOL    HW122670   8.888   2.884   2.265  0.5020  0.5919 -0.0108
 3537SOL    HW222671   9.003   2.831   2.161  1.0320  0.2795  0.7273
 3538SOL     OW22672   9.642   0.539   1.340  0.3607 -0.1354 -0.5190
 3538SOL    HW122673   9.699   0.504   1.415  0.7327  0.3163 -0.5839
 3538SOL    HW222674   9.592   0.620   1.372  0.9119  0.3595 -0.9156
 3539SOL     OW22675   4.301   9.536   1.202  0.0870 -0.2871  0.1866
 3539SOL    HW122676   4.364   9.607   1.173  1.9110 -1.1618  1.8853
 3539SOL    HW222677   4.333   9.447   1.167 -0.7443 -0.5964  0.2084
 3540SOL     OW22678   1.173   1.620   4.697 -0.2152  0.2163 -0.5126
 3540SOL    HW122679   1.272   1.613   4.687 -0.3442  0.3747 -1.9322
 3540SOL    HW222680   1.140   1.543   4.753  0.4495 -1.1004 -1.8897
 3541SOL     OW22681   4.614   1.651   5.124 -0.2413 -0.2113 -0.0983
 3541SOL    HW122682   4.690   1.696   5.172  0.1995 -0.0057 -0.9923
 3541SOL    HW222683   4.648   1.571   5.075 -0.4188  0.4696 -1.3409
 3542SOL     OW22684   7.284   1.359   7.224 -0.0228 -0.0447  0.6745
 3542SOL    HW122685   7.256   1.310   7.307 -0.4912  1.0139  1.1470
 3542SOL    HW222686   7.382   1.375   7.228  0.1099 -0.8006  0.5925
 3543SOL     OW22687   0.458   5.869   3.037  0.0255  0.3446  0.1339
 3543SOL    HW122688   0.458   5.813   2.954  1.7881  0.0034  0.3531
 3543SOL    HW222689   0.446   5.965   3.012  1.1772  0.3171 -0.5853
 3544SOL     OW22690   8.086   3.089   5.231  0.1785 -0.5125  0.2212
 3544SOL    HW122691   8.098   2.994   5.203 -0.7154 -0.4315 -0.4816
 3544SOL    HW222692   8.065   3.093   5.328 -2.3936 -1.2427 -0.2632
 3545SOL     OW22693   0.314   3.197   6.672  0.5926 -0.1440  0.3467
 3545SOL    HW122694   0.250   3.184   6.747  0.4122 -0.9515  0.0595
 3545SOL    HW222695   0.308   3.119   6.609 -0.5693  1.3810 -1.4828
 3546SOL     OW22696   9.525   4.633   5.594 -0.6846 -0.0075  0.9353
 3546SOL    HW122697   9.430   4.621   5.619 -0.7035  0.7189  1.2221
 3546SOL    HW222698   9.582   4.632   5.677 -0.4619 -0.2348  0.7828
 3547SOL     OW22699   8.729   5.623   1.287  0.2600  0.4543 -0.2123
 3547SOL    HW122700   8.671   5.556   1.334  1.1710  0.0295  0.3050
 3547SOL    HW222701   8.748   5.591   1.194  0.8458 -0.0987  0.0951
 3548SOL     OW22702   9.075   7.542   8.605  0.3596 -0.1779  0.3848
 3548SOL    HW122703   9.105   7.506   8.517 -0.4161  0.3777 -0.1059
 3548SOL    HW222704   9.006   7.613   8.591  1.3070  0.9642  1.3703
 3549SOL     OW22705   8.833   3.987   2.811 -0.2940  0.4209  0.2417
 3549SOL    HW122706   8.890   3.908   2.789  0.2471  1.0606 -0.6789
 3549SOL    HW222707   8.737   3.959   2.817 -0.2989 -0.0226 -1.6426
 3550SOL     OW22708   9.072   7.511   1.376  0.5848 -0.4300 -0.4073
 3550SOL    HW122709   8.991   7.456   1.399  0.4668  0.4357  1.2807
 3550SOL    HW222710   9.094   7.572   1.452  0.8632  1.7202 -2.1662
 3551SOL     OW22711   9.130   2.629   6.745 -0.2471 -0.8140  0.6852
 3551SOL    HW122712   9.191   2.565   6.698 -1.1048 -0.4918 -0.8849
 3551SOL    HW222713   9.045   2.581   6.769 -0.4643 -0.5470  0.4459
 3552SOL     OW22714   3.485   3.152   0.454  0.1964  0.7977  0.0725
 3552SOL    HW122715   3.394   3.141   0.412  1.3023  1.0251 -2.5028
 3552SOL    HW222716   3.477   3.206   0.537 -2.0372  0.8682 -0.1584
 3553SOL     OW22717   9.051   4.889   2.243 -0.4596 -0.4778 -0.2417
 3553SOL    HW122718   9.050   4.794   2.274 -0.7751 -0.8461 -1.3516
 3553SOL    HW222719   8.995   4.945   2.304 -2.0041 -1.3996 -0.7854
 3554SOL     OW22720   8.505   2.373   4.126  0.0002  0.5813  0.2753
 3554SOL    HW122721   8.414   2.404   4.151 -0.6154 -1.2693  0.4094
 3554SOL    HW222722   8.550   2.333   4.206 -0.3695 -1.5228 -0.5238
 3555SOL     OW22723   3.967   7.971   9.546  0.3184 -0.2039 -0.0596
 3555SOL    HW122724   3.965   8.070   9.560  0.0731 -0.2297  0.1023
 3555SOL    HW222725   3.896   7.928   9.603 -0.0689 -0.4030 -0.6914
 3556SOL     OW22726   0.170   5.492   0.600 -0.2160  0.1941 -0.2392
 3556SOL    HW122727   0.169   5.571   0.540  0.7535  0.2917 -0.1461
 3556SOL    HW222728   0.172   5.408   0.545  1.2191  0.2934 -0.3592
 3557SOL     OW22729   7.528   9.242   7.032 -0.9011 -0.2232 -0.2016
 3557SOL    HW122730   7.456   9.307   7.010  0.4023  0.9851 -1.0077
 3557SOL    HW222731   7.567   9.205   6.948  1.7046  1.7307  0.0646
 3558SOL     OW22732   3.787   9.281   3.246 -0.4562  0.0852  0.3787
 3558SOL    HW122733   3.842   9.220   3.188  0.5300  1.6036 -0.3065
 3558SOL    HW222734   3.691   9.274   3.219 -0.3120 -0.9530  0.1174
 3559SOL     OW22735   0.116   3.373   7.909 -0.2932  0.1832  0.3906
 3559SOL    HW122736   0.115   3.473   7.918 -3.5843  0.3507 -1.1326
 3559SOL    HW222737   0.155   3.348   7.821  2.0777 -0.0063  1.4489
 3560SOL     OW22738   0.839   6.787   4.880 -0.1279 -0.2853  0.0343
 3560SOL    HW122739   0.921   6.825   4.839  0.0094 -0.2063  0.3858
 3560SOL    HW222740   0.864   6.724   4.954 -0.4167  0.6607  0.9405
 3561SOL     OW22741   9.394   1.645   2.697 -0.4242  0.3696 -0.0600
 3561SOL    HW122742   9.364   1.613   2.607 -0.0025  0.7432 -0.3341
 3561SOL    HW222743   9.367   1.578   2.767 -0.6534  0.0255 -0.4752
 3562SOL     OW22744   6.690   1.979   2.429 -0.3458  0.1519 -0.5667
 3562SOL    HW122745   6.702   1.887   2.392  0.3004  0.3519 -0.8519
 3562SOL    HW222746   6.635   2.034   2.366 -1.9694 -0.4586  0.2702
 3563SOL     OW22747   6.108   8.673   3.472 -0.1040 -0.1922 -0.2561
 3563SOL    HW122748   6.171   8.726   3.530  0.5454 -0.2562 -0.9033
 3563SOL    HW222749   6.032   8.732   3.445 -0.3106 -0.1019  0.4916
 3564SOL     OW22750   3.412   0.162   9.531  0.3124 -0.1797 -0.1041
 3564SOL    HW122751   3.446   0.242   9.581  3.7286 -0.8668 -1.1732
 3564SOL    HW222752   3.442   0.079   9.579 -1.1680 -0.8473 -0.3081
 3565SOL     OW22753   5.026   0.038   2.945  0.1927 -0.0870 -0.2765
 3565SOL    HW122754   5.041   0.002   3.037 -0.4087 -2.3238 -1.0180
 3565SOL    HW222755   4.984  -0.033   2.888 -1.8460  2.0989 -1.5777
 3566SOL     OW22756   3.456   8.771   1.942 -0.0394 -0.2690 -0.6008
 3566SOL    HW122757   3.427   8.848   1.886  0.0448  0.7789  0.7766
 3566SOL    HW222758   3.522   8.802   2.011 -0.8205 -1.3655  0.6618
 3567SOL     OW22759   9.342   5.292   9.038 -0.1176  0.1513  0.7774
 3567SOL    HW122760   9.299   5.365   9.091  2.4973  2.6510 -0.4461
 3567SOL    HW222761   9.346   5.209   9.094 -0.5065  1.7426  3.2458
 3568SOL     OW22762   4.454   3.958   1.074  0.3273 -0.3263 -0.3955
 3568SOL    HW122763   4.393   3.900   1.128  2.1121 -0.7527  1.2503
 3568SOL    HW222764   4.549   3.929   1.088  1.2882  2.9317  0.4916
 3569SOL     OW22765   9.575   6.060   5.267 -0.1658 -0.0313 -0.2381
 3569SOL    HW122766   9.591   6.134   5.332  1.8432 -1.4212  0.8884
 3569SOL    HW222767   9.476   6.044   5.257 -0.5621  1.9140  0.4756
 3570SOL     OW22768   6.385   4.152   0.607  0.4681  0.0756  0.2346
 3570SOL    HW122769   6.398   4.237   0.657 -1.7507  0.1056  0.8426
 3570SOL    HW222770   6.334   4.171   0.523 -0.1303 -0.6591  0.4284
 3571SOL     OW22771   7.782   7.029   3.494  0.1019 -0.6076  0.0660
 3571SOL    HW122772   7.771   6.929   3.497  0.3211 -0.6788 -1.2799
 3571SOL    HW222773   7.695   7.071   3.469  0.3241 -0.5336 -0.5732
 3572SOL     OW22774   2.692   4.620   7.328  0.2832  0.6849 -0.0246
 3572SOL    HW122775   2.707   4.522   7.328  1.2875  0.8264  0.7969
 3572SOL    HW222776   2.666   4.650   7.421  1.5798  1.4128  0.1153
 3573SOL     OW22777   2.808   7.813   9.217 -0.3950  0.4551  0.0941
 3573SOL    HW122778   2.757   7.731   9.241  1.2568 -1.1469 -1.7205
 3573SOL    HW222779   2.875   7.834   9.289  0.6530 -1.0502 -0.4220
 3574SOL     OW22780   3.728   3.124   6.348 -0.2397  0.0211  0.6651
 3574SOL    HW122781   3.629   3.122   6.358 -0.2642  0.3855  0.4789
 3574SOL    HW222782   3.766   3.037   6.380 -0.5706  0.0875  1.2336
 3575SOL     OW22783   1.623   1.602   0.603 -0.0818 -0.0098  0.4641
 3575SOL    HW122784   1.649   1.571   0.512  2.5566 -2.5215  1.9800
 3575SOL    HW222785   1.559   1.536   0.644 -0.9290  0.8853  0.6103
 3576SOL     OW22786   2.939   8.176   9.135 -0.3273 -0.0349  1.0687
 3576SOL    HW122787   2.879   8.099   9.112 -0.1898 -0.5052  2.2202
 3576SOL    HW222788   3.023   8.141   9.177  1.0035  0.5898 -1.0036
 3577SOL     OW22789   6.988   6.309   2.624 -0.0388 -0.1207 -0.0558
 3577SOL    HW122790   7.032   6.303   2.714  0.5663  1.2160 -0.2431
 3577SOL    HW222791   7.011   6.397   2.582  0.0020 -0.9069 -1.6942
 3578SOL     OW22792   4.130   8.288   2.838  0.2427  0.9557  0.2794
 3578SOL    HW122793   4.183   8.372   2.833  0.9203  0.4113 -4.9662
 3578SOL    HW222794   4.035   8.307   2.811  0.3181  0.1336 -0.5940
 3579SOL     OW22795   8.236   4.901   2.993  0.4038  0.3873 -0.2853
 3579SOL    HW122796   8.244   4.918   2.895  2.9038 -0.1699 -0.2110
 3579SOL    HW222797   8.231   4.802   3.009 -0.6753  0.4991  0.1293
 3580SOL     OW22798   4.332   4.655   5.186 -0.2942 -0.1738  0.2867
 3580SOL    HW122799   4.284   4.568   5.173  0.8507 -0.8920  0.7887
 3580SOL    HW222800   4.396   4.646   5.262 -1.4112  1.6532  1.4734
 3581SOL     OW22801   1.266   7.975   9.456 -0.0858  0.1118 -0.1221
 3581SOL    HW122802   1.274   7.955   9.358  1.5891 -0.1673  0.0493
 3581SOL    HW222803   1.216   8.060   9.469 -2.0747 -0.8649 -1.1278
 3582SOL     OW22804   3.366   3.811   0.883 -1.4145 -0.5836 -0.1604
 3582SOL    HW122805   3.449   3.778   0.927  0.4931  1.6971 -1.9255
 3582SOL    HW222806   3.338   3.747   0.812 -0.1188 -0.4570 -0.7886
 3583SOL     OW22807   2.822   5.892   4.787 -0.4567 -0.2588  0.0644
 3583SOL    HW122808   2.752   5.964   4.788  0.3058  0.4923 -0.3400
 3583SOL    HW222809   2.777   5.803   4.773 -1.3253  0.2202 -0.2512
 3584SOL     OW22810   0.051   0.836   7.095 -0.0586 -0.2392  0.1043
 3584SOL    HW122811  -0.013   0.760   7.105 -0.6586  0.0900 -1.2345
 3584SOL    HW222812   0.015   0.917   7.139 -0.4377 -0.1324 -0.3995
 3585SOL     OW22813   6.496   9.860   8.277 -0.0497  0.4650  0.0647
 3585SOL    HW122814   6.582   9.859   8.328  0.0587 -0.8063 -0.1372
 3585SOL    HW222815   6.511   9.902   8.188  0.6859 -1.0291 -0.5252
 3586SOL     OW22816   8.985   4.991   8.884  0.6507  0.4288 -0.3554
 3586SOL    HW122817   8.986   4.891   8.878 -0.2785  0.3834  0.0930
 3586SOL    HW222818   8.907   5.026   8.832  2.6334  1.1079 -2.9362
 3587SOL     OW22819   6.945   6.540   4.682 -0.6282  0.0264 -0.2464
 3587SOL    HW122820   6.854   6.580   4.689  0.1333  2.1344 -2.0101
 3587SOL    HW222821   6.972   6.535   4.586  1.9737  1.4764  0.3735
 3588SOL     OW22822   7.729   3.210   1.638 -0.0450  0.0033 -0.5800
 3588SOL    HW122823   7.809   3.157   1.666 -0.5495  0.1780  1.2047
 3588SOL    HW222824   7.653   3.149   1.618 -0.0932 -0.0425 -0.2515
 3589SOL     OW22825   8.363   0.261   4.413 -0.9041 -0.0831  0.3831
 3589SOL    HW122826   8.395   0.252   4.507  1.1692  0.7219 -0.2121
 3589SOL    HW222827   8.430   0.220   4.351 -1.7876  0.2352 -0.8009
 3590SOL     OW22828   3.680   1.341   5.560  0.5739 -0.3019  0.2158
 3590SOL    HW122829   3.693   1.439   5.549  2.8986 -0.4036  1.7819
 3590SOL    HW222830   3.740   1.292   5.497 -0.1340 -0.7388 -0.1279
 3591SOL     OW22831   2.317   5.898   7.848 -0.0062 -0.0056  0.5019
 3591SOL    HW122832   2.236   5.884   7.905  0.6400 -2.2720  0.9409
 3591SOL    HW222833   2.289   5.931   7.758 -1.4698 -1.1953  0.4918
 3592SOL     OW22834   3.539   9.973   7.015  0.0977 -0.3955 -0.8304
 3592SOL    HW122835   3.561  10.052   6.957  2.2118 -2.1900 -2.5860
 3592SOL    HW222836   3.490   9.905   6.961  1.8281 -1.9633 -0.4759
 3593SOL     OW22837   3.910   3.690   5.720  0.1597  0.2209 -0.3654
 3593SOL    HW122838   3.812   3.682   5.741  0.2241  0.2578 -0.0506
 3593SOL    HW222839   3.926   3.776   5.671  0.7102  2.4792  3.6096
 3594SOL     OW22840   5.793   1.073   4.984 -0.0865  0.1729 -0.4008
 3594SOL    HW122841   5.824   0.982   5.013  1.8637  0.9232 -0.0540
 3594SOL    HW222842   5.731   1.111   5.052  0.5968 -0.1211  0.3899
 3595SOL     OW22843   4.379   4.911   5.194 -0.4006  0.3068  0.3171
 3595SOL    HW122844   4.451   4.938   5.257  1.4682  1.1536 -2.0838
 3595SOL    HW222845   4.366   4.812   5.198 -0.4583  0.3789  2.1396
 3596SOL     OW22846   4.456   7.339   5.017 -0.0425  0.6805 -0.3510
 3596SOL    HW122847   4.451   7.438   5.000 -0.5747  0.3379 -2.2828
 3596SOL    HW222848   4.530   7.300   4.962  0.8585  0.1483  1.2130
 3597SOL     OW22849   3.603   1.651   5.101  0.2828  0.5672  0.2523
 3597SOL    HW122850   3.560   1.730   5.147 -0.6312 -1.0417  2.2282
 3597SOL    HW222851   3.702   1.663   5.102  0.2612  0.7612  2.3179
 3598SOL     OW22852   0.023   7.205   9.869  0.2699 -0.1101 -0.4091
 3598SOL    HW122853   0.002   7.147   9.789 -1.3852 -1.3508  0.8958
 3598SOL    HW222854  -0.059   7.254   9.897  1.1545  1.2656 -0.1955
 3599SOL     OW22855   8.242   2.471   2.394  0.2327  0.0723 -1.0634
 3599SOL    HW122856   8.274   2.560   2.359 -2.4410  1.1032 -0.9663
 3599SOL    HW222857   8.249   2.470   2.493 -0.6475  0.5401 -0.9961
 3600SOL     OW22858   0.781   3.876   6.981 -0.6473  0.0396 -0.3856
 3600SOL    HW122859   0.844   3.808   7.019 -1.6953 -0.7715 -0.0349
 3600SOL    HW222860   0.737   3.926   7.056 -0.3091  0.6918 -0.6274
 3601SOL     OW22861   9.516   7.787   9.937  0.0749  0.5012  0.2443
 3601SOL    HW122862   9.606   7.829   9.930  0.4132 -0.5226 -2.2844
 3601SOL    HW222863   9.454   7.828   9.869 -0.8461  0.0036  0.7660
 3602SOL     OW22864   9.897   9.215   3.695  0.2459  0.3386 -0.0694
 3602SOL    HW122865   9.914   9.184   3.788 -2.3351 -0.0841  0.3010
 3602SOL    HW222866   9.864   9.310   3.696  2.4417  1.1444 -0.7574
 3603SOL     OW22867   8.726   8.423   3.501 -0.0643 -0.3770  0.8250
 3603SOL    HW122868   8.822   8.434   3.526 -0.1523 -1.4570  1.6402
 3603SOL    HW222869   8.682   8.359   3.564 -0.8541 -1.3495 -0.6918
 3604SOL     OW22870   3.927   9.536   2.336 -0.2200  0.4088 -0.3513
 3604SOL    HW122871   3.889   9.447   2.362  0.8753 -0.2417 -0.9405
 3604SOL    HW222872   3.874   9.609   2.380 -1.8275 -0.4865 -0.7746
 3605SOL     OW22873   1.052   8.625   5.811  0.0834 -0.3196 -0.0378
 3605SOL    HW122874   1.020   8.585   5.897 -0.5318 -0.7529 -0.4652
 3605SOL    HW222875   1.114   8.561   5.765 -0.9768 -0.8430 -0.7675
 3606SOL     OW22876   8.400   8.486   8.098 -0.0402 -0.2203  0.0791
 3606SOL    HW122877   8.400   8.390   8.125  0.7977 -0.0237  0.8332
 3606SOL    HW222878   8.495   8.517   8.087 -0.3055  0.5095 -0.1820
 3607SOL     OW22879   3.558   6.276   1.993  0.4185 -0.0473  0.3865
 3607SOL    HW122880   3.493   6.343   1.955 -0.3802 -1.0197  0.0212
 3607SOL    HW222881   3.507   6.197   2.028  1.2099  0.4776  2.7594
 3608SOL     OW22882   5.236   1.992   2.306  0.2471 -0.1930 -0.1766
 3608SOL    HW122883   5.286   1.992   2.219 -1.1343 -0.9684 -0.9895
 3608SOL    HW222884   5.302   1.998   2.382  1.4816  0.2368 -1.2481
 3609SOL     OW22885   6.987   1.053   6.348  0.6065 -0.2831 -0.1402
 3609SOL    HW122886   6.951   0.988   6.415  0.1824 -1.2276 -1.2898
 3609SOL    HW222887   6.911   1.093   6.297  1.0746 -1.1965 -1.5623
 3610SOL     OW22888   1.897   9.629   7.173 -0.3586 -0.0007  0.4507
 3610SOL    HW122889   1.926   9.632   7.268 -0.5879  0.9139  0.4977
 3610SOL    HW222890   1.797   9.629   7.169 -0.3503  0.5288  0.1963
 3611SOL     OW22891   5.387   1.617   4.814  0.0150 -0.0634 -0.1438
 3611SOL    HW122892   5.486   1.616   4.795  0.0970  0.8707  0.2057
 3611SOL    HW222893   5.337   1.596   4.730  0.5123 -0.5645 -0.3179
 3612SOL     OW22894   2.249   0.697   7.362 -0.0843  0.0160 -0.0527
 3612SOL    HW122895   2.326   0.653   7.409  0.2257  0.5803 -0.0290
 3612SOL    HW222896   2.275   0.715   7.267  0.3565  1.5687  0.3474
 3613SOL     OW22897   0.114   5.229   9.464 -0.1780  0.7235  0.3974
 3613SOL    HW122898   0.137   5.245   9.560  1.1756  0.5246  0.1130
 3613SOL    HW222899   0.177   5.280   9.406  1.1109 -1.7201 -0.4316
 3614SOL     OW22900   0.742   3.958   5.659  0.1993 -0.4445  0.9334
 3614SOL    HW122901   0.802   3.899   5.605 -0.2108  0.5025 -0.6035
 3614SOL    HW222902   0.684   3.902   5.719  2.1443 -1.3884  1.9535
 3615SOL     OW22903   3.473   0.461   7.376 -0.0452  0.1898  0.4105
 3615SOL    HW122904   3.512   0.437   7.287  1.7795  0.1491  1.1982
 3615SOL    HW222905   3.441   0.556   7.373 -0.7946 -0.0797 -0.5422
 3616SOL     OW22906   1.855   0.877   1.240 -0.1755 -0.1353 -0.0301
 3616SOL    HW122907   1.797   0.928   1.304  0.6403 -0.4323  0.9751
 3616SOL    HW222908   1.820   0.784   1.229 -0.6807  0.1092 -0.5204
 3617SOL     OW22909   2.568   8.821   8.715 -0.1812 -0.6145 -0.2643
 3617SOL    HW122910   2.524   8.817   8.805 -1.6586 -2.0717 -1.0272
 3617SOL    HW222911   2.664   8.793   8.724 -0.7268 -2.2476  0.6104
 3618SOL     OW22912   3.980   9.788   0.109  0.4215  0.2065  0.0939
 3618SOL    HW122913   4.036   9.855   0.060 -1.1970  1.7979  0.3852
 3618SOL    HW222914   3.899   9.833   0.147 -0.6186 -1.8731  0.4291
 3619SOL     OW22915   3.973   8.763   6.439 -0.2844  0.7129  0.0828
 3619SOL    HW122916   4.004   8.858   6.428 -0.1269  0.6608  0.0799
 3619SOL    HW222917   3.902   8.759   6.509 -0.6950  0.9183 -0.3139
 3620SOL     OW22918   9.080   1.440   6.907 -0.3076 -0.6666  0.5605
 3620SOL    HW122919   8.999   1.416   6.854  0.2631  0.6963 -0.9539
 3620SOL    HW222920   9.056   1.507   6.977 -0.5959 -0.6989  0.4899
 3621SOL     OW22921   9.025   0.770   7.816 -0.4840 -0.3307  0.4450
 3621SOL    HW122922   9.094   0.766   7.744 -0.3461  0.7158  0.5204
 3621SOL    HW222923   8.934   0.755   7.776 -0.4068  0.2438  0.0580
 3622SOL     OW22924   0.124   7.522   8.715 -0.0817 -0.0195 -0.9692
 3622SOL    HW122925   0.154   7.614   8.690 -2.0542  1.0967  0.6677
 3622SOL    HW222926   0.129   7.462   8.634  0.3053  1.7506 -2.2844
 3623SOL     OW22927   1.779   3.935   6.545  0.5398  0.0240 -0.1524
 3623SOL    HW122928   1.707   3.940   6.614 -0.3488 -0.3425 -1.0388
 3623SOL    HW222929   1.812   3.841   6.539  1.2243  0.2282  0.3806
 3624SOL     OW22930   8.502   8.427   8.980  0.1283 -0.6838 -0.4655
 3624SOL    HW122931   8.409   8.460   8.961  0.8021  1.5530 -0.0525
 3624SOL    HW222932   8.502   8.375   9.065 -0.5923  0.0532 -0.0055
 3625SOL     OW22933   9.047   4.666   0.052  0.6192  0.2416 -0.0311
 3625SOL    HW122934   9.147   4.669   0.045  0.4911  1.6108 -1.5379
 3625SOL    HW222935   9.008   4.648  -0.038 -0.5354  0.5730  0.3992
 3626SOL     OW22936   0.991   7.404   7.029 -0.1185 -0.0266  0.0765
 3626SOL    HW122937   0.990   7.386   7.128  0.1305  0.2436  0.1274
 3626SOL    HW222938   0.932   7.481   7.009  0.5652  0.5165  0.1312
 3627SOL     OW22939   2.347   6.193   2.639 -0.0992  0.1185  0.0607
 3627SOL    HW122940   2.316   6.137   2.563  0.3400  1.2997 -1.0020
 3627SOL    HW222941   2.268   6.234   2.685 -0.4373 -1.5708  1.0137
 3628SOL     OW22942   8.704   6.260   8.127  0.5414 -0.4692 -0.8089
 3628SOL    HW122943   8.655   6.344   8.152  1.4351  0.3187 -1.6299
 3628SOL    HW222944   8.691   6.191   8.198 -1.0094  0.0266 -0.5832
 3629SOL     OW22945   8.371   5.594   3.175  0.0871  0.0867  0.3508
 3629SOL    HW122946   8.277   5.586   3.143  0.2837 -0.4302 -0.1051
 3629SOL    HW222947   8.394   5.516   3.233  0.4747 -0.1702 -0.1476
 3630SOL     OW22948   8.587   1.026   9.930  0.3358  0.3060 -0.1900
 3630SOL    HW122949   8.573   0.964   9.852 -0.4635 -2.1304  1.8077
 3630SOL    HW222950   8.683   1.050   9.937  1.0010 -2.2342  0.0264
 3631SOL     OW22951   3.427   7.626   1.999 -0.2843  0.0537 -0.0495
 3631SOL    HW122952   3.486   7.580   1.933 -1.5111  0.5639 -1.5256
 3631SOL    HW222953   3.440   7.585   2.089  1.9009 -0.2061 -0.4521
 3632SOL     OW22954   9.052   9.755   3.138 -0.3211  0.2342 -0.1246
 3632SOL    HW122955   9.135   9.756   3.082 -0.5233  0.1793 -0.4264
 3632SOL    HW222956   9.076   9.771   3.234 -0.1606  2.0231 -0.4465
 3633SOL     OW22957   0.597   0.956   1.264  0.3145  0.4137 -0.0383
 3633SOL    HW122958   0.611   0.866   1.224 -1.0239 -0.4237  1.2952
 3633SOL    HW222959   0.685   1.000   1.281  0.9436 -0.2869 -1.4851
 3634SOL     OW22960   7.336   7.151   8.179 -0.1793 -0.4334 -0.1597
 3634SOL    HW122961   7.413   7.214   8.185 -0.2945 -0.3889  0.9147
 3634SOL    HW222962   7.364   7.061   8.212 -1.0028 -0.0317  1.6905
 3635SOL     OW22963   0.258   4.897   9.159 -0.1520 -0.1399 -0.2012
 3635SOL    HW122964   0.282   4.806   9.192 -1.3956 -0.1715  0.6420
 3635SOL    HW222965   0.196   4.889   9.081  0.3949 -0.0238 -0.6500
 3636SOL     OW22966   6.323   4.410   1.316  0.3758  0.1128 -0.0291
 3636SOL    HW122967   6.270   4.327   1.332  1.8514 -1.0291 -0.8841
 3636SOL    HW222968   6.347   4.452   1.404 -0.3228 -0.3908  0.4072
 3637SOL     OW22969   7.069   8.549   3.985 -0.0170 -0.1744 -0.4987
 3637SOL    HW122970   7.096   8.455   4.005 -0.3618 -0.4868 -1.4813
 3637SOL    HW222971   7.098   8.609   4.060 -0.3853 -1.1614  0.4414
 3638SOL     OW22972   8.462   0.835   0.407 -0.2597 -0.4163  0.0966
 3638SOL    HW122973   8.536   0.900   0.423 -0.6469  0.2103 -0.5931
 3638SOL    HW222974   8.496   0.742   0.420  0.9414 -0.1957 -1.2451
 3639SOL     OW22975   0.209   8.160   9.857  0.1913 -0.8645  0.4953
 3639SOL    HW122976   0.229   8.098   9.781  0.0311  1.7091 -1.7284
 3639SOL    HW222977   0.115   8.145   9.889  0.3828 -2.2139  0.4247
 3640SOL     OW22978   2.872   0.756   4.341  0.0691 -0.1619  0.5755
 3640SOL    HW122979   2.827   0.733   4.427 -1.9198 -0.2898 -0.4721
 3640SOL    HW222980   2.819   0.719   4.264  1.2588  0.8210 -0.7538
 3641SOL     OW22981   8.934   6.385   8.526  0.1835 -0.0899 -0.1703
 3641SOL    HW122982   8.962   6.294   8.557  1.0834 -0.4051 -1.8528
 3641SOL    HW222983   9.015   6.442   8.515 -0.2833  0.5611 -0.2057
 3642SOL     OW22984   6.089   9.332   5.916 -0.6513  0.0850 -0.2656
 3642SOL    HW122985   6.020   9.263   5.893  0.0478 -0.9406  0.6513
 3642SOL    HW222986   6.132   9.366   5.832 -0.3458 -1.2885 -0.6834
 3643SOL     OW22987   6.607   0.728   8.106  0.5997 -0.1252  0.2554
 3643SOL    HW122988   6.597   0.638   8.065  1.3484 -0.0721 -0.0411
 3643SOL    HW222989   6.625   0.796   8.035 -1.7566  0.5654  0.2584
 3644SOL     OW22990   8.227   7.340   7.617  0.3417  0.4166  0.6845
 3644SOL    HW122991   8.165   7.371   7.689 -1.4910 -1.2398 -0.1180
 3644SOL    HW222992   8.306   7.294   7.658 -0.4234 -0.0516  1.6672
 3645SOL     OW22993   8.525   8.690   0.488 -0.1338  0.2338  0.1733
 3645SOL    HW122994   8.481   8.778   0.471  0.6137  0.2123 -2.0756
 3645SOL    HW222995   8.616   8.689   0.446 -0.3569 -1.8038 -0.3354
 3646SOL     OW22996   7.150   8.909   3.123 -0.2997 -0.0804  0.0363
 3646SOL    HW122997   7.069   8.896   3.180 -0.9091 -1.5842 -1.1414
 3646SOL    HW222998   7.122   8.948   3.035  0.3935  0.3541  0.0068
 3647SOL     OW22999   0.038   3.664   0.425 -0.2378 -0.0869  0.8365
 3647SOL    HW123000   0.070   3.657   0.331  0.9893 -0.2060  1.2481
 3647SOL    HW223001  -0.061   3.678   0.426 -0.3741 -0.8516 -0.4490
 3648SOL     OW23002   1.671   0.484   4.591 -0.3728 -0.1845 -0.4455
 3648SOL    HW123003   1.582   0.482   4.636  0.0254  0.6224  0.3916
 3648SOL    HW223004   1.715   0.572   4.607  0.0850 -0.1402 -1.8345
 3649SOL     OW23005   2.614   8.058   4.828 -0.1486 -0.0076 -0.4268
 3649SOL    HW123006   2.590   8.021   4.738 -1.0678  0.6405 -0.4532
 3649SOL    HW223007   2.533   8.098   4.870  0.3157 -0.1919  0.6363
 3650SOL     OW23008   9.725   0.534   9.290 -0.3123 -0.7854 -0.2563
 3650SOL    HW123009   9.669   0.612   9.262 -0.3696 -1.2560 -1.4922
 3650SOL    HW223010   9.687   0.493   9.373 -1.9622 -1.2706 -1.2360
 3651SOL     OW23011   7.836   8.616   9.447 -0.2664 -0.5901 -0.9374
 3651SOL    HW123012   7.869   8.609   9.353  1.6884  1.0258 -0.4029
 3651SOL    HW223013   7.809   8.711   9.466 -0.6847 -0.9070  0.1290
 3652SOL     OW23014   9.506   9.716   5.857  0.1051  0.3107  0.2560
 3652SOL    HW123015   9.568   9.698   5.933  2.2230  0.1445 -1.4558
 3652SOL    HW223016   9.533   9.800   5.811  0.2286 -0.7508 -1.6625
 3653SOL     OW23017   3.195   0.640   7.185  0.1816  0.6395 -0.0483
 3653SOL    HW123018   3.131   0.592   7.125  1.4773  0.3162 -1.1832
 3653SOL    HW223019   3.262   0.690   7.130  0.2340  1.8771  1.1321
 3654SOL     OW23020   7.823   5.026   0.783 -0.2995 -0.7366 -0.3110
 3654SOL    HW123021   7.915   5.007   0.818  0.3956  0.8986 -1.2078
 3654SOL    HW223022   7.799   4.959   0.712 -0.6586 -2.4416  1.3662
 3655SOL     OW23023   3.212   0.746   7.982 -0.1249 -0.1237  0.5294
 3655SOL    HW123024   3.153   0.726   8.060  0.2665  0.0612  0.8796
 3655SOL    HW223025   3.282   0.812   8.010  0.7531 -0.9716  0.3498
 3656SOL     OW23026   6.196   3.089   9.307 -0.3740 -0.0791  0.4420
 3656SOL    HW123027   6.192   3.135   9.396 -0.1608 -0.5204  0.6798
 3656SOL    HW223028   6.103   3.064   9.279 -0.4879  0.4659  0.3240
 3657SOL     OW23029   2.923   9.864   6.845  0.1374  0.0583 -0.7286
 3657SOL    HW123030   2.863   9.932   6.802 -0.5354 -1.1358 -1.6881
 3657SOL    HW223031   2.914   9.776   6.798  1.5922 -0.5071  0.0021
 3658SOL     OW23032   8.698   2.073   4.536 -0.2130  0.7032 -0.1263
 3658SOL    HW123033   8.737   2.019   4.461  1.5651  1.4120  0.2591
 3658SOL    HW223034   8.638   2.015   4.591  0.1977 -0.3953 -0.8134
 3659SOL     OW23035   7.547   5.524   1.421  0.2781  0.4697 -0.3875
 3659SOL    HW123036   7.525   5.469   1.341 -0.0646 -3.2798  2.1820
 3659SOL    HW223037   7.462   5.551   1.467  0.5510 -0.5945  0.7713
 3660SOL     OW23038   1.242   8.262   8.943  0.3963  0.3450  0.3102
 3660SOL    HW123039   1.172   8.249   9.013  1.4601  1.4124  1.5746
 3660SOL    HW223040   1.333   8.251   8.983  1.0256  1.2573 -0.8277
 3661SOL     OW23041   2.197   6.459   1.999  0.3471 -0.1175  0.1154
 3661SOL    HW123042   2.167   6.366   2.021  1.4149 -0.4152  0.3371
 3661SOL    HW223043   2.292   6.457   1.966 -0.2857  0.6432 -1.8522
 3662SOL     OW23044   8.887   2.767   9.295  0.2816  0.1464 -0.3743
 3662SOL    HW123045   8.946   2.686   9.295 -0.4124 -0.3578 -0.2168
 3662SOL    HW223046   8.793   2.740   9.273 -0.1541  0.7648  0.7089
 3663SOL     OW23047   3.933   3.667   0.130  0.0064 -0.5648  0.2228
 3663SOL    HW123048   3.836   3.650   0.114 -0.0820 -0.2277  0.3838
 3663SOL    HW223049   3.982   3.580   0.138  0.1379 -0.7530 -2.3879
 3664SOL     OW23050   4.604   9.190   6.923  0.0774  0.4669 -0.3922
 3664SOL    HW123051   4.640   9.201   6.831  1.1177  0.6609  0.0242
 3664SOL    HW223052   4.635   9.266   6.981  0.9418 -0.5870  0.5631
 3665SOL     OW23053   5.116   8.065   6.150 -0.2212 -0.4101  0.1559
 3665SOL    HW123054   5.024   8.061   6.190  0.7813  0.5182  2.6308
 3665SOL    HW223055   5.167   7.983   6.175 -0.6575 -1.3706 -2.0055
 3666SOL     OW23056   4.858   9.546   3.194  0.1791 -0.0268 -0.4063
 3666SOL    HW123057   4.896   9.477   3.132 -2.2684 -1.4940 -0.3452
 3666SOL    HW223058   4.856   9.635   3.148  2.0406 -0.2610 -0.9967
 3667SOL     OW23059   9.900   4.457   5.875  0.0094  0.9274 -0.4444
 3667SOL    HW123060   9.968   4.521   5.911 -1.0477  2.1137 -0.5045
 3667SOL    HW223061   9.924   4.433   5.781  0.3288  1.3795 -0.4834
 3668SOL     OW23062   1.206   9.387   5.212  0.2244  0.1141 -0.3304
 3668SOL    HW123063   1.111   9.388   5.179 -0.3941  1.3802  1.4145
 3668SOL    HW223064   1.232   9.479   5.240  1.2547 -0.6294  1.2000
 3669SOL     OW23065   0.417   6.092   3.350  0.2641  0.2222 -0.2005
 3669SOL    HW123066   0.474   6.018   3.313 -1.6635 -0.3568 -2.1044
 3669SOL    HW223067   0.383   6.067   3.440 -1.1012 -1.6028 -1.2155
 3670SOL     OW23068   9.630   3.004   9.843  0.3164  0.1842 -0.3716
 3670SOL    HW123069   9.580   3.079   9.800 -1.3938 -1.3931 -1.2055
 3670SOL    HW223070   9.685   2.956   9.774  3.3288  2.1059  0.5950
 3671SOL     OW23071   7.352   9.241   9.539  0.1291 -0.0336 -0.3422
 3671SOL    HW123072   7.348   9.167   9.472  2.0350 -0.8744  0.4356
 3671SOL    HW223073   7.309   9.323   9.501  0.7147 -0.6400 -2.3895
 3672SOL     OW23074   2.297   8.752  10.051 -0.1547  0.0225  0.0911
 3672SOL    HW123075   2.352   8.694   9.991 -2.0477 -0.2986 -1.3742
 3672SOL    HW223076   2.208   8.709  10.066 -0.6677  1.3777  1.0008
 3673SOL     OW23077   3.122   6.104   7.106 -0.0398  0.0082 -0.5699
 3673SOL    HW123078   3.187   6.146   7.170  0.5061 -1.0145 -0.4455
 3673SOL    HW223079   3.036   6.155   7.108  0.0673  0.1603  0.7778
 3674SOL     OW23080   0.449   5.558   6.617 -0.0216 -0.1484  0.3804
 3674SOL    HW123081   0.418   5.650   6.590 -0.0778 -0.0872  0.6546
 3674SOL    HW223082   0.372   5.508   6.657 -0.0691 -0.4244 -0.0502
 3675SOL     OW23083   9.079   4.375   6.518 -0.4367 -0.1048  0.5134
 3675SOL    HW123084   9.128   4.445   6.570 -0.9864 -1.0891  2.3662
 3675SOL    HW223085   9.044   4.416   6.433 -1.7506  2.1567  2.1121
 3676SOL     OW23086   2.216   9.559   4.186  0.2616  0.4465  0.6046
 3676SOL    HW123087   2.206   9.529   4.281  2.2993 -0.3222  0.6063
 3676SOL    HW223088   2.140   9.523   4.132  0.7394 -1.7732  1.3314
 3677SOL     OW23089   8.585   3.025   0.696 -0.4705 -0.1769  0.6674
 3677SOL    HW123090   8.656   2.993   0.633  1.4676  2.8994  1.1768
 3677SOL    HW223091   8.617   3.014   0.790 -0.2459  2.0375  0.8767
 3678SOL     OW23092   7.809   9.380   6.025  0.1062 -0.0531  0.0598
 3678SOL    HW123093   7.889   9.424   5.983  1.4169 -1.0441  1.4679
 3678SOL    HW223094   7.726   9.414   5.981  1.2486  1.5452 -0.9376
 3679SOL     OW23095   9.491   0.727   5.973  0.3949  0.5860  0.4978
 3679SOL    HW123096   9.488   0.699   6.069  0.4180 -1.6463 -0.1363
 3679SOL    HW223097   9.546   0.662   5.921 -1.3379  0.6194 -1.4170
 3680SOL     OW23098   1.950   7.788   5.255 -0.0118  0.2691 -0.3743
 3680SOL    HW123099   1.860   7.769   5.216 -0.0707 -0.1779 -0.0224
 3680SOL    HW223100   2.015   7.720   5.223  0.6945  1.7811 -2.3053
 3681SOL     OW23101   8.856   3.693   3.517 -0.0901 -0.0571  0.2841
 3681SOL    HW123102   8.953   3.670   3.515  0.0854  0.6955 -1.3713
 3681SOL    HW223103   8.830   3.736   3.430 -2.1400 -1.1591  0.3088
 3682SOL     OW23104   8.266   0.828   9.921  0.0677  0.0373  0.1732
 3682SOL    HW123105   8.231   0.804  10.012  1.0363  1.5314  0.9608
 3682SOL    HW223106   8.196   0.807   9.852 -1.9422  1.8893  1.5765
 3683SOL     OW23107   0.896   3.383   2.643  0.1239  1.0164 -0.0552
 3683SOL    HW123108   0.958   3.417   2.713  1.8995  0.0780 -1.1511
 3683SOL    HW223109   0.923   3.419   2.554  1.7927 -2.7813 -1.1945
 3684SOL     OW23110   7.916   4.541   3.365 -0.0522  0.6700 -0.5440
 3684SOL    HW123111   8.006   4.508   3.395 -0.6262 -0.4219  0.0116
 3684SOL    HW223112   7.867   4.466   3.321 -1.1210  0.9783  0.1238
 3685SOL     OW23113   5.560   2.027   1.298 -1.0211 -0.2953 -0.3925
 3685SOL    HW123114   5.596   2.120   1.302  2.5279 -1.5335 -1.4838
 3685SOL    HW223115   5.592   1.975   1.377 -1.4730 -1.0608 -0.7056
 3686SOL     OW23116   8.180   0.431   1.835 -0.1069 -0.3788 -0.2043
 3686SOL    HW123117   8.148   0.501   1.899  0.6842 -0.6254  0.4559
 3686SOL    HW223118   8.227   0.475   1.758  1.2690 -0.2520  0.7127
 3687SOL     OW23119   8.749   7.671   2.611  0.1983  0.1348 -0.0862
 3687SOL    HW123120   8.840   7.638   2.588  0.6794  2.1422 -1.1711
 3687SOL    HW223121   8.753   7.767   2.638 -1.2280 -0.5000  2.6036
 3688SOL     OW23122   3.416   5.822   0.825  0.1310  0.2475 -0.1889
 3688SOL    HW123123   3.494   5.793   0.880 -0.8090 -0.0577  1.0026
 3688SOL    HW223124   3.409   5.922   0.827  1.1579  0.3581 -1.2477
 3689SOL     OW23125   0.865   1.154   6.112  0.0095  0.3348 -0.3049
 3689SOL    HW123126   0.820   1.213   6.046 -0.5371  1.3842  0.9809
 3689SOL    HW223127   0.811   1.071   6.126  0.4148 -0.1471 -1.5809
 3690SOL     OW23128   3.076   6.586   2.778  0.4014  0.3460  0.0620
 3690SOL    HW123129   3.039   6.608   2.868  1.4088 -0.5593  0.7029
 3690SOL    HW223130   3.005   6.599   2.709 -0.2282  1.5441  0.9161
 3691SOL     OW23131   2.607   8.337   1.480 -0.1917  0.2178 -0.0672
 3691SOL    HW123132   2.655   8.343   1.567 -1.0943 -0.4689  0.4827
 3691SOL    HW223133   2.664   8.288   1.413 -0.1712 -0.6867  0.6069
 3692SOL     OW23134   6.221   7.960   7.124  0.6305 -0.0597 -0.5780
 3692SOL    HW123135   6.209   7.901   7.204 -0.2610  0.3070 -0.4235
 3692SOL    HW223136   6.132   7.973   7.079  0.8312  1.0499 -0.6815
 3693SOL     OW23137   1.271   6.788   0.596  0.3298 -0.0175  0.1570
 3693SOL    HW123138   1.340   6.786   0.524  1.7296  0.2956  1.4603
 3693SOL    HW223139   1.208   6.863   0.580  1.1044  0.5408 -0.3138
 3694SOL     OW23140   3.333   4.239   4.136  0.2752 -0.0427 -0.2426
 3694SOL    HW123141   3.406   4.261   4.071 -0.4649  0.4808 -0.9155
 3694SOL    HW223142   3.299   4.147   4.119  0.3038 -0.0274 -0.3866
 3695SOL     OW23143   4.738   1.208   0.101 -0.0879  0.2446  0.4961
 3695SOL    HW123144   4.650   1.188   0.144 -0.6134  0.3181 -0.5107
 3695SOL    HW223145   4.807   1.145   0.134 -0.6492 -0.1564  0.9005
 3696SOL     OW23146   9.464   5.794   9.370  0.9689 -0.1270 -0.1299
 3696SOL    HW123147   9.447   5.777   9.467  1.9205 -1.7304 -0.2216
 3696SOL    HW223148   9.460   5.892   9.352 -0.3966  0.0947  1.2955
 3697SOL     OW23149   7.203   9.388   3.049  0.0797  0.3526  0.0953
 3697SOL    HW123150   7.286   9.336   3.067 -0.9487 -1.0155  0.9244
 3697SOL    HW223151   7.140   9.334   2.993  0.1923  1.8008 -1.4792
 3698SOL     OW23152   4.439   6.147   2.122 -0.5651 -0.6480 -0.2648
 3698SOL    HW123153   4.468   6.070   2.064 -0.3798 -0.1627 -0.8218
 3698SOL    HW223154   4.377   6.205   2.070  0.2634  0.2554 -0.2526
 3699SOL     OW23155   9.672   7.039   6.700  0.2477  0.3835 -0.2848
 3699SOL    HW123156   9.748   7.100   6.722 -0.8108  1.6146  0.0220
 3699SOL    HW223157   9.592   7.093   6.674 -1.4290 -0.7877  2.2734
 3700SOL     OW23158   9.884   5.694   0.372  0.5720 -0.0846 -0.2929
 3700SOL    HW123159   9.983   5.710   0.372  0.1798  2.7009  1.3947
 3700SOL    HW223160   9.839   5.765   0.317 -0.6523  0.1042  0.9077
 3701SOL     OW23161   7.494   6.201   1.135  0.1715 -0.0648  0.8066
 3701SOL    HW123162   7.549   6.118   1.123 -3.0082 -2.1547 -0.1101
 3701SOL    HW223163   7.409   6.178   1.182 -0.6577  2.7421  0.7624
 3702SOL     OW23164   7.787   5.149   4.766 -0.0256 -0.2673  0.2390
 3702SOL    HW123165   7.822   5.205   4.691 -0.5066  0.4489  0.5425
 3702SOL    HW223166   7.764   5.058   4.732  1.5856 -0.5774 -0.0855
 3703SOL     OW23167   0.496   3.745   6.450  0.1303  0.1908  0.3720
 3703SOL    HW123168   0.553   3.763   6.530 -1.7589  1.5374  1.4667
 3703SOL    HW223169   0.516   3.655   6.413 -0.5576 -1.3924  3.7411
 3704SOL     OW23170   2.270   6.396   7.113  0.4892 -0.5663 -0.2468
 3704SOL    HW123171   2.212   6.472   7.084  1.2604 -0.5212 -1.7146
 3704SOL    HW223172   2.293   6.339   7.034  1.7272 -1.0797  0.4600
 3705SOL     OW23173   4.292   3.798   2.583  0.4752 -0.0278  0.6216
 3705SOL    HW123174   4.362   3.841   2.641  2.4590 -2.1730 -0.1016
 3705SOL    HW223175   4.249   3.723   2.633 -0.3207  0.3814  0.5582
 3706SOL     OW23176   2.080   7.142   2.162 -0.1142 -0.2373 -0.1566
 3706SOL    HW123177   2.159   7.098   2.121 -1.0346 -0.3665 -1.8368
 3706SOL    HW223178   2.018   7.072   2.200 -0.1398 -0.2200 -0.1657
 3707SOL     OW23179   2.592   9.331   4.662  0.2417  0.5003  0.4243
 3707SOL    HW123180   2.511   9.294   4.615  0.4213  2.5374 -1.6198
 3707SOL    HW223181   2.603   9.286   4.750 -1.3965 -1.9311 -0.5520
 3708SOL     OW23182   0.867   5.988   7.544 -0.3674  0.0475 -0.1917
 3708SOL    HW123183   0.808   5.988   7.625 -0.4064  1.3037 -0.2012
 3708SOL    HW223184   0.895   6.082   7.523 -1.1998 -0.1398 -2.2606
 3709SOL     OW23185   8.741   9.247   4.040  0.1640 -0.0752 -0.6385
 3709SOL    HW123186   8.667   9.184   4.066 -1.3126  2.5400  1.7558
 3709SOL    HW223187   8.814   9.241   4.108  1.1578 -0.9905 -1.7734
 3710SOL     OW23188   2.945   6.024   1.023 -0.6097 -0.7879  0.1487
 3710SOL    HW123189   2.876   5.958   0.993  0.6359 -2.5049  1.0000
 3710SOL    HW223190   3.019   6.028   0.957 -1.0567  0.3499 -0.2888
 3711SOL     OW23191   8.516   2.059   6.072 -0.6778  0.3832 -0.3908
 3711SOL    HW123192   8.434   2.078   6.127 -0.9528  1.3906 -1.1204
 3711SOL    HW223193   8.523   2.127   5.999  1.4980  1.0494  0.4102
 3712SOL     OW23194   4.489   8.868   2.058  0.0772  0.6346  0.2644
 3712SOL    HW123195   4.536   8.907   2.136 -0.3319 -1.9422  1.8718
 3712SOL    HW223196   4.556   8.835   1.992  0.4765  0.1981  0.8861
 3713SOL     OW23197   2.959   3.111   2.808  0.2736 -0.1150 -0.8603
 3713SOL    HW123198   2.923   3.017   2.805 -1.2969  0.4360  0.1315
 3713SOL    HW223199   2.885   3.175   2.788  1.1785  0.9485 -0.7906
 3714SOL     OW23200   1.009   9.523   5.765  0.1580  0.4587 -0.8396
 3714SOL    HW123201   0.996   9.496   5.670 -0.8831  0.6441 -0.7489
 3714SOL    HW223202   0.921   9.545   5.807  0.7389  1.6200 -0.1972
 3715SOL     OW23203   1.310   5.919   7.947 -0.1432  0.6147  0.6618
 3715SOL    HW123204   1.339   5.874   8.032  0.6069 -2.1772 -0.9777
 3715SOL    HW223205   1.386   5.973   7.911  1.1586 -1.8997 -0.5377
 3716SOL     OW23206   2.361   2.268   0.381  0.5533 -0.3011 -0.9525
 3716SOL    HW123207   2.280   2.325   0.386  0.6113 -0.3947  1.1819
 3716SOL    HW223208   2.334   2.174   0.357  0.0519 -0.3023 -0.3843
 3717SOL     OW23209   3.677   5.219   8.186  0.0202 -0.0278 -0.5688
 3717SOL    HW123210   3.605   5.183   8.246  0.6831 -0.0270  0.2266
 3717SOL    HW223211   3.675   5.319   8.188  1.1892 -0.0115  0.8565
 3718SOL     OW23212   1.464   4.696   2.596  0.3486 -0.0552  0.1739
 3718SOL    HW123213   1.527   4.747   2.537  1.9183  0.2017  2.0089
 3718SOL    HW223214   1.478   4.598   2.583  0.6828  0.0018  0.0840
 3719SOL     OW23215   3.427   6.210   2.532  0.0201 -0.5918 -0.0150
 3719SOL    HW123216   3.392   6.218   2.439  2.4108 -2.2861 -1.1256
 3719SOL    HW223217   3.469   6.296   2.560 -1.6652  0.2619 -0.0759
 3720SOL     OW23218   8.634   0.986   2.088 -0.0786 -0.5006 -0.4582
 3720SOL    HW123219   8.591   1.019   2.004 -1.4803  1.0797  0.8477
 3720SOL    HW223220   8.663   1.064   2.144  1.2987 -1.5333  0.3145
 3721SOL     OW23221   9.298   3.148   2.463  0.0256  0.1847  0.2348
 3721SOL    HW123222   9.332   3.233   2.503  1.4339 -0.2796  0.0699
 3721SOL    HW223223   9.206   3.162   2.427  1.2414  2.3444 -2.1180
 3722SOL     OW23224   4.278   1.345   9.023 -0.2513  0.0838 -0.0694
 3722SOL    HW123225   4.366   1.299   9.007 -0.9635 -1.2575 -0.1327
 3722SOL    HW223226   4.285   1.399   9.107  1.5355  2.2749 -1.5478
 3723SOL     OW23227   9.228   2.609   0.929 -0.0415 -0.0851 -0.0250
 3723SOL    HW123228   9.219   2.577   0.834 -1.7913 -2.3211  0.8403
 3723SOL    HW223229   9.138   2.627   0.967  0.5155 -1.0024  1.7880
 3724SOL     OW23230   7.190   0.874   5.591  0.0688  0.1600  0.7209
 3724SOL    HW123231   7.173   0.846   5.685  0.5956 -0.3623  0.6625
 3724SOL    HW223232   7.145   0.810   5.528  0.1441  0.2117  0.6126
 3725SOL     OW23233   8.045   0.501   0.263 -0.0575  0.7111 -0.1846
 3725SOL    HW123234   8.053   0.408   0.228 -1.6128  0.2437  0.6466
 3725SOL    HW223235   7.949   0.520   0.287  0.4861  2.0115  1.0379
 3726SOL     OW23236   5.910   5.081   9.575 -0.0005 -0.5603  0.0603
 3726SOL    HW123237   5.984   5.032   9.622  1.9240  1.5820 -0.6164
 3726SOL    HW223238   5.942   5.111   9.485 -1.7293  0.3573 -0.2664
 3727SOL     OW23239   3.540   4.439   6.006 -0.7320 -0.3492  0.4152
 3727SOL    HW123240   3.486   4.389   5.938 -0.8184 -0.5043  0.5927
 3727SOL    HW223241   3.637   4.424   5.989 -0.7656 -1.4326  1.0780
 3728SOL     OW23242   7.374   9.983   4.796  0.0617  0.1245 -0.4187
 3728SOL    HW123243   7.371  10.075   4.756 -2.8518 -0.4163 -1.5334
 3728SOL    HW223244   7.426   9.986   4.881 -1.2492  3.1296  0.3411
 3729SOL     OW23245   4.382   5.790   9.247  0.1367  0.3047  0.2066
 3729SOL    HW123246   4.472   5.768   9.207 -0.2453  1.4348 -1.2977
 3729SOL    HW223247   4.381   5.886   9.275 -1.1377  0.7487 -1.2911
 3730SOL     OW23248   2.178   3.222   3.979  0.0430  0.2824  1.1347
 3730SOL    HW123249   2.231   3.237   3.896 -0.7374  0.6351  0.6961
 3730SOL    HW223250   2.145   3.128   3.981 -1.2109  0.6914  0.2927
 3731SOL     OW23251   6.432   4.362   0.172  0.0539 -0.4537  0.3180
 3731SOL    HW123252   6.517   4.379   0.222 -0.9894  0.2697  1.8676
 3731SOL    HW223253   6.452   4.309   0.089  2.2070  0.9693 -0.0960
 3732SOL     OW23254   0.458   8.842   7.073  0.0085 -0.5087  0.1302
 3732SOL    HW123255   0.465   8.743   7.082 -1.5467 -0.7984 -1.5469
 3732SOL    HW223256   0.542   8.877   7.031 -0.4062 -1.4399 -1.5278
 3733SOL     OW23257   0.140   2.808   2.953 -0.4859  0.0003  0.2025
 3733SOL    HW123258   0.138   2.885   3.016 -1.1847 -0.8379  1.2238
 3733SOL    HW223259   0.097   2.835   2.867  1.8793  1.6339 -0.5290
 3734SOL     OW23260   1.685   0.440   4.311 -0.1614 -1.0544 -0.3237
 3734SOL    HW123261   1.658   0.445   4.407 -2.6376 -0.2549 -1.0148
 3734SOL    HW223262   1.719   0.348   4.291  1.7223 -0.8325  1.6103
 3735SOL     OW23263   6.096   1.437   1.353 -0.3782  0.4061 -0.0503
 3735SOL    HW123264   6.080   1.354   1.299  1.6927  1.1985 -1.9387
 3735SOL    HW223265   6.146   1.412   1.436 -1.1574 -0.4302  0.1877
 3736SOL     OW23266   0.910   1.316   3.183  0.0972  0.0773 -0.4256
 3736SOL    HW123267   0.937   1.225   3.151 -0.8223 -0.8649  1.3970
 3736SOL    HW223268   0.825   1.309   3.235 -0.1139  2.0234 -0.4834
 3737SOL     OW23269   9.850   7.397   5.589  0.4094  0.0698 -0.4890
 3737SOL    HW123270   9.809   7.346   5.512 -2.0346  0.2707  0.6171
 3737SOL    HW223271   9.875   7.333   5.661 -0.0816  0.1583 -0.2369
 3738SOL     OW23272   9.144   1.876   9.545  0.2340  0.4240  0.4889
 3738SOL    HW123273   9.116   1.794   9.496  0.2271  0.4365  0.4712
 3738SOL    HW223274   9.066   1.937   9.555  0.7600  1.5076 -1.6293
 3739SOL     OW23275   0.871   2.638   6.144 -0.2910 -0.3737  0.1819
 3739SOL    HW123276   0.795   2.588   6.103 -0.8870  0.3864  0.3585
 3739SOL    HW223277   0.836   2.712   6.201  0.5999  0.6831 -0.6268
 3740SOL     OW23278   1.100   7.848   6.182 -0.4735 -0.0959 -0.1807
 3740SOL    HW123279   1.176   7.856   6.247 -1.0685  1.4194  0.3601
 3740SOL    HW223280   1.133   7.869   6.090 -0.1458  0.1147 -0.0155
 3741SOL     OW23281   9.947   4.920   0.620  0.5107 -0.7296  0.0290
 3741SOL    HW123282   9.917   4.860   0.694  0.3649 -1.4147 -0.5802
 3741SOL    HW223283   9.873   4.933   0.554 -0.5814  2.8249  1.8333
 3742SOL     OW23284   9.361   1.339   8.792  0.1906  0.5457 -0.1447
 3742SOL    HW123285   9.374   1.438   8.789 -3.1167  1.0980  1.0516
 3742SOL    HW223286   9.415   1.300   8.867  1.9346  1.3344 -0.9716
 3743SOL     OW23287   0.014   8.869   0.961 -0.3251 -0.1149 -0.2611
 3743SOL    HW123288   0.040   8.777   0.930 -0.9899 -0.2965 -0.2821
 3743SOL    HW223289  -0.044   8.913   0.893 -0.7692 -0.0395  0.1597
 3744SOL     OW23290   9.151   3.802   3.936  0.0828  0.3016  0.3290
 3744SOL    HW123291   9.106   3.873   3.882 -0.6664 -0.2788  0.1874
 3744SOL    HW223292   9.097   3.783   4.018  0.4599  0.1422  0.5410
 3745SOL     OW23293   0.940   8.469   3.289 -0.1355  0.1495 -0.4759
 3745SOL    HW123294   0.849   8.481   3.328  0.9929  2.0649  1.7119
 3745SOL    HW223295   0.987   8.557   3.288  1.8692 -0.8977 -1.1734
 3746SOL     OW23296   5.701   5.447   8.117 -0.1835 -0.5307  0.0447
 3746SOL    HW123297   5.773   5.492   8.169 -0.5031 -0.8039  0.7240
 3746SOL    HW223298   5.674   5.505   8.040  1.9010 -1.1586 -1.1743
 3747SOL     OW23299   8.602   2.080   2.968  0.0838 -0.2571  0.0994
 3747SOL    HW123300   8.552   2.010   2.916  0.9288 -0.2322 -0.7598
 3747SOL    HW223301   8.541   2.121   3.036 -1.4635  0.6580 -1.7878
 3748SOL     OW23302   1.034   1.926   3.583  0.0785  0.0577  0.1819
 3748SOL    HW123303   1.107   1.860   3.564 -0.1978 -0.1501 -0.1615
 3748SOL    HW223304   0.985   1.946   3.498 -1.3052 -1.0351  0.6968
 3749SOL     OW23305   9.070   8.156   1.804 -0.0114 -0.1898  0.2385
 3749SOL    HW123306   9.138   8.167   1.878  1.3502 -3.7622 -0.3794
 3749SOL    HW223307   9.118   8.142   1.718 -1.5747 -1.7326 -0.3801
 3750SOL     OW23308   1.947   9.156   5.938 -0.1716  0.8372 -0.5728
 3750SOL    HW123309   1.987   9.226   5.998 -0.4173  0.5484 -0.0687
 3750SOL    HW223310   1.853   9.139   5.966  0.0530 -0.0732 -0.3649
 3751SOL     OW23311   8.715   0.047   1.961  0.8888 -0.2608 -0.2035
 3751SOL    HW123312   8.669   0.067   1.874  1.4355  1.2377 -0.1563
 3751SOL    HW223313   8.726  -0.052   1.970 -1.5939 -0.6089 -0.5860
 3752SOL     OW23314   3.681   2.582   1.991 -0.0186 -0.3303 -0.2331
 3752SOL    HW123315   3.723   2.510   2.047  0.1735  1.2777  1.7099
 3752SOL    HW223316   3.709   2.671   2.024 -2.1367  0.7192 -1.1719
 3753SOL     OW23317   2.102   2.797   9.143  0.3553 -1.2091  0.1197
 3753SOL    HW123318   2.091   2.705   9.181  1.2420 -0.3751  2.4435
 3753SOL    HW223319   2.187   2.837   9.177 -0.7237  1.0216  0.2713
 3754SOL     OW23320   7.306   4.740   2.659 -0.2176  0.5035 -0.2987
 3754SOL    HW123321   7.328   4.831   2.694  2.5373  0.4691 -1.8370
 3754SOL    HW223322   7.291   4.677   2.735  2.4184  1.1950  0.8177
 3755SOL     OW23323   9.972   2.042   2.822  0.4538  0.2344  0.0710
 3755SOL    HW123324   9.975   2.136   2.856 -0.1902  0.6454 -1.0067
 3755SOL    HW223325   9.923   2.039   2.735 -0.0841 -1.1999  0.4106
 3756SOL     OW23326   1.177   0.714   1.944  0.8133  0.3224 -1.0761
 3756SOL    HW123327   1.255   0.657   1.970  0.2278 -0.9055 -1.9853
 3756SOL    HW223328   1.198   0.810   1.965  1.4885 -0.2969  1.1717
 3757SOL     OW23329   4.740   2.975   6.105  0.2997 -0.3778  0.0448
 3757SOL    HW123330   4.831   2.938   6.085  1.0409  0.6354  1.4751
 3757SOL    HW223331   4.671   2.906   6.084  1.5856 -2.2514  1.7727
 3758SOL     OW23332   8.091   2.277   4.381  0.0308  0.2411  0.1223
 3758SOL    HW123333   8.057   2.190   4.343  1.0245  0.1455 -0.5631
 3758SOL    HW223334   8.160   2.258   4.451  0.3648  0.4819 -0.1413
 3759SOL     OW23335   1.350   5.011   6.412 -0.2192  0.3136  0.2720
 3759SOL    HW123336   1.374   5.105   6.438 -1.1546  0.1950  1.6288
 3759SOL    HW223337   1.347   5.004   6.313  0.8170  1.4733  0.1395
 3760SOL     OW23338   9.099   1.239   4.638 -0.1921 -0.3740  0.4599
 3760SOL    HW123339   9.155   1.232   4.720 -2.3054  2.3052  2.1878
 3760SOL    HW223340   9.138   1.308   4.577  1.1439 -2.0757 -0.6786
 3761SOL     OW23341   9.119   0.834   8.610  0.1049  0.2884  0.4946
 3761SOL    HW123342   9.030   0.842   8.565  0.8965 -0.2768 -1.2067
 3761SOL    HW223343   9.185   0.891   8.562  0.3021  2.0193  2.7639
 3762SOL     OW23344   0.524   0.144   3.580 -0.6801 -0.5097  0.1717
 3762SOL    HW123345   0.600   0.128   3.517  0.8694  1.6580  1.4323
 3762SOL    HW223346   0.448   0.083   3.557 -0.1122  0.1178 -3.7048
 3763SOL     OW23347   5.223   7.547   5.311  0.2095  0.2730  0.2695
 3763SOL    HW123348   5.154   7.475   5.319  0.8682 -0.3594  0.3623
 3763SOL    HW223349   5.288   7.524   5.238  0.3187  0.8681  0.1716
 3764SOL     OW23350   2.270   0.123   2.569  0.0069 -0.6559 -0.0407
 3764SOL    HW123351   2.358   0.093   2.608 -0.2532 -1.5271 -0.1012
 3764SOL    HW223352   2.199   0.118   2.639  0.0911  0.5122  0.1400
 3765SOL     OW23353   3.505   9.789   8.266  0.2458 -0.1300  0.1959
 3765SOL    HW123354   3.514   9.710   8.205  1.2003  0.6463 -0.7084
 3765SOL    HW223355   3.493   9.872   8.211  0.3917  0.4978  1.0966
 3766SOL     OW23356   4.006   7.316   2.356 -0.6467 -0.0504 -0.1488
 3766SOL    HW123357   3.941   7.322   2.432  0.5684  1.6743  0.7866
 3766SOL    HW223358   3.976   7.376   2.282  0.3834  1.5671  0.7052
 3767SOL     OW23359   3.318   4.685   7.590  0.0185  0.6856  0.0348
 3767SOL    HW123360   3.406   4.713   7.627  0.0110  2.6073 -1.3642
 3767SOL    HW223361   3.245   4.719   7.650  0.1922 -0.5916  0.9931
 3768SOL     OW23362   2.265   6.763   4.733 -0.1907 -0.3305  0.0243
 3768SOL    HW123363   2.283   6.857   4.703 -0.4527 -0.3398 -0.1561
 3768SOL    HW223364   2.333   6.702   4.692 -0.0431 -0.2264  0.1112
 3769SOL     OW23365   6.711   1.175   7.175 -0.1175  0.3993  0.3290
 3769SOL    HW123366   6.652   1.253   7.155  0.3052  0.8706  0.9021
 3769SOL    HW223367   6.699   1.105   7.105  0.2283  1.3845 -0.7237
 3770SOL     OW23368   3.015   6.855   2.182  0.4923  0.1910 -0.3544
 3770SOL    HW123369   3.060   6.767   2.200 -0.8155 -0.2422  0.8144
 3770SOL    HW223370   2.925   6.856   2.224 -1.0692  0.6728 -3.5240
 3771SOL     OW23371   1.769   7.973   4.060  0.2098  0.0788 -0.3940
 3771SOL    HW123372   1.859   7.997   4.097  0.6252 -0.0886 -1.2963
 3771SOL    HW223373   1.772   7.881   4.021 -0.0840  0.4576 -1.3225
 3772SOL     OW23374   3.788   1.307   2.355 -0.0721 -0.1756  0.1820
 3772SOL    HW123375   3.810   1.219   2.312 -1.2467 -0.9117  1.0716
 3772SOL    HW223376   3.713   1.294   2.420  1.3439  1.0226  2.0943
 3773SOL     OW23377   0.650   3.358   0.501 -0.0146 -0.1687 -0.9442
 3773SOL    HW123378   0.606   3.269   0.512  1.1662 -0.5469  0.9195
 3773SOL    HW223379   0.589   3.430   0.536  0.5911 -0.6384  1.1418
 3774SOL     OW23380   4.251   9.948   1.034  0.2225  0.3148  0.7446
 3774SOL    HW123381   4.174   9.896   1.068 -0.6686  0.5554 -0.8509
 3774SOL    HW223382   4.310   9.975   1.110 -0.6355 -0.8658  1.8386
 3775SOL     OW23383   6.386   8.588   3.824  0.6288 -0.0465 -0.1369
 3775SOL    HW123384   6.311   8.525   3.803  1.9772 -1.4170 -0.8666
 3775SOL    HW223385   6.390   8.603   3.923 -1.1605  0.7533 -0.1561
 3776SOL     OW23386   9.761   9.296   5.225 -0.2570 -0.3183  0.9200
 3776SOL    HW123387   9.793   9.223   5.164 -1.3476 -0.1716  0.1672
 3776SOL    HW223388   9.751   9.259   5.317  2.3267 -0.3075  1.2451
 3777SOL     OW23389   1.328   8.539   1.842  0.2551  0.2284  0.5820
 3777SOL    HW123390   1.359   8.555   1.748  1.4008 -2.1493  0.5351
 3777SOL    HW223391   1.245   8.592   1.858 -0.3651  0.1393 -2.0070
 3778SOL     OW23392   2.720   5.973   5.883 -0.5836  0.3716 -0.3342
 3778SOL    HW123393   2.729   6.065   5.921 -1.9581 -0.0605  1.0856
 3778SOL    HW223394   2.625   5.957   5.855 -0.3161 -0.5545 -0.7450
 3779SOL     OW23395   0.919   6.770   3.177  0.0539 -0.1025 -0.1659
 3779SOL    HW123396   0.893   6.815   3.091  0.0374  1.7811  0.7899
 3779SOL    HW223397   0.949   6.839   3.243  1.1651 -1.6350  0.9725
 3780SOL     OW23398   3.648   7.335   7.953  0.2294  0.2058  0.1799
 3780SOL    HW123399   3.744   7.322   7.926  0.6590  0.6693  1.4344
 3780SOL    HW223400   3.593   7.260   7.918  0.9911  0.1103 -0.8485
 3781SOL     OW23401   8.977   1.655   8.521 -0.0008 -0.2970 -0.0406
 3781SOL    HW123402   9.048   1.725   8.513 -0.1911 -0.2090 -0.9468
 3781SOL    HW223403   8.946   1.628   8.430 -2.4420  0.9954  0.3776
 3782SOL     OW23404   9.444   3.130   2.886 -0.0177 -0.2643  0.1678
 3782SOL    HW123405   9.502   3.091   2.958  0.5814 -0.3819 -0.3717
 3782SOL    HW223406   9.444   3.230   2.893  2.7425 -0.0893 -1.7012
 3783SOL     OW23407   2.242   2.539   4.337  0.3011 -0.6685 -0.1060
 3783SOL    HW123408   2.185   2.483   4.276  0.5677 -0.1658 -0.8266
 3783SOL    HW223409   2.201   2.630   4.347 -0.1327 -0.9803  1.0613
 3784SOL     OW23410   9.240   3.338   9.466 -0.6520  0.0112  0.5766
 3784SOL    HW123411   9.207   3.244   9.476 -3.0401  0.5587 -1.6793
 3784SOL    HW223412   9.307   3.341   9.391 -2.0427  0.4284 -0.6669
 3785SOL     OW23413   9.006   0.399   1.360  0.2503  0.1201  0.5438
 3785SOL    HW123414   9.054   0.453   1.292 -1.4062  1.5511  0.4921
 3785SOL    HW223415   8.908   0.402   1.344 -0.0889 -0.5169  2.2699
 3786SOL     OW23416   1.824   2.171   4.825 -0.3612  0.2702  0.1138
 3786SOL    HW123417   1.732   2.135   4.809 -1.1227  2.0467  0.4404
 3786SOL    HW223418   1.863   2.202   4.739  0.5311 -1.8159 -0.2689
 3787SOL     OW23419   4.176   8.949   4.697 -0.2395 -0.1598 -0.1428
 3787SOL    HW123420   4.201   8.853   4.712  0.1545 -0.5711 -3.1015
 3787SOL    HW223421   4.236   8.989   4.628  0.2080  2.5312  1.7270
 3788SOL     OW23422   3.666   9.291   4.774  0.2488 -0.1964 -0.2175
 3788SOL    HW123423   3.585   9.234   4.760 -0.4757  0.7462  0.1095
 3788SOL    HW223424   3.720   9.254   4.849  0.4356 -1.1784 -0.8330
 3789SOL     OW23425   3.062   9.667   8.113  0.4328  0.1371  0.7824
 3789SOL    HW123426   3.102   9.623   8.032  0.6728 -0.3176  1.1518
 3789SOL    HW223427   2.963   9.657   8.111  0.5629 -1.3880  1.4322
 3790SOL     OW23428   6.579   4.813   8.080  0.6275 -0.7486 -0.2897
 3790SOL    HW123429   6.539   4.780   8.166  3.4507 -0.0350  1.3753
 3790SOL    HW223430   6.512   4.870   8.032 -1.3953 -2.0951  0.8576
 3791SOL     OW23431   9.000   2.256   0.060  0.0114 -0.2128  0.7968
 3791SOL    HW123432   8.998   2.309  -0.024 -1.7665 -0.8345  0.4140
 3791SOL    HW223433   9.015   2.317   0.138 -0.8571  0.7136  0.2529
 3792SOL     OW23434   8.808   9.560   7.985 -0.2387  0.0242 -0.4578
 3792SOL    HW123435   8.869   9.486   8.010 -0.2591  0.2754  0.3615
 3792SOL    HW223436   8.742   9.576   8.059  1.1573  2.3007  0.3307
 3793SOL     OW23437   3.725   1.831   0.591  0.0096 -0.9046  0.1573
 3793SOL    HW123438   3.629   1.804   0.600  0.0173 -0.5873  1.2774
 3793SOL    HW223439   3.781   1.750   0.575 -0.4027 -1.1290 -0.1645
 3794SOL     OW23440   3.215   7.975   9.858 -0.3018 -0.2120 -0.2629
 3794SOL    HW123441   3.195   8.067   9.891  1.8199  0.3046 -0.3265
 3794SOL    HW223442   3.266   7.924   9.928 -1.5790 -1.4043 -0.1702
 3795SOL     OW23443   3.659   0.507   9.951 -0.2890 -0.6626 -0.4725
 3795SOL    HW123444   3.568   0.546   9.937  0.4422  0.9599 -0.7293
 3795SOL    HW223445   3.715   0.522   9.869  0.9648  0.4276  0.5742
 3796SOL     OW23446   1.489   9.891   7.436 -0.0253 -0.3882 -0.2216
 3796SOL    HW123447   1.462   9.824   7.367  0.2185 -0.1404 -0.5610
 3796SOL    HW223448   1.512   9.977   7.391 -0.4769 -0.0279  0.2223
 3797SOL     OW23449   2.732   6.030   1.703 -0.3372  0.3337  0.3614
 3797SOL    HW123450   2.714   6.049   1.606  1.3689  1.7085  0.2775
 3797SOL    HW223451   2.782   5.944   1.711 -1.4665 -0.3538  0.1206
 3798SOL     OW23452   5.476   8.133   6.145  0.1745  0.1235  0.1394
 3798SOL    HW123453   5.570   8.161   6.124  0.2008 -0.4385 -0.5131
 3798SOL    HW223454   5.413   8.177   6.081  0.0619 -0.0638  0.1234
 3799SOL     OW23455   7.623   4.349   3.715 -0.2328  0.0946  0.2796
 3799SOL    HW123456   7.557   4.316   3.781  0.0187  0.6251  0.7989
 3799SOL    HW223457   7.632   4.449   3.723 -0.3063  0.1824 -0.6435
 3800SOL     OW23458   5.931   5.066   8.072 -0.6147  0.2164 -0.2030
 3800SOL    HW123459   5.975   5.021   7.995  1.7463  0.9408  0.6689
 3800SOL    HW223460   5.839   5.093   8.047 -1.5722 -3.7399 -1.2151
 3801SOL     OW23461   0.059   1.386   4.259  0.0838 -0.3478  0.3838
 3801SOL    HW123462   0.021   1.386   4.352  2.1950 -1.5557  1.2655
 3801SOL    HW223463  -0.007   1.343   4.197 -2.0081  1.8436  1.0102
 3802SOL     OW23464   4.210   6.394   2.195 -0.0108  0.6034 -0.0165
 3802SOL    HW123465   4.230   6.318   2.258  1.8812  0.3298 -0.9023
 3802SOL    HW223466   4.250   6.374   2.106 -0.7245  2.0189 -0.6635
 3803SOL     OW23467   5.410   8.637   8.489 -0.3285  0.0580  0.1574
 3803SOL    HW123468   5.411   8.538   8.501  0.6973 -0.1901 -1.7451
 3803SOL    HW223469   5.382   8.659   8.395 -0.9366  1.5793  0.6840
 3804SOL     OW23470   7.233   3.654   0.271 -0.4885  0.2055  0.2768
 3804SOL    HW123471   7.239   3.723   0.199  0.7007 -0.4556 -0.2752
 3804SOL    HW223472   7.195   3.570   0.233 -1.8835  0.5375  0.9335
 3805SOL     OW23473   5.010   4.015   2.712 -0.5044 -0.0210  0.4205
 3805SOL    HW123474   4.954   4.063   2.645  2.1280  1.7845 -0.5405
 3805SOL    HW223475   4.999   4.058   2.802 -0.2160  0.6764  0.1179
 3806SOL     OW23476   8.511   2.069   7.108 -0.3371 -0.0028 -0.5907
 3806SOL    HW123477   8.588   2.115   7.064 -0.2369  1.3812  0.9540
 3806SOL    HW223478   8.454   2.025   7.039  1.1326  0.0677 -1.8603
 3807SOL     OW23479   2.188   5.273   5.495 -0.5957 -0.1639 -0.7000
 3807SOL    HW123480   2.177   5.183   5.536 -1.8105 -0.5028 -1.7100
 3807SOL    HW223481   2.198   5.263   5.396 -1.3451  0.8297 -0.8890
 3808SOL     OW23482   2.263   7.792   6.022  0.5360 -0.1820  0.2654
 3808SOL    HW123483   2.261   7.868   5.957  2.3119  2.5589  3.2577
 3808SOL    HW223484   2.217   7.819   6.107  1.3197 -2.3933  1.4349
 3809SOL     OW23485   5.412   6.605   2.335  0.1275  0.2840  0.0300
 3809SOL    HW123486   5.407   6.656   2.248 -0.9211  0.3466  0.1119
 3809SOL    HW223487   5.486   6.642   2.391 -0.5368  1.6486  0.0311
 3810SOL     OW23488   0.950   6.378   4.397  0.0154  0.5457  0.2580
 3810SOL    HW123489   0.884   6.419   4.460 -0.4567 -0.4141  0.4000
 3810SOL    HW223490   0.984   6.448   4.334 -3.1354  0.5594 -1.5217
 3811SOL     OW23491   7.584   3.702   0.888 -0.1590 -0.2565 -0.2008
 3811SOL    HW123492   7.538   3.619   0.856  0.7077 -0.9703  0.3933
 3811SOL    HW223493   7.674   3.678   0.925 -1.0352  0.5976  2.5478
 3812SOL     OW23494   8.909   9.186   2.983 -0.4379 -0.1296  0.3124
 3812SOL    HW123495   8.914   9.285   3.001 -1.9942  0.1347 -0.5060
 3812SOL    HW223496   8.850   9.143   3.051  0.4408 -0.5336  0.8136
 3813SOL     OW23497   7.772   4.583   5.778 -0.2060  0.0500 -0.5876
 3813SOL    HW123498   7.833   4.521   5.825  0.8777  0.1711 -1.8119
 3813SOL    HW223499   7.677   4.564   5.805  0.3721 -0.0132  1.4436
 3814SOL     OW23500   8.739   0.367   1.320 -0.3262 -0.4214 -0.7862
 3814SOL    HW123501   8.779   0.278   1.343 -1.5449 -1.0766 -1.1549
 3814SOL    HW223502   8.700   0.363   1.227  1.3073  1.0813 -1.5658
 3815SOL     OW23503   8.696   4.140   1.257 -0.0370 -0.1471 -0.4183
 3815SOL    HW123504   8.755   4.197   1.314  1.4979 -1.8540 -0.2656
 3815SOL    HW223505   8.667   4.060   1.308 -3.7848  1.4102  0.0141
 3816SOL     OW23506   3.431   2.236   9.570 -0.0589 -0.5824 -0.7477
 3816SOL    HW123507   3.377   2.291   9.634  1.8236 -0.6239  0.8984
 3816SOL    HW223508   3.437   2.142   9.604  1.7079 -0.3909 -0.4863
 3817SOL     OW23509   0.776   1.051   9.390 -0.2330 -0.1107 -0.1512
 3817SOL    HW123510   0.870   1.066   9.424  0.4143 -1.2012 -1.4309
 3817SOL    HW223511   0.745   0.961   9.417 -0.4804 -0.1925 -0.7084
 3818SOL     OW23512   3.010   9.237   3.219 -0.8006 -0.0324  0.4001
 3818SOL    HW123513   3.074   9.160   3.220 -0.8883 -0.1289  3.2240
 3818SOL    HW223514   2.916   9.203   3.223 -0.8404  0.2047  1.6382
 3819SOL     OW23515   7.057   6.604   5.524 -0.0652  0.9968 -0.3368
 3819SOL    HW123516   7.090   6.514   5.552 -1.9692  0.7280  1.1379
 3819SOL    HW223517   7.070   6.670   5.598 -0.0550  1.5792 -0.8495
 3820SOL     OW23518   9.028   3.263   0.361  0.3028 -0.2624  0.2125
 3820SOL    HW123519   9.029   3.323   0.440  0.1374  0.4721 -0.3378
 3820SOL    HW223520   9.071   3.309   0.283 -0.3889 -0.6179 -0.3827
 3821SOL     OW23521   4.932   0.154   5.977 -0.0200  0.8171  0.0749
 3821SOL    HW123522   4.980   0.106   5.904  0.9721  0.4049  0.9795
 3821SOL    HW223523   4.938   0.253   5.963 -0.8158  0.7180 -1.0079
 3822SOL     OW23524   3.416   6.894   7.691  0.4742  0.1129  0.1242
 3822SOL    HW123525   3.331   6.842   7.690  0.9800 -0.7939 -2.9380
 3822SOL    HW223526   3.490   6.836   7.723  0.5735 -0.2509 -0.7528
 3823SOL     OW23527   3.706   8.361   8.532 -0.3065 -0.2999  0.0907
 3823SOL    HW123528   3.753   8.429   8.587 -2.1846  0.7570  0.4314
 3823SOL    HW223529   3.773   8.300   8.489  1.2806  0.4567  1.4630
 3824SOL     OW23530   0.581   5.842   6.223  0.2307 -0.5635  0.0729
 3824SOL    HW123531   0.495   5.793   6.234 -0.4540  0.5597 -0.1997
 3824SOL    HW223532   0.654   5.777   6.202 -0.2466 -1.6944  1.7864
 3825SOL     OW23533   2.512   0.262   7.047  0.5099 -0.0671  0.1342
 3825SOL    HW123534   2.611   0.260   7.031  0.5740  0.4192  0.4694
 3825SOL    HW223535   2.466   0.290   6.963  0.5481 -1.7533 -0.4716
 3826SOL     OW23536   9.291   1.041   7.380 -0.3359  0.8654  0.4693
 3826SOL    HW123537   9.351   1.058   7.302 -1.7410  0.2880 -0.7653
 3826SOL    HW223538   9.344   1.044   7.465  0.7246  4.2032 -0.2584
 3827SOL     OW23539   6.340   0.360   5.164 -0.2808 -0.5723  0.0234
 3827SOL    HW123540   6.292   0.351   5.077 -0.4431 -1.0332  0.1556
 3827SOL    HW223541   6.281   0.405   5.230  0.5441  1.5288 -0.6499
 3828SOL     OW23542   3.153   6.344   7.444  0.0561  0.3208  0.1014
 3828SOL    HW123543   3.213   6.275   7.402 -0.4554 -0.1546  0.1377
 3828SOL    HW223544   3.203   6.429   7.456  1.1012 -0.4557  1.3125
 3829SOL     OW23545   6.174   2.101   5.579  0.3587 -0.1902 -0.2863
 3829SOL    HW123546   6.112   2.101   5.501  3.0664 -0.9224 -2.5493
 3829SOL    HW223547   6.145   2.170   5.646  0.1285  3.1948 -3.7285
 3830SOL     OW23548   7.140   8.628   5.560  0.1351  0.2081 -0.0591
 3830SOL    HW123549   7.112   8.651   5.653  1.5092  1.1760  0.1401
 3830SOL    HW223550   7.089   8.548   5.528 -1.0944  0.4966  1.1313
 3831SOL     OW23551   2.869   8.934   7.789  0.4212 -0.1101  0.4970
 3831SOL    HW123552   2.916   8.847   7.778  0.6952  0.1000 -0.0004
 3831SOL    HW223553   2.858   8.978   7.700  0.2582  0.3488  0.7419
 3832SOL     OW23554   6.363   1.565   1.856 -0.0203  0.4496  0.3854
 3832SOL    HW123555   6.385   1.646   1.802  0.5790  0.3011  0.3986
 3832SOL    HW223556   6.381   1.582   1.953  1.6369 -0.1952  0.2219
 3833SOL     OW23557   3.868   9.058   3.094  0.2289 -0.4893 -0.2036
 3833SOL    HW123558   3.870   9.113   3.010 -0.4477 -0.6397 -0.3225
 3833SOL    HW223559   3.959   9.020   3.111  0.2975 -0.7216 -1.0482
 3834SOL     OW23560   9.603   8.241   9.702 -0.0675  0.0802  0.0216
 3834SOL    HW123561   9.571   8.335   9.696  2.1473  0.8555  0.2374
 3834SOL    HW223562   9.678   8.227   9.638 -0.1251 -1.4476  0.2663
 3835SOL     OW23563   9.870   8.292   8.185 -0.5256  0.0862  0.1636
 3835SOL    HW123564   9.884   8.233   8.264 -2.6231 -1.5146 -0.6209
 3835SOL    HW223565   9.943   8.277   8.118 -0.0736 -0.3101  0.7410
 3836SOL     OW23566   9.998   2.590   9.130  0.0367  0.3319  0.6682
 3836SOL    HW123567  10.018   2.668   9.070 -0.1835  1.2747  1.8136
 3836SOL    HW223568   9.977   2.623   9.222  1.8680 -1.1826  1.6628
 3837SOL     OW23569   0.651   9.690   8.939  0.0927  0.2615  0.1873
 3837SOL    HW123570   0.697   9.731   8.860  1.1591 -0.1010  0.6068
 3837SOL    HW223571   0.690   9.727   9.023 -0.1100 -0.3468  0.5489
 3838SOL     OW23572   0.039   8.842   6.081  0.6584 -0.3475  0.1801
 3838SOL    HW123573  -0.017   8.888   6.150  0.9278  0.8040 -0.3635
 3838SOL    HW223574   0.131   8.881   6.081  0.7982 -0.6675 -0.5088
 3839SOL     OW23575   7.505   6.149   7.879 -0.6207 -0.6120  0.0023
 3839SOL    HW123576   7.427   6.184   7.932 -0.5347 -0.4968  0.0546
 3839SOL    HW223577   7.499   6.049   7.873  0.5425 -0.8342  2.1234
 3840SOL     OW23578   9.303   8.649   9.416 -0.3539 -0.2464  0.4598
 3840SOL    HW123579   9.217   8.672   9.370 -0.3899  1.2036  1.2339
 3840SOL    HW223580   9.354   8.583   9.360 -1.0462  0.4022 -0.9677
 3841SOL     OW23581   4.296   1.846   7.873  0.4512  0.2725 -0.3562
 3841SOL    HW123582   4.215   1.790   7.886  0.8504 -0.3302 -0.4903
 3841SOL    HW223583   4.269   1.942   7.862 -0.2082  0.1391  0.0891
 3842SOL     OW23584   5.669   9.034   8.294  0.5427 -0.5260 -0.0917
 3842SOL    HW123585   5.627   8.955   8.248  1.9791  0.0350 -2.4767
 3842SOL    HW223586   5.602   9.077   8.355 -1.4080 -1.4082 -1.5565
 3843SOL     OW23587   2.731   4.007   9.768 -0.1283  0.1364  0.1030
 3843SOL    HW123588   2.734   4.098   9.809  0.7626  0.2297 -0.1452
 3843SOL    HW223589   2.657   3.954   9.809 -0.0815  0.6692  0.8928
 3844SOL     OW23590   1.027   1.860   0.038 -0.1949 -0.7257 -0.3063
 3844SOL    HW123591   1.121   1.843   0.068 -0.0910 -0.9438 -0.7500
 3844SOL    HW223592   0.966   1.793   0.080  0.2934 -2.6024 -2.5114
 3845SOL     OW23593   8.315   1.179   4.107  0.0377  0.5608  0.4970
 3845SOL    HW123594   8.380   1.234   4.054 -1.7006  1.4611 -0.7637
 3845SOL    HW223595   8.269   1.238   4.173 -0.4645  0.2200  0.4515
 3846SOL     OW23596   8.788   0.288   5.905 -0.1027 -0.0644 -0.3477
 3846SOL    HW123597   8.768   0.291   6.003  1.7350 -1.5048  0.1145
 3846SOL    HW223598   8.820   0.196   5.881 -0.6210  0.2527 -2.3290
 3847SOL     OW23599   0.754   9.580   8.450  0.3821 -0.0424  0.2615
 3847SOL    HW123600   0.741   9.678   8.463 -0.7926  0.0161 -1.1748
 3847SOL    HW223601   0.850   9.562   8.426  0.3613  0.8970 -0.5959
 3848SOL     OW23602   9.284   0.203   7.422 -0.3335 -0.6787  0.6197
 3848SOL    HW123603   9.361   0.265   7.411 -0.7713 -0.3266 -0.5791
 3848SOL    HW223604   9.240   0.219   7.511  0.7055 -0.5914  1.1209
 3849SOL     OW23605   2.431   6.465   1.848  0.1422 -0.3114  0.1230
 3849SOL    HW123606   2.509   6.525   1.828  0.2357 -0.6592 -0.5624
 3849SOL    HW223607   2.464   6.371   1.858 -0.2532 -0.5207 -0.5875
 3850SOL     OW23608   0.697   4.932   2.154  0.3463 -0.1614  0.2763
 3850SOL    HW123609   0.743   4.940   2.065  1.0231 -4.7446  0.0836
 3850SOL    HW223610   0.598   4.928   2.141  0.4378 -0.7026 -0.2440
 3851SOL     OW23611   1.706   3.862   7.521  0.0303 -0.8683 -0.4436
 3851SOL    HW123612   1.719   3.856   7.422 -1.7118  1.1577 -0.8290
 3851SOL    HW223613   1.779   3.917   7.561 -1.2705  1.4228 -1.1354
 3852SOL     OW23614   9.875   5.272   9.302  0.1351  0.2394 -0.3109
 3852SOL    HW123615   9.963   5.256   9.347  0.9018  2.4679 -0.9552
 3852SOL    HW223616   9.875   5.229   9.212  0.6201  0.3658 -0.3701
 3853SOL     OW23617   8.154   3.352   5.567 -0.6990 -0.5249 -0.7332
 3853SOL    HW123618   8.071   3.348   5.623 -1.0935  2.0372 -1.0847
 3853SOL    HW223619   8.132   3.386   5.476  0.3083 -2.5847 -1.8009
 3854SOL     OW23620   1.922   8.842   5.874  0.1879 -0.1859  0.2285
 3854SOL    HW123621   1.906   8.923   5.818 -1.4690 -0.8688 -0.3267
 3854SOL    HW223622   1.837   8.790   5.883  0.6072 -0.4823  2.7720
 3855SOL     OW23623   8.995   8.596   1.961  0.3280 -0.4957 -0.3395
 3855SOL    HW123624   8.931   8.603   1.885  0.8927 -2.3970 -1.0295
 3855SOL    HW223625   9.045   8.509   1.954  0.9256 -0.3409  1.7777
 3856SOL     OW23626   9.334   0.135   8.039 -0.2721  0.2007  0.2972
 3856SOL    HW123627   9.342   0.141   7.939 -0.4191 -2.0524  0.1133
 3856SOL    HW223628   9.240   0.110   8.063  0.1097 -0.6779  0.9074
 3857SOL     OW23629   0.295   0.084   3.268  0.1371  0.3488 -0.0705
 3857SOL    HW123630   0.311   0.182   3.280 -0.9210  0.4248  0.7616
 3857SOL    HW223631   0.275   0.042   3.356  1.8701 -0.8705 -0.2308
 3858SOL     OW23632   8.122   0.765   1.692 -0.3005 -0.3880  0.1062
 3858SOL    HW123633   8.153   0.857   1.667 -1.2791 -0.3688 -1.0613
 3858SOL    HW223634   8.156   0.743   1.784  0.0223  1.0947  0.3666
 3859SOL     OW23635   9.000   1.557   2.282  0.8937 -0.1112  0.5723
 3859SOL    HW123636   9.005   1.645   2.234 -0.5268 -0.6480 -0.5911
 3859SOL    HW223637   8.924   1.557   2.346  0.2219 -0.8663 -0.2141
 3860SOL     OW23638   8.942   6.367   2.192  0.1663  0.0562  0.2204
 3860SOL    HW123639   8.949   6.303   2.268 -1.4093  0.1884  0.4937
 3860SOL    HW223640   8.849   6.404   2.188  0.1394 -0.1889 -1.9524
 3861SOL     OW23641   3.818   8.774   5.862  0.2066  0.3252  0.2937
 3861SOL    HW123642   3.865   8.779   5.950 -1.2090  4.3382  0.9304
 3861SOL    HW223643   3.844   8.853   5.806 -0.4312 -1.1317 -2.1349
 3862SOL     OW23644   8.990   3.735   4.687  0.0973 -0.1026 -0.0335
 3862SOL    HW123645   8.932   3.699   4.614  0.4843  0.3010 -0.5430
 3862SOL    HW223646   9.022   3.659   4.744  0.0902 -0.4659 -0.5056
 3863SOL     OW23647   7.227   1.538   3.641 -0.6563 -0.3207 -0.1008
 3863SOL    HW123648   7.287   1.608   3.601  0.1905 -0.5554  0.7620
 3863SOL    HW223649   7.152   1.520   3.577 -1.4282  2.0679  0.0776
 3864SOL     OW23650   1.716   5.808   5.070 -0.5000  0.3473  0.1099
 3864SOL    HW123651   1.809   5.831   5.098 -0.1529 -0.0675 -0.7081
 3864SOL    HW223652   1.685   5.728   5.121  0.1866 -0.4954 -0.7726
 3865SOL     OW23653   1.863   8.656   3.590 -0.4556 -0.0411  0.2984
 3865SOL    HW123654   1.866   8.593   3.667 -0.6078  0.6787  0.8916
 3865SOL    HW223655   1.808   8.737   3.614 -1.5620 -0.3836 -0.9807
 3866SOL     OW23656   8.124   6.768   7.597 -0.1226 -0.0587 -0.1118
 3866SOL    HW123657   8.215   6.732   7.620  0.0743  0.6057  0.1594
 3866SOL    HW223658   8.054   6.703   7.627  0.2001  0.1501  1.1188
 3867SOL     OW23659   8.755   6.391   6.106  0.2379 -0.4953  0.2106
 3867SOL    HW123660   8.676   6.356   6.056  0.0718  0.5195 -0.2488
 3867SOL    HW223661   8.761   6.490   6.093  2.0451 -0.6656 -0.4303
 3868SOL     OW23662   1.112   7.683   9.769  0.2411 -0.0414  0.8209
 3868SOL    HW123663   1.115   7.600   9.713 -2.3947 -0.4909  1.2703
 3868SOL    HW223664   1.202   7.698   9.811  1.1882 -1.7895 -0.4990
 3869SOL     OW23665   4.773   3.984   6.991  0.1030  0.5787  0.2077
 3869SOL    HW123666   4.693   4.043   6.976 -0.8030 -0.5147  0.6542
 3869SOL    HW223667   4.817   3.965   6.903  0.5407  2.1118  0.0977
 3870SOL     OW23668   3.986   0.381   9.033  0.8047  0.2643  0.8722
 3870SOL    HW123669   3.922   0.445   8.991 -1.1135 -1.7678  0.5423
 3870SOL    HW223670   4.013   0.312   8.966  2.1765  0.2240  1.4397
 3871SOL     OW23671   0.035   2.491   7.759 -0.5423 -0.0236  0.2462
 3871SOL    HW123672   0.102   2.561   7.784  0.3484 -0.8025  0.0709
 3871SOL    HW223673   0.005   2.506   7.664  0.6968 -0.6846 -0.2674
 3872SOL     OW23674   8.978   9.063   7.563 -0.4126 -0.3131  0.1227
 3872SOL    HW123675   9.049   8.994   7.576 -0.2490 -0.8342 -3.1236
 3872SOL    HW223676   9.010   9.133   7.499 -1.6987  1.1686  1.0414
 3873SOL     OW23677   3.004   8.509   5.727 -0.1886 -0.3338 -0.1497
 3873SOL    HW123678   2.962   8.567   5.796 -0.6022  0.9904 -1.4994
 3873SOL    HW223679   3.086   8.553   5.690 -2.4939  1.1661 -3.7841
 3874SOL     OW23680   7.102   2.086   4.598  0.3525  0.1477  0.8483
 3874SOL    HW123681   7.057   2.068   4.511 -0.4215 -2.2923  1.7241
 3874SOL    HW223682   7.073   2.176   4.632  0.0639  0.7792 -1.0300
 3875SOL     OW23683   6.938   1.141   2.806  0.6923 -0.7932  0.3203
 3875SOL    HW123684   6.883   1.063   2.775 -1.0325  0.6309 -0.2747
 3875SOL    HW223685   6.944   1.140   2.906 -2.5243  0.3515  0.6003
 3876SOL     OW23686   0.463   3.534   5.143 -0.1827 -0.4648  0.3438
 3876SOL    HW123687   0.368   3.563   5.154 -1.7000 -3.7789 -3.0468
 3876SOL    HW223688   0.501   3.577   5.061  1.1479  0.5762  1.5009
 3877SOL     OW23689   1.879   2.178   1.311 -0.1998 -0.0325  0.2049
 3877SOL    HW123690   1.927   2.260   1.341 -0.1680  0.8544 -2.1538
 3877SOL    HW223691   1.917   2.098   1.357  1.0695  1.0597  1.0784
 3878SOL     OW23692   3.106   7.540   7.567  0.0598  0.1738  0.2645
 3878SOL    HW123693   3.097   7.639   7.558 -0.8226  0.1417  0.6351
 3878SOL    HW223694   3.124   7.517   7.663  1.3268  0.0348  0.0038
 3879SOL     OW23695   9.240   3.110   3.816  0.1162  0.2920  0.3721
 3879SOL    HW123696   9.315   3.153   3.766 -0.8535  0.6428 -0.8048
 3879SOL    HW223697   9.218   3.021   3.774  0.9938 -0.6038  1.7594
 3880SOL     OW23698   0.394   7.980   8.973 -0.1016  0.2826  0.2483
 3880SOL    HW123699   0.447   7.922   9.035  1.0841 -0.0266 -1.0508
 3880SOL    HW223700   0.305   7.937   8.956  0.8267 -1.2481 -0.8340
 3881SOL     OW23701   5.376   7.946   5.438 -0.1099 -0.4334 -0.1978
 3881SOL    HW123702   5.300   7.907   5.491  0.3372 -2.2280 -0.8457
 3881SOL    HW223703   5.340   8.013   5.373 -1.0065 -0.4893  0.2259
 3882SOL     OW23704   8.249   1.168   0.233  0.1221 -0.6743  0.0358
 3882SOL    HW123705   8.246   1.243   0.167 -0.1407 -0.5324  0.2040
 3882SOL    HW223706   8.301   1.091   0.196 -0.1472 -0.6475 -0.3884
 3883SOL     OW23707   4.539   6.218   3.071  0.5431  0.5382 -0.1158
 3883SOL    HW123708   4.542   6.136   3.015  0.2059 -0.5431  1.4230
 3883SOL    HW223709   4.630   6.234   3.110  0.5707  0.8143 -0.2910
 3884SOL     OW23710   2.494   3.500   1.615  0.0281  0.2414  0.3207
 3884SOL    HW123711   2.589   3.506   1.646  0.4077  1.0696 -0.9588
 3884SOL    HW223712   2.450   3.589   1.626 -0.3778  0.0604  0.1753
 3885SOL     OW23713   9.696   4.823   5.918 -0.5258 -0.1946 -0.0210
 3885SOL    HW123714   9.765   4.867   5.975 -0.9430  1.2806 -0.6372
 3885SOL    HW223715   9.610   4.873   5.925 -1.1231 -1.1627 -0.4041
 3886SOL     OW23716   4.565   0.816   9.915 -0.4260  0.1998 -0.2036
 3886SOL    HW123717   4.635   0.749   9.941 -0.2569  1.2376  2.0806
 3886SOL    HW223718   4.607   0.886   9.856  0.3615  0.5508  0.7582
 3887SOL     OW23719   4.015   6.035   1.624 -0.2326  0.1026 -0.1850
 3887SOL    HW123720   3.998   5.977   1.545 -1.8044 -3.4518  2.6451
 3887SOL    HW223721   3.941   6.103   1.632 -0.5010 -0.0556 -1.2536
 3888SOL     OW23722   6.511   5.563   6.930  0.0652  0.2061  0.6137
 3888SOL    HW123723   6.604   5.535   6.952  0.3797  1.1694  0.5510
 3888SOL    HW223724   6.450   5.483   6.932  1.0310 -0.5708 -0.1123
 3889SOL     OW23725   0.006   0.902   1.032  0.0494 -0.4260 -0.2455
 3889SOL    HW123726  -0.066   0.866   1.091 -0.1996 -0.0264 -0.3025
 3889SOL    HW223727  -0.002   0.863   0.941  0.0629 -0.5734 -0.1845
 3890SOL     OW23728   4.229   1.069   6.661 -0.2282  0.1509  1.2201
 3890SOL    HW123729   4.183   1.147   6.619 -0.1556 -0.4940 -0.0760
 3890SOL    HW223730   4.295   1.030   6.596 -1.7843 -2.2872  1.0347
 3891SOL     OW23731   3.734   7.201   9.778 -0.5208  0.1208 -0.7015
 3891SOL    HW123732   3.718   7.291   9.737 -0.0748 -0.0017 -1.1590
 3891SOL    HW223733   3.796   7.149   9.719  1.0683  0.3671  0.7028
 3892SOL     OW23734   5.659   0.870   5.334  0.4462 -0.1009  0.1452
 3892SOL    HW123735   5.692   0.961   5.359 -0.7227 -0.0558  1.6003
 3892SOL    HW223736   5.564   0.860   5.364  0.0206 -1.2090 -1.4953
 3893SOL     OW23737   2.542   3.314   5.991  0.3973 -0.5403 -0.0821
 3893SOL    HW123738   2.516   3.228   6.036  1.1699 -0.7267  0.0252
 3893SOL    HW223739   2.551   3.298   5.893  1.7077 -0.8885  0.0764
 3894SOL     OW23740   3.269   6.651   9.162 -0.1288 -0.1432 -0.1684
 3894SOL    HW123741   3.194   6.669   9.098 -0.4026  1.3833  0.5545
 3894SOL    HW223742   3.265   6.556   9.193  0.0447 -0.9239 -2.4484
 3895SOL     OW23743   2.487   9.848   1.226  0.4468 -0.5645 -0.2237
 3895SOL    HW123744   2.553   9.774   1.238  1.1499 -0.3288 -2.3318
 3895SOL    HW223745   2.432   9.858   1.309  1.3479 -2.4371  0.6307
 3896SOL     OW23746   9.713   6.901   0.571 -0.6696 -0.0844  0.0812
 3896SOL    HW123747   9.768   6.961   0.513 -0.9351 -1.4456 -1.6024
 3896SOL    HW223748   9.729   6.924   0.667  1.8546  0.3875 -0.4192
 3897SOL     OW23749   0.858   5.730   9.274 -0.1486  0.0702  0.1773
 3897SOL    HW123750   0.862   5.683   9.362 -0.8089  0.3475  0.3598
 3897SOL    HW223751   0.918   5.684   9.209 -1.4766 -1.5764  0.0962
 3898SOL     OW23752   1.369   4.909   0.583  0.1075 -0.1911 -0.0610
 3898SOL    HW123753   1.427   4.839   0.625 -0.4198  0.5191  1.9156
 3898SOL    HW223754   1.422   4.992   0.567 -0.0907  0.1060  0.7852
 3899SOL     OW23755   5.458   8.873   9.562  0.5873  0.3248 -1.0463
 3899SOL    HW123756   5.364   8.893   9.535  0.7993 -0.1557 -2.1746
 3899SOL    HW223757   5.517   8.877   9.482  1.5435  0.6889 -0.3297
 3900SOL     OW23758   0.210   9.658   0.515  0.5892  0.4150 -0.3673
 3900SOL    HW123759   0.178   9.710   0.436 -2.7514  0.7630  1.1585
 3900SOL    HW223760   0.210   9.560   0.493  0.7698  0.5820 -1.1449
 3901SOL     OW23761   6.513   6.150   2.091  0.3250  0.2939  0.0417
 3901SOL    HW123762   6.573   6.222   2.127 -2.4925  1.3012  2.9647
 3901SOL    HW223763   6.471   6.181   2.006 -1.0164  2.2657  1.3756
 3902SOL     OW23764   9.035   6.756   7.375 -0.5356  0.3387  0.8099
 3902SOL    HW123765   9.054   6.786   7.281 -1.9115 -0.5108  0.2416
 3902SOL    HW223766   9.083   6.670   7.392 -0.2742  0.5008  0.8906
 3903SOL     OW23767   1.450   5.663   3.237 -0.1508  0.1281 -0.4713
 3903SOL    HW123768   1.435   5.699   3.145  0.8110 -1.1140 -1.1424
 3903SOL    HW223769   1.538   5.696   3.271 -0.1709  0.0134 -0.3083
 3904SOL     OW23770   0.101   4.140   1.813 -0.1646  0.6486 -0.5502
 3904SOL    HW123771   0.047   4.105   1.889 -0.8055  1.9801 -0.3922
 3904SOL    HW223772   0.138   4.230   1.836  2.0470 -0.1826 -0.6892
 3905SOL     OW23773   1.427   0.338   6.566 -0.1884  0.0309  0.3261
 3905SOL    HW123774   1.470   0.274   6.630 -0.0816  0.5481  0.7813
 3905SOL    HW223775   1.466   0.326   6.475 -0.2600 -0.6361  0.3790
 3906SOL     OW23776   7.430   4.333   8.346 -0.1008 -0.4528 -0.0205
 3906SOL    HW123777   7.337   4.320   8.382 -0.3606  1.6516  0.1174
 3906SOL    HW223778   7.432   4.305   8.250 -0.5417 -1.7133  0.3199
 3907SOL     OW23779   3.560   9.186   2.456 -0.0488  0.6932  0.1265
 3907SOL    HW123780   3.552   9.088   2.441  0.8585  0.4415  1.2742
 3907SOL    HW223781   3.469   9.224   2.476 -0.4097  0.1113 -0.4084
 3908SOL     OW23782   3.843   7.902   8.544 -0.2258 -0.2420 -0.0518
 3908SOL    HW123783   3.804   7.924   8.633 -1.5730  0.3189 -0.7699
 3908SOL    HW223784   3.774   7.858   8.486  0.8272 -1.2268 -0.5908
 3909SOL     OW23785   3.217   8.875   6.552 -0.4106  0.0535  0.0706
 3909SOL    HW123786   3.218   8.901   6.649  0.3812 -0.2211  0.1377
 3909SOL    HW223787   3.198   8.777   6.544 -1.1471  0.2020 -0.0884
 3910SOL     OW23788   3.077   9.510   3.161  0.6349  0.0402  0.1476
 3910SOL    HW123789   3.063   9.559   3.247  0.6736 -0.5814  0.5160
 3910SOL    HW223790   3.036   9.418   3.168 -0.2886  0.3586 -0.8672
 3911SOL     OW23791   0.249   4.341   4.925  0.0630 -0.4998  0.0247
 3911SOL    HW123792   0.248   4.329   4.826 -0.7790 -0.6551  0.0465
 3911SOL    HW223793   0.176   4.287   4.966 -0.6911  0.8923  0.5636
 3912SOL     OW23794   5.496   1.943   0.575  0.2153 -0.2108  0.3370
 3912SOL    HW123795   5.568   1.878   0.549  1.1349  1.0326 -0.2879
 3912SOL    HW223796   5.526   1.997   0.653  0.4700  1.1037 -0.6370
 3913SOL     OW23797   9.851   7.484   3.043  0.3804 -0.0465 -0.5024
 3913SOL    HW123798   9.941   7.522   3.065 -0.4256  1.1620  0.8216
 3913SOL    HW223799   9.821   7.425   3.117 -0.1597 -0.0005 -0.6847
 3914SOL     OW23800   0.050   4.709   2.867 -0.0221  0.4143 -0.0621
 3914SOL    HW123801   0.081   4.720   2.961 -0.6296 -0.8432  0.3036
 3914SOL    HW223802  -0.050   4.713   2.864 -0.0093  0.3551 -0.6354
 3915SOL     OW23803   1.717   9.906   9.643  0.6651 -0.1480  0.2183
 3915SOL    HW123804   1.764   9.819   9.627 -1.0144 -1.4142  2.0046
 3915SOL    HW223805   1.714   9.926   9.741  0.4128  1.5912 -0.1168
 3916SOL     OW23806   1.855   1.555   8.431  0.0729  0.0593 -0.2243
 3916SOL    HW123807   1.928   1.582   8.494  0.3290  1.9628 -1.2926
 3916SOL    HW223808   1.878   1.466   8.391  0.9704 -0.1530  0.7303
 3917SOL     OW23809   8.364   9.444   1.419  0.0675 -0.1707  0.8677
 3917SOL    HW123810   8.288   9.509   1.415  0.7981  0.5700 -2.4721
 3917SOL    HW223811   8.360   9.384   1.339  1.8717 -1.4389  1.7129
 3918SOL     OW23812   9.675   5.251   8.713 -0.1563 -0.0413 -0.3064
 3918SOL    HW123813   9.737   5.303   8.772 -0.5646 -1.1950  1.1720
 3918SOL    HW223814   9.606   5.313   8.675 -0.3700  0.6039  1.0858
 3919SOL     OW23815   2.439   8.164   2.748  0.4330  0.2976 -0.3209
 3919SOL    HW123816   2.519   8.171   2.807 -0.2860 -0.9443  0.8407
 3919SOL    HW223817   2.407   8.069   2.746 -0.5634  0.6381 -1.3703
 3920SOL     OW23818   1.442   0.110   1.262  0.5402 -0.6094 -0.0688
 3920SOL    HW123819   1.476   0.121   1.168 -0.3224 -0.4618 -0.3699
 3920SOL    HW223820   1.347   0.081   1.259  0.8276 -1.6348  0.7715
 3921SOL     OW23821   1.379   9.089   6.627 -0.0404 -0.0461  0.0806
 3921SOL    HW123822   1.432   9.094   6.542  1.0814  0.8640  0.8237
 3921SOL    HW223823   1.411   9.012   6.682  0.0393  0.0744  0.2049
 3922SOL     OW23824   5.684   9.334   5.788  0.1879  0.6617  0.0070
 3922SOL    HW123825   5.592   9.301   5.811 -0.0205  0.1745 -1.4745
 3922SOL    HW223826   5.710   9.407   5.852 -0.0062 -1.2184  2.3026
 3923SOL     OW23827   0.858   6.676   5.564  0.3459 -0.2961  0.3340
 3923SOL    HW123828   0.899   6.725   5.640  1.5535 -1.5062  0.4786
 3923SOL    HW223829   0.805   6.598   5.598  0.2289 -0.3779 -0.0276
 3924SOL     OW23830   3.700   5.235   9.839 -0.6187  0.0601  0.1398
 3924SOL    HW123831   3.779   5.215   9.781  0.2389  0.1814  1.2282
 3924SOL    HW223832   3.731   5.244   9.934 -1.8673  0.6531  0.5011
 3925SOL     OW23833   1.079   6.586   5.441  0.2344 -0.1958  0.0873
 3925SOL    HW123834   1.012   6.648   5.482  0.9502  0.1092  0.8027
 3925SOL    HW223835   1.035   6.498   5.421 -0.3800  0.0055  0.5459
 3926SOL     OW23836   8.536   0.528   4.061  0.4780  0.4085 -0.3353
 3926SOL    HW123837   8.508   0.624   4.068  0.3374  0.3553 -0.1533
 3926SOL    HW223838   8.580   0.500   4.146  0.0833  0.1737 -0.2097
 3927SOL     OW23839   9.697   3.982   7.239 -0.7343  0.1382 -0.0415
 3927SOL    HW123840   9.770   3.915   7.246 -0.2041  0.8222  1.0907
 3927SOL    HW223841   9.735   4.074   7.239 -1.5878  0.5013  0.4205
 3928SOL     OW23842   5.259   4.809   6.709  0.0527 -0.6517  0.1258
 3928SOL    HW123843   5.164   4.810   6.679  0.3917  0.7944 -0.9533
 3928SOL    HW223844   5.314   4.864   6.647  1.5350 -1.1430  0.9761
 3929SOL     OW23845   5.407   5.428   9.881 -0.0964 -0.1455  0.0642
 3929SOL    HW123846   5.375   5.357   9.944  1.2942 -1.5619 -0.7726
 3929SOL    HW223847   5.340   5.442   9.808  0.4756 -2.0006 -0.8390
 3930SOL     OW23848   0.943   7.372   9.857 -0.7717 -0.3041  0.3418
 3930SOL    HW123849   0.910   7.408   9.945  0.2244  0.8339  0.2631
 3930SOL    HW223850   1.035   7.334   9.869  0.5467  2.4019 -0.7597
 3931SOL     OW23851   9.564   7.569   5.201 -0.1907 -0.0875 -0.5996
 3931SOL    HW123852   9.567   7.475   5.166 -0.6578 -1.0028  1.7502
 3931SOL    HW223853   9.535   7.631   5.128  0.9656 -1.6360 -2.4219
 3932SOL     OW23854   9.287   7.061   5.663  0.6145 -0.6520  0.0682
 3932SOL    HW123855   9.320   7.036   5.573  0.3283 -0.1712 -0.1724
 3932SOL    HW223856   9.295   7.160   5.676  0.2866 -0.6667  0.4149
 3933SOL     OW23857   1.176   5.373   9.646 -0.4630  0.0336  0.0299
 3933SOL    HW123858   1.204   5.461   9.685 -1.0667 -0.7124  2.2626
 3933SOL    HW223859   1.080   5.355   9.671 -0.1230 -1.5706  0.2190
 3934SOL     OW23860   0.111   2.169   4.661  0.6865 -0.1721 -0.0446
 3934SOL    HW123861   0.147   2.079   4.685 -0.3020 -0.4311  0.4925
 3934SOL    HW223862   0.187   2.232   4.646  1.3930 -1.1232 -0.5524
 3935SOL     OW23863   4.217   3.821   5.548  0.1847  0.3265  0.0525
 3935SOL    HW123864   4.121   3.845   5.564  0.3499  0.0746  1.4637
 3935SOL    HW223865   4.265   3.814   5.635  1.1460 -1.0241 -0.5719
 3936SOL     OW23866   3.048   8.798   9.793 -0.1364 -0.6960 -0.0628
 3936SOL    HW123867   3.142   8.800   9.826  0.0721  2.7307 -0.6335
 3936SOL    HW223868   2.993   8.737   9.851  2.1362 -1.7265  1.0536
 3937SOL     OW23869   8.706   3.472   3.921  0.2224 -0.4143 -0.2305
 3937SOL    HW123870   8.760   3.431   3.995 -0.5424 -0.7618  0.1490
 3937SOL    HW223871   8.627   3.519   3.960 -0.0661 -0.4091 -0.8113
 3938SOL     OW23872   9.170   4.525   2.633  0.0950  0.4737 -0.0384
 3938SOL    HW123873   9.108   4.545   2.709  0.5077 -0.8616  0.6640
 3938SOL    HW223874   9.187   4.609   2.581 -2.7245  0.7654 -0.5772
 3939SOL     OW23875   5.698   3.407   2.790 -0.4314  0.5100  0.6043
 3939SOL    HW123876   5.673   3.312   2.806 -0.4127  0.3137 -0.4935
 3939SOL    HW223877   5.618   3.465   2.800 -0.1149  0.6042  2.9745
 3940SOL     OW23878   0.336   1.273   9.661  0.3637 -0.0473 -0.5269
 3940SOL    HW123879   0.339   1.370   9.684  0.8894 -0.1234 -0.2748
 3940SOL    HW223880   0.413   1.250   9.602  0.8235 -0.5246  0.2470
 3941SOL     OW23881   5.610   8.320   2.559  0.6028 -0.3465 -0.2634
 3941SOL    HW123882   5.668   8.240   2.570 -0.1168 -0.5157  2.6725
 3941SOL    HW223883   5.516   8.292   2.544  0.3563 -0.0768  0.7207
 3942SOL     OW23884   2.869   3.646   2.918 -0.3612  0.4244 -0.1636
 3942SOL    HW123885   2.947   3.708   2.918 -0.2230  0.2480  1.3788
 3942SOL    HW223886   2.899   3.554   2.940 -0.7235 -0.0312 -1.4849
 3943SOL     OW23887   9.003   9.068   5.250  0.4269 -0.3961 -0.4878
 3943SOL    HW123888   8.978   9.033   5.340  1.0091  0.2409 -0.0660
 3943SOL    HW223889   9.065   9.004   5.205  1.0323 -0.1957  0.0424
 3944SOL     OW23890   6.427   5.234   7.985 -0.0172  0.4564 -0.1122
 3944SOL    HW123891   6.357   5.211   8.052 -0.2092  0.6450 -0.2447
 3944SOL    HW223892   6.388   5.296   7.917  0.5057  1.2013  0.2655
 3945SOL     OW23893   0.527   1.229   6.774 -0.0055  0.3889 -0.0236
 3945SOL    HW123894   0.507   1.155   6.839  0.0002  2.1904  2.1022
 3945SOL    HW223895   0.444   1.252   6.724 -0.1524 -0.6548 -0.2859
 3946SOL     OW23896   2.549   9.764   9.644 -0.7682  0.2965 -0.1553
 3946SOL    HW123897   2.483   9.703   9.598  1.4669 -2.0596 -0.3616
 3946SOL    HW223898   2.610   9.709   9.701  0.7801  2.4884  0.3284
 3947SOL     OW23899   1.899   8.770   1.592 -0.0299  0.3450 -0.2194
 3947SOL    HW123900   1.805   8.788   1.618 -0.4560  2.5045 -3.0250
 3947SOL    HW223901   1.943   8.855   1.562  3.0084 -0.5038  1.5628
 3948SOL     OW23902   0.922   0.667   7.822  0.0402  0.8307 -0.1564
 3948SOL    HW123903   0.940   0.753   7.773 -0.8795  0.3659 -1.3416
 3948SOL    HW223904   0.882   0.688   7.911  0.7078  1.6623 -0.0395
 3949SOL     OW23905   2.970   3.373   0.448  0.5370  0.1720 -0.5876
 3949SOL    HW123906   2.896   3.314   0.416  1.8238 -1.3991 -0.7115
 3949SOL    HW223907   2.943   3.469   0.436 -1.1462 -0.3743 -1.3701
 3950SOL     OW23908   7.375   3.942   8.093 -0.1563  0.0200  0.2639
 3950SOL    HW123909   7.393   3.849   8.062 -0.2499 -0.6936  2.3347
 3950SOL    HW223910   7.284   3.947   8.134 -0.8419  1.4222 -1.3293
 3951SOL     OW23911   3.899   3.623   8.536 -0.3391  0.2961 -0.1566
 3951SOL    HW123912   3.911   3.525   8.519 -0.7543  0.6948 -2.9414
 3951SOL    HW223913   3.961   3.651   8.610  0.4246 -1.8704  0.0698
 3952SOL     OW23914   0.456   1.506   3.761  0.9591 -0.0904 -0.0825
 3952SOL    HW123915   0.518   1.455   3.821  0.7134 -0.4949 -0.1680
 3952SOL    HW223916   0.383   1.546   3.816  0.7457 -0.4431 -0.1113
 3953SOL     OW23917   9.029   1.831   8.232  0.0146 -0.2624  0.3312
 3953SOL    HW123918   8.971   1.753   8.258 -0.1406  0.1257  1.1799
 3953SOL    HW223919   9.108   1.835   8.293  0.5249 -0.3253 -0.3287
 3954SOL     OW23920   0.824   5.742   1.516 -0.6711 -0.3374  0.2680
 3954SOL    HW123921   0.771   5.692   1.584 -2.0143  1.7159  0.7814
 3954SOL    HW223922   0.901   5.788   1.561 -0.8505  0.0366  0.1907
 3955SOL     OW23923   2.554   2.870   3.592 -0.1837  0.4122 -0.3412
 3955SOL    HW123924   2.640   2.888   3.641 -1.0128  0.8316  0.9931
 3955SOL    HW223925   2.505   2.956   3.580 -0.5925  0.1193 -0.7573
 3956SOL     OW23926   9.460   4.434   0.486  0.1333 -0.2847  0.2269
 3956SOL    HW123927   9.461   4.466   0.581  1.7313 -0.8216  0.4063
 3956SOL    HW223928   9.550   4.448   0.445 -0.8655  1.0121 -1.5936
 3957SOL     OW23929   3.884   6.899   8.847  0.1331  0.0422  0.4241
 3957SOL    HW123930   3.923   6.921   8.936 -0.7400  1.7214  0.4060
 3957SOL    HW223931   3.957   6.866   8.786  0.5872 -1.8975  1.9756
 3958SOL     OW23932   3.537   0.825   4.550  0.1033 -0.0970 -0.5227
 3958SOL    HW123933   3.530   0.844   4.453  0.3799 -0.9477 -0.7206
 3958SOL    HW223934   3.450   0.844   4.595  0.4136  1.7450 -0.6662
 3959SOL     OW23935   9.490   8.520   7.789 -0.0744 -0.0744  0.4926
 3959SOL    HW123936   9.516   8.494   7.695 -0.6232 -1.3656  0.6907
 3959SOL    HW223937   9.573   8.531   7.844  0.1702 -6.2578  1.6752
 3960SOL     OW23938   2.675   9.550   6.657  0.1899  0.3843 -0.6591
 3960SOL    HW123939   2.600   9.596   6.704  1.0064 -0.3450  1.4133
 3960SOL    HW223940   2.665   9.451   6.668  1.0953  0.2612 -0.9272
 3961SOL     OW23941   0.437   8.334   4.352 -0.5340 -0.2091  0.0304
 3961SOL    HW123942   0.378   8.273   4.299 -1.8961  1.2169 -0.1279
 3961SOL    HW223943   0.498   8.384   4.290 -2.8494  2.2322 -0.3369
 3962SOL     OW23944   5.921   2.614   2.312 -0.5099 -0.3019 -0.0197
 3962SOL    HW123945   5.910   2.555   2.233  0.0279 -0.8554  0.3157
 3962SOL    HW223946   5.908   2.710   2.285 -1.8716 -0.6058 -0.4605
 3963SOL     OW23947   2.413   3.870   1.089  0.9065  0.2533  0.2542
 3963SOL    HW123948   2.460   3.952   1.058  0.4332  0.7866  0.9127
 3963SOL    HW223949   2.315   3.878   1.068  1.2038 -1.1799 -1.8027
 3964SOL     OW23950   7.055   2.183   3.172  0.1718  0.7417 -0.3805
 3964SOL    HW123951   6.959   2.155   3.178  0.7818 -1.2290  0.5684
 3964SOL    HW223952   7.087   2.170   3.078  0.1729 -0.9775 -0.1733
 3965SOL     OW23953   8.076   4.338   8.628 -0.2302 -0.3223  0.0063
 3965SOL    HW123954   8.166   4.296   8.621  0.2455  0.5079  0.9432
 3965SOL    HW223955   8.027   4.301   8.707 -1.9801 -3.0495 -2.2465
 3966SOL     OW23956   1.289   2.086   6.649 -0.7222  0.0283 -0.2454
 3966SOL    HW123957   1.311   2.060   6.555 -0.8010  0.5085 -0.3961
 3966SOL    HW223958   1.310   2.010   6.710  3.1271  1.0819 -0.1144
 3967SOL     OW23959   0.439   9.785   0.899 -0.1029 -0.7159  0.1772
 3967SOL    HW123960   0.399   9.715   0.958 -1.4918 -0.3130 -0.2642
 3967SOL    HW223961   0.461   9.866   0.953 -1.5643 -0.2680  0.1342
 3968SOL     OW23962   9.302   8.702   4.977 -0.4056 -0.1644 -0.0615
 3968SOL    HW123963   9.241   8.756   4.919 -0.9135 -0.4169  0.2336
 3968SOL    HW223964   9.376   8.760   5.011  1.0084 -0.4587 -2.5169
 3969SOL     OW23965   9.712   3.807   0.739  0.1126  0.5837  0.0353
 3969SOL    HW123966   9.625   3.804   0.691 -0.9496 -0.3957  1.9657
 3969SOL    HW223967   9.777   3.865   0.688 -1.5804  1.1628 -1.5041
 3970SOL     OW23968   1.707   3.584   8.190 -0.1526  0.2629 -0.5637
 3970SOL    HW123969   1.754   3.500   8.164  2.3660  1.0651  1.1117
 3970SOL    HW223970   1.750   3.621   8.272 -2.6887  1.9903  0.0261
 3971SOL     OW23971   5.943   8.893   8.112  0.2790  0.6758 -0.7705
 3971SOL    HW123972   5.854   8.850   8.127 -0.5573  2.6214 -0.0206
 3971SOL    HW223973   5.942   8.941   8.023  0.4550  0.9770 -0.6109
 3972SOL     OW23974   7.379   1.903   3.210 -0.4533  0.3476 -0.5259
 3972SOL    HW123975   7.417   1.811   3.212  1.7108  1.2136  0.3511
 3972SOL    HW223976   7.377   1.937   3.116 -0.4345 -0.2830 -0.7544
 3973SOL     OW23977   7.415   7.570   7.235 -0.1913 -0.4333 -0.5202
 3973SOL    HW123978   7.426   7.640   7.305 -0.1642  1.7146 -2.5876
 3973SOL    HW223979   7.493   7.575   7.171 -1.7316 -0.2753 -2.4293
 3974SOL     OW23980   8.313   2.663   0.886 -0.0222 -0.1186 -0.0626
 3974SOL    HW123981   8.394   2.695   0.935  0.0218 -0.1087 -0.1428
 3974SOL    HW223982   8.339   2.588   0.825  0.2754  1.1339 -1.5001
 3975SOL     OW23983   2.934   3.254   1.563 -0.0627 -0.3511  0.5271
 3975SOL    HW123984   2.934   3.165   1.609 -0.9049  0.2785  1.7635
 3975SOL    HW223985   2.927   3.240   1.464  1.1801 -1.6988  0.6060
 3976SOL     OW23986   3.362   6.764   6.765  0.8104 -0.0693 -0.0125
 3976SOL    HW123987   3.437   6.762   6.700 -0.0252 -0.0933 -0.9804
 3976SOL    HW223988   3.378   6.696   6.837  1.9553  0.2787  0.0673
 3977SOL     OW23989   3.646   4.281   0.073 -0.8330  0.3203  0.0265
 3977SOL    HW123990   3.698   4.208   0.028 -0.1182  0.7282  0.1879
 3977SOL    HW223991   3.662   4.277   0.171 -0.7865  0.6970  0.0347
 3978SOL     OW23992   7.421   6.930   7.348  0.1450  0.0227  0.0459
 3978SOL    HW123993   7.349   6.881   7.397 -0.6658 -0.9123 -2.0359
 3978SOL    HW223994   7.443   7.014   7.397 -1.4332 -0.3386  1.4167
 3979SOL     OW23995   7.133   4.239   9.942  1.0300  0.1369  0.2357
 3979SOL    HW123996   7.127   4.201   9.850 -1.8732 -0.9106  0.8060
 3979SOL    HW223997   7.075   4.320   9.948  0.1683 -0.5517  1.4813
 3980SOL     OW23998   8.804   1.491   4.723 -0.5666 -0.6553  0.2878
 3980SOL    HW123999   8.762   1.545   4.651 -1.2766  0.2922  1.3987
 3980SOL    HW224000   8.873   1.545   4.770 -0.0838 -1.2796  0.3130
 3981SOL     OW24001   0.122   8.388   1.800  0.5563  0.2358 -0.0144
 3981SOL    HW124002   0.050   8.403   1.868  0.2588  0.6722 -0.4296
 3981SOL    HW224003   0.138   8.472   1.749  1.0835  0.0278 -0.2015
 3982SOL     OW24004   2.424   1.371   2.852  0.2303 -0.2765 -0.3660
 3982SOL    HW124005   2.370   1.456   2.858  1.5070  0.6439 -1.5926
 3982SOL    HW224006   2.362   1.293   2.844 -0.9790  0.5129  0.9623
 3983SOL     OW24007   3.299   0.881   0.555 -0.1065 -0.1478 -0.4096
 3983SOL    HW124008   3.257   0.860   0.643 -1.5901  2.6784 -0.3745
 3983SOL    HW224009   3.231   0.870   0.482  0.2576  0.4323 -0.8420
 3984SOL     OW24010   4.634   8.223   8.141 -0.0024  0.3515  0.6016
 3984SOL    HW124011   4.732   8.234   8.129  0.2168  2.3439  3.5767
 3984SOL    HW224012   4.615   8.133   8.181  0.4344 -0.6563 -1.3962
 3985SOL     OW24013   2.413   9.729   5.149  0.2571 -0.3980  0.0449
 3985SOL    HW124014   2.475   9.650   5.152 -0.5834 -1.1440 -1.6986
 3985SOL    HW224015   2.359   9.733   5.233  0.9880 -1.1142  0.5555
 3986SOL     OW24016   9.844   0.905   8.789 -0.2608  0.4947 -0.0541
 3986SOL    HW124017   9.764   0.878   8.736  0.2801  0.0834 -0.6601
 3986SOL    HW224018   9.905   0.961   8.733  0.6317 -0.4891 -0.0798
 3987SOL     OW24019   4.407   3.556   7.884 -0.4873  0.1297 -0.0992
 3987SOL    HW124020   4.491   3.562   7.830  0.6752 -1.9380  1.4374
 3987SOL    HW224021   4.387   3.461   7.906 -1.2291  0.8637  2.6528
 3988SOL     OW24022   2.566   4.312   0.953 -0.7318  0.4659  0.1778
 3988SOL    HW124023   2.566   4.405   0.989 -1.2195  0.4221  0.3007
 3988SOL    HW224024   2.604   4.311   0.860  1.4583  0.4343  1.0367
 3989SOL     OW24025   3.041   5.021   6.724 -0.5573  0.3433  0.4663
 3989SOL    HW124026   3.103   4.965   6.669  1.5837  3.0759 -0.0524
 3989SOL    HW224027   2.988   5.081   6.664 -0.1543  1.4457  1.1928
 3990SOL     OW24028   4.342   7.917   4.468  0.1201  0.2036 -0.1807
 3990SOL    HW124029   4.344   7.955   4.376  1.0679 -0.5689 -0.4912
 3990SOL    HW224030   4.367   7.987   4.534  0.0212  0.6079 -0.5692
 3991SOL     OW24031   1.842   3.436   3.508 -0.1174  0.1943  0.2746
 3991SOL    HW124032   1.763   3.435   3.569 -0.6824  0.0731 -0.4548
 3991SOL    HW224033   1.844   3.351   3.454 -0.4511  0.9245 -0.9112
 3992SOL     OW24034   5.082   8.395   9.086 -0.2997 -0.1256  0.0759
 3992SOL    HW124035   5.096   8.483   9.039 -0.7781 -0.1220 -0.0526
 3992SOL    HW224036   5.025   8.409   9.167  1.4054  0.0609  1.2814
 3993SOL     OW24037   9.209   7.788   3.266 -0.2332 -0.1563 -0.5120
 3993SOL    HW124038   9.120   7.830   3.250 -0.2612 -0.0132  0.0251
 3993SOL    HW224039   9.202   7.689   3.254 -0.4050 -0.1203 -0.7196
 3994SOL     OW24040   9.925   9.590   7.775  0.1634 -0.0280  0.4562
 3994SOL    HW124041   9.937   9.502   7.822  0.4896  0.5438  1.4703
 3994SOL    HW224042   9.881   9.575   7.687  5.2738 -1.9344 -2.0126
 3995SOL     OW24043   4.488   7.723   8.102 -0.1836  0.8435 -0.2964
 3995SOL    HW124044   4.461   7.766   8.016 -1.0399  1.3077  0.2053
 3995SOL    HW224045   4.415   7.663   8.134  1.4073 -1.9245 -1.5584
 3996SOL     OW24046   9.482   2.626   6.976  0.6376  0.4867 -0.5753
 3996SOL    HW124047   9.405   2.563   6.981  0.0963  1.0864 -1.2247
 3996SOL    HW224048   9.496   2.655   6.881  2.3864 -0.4947 -0.6335
 3997SOL     OW24049   5.315   1.269   5.096  0.5089  0.0611 -0.6170
 3997SOL    HW124050   5.302   1.260   4.997 -0.4124  1.5074 -0.6520
 3997SOL    HW224051   5.250   1.210   5.144  0.2350  0.1545 -0.8698
 3998SOL     OW24052   7.721   0.665   7.629 -0.0545 -0.2132 -0.5241
 3998SOL    HW124053   7.701   0.687   7.724  0.1422 -0.9460 -0.3102
 3998SOL    HW224054   7.663   0.721   7.569  0.4493  0.8820  0.0003
 3999SOL     OW24055   4.522   3.491   9.110  0.4193  0.9110 -0.0589
 3999SOL    HW124056   4.619   3.475   9.092  0.1498  1.1731 -1.7574
 3999SOL    HW224057   4.470   3.408   9.095  0.4609  0.5393  1.6668
 4000SOL     OW24058   3.961   5.929   3.916  0.6694  0.2933 -0.2747
 4000SOL    HW124059   3.939   5.910   3.821  0.2675 -1.0289  0.0657
 4000SOL    HW224060   3.905   6.005   3.950  1.8592  1.7337 -1.5019
 4001SOL     OW24061   4.480   8.358   9.168 -0.4277  0.7214  0.0763
 4001SOL    HW124062   4.449   8.336   9.076  2.4352 -0.4668 -0.6601
 4001SOL    HW224063   4.459   8.281   9.229  0.3447  0.2517 -0.2453
 4002SOL     OW24064   1.199   2.440   2.784 -0.4527 -0.7621  0.3155
 4002SOL    HW124065   1.161   2.450   2.692  0.5230 -0.0179 -0.0054
 4002SOL    HW224066   1.182   2.347   2.816  0.8048 -1.6044 -1.3509
 4003SOL     OW24067   7.539   6.623   7.181  0.2994  0.5104  0.0617
 4003SOL    HW124068   7.467   6.685   7.210  0.4909  0.2819  1.0597
 4003SOL    HW224069   7.628   6.666   7.195  0.3801  0.6758 -0.8867
 4004SOL     OW24070   0.983   8.233   3.156 -0.0961 -0.9223  0.2261
 4004SOL    HW124071   1.073   8.227   3.113 -1.1616 -0.2028 -2.2087
 4004SOL    HW224072   0.960   8.328   3.175 -0.4223 -1.0857  0.6882
 4005SOL     OW24073   1.603   9.326   0.231  0.0106 -0.0538 -0.1920
 4005SOL    HW124074   1.622   9.265   0.309 -0.6647  0.8941  0.7326
 4005SOL    HW224075   1.542   9.400   0.261  1.8849  1.8512 -0.9498
 4006SOL     OW24076   1.184   8.696   1.429 -0.1576  0.3253 -0.1172
 4006SOL    HW124077   1.172   8.726   1.524 -0.7998 -0.0378 -0.0831
 4006SOL    HW224078   1.095   8.688   1.385  0.1797  1.2641 -0.9981
 4007SOL     OW24079   4.165   4.141   8.481 -0.3357  0.8691  0.0477
 4007SOL    HW124080   4.232   4.078   8.521 -0.1750  1.0655  0.0849
 4007SOL    HW224081   4.075   4.125   8.523 -0.0480  1.4634  0.8901
 4008SOL     OW24082   7.070   6.773   2.901 -0.1907 -0.2192 -0.3643
 4008SOL    HW124083   6.998   6.792   2.834 -2.4982 -3.4099  1.0648
 4008SOL    HW224084   7.062   6.837   2.977 -0.7418  0.2570 -0.8151
 4009SOL     OW24085   5.636   1.259   5.705 -0.0038  0.0893 -0.2831
 4009SOL    HW124086   5.715   1.210   5.742 -0.0651 -0.5710 -1.0343
 4009SOL    HW224087   5.666   1.326   5.638 -0.0992 -0.2679 -0.6811
 4010SOL     OW24088   4.863   7.292   4.009 -0.1101  0.5470  0.1220
 4010SOL    HW124089   4.938   7.345   4.049  0.0024 -0.7633  1.6740
 4010SOL    HW224090   4.848   7.209   4.062 -1.5146 -0.0806 -1.2072
 4011SOL     OW24091   2.988   9.890   1.421  0.2146 -0.2424  0.1858
 4011SOL    HW124092   2.926   9.812   1.426 -0.2237  0.0573 -0.4483
 4011SOL    HW224093   3.080   9.858   1.397  0.4579 -0.7547  1.7235
 4012SOL     OW24094   7.621   5.555   1.791 -0.1002 -0.2481  0.0251
 4012SOL    HW124095   7.528   5.582   1.819 -0.0126 -1.2360  1.3156
 4012SOL    HW224096   7.662   5.629   1.738  0.3756  2.4742  3.9780
 4013SOL     OW24097   7.932   4.422   8.409 -0.1081 -0.2418  0.0538
 4013SOL    HW124098   7.970   4.365   8.336 -0.3175  0.7241 -0.8211
 4013SOL    HW224099   7.970   4.393   8.497 -0.1720 -1.7024 -0.3705
 4014SOL     OW24100   8.208   4.479   1.836 -0.1772 -0.6153 -0.2727
 4014SOL    HW124101   8.123   4.466   1.888 -0.4847  0.1428 -0.5802
 4014SOL    HW224102   8.279   4.514   1.896 -0.8123  1.2267 -0.5449
 4015SOL     OW24103   9.720   4.031   6.807  0.0314 -0.5725 -0.1305
 4015SOL    HW124104   9.819   4.019   6.811  0.1920  0.1724 -1.7349
 4015SOL    HW224105   9.675   3.947   6.838  1.1557 -1.5377 -1.0605
 4016SOL     OW24106   7.922   5.773   7.692  0.1347  0.5862  0.3388
 4016SOL    HW124107   7.899   5.684   7.733 -0.0174  0.7745  0.6648
 4016SOL    HW224108   7.858   5.792   7.618 -1.3140  1.4953  1.7929
 4017SOL     OW24109   6.655   8.930   8.065 -0.2187 -0.5800 -0.4750
 4017SOL    HW124110   6.743   8.949   8.022  0.0281  1.3498  0.8416
 4017SOL    HW224111   6.665   8.854   8.129  0.3143 -0.8356 -0.8596
 4018SOL     OW24112   2.055   9.963   0.586  0.2455  0.4130  0.4572
 4018SOL    HW124113   2.064   9.925   0.493  0.2900  0.3083  0.5044
 4018SOL    HW224114   2.121   9.918   0.646  0.0622  0.3261  0.5903
 4019SOL     OW24115   2.114   5.832   4.298 -0.6749 -0.3267 -0.1150
 4019SOL    HW124116   2.200   5.859   4.256 -0.4535 -1.3575 -0.3331
 4019SOL    HW224117   2.111   5.867   4.392 -0.2666  0.1862 -0.2882
 4020SOL     OW24118   3.703   5.600   7.164 -0.1171 -0.0446 -0.5899
 4020SOL    HW124119   3.644   5.554   7.097  0.8796 -0.7972 -0.9584
 4020SOL    HW224120   3.732   5.535   7.233 -1.0171  0.6972  0.5120
 4021SOL     OW24121   1.760   6.090   3.569  1.0933 -0.0253  0.3871
 4021SOL    HW124122   1.832   6.159   3.576 -0.3697  1.4271  1.5816
 4021SOL    HW224123   1.675   6.133   3.537  0.4086 -1.4568  0.2329
 4022SOL     OW24124   3.129   6.996   1.023  0.2296 -0.3141  0.1662
 4022SOL    HW124125   3.053   6.963   0.967 -0.1067  0.8375 -0.0772
 4022SOL    HW224126   3.095   7.060   1.092  0.7659 -1.0305  1.1266
 4023SOL     OW24127   1.235   5.763   5.027  0.3537 -0.2917 -0.4741
 4023SOL    HW124128   1.265   5.786   4.935  0.2874  1.4275 -0.0840
 4023SOL    HW224129   1.296   5.807   5.094 -1.3146  0.8817  0.3037
 4024SOL     OW24130   6.880   8.455   3.428 -0.4735  0.0179 -0.2989
 4024SOL    HW124131   6.876   8.529   3.494 -0.7060 -0.7024  0.4979
 4024SOL    HW224132   6.789   8.438   3.390 -0.8229 -1.2037  1.0285
 4025SOL     OW24133   4.632   8.837   8.024 -0.1060  0.1477  0.2016
 4025SOL    HW124134   4.707   8.821   8.088  0.2679  0.1397 -0.2429
 4025SOL    HW224135   4.668   8.848   7.932 -0.7266 -1.0294 -0.2021
 4026SOL     OW24136   2.433   6.892   3.061 -0.7155  0.5375  0.2717
 4026SOL    HW124137   2.460   6.963   3.125 -0.7294  0.5094  0.3084
 4026SOL    HW224138   2.345   6.916   3.019 -0.3450  0.9153 -0.2879
 4027SOL     OW24139   7.725   5.514   2.447 -0.2265 -0.0855  0.2380
 4027SOL    HW124140   7.637   5.470   2.461 -0.2185  0.2818  1.4793
 4027SOL    HW224141   7.719   5.576   2.368 -0.6434 -1.1827 -0.5967
 4028SOL     OW24142   7.692   5.803   1.301  0.1351  0.0395 -0.1671
 4028SOL    HW124143   7.767   5.805   1.366 -0.3333 -0.2078  0.3857
 4028SOL    HW224144   7.625   5.733   1.328 -0.5992  0.6733 -0.3061
 4029SOL     OW24145   7.573   3.409   2.693  0.3496 -0.3088 -0.0626
 4029SOL    HW124146   7.603   3.442   2.604 -2.1202  0.8475 -0.4934
 4029SOL    HW224147   7.512   3.331   2.681  0.6077 -0.6304  0.6637
 4030SOL     OW24148   5.213   0.928   0.822  0.2576  0.1727  0.2251
 4030SOL    HW124149   5.230   0.887   0.732 -0.3592  0.3513  0.0315
 4030SOL    HW224150   5.154   0.867   0.876  1.0845 -0.2058  0.7204
 4031SOL     OW24151   9.460   8.853   7.916 -0.4689  0.1527  0.6094
 4031SOL    HW124152   9.406   8.787   7.968 -0.9706  0.6336  0.7132
 4031SOL    HW224153   9.539   8.808   7.875 -1.4381 -0.7465 -0.2795
 4032SOL     OW24154   4.929   3.141   4.891 -0.0025  0.2610  0.7434
 4032SOL    HW124155   4.933   3.073   4.817  1.1656  1.0084  0.1064
 4032SOL    HW224156   4.942   3.095   4.979  2.3387 -0.1669  0.2047
 4033SOL     OW24157   0.054   2.629   3.121 -0.1411 -0.4424  0.1667
 4033SOL    HW124158   0.088   2.684   3.044 -0.0822 -0.2996  0.2953
 4033SOL    HW224159  -0.040   2.655   3.143  0.2880  0.4195  0.9870
 4034SOL     OW24160   1.923   1.046   7.707  0.2021  0.0049 -0.3006
 4034SOL    HW124161   1.863   1.005   7.639  0.4378  1.7630 -1.5886
 4034SOL    HW224162   2.015   1.008   7.698  0.8108  1.8968 -2.5379
 4035SOL     OW24163   7.265   9.277   7.650  0.1384  0.3657  0.5701
 4035SOL    HW124164   7.174   9.258   7.615  0.7419 -1.2544 -0.2030
 4035SOL    HW224165   7.306   9.353   7.598 -0.9507  1.4501  1.2800
 4036SOL     OW24166   2.318   9.394   5.600  0.6821  0.1102  0.1821
 4036SOL    HW124167   2.348   9.487   5.623  1.6370 -0.0308 -0.4397
 4036SOL    HW224168   2.221   9.394   5.579  0.7560  1.0509 -0.1941
 4037SOL     OW24169   0.846   7.219   0.166 -0.4218  0.5480  0.6504
 4037SOL    HW124170   0.819   7.172   0.251  0.6116 -1.4516 -0.0924
 4037SOL    HW224171   0.780   7.198   0.094 -0.2050  0.5986  0.4378
 4038SOL     OW24172   3.306   6.142   3.996 -0.0459  0.0090 -0.1867
 4038SOL    HW124173   3.245   6.102   4.065 -0.9458  0.7361 -0.5586
 4038SOL    HW224174   3.254   6.165   3.914  0.8403  0.0934 -0.7354
 4039SOL     OW24175   8.175   9.528   9.876  0.0069  0.3243 -0.3355
 4039SOL    HW124176   8.255   9.484   9.837 -0.1744  0.4078 -0.8110
 4039SOL    HW224177   8.200   9.573   9.962  0.2445 -0.4880  0.0233
 4040SOL     OW24178   7.939   6.756   5.516 -0.1089  0.3419 -0.4095
 4040SOL    HW124179   7.986   6.669   5.532 -3.5112 -1.2586  1.4633
 4040SOL    HW224180   7.988   6.829   5.563  2.3066 -0.6805 -1.2700
 4041SOL     OW24181   9.941   4.797   7.630 -0.3063 -0.6207  0.1447
 4041SOL    HW124182   9.868   4.845   7.679  0.3670  0.6920 -0.1167
 4041SOL    HW224183   9.993   4.741   7.694  0.7980  1.3651  1.0283
 4042SOL     OW24184   4.577   9.004   7.264  0.0655  0.0011  0.5492
 4042SOL    HW124185   4.653   8.941   7.279 -1.3540 -2.1631 -1.1861
 4042SOL    HW224186   4.600   9.067   7.190  0.7234  0.3057  1.0058
 4043SOL     OW24187   0.072   9.682   5.651 -0.2692  0.0003 -0.2373
 4043SOL    HW124188   0.160   9.705   5.692  0.1783 -0.6237 -0.8541
 4043SOL    HW224189   0.082   9.676   5.552 -1.2691  1.1345 -0.4163
 4044SOL     OW24190   0.683   8.615   1.098 -0.3163  0.0108 -0.8403
 4044SOL    HW124191   0.765   8.670   1.082  0.7329 -0.7674  1.6481
 4044SOL    HW224192   0.613   8.672   1.141  0.3405 -0.2502  0.6202
 4045SOL     OW24193   1.030   9.316   8.006  0.4492 -0.0183  0.4523
 4045SOL    HW124194   1.065   9.281   7.920  0.4558 -0.1422  0.5051
 4045SOL    HW224195   0.951   9.262   8.035 -1.0061  1.4427 -0.6378
 4046SOL     OW24196   3.273   7.085   1.939  0.4308  0.5735  0.4653
 4046SOL    HW124197   3.357   7.033   1.953  1.3065  1.8338  0.0071
 4046SOL    HW224198   3.264   7.107   1.842 -1.0686 -0.5920  0.3180
 4047SOL     OW24199   8.310   2.596   7.483 -0.7700 -0.4564  0.2495
 4047SOL    HW124200   8.329   2.624   7.389  1.3310 -3.5499 -0.3323
 4047SOL    HW224201   8.237   2.527   7.482  2.6182 -4.2617  0.2171
 4048SOL     OW24202   4.824   1.494   0.022  0.1903  0.7596 -0.3109
 4048SOL    HW124203   4.746   1.556   0.013  0.1656  0.6437 -0.8884
 4048SOL    HW224204   4.793   1.406   0.057  0.2788  1.1923  0.8641
 4049SOL     OW24205   8.374   3.448   4.739 -0.0514  0.4007  0.2075
 4049SOL    HW124206   8.304   3.515   4.714  0.0806  0.0854 -1.0589
 4049SOL    HW224207   8.332   3.359   4.754 -0.1566  0.6389  1.3467
 4050SOL     OW24208   1.663   8.670   4.725  0.3489 -0.4878 -0.0049
 4050SOL    HW124209   1.703   8.706   4.809  1.9901 -2.6784  0.2016
 4050SOL    HW224210   1.732   8.672   4.652 -0.7172  0.3559 -1.0037
 4051SOL     OW24211   9.397   1.598   1.094  0.6968  0.3596  0.1623
 4051SOL    HW124212   9.486   1.606   1.139  1.6906  0.1163 -1.7253
 4051SOL    HW224213   9.405   1.624   0.998 -0.9409 -1.0981 -0.4067
 4052SOL     OW24214   3.880   2.101   3.625  0.1968  0.4712 -0.0633
 4052SOL    HW124215   3.834   2.026   3.672  1.7667  0.2133  1.1302
 4052SOL    HW224216   3.821   2.138   3.553 -0.9230 -1.3382 -0.0891
 4053SOL     OW24217   3.525   5.976   4.310  0.3460 -0.0577  0.0638
 4053SOL    HW124218   3.522   5.924   4.224 -1.3630  2.3797 -1.3993
 4053SOL    HW224219   3.613   6.024   4.316  0.2718  0.1691 -0.5713
 4054SOL     OW24220   8.763   0.839   4.683 -0.7327  0.3877  0.6397
 4054SOL    HW124221   8.679   0.786   4.697 -0.3879 -0.7573 -1.4439
 4054SOL    HW224222   8.741   0.924   4.636 -0.7628  0.1931  0.2992
 4055SOL     OW24223   3.618   5.986   0.138  0.2514  0.0840  0.3830
 4055SOL    HW124224   3.651   6.074   0.172  0.1256  0.1616  0.3075
 4055SOL    HW224225   3.521   5.977   0.160 -0.0420  0.5082 -0.6995
 4056SOL     OW24226   5.033   5.054   1.454  0.1917 -0.3327  0.2937
 4056SOL    HW124227   4.963   5.125   1.462  1.7604  1.5532 -2.1603
 4056SOL    HW224228   5.054   5.039   1.358  1.7345 -2.3184  0.9181
 4057SOL     OW24229   4.327   2.193   1.815  0.2576  0.7402 -0.3947
 4057SOL    HW124230   4.228   2.182   1.803  0.5998 -0.3942 -2.3883
 4057SOL    HW224231   4.364   2.244   1.738  1.5208 -0.6843 -0.7569
 4058SOL     OW24232   3.921   7.232   7.825 -0.2017 -0.4672  0.0742
 4058SOL    HW124233   3.946   7.143   7.862 -2.4441 -1.1098  0.0954
 4058SOL    HW224234   3.907   7.225   7.726  1.9702  0.4114 -0.3310
 4059SOL     OW24235   9.734   9.176   8.542  0.2318  0.3896 -0.5624
 4059SOL    HW124236   9.725   9.272   8.565  4.9231  0.8219  0.0308
 4059SOL    HW224237   9.674   9.154   8.465 -0.2839  3.9693 -1.2507
 4060SOL     OW24238   1.396   2.409   9.401 -0.3930 -0.5397 -0.4597
 4060SOL    HW124239   1.409   2.508   9.406  0.4301 -0.6543 -0.1344
 4060SOL    HW224240   1.315   2.383   9.452  0.0103 -0.1455  0.3983
 4061SOL     OW24241   3.110   8.899   0.704 -0.5575  0.4636 -0.2179
 4061SOL    HW124242   3.207   8.917   0.689 -0.2692 -0.9118 -0.1207
 4061SOL    HW224243   3.056   8.941   0.632  0.0429  1.9369  0.1750
 4062SOL     OW24244   6.405   2.350   9.951 -0.2881 -0.0782 -0.5280
 4062SOL    HW124245   6.340   2.387  10.018  0.4232 -0.5699  0.4552
 4062SOL    HW224246   6.362   2.343   9.862 -1.0495  1.2493 -0.2744
 4063SOL     OW24247   9.847   7.848   4.904 -0.4689  0.0729  0.3939
 4063SOL    HW124248   9.934   7.878   4.864 -0.7462 -0.7600 -0.8645
 4063SOL    HW224249   9.833   7.751   4.883 -2.0046  0.3553  0.0394
 4064SOL     OW24250   8.949   1.980   3.630 -0.5700  0.2185 -0.5434
 4064SOL    HW124251   9.031   2.033   3.607 -0.4850  0.4998  0.4089
 4064SOL    HW224252   8.868   2.028   3.597 -0.6095  1.6891  1.5584
 4065SOL     OW24253   9.107   7.261   9.225  0.1766 -0.0888  0.2290
 4065SOL    HW124254   9.023   7.251   9.279  0.7456  0.2270  1.1689
 4065SOL    HW224255   9.183   7.287   9.285  0.9569 -0.4049 -0.6135
 4066SOL     OW24256   4.652   8.094   7.599  0.4148  0.0323 -0.3597
 4066SOL    HW124257   4.687   8.137   7.516 -0.1582  2.7093  0.7548
 4066SOL    HW224258   4.682   8.145   7.679 -2.2549 -0.2307  0.8646
 4067SOL     OW24259   2.526   6.369   9.959 -0.3334 -0.1984 -0.1016
 4067SOL    HW124260   2.623   6.351   9.974 -0.8270 -0.7328  2.5644
 4067SOL    HW224261   2.486   6.295   9.905  0.6386 -0.1449 -0.9147
 4068SOL     OW24262   7.003   2.685   8.618  0.4198 -0.3165 -0.0610
 4068SOL    HW124263   6.983   2.782   8.606 -0.6515 -0.6866 -1.3619
 4068SOL    HW224264   7.103   2.671   8.618  0.5765  0.8075  0.3964
 4069SOL     OW24265   3.363   5.688   8.366  0.3281 -0.3682  0.2166
 4069SOL    HW124266   3.427   5.681   8.443 -0.0255 -0.3107  0.5237
 4069SOL    HW224267   3.281   5.635   8.388 -0.4480  0.9668  0.5741
 4070SOL     OW24268   0.252   0.631   1.736  0.2664  0.2224  0.1165
 4070SOL    HW124269   0.242   0.676   1.647 -0.3481  0.0369  0.0870
 4070SOL    HW224270   0.349   0.621   1.757  0.4998 -2.4068 -1.9060
 4071SOL     OW24271   0.993   3.771   4.146  0.8031 -0.4473 -0.0625
 4071SOL    HW124272   1.068   3.834   4.169  0.8371 -0.3480 -0.4428
 4071SOL    HW224273   0.926   3.819   4.090 -0.3225 -0.0887  1.5409
 4072SOL     OW24274   2.613   9.507   4.932  0.5304 -0.0638 -0.0556
 4072SOL    HW124275   2.596   9.541   5.024  1.2252 -0.6952  0.3097
 4072SOL    HW224276   2.630   9.584   4.870  3.7020  0.2093  1.0894
 4073SOL     OW24277   8.952   7.098   8.110  0.4269  0.3404 -0.3838
 4073SOL    HW124278   8.854   7.101   8.090  0.2832  0.1355  0.2635
 4073SOL    HW224279   8.999   7.043   8.041 -0.0461 -0.3128 -0.1864
 4074SOL     OW24280   9.937   6.270   7.128  0.1531 -0.6491 -0.4394
 4074SOL    HW124281   9.927   6.174   7.103 -1.8427 -0.5325 -0.1530
 4074SOL    HW224282   9.875   6.327   7.073  1.3375  0.4906 -0.6342
 4075SOL     OW24283   6.363   9.249   5.186  0.0873  0.6194  0.2018
 4075SOL    HW124284   6.460   9.229   5.199  0.4225  2.1604  0.1543
 4075SOL    HW224285   6.335   9.220   5.094  0.6450  0.6969  0.0096
 4076SOL     OW24286   9.166   6.500   7.325 -0.1957 -0.2584 -0.0520
 4076SOL    HW124287   9.263   6.479   7.313  0.0877  1.0199 -0.0056
 4076SOL    HW224288   9.119   6.496   7.237  0.3712  1.4628 -0.4458
 4077SOL     OW24289   8.721   7.991   9.456  0.3980  0.0878  0.0715
 4077SOL    HW124290   8.779   8.007   9.535  1.1214 -1.7265 -0.0622
 4077SOL    HW224291   8.758   7.915   9.402 -0.8776  0.3542 -1.2279
 4078SOL     OW24292   3.006   6.116   8.945  0.0646 -0.6486 -0.3044
 4078SOL    HW124293   3.021   6.196   8.886 -1.7495 -0.6319 -0.7648
 4078SOL    HW224294   3.088   6.100   9.000  0.2943  1.7968  0.1130
 4079SOL     OW24295   7.200   6.763   6.684 -0.8688 -0.2250  0.2506
 4079SOL    HW124296   7.134   6.734   6.615 -1.0066 -1.7561  1.0033
 4079SOL    HW224297   7.155   6.767   6.773 -0.6646  1.6257  0.2964
 4080SOL     OW24298   3.830   0.807   5.465 -0.1799  0.5579  0.1398
 4080SOL    HW124299   3.876   0.825   5.378  0.1500 -1.1436 -0.0574
 4080SOL    HW224300   3.774   0.725   5.457 -1.3442  1.2445  1.0962
 4081SOL     OW24301   9.984   4.162   5.487  0.3960  0.0847  0.0780
 4081SOL    HW124302  10.073   4.116   5.488 -0.7814 -2.2627 -0.4103
 4081SOL    HW224303   9.927   4.126   5.560 -0.8696  0.1072 -0.8776
 4082SOL     OW24304   5.553   9.103   7.869 -0.0044  0.0541 -0.2179
 4082SOL    HW124305   5.470   9.116   7.923  0.1350 -1.2560  0.3448
 4082SOL    HW224306   5.632   9.129   7.924  0.0797 -0.4730 -0.0857
 4083SOL     OW24307   2.211   7.166   0.209 -0.0896 -0.7257  0.5953
 4083SOL    HW124308   2.255   7.104   0.274  0.6063 -1.0005 -0.1326
 4083SOL    HW224309   2.172   7.113   0.134 -0.5638 -0.3780  0.5991
 4084SOL     OW24310   0.290   9.776   2.006 -0.1326  0.1135  0.1330
 4084SOL    HW124311   0.333   9.735   1.925 -1.7913 -1.3635 -0.0310
 4084SOL    HW224312   0.215   9.835   1.978  0.1646  0.6827  0.5326
 4085SOL     OW24313   4.334   4.511   6.314 -0.4206 -0.1634  0.0889
 4085SOL    HW124314   4.248   4.555   6.339 -1.1817 -1.4132 -0.2764
 4085SOL    HW224315   4.349   4.431   6.372  0.5639  0.1221  0.2388
 4086SOL     OW24316   4.340   0.434   3.701 -0.3953 -0.0036  0.2494
 4086SOL    HW124317   4.266   0.483   3.655 -1.0326 -1.7955 -0.6879
 4086SOL    HW224318   4.359   0.477   3.790 -0.4843  2.2899 -0.8148
 4087SOL     OW24319   2.067   9.830   3.173 -0.2451  0.5462  0.2162
 4087SOL    HW124320   2.148   9.783   3.139 -1.4082 -0.2037 -1.5426
 4087SOL    HW224321   1.999   9.839   3.100 -0.6178  3.7059  0.8928
 4088SOL     OW24322   6.809   5.441   8.883 -0.0369 -0.1713  0.2974
 4088SOL    HW124323   6.880   5.371   8.874 -2.1640 -2.2045 -1.6289
 4088SOL    HW224324   6.794   5.461   8.979  1.5641 -1.3686  0.8225
 4089SOL     OW24325   9.088   5.287   2.363 -0.0136  0.0193 -0.1559
 4089SOL    HW124326   9.166   5.271   2.423 -0.7595  1.6631  1.3044
 4089SOL    HW224327   9.022   5.212   2.372  0.0772  0.0492  0.7603
 4090SOL     OW24328   5.224   5.489   8.290  0.2507  0.7546 -0.0619
 4090SOL    HW124329   5.259   5.572   8.334  0.0622  0.6607  0.2669
 4090SOL    HW224330   5.124   5.495   8.284  0.1972  0.3551  0.3727
 4091SOL     OW24331   8.022   8.595   2.999  0.3369  0.1809 -0.3787
 4091SOL    HW124332   8.109   8.546   3.006 -0.9844 -2.1133  0.7900
 4091SOL    HW224333   8.034   8.689   3.030  2.2554 -0.2895  0.3681
 4092SOL     OW24334   6.990   8.867   6.507 -0.0816 -0.8653  0.0495
 4092SOL    HW124335   6.911   8.926   6.521  0.9199  0.6496 -0.5840
 4092SOL    HW224336   6.965   8.772   6.528 -1.4224 -0.0964  2.0999
 4093SOL     OW24337   2.715   9.318   7.973 -0.5078  0.3570  0.0214
 4093SOL    HW124338   2.728   9.402   7.920 -0.7358 -0.4811 -1.3948
 4093SOL    HW224339   2.699   9.241   7.910  0.4134 -0.8791  1.2697
 4094SOL     OW24340   0.612   5.325   7.995 -0.1688 -0.3161 -0.3006
 4094SOL    HW124341   0.566   5.316   7.907 -1.4610  0.8484  0.2382
 4094SOL    HW224342   0.605   5.239   8.045  0.0164 -0.7827 -1.0806
 4095SOL     OW24343   8.244   3.479   1.943  0.5155  0.7645  0.1252
 4095SOL    HW124344   8.197   3.522   2.019 -0.5173  0.6304 -0.4320
 4095SOL    HW224345   8.202   3.508   1.857 -0.5187 -1.7211 -0.2415
 4096SOL     OW24346   4.428   9.382   3.354 -0.8209 -0.5277 -0.0522
 4096SOL    HW124347   4.409   9.309   3.419  1.5516 -3.1074 -2.1289
 4096SOL    HW224348   4.361   9.380   3.280 -2.1305  0.9266  1.0603
 4097SOL     OW24349   2.145   5.753   6.401  0.2591 -0.5502  0.0147
 4097SOL    HW124350   2.078   5.713   6.339  0.4832 -0.6835 -0.1433
 4097SOL    HW224351   2.207   5.681   6.433  1.5676 -0.0852 -1.4194
 4098SOL     OW24352   7.167   0.452   4.387 -0.2341 -0.0726 -0.0214
 4098SOL    HW124353   7.199   0.510   4.312 -2.2850  0.6473 -0.3820
 4098SOL    HW224354   7.198   0.491   4.474  1.4229 -0.4404 -0.4220
 4099SOL     OW24355   8.286   7.619   9.946 -0.0972  0.4254  0.4353
 4099SOL    HW124356   8.372   7.670   9.946 -0.2003  0.6037  0.5241
 4099SOL    HW224357   8.221   7.664  10.008 -0.2598  0.3042  0.3539
 4100SOL     OW24358   9.262   2.787   5.984  0.1690  0.4821  0.3167
 4100SOL    HW124359   9.209   2.728   6.045  1.2997  2.4401  3.2661
 4100SOL    HW224360   9.215   2.794   5.896 -2.2095 -1.2916  1.3884
 4101SOL     OW24361   0.377   7.476   3.393 -0.2359 -0.2931 -0.2387
 4101SOL    HW124362   0.407   7.566   3.361  0.2801 -0.0744  0.8541
 4101SOL    HW224363   0.457   7.420   3.414 -0.4733 -1.9391 -3.3926
 4102SOL     OW24364   4.730   3.949   2.475  0.3793  0.1410 -0.1755
 4102SOL    HW124365   4.824   3.922   2.493 -0.2768 -0.8692  1.9440
 4102SOL    HW224366   4.713   4.039   2.515  0.8243  0.9689 -1.8101
 4103SOL     OW24367   5.977   1.060   4.155 -0.6433 -0.1943 -0.2187
 4103SOL    HW124368   5.944   1.007   4.232 -0.1911 -0.1377  0.0140
 4103SOL    HW224369   6.041   1.005   4.102  0.5691  0.4507  0.5731
 4104SOL     OW24370   2.533   4.128   3.675  0.5631 -0.1107 -0.2242
 4104SOL    HW124371   2.558   4.224   3.660  1.0751 -0.2831 -0.4852
 4104SOL    HW224372   2.554   4.103   3.769 -0.7786  0.3963  0.2289
 4105SOL     OW24373   2.440   5.659   7.834  0.1548  0.0123  0.0210
 4105SOL    HW124374   2.366   5.599   7.863  0.9750 -0.4601  1.1810
 4105SOL    HW224375   2.411   5.755   7.844 -0.2156 -0.1686  0.6999
 4106SOL     OW24376   8.850   3.901   8.092 -1.0349 -0.0073  0.1075
 4106SOL    HW124377   8.930   3.841   8.099 -1.3618 -0.1976  2.3330
 4106SOL    HW224378   8.816   3.899   7.998  0.8765 -0.8165 -0.5975
 4107SOL     OW24379   0.750   8.792   3.634 -0.5907  0.0146 -0.0726
 4107SOL    HW124380   0.844   8.766   3.612 -0.1902  1.0773  0.3810
 4107SOL    HW224381   0.691   8.775   3.555 -0.0804 -0.9312 -0.2622
 4108SOL     OW24382   4.198   3.538   2.653  0.3197  0.1022 -0.9087
 4108SOL    HW124383   4.182   3.482   2.734 -0.7129 -1.4571 -2.1625
 4108SOL    HW224384   4.280   3.507   2.606  1.3148  1.4609 -0.0949
 4109SOL     OW24385   1.390   8.045   1.046  0.2973  0.6041 -0.1191
 4109SOL    HW124386   1.480   8.008   1.067 -0.0153 -1.0093 -1.4813
 4109SOL    HW224387   1.374   8.039   0.947 -1.6338  0.0645  0.1988
 4110SOL     OW24388   9.979   5.233   0.045 -0.6420 -0.0389 -0.4896
 4110SOL    HW124389  10.075   5.210   0.058 -0.2125  0.6223 -2.4091
 4110SOL    HW224390   9.964   5.329   0.068 -0.9417 -0.2574  0.2476
 4111SOL     OW24391   5.737   8.272   8.282  0.4224  0.3349  0.4827
 4111SOL    HW124392   5.696   8.313   8.201  0.6129 -1.4298 -0.5366
 4111SOL    HW224393   5.786   8.342   8.335 -0.8405  1.7492 -0.1962
 4112SOL     OW24394   2.314   1.587   2.041  0.2138 -0.1814  0.0305
 4112SOL    HW124395   2.223   1.584   2.084  0.8383  0.9941  1.4848
 4112SOL    HW224396   2.378   1.535   2.097  1.2894  2.3095  1.2093
 4113SOL     OW24397   3.704   3.973   0.519 -0.2928 -0.2943 -1.1377
 4113SOL    HW124398   3.692   3.898   0.584 -2.4248  1.2141  0.2767
 4113SOL    HW224399   3.774   3.948   0.453  1.9238 -1.9065  1.6890
 4114SOL     OW24400   9.336   6.439   6.507 -0.0061  0.0699  0.2349
 4114SOL    HW124401   9.384   6.364   6.461  1.3022  0.2136  1.3334
 4114SOL    HW224402   9.257   6.466   6.452  0.6527 -0.7770 -1.1690
 4115SOL     OW24403   7.983   7.681   4.129 -0.2747 -0.1631  0.2763
 4115SOL    HW124404   7.986   7.602   4.190 -0.9573 -1.1472 -0.9670
 4115SOL    HW224405   7.893   7.724   4.135 -1.2330 -1.7689 -1.9112
 4116SOL     OW24406   8.282   5.584   3.494 -0.1416 -0.1313 -0.2700
 4116SOL    HW124407   8.185   5.576   3.518 -0.0558  0.3906  0.2631
 4116SOL    HW224408   8.310   5.504   3.441 -0.6452 -0.7210  0.3389
 4117SOL     OW24409   3.593   3.853   4.287  0.2368  0.3444  0.1423
 4117SOL    HW124410   3.588   3.811   4.378  1.0243 -1.8344 -0.7889
 4117SOL    HW224411   3.503   3.848   4.244  0.5896 -1.5374 -0.4311
 4118SOL     OW24412   3.745   4.205   0.712 -0.2155 -0.3410  0.0176
 4118SOL    HW124413   3.663   4.233   0.762  0.2120 -0.4272  0.7741
 4118SOL    HW224414   3.727   4.120   0.663 -0.5090 -0.4737  0.3562
 4119SOL     OW24415   2.378   0.444   7.737  0.2980 -0.6114 -0.3671
 4119SOL    HW124416   2.450   0.417   7.673 -0.0562 -1.0506 -0.5779
 4119SOL    HW224417   2.417   0.507   7.805  1.2298 -1.9629  0.3811
 4120SOL     OW24418   2.746   2.090   9.354 -0.0781 -0.0541  0.5579
 4120SOL    HW124419   2.674   2.121   9.415 -0.7165  0.0680 -0.2423
 4120SOL    HW224420   2.716   2.101   9.259  1.0132  0.0620  0.2139
 4121SOL     OW24421   5.859   9.957   8.991 -0.0244 -0.2106  0.4270
 4121SOL    HW124422   5.815   9.987   9.076 -1.6927 -1.0201 -0.1359
 4121SOL    HW224423   5.838   9.861   8.975 -0.8690  0.3016 -1.6321
 4122SOL     OW24424   6.759   3.345   8.842 -0.3589 -0.4673  0.0765
 4122SOL    HW124425   6.663   3.349   8.868 -0.1921  2.5567  0.3573
 4122SOL    HW224426   6.788   3.433   8.806  2.0898 -1.6069 -0.8843
 4123SOL     OW24427   7.517   1.468   9.460 -0.1827  0.4734  0.2747
 4123SOL    HW124428   7.566   1.555   9.458  1.7085 -0.5973  0.0070
 4123SOL    HW224429   7.488   1.443   9.368 -0.8150  0.8372  0.3646
 4124SOL     OW24430   4.664   4.209   3.435 -0.1407  0.6538 -0.2815
 4124SOL    HW124431   4.654   4.230   3.533  1.3512 -0.6991  0.1742
 4124SOL    HW224432   4.643   4.292   3.382  1.0168  1.9822  1.2718
 4125SOL     OW24433   3.060   9.925   2.289 -0.5663  0.6395 -0.8622
 4125SOL    HW124434   2.989   9.970   2.343 -0.6227  1.7228 -1.8246
 4125SOL    HW224435   3.056   9.957   2.195  0.4763 -0.1445 -1.1864
 4126SOL     OW24436   8.028   8.502   6.144  0.1833 -0.5803  0.2591
 4126SOL    HW124437   8.108   8.527   6.088 -0.5170 -0.2223 -0.5994
 4126SOL    HW224438   8.056   8.436   6.213  1.2617 -0.3516  0.0642
 4127SOL     OW24439   7.135   3.494   1.256  0.2146  0.2594  0.3187
 4127SOL    HW124440   7.167   3.497   1.351  0.6076  0.7302  0.1715
 4127SOL    HW224441   7.056   3.433   1.250 -0.7226  1.3350  1.2375
 4128SOL     OW24442   9.225   4.695   8.332  0.5615  0.2865 -0.7433
 4128SOL    HW124443   9.151   4.628   8.322  0.6745 -0.0203  0.4544
 4128SOL    HW224444   9.302   4.654   8.380  0.2000  1.5979  0.9841
 4129SOL     OW24445   1.143   7.506   9.341 -0.6663 -0.1377 -0.9585
 4129SOL    HW124446   1.144   7.490   9.242 -0.9245  0.1112 -1.0005
 4129SOL    HW224447   1.062   7.558   9.366 -2.1946 -2.8008 -0.1918
 4130SOL     OW24448   9.767   5.823   3.479  0.1836  0.0747 -0.5534
 4130SOL    HW124449   9.832   5.857   3.547 -0.3591  0.5898 -0.2845
 4130SOL    HW224450   9.807   5.832   3.388  0.8906 -0.5612 -0.3127
 4131SOL     OW24451   7.827   9.086   5.203  0.0526 -0.6146  0.4400
 4131SOL    HW124452   7.775   9.170   5.189  0.3298 -0.3756  0.8269
 4131SOL    HW224453   7.910   9.088   5.147  0.7031 -0.0590  1.4072
 4132SOL     OW24454   4.014   0.112   4.543 -1.2712 -0.7165  0.5181
 4132SOL    HW124455   4.112   0.095   4.540 -1.3405 -0.9817 -0.4440
 4132SOL    HW224456   3.997   0.209   4.559 -0.8188  0.0116 -3.0209
 4133SOL     OW24457   2.181   4.935   5.318  0.8125  0.1790 -0.4881
 4133SOL    HW124458   2.238   4.999   5.267  0.1499 -0.7955 -2.5145
 4133SOL    HW224459   2.091   4.928   5.275 -0.3343  0.5358  1.7680
 4134SOL     OW24460   2.219   5.712   9.416  0.4957  0.1019  0.4055
 4134SOL    HW124461   2.281   5.648   9.462  1.9512 -0.1354 -1.8078
 4134SOL    HW224462   2.140   5.662   9.381  1.4204 -0.4753 -0.9397
 4135SOL     OW24463   9.494   8.265   7.116 -0.0773  0.4206 -0.2954
 4135SOL    HW124464   9.519   8.334   7.048  1.5422  0.4427  0.3142
 4135SOL    HW224465   9.431   8.199   7.075 -0.8827  1.6948 -1.1665
 4136SOL     OW24466   0.233   7.535   0.264 -0.1279  0.1878  0.1243
 4136SOL    HW124467   0.192   7.543   0.355 -0.3780 -2.3499  0.2545
 4136SOL    HW224468   0.331   7.553   0.270 -0.3550  1.2730  0.6769
 4137SOL     OW24469   4.396   8.299   8.868 -0.2201  0.5193 -0.2927
 4137SOL    HW124470   4.401   8.205   8.833  0.2818  0.1743  0.6696
 4137SOL    HW224471   4.488   8.337   8.873 -0.3028  0.6134  0.5082
 4138SOL     OW24472   4.089   2.900   0.194  0.2855 -0.1613  0.6037
 4138SOL    HW124473   4.180   2.916   0.233 -0.1756 -0.3593  1.7626
 4138SOL    HW224474   4.039   2.835   0.250 -0.9022  0.5944  0.4473
 4139SOL     OW24475   8.704   8.073   6.246 -0.3283 -0.1129 -0.2589
 4139SOL    HW124476   8.689   8.123   6.161  1.4562  1.0368  0.0844
 4139SOL    HW224477   8.634   8.099   6.313 -0.7010  0.2728 -0.7929
 4140SOL     OW24478   7.930   6.475   3.044 -0.0593 -0.4700 -0.2088
 4140SOL    HW124479   7.990   6.551   3.019 -2.4664  1.8936  0.7866
 4140SOL    HW224480   7.890   6.435   2.962  2.1432 -1.4763 -0.8115
 4141SOL     OW24481   0.676   1.837   0.398 -0.0739 -0.1623 -0.3268
 4141SOL    HW124482   0.770   1.863   0.422 -0.3644 -0.6659  1.4352
 4141SOL    HW224483   0.671   1.737   0.389 -0.2784 -0.0804 -1.2109
 4142SOL     OW24484   4.470   4.927   1.978 -0.2118 -0.5205  0.1527
 4142SOL    HW124485   4.500   4.882   1.894 -0.7353  3.2221 -2.2018
 4142SOL    HW224486   4.370   4.928   1.981 -0.2104 -2.5540  1.9863
 4143SOL     OW24487   0.229   0.891   5.750 -0.1586 -0.1686  0.5038
 4143SOL    HW124488   0.328   0.885   5.760 -0.0708 -0.8811 -0.6930
 4143SOL    HW224489   0.192   0.953   5.819  1.1103  0.0448  1.0012
 4144SOL     OW24490   1.860   0.642   4.276 -0.0765 -0.0940 -0.0538
 4144SOL    HW124491   1.938   0.622   4.335 -0.1554  0.3592  0.2013
 4144SOL    HW224492   1.801   0.561   4.271 -0.6097  0.1982  1.3123
 4145SOL     OW24493   3.230   7.879   1.225 -0.2577 -0.3089  0.4019
 4145SOL    HW124494   3.287   7.953   1.260  1.3660 -2.2021  1.8688
 4145SOL    HW224495   3.279   7.829   1.154 -0.4508 -1.3658  1.0001
 4146SOL     OW24496   8.752   5.648   3.447 -0.7445  0.0927 -0.1509
 4146SOL    HW124497   8.660   5.640   3.484 -0.4365 -0.3000  0.5409
 4146SOL    HW224498   8.747   5.651   3.347 -1.6377  2.0701 -0.0633
 4147SOL     OW24499   7.751   5.330   6.674  0.3744  0.2960  0.6620
 4147SOL    HW124500   7.698   5.271   6.614 -0.4221  0.8618  0.8105
 4147SOL    HW224501   7.820   5.379   6.620  1.9855 -1.7907  0.7382
 4148SOL     OW24502   1.128   2.503   1.222  0.9377  0.0378  0.8407
 4148SOL    HW124503   1.064   2.462   1.157 -0.9755  1.4567  1.7800
 4148SOL    HW224504   1.146   2.439   1.297  0.3414 -0.2482  0.7460
 4149SOL     OW24505   9.786   7.488   2.245  0.6335 -0.0097  0.2752
 4149SOL    HW124506   9.741   7.533   2.322 -1.3547  0.6459 -1.2402
 4149SOL    HW224507   9.834   7.557   2.190 -0.3717 -0.0758 -0.6848
 4150SOL     OW24508   1.054   8.310   9.160 -0.1620  0.1490 -0.4002
 4150SOL    HW124509   1.115   8.362   9.220 -0.1930 -0.2207 -0.0434
 4150SOL    HW224510   0.992   8.372   9.113 -0.9874  0.3467  0.9097
 4151SOL     OW24511   5.370   0.852   3.364 -0.5117 -0.0216  0.0591
 4151SOL    HW124512   5.361   0.786   3.438 -1.2451  0.0723  0.0633
 4151SOL    HW224513   5.410   0.808   3.284  1.7218  0.2510  1.0019
 4152SOL     OW24514   2.194   6.591   5.366  0.2568 -0.1795  0.0805
 4152SOL    HW124515   2.231   6.616   5.456 -0.3245 -0.0830  0.2962
 4152SOL    HW224516   2.223   6.659   5.299 -0.7183  0.6925  0.5271
 4153SOL     OW24517   7.672   1.247   6.758 -0.0545  0.3646  0.2006
 4153SOL    HW124518   7.660   1.219   6.853 -1.1716  0.5801  0.1392
 4153SOL    HW224519   7.688   1.345   6.754  0.5723  0.2652  0.1994
 4154SOL     OW24520   9.721   6.321   1.994 -0.1429 -0.8209 -0.0300
 4154SOL    HW124521   9.735   6.355   1.901 -1.3276  0.2524  0.1696
 4154SOL    HW224522   9.698   6.224   1.991 -0.8962 -0.6213 -0.9164
 4155SOL     OW24523   2.272   7.336   2.877  0.2297 -1.1847 -0.1517
 4155SOL    HW124524   2.289   7.434   2.870 -0.7816 -0.9493  0.7390
 4155SOL    HW224525   2.298   7.303   2.968 -3.2907 -0.9610  0.9787
 4156SOL     OW24526   8.639   4.970   6.228 -0.1607 -0.1407 -0.7835
 4156SOL    HW124527   8.589   5.053   6.253 -0.9607 -0.9512  0.3789
 4156SOL    HW224528   8.737   4.988   6.229 -0.3054  0.6536  0.0061
 4157SOL     OW24529   8.943   8.553   6.274  0.0321  0.3378  0.3355
 4157SOL    HW124530   8.858   8.501   6.271 -0.7562  1.6855 -0.9888
 4157SOL    HW224531   9.012   8.500   6.324 -0.7227 -2.0246 -1.0279
 4158SOL     OW24532   8.948   6.140   8.647  0.3697  0.0048 -0.3528
 4158SOL    HW124533   8.888   6.060   8.642  0.8055 -0.4139  0.8136
 4158SOL    HW224534   9.006   6.132   8.728  0.6769  1.3327 -0.4376
 4159SOL     OW24535   0.734   8.992   0.509 -0.7538  0.1636 -0.1183
 4159SOL    HW124536   0.691   8.965   0.423 -1.4647 -0.6104  0.4858
 4159SOL    HW224537   0.758   8.910   0.562 -0.0069  0.6274  0.2783
 4160SOL     OW24538   5.477   4.513   8.992 -0.3416 -0.3879 -0.4046
 4160SOL    HW124539   5.453   4.563   9.075  0.6666  0.7466 -0.7938
 4160SOL    HW224540   5.464   4.415   9.008 -1.5257 -0.0862  0.6263
 4161SOL     OW24541   9.537   0.157   7.585 -0.1367  0.3053 -0.2052
 4161SOL    HW124542   9.597   0.107   7.522  1.7713  0.5223  1.3746
 4161SOL    HW224543   9.575   0.247   7.603 -0.7335  0.3177  1.1155
 4162SOL     OW24544   9.559   6.403   2.227  0.2299  0.0813  0.7247
 4162SOL    HW124545   9.510   6.483   2.194 -2.7135 -1.6151  0.7855
 4162SOL    HW224546   9.602   6.356   2.150 -3.9263 -2.0878 -0.4154
 4163SOL     OW24547   6.693   0.176   4.024 -0.0048 -0.5840  0.4205
 4163SOL    HW124548   6.711   0.209   3.932 -0.4579  0.1098  0.5776
 4163SOL    HW224549   6.695   0.253   4.088 -2.1318 -0.6796  0.6296
 4164SOL     OW24550   1.858   1.952   2.702 -0.4976  0.7831  0.3074
 4164SOL    HW124551   1.944   1.926   2.657 -0.6428  0.0488  0.4486
 4164SOL    HW224552   1.784   1.950   2.635 -0.4493  1.1587  0.2441
 4165SOL     OW24553   6.748   5.976   8.403 -0.5469 -0.0096 -0.4335
 4165SOL    HW124554   6.649   5.974   8.416 -0.7142  0.2881 -1.5900
 4165SOL    HW224555   6.770   6.039   8.329  0.5105 -0.1284 -0.2281
 4166SOL     OW24556   2.629   8.609   1.733 -0.1715  0.2930 -0.3676
 4166SOL    HW124557   2.641   8.511   1.748 -0.2023  0.1844 -1.0494
 4166SOL    HW224558   2.592   8.625   1.641  1.1173  1.0251 -0.7723
 4167SOL     OW24559   4.031   1.725   4.434  0.3042  0.4700 -0.1942
 4167SOL    HW124560   4.130   1.736   4.422  0.3552  1.0080  0.6739
 4167SOL    HW224561   4.004   1.633   4.406  0.8337  0.7646 -1.7256
 4168SOL     OW24562   8.261   3.218   8.794 -0.4693 -0.9202 -0.4141
 4168SOL    HW124563   8.277   3.298   8.851  0.4695  0.0602 -2.0215
 4168SOL    HW224564   8.292   3.136   8.843 -2.2714 -0.4486  1.6133
 4169SOL     OW24565   1.332   8.906   4.528  0.2412  0.1104  0.4082
 4169SOL    HW124566   1.408   8.866   4.477 -1.8819 -2.1020 -1.2106
 4169SOL    HW224567   1.329   8.866   4.620  0.6058 -0.3862  0.2103
 4170SOL     OW24568   9.283   2.443   7.069  0.1179  0.4213 -0.7705
 4170SOL    HW124569   9.188   2.425   7.045 -0.3317  0.0387  1.2129
 4170SOL    HW224570   9.337   2.360   7.057 -0.1539  0.1639 -0.2216
 4171SOL     OW24571   4.353   0.578   3.937 -0.3034 -0.1447 -0.1184
 4171SOL    HW124572   4.439   0.601   3.983  0.0673 -1.7913  0.0643
 4171SOL    HW224573   4.276   0.603   3.996  0.0498  1.4323 -0.3255
 4172SOL     OW24574   4.166   6.337   2.655 -0.0685  0.3124 -0.5904
 4172SOL    HW124575   4.213   6.359   2.740 -0.4015 -0.2261 -0.2657
 4172SOL    HW224576   4.234   6.315   2.584  0.1611 -1.0965  0.0553
 4173SOL     OW24577   6.951   7.533   8.153  0.0166 -0.0611 -0.1005
 4173SOL    HW124578   6.885   7.467   8.118 -1.6946  1.5762 -0.0302
 4173SOL    HW224579   7.024   7.484   8.201 -0.0682 -2.0180 -1.8767
 4174SOL     OW24580   7.880   1.002   8.146  0.4198  0.0118  0.4934
 4174SOL    HW124581   7.949   1.071   8.171 -0.4554  0.6435  1.1817
 4174SOL    HW224582   7.810   1.045   8.089  1.5973 -1.0676 -1.8616
 4175SOL     OW24583   8.999   4.896   1.183  0.3429 -0.0817  0.2300
 4175SOL    HW124584   9.052   4.828   1.233  1.0246  0.9213  0.8627
 4175SOL    HW224585   8.906   4.861   1.170  0.3686 -0.6662  1.5219
 4176SOL     OW24586   8.139   5.047   3.649  0.2661  0.3418  1.3603
 4176SOL    HW124587   8.075   4.987   3.697  0.0177 -2.8470 -2.6921
 4176SOL    HW224588   8.232   5.013   3.661  0.3776  0.5206  1.0244
 4177SOL     OW24589   1.534   6.385   4.352  0.1632 -0.4705 -0.6163
 4177SOL    HW124590   1.440   6.418   4.346 -0.2249 -1.5327 -0.4862
 4177SOL    HW224591   1.555   6.330   4.271  0.9286  0.3932 -1.0135
 4178SOL     OW24592   0.264   9.133   4.520 -0.5249 -0.4078 -0.0554
 4178SOL    HW124593   0.250   9.199   4.447  0.5799  2.2533  2.0356
 4178SOL    HW224594   0.349   9.082   4.504 -0.7042 -0.4014 -1.0177
 4179SOL     OW24595   4.123   2.869   6.169  0.6163  0.0101  0.6569
 4179SOL    HW124596   4.169   2.907   6.249  0.6822  0.0531  0.5982
 4179SOL    HW224597   4.167   2.903   6.086  0.6333 -0.1417  0.6033
 4180SOL     OW24598   8.278   6.582   6.583  0.5717  0.0748 -0.8075
 4180SOL    HW124599   8.251   6.649   6.514 -0.2517  1.6374  0.9765
 4180SOL    HW224600   8.196   6.542   6.624  1.0378  0.2754  0.3256
 4181SOL     OW24601   8.582   1.839   2.021 -0.1786 -0.0249 -0.6320
 4181SOL    HW124602   8.538   1.782   1.952  1.2545 -2.2149  0.2139
 4181SOL    HW224603   8.515   1.903   2.059 -1.5028 -0.2773 -2.4941
 4182SOL     OW24604   8.616   9.396   7.661  0.5929  0.1819 -0.8436
 4182SOL    HW124605   8.700   9.442   7.690  0.4638 -1.2621  2.0044
 4182SOL    HW224606   8.633   9.298   7.652 -0.4657  0.0561 -1.6530
 4183SOL     OW24607   1.032   0.366   2.048  0.6368  0.5695  0.3957
 4183SOL    HW124608   1.005   0.458   2.076 -1.0537 -0.6451  3.0239
 4183SOL    HW224609   0.955   0.320   2.003  0.4662 -0.5674  1.7999
 4184SOL     OW24610   9.899   4.100   4.389 -0.5616  0.3100 -0.1866
 4184SOL    HW124611   9.853   4.145   4.466 -1.9144 -0.5522 -0.4850
 4184SOL    HW224612   9.834   4.041   4.341  0.7316 -0.5340 -0.9208
 4185SOL     OW24613   4.017   8.595   2.100  0.5796 -0.0276  0.2407
 4185SOL    HW124614   4.075   8.666   2.061 -2.1253  2.4168  0.5422
 4185SOL    HW224615   3.960   8.554   2.029  1.3387 -1.1821  0.2690
 4186SOL     OW24616   3.849   4.757   8.604 -0.2102 -0.1605 -0.1366
 4186SOL    HW124617   3.862   4.658   8.611  1.1894  0.0330  0.1394
 4186SOL    HW224618   3.837   4.795   8.695  0.2679  0.0534 -0.1618
 4187SOL     OW24619   4.348   3.647   6.586  0.1146 -0.3653  0.5981
 4187SOL    HW124620   4.330   3.746   6.589 -0.9689 -0.5745  1.4631
 4187SOL    HW224621   4.425   3.629   6.525 -0.2695  0.9328 -0.3023
 4188SOL     OW24622   1.451   4.960   4.811  0.6148  0.0093  0.0293
 4188SOL    HW124623   1.410   4.878   4.771  2.0751 -0.1219 -1.2246
 4188SOL    HW224624   1.383   5.034   4.814 -1.3418 -1.7682  2.9842
 4189SOL     OW24625   1.318   0.624   8.136  0.8252 -0.0816 -0.2732
 4189SOL    HW124626   1.281   0.616   8.044  0.5046 -2.3641  0.0287
 4189SOL    HW224627   1.400   0.681   8.135 -0.6460  2.0953 -1.5212
 4190SOL     OW24628   8.673   5.540   9.803  0.2623  0.1861  0.1170
 4190SOL    HW124629   8.745   5.582   9.749 -0.3541  2.0936  0.7592
 4190SOL    HW224630   8.587   5.590   9.790  0.0881  0.6820  2.8278
 4191SOL     OW24631   6.986   4.024   1.662 -0.2390 -0.0978  0.3545
 4191SOL    HW124632   7.047   3.956   1.620  0.2666 -0.6088  1.8723
 4191SOL    HW224633   6.999   4.023   1.761 -1.9748  0.5442  0.5973
 4192SOL     OW24634   4.850   6.527   9.945  0.1483 -0.1640  0.2097
 4192SOL    HW124635   4.940   6.485   9.957 -0.3981 -1.0498  1.3059
 4192SOL    HW224636   4.834   6.594  10.018 -0.6866 -1.1185  0.9270
 4193SOL     OW24637   9.721   8.638   7.009  0.1922  0.1686  0.3685
 4193SOL    HW124638   9.722   8.701   7.087 -0.2106  0.1021  0.4316
 4193SOL    HW224639   9.713   8.690   6.924  2.2267  0.3336  0.2569
 4194SOL     OW24640   7.514   1.051   8.487 -0.0735  0.1858 -0.8128
 4194SOL    HW124641   7.508   0.952   8.477 -0.2130  0.1011  0.0706
 4194SOL    HW224642   7.471   1.079   8.573  2.5610  0.6750  0.3958
 4195SOL     OW24643   5.753   5.474   9.260  0.0205  0.1533 -0.5608
 4195SOL    HW124644   5.835   5.512   9.304 -0.7826  1.3646 -0.0738
 4195SOL    HW224645   5.739   5.520   9.172 -0.3796  0.2667 -0.4389
 4196SOL     OW24646   0.353   7.535   8.340  0.0174 -0.2103  0.3026
 4196SOL    HW124647   0.301   7.456   8.372 -0.7988 -0.4289 -1.5199
 4196SOL    HW224648   0.291   7.610   8.320  0.6438  0.3596  0.4893
 4197SOL     OW24649   3.841   5.046   5.574  0.0217 -0.0869  0.0490
 4197SOL    HW124650   3.795   5.049   5.663  0.7816 -2.4447  0.5516
 4197SOL    HW224651   3.927   5.096   5.579 -1.1379  1.9987 -0.1261
 4198SOL     OW24652   6.098   3.504  10.020 -0.2467  0.5691  0.4773
 4198SOL    HW124653   6.052   3.420   9.990  0.3216 -0.2109  1.7034
 4198SOL    HW224654   6.197   3.488  10.023 -0.2186  0.9057  1.8269
 4199SOL     OW24655   3.330   8.446   4.621  0.0520  0.1228  0.3392
 4199SOL    HW124656   3.352   8.400   4.536 -0.2181 -1.5548  1.1552
 4199SOL    HW224657   3.410   8.496   4.654  0.4348  0.0148 -0.4253
 4200SOL     OW24658   2.727   1.262   1.535 -0.2580  0.3978 -0.0416
 4200SOL    HW124659   2.645   1.253   1.591 -0.7044  0.1355 -0.7377
 4200SOL    HW224660   2.758   1.357   1.535  0.0201  0.3134  1.0345
 4201SOL     OW24661   0.478   9.801   2.701 -0.0152  0.6460 -0.2114
 4201SOL    HW124662   0.511   9.726   2.644  0.7806  0.4266  0.5205
 4201SOL    HW224663   0.451   9.878   2.644  1.1873  0.5908 -0.8649
 4202SOL     OW24664   6.321   1.533   7.130  0.5577  0.1336 -0.0183
 4202SOL    HW124665   6.323   1.563   7.035 -0.5889  0.0799 -0.0780
 4202SOL    HW224666   6.231   1.493   7.150  1.0156 -0.4554  0.9044
 4203SOL     OW24667   1.307   7.240   3.478  0.0995 -0.2338 -0.3819
 4203SOL    HW124668   1.303   7.186   3.563 -1.5322 -2.2175 -1.6775
 4203SOL    HW224669   1.402   7.263   3.458  0.4222  1.0847  2.4884
 4204SOL     OW24670   9.695   7.323   8.096  0.2360 -0.4885  0.2061
 4204SOL    HW124671   9.767   7.296   8.032 -1.4623 -1.4554 -1.3599
 4204SOL    HW224672   9.642   7.243   8.123  0.7939 -0.0546  2.7044
 4205SOL     OW24673   2.833   9.749   7.259 -0.1007  0.0162 -0.6527
 4205SOL    HW124674   2.780   9.708   7.334 -1.1074 -1.9315 -2.3937
 4205SOL    HW224675   2.928   9.719   7.265 -0.5068 -1.3774 -1.0239
 4206SOL     OW24676   0.649   9.900   6.353  0.5847 -0.3110  0.2803
 4206SOL    HW124677   0.663   9.849   6.437  1.0437 -2.6232 -1.1678
 4206SOL    HW224678   0.551   9.914   6.338  0.4968 -0.0271  1.0997
 4207SOL     OW24679   2.927   4.295   4.346  0.3354 -0.0516 -0.3612
 4207SOL    HW124680   2.968   4.352   4.274  0.4281 -0.3642 -0.5613
 4207SOL    HW224681   2.851   4.243   4.307  0.5417 -0.4055 -0.2948
 4208SOL     OW24682   7.005   5.683   7.045 -0.4805  0.2057 -0.1811
 4208SOL    HW124683   7.064   5.725   6.976 -0.2910  1.1494  0.5429
 4208SOL    HW224684   7.039   5.592   7.066 -0.6075 -0.1402 -1.4135
 4209SOL     OW24685   2.037   4.577   0.187 -0.2631 -0.3382 -0.1682
 4209SOL    HW124686   2.070   4.491   0.148 -0.1401 -0.6126  0.5280
 4209SOL    HW224687   2.087   4.653   0.146  0.9756 -0.7262  0.5632
 4210SOL     OW24688   3.444   9.448   3.881  0.1065 -0.1001  0.1458
 4210SOL    HW124689   3.459   9.518   3.951  1.0418 -1.1407  1.0102
 4210SOL    HW224690   3.458   9.357   3.921 -2.0967 -0.8600 -0.6902
 4211SOL     OW24691   7.993   1.523   9.574 -0.1937  0.7296  0.3092
 4211SOL    HW124692   7.942   1.443   9.543  2.4767 -0.9905  0.1771
 4211SOL    HW224693   8.004   1.587   9.498  0.2249 -0.1793 -0.4057
 4212SOL     OW24694   8.316   6.406   9.208  0.1088  0.3601 -0.4297
 4212SOL    HW124695   8.335   6.383   9.303 -0.5374 -1.1566 -0.6583
 4212SOL    HW224696   8.333   6.504   9.193  0.9907  0.4376  1.0348
 4213SOL     OW24697   1.390   0.355   0.948 -0.4125  0.0758  0.6447
 4213SOL    HW124698   1.398   0.420   0.872  0.2802  0.2170  0.8371
 4213SOL    HW224699   1.310   0.297   0.934 -1.4615  1.4563  0.8445
 4214SOL     OW24700   4.344   9.479   1.493  0.0676  0.0431  0.7798
 4214SOL    HW124701   4.327   9.498   1.397  2.0234 -1.7743  0.0491
 4214SOL    HW224702   4.381   9.560   1.537  0.1130  0.5755 -0.2323
 4215SOL     OW24703   7.825   4.265   3.311  0.5570  0.9791 -0.4851
 4215SOL    HW124704   7.813   4.189   3.247  2.9306  0.5536 -0.4537
 4215SOL    HW224705   7.887   4.237   3.384  0.0968  2.4045  0.4741
 4216SOL     OW24706   9.841   1.737   3.533 -0.4577  0.0779 -0.5873
 4216SOL    HW124707   9.935   1.734   3.498 -0.1474 -0.9511  0.3004
 4216SOL    HW224708   9.807   1.831   3.530 -0.1712  0.1372 -2.9159
 4217SOL     OW24709   7.332   2.004   0.409 -0.1080 -0.6249  0.0607
 4217SOL    HW124710   7.308   1.931   0.345  0.6731 -1.1841  0.3992
 4217SOL    HW224711   7.389   2.071   0.363 -2.8712  1.1125 -0.9691
 4218SOL     OW24712   4.152   7.219   7.420  0.0424  0.1081  0.7608
 4218SOL    HW124713   4.185   7.159   7.493 -0.1353 -0.1817  0.6012
 4218SOL    HW224714   4.138   7.166   7.336  1.1806  0.6134  0.2373
 4219SOL     OW24715   8.965   3.575   2.581 -0.2915 -0.3603 -0.0558
 4219SOL    HW124716   9.014   3.622   2.507 -0.7236  0.1566 -0.0165
 4219SOL    HW224717   8.891   3.520   2.542 -2.4519  2.2606  0.1769
 4220SOL     OW24718   6.506   8.532   7.875  0.3200 -0.0404 -0.1040
 4220SOL    HW124719   6.426   8.586   7.849  0.9858  0.9312 -0.1917
 4220SOL    HW224720   6.586   8.567   7.826  0.9306 -0.5132  0.5526
 4221SOL     OW24721   7.762   4.929   8.218 -0.1376  0.1911  0.0388
 4221SOL    HW124722   7.705   4.919   8.136 -1.3752  0.9012  0.7935
 4221SOL    HW224723   7.808   5.018   8.216 -0.3247  0.2926  0.2019
 4222SOL     OW24724   8.854   4.512   7.440 -0.2251 -0.1123 -0.1856
 4222SOL    HW124725   8.769   4.460   7.446 -2.0957  2.7562 -0.6972
 4222SOL    HW224726   8.875   4.553   7.529  0.8168 -1.0928  0.0257
 4223SOL     OW24727   2.481   4.731   6.345  0.0142  0.2719  0.0193
 4223SOL    HW124728   2.449   4.793   6.418 -1.2470 -0.6040  0.2166
 4223SOL    HW224729   2.579   4.745   6.332 -0.0374  1.5579  0.8045
 4224SOL     OW24730   2.243   4.565   4.082  0.8326 -0.1684  0.0831
 4224SOL    HW124731   2.147   4.591   4.092  1.2411  1.8092 -0.8439
 4224SOL    HW224732   2.252   4.495   4.012 -0.3632 -3.3733  2.9880
 4225SOL     OW24733   4.843   5.422   1.984  0.0398 -0.6545 -0.3237
 4225SOL    HW124734   4.940   5.402   1.997 -0.1449 -0.7075  1.0508
 4225SOL    HW224735   4.792   5.337   1.973  0.2416 -0.5967 -1.7845
 4226SOL     OW24736   2.855   1.056   1.708  0.0244  0.5130  0.5944
 4226SOL    HW124737   2.795   1.067   1.787  0.0305 -0.0785  0.6813
 4226SOL    HW224738   2.829   1.121   1.637  1.2257  2.4005  1.8259
 4227SOL     OW24739   9.766   3.593   8.587 -0.4677  0.2441  0.1324
 4227SOL    HW124740   9.771   3.626   8.492 -0.0163  0.7155  0.3178
 4227SOL    HW224741   9.756   3.493   8.587 -1.7534  0.3631 -0.4348
 4228SOL     OW24742   7.168   2.776   9.880 -0.4485  0.2854 -0.3816
 4228SOL    HW124743   7.165   2.825   9.967  0.0340  0.8320 -0.6683
 4228SOL    HW224744   7.189   2.841   9.807 -1.6038 -0.0393 -1.0017
 4229SOL     OW24745   5.660   9.936   7.043  0.1004 -0.4857  0.0903
 4229SOL    HW124746   5.625   9.866   7.105 -0.0884  0.0521  0.5927
 4229SOL    HW224747   5.602  10.017   7.047  1.5770  0.5546  1.1989
 4230SOL     OW24748   9.589   2.578   2.130 -0.2008  0.5212  0.0209
 4230SOL    HW124749   9.645   2.592   2.211  2.9651 -0.7233 -1.8705
 4230SOL    HW224750   9.621   2.637   2.056 -2.1485  0.6273 -0.7867
 4231SOL     OW24751   3.663   2.387   0.246  0.0524 -0.1798 -0.3152
 4231SOL    HW124752   3.570   2.420   0.231  0.1821  0.3264 -0.0225
 4231SOL    HW224753   3.729   2.458   0.221  0.3867 -0.8267 -1.2911
 4232SOL     OW24754   2.355   6.232   6.616 -0.1220 -0.0861  0.3671
 4232SOL    HW124755   2.343   6.135   6.594 -0.6273  0.1203 -0.2801
 4232SOL    HW224756   2.362   6.284   6.531 -1.7171  0.6765  0.6915
 4233SOL     OW24757   0.747   9.124   1.866  0.1727 -0.4904 -0.1655
 4233SOL    HW124758   0.675   9.187   1.894  1.9976  1.0111  1.2547
 4233SOL    HW224759   0.705   9.043   1.823 -2.3881 -0.0026  1.2718
 4234SOL     OW24760   8.201   8.317   2.752  0.5803 -0.6131 -0.0135
 4234SOL    HW124761   8.256   8.260   2.813 -0.6944 -0.7818  1.0070
 4234SOL    HW224762   8.129   8.261   2.711 -1.1422  0.4035  1.5664
 4235SOL     OW24763   3.162   8.115   7.257 -0.1806  0.4141 -0.7141
 4235SOL    HW124764   3.111   8.085   7.177  0.2715 -0.6113 -0.6291
 4235SOL    HW224765   3.102   8.170   7.316 -0.5169  1.1425 -1.7352
 4236SOL     OW24766   1.902   2.610   3.743 -0.6545 -0.1511 -0.2936
 4236SOL    HW124767   1.810   2.583   3.770 -1.5469  1.1758 -1.9023
 4236SOL    HW224768   1.910   2.602   3.643  1.1866 -0.8739 -0.1065
 4237SOL     OW24769   1.030   8.771   4.908  0.8518  0.4272 -0.4231
 4237SOL    HW124770   0.984   8.855   4.880  0.0976  0.3084  0.4360
 4237SOL    HW224771   1.067   8.782   5.000  1.2211  0.0080 -0.5208
 4238SOL     OW24772   8.187   4.762   6.886 -0.7716 -0.2087 -0.2253
 4238SOL    HW124773   8.213   4.723   6.974  0.5280  1.7899  0.3027
 4238SOL    HW224774   8.203   4.695   6.814  1.5356 -0.6355  0.6464
 4239SOL     OW24775   1.446   1.823   8.090 -0.2533 -0.5396 -0.2619
 4239SOL    HW124776   1.544   1.813   8.110  0.1824  0.0017 -2.0679
 4239SOL    HW224777   1.393   1.781   8.164  1.3239 -0.1889  1.1106
 4240SOL     OW24778   2.021   9.830   8.666 -0.5536 -0.2075 -0.1318
 4240SOL    HW124779   2.028   9.751   8.604  3.1534  0.6897 -0.9869
 4240SOL    HW224780   1.958   9.897   8.627 -0.9282 -1.1735 -1.2105
 4241SOL     OW24781   2.776   3.611   0.030 -0.0825 -0.0959  0.0452
 4241SOL    HW124782   2.762   3.699  -0.015 -0.4220 -0.2976 -0.2474
 4241SOL    HW224783   2.707   3.545  -0.003  1.0009 -0.8464 -0.7423
 4242SOL     OW24784   2.272   2.119   6.633 -0.7650 -0.2824 -0.4981
 4242SOL    HW124785   2.251   2.046   6.698 -2.3463  0.0501 -0.6079
 4242SOL    HW224786   2.257   2.208   6.676 -1.4777 -0.0585 -1.1948
 4243SOL     OW24787   9.878   4.072   1.235 -0.1818 -0.3132 -0.0105
 4243SOL    HW124788   9.948   4.128   1.190 -1.0906 -0.2772 -1.3922
 4243SOL    HW224789   9.919   3.988   1.268  0.8450  0.4049  0.5805
 4244SOL     OW24790   2.077   9.898   8.222  0.0415  0.3283  0.1490
 4244SOL    HW124791   1.987   9.887   8.181  0.7588 -0.2973 -1.2708
 4244SOL    HW224792   2.099   9.995   8.228 -0.0091  0.4244 -1.0945
 4245SOL     OW24793   0.525   9.002   2.902 -0.3191  0.1081  0.1366
 4245SOL    HW124794   0.521   9.022   3.000 -1.2757  0.7662 -0.0271
 4245SOL    HW224795   0.515   8.904   2.888 -1.7577  0.1669  0.6228
 4246SOL     OW24796   9.965   3.481   5.273  0.6821 -0.2358 -0.6805
 4246SOL    HW124797   9.907   3.511   5.197 -0.1684 -2.1011 -0.8105
 4246SOL    HW224798   9.908   3.452   5.349  1.5464  1.9176  0.8292
 4247SOL     OW24799   2.192   0.049   4.656 -0.0573 -0.4866  0.2526
 4247SOL    HW124800   2.167   0.051   4.753 -1.1711 -1.0844 -0.0124
 4247SOL    HW224801   2.200   0.143   4.622  1.2352 -0.2662  1.1391
 4248SOL     OW24802   8.103   2.492   0.635  0.5279  0.2140 -0.5096
 4248SOL    HW124803   8.160   2.478   0.716 -0.4521 -0.9393 -0.0028
 4248SOL    HW224804   8.158   2.477   0.553  1.0718 -0.4775 -0.0302
 4249SOL     OW24805   1.129   9.699   6.489  0.5365 -0.3183  0.3011
 4249SOL    HW124806   1.124   9.797   6.507  1.8586 -0.1877  0.0836
 4249SOL    HW224807   1.066   9.675   6.415  0.4049  0.4164  0.1712
 4250SOL     OW24808   4.745   0.805   4.420  0.0683  0.4701  1.0387
 4250SOL    HW124809   4.706   0.888   4.460 -0.6986  0.6762 -0.1384
 4250SOL    HW224810   4.712   0.725   4.470  0.2573  0.8125  1.7269
 4251SOL     OW24811   5.920   4.875   0.988 -0.2045  0.6049  0.1011
 4251SOL    HW124812   6.000   4.815   0.996  0.0511  1.2174  2.8720
 4251SOL    HW224813   5.950   4.971   0.990 -0.8684  0.8414 -0.9305
 4252SOL     OW24814   1.852   0.003   5.729  0.0017  0.7573 -0.0493
 4252SOL    HW124815   1.764  -0.044   5.731  0.0672  0.7007  1.7630
 4252SOL    HW224816   1.925  -0.065   5.720 -0.0046  0.6471  0.7601
 4253SOL     OW24817   8.430   3.427   9.527 -0.2256  0.4054 -0.3362
 4253SOL    HW124818   8.416   3.487   9.448 -0.5781  0.6563 -0.0866
 4253SOL    HW224819   8.427   3.481   9.611  2.8234  0.5577 -0.2872
 4254SOL     OW24820   9.572   6.519   8.541 -0.0292  0.4853  0.5113
 4254SOL    HW124821   9.654   6.569   8.513 -0.8005  1.7439  0.4927
 4254SOL    HW224822   9.596   6.456   8.616  0.9554  0.8225  0.4907
 4255SOL     OW24823   4.341   5.927   8.591  0.2550  0.1392  0.6279
 4255SOL    HW124824   4.311   5.973   8.674  1.2309  1.3215  0.3327
 4255SOL    HW224825   4.281   5.848   8.573 -2.2087  1.9943  0.4471
 4256SOL     OW24826   4.080   3.558   4.717 -0.3334 -0.2275  0.0592
 4256SOL    HW124827   4.152   3.625   4.732  0.6973 -1.2006 -0.4512
 4256SOL    HW224828   4.048   3.524   4.805 -0.4393  0.4979  0.3002
 4257SOL     OW24829   5.318   5.051   0.869  0.5984 -0.1718  0.0547
 4257SOL    HW124830   5.392   5.070   0.805 -0.0293  1.0446 -0.3217
 4257SOL    HW224831   5.286   5.136   0.911 -0.6437 -0.6655  0.1505
 4258SOL     OW24832   7.362   5.000   8.801  0.2104 -0.0754  0.1991
 4258SOL    HW124833   7.322   5.028   8.713  0.5754 -0.8930 -0.2314
 4258SOL    HW224834   7.454   4.965   8.785 -0.0616 -1.0831  0.7886
 4259SOL     OW24835   3.098   7.540   2.433 -1.0897  0.3562  0.1858
 4259SOL    HW124836   3.134   7.485   2.358 -0.9730 -0.1334  0.5945
 4259SOL    HW224837   3.046   7.617   2.396  0.2297  0.9878 -0.4123
 4260SOL     OW24838   9.754   0.800   3.012 -0.1429  0.7680  0.2158
 4260SOL    HW124839   9.820   0.794   3.087  1.7212  3.1240 -1.1538
 4260SOL    HW224840   9.795   0.763   2.928 -1.8014 -0.8248  0.0810
 4261SOL     OW24841   1.762   3.621   7.663 -0.4823 -0.1328  0.2175
 4261SOL    HW124842   1.717   3.709   7.648  1.0399  0.4323 -1.3371
 4261SOL    HW224843   1.696   3.555   7.698 -2.2910  0.9030 -1.1256
 4262SOL     OW24844   3.313   2.733   7.811 -0.1419 -0.1161 -0.1221
 4262SOL    HW124845   3.335   2.712   7.716  0.3181  1.0311 -0.2804
 4262SOL    HW224846   3.273   2.825   7.816 -2.2968 -1.0652  0.5095
 4263SOL     OW24847   8.382   2.443   2.986  0.3195 -0.7262  0.1269
 4263SOL    HW124848   8.377   2.360   3.041 -0.4973 -0.9805 -0.3252
 4263SOL    HW224849   8.290   2.480   2.973  0.6873  0.2849  0.3842
 4264SOL     OW24850   3.265   9.074   6.779  0.5185  0.0635  0.3939
 4264SOL    HW124851   3.336   9.008   6.801  2.1956  1.2996 -1.1055
 4264SOL    HW224852   3.196   9.074   6.851  1.8175 -1.4667  1.6856
 4265SOL     OW24853   8.383   0.440   8.959  0.3001  0.3239 -0.0403
 4265SOL    HW124854   8.432   0.447   9.046 -0.3996 -0.8838  0.4611
 4265SOL    HW224855   8.446   0.462   8.884  1.0496  0.8426  0.7239
 4266SOL     OW24856   1.426   2.959   0.525  0.6090 -0.1036  0.2002
 4266SOL    HW124857   1.347   2.972   0.585  1.2316 -0.5750  1.1248
 4266SOL    HW224858   1.502   3.015   0.557  1.2435 -1.0683  0.4000
 4267SOL     OW24859   9.649   1.753   1.125 -0.0465  0.2230 -0.3456
 4267SOL    HW124860   9.671   1.656   1.111  0.9484  0.3485  0.3202
 4267SOL    HW224861   9.693   1.786   1.209 -1.1664  1.0057 -0.0493
 4268SOL     OW24862   4.973   7.575   2.696 -0.4425 -0.3903 -0.2368
 4268SOL    HW124863   5.061   7.621   2.711  0.3442 -1.4766 -1.4581
 4268SOL    HW224864   4.903   7.618   2.754  0.7135  0.9968  0.1672
 4269SOL     OW24865   3.302   9.018   8.927  0.0082  0.7943  0.0194
 4269SOL    HW124866   3.321   9.001   9.023 -0.7518  1.5822  0.3205
 4269SOL    HW224867   3.298   8.932   8.877  2.0153  0.4691  0.3812
 4270SOL     OW24868   5.590   5.487   9.500  0.1658  0.3111 -0.2344
 4270SOL    HW124869   5.507   5.434   9.484 -0.2749  0.7115  0.6463
 4270SOL    HW224870   5.651   5.479   9.421 -0.2374 -0.8533 -0.4426
 4271SOL     OW24871   3.470   0.755   4.045  0.1995 -0.0133 -0.7737
 4271SOL    HW124872   3.396   0.786   3.985 -0.3998  0.7798  0.3711
 4271SOL    HW224873   3.529   0.692   3.994 -0.0483  0.9756 -2.3385
 4272SOL     OW24874   2.900   0.598   4.613 -0.3428 -0.3357  0.0814
 4272SOL    HW124875   2.901   0.499   4.629 -0.3347  0.0799  2.8329
 4272SOL    HW224876   2.994   0.633   4.616 -0.4312 -0.1024  0.1582
 4273SOL     OW24877   4.496   9.611   9.558  0.1893 -0.3741 -0.1253
 4273SOL    HW124878   4.592   9.602   9.582  0.1901  0.1654  0.0810
 4273SOL    HW224879   4.453   9.521   9.557  0.3991 -0.4860  1.0199
 4274SOL     OW24880   6.899   7.619   8.716 -0.1256  0.6209 -0.1629
 4274SOL    HW124881   6.911   7.565   8.633  1.0921  3.0017 -1.6022
 4274SOL    HW224882   6.983   7.617   8.770 -0.6237 -0.2186  0.5951
 4275SOL     OW24883   0.728   2.344   7.962 -0.5305 -0.2179 -0.0994
 4275SOL    HW124884   0.709   2.409   8.036 -1.5068 -0.6867  0.0729
 4275SOL    HW224885   0.728   2.392   7.874  2.0416  0.6096  0.3050
 4276SOL     OW24886   3.176   9.271   9.488 -0.8566 -0.3221  0.5356
 4276SOL    HW124887   3.078   9.254   9.476 -0.9358 -1.5901  2.6911
 4276SOL    HW224888   3.202   9.351   9.434 -2.6912 -1.0170 -1.4901
 4277SOL     OW24889   1.224   4.513   5.220 -0.0273 -0.1809  0.0857
 4277SOL    HW124890   1.182   4.422   5.216 -1.4074  0.3623  1.6723
 4277SOL    HW224891   1.270   4.525   5.308  0.6098  0.4730 -0.3325
 4278SOL     OW24892   0.960   1.014   1.932 -0.4140  0.0256 -0.3092
 4278SOL    HW124893   0.904   0.959   1.871  0.4656 -1.7922  0.4582
 4278SOL    HW224894   1.044   1.041   1.885  0.1616 -1.1853 -0.0061
 4279SOL     OW24895   6.996   9.497   3.229 -0.1387 -0.2583  0.2892
 4279SOL    HW124896   7.021   9.453   3.315 -0.8153 -1.2419 -0.0083
 4279SOL    HW224897   7.055   9.464   3.155  0.5128  0.6649  0.3927
 4280SOL     OW24898   8.258   2.695   3.608 -0.1190  0.3476 -0.0619
 4280SOL    HW124899   8.309   2.636   3.546  0.1181  1.0091 -0.4953
 4280SOL    HW224900   8.192   2.749   3.556 -0.8348 -0.0470  0.4219
 4281SOL     OW24901   7.054   4.330   8.038  0.2244 -0.3758  1.0960
 4281SOL    HW124902   7.146   4.305   8.070  0.4145 -0.9419  0.1258
 4281SOL    HW224903   7.044   4.304   7.942 -1.4018 -1.5073  1.5549
 4282SOL     OW24904   6.672   3.314   1.486  0.6816  0.3510 -0.4357
 4282SOL    HW124905   6.669   3.269   1.575 -0.3483  0.7270 -0.2657
 4282SOL    HW224906   6.766   3.338   1.463  1.1103 -0.9209 -0.0462
 4283SOL     OW24907   8.965   3.742   9.908 -0.3622 -0.2379 -0.0877
 4283SOL    HW124908   9.027   3.780   9.977  0.1816  0.6218 -1.0270
 4283SOL    HW224909   8.953   3.808   9.834 -2.0698 -0.5828 -0.1315
 4284SOL     OW24910   3.770   7.369   5.464 -0.2330  0.0109 -0.3279
 4284SOL    HW124911   3.802   7.283   5.424  3.1921  1.1517 -0.2282
 4284SOL    HW224912   3.741   7.431   5.391 -0.0194 -0.2169 -0.6095
 4285SOL     OW24913   5.625   0.383   6.626  0.3722  0.0331 -0.3229
 4285SOL    HW124914   5.642   0.408   6.531 -1.1833  1.2049 -0.3054
 4285SOL    HW224915   5.677   0.445   6.686 -0.4472  0.7782 -0.3702
 4286SOL     OW24916   0.514   4.145   3.551 -0.1376 -0.1989 -0.4760
 4286SOL    HW124917   0.598   4.096   3.528 -0.2146 -0.6542  0.1813
 4286SOL    HW224918   0.465   4.168   3.467 -0.6832 -2.3058 -0.7809
 4287SOL     OW24919   1.863   0.102   6.584 -0.8138  0.4842  0.3148
 4287SOL    HW124920   1.785   0.160   6.608 -1.9875 -1.1378  0.5093
 4287SOL    HW224921   1.900   0.061   6.667 -0.5490  0.2770  0.0946
 4288SOL     OW24922   4.677   8.654   8.302  0.2486  0.3211  0.0266
 4288SOL    HW124923   4.743   8.730   8.309  1.2600 -0.5575  0.1702
 4288SOL    HW224924   4.682   8.613   8.211 -3.5517  3.3025 -1.6787
 4289SOL     OW24925   6.906   7.867   6.185  0.4966 -1.2044  0.7498
 4289SOL    HW124926   6.833   7.935   6.178  1.2750 -0.5729 -1.4952
 4289SOL    HW224927   6.878   7.784   6.137  1.8908 -0.3739 -1.5704
 4290SOL     OW24928   5.525   8.331   7.373  0.7876  0.2152 -0.3376
 4290SOL    HW124929   5.607   8.299   7.422  1.3125  0.8147 -0.8157
 4290SOL    HW224930   5.502   8.266   7.301  1.1402  0.2917 -0.5217
 4291SOL     OW24931   0.629   2.557   1.580 -0.3728 -0.0850 -0.6923
 4291SOL    HW124932   0.530   2.569   1.573 -0.4464 -0.9944 -1.3319
 4291SOL    HW224933   0.649   2.464   1.610  0.2818  0.2313 -0.1380
 4292SOL     OW24934   6.430   7.439   6.533 -0.6301 -0.1317 -0.2692
 4292SOL    HW124935   6.333   7.417   6.543 -1.2281  2.0510 -1.0274
 4292SOL    HW224936   6.449   7.467   6.439  0.7217 -0.4385 -0.1020
 4293SOL     OW24937   9.489   6.758   4.638  0.2737 -0.1314  0.2586
 4293SOL    HW124938   9.540   6.700   4.574 -1.6496 -0.1331 -1.3077
 4293SOL    HW224939   9.497   6.854   4.610 -1.1861 -0.2014 -0.4755
 4294SOL     OW24940   0.485   7.308   9.685  0.3073 -0.2231  0.0235
 4294SOL    HW124941   0.562   7.263   9.732  0.0754  0.5104  1.1206
 4294SOL    HW224942   0.436   7.366   9.750  0.0613  0.9237 -1.1779
 4295SOL     OW24943   3.384   3.104   3.892  0.0220 -0.6293  0.2241
 4295SOL    HW124944   3.420   3.011   3.895 -1.8743 -1.4644 -1.6108
 4295SOL    HW224945   3.450   3.164   3.849  0.4483 -1.5447 -0.4200
 4296SOL     OW24946   5.664   5.236   0.925  0.9597 -0.1427  0.4683
 4296SOL    HW124947   5.640   5.186   1.008  1.4758 -1.3270 -0.0812
 4296SOL    HW224948   5.628   5.187   0.845  2.8047 -0.4894 -0.1758
 4297SOL     OW24949   3.694   0.334   2.306  0.1145  0.0077  0.3553
 4297SOL    HW124950   3.724   0.420   2.264  0.1012  0.2418  0.8112
 4297SOL    HW224951   3.720   0.335   2.403  1.8577 -1.3304 -0.0748
 4298SOL     OW24952   0.426   1.771   4.611  0.2358 -0.3448  0.0129
 4298SOL    HW124953   0.413   1.700   4.680 -0.2141 -1.6816 -1.4192
 4298SOL    HW224954   0.481   1.735   4.536  1.3219  1.3111 -0.0235
 4299SOL     OW24955   2.708   3.523   8.082 -0.2632  0.1563 -1.1245
 4299SOL    HW124956   2.614   3.508   8.052 -0.6419 -2.3493  1.1235
 4299SOL    HW224957   2.770   3.468   8.026 -0.1120  1.7409 -2.5498
 4300SOL     OW24958   0.746   0.974   3.130  0.1132  0.4737  0.0264
 4300SOL    HW124959   0.703   1.041   3.071  2.1879  2.6325  0.8983
 4300SOL    HW224960   0.733   1.001   3.226  0.0113 -0.9791  0.4373
 4301SOL     OW24961   9.468   4.325   7.567  0.0492  0.1754 -0.1967
 4301SOL    HW124962   9.534   4.250   7.572 -0.6563 -0.6099 -2.2223
 4301SOL    HW224963   9.461   4.356   7.472 -0.2923  2.2519  0.4947
 4302SOL     OW24964   9.788   3.101   1.796  0.0931 -0.0177  0.2333
 4302SOL    HW124965   9.715   3.166   1.819 -0.1153 -0.5843  1.1907
 4302SOL    HW224966   9.802   3.101   1.697  0.1389  1.5333  0.2266
 4303SOL     OW24967   9.087   6.458   0.792 -0.2777 -0.1963  0.3116
 4303SOL    HW124968   9.075   6.363   0.764 -0.3650 -0.1077  0.0495
 4303SOL    HW224969   9.011   6.513   0.757 -0.6164 -0.1669  1.0972
 4304SOL     OW24970   3.017   9.353   7.976  0.2553 -0.5921 -0.0683
 4304SOL    HW124971   3.046   9.262   8.008 -1.0144 -0.8114  0.4822
 4304SOL    HW224972   2.917   9.357   7.974  0.3163  0.2404 -1.6999
 4305SOL     OW24973   1.449   0.341   3.000  0.0865  0.1390 -0.1645
 4305SOL    HW124974   1.480   0.259   3.049 -0.8565 -0.6464 -0.8434
 4305SOL    HW224975   1.363   0.373   3.041  0.1595  0.4511 -0.2588
 4306SOL     OW24976   9.868   9.936   2.440 -0.2215 -0.0862 -0.3297
 4306SOL    HW124977   9.828   9.971   2.525  0.4123 -3.3364  1.3806
 4306SOL    HW224978   9.949   9.990   2.417  1.1524 -0.8021  2.6023
 4307SOL     OW24979   8.177   9.683   4.193  0.0869  0.4951 -0.5737
 4307SOL    HW124980   8.210   9.688   4.288 -1.5447  0.5932 -0.0006
 4307SOL    HW224981   8.198   9.594   4.155 -0.5460 -0.0750  0.3814
 4308SOL     OW24982   8.726   2.075   4.106  0.1967  0.8033  0.2519
 4308SOL    HW124983   8.738   2.106   4.012  1.1569  0.0062  0.1064
 4308SOL    HW224984   8.751   2.149   4.169  2.7862  0.2456 -0.0847
 4309SOL     OW24985   0.303   7.547   4.151  0.2106 -0.1407 -0.5335
 4309SOL    HW124986   0.234   7.618   4.162 -0.6246 -0.8047 -1.3948
 4309SOL    HW224987   0.375   7.560   4.219 -0.0678  1.3635 -0.5050
 4310SOL     OW24988   0.062   9.737   7.070 -0.5916 -0.4234 -0.6684
 4310SOL    HW124989   0.123   9.706   7.144 -1.6830  1.7946  1.2137
 4310SOL    HW224990   0.029   9.657   7.020  0.0765 -2.0153  1.3199
 4311SOL     OW24991   5.535   5.675   8.596  0.8162  0.0567  0.0399
 4311SOL    HW124992   5.504   5.711   8.507  0.6319  0.6625  0.3456
 4311SOL    HW224993   5.623   5.629   8.584 -0.0088 -1.3307 -0.7635
 4312SOL     OW24994   1.963   3.487   7.320 -0.2628 -0.4214  0.1526
 4312SOL    HW124995   2.060   3.475   7.296 -0.2583 -1.2961  0.5629
 4312SOL    HW224996   1.910   3.505   7.237  0.5391  2.0830  0.1611
 4313SOL     OW24997   3.787   2.141   7.934 -0.0805  0.5756  0.0169
 4313SOL    HW124998   3.810   2.052   7.894  1.6058 -0.2193  2.6051
 4313SOL    HW224999   3.868   2.200   7.932 -0.6809  1.4038 -0.0130
 4314SOL     OW25000   6.824   1.973   2.874 -0.4248  0.2807 -0.3028
 4314SOL    HW125001   6.799   1.900   2.810 -0.1789 -0.7991  0.8073
 4314SOL    HW225002   6.742   2.020   2.905 -0.5868  0.4765 -1.0276
 4315SOL     OW25003   0.274   8.909   1.563  0.2484  0.0270 -0.0112
 4315SOL    HW125004   0.323   8.857   1.633 -1.3589 -2.4246 -0.6393
 4315SOL    HW225005   0.179   8.920   1.590  0.1316  1.0036 -0.7924
 4316SOL     OW25006   4.862   0.481   7.960  0.2500 -0.1051 -0.4506
 4316SOL    HW125007   4.799   0.559   7.963  0.8661  0.3486  1.7440
 4316SOL    HW225008   4.956   0.513   7.964  0.5623 -0.8920 -1.2781
 4317SOL     OW25009   0.237   9.181   4.035  0.2937 -0.3070 -0.4808
 4317SOL    HW125010   0.287   9.096   4.050  1.5592  0.6192  0.5897
 4317SOL    HW225011   0.300   9.259   4.039 -1.1411  0.8399  0.4165
 4318SOL     OW25012   0.269   7.641   7.361 -0.0473 -0.2705  0.3134
 4318SOL    HW125013   0.233   7.714   7.303 -1.7569 -1.4913 -0.2027
 4318SOL    HW225014   0.207   7.625   7.438 -0.3921 -2.0432 -0.2896
 4319SOL     OW25015   6.201   9.236   8.740  0.3208  0.5321  0.0419
 4319SOL    HW125016   6.109   9.272   8.753  0.3806  0.9742 -0.7572
 4319SOL    HW225017   6.228   9.245   8.644  0.3901 -1.5059 -0.1579
 4320SOL     OW25018   5.983   2.108   4.861 -0.1485  0.1897  0.1546
 4320SOL    HW125019   6.073   2.130   4.824 -0.4420  1.4003  0.1488
 4320SOL    HW225020   5.923   2.080   4.786  0.1943 -0.5449  0.1474
 4321SOL     OW25021   0.215   5.388   1.784 -0.1903  0.0931  0.2167
 4321SOL    HW125022   0.124   5.419   1.813  0.4261  1.9733  0.1821
 4321SOL    HW225023   0.209   5.346   1.693 -0.8869  0.9792 -0.1531
 4322SOL     OW25024   8.179   1.261   5.985 -0.1860  0.4638 -0.3790
 4322SOL    HW125025   8.151   1.348   5.944 -1.3095 -0.2841 -1.2352
 4322SOL    HW225026   8.126   1.245   6.068  1.2717  1.4218  0.7682
 4323SOL     OW25027   0.670   4.229  10.039 -0.2125  0.7269  0.4140
 4323SOL    HW125028   0.697   4.213  10.134 -1.9195  0.1319  0.8128
 4323SOL    HW225029   0.574   4.256  10.036 -0.2148  0.5719 -1.1648
 4324SOL     OW25030   4.954   5.422   3.486 -0.1977 -0.0112 -0.2267
 4324SOL    HW125031   5.025   5.491   3.481  0.5102 -0.6592  0.7066
 4324SOL    HW225032   4.968   5.354   3.414 -1.4256  1.2834 -1.7345
 4325SOL     OW25033   7.564   3.302   6.136  0.3210  0.5187 -0.4960
 4325SOL    HW125034   7.573   3.205   6.159  0.4246  0.4690 -0.7541
 4325SOL    HW225035   7.505   3.312   6.056 -2.3027  0.8513  1.4146
 4326SOL     OW25036   5.789   8.436   5.852  0.3164  0.0239  0.4424
 4326SOL    HW125037   5.732   8.463   5.930 -2.4475  0.9685 -1.8229
 4326SOL    HW225038   5.846   8.513   5.825 -2.7845  1.6190 -1.8787
 4327SOL     OW25039   3.490   2.892   1.905 -0.7049 -0.4567  0.1212
 4327SOL    HW125040   3.549   2.969   1.930 -1.6068 -0.0565  1.0720
 4327SOL    HW225041   3.415   2.885   1.971 -1.0788 -1.6668 -0.4121
 4328SOL     OW25042   7.214   5.154   7.101 -0.2177  0.1767 -0.6701
 4328SOL    HW125043   7.199   5.093   7.023  1.5066 -0.7131 -0.3178
 4328SOL    HW225044   7.195   5.105   7.186 -2.1230  1.1552 -0.4958
 4329SOL     OW25045   0.778   8.929   8.935 -0.6706  0.2024 -0.0107
 4329SOL    HW125046   0.771   9.024   8.903  1.1309 -0.1149 -1.4102
 4329SOL    HW225047   0.756   8.867   8.861 -0.6890 -0.4950  0.5721
 4330SOL     OW25048   3.617   3.524   7.404  0.7295 -0.3431  0.3622
 4330SOL    HW125049   3.571   3.513   7.316  1.4743 -0.1276 -0.0602
 4330SOL    HW225050   3.606   3.618   7.435  1.4511 -0.1147 -0.0646
 4331SOL     OW25051   6.825   1.423   6.048 -0.1927  0.1769 -0.4154
 4331SOL    HW125052   6.803   1.473   5.964  1.4886  0.5998 -0.6404
 4331SOL    HW225053   6.911   1.373   6.034 -0.9207 -1.3282  0.4151
 4332SOL     OW25054   0.534   0.936   4.713 -0.5678  0.1847  0.1391
 4332SOL    HW125055   0.518   0.988   4.796  0.0713  0.5450  0.0461
 4332SOL    HW225056   0.616   0.972   4.667 -0.6463 -0.3131 -0.3951
 4333SOL     OW25057   8.202   3.312   1.161  0.0710 -0.2091  0.0520
 4333SOL    HW125058   8.139   3.235   1.153 -1.3265  0.9367 -0.2392
 4333SOL    HW225059   8.217   3.333   1.258 -0.2122 -0.3138  0.1187
 4334SOL     OW25060   2.630   5.083   8.581  0.4719  0.3193 -0.0936
 4334SOL    HW125061   2.672   5.163   8.623  0.2711  0.2104  0.3137
 4334SOL    HW225062   2.701   5.016   8.558  0.3256 -0.8066  2.5915
 4335SOL     OW25063   3.592   0.700   5.597 -0.3945 -0.1156  0.0515
 4335SOL    HW125064   3.655   0.762   5.645 -0.2899  0.6239 -1.0428
 4335SOL    HW225065   3.506   0.694   5.648  0.2265 -0.4396  1.0800
 4336SOL     OW25066   6.137   0.390   5.571  0.4555  0.5942  0.1097
 4336SOL    HW125067   6.112   0.449   5.648 -0.6776 -1.7716  1.6068
 4336SOL    HW225068   6.175   0.305   5.606  0.0158 -0.4751 -1.9630
 4337SOL     OW25069   4.976   4.410   6.434 -0.3119 -0.6775  1.0073
 4337SOL    HW125070   4.924   4.325   6.434 -0.5682 -0.5254  0.2292
 4337SOL    HW225071   5.066   4.393   6.394 -1.4661  0.0596 -2.0307
 4338SOL     OW25072   2.726   9.093   7.542 -0.1824 -0.2218 -0.3235
 4338SOL    HW125073   2.682   9.011   7.578 -3.0036  0.1676 -2.6669
 4338SOL    HW225074   2.764   9.073   7.451 -0.5373  0.9438 -0.7411
 4339SOL     OW25075   0.993   0.862   1.251 -0.0566 -0.7503 -0.6647
 4339SOL    HW125076   0.947   0.879   1.337  1.1505 -0.7568 -0.0030
 4339SOL    HW225077   0.959   0.777   1.210  1.1009 -2.0643  1.0279
 4340SOL     OW25078   7.907   5.848   2.534  0.3129  0.0754  0.2036
 4340SOL    HW125079   7.863   5.870   2.446 -1.3502 -0.2100  0.9363
 4340SOL    HW225080   7.954   5.929   2.568  2.4268 -0.2835 -1.7487
 4341SOL     OW25081   2.713   1.511   8.831 -0.1610  0.1890 -0.0402
 4341SOL    HW125082   2.755   1.420   8.825 -1.1359 -0.3866  1.4744
 4341SOL    HW225083   2.779   1.575   8.872  0.3355  0.0383 -0.5980
 4342SOL     OW25084   9.705   9.209   6.697  0.2199  0.4167 -0.4539
 4342SOL    HW125085   9.707   9.114   6.730 -2.3440 -0.2010 -1.9368
 4342SOL    HW225086   9.797   9.248   6.704  1.6773 -2.6931 -1.2706
 4343SOL     OW25087   6.094   5.232   7.601  0.4959 -0.3068 -0.3979
 4343SOL    HW125088   6.166   5.221   7.670 -0.0578 -1.4469 -0.0058
 4343SOL    HW225089   6.012   5.183   7.629 -0.5044  1.0979 -0.7816
 4344SOL     OW25090   1.893   6.277   0.224 -0.3359  0.6090  0.0707
 4344SOL    HW125091   1.909   6.180   0.205  1.6795  0.2917  3.0328
 4344SOL    HW225092   1.963   6.333   0.179 -1.2228  0.6706 -1.2514
 4345SOL     OW25093   9.956   1.418   7.933 -0.5441 -0.1331 -0.2026
 4345SOL    HW125094   9.966   1.485   8.007  1.2757  1.2115 -1.6022
 4345SOL    HW225095   9.859   1.401   7.917 -1.0181  1.3431  0.9249
 4346SOL     OW25096   0.605   3.834   6.783 -0.1571  0.4804  0.4428
 4346SOL    HW125097   0.517   3.812   6.825 -0.3043 -0.4200 -0.3202
 4346SOL    HW225098   0.671   3.860   6.854 -1.3519  2.2610  0.9103
 4347SOL     OW25099   3.363   6.452   1.908 -0.3598 -0.1571  0.1350
 4347SOL    HW125100   3.340   6.461   1.811  1.4762 -0.8559 -0.3842
 4347SOL    HW225101   3.393   6.540   1.944  2.7170 -0.6847 -0.9675
 4348SOL     OW25102   6.021   3.114   0.151 -0.1546  0.0042 -0.4306
 4348SOL    HW125103   6.096   3.154   0.204 -0.7545  0.6376 -0.0571
 4348SOL    HW225104   5.939   3.170   0.161  0.0239  0.7414 -2.9613
 4349SOL     OW25105   2.120   6.617   0.949  0.0627 -0.9278  0.4836
 4349SOL    HW125106   2.155   6.527   0.974 -0.5194 -0.7706  1.9297
 4349SOL    HW225107   2.043   6.607   0.887  0.0564 -1.4311  0.5687
 4350SOL     OW25108   1.991   2.820   5.720  0.3845 -0.0737  0.9076
 4350SOL    HW125109   1.925   2.867   5.779 -0.1747 -0.3692  0.5193
 4350SOL    HW225110   2.082   2.859   5.735 -0.1931  1.7016  0.0253
 4351SOL     OW25111   9.923   2.395   1.435  0.1785 -0.2350  0.3630
 4351SOL    HW125112   9.884   2.414   1.345  0.6741  0.4375  0.2865
 4351SOL    HW225113  10.023   2.402   1.430  0.1480  0.7703  1.1953
 4352SOL     OW25114   0.854   7.680   5.486 -0.3372  0.4866 -0.4107
 4352SOL    HW125115   0.783   7.649   5.548  0.9280 -1.5613  0.0708
 4352SOL    HW225116   0.831   7.653   5.393 -0.3265  0.0835 -0.2957
 4353SOL     OW25117   7.485   4.790   2.299 -0.1842  0.5867 -0.0473
 4353SOL    HW125118   7.532   4.715   2.251 -3.3957 -1.6169  0.0717
 4353SOL    HW225119   7.511   4.788   2.395 -0.7291 -0.7901  0.0799
 4354SOL     OW25120   0.724   6.256   7.186  0.4533 -0.4383  0.8535
 4354SOL    HW125121   0.762   6.196   7.257  0.3790 -1.2250  0.2311
 4354SOL    HW225122   0.648   6.309   7.224  1.1517 -0.0080  1.6786
 4355SOL     OW25123   4.127   6.478   2.961 -0.3967  0.0174  0.0712
 4355SOL    HW125124   4.037   6.484   2.918 -0.6103 -1.2319  0.3483
 4355SOL    HW225125   4.180   6.560   2.937 -1.9707  1.2843  0.7881
 4356SOL     OW25126   7.431   5.089   8.255 -0.2595 -0.6588  0.0214
 4356SOL    HW125127   7.464   5.182   8.235  0.3718 -0.8626  0.0936
 4356SOL    HW225128   7.462   5.027   8.182  0.7754 -1.1283  0.8524
 4357SOL     OW25129   4.585   7.367   5.277  0.1804 -0.2507 -0.4170
 4357SOL    HW125130   4.561   7.461   5.301 -1.3640 -0.4401 -1.0916
 4357SOL    HW225131   4.532   7.340   5.196  0.1784 -1.8908  0.1228
 4358SOL     OW25132   9.388   2.577   5.876  0.4141  0.2829  0.2706
 4358SOL    HW125133   9.337   2.652   5.917 -2.1127 -1.0710 -0.2762
 4358SOL    HW225134   9.420   2.515   5.947  1.2863  1.1047  0.6089
 4359SOL     OW25135   0.320   4.046   9.395 -0.5025 -0.2677 -0.3722
 4359SOL    HW125136   0.361   4.002   9.475  0.8751 -3.1964 -2.6028
 4359SOL    HW225137   0.245   3.989   9.360 -1.8260  1.5316 -0.5478
 4360SOL     OW25138   2.470   6.201   9.765 -0.0731 -0.1430  0.1260
 4360SOL    HW125139   2.533   6.210   9.688  0.1436 -1.3511  0.1523
 4360SOL    HW225140   2.420   6.115   9.757 -1.5211  0.6677  0.2597
 4361SOL     OW25141   0.321   6.497   3.600  0.0970 -0.1743  0.3470
 4361SOL    HW125142   0.271   6.415   3.574 -0.0739  0.3761 -1.1192
 4361SOL    HW225143   0.305   6.569   3.533  2.1836  0.2798  0.2914
 4362SOL     OW25144   2.456   8.773   8.972 -0.0176 -0.1015 -0.6301
 4362SOL    HW125145   2.379   8.808   9.026  1.9605  1.3955  1.2992
 4362SOL    HW225146   2.471   8.676   8.995  0.6952  0.4712  1.4201
 4363SOL     OW25147   4.467   9.015   0.778 -0.2657 -0.1848 -0.1123
 4363SOL    HW125148   4.526   9.023   0.698 -0.3869 -1.8786 -0.3881
 4363SOL    HW225149   4.375   8.989   0.749 -0.4180 -0.3822  0.5386
 4364SOL     OW25150   0.799   4.180   0.224 -0.0531 -0.3368 -0.2364
 4364SOL    HW125151   0.815   4.084   0.202 -0.5794 -0.2350 -1.0909
 4364SOL    HW225152   0.874   4.235   0.190 -0.4329 -0.2852 -1.0051
 4365SOL     OW25153   0.532   4.252   4.282  0.0428  0.0176 -0.2711
 4365SOL    HW125154   0.612   4.259   4.341  0.8354 -0.8197 -1.2400
 4365SOL    HW225155   0.483   4.339   4.281  1.0060  0.5646  0.2204
 4366SOL     OW25156   8.087   5.764   4.989  0.0877  0.3123 -0.4449
 4366SOL    HW125157   8.179   5.735   5.014 -0.1037 -1.9687 -2.2499
 4366SOL    HW225158   8.038   5.793   5.072  1.9035  0.1448  0.7248
 4367SOL     OW25159   6.899   2.897   1.595  0.1731 -0.0876  0.2348
 4367SOL    HW125160   6.889   2.974   1.533  0.1800 -0.4269 -0.1977
 4367SOL    HW225161   6.851   2.915   1.681  1.6407  1.1286  0.8166
 4368SOL     OW25162   9.109   3.213   4.685 -0.7562  0.2741  0.1677
 4368SOL    HW125163   9.181   3.260   4.634 -0.4927 -0.9003 -0.5639
 4368SOL    HW225164   9.133   3.210   4.782 -0.4282  0.9968  0.1112
 4369SOL     OW25165   2.990   5.144   2.427  0.6229 -0.4102 -0.3883
 4369SOL    HW125166   2.971   5.063   2.483 -0.6108 -1.3204 -2.0564
 4369SOL    HW225167   3.074   5.130   2.376 -0.4272 -1.3467 -1.8977
 4370SOL     OW25168   1.159   2.094   8.821 -0.0732 -0.3620  0.1681
 4370SOL    HW125169   1.060   2.092   8.833 -0.0366  0.5409  0.7208
 4370SOL    HW225170   1.202   2.051   8.900  0.0603  2.3645  1.6669
 4371SOL     OW25171   1.845   5.454   7.763  0.1289  0.2427  0.2548
 4371SOL    HW125172   1.933   5.418   7.731  0.3857  0.4476  0.7350
 4371SOL    HW225173   1.785   5.468   7.684  0.6423  0.4228 -0.1095
 4372SOL     OW25174   4.107   2.437   4.089 -0.5529  0.7185  0.3700
 4372SOL    HW125175   4.050   2.370   4.136 -2.2505  0.3039 -2.1974
 4372SOL    HW225176   4.061   2.526   4.087  0.0675  1.0509  0.5711
 4373SOL     OW25177   7.990   1.360   1.488  0.1014  0.2507  0.2240
 4373SOL    HW125178   7.997   1.274   1.438 -0.5752 -0.1664  0.8339
 4373SOL    HW225179   7.979   1.436   1.424  0.9345 -0.0891 -0.3234
 4374SOL     OW25180   2.124   5.207   6.368 -0.4785  0.0604 -0.3687
 4374SOL    HW125181   2.121   5.121   6.316  0.0333  0.1237 -0.5064
 4374SOL    HW225182   2.065   5.199   6.449 -1.5344  0.0776 -1.1319
 4375SOL     OW25183   5.808   0.505   6.768 -0.2274  0.0847  1.2160
 4375SOL    HW125184   5.793   0.534   6.863  1.0149  0.1958  1.3758
 4375SOL    HW225185   5.905   0.494   6.751 -0.3565  1.4256 -0.4758
 4376SOL     OW25186   4.219   6.838   0.612  0.2095 -0.3169  0.0424
 4376SOL    HW125187   4.313   6.806   0.602  0.4806  0.7674 -1.1450
 4376SOL    HW225188   4.171   6.827   0.525  0.2355  2.1663 -0.3374
 4377SOL     OW25189   7.567   0.499   8.496 -0.4827 -0.0775 -0.0856
 4377SOL    HW125190   7.520   0.443   8.564 -0.0033 -0.1617  0.1847
 4377SOL    HW225191   7.666   0.485   8.504 -0.2606  1.8055  0.8986
 4378SOL     OW25192   3.839   6.000   2.314  0.3806  0.0188 -0.0429
 4378SOL    HW125193   3.764   5.987   2.249  0.7510 -0.5591 -0.3648
 4378SOL    HW225194   3.801   6.017   2.406 -0.1465  2.1777 -0.6384
 4379SOL     OW25195   8.449   5.570   3.860  0.1710  0.4775 -0.3524
 4379SOL    HW125196   8.370   5.606   3.909 -1.1777 -0.2334 -1.9979
 4379SOL    HW225197   8.533   5.607   3.902 -1.0079  1.4163  1.2435
 4380SOL     OW25198   7.548   9.185   3.485  0.2037  0.0272 -0.5927
 4380SOL    HW125199   7.502   9.127   3.418  0.8387 -1.6045  0.3357
 4380SOL    HW225200   7.646   9.163   3.486  0.2598  0.2893  0.5851
 4381SOL     OW25201   8.065   2.394   7.523  0.2636  0.2498 -0.3307
 4381SOL    HW125202   7.997   2.430   7.459  1.6740 -0.7016 -2.4608
 4381SOL    HW225203   8.118   2.323   7.477  0.8963 -0.9246  2.1548
 4382SOL     OW25204   0.636   2.159   2.659  0.0096  0.3438  0.5234
 4382SOL    HW125205   0.552   2.120   2.697  0.9149 -1.7056  0.4990
 4382SOL    HW225206   0.671   2.229   2.721 -0.7621 -0.0480  1.4237
 4383SOL     OW25207   8.867   7.843   6.259  0.6176  0.4136 -0.3224
 4383SOL    HW125208   8.837   7.752   6.287  1.5849 -0.3080 -1.5663
 4383SOL    HW225209   8.793   7.909   6.274 -0.1231 -0.5921  0.4965
 4384SOL     OW25210   9.371   5.061   9.171  0.0432 -0.0875 -0.3710
 4384SOL    HW125211   9.323   5.062   9.258  1.4210 -1.3671  0.4302
 4384SOL    HW225212   9.318   5.009   9.104  0.3156 -1.5676  0.5255
 4385SOL     OW25213   9.294   5.328   7.324 -0.2563 -0.1615  0.0820
 4385SOL    HW125214   9.312   5.426   7.316  0.5134 -0.3152 -0.0557
 4385SOL    HW225215   9.380   5.278   7.319 -0.6487 -0.8443  0.1687
 4386SOL     OW25216   3.875   7.459   8.701 -0.4584  0.1646  0.4645
 4386SOL    HW125217   3.798   7.463   8.638 -1.2982  0.4092  1.4946
 4386SOL    HW225218   3.869   7.534   8.766  0.8479  0.3911  0.3325
 4387SOL     OW25219   2.298   3.537   3.465 -0.0829 -0.3278 -0.2733
 4387SOL    HW125220   2.206   3.567   3.439 -0.0838 -0.6271 -0.6064
 4387SOL    HW225221   2.315   3.446   3.429  0.4927 -0.1188 -0.5373
 4388SOL     OW25222   1.518   5.100   9.803  0.2335  0.3507  0.0777
 4388SOL    HW125223   1.470   5.037   9.864 -0.2577  0.6500 -0.0054
 4388SOL    HW225224   1.507   5.071   9.708  0.8996 -0.0474  0.1140
 4389SOL     OW25225   7.261   0.334   3.624 -0.2163  0.1847 -0.4070
 4389SOL    HW125226   7.298   0.424   3.602  1.2967 -0.4561 -0.5786
 4389SOL    HW225227   7.223   0.334   3.716  0.6257  0.7500 -0.0586
 4390SOL     OW25228   0.021   6.055   2.466  0.1100 -0.3367 -0.5169
 4390SOL    HW125229   0.024   6.128   2.534  1.3136 -1.1853  0.3765
 4390SOL    HW225230  -0.005   6.093   2.378 -0.3418  0.9826  0.1648
 4391SOL     OW25231   4.319   3.722   5.293 -0.1768 -0.0326  0.2740
 4391SOL    HW125232   4.352   3.803   5.246  0.1765  0.3735  1.2050
 4391SOL    HW225233   4.286   3.747   5.384 -0.1654 -0.9137  0.5292
 4392SOL     OW25234   3.537   1.987   2.412 -0.0369  0.3964 -0.1360
 4392SOL    HW125235   3.582   1.959   2.327  1.4950 -1.5999  1.3109
 4392SOL    HW225236   3.582   2.069   2.448  0.5481  0.1234 -0.2455
 4393SOL     OW25237   0.191   0.244   8.262 -0.1766  0.3702  0.0857
 4393SOL    HW125238   0.200   0.201   8.352 -0.7539 -1.0636 -0.5279
 4393SOL    HW225239   0.105   0.293   8.256  0.0921  0.8926  0.4894
 4394SOL     OW25240   9.393   0.106   4.110 -0.4834  0.2902  0.8049
 4394SOL    HW125241   9.355   0.052   4.035 -1.2133 -0.1298  1.4823
 4394SOL    HW225242   9.402   0.049   4.192  1.7876  0.3215  0.6046
 4395SOL     OW25243   4.304   2.416   8.616 -0.2025  0.4143 -0.0965
 4395SOL    HW125244   4.225   2.377   8.663 -0.1219  1.1800  0.7001
 4395SOL    HW225245   4.274   2.489   8.554 -0.0984  0.9695  0.4932
 4396SOL     OW25246   6.570   2.456   0.249 -0.5991 -0.3416  0.1946
 4396SOL    HW125247   6.607   2.406   0.171  0.4851 -0.6081  0.8767
 4396SOL    HW225248   6.643   2.478   0.313 -1.4325  0.1400  1.0025
 4397SOL     OW25249   1.545   5.498   1.643 -0.4014 -0.2267 -0.3991
 4397SOL    HW125250   1.566   5.556   1.565  0.1378 -0.2143 -0.2452
 4397SOL    HW225251   1.449   5.510   1.669 -0.4951  0.0075 -0.8545
 4398SOL     OW25252   0.241   3.317   8.998 -0.1004  0.1905  0.8203
 4398SOL    HW125253   0.303   3.351   8.927  0.8709  3.1605  3.0202
 4398SOL    HW225254   0.292   3.256   9.059 -0.1061  0.3202  0.9529
 4399SOL     OW25255   8.747   4.279   9.387  0.3148 -0.6341 -0.0941
 4399SOL    HW125256   8.775   4.363   9.434  0.2675 -0.3162 -0.6233
 4399SOL    HW225257   8.648   4.280   9.373  0.3642 -0.5924 -0.4490
 4400SOL     OW25258   7.908   3.595   0.174 -0.6363  0.7082  0.0158
 4400SOL    HW125259   7.892   3.641   0.086 -0.4230 -0.4148 -0.6214
 4400SOL    HW225260   8.006   3.593   0.193 -0.5337 -0.5817 -0.5788
 4401SOL     OW25261   9.787   0.583   9.686  0.8228  0.1448 -0.1980
 4401SOL    HW125262   9.881   0.603   9.656  0.8443  0.1418 -0.1307
 4401SOL    HW225263   9.733   0.667   9.686  0.9224  0.2096  0.1082
 4402SOL     OW25264   5.808   9.261   8.534  0.2238  0.0677  0.3335
 4402SOL    HW125265   5.808   9.274   8.434  1.6555  0.8347  0.4198
 4402SOL    HW225266   5.725   9.212   8.561 -0.0993 -0.2968 -1.2572
 4403SOL     OW25267   0.741   4.865   3.095 -0.6060 -0.6754  0.0080
 4403SOL    HW125268   0.743   4.870   2.995 -1.1135  0.0349  0.0303
 4403SOL    HW225269   0.672   4.929   3.130  0.4116 -0.0288  0.8690
 4404SOL     OW25270   1.185   3.052   8.834 -0.8336  0.6194 -0.4453
 4404SOL    HW125271   1.088   3.063   8.811 -1.1366  0.7964  0.8669
 4404SOL    HW225272   1.241   3.070   8.753 -1.8395  1.4683 -0.9633
 4405SOL     OW25273   3.204   9.855   8.724 -0.0776 -0.4712  0.3361
 4405SOL    HW125274   3.214   9.808   8.636 -0.7025 -0.8059  0.4361
 4405SOL    HW225275   3.286   9.908   8.744 -0.2465  0.2669 -0.8454
 4406SOL     OW25276   6.692   8.126   4.613  0.6849  0.2272 -0.0419
 4406SOL    HW125277   6.647   8.202   4.659 -1.1954 -1.8370  1.6683
 4406SOL    HW225278   6.748   8.075   4.678 -0.7416 -1.7984 -0.3337
 4407SOL     OW25279   5.035   4.867   6.554 -0.1630 -0.1719  0.0619
 4407SOL    HW125280   4.995   4.958   6.567  2.6623  1.2289 -0.7995
 4407SOL    HW225281   5.010   4.832   6.464  1.7208  1.3351 -1.0677
 4408SOL     OW25282   9.794   6.864   8.957 -0.1397 -0.0959  0.7753
 4408SOL    HW125283   9.872   6.924   8.970  0.8063 -0.7735 -1.4566
 4408SOL    HW225284   9.752   6.882   8.868 -2.4035  0.0899  1.8242
 4409SOL     OW25285   6.117   3.969   0.460 -0.0163 -0.2756 -0.2436
 4409SOL    HW125286   6.151   4.049   0.412  1.2714 -0.0716  0.9690
 4409SOL    HW225287   6.060   3.998   0.537 -0.0608 -0.5382 -0.1765
 4410SOL     OW25288   1.851   2.009   1.888  0.3045 -0.3009  0.0911
 4410SOL    HW125289   1.780   2.036   1.823  1.2359 -0.7821 -1.1460
 4410SOL    HW225290   1.808   1.976   1.972 -0.9456 -0.7735 -0.7104
 4411SOL     OW25291   0.231   6.543   4.794 -0.0161  0.1576  0.4511
 4411SOL    HW125292   0.208   6.447   4.814  1.5878 -0.6738 -1.4762
 4411SOL    HW225293   0.149   6.599   4.800 -0.6956 -1.0591  3.1349
 4412SOL     OW25294   1.584   1.490   3.660 -0.4087 -0.4174  0.2930
 4412SOL    HW125295   1.679   1.466   3.683 -0.1976 -0.4692 -0.6213
 4412SOL    HW225296   1.532   1.504   3.744 -0.0984 -2.3473  0.8315
 4413SOL     OW25297   3.888   2.249   6.500 -0.2041  0.1895  0.0111
 4413SOL    HW125298   3.896   2.189   6.580 -1.4575  0.0988  0.0678
 4413SOL    HW225299   3.932   2.205   6.422  1.8802  0.6955  0.8577
 4414SOL     OW25300   4.690   2.697   1.290 -0.4182  0.0930  0.2033
 4414SOL    HW125301   4.742   2.760   1.232 -2.8288 -0.2067 -2.4525
 4414SOL    HW225302   4.751   2.627   1.326  1.4230  1.0587 -0.9367
 4415SOL     OW25303   9.956   3.446   3.239  0.1018  0.2356 -0.1070
 4415SOL    HW125304  10.026   3.374   3.235 -0.7842 -0.5763 -1.4603
 4415SOL    HW225305   9.900   3.435   3.320 -0.9570 -1.5032 -1.0503
 4416SOL     OW25306   8.469   0.090   8.175 -0.1417 -0.2698 -0.5065
 4416SOL    HW125307   8.381   0.127   8.148 -0.2376  0.0275  0.2134
 4416SOL    HW225308   8.493   0.122   8.267  0.8502 -0.1144 -0.8147
 4417SOL     OW25309   0.397   9.355   2.634  0.1667 -0.2718 -0.6854
 4417SOL    HW125310   0.377   9.446   2.598  0.3876 -0.3842 -1.1016
 4417SOL    HW225311   0.329   9.290   2.599 -0.4196 -0.1361  0.1945
 4418SOL     OW25312   1.376   5.677   5.667  0.1143  0.0698  0.5277
 4418SOL    HW125313   1.422   5.597   5.628 -0.7985 -0.5694  0.7383
 4418SOL    HW225314   1.436   5.721   5.733  0.7375 -0.2724  0.1983
 4419SOL     OW25315   0.853   9.439   2.151  0.0728  0.0616  0.0532
 4419SOL    HW125316   0.787   9.393   2.210 -0.7814  0.0455 -0.9044
 4419SOL    HW225317   0.939   9.387   2.150  0.1827  0.1964  1.4655
 4420SOL     OW25318   4.893   1.431   6.868 -0.4158 -0.5531 -0.1768
 4420SOL    HW125319   4.858   1.417   6.961 -1.0554  0.5881 -0.2382
 4420SOL    HW225320   4.986   1.395   6.862  0.2196  0.7559  1.3603
 4421SOL     OW25321   7.861   6.310   0.050 -0.0565 -0.5783 -0.1106
 4421SOL    HW125322   7.797   6.272  -0.017  0.6490 -0.4059 -0.8863
 4421SOL    HW225323   7.830   6.287   0.142 -1.4817 -0.1272 -0.4590
 4422SOL     OW25324   9.706   8.180   7.280 -0.3736  0.1240  0.7497
 4422SOL    HW125325   9.685   8.103   7.341  1.4895 -0.4944  0.6442
 4422SOL    HW225326   9.624   8.207   7.231 -1.3398 -0.9800  1.7307
 4423SOL     OW25327   4.224   0.849   7.612 -0.0854  0.6034  0.8530
 4423SOL    HW125328   4.238   0.772   7.675  3.0992 -1.2727 -2.0289
 4423SOL    HW225329   4.153   0.825   7.546 -1.5111  1.5228  2.0245
 4424SOL     OW25330   7.682   0.281   4.925  0.1174  0.0680  0.1118
 4424SOL    HW125331   7.706   0.355   4.988 -2.2092  1.1945 -0.2402
 4424SOL    HW225332   7.705   0.309   4.832 -0.5772  0.2766  0.0008
 4425SOL     OW25333   7.651   8.213   6.477 -0.0237  0.4791  0.2591
 4425SOL    HW125334   7.658   8.118   6.505  0.8094  0.6351  0.5864
 4425SOL    HW225335   7.689   8.272   6.547 -1.9133  1.1682  0.7396
 4426SOL     OW25336   7.815   0.973   7.182 -0.3265 -0.2448 -0.7266
 4426SOL    HW125337   7.819   1.068   7.212  0.2251 -0.5714  0.2681
 4426SOL    HW225338   7.801   0.970   7.083  1.3033  0.8998 -1.0262
 4427SOL     OW25339   3.440   2.989   9.966  0.7049 -0.1260  0.1393
 4427SOL    HW125340   3.432   3.040  10.052 -0.7810  1.7307 -1.0391
 4427SOL    HW225341   3.479   3.049   9.895 -2.1907 -0.1421 -1.5896
 4428SOL     OW25342   9.557   7.904   7.974  0.0421 -0.3533 -0.1012
 4428SOL    HW125343   9.507   7.946   8.050 -0.7360 -0.3914 -0.5906
 4428SOL    HW225344   9.603   7.976   7.922 -0.5532 -0.1846 -0.4052
 4429SOL     OW25345   4.633   3.431   9.564  0.9064  0.0445 -0.0086
 4429SOL    HW125346   4.653   3.451   9.660  1.4848 -0.0071 -0.1179
 4429SOL    HW225347   4.700   3.476   9.506  1.7873 -1.5879 -0.2888
 4430SOL     OW25348   5.104   8.546   7.476  0.1190 -0.3814 -0.0951
 4430SOL    HW125349   5.050   8.607   7.535  0.3282 -1.1499  0.9171
 4430SOL    HW225350   5.147   8.475   7.533  1.4395 -0.3246 -1.0144
 4431SOL     OW25351   3.174   5.448   5.517  0.0115  0.2894  0.3966
 4431SOL    HW125352   3.135   5.376   5.575  1.6490  0.3072  1.5522
 4431SOL    HW225353   3.101   5.494   5.467 -0.9589 -3.1546 -1.5104
 4432SOL     OW25354   1.846   5.656   0.532 -0.3781  0.4122 -0.0775
 4432SOL    HW125355   1.806   5.690   0.618 -0.4473  0.4581 -0.1280
 4432SOL    HW225356   1.848   5.730   0.465  0.9327  0.7508  0.3230
 4433SOL     OW25357   7.596   6.335   3.922 -0.3347  0.0017  0.0419
 4433SOL    HW125358   7.503   6.346   3.887 -0.2887 -0.0252 -0.0896
 4433SOL    HW225359   7.662   6.364   3.852 -0.2487  0.1733  0.1930
 4434SOL     OW25360   4.896   4.749   7.850  0.0557 -0.7082  0.0778
 4434SOL    HW125361   4.870   4.773   7.757 -0.0271  0.1107  0.3050
 4434SOL    HW225362   4.929   4.655   7.853  2.7247  0.1473 -1.2880
 4435SOL     OW25363   5.611   4.622   8.280 -0.2233 -0.0477  0.0260
 4435SOL    HW125364   5.587   4.528   8.306  1.4492  0.1866  2.6199
 4435SOL    HW225365   5.671   4.621   8.200  1.4772 -1.3490  1.2823
 4436SOL     OW25366   0.725   5.004   4.468 -0.3866 -0.3308 -0.7809
 4436SOL    HW125367   0.734   4.964   4.377 -1.9623 -1.1816 -0.5837
 4436SOL    HW225368   0.705   4.932   4.534 -0.5102  0.4477  0.0345
 4437SOL     OW25369   5.274   7.720   6.989  0.1083  0.8466 -0.0488
 4437SOL    HW125370   5.198   7.718   7.055 -1.4240  0.7193 -1.7758
 4437SOL    HW225371   5.237   7.717   6.896  2.2762  0.0482 -0.9122
 4438SOL     OW25372   9.541   5.373   6.765 -0.3810  0.1835  0.0700
 4438SOL    HW125373   9.579   5.465   6.773 -0.0395  0.2229 -1.7720
 4438SOL    HW225374   9.477   5.356   6.840  1.0445  1.1869  1.5255
 4439SOL     OW25375   3.886   6.485   0.486 -0.2327  0.0837 -0.4295
 4439SOL    HW125376   3.850   6.565   0.535 -0.1102  0.8452 -1.5731
 4439SOL    HW225377   3.857   6.402   0.534 -1.8425  0.7487 -0.2010
 4440SOL     OW25378   8.177   7.506   5.366  0.4006  0.1209 -0.3655
 4440SOL    HW125379   8.257   7.554   5.330  0.0254  0.2473 -1.0309
 4440SOL    HW225380   8.141   7.445   5.295 -0.4641  0.5228 -0.2692
 4441SOL     OW25381   6.654   9.862   3.019  0.0192 -0.0578 -0.1415
 4441SOL    HW125382   6.715   9.783   3.025  1.0719  0.6340 -1.4441
 4441SOL    HW225383   6.700   9.935   2.968 -2.4395 -0.0571 -2.4598
 4442SOL     OW25384   2.095   0.390   6.963 -0.2131  0.2114  0.1737
 4442SOL    HW125385   2.076   0.355   7.055  0.4107  1.1781  0.6648
 4442SOL    HW225386   2.042   0.473   6.947 -0.4463 -0.0430 -0.4113
 4443SOL     OW25387   1.965   3.616   1.018  0.1085  0.8009  0.6688
 4443SOL    HW125388   1.919   3.527   1.018 -0.5461  1.1401  1.1072
 4443SOL    HW225389   2.005   3.632   0.927  2.2185 -0.9485  1.2318
 4444SOL     OW25390   6.812   0.860   2.750 -0.1123 -0.3920 -0.3659
 4444SOL    HW125391   6.715   0.836   2.751 -0.5055  1.1159  1.3180
 4444SOL    HW225392   6.862   0.799   2.812 -0.1545 -0.5284 -0.4662
 4445SOL     OW25393   0.199   2.360   3.436  0.2849  0.5071 -0.4043
 4445SOL    HW125394   0.141   2.401   3.506  0.7143 -0.7085  0.6761
 4445SOL    HW225395   0.150   2.359   3.348 -0.1550  2.2624 -0.2073
 4446SOL     OW25396   6.806   1.394   4.511 -0.0037  0.0677  0.0566
 4446SOL    HW125397   6.824   1.318   4.572  0.4464  2.2960  2.7857
 4446SOL    HW225398   6.791   1.360   4.418  1.8115 -3.1635  0.9091
 4447SOL     OW25399   4.329   0.346   9.895 -0.2738  0.5748  0.1860
 4447SOL    HW125400   4.372   0.321   9.809 -1.8662 -0.2395 -0.3800
 4447SOL    HW225401   4.399   0.381   9.958  1.1953 -0.6994 -0.7162
 4448SOL     OW25402   4.145   8.021   2.919 -0.1447 -0.0193 -0.1019
 4448SOL    HW125403   4.141   8.111   2.877 -0.3513 -0.8650 -1.9225
 4448SOL    HW225404   4.221   8.018   2.985  0.1977  1.2955 -0.4221
 4449SOL     OW25405   6.292   9.252   7.873  0.2324  0.0957  0.1499
 4449SOL    HW125406   6.299   9.323   7.803 -0.3033  0.1563  0.1577
 4449SOL    HW225407   6.381   9.208   7.885  0.0118 -0.8386 -1.5292
 4450SOL     OW25408   9.121   5.410   1.571  0.0715 -0.1287  0.1156
 4450SOL    HW125409   9.063   5.489   1.591  0.4104  0.5890 -1.6618
 4450SOL    HW225410   9.078   5.327   1.607 -1.1009  0.6495  0.5330
 4451SOL     OW25411   2.493   1.522   6.654  0.1987 -0.1326 -0.5860
 4451SOL    HW125412   2.409   1.563   6.622  0.7703  1.1062 -0.5161
 4451SOL    HW225413   2.485   1.501   6.752  0.2352  0.6855 -0.4022
 4452SOL     OW25414   8.746   4.477   6.807  0.4678 -0.6215 -0.1706
 4452SOL    HW125415   8.779   4.412   6.738 -1.2299 -0.1287 -1.4707
 4452SOL    HW225416   8.701   4.427   6.881 -0.9494 -0.9413 -1.2293
 4453SOL     OW25417   2.748   1.119   9.508 -0.1352  0.3535  0.1057
 4453SOL    HW125418   2.774   1.145   9.415 -0.9389 -1.0355 -0.5321
 4453SOL    HW225419   2.735   1.020   9.512 -2.1379  0.6285  1.1748
 4454SOL     OW25420   7.836   8.724   5.658 -0.2907 -1.1196 -0.4405
 4454SOL    HW125421   7.749   8.710   5.610 -0.7375 -0.6259  0.2206
 4454SOL    HW225422   7.871   8.635   5.689 -0.9879 -1.2383  0.0282
 4455SOL     OW25423   0.631   0.379   1.546  0.1139  0.0497 -0.3231
 4455SOL    HW125424   0.649   0.408   1.640  0.1835 -2.0310  0.3445
 4455SOL    HW225425   0.657   0.282   1.536  1.3491  0.6043 -2.8445
 4456SOL     OW25426   3.027   9.753  10.009  0.2795  0.4814  0.3891
 4456SOL    HW125427   3.104   9.754  10.073 -0.3578 -0.5585  1.1892
 4456SOL    HW225428   2.988   9.845  10.002  1.5877  1.0157 -0.0228
 4457SOL     OW25429   3.330   2.151   4.804 -0.2308 -0.3742  0.5375
 4457SOL    HW125430   3.262   2.213   4.764  0.3427  0.9572  1.6041
 4457SOL    HW225431   3.421   2.192   4.799  0.4833 -1.9899 -0.5352
 4458SOL     OW25432   9.287   2.277   8.948  0.6123  0.2399 -0.1850
 4458SOL    HW125433   9.363   2.230   8.904  0.3013 -1.1985  0.7989
 4458SOL    HW225434   9.202   2.258   8.899  0.6215  0.5221 -0.3134
 4459SOL     OW25435   5.390   9.246   5.509  0.0974 -0.1015 -0.4885
 4459SOL    HW125436   5.430   9.172   5.564  0.1181 -0.1509 -0.5699
 4459SOL    HW225437   5.308   9.213   5.463  0.0974 -0.0690 -0.5125
 4460SOL     OW25438   0.497   2.395   6.610  0.1911  0.7585 -0.1635
 4460SOL    HW125439   0.520   2.488   6.640  0.7447 -0.3136  2.9522
 4460SOL    HW225440   0.573   2.334   6.629 -1.1803 -0.8274  0.3638
 4461SOL     OW25441   2.817   2.963   6.042  0.1240  0.3048  0.0361
 4461SOL    HW125442   2.916   2.957   6.057 -0.3582 -1.0494  2.8423
 4461SOL    HW225443   2.795   3.052   6.001  2.5446  0.3828 -1.1894
 4462SOL     OW25444   7.334   0.072   9.061 -1.0710  0.8237  0.6296
 4462SOL    HW125445   7.341  -0.002   8.994 -2.3514  1.3407 -0.0785
 4462SOL    HW225446   7.350   0.035   9.153  2.3507  0.3859 -0.0454
 4463SOL     OW25447   8.545   9.508   0.868  0.5636  0.7175 -0.0388
 4463SOL    HW125448   8.494   9.422   0.870  1.0683  0.4104 -0.2737
 4463SOL    HW225449   8.633   9.494   0.823  0.7522  1.3039  0.1342
 4464SOL     OW25450   4.467   4.797   6.642  0.5036  0.3737  0.1650
 4464SOL    HW125451   4.500   4.851   6.719  1.3840  0.0925 -0.0101
 4464SOL    HW225452   4.528   4.809   6.564  1.0227 -1.2643  0.2884
 4465SOL     OW25453   5.923   5.815   2.157  0.6440 -0.2594  0.3009
 4465SOL    HW125454   5.919   5.811   2.257 -0.1749 -1.7508  0.2318
 4465SOL    HW225455   5.830   5.814   2.120  0.8631  2.4619 -0.4388
 4466SOL     OW25456   0.780   6.754   4.560 -0.1298  0.5327  0.8075
 4466SOL    HW125457   0.833   6.838   4.551  0.5311  0.2802  2.3202
 4466SOL    HW225458   0.729   6.755   4.646 -3.2619  1.1437 -0.9797
 4467SOL     OW25459   8.768   3.258   0.298  0.8601  0.2182  0.1350
 4467SOL    HW125460   8.863   3.260   0.328  0.6811  1.8661  0.6323
 4467SOL    HW225461   8.720   3.338   0.334 -0.6891 -0.5424 -0.1978
 4468SOL     OW25462   3.850   6.982   7.292  0.1243  0.6255 -0.1813
 4468SOL    HW125463   3.935   6.969   7.344  0.0910  1.7960  0.1960
 4468SOL    HW225464   3.866   6.960   7.196  0.9643  1.1500 -0.1741
 4469SOL     OW25465   6.632   5.921   2.403 -0.4667  0.5404  0.7584
 4469SOL    HW125466   6.638   5.831   2.445 -0.7395 -0.6867 -1.7946
 4469SOL    HW225467   6.708   5.933   2.339 -2.9863  0.2954 -2.3545
 4470SOL     OW25468   0.264   8.014   1.811  0.4820 -0.4686  0.2731
 4470SOL    HW125469   0.261   7.937   1.746  0.3754 -0.7012  0.5506
 4470SOL    HW225470   0.245   7.980   1.903 -0.0656 -0.0246  0.3235
 4471SOL     OW25471   1.593   8.289   0.045 -0.0044  0.5027 -0.2667
 4471SOL    HW125472   1.603   8.264   0.141  2.5795 -1.1961 -0.9413
 4471SOL    HW225473   1.578   8.207  -0.010 -0.8879  1.4088 -1.4099
 4472SOL     OW25474   0.417   6.665   9.433  0.2409  0.1389 -0.2825
 4472SOL    HW125475   0.452   6.738   9.492 -0.1994 -0.0797  0.2639
 4472SOL    HW225476   0.323   6.645   9.459  0.7503 -1.4618  0.3919
 4473SOL     OW25477   3.501   8.638   2.409  0.6567 -0.0786  0.2726
 4473SOL    HW125478   3.493   8.710   2.477  0.5879  0.3588 -0.1975
 4473SOL    HW225479   3.483   8.549   2.452 -1.7652  0.4067  0.3471
 4474SOL     OW25480   4.051   0.095   0.302  0.3151 -0.4373 -0.0491
 4474SOL    HW125481   4.066   0.046   0.388 -0.0909 -1.6106 -0.6437
 4474SOL    HW225482   4.105   0.053   0.229 -0.3229 -0.2398 -0.6472
 4475SOL     OW25483   1.071   3.441   5.541  0.3136  0.1099  0.3772
 4475SOL    HW125484   1.037   3.530   5.511 -0.9485  0.5104  2.8808
 4475SOL    HW225485   1.035   3.370   5.481 -0.8679  1.0262 -0.0219
 4476SOL     OW25486   0.991   5.685   8.258  0.1080 -0.2044 -0.8490
 4476SOL    HW125487   0.925   5.759   8.275  0.6366  0.3490 -1.1869
 4476SOL    HW225488   0.970   5.641   8.171  0.9660  0.8220 -1.5808
 4477SOL     OW25489   8.073   7.480   0.636  0.1141 -0.6126  0.1247
 4477SOL    HW125490   8.096   7.486   0.539 -2.6153  5.5371 -0.3263
 4477SOL    HW225491   8.156   7.490   0.691  1.2716 -0.9623 -1.5345
 4478SOL     OW25492   5.637   8.571   6.045 -0.0537 -0.2770 -0.1217
 4478SOL    HW125493   5.552   8.552   6.095 -0.8878 -0.0952 -1.4271
 4478SOL    HW225494   5.646   8.670   6.032  1.5616 -0.1026  2.0215
 4479SOL     OW25495   7.561   3.945   7.677 -0.4602 -0.2437 -0.4138
 4479SOL    HW125496   7.539   3.848   7.688  1.1693 -0.6536 -0.7128
 4479SOL    HW225497   7.657   3.955   7.652  0.1310  1.5889  2.3492
 4480SOL     OW25498   7.769   7.036   3.058  0.2461 -0.3764  0.6081
 4480SOL    HW125499   7.739   7.099   3.130 -0.4519 -1.1204  0.9918
 4480SOL    HW225500   7.714   7.051   2.976 -0.2323 -0.7764  0.8471
 4481SOL     OW25501   2.824   0.460   2.242  0.1586 -0.3502 -0.4912
 4481SOL    HW125502   2.859   0.462   2.148  2.1193  0.3435  0.2355
 4481SOL    HW225503   2.869   0.387   2.293  1.4215  1.3063  0.7840
 4482SOL     OW25504   9.450   7.923   1.763  1.0630 -0.5043 -0.1285
 4482SOL    HW125505   9.498   8.004   1.797  0.0874 -0.2650  0.7062
 4482SOL    HW225506   9.355   7.926   1.794  0.1912 -0.3954 -2.7077
 4483SOL     OW25507   4.801   2.807   0.901  0.1216 -0.3374 -0.0803
 4483SOL    HW125508   4.783   2.709   0.899 -2.7205  0.1914 -2.2816
 4483SOL    HW225509   4.779   2.842   0.992  3.0275 -2.0017  1.3560
 4484SOL     OW25510   1.767   1.893   0.909 -0.6204  0.6340  0.0391
 4484SOL    HW125511   1.708   1.922   0.985  0.0714 -1.4711  1.4147
 4484SOL    HW225512   1.716   1.833   0.848 -0.1257 -0.6944  0.8995
 4485SOL     OW25513   7.855   0.675   5.892 -0.2791 -0.0839  0.4299
 4485SOL    HW125514   7.786   0.714   5.830  0.9461 -0.8650 -1.4611
 4485SOL    HW225515   7.928   0.741   5.906 -0.1646 -0.1998  0.3828
 4486SOL     OW25516   1.250   5.228   3.395 -0.3058  0.0374  0.3986
 4486SOL    HW125517   1.211   5.317   3.374  0.6777  0.8508  1.9515
 4486SOL    HW225518   1.180   5.170   3.438 -1.7409 -0.9376 -3.0922
 4487SOL     OW25519   0.189   0.059   2.571  0.5017  0.1377 -0.0286
 4487SOL    HW125520   0.182   0.104   2.660 -1.5352 -1.8794  0.8854
 4487SOL    HW225521   0.204   0.128   2.500 -0.9510  2.0905  1.4865
 4488SOL     OW25522   5.014   1.090   7.392  0.7650  0.4396  0.5411
 4488SOL    HW125523   4.937   1.027   7.381  1.1313  0.1199 -0.2744
 4488SOL    HW225524   5.090   1.043   7.437  0.2440  0.9573  1.9924
 4489SOL     OW25525   4.974   2.029   6.114  0.5744  0.2031 -0.7408
 4489SOL    HW125526   4.938   2.064   6.200  0.9238 -0.8931 -0.1412
 4489SOL    HW225527   5.042   2.092   6.078  0.9500  0.3100  0.1550
 4490SOL     OW25528   8.998   9.984   0.223 -0.5788  0.2829 -0.2278
 4490SOL    HW125529   8.958   9.923   0.155  2.0481 -0.3289 -1.2902
 4490SOL    HW225530   9.008   9.935   0.310 -0.2935 -0.1781 -0.5197
 4491SOL     OW25531   9.985   1.527   0.949  0.4367 -0.3065  0.4449
 4491SOL    HW125532   9.923   1.512   1.026  0.0289  0.2307  0.2294
 4491SOL    HW225533  10.050   1.452   0.943  0.0046 -0.7200  0.8703
 4492SOL     OW25534   8.681   5.308   0.458 -0.5483 -0.2980 -0.6910
 4492SOL    HW125535   8.688   5.212   0.431 -2.1263 -0.7934  0.6234
 4492SOL    HW225536   8.752   5.329   0.525  1.0278 -0.0118 -2.3849
 4493SOL     OW25537   2.440   6.230   0.903  0.6539 -0.3096  0.2557
 4493SOL    HW125538   2.506   6.292   0.862 -0.4979  1.2869  0.7781
 4493SOL    HW225539   2.473   6.202   0.994 -0.1589  1.8383  1.2436
 4494SOL     OW25540   1.397   9.809   3.905 -0.5079 -0.1545  0.1739
 4494SOL    HW125541   1.344   9.847   3.830 -1.2247  2.3409  1.9103
 4494SOL    HW225542   1.438   9.882   3.958  2.5767 -1.9641  0.4180
 4495SOL     OW25543   3.911   0.605   8.615 -0.5313  0.6159  0.3293
 4495SOL    HW125544   3.933   0.508   8.620  0.3478  0.8745  1.4478
 4495SOL    HW225545   3.978   0.652   8.558 -0.9238  0.5858 -0.1646
 4496SOL     OW25546   3.861   1.858   4.884 -0.0349 -0.0542 -0.3250
 4496SOL    HW125547   3.766   1.875   4.860 -0.2599 -0.5867  0.1978
 4496SOL    HW225548   3.895   1.779   4.833 -0.2475 -0.6358  0.4272
 4497SOL     OW25549   2.616   2.880   5.033 -0.0725  0.3074  0.0453
 4497SOL    HW125550   2.662   2.872   4.945  2.2836 -0.4940  1.3153
 4497SOL    HW225551   2.649   2.962   5.080 -0.9684  0.4730  0.3991
 4498SOL     OW25552   4.663   5.602   8.264  0.5360 -0.3886  0.3891
 4498SOL    HW125553   4.685   5.524   8.206  1.1379  0.0500  0.0265
 4498SOL    HW225554   4.570   5.591   8.300  0.8759 -1.6316  0.9264
 4499SOL     OW25555   0.031   2.771   0.192 -0.1142 -0.0035 -0.4476
 4499SOL    HW125556   0.042   2.696   0.126 -0.9137 -1.3766  0.9602
 4499SOL    HW225557   0.014   2.734   0.283 -1.0674  1.9073  0.1859
 4500SOL     OW25558   1.781   6.602   2.981 -0.3266  0.2765  0.0386
 4500SOL    HW125559   1.780   6.626   3.079  0.3290 -1.2620  0.4362
 4500SOL    HW225560   1.754   6.682   2.927  0.6593  1.5627  1.3979
 4501SOL     OW25561   8.332   4.892   0.217 -0.6976  0.6574  0.1505
 4501SOL    HW125562   8.390   4.867   0.139 -3.5903  0.7239 -2.1032
 4501SOL    HW225563   8.250   4.835   0.217 -0.7137  0.5951  3.2566
 4502SOL     OW25564   7.971   1.487   0.875 -0.1185 -0.2552  0.4233
 4502SOL    HW125565   7.896   1.473   0.939  1.1416  1.4183  2.3180
 4502SOL    HW225566   8.015   1.399   0.856 -0.0460 -0.6738  2.4291
 4503SOL     OW25567   8.773   7.230   3.322 -0.2215 -0.3368  0.3487
 4503SOL    HW125568   8.759   7.328   3.333  0.5185 -0.1618 -0.1824
 4503SOL    HW225569   8.808   7.191   3.407  0.9156  0.1401  0.1155
 4504SOL     OW25570   7.584   1.989   1.605  0.1281 -0.0154  0.1513
 4504SOL    HW125571   7.530   2.074   1.614 -1.8618 -1.4283  2.2994
 4504SOL    HW225572   7.571   1.952   1.513 -1.0457  0.6957  0.0050
 4505SOL     OW25573   6.458   5.411   2.483  0.4732 -0.2612 -0.0460
 4505SOL    HW125574   6.386   5.374   2.423  0.2356 -0.2159  0.2101
 4505SOL    HW225575   6.459   5.360   2.569 -0.9898  1.4049  0.9917
 4506SOL     OW25576   4.902   8.712   7.640 -1.0415 -0.0525  0.1268
 4506SOL    HW125577   4.902   8.777   7.565 -1.8792 -0.3052 -0.0983
 4506SOL    HW225578   4.961   8.746   7.714  0.1190 -0.0062 -0.8048
 4507SOL     OW25579   2.617   7.693   1.657 -0.4212 -0.1027 -0.0304
 4507SOL    HW125580   2.670   7.751   1.718  3.1600 -3.5244  0.3057
 4507SOL    HW225581   2.596   7.606   1.702 -5.3173  0.5859 -0.6630
 4508SOL     OW25582   0.587   7.237   7.008  0.0543  0.1075 -0.2558
 4508SOL    HW125583   0.497   7.228   6.966 -0.4550 -0.3043  0.9224
 4508SOL    HW225584   0.652   7.178   6.959 -0.4543 -0.1167 -0.6728
 4509SOL     OW25585   8.354   4.594   4.821 -0.2110 -0.0779  0.5122
 4509SOL    HW125586   8.367   4.516   4.760  1.8419 -0.5181  1.4531
 4509SOL    HW225587   8.401   4.674   4.783  0.3435 -0.1313  1.0755
 4510SOL     OW25588   4.941   0.629   8.916 -0.0300  0.1542 -0.2255
 4510SOL    HW125589   4.877   0.643   8.991 -1.3688 -0.3846 -1.2399
 4510SOL    HW225590   4.926   0.700   8.847 -0.7404 -0.9771 -1.2618
 4511SOL     OW25591   1.256   6.387   4.322  0.8063 -0.3251 -0.5882
 4511SOL    HW125592   1.162   6.376   4.355  0.9957  0.5067  0.2579
 4511SOL    HW225593   1.255   6.404   4.224  0.0642 -0.1569 -0.5546
 4512SOL     OW25594   2.966   4.742   0.275 -0.3448 -0.5071 -0.3178
 4512SOL    HW125595   3.060   4.733   0.309 -0.1830 -1.7676 -1.0355
 4512SOL    HW225596   2.905   4.767   0.350  0.4428 -0.4581  0.3134
 4513SOL     OW25597   6.542   3.756   3.166 -0.3378 -0.1046 -0.4492
 4513SOL    HW125598   6.443   3.760   3.181 -0.3462 -0.9048 -0.2746
 4513SOL    HW225599   6.575   3.846   3.141 -0.9879  0.3505  0.2918
 4514SOL     OW25600   2.012   3.712   0.744 -0.4273 -0.2766  0.0544
 4514SOL    HW125601   2.109   3.715   0.718 -0.5377 -0.8484 -0.4279
 4514SOL    HW225602   1.955   3.717   0.662 -0.8079 -0.1230  0.3253
 4515SOL     OW25603   8.052   4.403   0.742  0.3507  0.7024  0.0599
 4515SOL    HW125604   7.976   4.468   0.742 -0.2343  0.0298 -0.4459
 4515SOL    HW225605   8.017   4.310   0.754  1.1536  0.4469  0.4874
 4516SOL     OW25606   0.764   9.215   8.068 -0.1297 -0.1309  0.4923
 4516SOL    HW125607   0.729   9.287   8.129  0.7686  0.7825 -0.0614
 4516SOL    HW225608   0.688   9.158   8.037 -0.7692  0.1988  1.4208
 4517SOL     OW25609   4.149   6.920   4.360  0.2586  0.1644  0.5608
 4517SOL    HW125610   4.089   6.976   4.417 -0.1759  0.8339 -0.5430
 4517SOL    HW225611   4.243   6.955   4.364  0.0799  0.6876  0.2552
 4518SOL     OW25612   5.845   4.340   8.367 -0.0180  0.0295 -0.2188
 4518SOL    HW125613   5.882   4.427   8.333  0.3834 -0.5136 -1.2092
 4518SOL    HW225614   5.745   4.341   8.359 -0.0844  0.7320  0.5941
 4519SOL     OW25615   7.187   5.052   2.592  0.3404 -0.3634 -0.0921
 4519SOL    HW125616   7.262   5.054   2.527  0.8079 -0.5898  0.4341
 4519SOL    HW225617   7.139   5.140   2.591 -0.2223 -0.6766 -1.3868
 4520SOL     OW25618   6.094   1.772   6.156 -0.0535  0.3221  0.6444
 4520SOL    HW125619   6.188   1.741   6.145 -0.9345 -2.2512 -0.0978
 4520SOL    HW225620   6.069   1.830   6.079  0.3794 -0.4709 -0.1094
 4521SOL     OW25621   3.661   8.096   8.084  0.5325  0.5208  0.1891
 4521SOL    HW125622   3.659   8.037   8.164 -0.9463 -1.1664 -1.0658
 4521SOL    HW225623   3.755   8.128   8.069  1.2230 -0.9373  1.2820
 4522SOL     OW25624   1.924   8.807   7.161  0.1947  0.1645 -0.0330
 4522SOL    HW125625   2.015   8.847   7.168 -0.0104  0.3358  2.0478
 4522SOL    HW225626   1.929   8.710   7.186  0.0968 -0.2720 -1.6631
 4523SOL     OW25627   3.554   4.311   4.505  0.4833  0.6294 -0.0271
 4523SOL    HW125628   3.506   4.399   4.500  1.7832  1.4086  0.6629
 4523SOL    HW225629   3.635   4.315   4.446  0.5618 -0.0965  0.0354
 4524SOL     OW25630   1.636   6.226   0.286  0.5272 -0.2089  0.5228
 4524SOL    HW125631   1.575   6.302   0.264 -0.5066  0.3384  4.8196
 4524SOL    HW225632   1.731   6.258   0.283  0.0637  1.5077  2.9666
 4525SOL     OW25633   1.853   4.821   5.990 -0.2964  0.3656  0.2814
 4525SOL    HW125634   1.771   4.797   5.939 -1.1610  2.3010  0.7143
 4525SOL    HW225635   1.916   4.870   5.931 -0.5794  1.1375  0.6061
 4526SOL     OW25636   1.837   5.968   0.993  0.5063  0.2497  0.4106
 4526SOL    HW125637   1.796   5.956   1.083  1.4137  1.5564  1.0099
 4526SOL    HW225638   1.894   5.889   0.972 -0.7032 -0.6397  0.4298
 4527SOL     OW25639   4.008   0.819   8.873 -0.0221 -0.2421 -0.1790
 4527SOL    HW125640   4.003   0.719   8.875 -0.7425 -0.1769  1.7335
 4527SOL    HW225641   3.954   0.853   8.796 -1.8662 -1.2268  0.6319
 4528SOL     OW25642   4.472   3.514   2.847 -0.4704  0.0999 -0.0148
 4528SOL    HW125643   4.492   3.606   2.880 -0.8625 -0.0863  0.7603
 4528SOL    HW225644   4.425   3.462   2.919 -0.8665 -0.4834 -0.6884
 4529SOL     OW25645   6.086   3.056   1.422  0.5274  0.2140  0.3615
 4529SOL    HW125646   6.183   3.042   1.404  1.1954  2.9347  1.4723
 4529SOL    HW225647   6.063   3.153   1.410 -2.0055 -0.3370  0.3524
 4530SOL     OW25648   2.978   6.488   7.177  0.0169 -0.1971 -0.1943
 4530SOL    HW125649   2.980   6.563   7.111 -0.8612 -0.0449 -0.0564
 4530SOL    HW225650   2.959   6.402   7.129  2.0781 -0.5059 -0.4950
 4531SOL     OW25651   6.118   0.042   8.959 -0.1058  0.0722 -0.8538
 4531SOL    HW125652   6.024   0.011   8.973 -0.2194  1.5598  2.0957
 4531SOL    HW225653   6.181  -0.031   8.987 -0.3988  0.7359  1.7019
 4532SOL     OW25654   9.428   4.625   9.843 -0.4168  0.1330 -0.2950
 4532SOL    HW125655   9.447   4.704   9.785  1.0623 -0.6468 -0.9333
 4532SOL    HW225656   9.350   4.575   9.807  0.0124  0.0907 -1.1887
 4533SOL     OW25657   1.900   4.134   2.464  0.0272  0.2662  0.3254
 4533SOL    HW125658   1.845   4.136   2.548 -0.1667  0.7626  0.1870
 4533SOL    HW225659   1.889   4.220   2.415 -0.4265 -0.2959 -0.5708
 4534SOL     OW25660   1.625   0.009   6.376 -0.1006  0.0705 -0.2733
 4534SOL    HW125661   1.715   0.028   6.337  0.0580 -0.6815 -0.2880
 4534SOL    HW225662   1.628  -0.078   6.426 -0.3209  0.9707  1.3522
 4535SOL     OW25663   3.886   1.605   0.575  0.6641 -0.2155  0.0628
 4535SOL    HW125664   3.836   1.521   0.555  0.8394  0.0309 -1.4831
 4535SOL    HW225665   3.969   1.608   0.518  0.3955  1.2391 -0.2655
 4536SOL     OW25666   8.860   0.631   2.899 -0.0435 -0.6108  0.7191
 4536SOL    HW125667   8.861   0.731   2.902 -0.2191 -0.5192 -1.7208
 4536SOL    HW225668   8.771   0.598   2.930 -0.3036  0.0281  0.6597
 4537SOL     OW25669   4.675   4.524   2.176 -0.0634 -0.4219 -0.1446
 4537SOL    HW125670   4.730   4.464   2.118  2.4085  1.1214  0.5145
 4537SOL    HW225671   4.626   4.590   2.118  2.2947  1.0382 -0.5382
 4538SOL     OW25672   8.549   9.048   1.608 -0.1732 -0.1240 -0.2735
 4538SOL    HW125673   8.615   9.012   1.542 -1.1633 -0.1835 -1.2460
 4538SOL    HW225674   8.575   9.018   1.700  2.4051  1.6938 -0.3599
 4539SOL     OW25675   4.539   1.280   4.871  0.1074 -0.1124 -0.3705
 4539SOL    HW125676   4.444   1.276   4.839 -0.0274  2.0663 -0.3701
 4539SOL    HW225677   4.543   1.251   4.967 -0.7754  0.9309 -0.0003
 4540SOL     OW25678   4.521   9.241   3.065 -0.6322  0.7235  0.5405
 4540SOL    HW125679   4.564   9.263   3.152 -0.5548 -0.1764  0.7399
 4540SOL    HW225680   4.588   9.199   3.003 -0.6858  1.3620  0.0510
 4541SOL     OW25681   9.731   4.063   8.299 -0.0436 -0.0414 -0.2224
 4541SOL    HW125682   9.785   4.015   8.368  0.0360 -0.6249 -0.6825
 4541SOL    HW225683   9.680   3.996   8.245  0.5003  0.3670 -1.2401
 4542SOL     OW25684   1.049   8.466   1.631  0.0574  0.5729 -0.1115
 4542SOL    HW125685   1.097   8.552   1.647  0.2955  0.8269 -1.9999
 4542SOL    HW225686   1.071   8.432   1.539 -2.7337  0.2867 -0.7348
 4543SOL     OW25687   8.471   5.336   8.008 -0.0847  0.3425 -0.6004
 4543SOL    HW125688   8.560   5.342   8.054 -0.3207 -0.2620 -0.0520
 4543SOL    HW225689   8.480   5.280   7.926 -0.0953 -0.2782 -0.1846
 4544SOL     OW25690   0.713   6.066   4.709  0.5870 -0.4361  0.2113
 4544SOL    HW125691   0.704   6.140   4.643 -0.5080 -0.8009 -0.0580
 4544SOL    HW225692   0.769   5.993   4.670 -2.3847 -1.9126 -1.4601
 4545SOL     OW25693   7.316   1.779   2.495 -0.4769  0.1039  1.0260
 4545SOL    HW125694   7.249   1.719   2.539 -1.1232 -0.0279 -0.1449
 4545SOL    HW225695   7.406   1.736   2.500 -0.8995 -0.8564  0.3990
 4546SOL     OW25696   4.339   2.424   8.908 -0.0502 -0.0146 -0.0543
 4546SOL    HW125697   4.264   2.469   8.956  1.2380  1.0405  0.9984
 4546SOL    HW225698   4.336   2.450   8.811 -0.2969  1.0168  0.2236
 4547SOL     OW25699   9.012   4.922   6.472  0.2517  0.2199  0.0151
 4547SOL    HW125700   9.110   4.930   6.487  0.3237  1.0338 -0.8224
 4547SOL    HW225701   8.974   4.851   6.532  1.0829  0.9700  1.4415
 4548SOL     OW25702   6.849   1.760   4.432  0.4886  0.1318  0.4166
 4548SOL    HW125703   6.866   1.857   4.415  0.2927  0.2241  0.7508
 4548SOL    HW225704   6.934   1.715   4.459  0.5503  0.2394  0.4016
 4549SOL     OW25705   5.233   5.395   1.485 -0.5964  0.0336 -0.1988
 4549SOL    HW125706   5.154   5.378   1.544 -1.2435  1.4311 -0.6333
 4549SOL    HW225707   5.211   5.468   1.420  1.1459  0.5890 -0.1905
 4550SOL     OW25708   2.516   1.630   1.179  0.0664  0.5035  0.0448
 4550SOL    HW125709   2.448   1.562   1.205  0.3022  0.4322  0.4754
 4550SOL    HW225710   2.493   1.667   1.089  1.7471 -2.5123 -1.7095
 4551SOL     OW25711   1.632   7.523   4.263 -0.2804  0.0915  0.7344
 4551SOL    HW125712   1.719   7.558   4.297 -0.0438  1.4548 -1.1753
 4551SOL    HW225713   1.638   7.509   4.164 -2.0243 -0.4611  0.6812
 4552SOL     OW25714   1.390   7.723   9.514  0.8357 -0.2847 -0.0235
 4552SOL    HW125715   1.350   7.814   9.505  1.7651 -0.0947 -2.4487
 4552SOL    HW225716   1.332   7.656   9.470  0.8886 -0.6716  0.4870
 4553SOL     OW25717   1.184   0.019   2.632 -0.1850 -0.5822 -0.1230
 4553SOL    HW125718   1.116   0.003   2.560 -0.4794 -3.6904  0.7612
 4553SOL    HW225719   1.159   0.101   2.683 -1.3670  0.2432 -1.9614
 4554SOL     OW25720   8.658   8.653   9.650  0.1755  0.1246 -0.7648
 4554SOL    HW125721   8.743   8.633   9.699 -1.1569 -0.6276  1.2602
 4554SOL    HW225722   8.664   8.616   9.557  2.6491  1.4103 -1.1677
 4555SOL     OW25723   7.839   6.572   5.051 -0.1435 -0.3684  0.3086
 4555SOL    HW125724   7.879   6.483   5.030 -0.1140 -0.1528 -0.5393
 4555SOL    HW225725   7.889   6.614   5.127 -0.4081 -1.2445  0.9734
 4556SOL     OW25726   9.763   8.698   2.212  0.2943  0.0423 -0.0228
 4556SOL    HW125727   9.855   8.724   2.243  0.2437 -0.5121  0.5979
 4556SOL    HW225728   9.697   8.718   2.284  0.1446 -1.0260  0.1425
 4557SOL     OW25729   3.233   7.058   3.906  0.5814 -0.1299  0.5311
 4557SOL    HW125730   3.261   7.068   4.002  1.1494 -3.3621  0.7363
 4557SOL    HW225731   3.312   7.032   3.851  0.0837  0.9625 -0.7129
 4558SOL     OW25732   2.318   5.350   3.285  0.0001  0.1591 -0.4087
 4558SOL    HW125733   2.286   5.319   3.195  0.4977 -1.6621  0.0281
 4558SOL    HW225734   2.239   5.370   3.343 -0.3623 -1.5813 -0.2719
 4559SOL     OW25735   2.517   9.278   1.482  0.2333  0.7079 -0.0352
 4559SOL    HW125736   2.491   9.183   1.495  0.5053  0.3053 -2.3497
 4559SOL    HW225737   2.616   9.288   1.493  0.0072  1.0687  1.9790
 4560SOL     OW25738   4.088   7.588   2.778  0.1481  0.1731  0.0371
 4560SOL    HW125739   4.187   7.600   2.779  0.4282 -1.4392 -2.6624
 4560SOL    HW225740   4.065   7.497   2.811 -0.1981 -0.4173 -1.7458
 4561SOL     OW25741   5.728   2.954   1.998  0.3917  0.1611 -0.5471
 4561SOL    HW125742   5.727   2.884   1.926 -0.9383 -0.4880  0.0771
 4561SOL    HW225743   5.777   3.034   1.966  1.3775 -0.8132 -1.5242
 4562SOL     OW25744   3.051   2.044   9.631 -0.5210  0.5877 -0.5021
 4562SOL    HW125745   3.002   2.059   9.717  0.4306  0.3277  0.0957
 4562SOL    HW225746   3.043   2.126   9.574 -0.5543  1.0346  0.1354
 4563SOL     OW25747   3.624   7.430   5.916  0.4043 -0.0201 -0.6883
 4563SOL    HW125748   3.551   7.408   5.981  0.2307  0.5287 -0.6995
 4563SOL    HW225749   3.600   7.395   5.825  1.0793 -1.6427 -0.2727
 4564SOL     OW25750   0.012   5.955   9.620  0.5875 -0.3403 -0.1414
 4564SOL    HW125751   0.086   5.980   9.557 -1.7273  1.3749 -2.3151
 4564SOL    HW225752  -0.035   5.874   9.585 -0.7279  0.6411 -0.7081
 4565SOL     OW25753   1.260   4.287   8.969 -0.0221 -0.0177 -0.4976
 4565SOL    HW125754   1.352   4.279   8.932  0.3969  1.1120  0.2665
 4565SOL    HW225755   1.264   4.331   9.059 -1.6263  4.1030 -2.2858
 4566SOL     OW25756   2.337   4.028   7.635 -0.0211  0.2206 -0.3337
 4566SOL    HW125757   2.395   4.040   7.715 -1.1084  2.8186  0.1417
 4566SOL    HW225758   2.251   3.986   7.662  0.8465 -1.8618 -0.7164
 4567SOL     OW25759   0.482   4.161   4.859 -0.4515 -0.2182 -0.1690
 4567SOL    HW125760   0.386   4.156   4.886 -0.2177  0.7867  0.8525
 4567SOL    HW225761   0.494   4.114   4.771 -1.6533 -1.3625  0.2689
 4568SOL     OW25762   0.632   5.232   2.221  0.2914  0.3515 -0.3946
 4568SOL    HW125763   0.590   5.145   2.197 -3.1807  0.7707  3.5522
 4568SOL    HW225764   0.711   5.216   2.281 -0.1982 -0.1186  0.1310
 4569SOL     OW25765   8.844   6.106   9.413 -0.1574  0.6359 -0.0292
 4569SOL    HW125766   8.792   6.136   9.333 -0.1882  1.7190  0.3901
 4569SOL    HW225767   8.941   6.128   9.400 -0.0930  0.3804  0.0240
 4570SOL     OW25768   7.609   2.427   1.817 -0.5345 -0.2166 -0.0481
 4570SOL    HW125769   7.575   2.484   1.742 -0.4703 -0.3736 -0.1956
 4570SOL    HW225770   7.572   2.461   1.903 -0.7287 -0.1280 -0.1654
 4571SOL     OW25771   4.127   9.984  10.069 -0.1488 -0.9237  0.2049
 4571SOL    HW125772   4.166   9.936   9.991  1.4461  0.0480  0.3903
 4571SOL    HW225773   4.104  10.078  10.043 -2.3342 -1.4498  0.1168
 4572SOL     OW25774   2.248   4.161   2.859  0.1934  0.6026 -0.6048
 4572SOL    HW125775   2.250   4.090   2.929  0.3164  1.0172 -0.1864
 4572SOL    HW225776   2.281   4.123   2.773 -0.1439  0.0375 -0.4926
 4573SOL     OW25777   7.311   5.279   9.189 -0.3497 -0.2378 -0.0505
 4573SOL    HW125778   7.288   5.311   9.281 -0.7119  0.9651 -0.5562
 4573SOL    HW225779   7.411   5.278   9.180 -0.3053 -0.6719  0.4678
 4574SOL     OW25780   2.550   3.094   3.919 -0.3706  0.6466  0.1400
 4574SOL    HW125781   2.456   3.086   3.887 -0.7175  0.3937  1.1998
 4574SOL    HW225782   2.551   3.122   4.015  0.6219  0.0966  0.3024
 4575SOL     OW25783   2.817   0.618   0.380 -0.3081 -0.3257  0.2648
 4575SOL    HW125784   2.793   0.710   0.408 -0.2786  0.5822 -2.4916
 4575SOL    HW225785   2.748   0.554   0.412 -2.1631  1.1478 -0.6881
 4576SOL     OW25786   0.452   2.850   0.499  0.0359 -0.4936  0.6036
 4576SOL    HW125787   0.531   2.791   0.488  1.6958  1.7189  0.2088
 4576SOL    HW225788   0.434   2.899   0.413 -0.9984 -0.0820  1.0407
 4577SOL     OW25789   2.897   4.793   6.905 -0.4279  0.1772 -0.7800
 4577SOL    HW125790   2.916   4.704   6.947  0.0709 -0.0998 -1.5567
 4577SOL    HW225791   2.947   4.864   6.954  3.2319 -0.6058 -3.1013
 4578SOL     OW25792   3.152   4.551   6.492  0.3392  0.1784 -0.4120
 4578SOL    HW125793   3.053   4.554   6.502  0.1387 -1.8494 -1.4331
 4578SOL    HW225794   3.188   4.471   6.541  1.3239  0.2110 -1.0659
 4579SOL     OW25795   9.193   9.992   9.438  0.2341 -0.5576  0.1693
 4579SOL    HW125796   9.160   9.998   9.532 -1.0558  0.1201 -0.3119
 4579SOL    HW225797   9.292  10.004   9.437  0.1811  0.0722  1.3661
 4580SOL     OW25798   3.085   6.841   8.469  0.1906 -0.0788  0.1884
 4580SOL    HW125799   3.082   6.839   8.569 -0.4379 -0.4508  0.1600
 4580SOL    HW225800   3.040   6.760   8.432  0.5113  0.0054 -0.3972
 4581SOL     OW25801   0.728   9.724   3.607 -0.6088 -0.4737  0.0218
 4581SOL    HW125802   0.742   9.628   3.583 -1.5427 -0.7731  0.6215
 4581SOL    HW225803   0.806   9.778   3.577 -0.0261 -1.4434 -0.2264
 4582SOL     OW25804   9.487   8.877   3.884  0.1151  0.4324 -0.1040
 4582SOL    HW125805   9.482   8.867   3.785 -0.2428  2.0472 -0.2664
 4582SOL    HW225806   9.463   8.970   3.909  0.7039  0.1797  1.4696
 4583SOL     OW25807   0.486   0.222   9.026  0.0677  0.3169 -0.1704
 4583SOL    HW125808   0.427   0.186   9.099  0.7170  2.1110  1.2790
 4583SOL    HW225809   0.462   0.178   8.939 -2.6491  0.2152  0.5929
 4584SOL     OW25810   4.433   2.350   0.963  0.7256 -0.3280 -0.3200
 4584SOL    HW125811   4.427   2.358   1.062  1.2511  0.3428 -0.3377
 4584SOL    HW225812   4.373   2.418   0.921  1.8136  0.5621 -0.4620
 4585SOL     OW25813   2.420   3.681   1.943  0.3707  0.1008 -0.7132
 4585SOL    HW125814   2.494   3.647   2.002  1.1276  0.6810 -1.3194
 4585SOL    HW225815   2.457   3.705   1.854 -0.6113  0.1348 -1.1193
 4586SOL     OW25816   0.141   5.467   3.523  0.5406 -0.1393  0.3944
 4586SOL    HW125817   0.154   5.468   3.622 -1.5699  0.1575  0.7084
 4586SOL    HW225818   0.144   5.561   3.488  0.9401 -0.2120  0.2362
 4587SOL     OW25819   7.597   7.588   5.442 -0.2038 -0.0391 -0.0990
 4587SOL    HW125820   7.674   7.536   5.406  0.2424  1.7046 -1.6948
 4587SOL    HW225821   7.530   7.524   5.481  1.2731 -1.6690 -0.1674
 4588SOL     OW25822   8.334   3.238   8.301 -0.5329  0.2367  0.0238
 4588SOL    HW125823   8.401   3.280   8.240  0.2466  0.9385  1.3472
 4588SOL    HW225824   8.381   3.196   8.379 -1.3183 -2.8022 -1.0569
 4589SOL     OW25825   9.716   2.293   8.347  0.8142  0.3844 -0.0550
 4589SOL    HW125826   9.813   2.267   8.341  1.0081  1.4347 -1.7294
 4589SOL    HW225827   9.708   2.376   8.402  1.0036  1.0094 -0.9681
 4590SOL     OW25828   9.026   3.973   4.901  0.0953 -0.3800  0.4618
 4590SOL    HW125829   9.095   3.928   4.958  1.1775 -0.8464 -1.1824
 4590SOL    HW225830   9.062   3.984   4.808 -2.0950 -0.7838 -0.4635
 4591SOL     OW25831   5.880   4.591   2.773  0.5043  0.3855  0.0931
 4591SOL    HW125832   5.970   4.551   2.758 -0.7386 -2.5124  0.0287
 4591SOL    HW225833   5.839   4.616   2.685  0.1032 -0.9187 -0.0964
 4592SOL     OW25834   5.256   9.586   3.910 -0.0498  0.2549 -0.3443
 4592SOL    HW125835   5.341   9.616   3.868  0.5309  0.5446  1.0123
 4592SOL    HW225836   5.276   9.539   3.996 -1.0419 -2.6950 -1.6629
 4593SOL     OW25837   8.448   8.788   5.427  0.1292  0.0077  0.3946
 4593SOL    HW125838   8.353   8.786   5.458 -0.0571  0.7347 -0.1129
 4593SOL    HW225839   8.469   8.704   5.378 -1.4716  1.4648 -2.9485
 4594SOL     OW25840   7.615   9.547   5.824  0.4576 -0.0851 -0.2889
 4594SOL    HW125841   7.554   9.473   5.796 -0.2426  0.3062  0.1777
 4594SOL    HW225842   7.698   9.545   5.768 -0.1823 -0.3476 -1.2467
 4595SOL     OW25843   9.823   1.302   6.484 -0.0194 -0.4851  0.2923
 4595SOL    HW125844   9.907   1.259   6.518  0.4427  0.2258  0.0717
 4595SOL    HW225845   9.752   1.232   6.474  0.8782 -1.2978 -0.5672
 4596SOL     OW25846   0.639   8.814   0.304  0.0357  0.2063 -0.0939
 4596SOL    HW125847   0.581   8.764   0.368  0.3482 -0.5977 -0.4382
 4596SOL    HW225848   0.581   8.861   0.237 -0.3072  1.4508  1.0649
 4597SOL     OW25849   4.172   8.343   8.316 -0.1269 -0.0747 -0.0354
 4597SOL    HW125850   4.255   8.394   8.338 -0.6280  0.4454  0.6861
 4597SOL    HW225851   4.099   8.370   8.379 -0.8570 -0.4878 -0.6995
 4598SOL     OW25852   7.311   5.786   4.928  0.5483  0.4160 -0.8578
 4598SOL    HW125853   7.399   5.760   4.888  0.4706 -0.4738 -0.4357
 4598SOL    HW225854   7.270   5.708   4.974  0.2031  1.2088  0.1917
 4599SOL     OW25855   6.981   5.519   1.530  0.6837 -0.3157  0.0002
 4599SOL    HW125856   7.075   5.503   1.559  0.2909 -0.8361  0.9998
 4599SOL    HW225857   6.972   5.612   1.495  0.9247  0.7257  2.6134
 4600SOL     OW25858   2.504   9.726   8.064 -0.2314  0.0312  0.2626
 4600SOL    HW125859   2.447   9.700   7.986 -0.0678 -1.2111  0.5461
 4600SOL    HW225860   2.449   9.728   8.147 -0.4739  1.6638  0.0837
 4601SOL     OW25861   5.301   2.864   2.159  0.6094 -0.4317  0.4184
 4601SOL    HW125862   5.370   2.936   2.148  0.7768 -0.9080 -1.7787
 4601SOL    HW225863   5.259   2.843   2.070 -3.1960  0.6380  1.8615
 4602SOL     OW25864   8.335   2.169   3.088  0.0320  0.0370 -0.1052
 4602SOL    HW125865   8.297   2.114   3.013 -1.1170 -0.4132  0.7963
 4602SOL    HW225866   8.327   2.119   3.174 -1.8159  1.9053  0.8685
 4603SOL     OW25867   3.509   4.682   6.912  0.2081 -0.1119  0.1915
 4603SOL    HW125868   3.504   4.759   6.849 -0.9471 -0.6850 -0.4401
 4603SOL    HW225869   3.521   4.715   7.005  2.3750  0.7420 -0.3594
 4604SOL     OW25870   5.193   4.486   2.362 -0.3144  0.2385  0.3737
 4604SOL    HW125871   5.218   4.475   2.458 -1.3539  1.0344  0.7489
 4604SOL    HW225872   5.095   4.467   2.350 -0.0790 -0.3728 -0.6165
 4605SOL     OW25873   0.052   2.201   3.787  0.2490  0.4320  0.2805
 4605SOL    HW125874   0.142   2.209   3.830  1.2731 -0.1748 -1.6862
 4605SOL    HW225875   0.029   2.286   3.740  0.5662  0.0059 -0.6558
 4606SOL     OW25876   9.059   7.816   5.583 -0.5923  0.4491 -0.1592
 4606SOL    HW125877   9.131   7.843   5.518  0.0291  0.1848  0.4127
 4606SOL    HW225878   9.100   7.763   5.657 -1.4981 -0.3675 -0.2353
 4607SOL     OW25879   1.167   3.106   0.536 -0.1427 -0.3888 -0.3293
 4607SOL    HW125880   1.102   3.044   0.491  0.6770 -1.0512 -0.6133
 4607SOL    HW225881   1.202   3.172   0.469 -1.3989  0.7291  0.0842
 4608SOL     OW25882   3.649   6.587   1.204 -0.1765 -0.0185  0.6204
 4608SOL    HW125883   3.626   6.637   1.288 -0.1230 -0.6968  1.0421
 4608SOL    HW225884   3.679   6.495   1.228  0.0260 -0.1476 -0.1368
 4609SOL     OW25885   1.006   1.283   3.782  0.1671 -0.2362  0.2873
 4609SOL    HW125886   1.069   1.290   3.858 -1.2220  0.7006  1.3820
 4609SOL    HW225887   0.926   1.340   3.800 -0.6597 -0.8335 -1.3920
 4610SOL     OW25888   7.851   9.177   5.658  0.2619 -0.4674 -0.3190
 4610SOL    HW125889   7.860   9.101   5.594  0.2100 -0.0107 -0.8672
 4610SOL    HW225890   7.942   9.203   5.692  0.3327 -0.4005 -0.5611
 4611SOL     OW25891   1.811   7.578   6.766 -0.0158  0.2964  0.1073
 4611SOL    HW125892   1.767   7.505   6.818 -0.8492  1.7300  1.4482
 4611SOL    HW225893   1.894   7.542   6.722 -1.3349 -1.8842 -0.6995
 4612SOL     OW25894   9.456   5.992   0.552 -0.6312 -0.0161  0.3723
 4612SOL    HW125895   9.539   5.985   0.607  0.8369  0.5119 -1.7084
 4612SOL    HW225896   9.405   6.074   0.578 -0.5539 -0.3948  1.7283
 4613SOL     OW25897   2.853   7.016   7.198  0.0448 -0.3224  0.0118
 4613SOL    HW125898   2.815   7.061   7.118 -1.0860 -0.6422  0.3608
 4613SOL    HW225899   2.789   7.023   7.275 -0.7079 -3.4821 -0.2378
 4614SOL     OW25900   0.815   3.904   0.663  0.3199 -0.3429 -0.0799
 4614SOL    HW125901   0.774   3.813   0.671 -1.3079  0.4008  0.3506
 4614SOL    HW225902   0.872   3.922   0.743 -2.3393  0.4348  1.7200
 4615SOL     OW25903   2.084   0.703   1.353 -0.7412 -0.2833 -0.1620
 4615SOL    HW125904   2.083   0.678   1.256 -3.0969  1.3118 -0.5971
 4615SOL    HW225905   2.161   0.659   1.398  2.2615  1.3997 -3.4070
 4616SOL     OW25906   0.917   2.183   7.572 -0.3097  0.1264 -0.2977
 4616SOL    HW125907   0.824   2.149   7.582  0.1060 -1.3675 -1.3100
 4616SOL    HW225908   0.966   2.127   7.505  1.4183  0.6954  0.4632
 4617SOL     OW25909   1.228   7.472   1.179  0.2943  0.1553 -0.2225
 4617SOL    HW125910   1.300   7.537   1.207  0.0868  0.9153 -1.4299
 4617SOL    HW225911   1.184   7.506   1.096 -0.3997 -1.1166 -0.3713
 4618SOL     OW25912   5.225   2.894   5.865  0.3135 -0.0940  0.0531
 4618SOL    HW125913   5.216   2.797   5.887  0.0245 -0.4641 -1.6606
 4618SOL    HW225914   5.296   2.905   5.796  0.5929  0.9637  0.5052
 4619SOL     OW25915   3.643   0.478   1.434  0.0274 -0.2284 -0.5669
 4619SOL    HW125916   3.690   0.398   1.396  1.1312 -0.6400  1.5401
 4619SOL    HW225917   3.595   0.451   1.518  0.0128  1.2171 -0.1017
 4620SOL     OW25918   8.926   8.294   8.223 -0.0878 -0.0608 -0.0330
 4620SOL    HW125919   8.850   8.324   8.280 -1.9590 -0.7573 -2.1148
 4620SOL    HW225920   8.943   8.362   8.152  0.7870 -0.2489 -0.0122
 4621SOL     OW25921   7.723   6.443   1.197 -0.0984 -0.4089  0.3596
 4621SOL    HW125922   7.682   6.422   1.107 -0.2741  0.9680  0.1107
 4621SOL    HW225923   7.756   6.358   1.238 -2.3483 -1.4450  0.1408
 4622SOL     OW25924   8.729   7.904   1.999 -0.7810  0.3363  0.4742
 4622SOL    HW125925   8.659   7.842   2.034 -1.4204  0.0933 -1.2108
 4622SOL    HW225926   8.687   7.990   1.971 -0.7229 -0.4887 -2.2953
 4623SOL     OW25927   1.969   2.404   2.488 -0.2082  0.0170  0.2513
 4623SOL    HW125928   2.016   2.328   2.533 -1.0707 -0.2827  0.6569
 4623SOL    HW225929   2.016   2.427   2.403  0.7375 -0.2029  0.7109
 4624SOL     OW25930   6.836   0.835   5.695 -0.6352 -0.4136 -0.4018
 4624SOL    HW125931   6.811   0.931   5.681 -0.1208 -0.0847  0.9139
 4624SOL    HW225932   6.933   0.830   5.719 -1.1704 -1.0830  1.6637
 4625SOL     OW25933   1.713   8.620   5.187 -0.1141 -0.3243  0.2957
 4625SOL    HW125934   1.718   8.526   5.153 -2.8264 -0.6129  0.5378
 4625SOL    HW225935   1.747   8.623   5.281  0.5171 -0.9467  0.0951
 4626SOL     OW25936   9.395   5.898   7.985  0.5033 -0.4339  0.3104
 4626SOL    HW125937   9.374   5.937   8.075  1.5444  0.0685  0.3516
 4626SOL    HW225938   9.316   5.908   7.925  0.2146  0.3375  0.8072
 4627SOL     OW25939   8.083   8.846   7.065  0.2287  0.2008 -0.3619
 4627SOL    HW125940   8.084   8.838   6.965  2.5201  2.0722 -0.5373
 4627SOL    HW225941   8.151   8.783   7.104 -1.1385 -1.0296  0.1064
 4628SOL     OW25942   3.204   4.573   2.800 -0.2478  0.0389 -0.0832
 4628SOL    HW125943   3.190   4.669   2.824 -1.3475  0.3592 -1.8892
 4628SOL    HW225944   3.278   4.566   2.733 -2.4474  0.0375 -2.5995
 4629SOL     OW25945   3.556   6.610   2.460 -0.1314 -0.6486 -0.4102
 4629SOL    HW125946   3.550   6.532   2.523  0.9583 -1.6356 -1.4799
 4629SOL    HW225947   3.544   6.577   2.366  3.8845 -0.1463 -1.1912
 4630SOL     OW25948   1.792   3.017   8.754 -0.1279  0.4418  0.4677
 4630SOL    HW125949   1.700   2.978   8.750 -1.3664  3.0120  2.3363
 4630SOL    HW225950   1.824   3.037   8.661 -0.8748 -1.7296 -0.2771
 4631SOL     OW25951   0.771   0.463   0.033 -0.3554  0.0443 -0.2769
 4631SOL    HW125952   0.726   0.470   0.122 -0.8049  0.9834 -0.5731
 4631SOL    HW225953   0.812   0.550   0.010 -0.7598 -0.0198 -1.2614
 4632SOL     OW25954   6.428   7.769   3.132 -0.1426 -0.1383  0.5622
 4632SOL    HW125955   6.521   7.788   3.101 -0.6212  0.5624 -0.4660
 4632SOL    HW225956   6.366   7.769   3.054 -1.1510  0.2932  1.3575
 4633SOL     OW25957   3.723   5.156   1.251  0.3520  0.3342 -0.4101
 4633SOL    HW125958   3.688   5.077   1.201  3.0670 -0.0046 -1.8937
 4633SOL    HW225959   3.746   5.128   1.345 -1.2452  0.0577 -0.0854
 4634SOL     OW25960   4.483   4.554   7.093  0.3408  0.5037 -0.4873
 4634SOL    HW125961   4.537   4.478   7.129  3.8126  3.2424  0.3329
 4634SOL    HW225962   4.516   4.576   7.001 -0.7454  0.9577 -0.7708
 4635SOL     OW25963   9.947   8.041   9.042  0.2062  0.2092  0.3887
 4635SOL    HW125964   9.973   8.021   9.137  2.1967  1.9290  0.2513
 4635SOL    HW225965   9.973   7.965   8.983  0.4508 -0.1645  0.9738
 4636SOL     OW25966   8.932   3.634   7.121 -0.2202  0.3541  0.2908
 4636SOL    HW125967   8.948   3.668   7.028 -1.5858  0.5718  0.1251
 4636SOL    HW225968   8.981   3.548   7.134 -0.4926  0.0188 -0.8400
 4637SOL     OW25969   2.572   5.580   5.819  0.4777  0.0311 -0.0767
 4637SOL    HW125970   2.668   5.591   5.793  0.6348 -0.2385  0.3782
 4637SOL    HW225971   2.514   5.625   5.751  0.9908  1.3987  0.3754
 4638SOL     OW25972   7.653   2.010   7.135  0.3064  0.0252 -0.5787
 4638SOL    HW125973   7.681   1.972   7.047 -0.5615  1.1235 -1.3475
 4638SOL    HW225974   7.566   2.058   7.124 -0.2326 -0.5461  1.0676
 4639SOL     OW25975   4.344   5.382   7.826 -0.0416  0.1734  0.0977
 4639SOL    HW125976   4.372   5.400   7.732 -1.7481 -2.6783 -1.0513
 4639SOL    HW225977   4.402   5.310   7.865 -1.6579 -1.2911 -0.1214
 4640SOL     OW25978   8.546   1.875   9.661 -0.0707  0.4901  0.2215
 4640SOL    HW125979   8.505   1.950   9.713 -0.7897 -0.3125  0.8245
 4640SOL    HW225980   8.477   1.833   9.603  0.3127  0.2384 -0.0553
 4641SOL     OW25981   9.926   9.510   6.056 -0.6014  0.2948 -0.6508
 4641SOL    HW125982  10.016   9.524   6.096 -1.2937 -1.2370  1.5832
 4641SOL    HW225983   9.936   9.482   5.960  1.3218 -0.5030 -0.2407
 4642SOL     OW25984   4.433   8.898   7.491  0.6213 -0.0339 -0.0659
 4642SOL    HW125985   4.434   8.804   7.457  1.5526 -0.9405  2.3944
 4642SOL    HW225986   4.468   8.960   7.420  1.8425 -1.7708 -0.9975
 4643SOL     OW25987   5.397   7.327   1.614  0.2221  0.4085 -0.3090
 4643SOL    HW125988   5.315   7.299   1.664  1.1446 -1.1625  0.3634
 4643SOL    HW225989   5.452   7.246   1.592  0.8884  1.3049 -1.9941
 4644SOL     OW25990   8.641   7.114   2.220  0.2415  0.0720  0.4579
 4644SOL    HW125991   8.645   7.092   2.122  0.3943 -0.7759  0.6444
 4644SOL    HW225992   8.562   7.173   2.238 -0.3287 -0.5221 -0.0410
 4645SOL     OW25993   1.104   9.086   9.702 -0.3542  0.3932 -0.2150
 4645SOL    HW125994   1.145   9.019   9.642  0.6821 -1.2186  2.2077
 4645SOL    HW225995   1.175   9.144   9.742 -0.4862 -1.3496  2.7329
 4646SOL     OW25996   1.777   8.759   1.049 -0.5699 -0.1079  0.3963
 4646SOL    HW125997   1.744   8.667   1.069 -0.9952  0.3398  1.8019
 4646SOL    HW225998   1.765   8.817   1.129  0.0370  1.0825 -0.3581
 4647SOL     OW25999   0.708   0.674   2.097 -0.0327 -0.7205 -0.0158
 4647SOL    HW126000   0.643   0.598   2.086  1.0771 -1.6384 -0.3380
 4647SOL    HW226001   0.712   0.701   2.193 -0.9592 -0.5906 -0.0091
 4648SOL     OW26002   8.040   4.437   7.531 -0.0262  0.7223  0.2205
 4648SOL    HW126003   8.059   4.402   7.440  0.3681  1.1397  0.1372
 4648SOL    HW226004   8.065   4.534   7.535 -0.3276  0.7835  0.6821
 4649SOL     OW26005   9.595   1.826   2.375  0.3697 -0.4414  0.1337
 4649SOL    HW126006   9.633   1.802   2.464  0.2435 -0.3687  0.2068
 4649SOL    HW226007   9.544   1.749   2.338  0.8832 -0.6641 -0.1244
 4650SOL     OW26008   1.599   0.183   0.998  0.0056 -0.2828  0.1370
 4650SOL    HW126009   1.519   0.242   0.992 -0.4143 -1.0270 -1.7939
 4650SOL    HW226010   1.608   0.129   0.914  1.7699 -1.1825  0.8694
 4651SOL     OW26011   6.868   4.371   9.529 -0.1372 -0.1041  0.2023
 4651SOL    HW126012   6.937   4.442   9.515 -1.0853  0.5653 -1.3190
 4651SOL    HW226013   6.892   4.290   9.474 -0.0230 -0.2497  0.4704
 4652SOL     OW26014   1.555   2.877   8.704 -0.4690  0.1601  0.0472
 4652SOL    HW126015   1.471   2.846   8.750 -0.1071  0.0664  0.6506
 4652SOL    HW226016   1.577   2.815   8.629  0.4101 -1.2063  1.4195
 4653SOL     OW26017   8.225   7.299   3.630  0.1038  0.6100 -0.6977
 4653SOL    HW126018   8.148   7.263   3.578 -0.6468 -0.5236  1.1558
 4653SOL    HW226019   8.288   7.225   3.652 -0.0871  0.8943  0.8444
 4654SOL     OW26020   7.420   9.008   4.457  0.7673  0.0312 -0.0155
 4654SOL    HW126021   7.377   9.094   4.485 -1.3595 -1.0422  0.1539
 4654SOL    HW226022   7.458   8.962   4.537 -1.1974 -0.8115  0.4848
 4655SOL     OW26023   3.251   6.795   0.067  0.0294  0.0293  0.3542
 4655SOL    HW126024   3.167   6.760   0.027  0.8837 -0.4871 -1.0318
 4655SOL    HW226025   3.329   6.762   0.014  0.9987  2.1776  0.3728
 4656SOL     OW26026   0.297   6.119   6.446 -0.2644  0.2043  0.1216
 4656SOL    HW126027   0.286   6.170   6.531 -2.6983 -0.1758  0.0589
 4656SOL    HW226028   0.212   6.072   6.424  1.0082 -1.4392 -1.4122
 4657SOL     OW26029   9.451   5.003   7.433 -0.4612 -0.4809 -0.0306
 4657SOL    HW126030   9.405   4.914   7.424 -2.4319  0.5063 -0.0915
 4657SOL    HW226031   9.456   5.046   7.343  1.2330 -0.8797 -0.1325
 4658SOL     OW26032   8.810   0.235   2.760 -0.2376  0.5821  0.1338
 4658SOL    HW126033   8.878   0.277   2.821  0.7153 -1.5311  0.5479
 4658SOL    HW226034   8.794   0.296   2.682  2.6151  0.8602 -0.2939
 4659SOL     OW26035   7.739   3.123   3.323 -0.0436  0.6271  0.2860
 4659SOL    HW126036   7.654   3.071   3.337  0.2041 -0.5061 -2.0848
 4659SOL    HW226037   7.749   3.191   3.395 -1.9972 -0.5174  1.6855
 4660SOL     OW26038   4.913   5.705   7.800 -0.3879  0.2445  0.3181
 4660SOL    HW126039   4.992   5.760   7.826 -0.0229 -0.5572  0.9075
 4660SOL    HW226040   4.942   5.629   7.743 -0.9627  0.9533 -0.9577
 4661SOL     OW26041   4.592   0.518   0.111 -0.1256  0.3338  0.0311
 4661SOL    HW126042   4.589   0.481   0.018  0.7406  0.6040 -0.1060
 4661SOL    HW226043   4.525   0.592   0.119  0.5775  1.0685 -0.7175
 4662SOL     OW26044   6.105   0.627   1.086  0.1211 -0.1726  0.3697
 4662SOL    HW126045   6.087   0.541   1.133 -1.6917 -1.0935 -1.9121
 4662SOL    HW226046   6.204   0.646   1.087  0.4988 -2.1121  1.1385
 4663SOL     OW26047   7.927   8.058   5.732  0.5777 -0.4171 -0.2211
 4663SOL    HW126048   7.895   8.142   5.688  0.8894 -0.6197 -0.8523
 4663SOL    HW226049   7.903   8.060   5.829 -1.4427 -0.6268 -0.6953
 4664SOL     OW26050   3.042   5.384   3.755 -0.6233  0.7648  1.0423
 4664SOL    HW126051   3.128   5.356   3.712 -1.5239  2.0363 -1.7178
 4664SOL    HW226052   2.973   5.313   3.739 -0.0225 -0.4444  3.6074
 4665SOL     OW26053   4.593   7.625   0.739 -0.1850  0.0898 -0.3771
 4665SOL    HW126054   4.537   7.542   0.733 -1.7644  1.1848 -1.4666
 4665SOL    HW226055   4.534   7.703   0.761  1.6941  0.5034  3.4709
 4666SOL     OW26056   8.439   0.152   7.054  0.3931  0.2905  0.1190
 4666SOL    HW126057   8.422   0.234   7.108 -0.1458  0.4719 -0.3264
 4666SOL    HW226058   8.495   0.176   6.975  1.6847 -0.0780  0.8946
 4667SOL     OW26059   6.824   7.658   6.052 -0.3403 -0.6090 -0.1902
 4667SOL    HW126060   6.796   7.697   5.964  0.8076  1.3160  0.2895
 4667SOL    HW226061   6.897   7.591   6.036 -0.3390 -0.4881 -0.7269
 4668SOL     OW26062   6.650   1.127   9.022 -0.1182  0.4562 -0.2129
 4668SOL    HW126063   6.687   1.047   8.974  1.6864  0.2738  1.4167
 4668SOL    HW226064   6.612   1.099   9.110 -0.6989  1.2093 -0.2168
 4669SOL     OW26065   4.861   5.225   4.437 -0.4279  0.0007 -0.2810
 4669SOL    HW126066   4.784   5.235   4.373 -1.1658  0.9668  0.7428
 4669SOL    HW226067   4.854   5.295   4.508  1.7115  0.4373 -0.4797
 4670SOL     OW26068   3.819   9.586   7.228  0.4571 -1.1646  0.3602
 4670SOL    HW126069   3.771   9.596   7.315 -0.3811  0.4811 -0.2630
 4670SOL    HW226070   3.917   9.578   7.246  0.4418  0.5776  1.4151
 4671SOL     OW26071   2.260   2.268   5.083  0.9017  0.1024 -0.0396
 4671SOL    HW126072   2.242   2.176   5.118  2.7397  0.0179  0.8046
 4671SOL    HW226073   2.286   2.328   5.160 -1.8980  1.7733 -0.3486
 4672SOL     OW26074   1.826   3.330   2.960 -0.2292 -0.2492  0.3246
 4672SOL    HW126075   1.907   3.271   2.965  0.5710  0.8749  0.8429
 4672SOL    HW226076   1.744   3.273   2.955  0.6129 -1.4074 -0.6229
 4673SOL     OW26077   5.045   1.910   8.810  1.3010  0.0033 -1.0458
 4673SOL    HW126078   5.000   1.863   8.886  0.3631 -0.1693 -1.7119
 4673SOL    HW226079   4.980   1.970   8.763  2.6946  2.7713  0.3877
 4674SOL     OW26080   6.955   3.908   0.227  0.6556  0.7506 -0.4322
 4674SOL    HW126081   6.990   3.964   0.152  1.6774  0.5213 -0.1340
 4674SOL    HW226082   6.914   3.825   0.191  1.4384  0.4880 -0.7138
 4675SOL     OW26083   5.493   9.025   3.674  0.2093 -0.4857 -0.2877
 4675SOL    HW126084   5.532   8.937   3.699 -0.6853 -0.6952  0.4019
 4675SOL    HW226085   5.429   9.013   3.598 -0.5128 -0.5599  0.3270
 4676SOL     OW26086   7.708   8.618   3.821  0.1836 -0.2932 -0.0045
 4676SOL    HW126087   7.656   8.630   3.906  0.2822  0.3402 -0.0300
 4676SOL    HW226088   7.801   8.589   3.843  0.0819 -0.5644  0.0792
 4677SOL     OW26089   3.904   2.312   2.360  0.1003  0.2550  0.2419
 4677SOL    HW126090   3.915   2.239   2.428 -0.6576  1.0857  1.2542
 4677SOL    HW226091   3.992   2.358   2.347  0.6952 -1.0933 -0.7202
 4678SOL     OW26092   1.639   0.171   9.451 -0.4284 -0.1547 -0.6108
 4678SOL    HW126093   1.625   0.092   9.511  2.5060 -0.4803 -0.2679
 4678SOL    HW226094   1.729   0.210   9.468 -0.0990  0.6361 -3.8129
 4679SOL     OW26095   7.214   1.223   4.067  0.5554  0.2792 -0.0157
 4679SOL    HW126096   7.302   1.263   4.040  0.9306 -0.8085 -0.4411
 4679SOL    HW226097   7.156   1.213   3.986  0.8991 -1.0809 -0.1029
 4680SOL     OW26098   1.035   0.959   3.741  0.1177 -0.4211  0.0458
 4680SOL    HW126099   1.075   1.032   3.686  0.1121 -0.3647  0.1152
 4680SOL    HW226100   1.092   0.877   3.736  1.5861  0.4344  2.1219
 4681SOL     OW26101   4.589   5.946   2.955  0.0903 -0.0736  0.1377
 4681SOL    HW126102   4.645   5.984   2.882 -1.7803  0.7140 -0.9008
 4681SOL    HW226103   4.555   5.856   2.928 -0.1664 -0.0119  0.2498
 4682SOL     OW26104   8.592   3.594  10.048  0.0938  0.3084  0.1341
 4682SOL    HW126105   8.672   3.535  10.035  0.3938  0.5723  0.7373
 4682SOL    HW226106   8.613   3.686  10.016 -0.0969  0.2916 -0.0446
 4683SOL     OW26107   2.953   2.009   7.506  0.6757  0.1991  0.0273
 4683SOL    HW126108   2.902   2.079   7.457 -0.8859 -0.1574  1.0992
 4683SOL    HW226109   3.011   1.959   7.442 -1.5983 -0.5136 -1.5255
 4684SOL     OW26110   4.358   3.384   0.410  0.4403 -0.2788 -0.1837
 4684SOL    HW126111   4.419   3.462   0.399 -0.3392  0.5297  1.0693
 4684SOL    HW226112   4.270   3.415   0.444 -0.1587 -1.6153 -0.4787
 4685SOL     OW26113   6.552   8.321   6.997 -0.0124  0.0246  0.2992
 4685SOL    HW126114   6.479   8.369   6.950  0.7104  0.2287 -0.6314
 4685SOL    HW226115   6.641   8.355   6.966  0.5462 -2.8441 -1.4273
 4686SOL     OW26116   4.069   1.701   6.774  0.2008  0.3644 -0.0150
 4686SOL    HW126117   4.041   1.766   6.845 -0.4503  0.0578  0.0135
 4686SOL    HW226118   4.126   1.748   6.706  1.0666  0.5962  0.8542
 4687SOL     OW26119   4.117   9.321   1.533 -0.0052 -0.0252 -0.2344
 4687SOL    HW126120   4.191   9.382   1.508  2.6283 -2.9565  0.0977
 4687SOL    HW226121   4.043   9.373   1.576  2.1751  2.8308  0.1595
 4688SOL     OW26122   6.391   5.694   1.693 -0.6274 -0.3240  0.4208
 4688SOL    HW126123   6.479   5.718   1.650 -0.8942 -0.3171 -0.1269
 4688SOL    HW226124   6.397   5.711   1.791  0.7384 -2.4760  0.7335
 4689SOL     OW26125   0.087   4.264   7.964 -0.0504  0.6573 -0.3359
 4689SOL    HW126126   0.033   4.187   7.999  0.9859  0.5589  1.0725
 4689SOL    HW226127   0.025   4.330   7.920 -0.8896 -1.2009 -2.0380
 4690SOL     OW26128   9.098   9.655   0.891  0.5660 -0.0127  0.2030
 4690SOL    HW126129   9.189   9.653   0.850  0.5926 -0.6426  0.2882
 4690SOL    HW226130   9.099   9.605   0.978 -0.2463 -1.4512 -0.5971
 4691SOL     OW26131   4.101   4.849   0.284  0.2889  0.8130  0.0992
 4691SOL    HW126132   4.124   4.915   0.212  0.7972  2.1399  1.4471
 4691SOL    HW226133   4.006   4.863   0.313  0.9192  2.1954  1.6193
 4692SOL     OW26134   6.281   3.996   1.044  0.1460  0.4957  0.5820
 4692SOL    HW126135   6.294   3.963   0.950  0.0100 -0.7851  1.0024
 4692SOL    HW226136   6.218   3.936   1.092 -1.2975  2.2438  0.9339
 4693SOL     OW26137   6.414   8.659   2.964 -0.4350 -0.1369 -0.1813
 4693SOL    HW126138   6.448   8.674   3.057  0.0838 -1.8631 -0.0646
 4693SOL    HW226139   6.354   8.734   2.937 -0.3763  0.5069  1.4438
 4694SOL     OW26140   5.458   7.538   8.555 -0.2216  0.1074 -0.0588
 4694SOL    HW126141   5.408   7.597   8.492 -2.8839 -0.2821  1.6294
 4694SOL    HW226142   5.452   7.574   8.648  1.2569 -0.8282  0.4194
 4695SOL     OW26143   7.672   1.914   7.439  0.0665  0.3285 -0.2738
 4695SOL    HW126144   7.581   1.874   7.457  0.5048 -0.5513  0.0441
 4695SOL    HW226145   7.671   1.961   7.351 -0.9526  1.0911  0.1351
 4696SOL     OW26146   2.909   5.210   3.267  0.2737  0.0379 -0.5988
 4696SOL    HW126147   2.888   5.265   3.348  1.6000 -0.9212  0.4044
 4696SOL    HW226148   2.831   5.213   3.204 -1.1772 -0.0576  1.1670
 4697SOL     OW26149   8.803   7.278   7.804 -0.2877 -0.2831  0.2377
 4697SOL    HW126150   8.753   7.357   7.770  0.7318  0.2099 -0.1464
 4697SOL    HW226151   8.867   7.307   7.875  1.3139 -0.4635 -1.0937
 4698SOL     OW26152   7.361   7.559   5.662 -0.1633 -0.1004  0.1596
 4698SOL    HW126153   7.365   7.639   5.722  1.2895  0.7000 -0.9517
 4698SOL    HW226154   7.381   7.476   5.714  1.8983  0.6724  0.6552
 4699SOL     OW26155   3.490   4.686   2.070  0.1671 -0.2735 -0.8006
 4699SOL    HW126156   3.421   4.718   2.005  1.1054  1.0666 -1.1408
 4699SOL    HW226157   3.536   4.764   2.112  1.9555 -1.1518 -1.0716
 4700SOL     OW26158   7.514   7.670   6.440  0.4779  0.1489 -0.4823
 4700SOL    HW126159   7.448   7.694   6.512  0.9050  0.3301 -0.1496
 4700SOL    HW226160   7.580   7.604   6.476  1.2464  0.9404 -0.4326
 4701SOL     OW26161   2.285   7.263   5.614 -0.4886 -0.0802 -0.6188
 4701SOL    HW126162   2.292   7.286   5.711 -2.7937 -0.9034 -0.2153
 4701SOL    HW226163   2.353   7.193   5.590 -0.2441 -0.2320  0.5191
 4702SOL     OW26164   1.600   5.078   9.022  0.1206 -0.4143  0.5600
 4702SOL    HW126165   1.583   5.153   9.086 -0.5583 -0.3490  0.3148
 4702SOL    HW226166   1.632   5.116   8.935 -1.3134 -0.3059  0.0571
 4703SOL     OW26167   0.138   3.772   5.860 -0.0432 -0.7137 -0.1020
 4703SOL    HW126168   0.041   3.795   5.868  0.0563  0.1243 -1.2565
 4703SOL    HW226169   0.193   3.846   5.897  0.2032 -0.4359 -1.0260
 4704SOL     OW26170   4.472   9.261   1.392  0.4015 -0.0463 -0.3083
 4704SOL    HW126171   4.524   9.328   1.338  0.9303 -0.4766 -0.3452
 4704SOL    HW226172   4.421   9.308   1.464  0.8547  0.3923 -0.2657
 4705SOL     OW26173   0.214   7.678   5.159  0.1505  0.4418  0.1096
 4705SOL    HW126174   0.169   7.765   5.180 -0.5033  0.1449 -0.0689
 4705SOL    HW226175   0.170   7.605   5.211  1.1307  0.3077  0.7760
 4706SOL     OW26176   6.042   0.186   7.451  0.5664  0.2441 -0.0580
 4706SOL    HW126177   5.976   0.249   7.411  0.4809 -1.4455 -2.6613
 4706SOL    HW226178   6.133   0.206   7.417  0.7910  0.0219  0.4008
 4707SOL     OW26179   5.136   1.401  10.067  0.1793  0.3211 -0.2701
 4707SOL    HW126180   5.184   1.337  10.127 -0.5246 -0.3697 -0.4320
 4707SOL    HW226181   5.128   1.490  10.112 -0.5823 -0.2710  0.7909
 4708SOL     OW26182   8.347   9.137   0.642  0.0034 -0.1006 -0.4309
 4708SOL    HW126183   8.388   9.077   0.711  0.6788  0.9797  0.1258
 4708SOL    HW226184   8.351   9.092   0.553 -3.4263 -2.7019  0.6279
 4709SOL     OW26185   8.334   4.737   2.599  0.4067  0.2985  0.5267
 4709SOL    HW126186   8.298   4.784   2.679 -0.2589 -0.1942  0.5334
 4709SOL    HW226187   8.341   4.801   2.523 -2.6490 -0.0485 -0.1180
 4710SOL     OW26188   4.471   2.943   6.621  0.7864 -0.5842  0.0390
 4710SOL    HW126189   4.567   2.918   6.613  0.9905  0.9802 -3.5574
 4710SOL    HW226190   4.430   2.949   6.529 -2.6113 -0.7337  1.4575
 4711SOL     OW26191   6.100   8.982   8.789 -0.3015  0.1392  0.5384
 4711SOL    HW126192   6.067   8.954   8.699 -1.6489 -0.2514  1.1548
 4711SOL    HW226193   6.147   9.071   8.780  1.3273 -0.8212 -0.8756
 4712SOL     OW26194   9.217   9.571   9.070  0.2714 -0.0929  0.4022
 4712SOL    HW126195   9.230   9.634   9.146  0.8333 -0.3815  0.5446
 4712SOL    HW226196   9.259   9.483   9.091  1.0143  0.0340 -0.5062
 4713SOL     OW26197   2.959   9.001   1.817  0.2601  0.0145  0.5306
 4713SOL    HW126198   3.032   8.933   1.816  0.3273  0.0932  0.2378
 4713SOL    HW226199   2.933   9.020   1.912  1.8213  1.2860  0.7314
 4714SOL     OW26200   9.274   6.787   2.787 -0.3115 -0.2730 -0.2798
 4714SOL    HW126201   9.373   6.800   2.800 -0.5449 -0.3394  1.7520
 4714SOL    HW226202   9.232   6.873   2.759 -0.1326  0.5540  1.9241
 4715SOL     OW26203   8.058   4.440   9.766 -0.3086  0.3778  0.9192
 4715SOL    HW126204   7.989   4.504   9.799 -0.6554  0.4268  0.1145
 4715SOL    HW226205   8.112   4.484   9.695 -0.6032 -0.2514  0.3060
 4716SOL     OW26206   7.771   4.118   9.650 -0.0119  0.0404  0.0740
 4716SOL    HW126207   7.780   4.201   9.594 -0.4470 -1.5559 -2.4222
 4716SOL    HW226208   7.674   4.101   9.668 -0.0484 -0.8957 -0.9562
 4717SOL     OW26209   6.765   0.481   8.829  0.1553 -0.6866 -0.5172
 4717SOL    HW126210   6.667   0.496   8.845  0.1497 -1.3129  0.0278
 4717SOL    HW226211   6.792   0.529   8.745 -0.2490  0.8932  0.2403
 4718SOL     OW26212   0.232   9.696   7.291 -0.5536  0.5686  0.3380
 4718SOL    HW126213   0.312   9.717   7.234 -0.1833  0.6424  0.8780
 4718SOL    HW226214   0.242   9.741   7.380 -1.7543  1.5283 -0.0119
 4719SOL     OW26215   3.033   8.346   6.363 -0.0335 -0.4927 -0.4832
 4719SOL    HW126216   3.126   8.311   6.369 -0.1501 -1.1010 -1.8316
 4719SOL    HW226217   3.034   8.436   6.318 -0.0537 -0.3174 -0.1305
 4720SOL     OW26218   1.420   1.806   7.537 -0.5761  0.1690 -0.3515
 4720SOL    HW126219   1.406   1.778   7.631 -1.3914  0.4775 -0.3737
 4720SOL    HW226220   1.398   1.903   7.527  0.5386  0.4071 -0.6353
 4721SOL     OW26221   1.127   7.925   8.736  0.0224 -0.3990  0.5572
 4721SOL    HW126222   1.062   8.000   8.729  1.6719  0.8968 -1.1659
 4721SOL    HW226223   1.110   7.858   8.663 -0.7891 -1.2271  1.4751
 4722SOL     OW26224   6.810   7.071   6.788 -0.8721 -0.5733 -0.2711
 4722SOL    HW126225   6.841   7.044   6.698 -0.4557 -1.0494  0.0152
 4722SOL    HW226226   6.722   7.120   6.780 -1.3100 -1.4464 -0.8371
 4723SOL     OW26227   5.328   9.884   7.030 -0.4557  0.1756 -0.2195
 4723SOL    HW126228   5.343   9.981   7.046 -0.0008  0.2439 -1.0379
 4723SOL    HW226229   5.405   9.832   7.068 -0.2388  0.2109 -0.6045
 4724SOL     OW26230   8.327   2.192   2.730 -1.1505 -0.3177  0.4533
 4724SOL    HW126231   8.272   2.120   2.773 -2.4061  0.2336 -0.1870
 4724SOL    HW226232   8.325   2.181   2.631 -1.8206  0.9114  0.3165
 4725SOL     OW26233   9.435   3.416   6.106 -0.0301  0.5738  0.0287
 4725SOL    HW126234   9.530   3.407   6.134  0.0702  0.5106 -0.3318
 4725SOL    HW226235   9.390   3.485   6.163 -0.0080 -0.0433  0.7991
 4726SOL     OW26236   3.484   9.690   8.754 -0.2439  0.1290  0.3449
 4726SOL    HW126237   3.452   9.707   8.660  1.3217 -2.2603 -0.6736
 4726SOL    HW226238   3.406   9.663   8.811 -0.9021 -0.3847 -0.7708
 4727SOL     OW26239   3.023   3.083   5.286  0.4810  0.0516 -0.1156
 4727SOL    HW126240   3.094   3.027   5.330 -0.2090  1.2328  2.6132
 4727SOL    HW226241   3.028   3.176   5.321 -1.7832  0.3912 -0.6391
 4728SOL     OW26242   3.896   1.729   5.140 -0.1482 -0.3101 -0.0261
 4728SOL    HW126243   3.870   1.808   5.083  1.3429 -0.2199 -0.6125
 4728SOL    HW226244   3.934   1.761   5.227  3.5932 -0.2043 -1.5836
 4729SOL     OW26245   9.381   0.005   8.479 -0.7850  0.0991  0.0113
 4729SOL    HW126246   9.313  -0.010   8.551 -0.3997 -1.2316  0.1062
 4729SOL    HW226247   9.459   0.055   8.516 -1.1318  0.4889  0.2189
 4730SOL     OW26248   9.218   2.089   6.481 -0.4745  0.1100 -0.1404
 4730SOL    HW126249   9.261   2.158   6.422  1.0131 -1.9430 -1.5200
 4730SOL    HW226250   9.286   2.022   6.508 -2.3091 -1.8755 -0.3505
 4731SOL     OW26251   9.004   8.248   0.481  0.3508  0.2386 -1.0771
 4731SOL    HW126252   8.954   8.331   0.460  0.6149  1.3510  2.3543
 4731SOL    HW226253   8.940   8.176   0.507  0.1939 -0.3211 -2.9472
 4732SOL     OW26254   3.315   8.078   3.185 -0.4702  0.2389 -0.3005
 4732SOL    HW126255   3.291   8.170   3.154 -2.3723 -0.5713 -1.3092
 4732SOL    HW226256   3.244   8.014   3.157 -1.1363 -0.9188  3.7961
 4733SOL     OW26257   9.991   5.749   9.243 -0.4001  0.6972 -0.1379
 4733SOL    HW126258  10.091   5.757   9.250 -0.1613 -1.1061 -1.2913
 4733SOL    HW226259   9.967   5.717   9.152 -1.9700 -0.0430  0.5348
 4734SOL     OW26260   1.785   6.562   3.995  0.0536  0.4426  0.4529
 4734SOL    HW126261   1.716   6.510   3.945  1.3396 -0.8720  0.0065
 4734SOL    HW226262   1.754   6.577   4.089 -0.7968 -0.2066  0.2815
 4735SOL     OW26263   8.489   1.104   7.317 -0.3615 -0.3954  0.1091
 4735SOL    HW126264   8.490   1.052   7.402  1.5383 -0.3017  0.1656
 4735SOL    HW226265   8.580   1.105   7.278 -0.8735  0.9552 -1.0887
 4736SOL     OW26266   3.080   1.724   4.153 -0.2907  0.2738  0.3579
 4736SOL    HW126267   3.060   1.650   4.218  0.0627  0.8711  1.1637
 4736SOL    HW226268   3.179   1.736   4.145 -0.2892 -0.7694 -1.4305
 4737SOL     OW26269   0.665   0.048   5.406 -0.3569 -0.0224  0.7438
 4737SOL    HW126270   0.665   0.052   5.506  1.8270  0.4322  0.7676
 4737SOL    HW226271   0.740  -0.011   5.376 -0.6448  0.3165 -0.6414
 4738SOL     OW26272   0.959   1.781   9.434 -0.4154 -0.0148  0.2440
 4738SOL    HW126273   1.043   1.783   9.489 -0.3173 -0.5310  0.1203
 4738SOL    HW226274   0.896   1.713   9.472 -1.0715  0.8739  0.7485
 4739SOL     OW26275   2.724   6.964   1.674  0.6114  0.2661 -0.2697
 4739SOL    HW126276   2.757   7.047   1.630 -0.6871  0.2988 -1.2030
 4739SOL    HW226277   2.708   6.982   1.771 -0.9580  1.5051 -0.7380
 4740SOL     OW26278   7.101   0.049   6.311 -0.2573 -0.3977 -0.3618
 4740SOL    HW126279   7.108  -0.011   6.230  1.4044  1.7520 -1.8511
 4740SOL    HW226280   7.027   0.115   6.296  0.9908  0.9252 -0.7667
 4741SOL     OW26281   1.654   6.902   2.161  0.3689  0.2314 -0.5356
 4741SOL    HW126282   1.722   6.845   2.114 -0.1648 -1.0281  0.1825
 4741SOL    HW226283   1.604   6.956   2.093  0.8933 -0.1471 -1.2333
 4742SOL     OW26284   6.063   0.504   2.363  0.2373 -0.6007 -0.3059
 4742SOL    HW126285   6.148   0.461   2.333  0.2579  0.3017 -1.5749
 4742SOL    HW226286   6.054   0.495   2.462  2.9432  1.3193  0.1612
 4743SOL     OW26287   7.703   8.097   4.939 -0.0340 -0.3934 -0.2038
 4743SOL    HW126288   7.614   8.135   4.915 -1.2729 -3.5466 -0.8298
 4743SOL    HW226289   7.695   8.045   5.024  0.6691 -2.6271 -1.4850
 4744SOL     OW26290   9.219   1.415   3.640 -0.1748  0.2910 -0.2318
 4744SOL    HW126291   9.138   1.358   3.650 -0.1735  0.2837 -0.2578
 4744SOL    HW226292   9.288   1.367   3.585 -0.9885  1.1727 -2.0576
 4745SOL     OW26293   8.273   9.931   0.738  0.2212  0.7260  0.0185
 4745SOL    HW126294   8.290  10.029   0.749  1.5614  0.6432 -1.2823
 4745SOL    HW226295   8.274   9.907   0.641 -0.0503 -0.5876  0.3304
 4746SOL     OW26296   0.096   9.987   0.738  0.0308  0.2494 -0.2301
 4746SOL    HW126297   0.192   9.967   0.757  0.0080 -0.9208 -1.2632
 4746SOL    HW226298   0.086  10.013   0.642 -0.7713 -0.1752 -0.2652
 4747SOL     OW26299   6.777   5.080   2.262  0.4278  0.2158  0.3457
 4747SOL    HW126300   6.778   4.981   2.277 -0.5563  0.2457  0.7008
 4747SOL    HW226301   6.765   5.100   2.165  0.5961 -0.0092  0.2788
 4748SOL     OW26302   1.607   6.183   6.027  0.0519 -0.1146 -0.1979
 4748SOL    HW126303   1.588   6.250   6.099 -0.3230  0.0212 -0.4209
 4748SOL    HW226304   1.634   6.231   5.943  1.0149 -0.2919  0.0052
 4749SOL     OW26305   7.392   8.420   5.036 -0.1071 -0.5274  0.1612
 4749SOL    HW126306   7.367   8.508   5.077 -0.2101 -0.0328 -0.9280
 4749SOL    HW226307   7.441   8.365   5.102 -2.1484 -0.6207  1.6402
 4750SOL     OW26308   3.650   2.835   6.287 -0.3887 -0.3633 -0.9003
 4750SOL    HW126309   3.603   2.861   6.371  1.5527  0.8483 -0.1608
 4750SOL    HW226310   3.622   2.742   6.260  0.1658 -1.3985  1.9387
 4751SOL     OW26311   2.565   8.969   3.444 -0.1268 -0.7445  0.1155
 4751SOL    HW126312   2.619   8.886   3.460  3.8795  1.7608 -0.0464
 4751SOL    HW226313   2.527   8.966   3.351  1.3484 -1.6470 -0.4793
 4752SOL     OW26314   3.802   2.443   4.883  0.2150 -0.1210 -0.1125
 4752SOL    HW126315   3.861   2.397   4.948  1.8798  0.2820 -1.3023
 4752SOL    HW226316   3.770   2.529   4.922 -0.2578 -0.7233  0.8458
 4753SOL     OW26317   9.220   4.905   8.968 -0.1059 -0.0648  0.1027
 4753SOL    HW126318   9.144   4.964   8.940 -1.7831 -2.0149  0.3540
 4753SOL    HW226319   9.262   4.865   8.886 -1.3569 -1.3530  0.0601
 4754SOL     OW26320   2.750   0.875   0.162 -0.2777 -0.2564  0.0107
 4754SOL    HW126321   2.782   0.817   0.087 -0.7283 -0.2040 -0.2272
 4754SOL    HW226322   2.650   0.877   0.162 -0.2708  1.4162 -0.6854
 4755SOL     OW26323   7.456   5.833   0.321  0.3200 -0.0733  0.5091
 4755SOL    HW126324   7.530   5.773   0.350  1.5750  1.8829  1.4378
 4755SOL    HW226325   7.369   5.799   0.359  1.1354 -0.7974  1.7573
 4756SOL     OW26326   2.705   0.706   3.181  0.4763 -0.0318  0.3609
 4756SOL    HW126327   2.700   0.607   3.173  0.6595  0.0584 -0.9458
 4756SOL    HW226328   2.796   0.732   3.216  0.3639 -0.3301  0.8740
 4757SOL     OW26329   4.057   4.776   7.149  0.3303  0.9988 -0.7065
 4757SOL    HW126330   4.111   4.838   7.206  2.0065 -1.0356  0.0087
 4757SOL    HW226331   3.961   4.783   7.175  0.9262  0.9100  1.6683
 4758SOL     OW26332   5.209   2.129   6.009 -0.3398 -0.6483 -0.1349
 4758SOL    HW126333   5.290   2.174   5.972  0.6711 -0.9693  1.5996
 4758SOL    HW226334   5.191   2.045   5.958  0.9355 -1.0076 -0.0201
 4759SOL     OW26335   0.446   4.531   7.098 -0.5444 -0.6208  0.3311
 4759SOL    HW126336   0.410   4.444   7.131 -0.3345 -0.2603  1.5453
 4759SOL    HW226337   0.398   4.606   7.145 -1.5524 -0.0489 -1.5466
 4760SOL     OW26338   0.246   8.497   7.905  0.2996  0.2381 -0.5915
 4760SOL    HW126339   0.255   8.572   7.971  1.5272  0.3224 -0.8334
 4760SOL    HW226340   0.189   8.527   7.829 -1.3294  0.0523  0.5448
 4761SOL     OW26341   2.512   8.704   0.181 -0.1127  0.3813 -0.0974
 4761SOL    HW126342   2.479   8.753   0.099  0.0912 -0.2537 -0.5632
 4761SOL    HW226343   2.525   8.608   0.158  2.0677  0.6133  0.0886
 4762SOL     OW26344   5.044   7.232   7.164 -0.9313 -0.5690 -0.9384
 4762SOL    HW126345   5.074   7.239   7.069 -1.0182 -1.6103 -1.0508
 4762SOL    HW226346   4.974   7.161   7.172  0.6815 -2.0744  0.2743
 4763SOL     OW26347   9.691   5.796   2.645 -0.4069  0.0220 -0.2317
 4763SOL    HW126348   9.786   5.782   2.620 -0.7229 -1.3689 -0.7184
 4763SOL    HW226349   9.677   5.891   2.671  0.9191  0.4461 -1.0181
 4764SOL     OW26350   8.673   8.345   6.518  0.0735  0.2352  0.3906
 4764SOL    HW126351   8.582   8.380   6.496  0.1760  0.1089 -0.2369
 4764SOL    HW226352   8.689   8.353   6.616 -0.4729  0.5919  0.4506
 4765SOL     OW26353   3.752   1.131   6.306  0.0343 -0.0653  0.2298
 4765SOL    HW126354   3.755   1.104   6.210 -0.8739 -1.4747  0.5876
 4765SOL    HW226355   3.845   1.137   6.342  0.2904 -1.8538 -0.1017
 4766SOL     OW26356   1.625   6.329   2.549 -0.5386  0.0180 -0.3219
 4766SOL    HW126357   1.616   6.254   2.484 -1.2935 -1.1813  1.1315
 4766SOL    HW226358   1.636   6.292   2.642 -0.9905  1.6898  0.4188
 4767SOL     OW26359   5.116   9.229   8.424 -0.6202 -0.1561 -0.1929
 4767SOL    HW126360   5.174   9.167   8.372 -0.0610 -1.1420  1.5610
 4767SOL    HW226361   5.053   9.175   8.481  0.7382  0.8388  2.3135
 4768SOL     OW26362   8.649   8.414   0.241  0.0445  0.1599 -0.5914
 4768SOL    HW126363   8.669   8.498   0.291 -2.3026 -0.2674  1.1257
 4768SOL    HW226364   8.598   8.436   0.158  1.9649  0.6628 -1.6649
 4769SOL     OW26365   4.250   9.685   8.264  0.2291  0.5770 -0.0943
 4769SOL    HW126366   4.286   9.603   8.308  0.3194  0.4440 -0.4162
 4769SOL    HW226367   4.199   9.659   8.182  1.0039  0.9108 -0.6837
 4770SOL     OW26368   9.843   6.366   8.326  0.2603  1.0354  0.4003
 4770SOL    HW126369   9.755   6.320   8.337  0.8825 -0.3319 -0.1936
 4770SOL    HW226370   9.875   6.397   8.416 -2.1219  4.0632  0.2668
 4771SOL     OW26371   1.811   9.142   4.277 -0.0693 -0.3593  0.0174
 4771SOL    HW126372   1.730   9.118   4.330  0.2183 -0.0725  0.5977
 4771SOL    HW226373   1.819   9.242   4.272  0.2005 -0.3852 -0.0970
 4772SOL     OW26374   0.847   1.523   3.763  0.3010  0.4130 -0.3281
 4772SOL    HW126375   0.844   1.480   3.672  3.3376  0.1927 -0.3639
 4772SOL    HW226376   0.862   1.621   3.752  1.9520  0.1986 -0.0495
 4773SOL     OW26377   5.567   6.300   0.513  0.2452  0.1684  0.0078
 4773SOL    HW126378   5.516   6.349   0.442  0.9635  0.6179 -0.1969
 4773SOL    HW226379   5.575   6.204   0.487  1.3101  0.5089 -0.9886
 4774SOL     OW26380   7.363   5.495   6.518 -0.1942  0.2062 -0.2604
 4774SOL    HW126381   7.389   5.403   6.488 -1.0348  0.0155 -0.4266
 4774SOL    HW226382   7.440   5.538   6.565  1.2748  0.6603 -2.9705
 4775SOL     OW26383   7.612   6.478   0.187 -0.3845 -0.5838 -0.3729
 4775SOL    HW126384   7.517   6.501   0.164  0.0587  2.9442  0.9862
 4775SOL    HW226385   7.673   6.513   0.117  0.0507 -1.3750 -0.3955
 4776SOL     OW26386   7.718   5.299   1.791 -0.0148  0.0798 -0.6805
 4776SOL    HW126387   7.684   5.391   1.770  0.2039  0.2356 -0.3516
 4776SOL    HW226388   7.758   5.259   1.708  0.0768  0.3639 -0.7759
 4777SOL     OW26389   9.226   3.318   8.557  0.1620  0.0516  0.2967
 4777SOL    HW126390   9.320   3.351   8.569 -0.3132  0.5665  2.8514
 4777SOL    HW226391   9.202   3.321   8.460  1.8722  2.3793 -0.0940
 4778SOL     OW26392   8.895   0.886   8.460  0.1901  0.2885  0.5106
 4778SOL    HW126393   8.826   0.815   8.443 -0.4930  0.2394  3.2560
 4778SOL    HW226394   8.849   0.975   8.466  0.5286  0.4206  1.1055
 4779SOL     OW26395   1.523   9.396   8.831  0.0331  0.2122 -0.4627
 4779SOL    HW126396   1.537   9.494   8.819  1.6254 -0.0625 -0.9345
 4779SOL    HW226397   1.561   9.347   8.753 -0.0242 -0.8344  0.1576
 4780SOL     OW26398   2.857   2.076   8.911 -0.2718 -0.2981  0.3616
 4780SOL    HW126399   2.907   2.003   8.956  0.9554  0.7349  0.6903
 4780SOL    HW226400   2.854   2.058   8.812  2.0627  0.4035  0.1492
 4781SOL     OW26401   0.981   3.264   5.934 -0.1768  0.2158  0.5410
 4781SOL    HW126402   0.999   3.267   6.032 -0.6304  1.0196  0.6052
 4781SOL    HW226403   1.003   3.173   5.899 -2.0482 -0.7506  1.7784
 4782SOL     OW26404   8.608   0.028   2.799 -0.2386  0.1104  0.0405
 4782SOL    HW126405   8.525   0.053   2.849  0.5158 -0.4672  1.6286
 4782SOL    HW226406   8.678   0.097   2.815  0.0280 -0.1106 -0.1737
 4783SOL     OW26407   4.288   7.604   1.043  0.6724  0.2776 -0.3497
 4783SOL    HW126408   4.357   7.532   1.040  3.6635  2.9996  0.2158
 4783SOL    HW226409   4.280   7.647   0.954 -1.3293 -0.8617 -0.7658
 4784SOL     OW26410   4.259   9.777   5.105  0.5756 -0.2338 -0.0865
 4784SOL    HW126411   4.267   9.849   5.036  1.2299 -0.8120 -0.6312
 4784SOL    HW226412   4.237   9.817   5.193  0.1136  0.5532 -0.5575
 4785SOL     OW26413   2.482   5.627   6.814 -0.5571  0.3548  0.0093
 4785SOL    HW126414   2.545   5.645   6.738  1.5775 -0.0749  1.6150
 4785SOL    HW226415   2.445   5.713   6.848 -0.5961  0.6435 -0.7496
 4786SOL     OW26416   4.031   7.784   2.147  0.3763  0.7428  0.1441
 4786SOL    HW126417   4.052   7.740   2.060  1.0871  3.3783 -1.0598
 4786SOL    HW226418   4.097   7.755   2.216 -0.2871 -1.4913 -0.1025
 4787SOL     OW26419   2.741   4.568   5.628  0.5501 -0.0834  0.3375
 4787SOL    HW126420   2.788   4.546   5.713  3.0071 -0.9143 -1.1882
 4787SOL    HW226421   2.773   4.657   5.595  1.3857 -0.8244 -0.9064
 4788SOL     OW26422   0.695   0.896   0.052  0.2955  0.5386  0.0732
 4788SOL    HW126423   0.663   0.850   0.135  2.4388 -0.6758  0.2728
 4788SOL    HW226424   0.625   0.960   0.020 -1.6781 -0.9533  1.2799
 4789SOL     OW26425   5.637   7.788   6.440  0.0433  0.7872 -0.2775
 4789SOL    HW126426   5.673   7.879   6.420 -0.2011  0.8535 -0.4063
 4789SOL    HW226427   5.713   7.728   6.466  0.2773  0.8772 -0.7383
 4790SOL     OW26428   8.899   7.629   5.201 -0.0708 -0.1239  0.2847
 4790SOL    HW126429   8.844   7.593   5.126 -1.5156  0.3283  1.1057
 4790SOL    HW226430   8.839   7.675   5.267  1.2058 -0.3404  1.6139
 4791SOL     OW26431   3.373   3.865   3.001  0.1785 -0.1283  0.0500
 4791SOL    HW126432   3.414   3.782   3.039  1.5859  1.4640  2.0828
 4791SOL    HW226433   3.287   3.841   2.955 -0.3558 -2.4895  2.1448
 4792SOL     OW26434   9.952   0.138   6.812 -0.1922  0.6515 -0.6043
 4792SOL    HW126435  10.037   0.160   6.762 -0.9476  2.2559 -1.2171
 4792SOL    HW226436   9.943   0.039   6.819  2.3972  0.4537  0.6073
 4793SOL     OW26437   5.073   3.373   1.551  0.0176 -0.5658 -0.1469
 4793SOL    HW126438   5.169   3.347   1.551  0.0967 -0.3491 -2.5612
 4793SOL    HW226439   5.016   3.291   1.558  0.3464 -0.6332  2.2252
 4794SOL     OW26440   0.257   0.312   2.793  0.2480  0.0459  0.3589
 4794SOL    HW126441   0.168   0.288   2.755 -0.4050  1.7570  0.7751
 4794SOL    HW226442   0.279   0.250   2.868 -0.8428 -0.0249  0.6186
 4795SOL     OW26443   7.471   5.551   7.387  1.0087  0.2599 -0.0662
 4795SOL    HW126444   7.457   5.483   7.315 -0.1042 -0.5012  0.8473
 4795SOL    HW226445   7.385   5.598   7.406  1.1193 -0.0354  1.2304
 4796SOL     OW26446   7.636   8.986   9.791 -0.0198  1.2016 -0.0940
 4796SOL    HW126447   7.587   9.025   9.868  1.4344  0.2546  1.3402
 4796SOL    HW226448   7.689   9.058   9.745 -0.4896  1.6654  0.0813
 4797SOL     OW26449   3.711   1.964   8.544  0.3657  0.0817 -0.5046
 4797SOL    HW126450   3.689   1.964   8.446  1.8555  0.0558 -0.8565
 4797SOL    HW226451   3.742   2.055   8.571  1.8670 -0.4234 -0.5094
 4798SOL     OW26452   0.228   5.122   2.529 -0.6726 -0.5111 -0.3941
 4798SOL    HW126453   0.201   5.078   2.615  0.4116 -1.8833 -0.7278
 4798SOL    HW226454   0.322   5.155   2.536 -0.4474 -0.9677 -1.1679
 4799SOL     OW26455   1.705   7.757   3.664 -0.1287 -0.3291  0.8139
 4799SOL    HW126456   1.761   7.784   3.586 -2.0243 -1.6142 -1.0474
 4799SOL    HW226457   1.654   7.836   3.698  0.2007  0.0941  0.3186
 4800SOL     OW26458   4.094   8.798   5.146  0.4140 -0.6709 -0.1600
 4800SOL    HW126459   4.077   8.797   5.244  0.0724  0.2901 -0.2049
 4800SOL    HW226460   4.071   8.888   5.109  1.0142 -0.8698 -1.0356
 4801SOL     OW26461   2.447   8.076   9.526 -0.1206 -0.2091  0.3746
 4801SOL    HW126462   2.372   8.040   9.471  0.3756  1.4411 -1.4485
 4801SOL    HW226463   2.427   8.171   9.551  0.5442 -0.3325  1.3982
 4802SOL     OW26464   6.669   4.030   8.435  0.0880  0.6421  0.6034
 4802SOL    HW126465   6.658   4.123   8.401  0.9051  0.6089  0.2273
 4802SOL    HW226466   6.675   4.031   8.535 -0.1423  0.9672  0.6140
 4803SOL     OW26467   2.952   4.654   8.000  0.2438  0.2131  0.0013
 4803SOL    HW126468   2.894   4.628   8.078  1.0326 -1.1430  0.1538
 4803SOL    HW226469   2.997   4.572   7.964  0.9979  1.0570 -0.9776
 4804SOL     OW26470   3.189   3.996   6.462 -0.0847 -0.4460  0.0163
 4804SOL    HW126471   3.207   4.093   6.443  1.5158 -0.5843  0.7232
 4804SOL    HW226472   3.169   3.948   6.376  2.0828 -0.0697 -0.7356
 4805SOL     OW26473   8.097   0.565   8.671  0.3391 -0.6640 -0.8509
 4805SOL    HW126474   8.189   0.591   8.701  0.3944 -0.1973 -1.4322
 4805SOL    HW226475   8.076   0.609   8.584 -1.0562  0.5281  0.0691
 4806SOL     OW26476   5.704   1.861   5.608 -0.5566  0.7120  0.3819
 4806SOL    HW126477   5.759   1.910   5.675 -1.4355  1.8578  0.2889
 4806SOL    HW226478   5.655   1.927   5.551 -1.3447 -0.2786 -0.1000
 4807SOL     OW26479   1.625   4.662   3.550  0.2765  0.6163  0.3107
 4807SOL    HW126480   1.653   4.612   3.631  0.1990 -0.5753 -0.3788
 4807SOL    HW226481   1.666   4.620   3.469  0.7747  2.1025 -0.2229
 4808SOL     OW26482   5.406   5.420   8.646 -0.3788  0.0716 -0.3060
 4808SOL    HW126483   5.394   5.518   8.626 -1.5026 -0.1852 -0.9381
 4808SOL    HW226484   5.489   5.407   8.700  0.8709  1.1609 -1.9267
 4809SOL     OW26485   3.867   5.369   7.882 -0.1946 -0.5332  0.2730
 4809SOL    HW126486   3.853   5.274   7.909 -0.4566 -0.6986 -0.4261
 4809SOL    HW226487   3.964   5.393   7.891  0.2764 -1.5792 -1.7889
 4810SOL     OW26488   0.356   2.635   3.631  0.1710 -0.3887 -0.0949
 4810SOL    HW126489   0.449   2.673   3.621  0.2566 -0.8593 -1.1720
 4810SOL    HW226490   0.333   2.582   3.550 -1.3492  0.3541 -0.1556
 4811SOL     OW26491   1.731   5.242   8.461  0.3524  0.0518 -0.2322
 4811SOL    HW126492   1.793   5.275   8.533  0.3711  0.8754 -0.6184
 4811SOL    HW226493   1.745   5.144   8.448  2.0570  0.3420 -0.7733
 4812SOL     OW26494   2.985   4.384   9.758 -0.2660  0.1356  0.4315
 4812SOL    HW126495   2.891   4.351   9.758  0.0533 -0.8139 -0.7935
 4812SOL    HW226496   3.047   4.307   9.772  0.3979  0.5136 -0.3935
 4813SOL     OW26497   4.421   8.447   6.114 -0.1679 -0.0830 -0.0618
 4813SOL    HW126498   4.379   8.357   6.105 -2.7142  0.8903  1.6446
 4813SOL    HW226499   4.517   8.437   6.139 -1.1463 -2.3372  3.1004
 4814SOL     OW26500   0.719   8.208   8.282 -0.2922  0.7739 -0.5651
 4814SOL    HW126501   0.648   8.278   8.280  0.6242  1.7022 -0.8874
 4814SOL    HW226502   0.805   8.248   8.313  0.2379 -0.2084 -0.7326
 4815SOL     OW26503   4.134   9.196   2.770 -0.6155  0.9468 -0.6449
 4815SOL    HW126504   4.170   9.221   2.860 -0.6948  1.4579 -0.7553
 4815SOL    HW226505   4.119   9.278   2.716  1.8615  0.4977 -2.0706
 4816SOL     OW26506   3.107   7.196   4.419  0.2333 -0.3963  0.2802
 4816SOL    HW126507   3.112   7.122   4.485  0.6387 -0.6494 -0.0316
 4816SOL    HW226508   3.053   7.168   4.340  2.6348 -1.3577 -1.0906
 4817SOL     OW26509   2.024   9.796   5.676  0.4776  0.3840  0.0556
 4817SOL    HW126510   1.977   9.709   5.685 -2.1690  1.7896  0.3536
 4817SOL    HW226511   2.022   9.825   5.580  0.1594  0.7603  0.1759
 4818SOL     OW26512   0.897   0.840   2.943 -0.1585  0.1224 -0.0045
 4818SOL    HW126513   0.835   0.873   3.015  0.0465  0.7516 -0.1186
 4818SOL    HW226514   0.859   0.864   2.853 -1.4220 -2.3882 -0.1887
 4819SOL     OW26515   5.014   2.716   6.424  0.0626 -0.0441 -0.4256
 4819SOL    HW126516   5.010   2.804   6.473 -0.6028 -0.0199 -0.5171
 4819SOL    HW226517   5.068   2.726   6.341  0.0056  0.2750 -0.4238
 4820SOL     OW26518   0.866   3.317   1.671 -0.5183  0.2098 -0.1148
 4820SOL    HW126519   0.892   3.221   1.666 -0.0988  0.2862  0.5001
 4820SOL    HW226520   0.847   3.352   1.579 -1.9677 -0.8106 -0.2122
 4821SOL     OW26521   3.616   4.848   2.599  0.0353 -0.6255  0.2075
 4821SOL    HW126522   3.581   4.784   2.668 -0.2365 -0.2452  0.4275
 4821SOL    HW226523   3.690   4.805   2.548 -0.9148 -1.5340 -0.4354
 4822SOL     OW26524   9.842   3.350   4.507 -0.1539 -0.0437  0.8399
 4822SOL    HW126525   9.858   3.297   4.424  0.3682 -3.2405  2.9092
 4822SOL    HW226526   9.744   3.353   4.526 -0.3400  1.3081 -0.2337
 4823SOL     OW26527   2.114   2.377   0.374  0.1893 -0.1947  0.5031
 4823SOL    HW126528   2.109   2.366   0.274 -0.9520  2.5857  0.2122
 4823SOL    HW226529   2.023   2.364   0.414  0.7021 -1.6078  1.2328
 4824SOL     OW26530   9.810   3.130   2.256 -0.2345 -0.4137 -0.0973
 4824SOL    HW126531   9.734   3.171   2.206  0.4091 -1.6854 -2.1549
 4824SOL    HW226532   9.782   3.112   2.350 -2.6999 -1.4404 -0.9852
 4825SOL     OW26533   2.077   8.184   0.701 -0.1522  0.6789  0.3602
 4825SOL    HW126534   2.165   8.146   0.675  0.1650 -0.1016  2.4667
 4825SOL    HW226535   2.083   8.284   0.709  0.8510  0.5380  1.5540
 4826SOL     OW26536   3.612   7.791   8.088 -0.0195 -0.4411  0.1493
 4826SOL    HW126537   3.697   7.798   8.035 -0.4611  1.0311 -0.4055
 4826SOL    HW226538   3.549   7.863   8.058 -1.7194 -1.9193  0.1004
 4827SOL     OW26539   6.646   1.484   0.803 -0.2718 -0.3507  0.0659
 4827SOL    HW126540   6.700   1.410   0.765 -0.4271  0.0793 -1.0029
 4827SOL    HW226541   6.648   1.563   0.742  2.0704  1.5107  2.4412
 4828SOL     OW26542   4.509   9.632   9.228  0.1856  0.1875 -0.7608
 4828SOL    HW126543   4.583   9.627   9.160  0.1577  0.5319 -0.8160
 4828SOL    HW226544   4.507   9.547   9.280 -0.0572 -0.2443 -1.4747
 4829SOL     OW26545   4.131   6.542   0.347  0.3914 -0.5968 -0.2240
 4829SOL    HW126546   4.118   6.545   0.248  0.7201  0.2668 -0.2509
 4829SOL    HW226547   4.044   6.520   0.391 -0.0028  0.0618 -0.6581
 4830SOL     OW26548   1.832   9.750   1.548  0.3761  0.3884 -0.5119
 4830SOL    HW126549   1.897   9.701   1.489  0.7972 -0.4334  0.6208
 4830SOL    HW226550   1.876   9.774   1.634 -0.3933  1.1374 -0.3192
 4831SOL     OW26551   1.316   7.652   2.619  0.4636  0.4510 -0.2777
 4831SOL    HW126552   1.216   7.652   2.614  0.5105  2.1559 -1.7382
 4831SOL    HW226553   1.345   7.726   2.680  0.8271 -0.5775  0.8124
 4832SOL     OW26554   0.930   6.799   3.567 -0.7317 -0.2692  0.0836
 4832SOL    HW126555   0.970   6.856   3.639 -1.6128 -1.7870  1.8288
 4832SOL    HW226556   0.831   6.814   3.565 -0.7683 -0.5921 -0.4814
 4833SOL     OW26557   3.730   8.865   7.198 -0.5185 -0.1504 -0.0150
 4833SOL    HW126558   3.739   8.867   7.298  1.1058  0.0126 -0.1540
 4833SOL    HW226559   3.643   8.908   7.172 -0.7645  0.1834  1.3038
 4834SOL     OW26560   9.739   4.730   0.073 -0.0222 -0.4527  0.2859
 4834SOL    HW126561   9.700   4.803   0.130  1.2473 -0.0711  0.6755
 4834SOL    HW226562   9.667   4.666   0.048 -0.9553  0.3760  0.7949
 4835SOL     OW26563   7.089   6.158   1.096  0.1320  0.0624 -0.2483
 4835SOL    HW126564   7.059   6.096   1.023 -0.1587 -0.8005  0.5977
 4835SOL    HW226565   7.143   6.107   1.163 -1.1055  0.4446  1.0825
 4836SOL     OW26566   5.456   3.299   0.167 -0.1106  0.5638 -0.5600
 4836SOL    HW126567   5.454   3.283   0.266  1.3806  0.2840 -0.5575
 4836SOL    HW226568   5.411   3.224   0.120  2.4206 -1.2099 -0.2731
 4837SOL     OW26569   5.580   4.941   9.833 -0.0484  0.1934  0.0605
 4837SOL    HW126570   5.630   4.859   9.861 -0.4855  0.0837  0.5294
 4837SOL    HW226571   5.645   5.014   9.811  0.4665 -1.1042 -3.0107
 4838SOL     OW26572   7.985   1.540   4.078  0.5379 -0.3902  0.0992
 4838SOL    HW126573   8.022   1.619   4.127  1.1511  0.1390 -1.1832
 4838SOL    HW226574   7.987   1.460   4.137  1.6538  0.1458  0.8082
 4839SOL     OW26575   4.271   4.154   9.762 -0.0724  0.1109  0.2554
 4839SOL    HW126576   4.359   4.135   9.806  0.2916  1.2324  0.0360
 4839SOL    HW226577   4.233   4.238   9.800  0.6263  1.5409 -2.1044
 4840SOL     OW26578   0.573   2.492   1.263 -0.4092  0.1623 -0.0382
 4840SOL    HW126579   0.651   2.534   1.310 -0.7858  0.0663  0.6739
 4840SOL    HW226580   0.517   2.564   1.222 -1.2795  0.4071  1.5310
 4841SOL     OW26581   5.972   3.393   1.686  0.3097  0.5114  0.0455
 4841SOL    HW126582   5.872   3.389   1.688  0.3481 -0.9880 -0.0543
 4841SOL    HW226583   6.005   3.369   1.594  0.7801  0.1651  0.2980
 4842SOL     OW26584   2.166   1.956   3.409 -0.3477  0.2298 -0.4669
 4842SOL    HW126585   2.144   2.053   3.415  0.5633  0.4402 -0.5233
 4842SOL    HW226586   2.260   1.945   3.379  0.5497 -0.6547  2.5655
 4843SOL     OW26587   1.239   8.707   2.291 -0.0617 -0.5588 -0.0006
 4843SOL    HW126588   1.279   8.765   2.361  0.8349 -0.9583 -0.1678
 4843SOL    HW226589   1.311   8.655   2.246 -0.6065 -0.2209 -1.3037
 4844SOL     OW26590   2.711   5.530   9.112  0.3582 -0.0179 -0.0336
 4844SOL    HW126591   2.789   5.583   9.077  1.1489 -0.4258  1.0924
 4844SOL    HW226592   2.743   5.443   9.150 -0.8760 -1.1116 -1.4011
 4845SOL     OW26593   7.753   4.286   6.612  0.3091 -0.1471  0.0808
 4845SOL    HW126594   7.659   4.320   6.615 -0.1821 -1.5650  1.1353
 4845SOL    HW226595   7.814   4.355   6.650 -0.3995  0.4414  0.1741
 4846SOL     OW26596   5.916   5.507   8.244 -0.2630  0.2362  0.5625
 4846SOL    HW126597   5.953   5.537   8.332  0.7048 -0.3482  0.3709
 4846SOL    HW226598   5.980   5.532   8.171 -0.1524 -0.9516  0.2402
 4847SOL     OW26599   2.384   8.273   6.144  0.1328 -0.1883 -0.9937
 4847SOL    HW126600   2.312   8.255   6.077 -1.2245  0.7007  0.2010
 4847SOL    HW226601   2.416   8.368   6.134 -0.1146 -0.0330 -0.3671
 4848SOL     OW26602   8.102   3.903   3.284  0.3380  0.6590 -0.0303
 4848SOL    HW126603   8.162   3.863   3.353  1.6118  0.8495 -1.0154
 4848SOL    HW226604   8.051   3.830   3.238  0.5996  0.4131  0.0697
 4849SOL     OW26605   7.725   0.566   4.059 -0.3043 -0.5052  0.0651
 4849SOL    HW126606   7.770   0.546   4.146 -0.7774 -0.6771  0.2734
 4849SOL    HW226607   7.789   0.549   3.983  0.2019 -0.0679  0.3925
 4850SOL     OW26608   3.978   6.491   3.249 -0.2273 -0.3440  0.0698
 4850SOL    HW126609   3.996   6.449   3.160 -1.6029 -0.8333  0.0063
 4850SOL    HW226610   3.997   6.424   3.321 -1.0554 -0.6187  0.0379
 4851SOL     OW26611   5.438   4.648   9.245 -0.1499 -0.1247  0.1128
 4851SOL    HW126612   5.434   4.744   9.217 -1.9600 -0.6883 -1.6822
 4851SOL    HW226613   5.413   4.641   9.342 -1.1877  1.0942 -0.0463
 4852SOL     OW26614   8.746   2.434   9.502  0.0274  0.0648  0.2136
 4852SOL    HW126615   8.844   2.433   9.523  0.4058  1.4935 -1.4136
 4852SOL    HW226616   8.705   2.515   9.543  0.2253  1.3471 -2.0395
 4853SOL     OW26617   2.477   5.473   0.272 -0.2310 -0.3560 -0.5265
 4853SOL    HW126618   2.415   5.407   0.230  0.7055 -0.2681 -2.0927
 4853SOL    HW226619   2.565   5.471   0.225  0.1501  1.2756  0.0750
 4854SOL     OW26620   3.723   8.507   9.241 -0.7622  0.0135  0.1690
 4854SOL    HW126621   3.645   8.562   9.213  1.1121  1.5368 -2.2463
 4854SOL    HW226622   3.746   8.442   9.168  0.1834 -0.4563  0.8770
 4855SOL     OW26623   9.856   0.998   1.809 -0.2405 -0.2493  0.1090
 4855SOL    HW126624   9.899   1.087   1.793 -2.4767  0.9675  0.6415
 4855SOL    HW226625   9.821   0.994   1.903 -4.3144  0.1602 -1.3004
 4856SOL     OW26626   4.177   7.843   3.305  0.3671 -0.6002  0.0453
 4856SOL    HW126627   4.193   7.850   3.207  0.9054 -2.0450  0.0141
 4856SOL    HW226628   4.222   7.918   3.352 -0.3281  0.3972 -0.8555
 4857SOL     OW26629   3.895   3.083   0.085 -0.7954  1.0013  0.4278
 4857SOL    HW126630   3.819   3.090   0.151  0.3502  1.2694  1.7357
 4857SOL    HW226631   3.968   3.027   0.124 -0.3379  0.6935 -0.8584
 4858SOL     OW26632   9.840   8.900   3.676 -0.2094  0.4428 -0.2427
 4858SOL    HW126633   9.799   8.860   3.759 -0.3422 -1.0135 -1.0008
 4858SOL    HW226634   9.825   8.999   3.677 -0.0551  0.4817  1.5642
 4859SOL     OW26635   4.588   4.364   6.617 -0.2748  0.0070 -0.1730
 4859SOL    HW126636   4.501   4.345   6.572 -0.2384 -0.6341  0.0222
 4859SOL    HW226637   4.611   4.289   6.679  1.4374 -0.8394 -1.7827
 4860SOL     OW26638   2.809   1.239   9.756 -0.1806 -0.7216  0.3351
 4860SOL    HW126639   2.802   1.175   9.680 -2.5137 -0.7933  0.5629
 4860SOL    HW226640   2.806   1.333   9.721  0.9580 -0.7465  0.1721
 4861SOL     OW26641   5.476   3.435   2.439 -0.3441  0.4485 -0.0137
 4861SOL    HW126642   5.481   3.457   2.536 -0.4923 -1.2505  0.4049
 4861SOL    HW226643   5.566   3.448   2.397 -0.5449  2.2854  0.0806
 4862SOL     OW26644   0.979   0.615   2.174 -0.3586  0.0115  0.6290
 4862SOL    HW126645   1.071   0.651   2.156 -0.1177 -0.9281 -0.1022
 4862SOL    HW226646   0.913   0.663   2.117 -0.3192  0.6612  1.1243
 4863SOL     OW26647   3.466   6.220   8.225 -0.4845 -0.4990  0.1482
 4863SOL    HW126648   3.496   6.128   8.247 -0.4529 -0.0324  2.1704
 4863SOL    HW226649   3.449   6.271   8.310 -1.1971  1.1205 -0.9353
 4864SOL     OW26650   1.219   1.731   9.508  0.1213 -0.1083  0.5131
 4864SOL    HW126651   1.214   1.632   9.518 -0.1544 -0.0064  1.5031
 4864SOL    HW226652   1.272   1.770   9.584 -0.3790  0.5566  0.5333
 4865SOL     OW26653   7.894   3.765   8.481  0.1242 -0.5227 -0.1314
 4865SOL    HW126654   7.887   3.674   8.521 -0.9422 -0.4153 -0.0765
 4865SOL    HW226655   7.806   3.792   8.442  0.3529  0.6174  0.1211
 4866SOL     OW26656   7.891   9.140   9.826 -0.3320 -0.5303 -0.5585
 4866SOL    HW126657   7.940   9.226   9.812  0.6914 -1.1095 -0.5810
 4866SOL    HW226658   7.915   9.102   9.915 -2.7325  0.4695  0.5706
 4867SOL     OW26659   5.973   3.919   2.648 -0.2355  0.2402 -0.4339
 4867SOL    HW126660   5.873   3.926   2.648 -0.1880  1.8672  3.0931
 4867SOL    HW226661   6.000   3.837   2.699  0.2365 -0.3090 -1.5599
 4868SOL     OW26662   5.740   6.559   2.268 -0.1553 -0.0964 -0.0467
 4868SOL    HW126663   5.711   6.470   2.235  0.9552  0.3472 -2.3385
 4868SOL    HW226664   5.692   6.631   2.217 -0.4925  0.6367  1.2658
 4869SOL     OW26665   1.913   2.599   0.853  0.6014  0.5035 -0.2553
 4869SOL    HW126666   1.933   2.692   0.882 -0.3705  0.4786  0.5388
 4869SOL    HW226667   1.919   2.593   0.753 -0.1113  1.6078 -0.3737
 4870SOL     OW26668   5.437   7.078   1.754  0.4301  0.0472  0.4472
 4870SOL    HW126669   5.536   7.092   1.757  0.4605  0.1420 -0.7437
 4870SOL    HW226670   5.418   6.980   1.741  0.3749  0.0684  0.3653
 4871SOL     OW26671   3.834   1.354   9.579 -0.0461  0.2265 -0.2020
 4871SOL    HW126672   3.922   1.355   9.626 -0.8116  1.6421  1.2432
 4871SOL    HW226673   3.804   1.259   9.567  2.1173 -0.3171 -1.6074
 4872SOL     OW26674   1.816   7.280   2.988 -0.1800  0.3556  0.4587
 4872SOL    HW126675   1.848   7.335   3.066 -0.3024  0.9633  0.0862
 4872SOL    HW226676   1.894   7.260   2.928  0.2032 -1.4250  1.5262
 4873SOL     OW26677   1.208   3.489   8.776  0.0496 -0.9075  0.7792
 4873SOL    HW126678   1.271   3.442   8.714  0.1544 -0.8478  0.8408
 4873SOL    HW226679   1.245   3.487   8.869 -0.5898 -1.8892  1.0251
 4874SOL     OW26680   8.784   4.793   3.289 -0.2456 -0.2553  0.1534
 4874SOL    HW126681   8.753   4.872   3.236  0.7816 -1.0146 -1.6337
 4874SOL    HW226682   8.823   4.824   3.376  0.2612  1.2275 -0.5855
 4875SOL     OW26683   7.614   4.349   4.175  0.1288  0.3342 -0.5172
 4875SOL    HW126684   7.597   4.295   4.257 -0.6169  1.9957  0.4432
 4875SOL    HW226685   7.698   4.401   4.186 -1.6865  3.1364  0.6072
 4876SOL     OW26686   7.064   0.442   3.332  0.2438  0.0197  0.0756
 4876SOL    HW126687   7.133   0.475   3.395 -0.6119 -2.1275  2.1929
 4876SOL    HW226688   7.083   0.347   3.308  0.1056  0.5488 -2.3116
 4877SOL     OW26689   4.350   4.632   7.482  0.0435  0.1117  0.2357
 4877SOL    HW126690   4.286   4.574   7.431  2.2966 -1.6904 -0.6250
 4877SOL    HW226691   4.435   4.583   7.497  1.8796  3.0356 -0.1399
 4878SOL     OW26692   3.508   7.864   3.492  0.1873 -0.2738  0.7024
 4878SOL    HW126693   3.536   7.911   3.576  0.3490 -0.2296  0.6250
 4878SOL    HW226694   3.427   7.909   3.455 -0.0662 -0.4856  1.0001
 4879SOL     OW26695   1.298   0.203   4.109 -0.4303 -0.5161 -0.0143
 4879SOL    HW126696   1.208   0.188   4.148  0.4408 -0.7810  1.9443
 4879SOL    HW226697   1.292   0.269   4.034 -1.6613  2.3929  2.5846
 4880SOL     OW26698   9.072   0.188   4.126  0.3352 -0.0801 -0.1222
 4880SOL    HW126699   9.150   0.240   4.092  0.7265 -1.2287 -0.9875
 4880SOL    HW226700   9.001   0.184   4.055 -0.0551 -0.0002  0.2575
 4881SOL     OW26701   8.632   2.359   1.167  0.1409  0.2922 -0.0342
 4881SOL    HW126702   8.717   2.390   1.209 -0.0653  0.5442  0.2064
 4881SOL    HW226703   8.561   2.350   1.237 -0.7995  2.7994 -0.5892
 4882SOL     OW26704   1.931   2.529   6.711  0.0606  0.0240 -0.2965
 4882SOL    HW126705   1.891   2.518   6.620  0.5742 -0.7616 -0.4297
 4882SOL    HW226706   1.861   2.512   6.780 -0.7129  2.0367 -0.5291
 4883SOL     OW26707   2.317   7.096   4.117  0.6832  0.1862  0.1746
 4883SOL    HW126708   2.399   7.047   4.088  0.7734  0.5440 -0.1816
 4883SOL    HW226709   2.270   7.043   4.187  1.2797  0.0389  0.4662
 4884SOL     OW26710   7.051   3.061   1.201 -0.2981  0.6653  0.0316
 4884SOL    HW126711   7.150   3.071   1.201 -0.3155  0.8212 -0.0984
 4884SOL    HW226712   7.027   2.965   1.183 -0.1660  0.5752  0.3285
 4885SOL     OW26713   0.036   6.888  10.040 -0.6484  0.1686  0.2413
 4885SOL    HW126714  -0.039   6.942  10.079 -0.2620 -0.6106  2.1450
 4885SOL    HW226715   0.024   6.792  10.067  1.4276  0.1473  1.2140
 4886SOL     OW26716   3.937   2.812   6.976  0.1833 -0.2085  0.0087
 4886SOL    HW126717   3.939   2.817   6.876  1.5034  0.0379  0.0356
 4886SOL    HW226718   4.017   2.860   7.013 -0.1529 -0.5360  1.1724
 4887SOL     OW26719   4.460   0.922   0.863  0.2497  0.2903  0.3106
 4887SOL    HW126720   4.380   0.916   0.924 -0.3587 -1.2615 -0.6183
 4887SOL    HW226721   4.532   0.861   0.896  0.7557  1.1032  0.7089
 4888SOL     OW26722   2.976   0.137   1.080  0.2131  0.4056  0.2666
 4888SOL    HW126723   2.978   0.181   1.170 -1.5862  0.3987  0.3365
 4888SOL    HW226724   3.053   0.168   1.026  1.0942  0.7173  1.6796
 4889SOL     OW26725   2.326   9.670   5.572  0.1075 -0.7168 -0.7670
 4889SOL    HW126726   2.301   9.740   5.639  0.5263  0.0628 -1.4297
 4889SOL    HW226727   2.326   9.709   5.481 -0.5164 -1.7965 -1.2419
 4890SOL     OW26728   1.106   1.164   5.354 -0.2767 -0.2584  0.0964
 4890SOL    HW126729   1.200   1.172   5.321  0.4522  2.8235  2.6827
 4890SOL    HW226730   1.043   1.196   5.284  0.8296  0.6483 -0.4967
 4891SOL     OW26731   7.763   7.051   6.613  0.2321 -0.2334  0.6578
 4891SOL    HW126732   7.862   7.057   6.607  0.1515 -0.6763 -1.6367
 4891SOL    HW226733   7.737   6.982   6.680  1.4988 -1.5370 -0.1806
 4892SOL     OW26734   2.062   3.697   3.654 -0.7621  0.1835 -0.0593
 4892SOL    HW126735   2.088   3.752   3.734 -1.4118  0.5003 -0.0636
 4892SOL    HW226736   1.977   3.648   3.673  0.3851 -1.6680  0.3327
 4893SOL     OW26737   0.718   8.917   6.987 -0.0639 -0.6107  0.4825
 4893SOL    HW126738   0.736   8.937   7.083 -0.7298 -0.7044  0.6309
 4893SOL    HW226739   0.781   8.846   6.956  2.2273  1.5853 -0.0273
 4894SOL     OW26740   8.378   6.696   7.639  0.5232  0.7278  0.0123
 4894SOL    HW126741   8.391   6.740   7.550 -0.0812  1.4257  0.2622
 4894SOL    HW226742   8.447   6.729   7.704  2.0274 -1.0467 -0.6420
 4895SOL     OW26743   4.836   8.917   3.063 -0.4173 -0.0601 -0.7655
 4895SOL    HW126744   4.930   8.884   3.056 -0.9936 -1.8562 -0.2120
 4895SOL    HW226745   4.825   8.970   3.147  0.2426  0.6806 -1.1369
 4896SOL     OW26746   1.727   6.538   5.865 -0.4057 -0.3630  0.5165
 4896SOL    HW126747   1.659   6.559   5.935  0.6056  1.3482  0.9976
 4896SOL    HW226748   1.772   6.452   5.888 -0.9037 -0.4144  1.3316
 4897SOL     OW26749   0.869   2.139   1.912  0.5742 -0.0792 -0.0410
 4897SOL    HW126750   0.940   2.204   1.940 -1.3960  1.1907  2.0869
 4897SOL    HW226751   0.833   2.165   1.822  0.4841  1.1996  0.3621
 4898SOL     OW26752   0.969   8.110   2.411 -0.3943 -0.2677  0.1504
 4898SOL    HW126753   0.924   8.162   2.339  0.7430  0.2203 -0.2039
 4898SOL    HW226754   0.900   8.081   2.478 -1.1352  1.1219  0.0081
 4899SOL     OW26755   9.128   3.802   6.484 -0.1554  0.0103  0.5710
 4899SOL    HW126756   9.098   3.880   6.539 -0.1966  0.6298 -0.3139
 4899SOL    HW226757   9.048   3.756   6.445 -0.0240  1.0844 -1.0065
 4900SOL     OW26758   3.330   8.059   1.841  0.4666  0.5359  0.7877
 4900SOL    HW126759   3.335   8.083   1.937 -0.0336  0.6846  0.7809
 4900SOL    HW226760   3.234   8.050   1.814  0.6015  0.5302  0.2967
 4901SOL     OW26761   0.171   1.182   3.611 -0.0621 -0.0099  0.4770
 4901SOL    HW126762   0.214   1.101   3.653  1.4099  1.4711  1.9412
 4901SOL    HW226763   0.082   1.199   3.654 -0.0147 -0.3988  0.7289
 4902SOL     OW26764   3.302   5.615   5.894  0.4286 -0.5120  0.4678
 4902SOL    HW126765   3.306   5.664   5.981 -0.5203  1.1579 -0.4072
 4902SOL    HW226766   3.222   5.646   5.842  1.8320 -0.3312 -1.6530
 4903SOL     OW26767   7.892   9.753   4.132 -0.2063  0.0213  0.3249
 4903SOL    HW126768   7.828   9.688   4.174  0.8439 -1.7467 -0.7641
 4903SOL    HW226769   7.977   9.706   4.110  0.6528  1.8387 -0.3096
 4904SOL     OW26770   8.171   5.155   9.740 -0.1644 -0.1799 -0.3594
 4904SOL    HW126771   8.247   5.214   9.766 -0.7800  0.4747 -0.0347
 4904SOL    HW226772   8.203   5.085   9.676  1.0084 -0.7885  0.8675
 4905SOL     OW26773   0.762   2.970   7.422  0.5813  0.3290 -0.4532
 4905SOL    HW126774   0.758   3.032   7.344  0.7942  1.2350  0.2539
 4905SOL    HW226775   0.754   2.875   7.389 -2.3805  0.8292 -1.2908
 4906SOL     OW26776   3.152   6.483   4.923 -0.0786 -0.6633 -0.3384
 4906SOL    HW126777   3.100   6.557   4.966  2.3722  0.8060  0.2086
 4906SOL    HW226778   3.155   6.404   4.984  0.7724  0.3047  0.8946
 4907SOL     OW26779   4.859   9.993   4.704 -0.1660 -0.6075  0.1823
 4907SOL    HW126780   4.850   9.980   4.605 -0.6432 -0.0974  0.1535
 4907SOL    HW226781   4.778  10.040   4.739  0.3066 -0.1678  0.7020
 4908SOL     OW26782   8.410   2.182   6.742 -0.0223 -0.3791  0.6211
 4908SOL    HW126783   8.423   2.254   6.811 -0.4423 -0.6173  0.9537
 4908SOL    HW226784   8.416   2.093   6.786 -0.7279 -0.5251  0.4318
 4909SOL     OW26785   5.232   1.347   6.116  0.2282 -0.0601  0.5057
 4909SOL    HW126786   5.212   1.335   6.213 -0.7381  0.1637  0.3372
 4909SOL    HW226787   5.236   1.445   6.094 -1.3735 -0.1009 -0.0408
 4910SOL     OW26788   5.373   0.571   1.456  0.3523  0.2777 -0.0355
 4910SOL    HW126789   5.434   0.526   1.522  0.1484 -0.0452 -0.0688
 4910SOL    HW226790   5.429   0.618   1.387  0.5699  1.2049  0.7538
 4911SOL     OW26791   5.129   0.236   9.063 -0.1300  0.4048 -0.5370
 4911SOL    HW126792   5.187   0.189   9.128 -2.7315 -0.3677  1.3094
 4911SOL    HW226793   5.116   0.179   8.982  1.0063  0.2466 -0.6076
 4912SOL     OW26794   7.923   8.238   4.971 -0.1314  0.0931 -0.1988
 4912SOL    HW126795   7.943   8.251   5.068  0.7281  1.8294 -0.5899
 4912SOL    HW226796   7.860   8.161   4.960 -1.0218  0.4978  1.8034
 4913SOL     OW26797   6.724   7.875   3.413 -0.5348 -0.2933 -0.5487
 4913SOL    HW126798   6.794   7.943   3.392 -1.7062  0.9094 -0.6356
 4913SOL    HW226799   6.682   7.843   3.328 -0.7317 -0.3247 -0.4412
 4914SOL     OW26800   6.389   3.189   0.822 -0.1934 -0.4018  0.5193
 4914SOL    HW126801   6.322   3.263   0.832 -0.9945 -0.9224 -0.8562
 4914SOL    HW226802   6.480   3.223   0.845 -0.6320  0.8873  0.3677
 4915SOL     OW26803   4.097   2.153   2.133 -0.4194 -0.3151 -0.1261
 4915SOL    HW126804   4.056   2.070   2.172 -0.4442 -0.7822 -1.1378
 4915SOL    HW226805   4.196   2.140   2.124 -0.3867 -0.1291 -0.0259
 4916SOL     OW26806   7.298   9.852   6.681  0.0593 -0.0428  0.0114
 4916SOL    HW126807   7.209   9.860   6.726  0.0894  0.1216  0.0438
 4916SOL    HW226808   7.296   9.904   6.595  0.3698  0.6146  0.3970
 4917SOL     OW26809   9.348   6.739   6.455 -0.7059  0.1577  0.6243
 4917SOL    HW126810   9.348   6.646   6.491  0.6247  0.8552  2.4397
 4917SOL    HW226811   9.439   6.779   6.464 -1.4618  1.9277  0.5722
 4918SOL     OW26812   7.323   5.646   3.319  0.3421  0.4234 -0.1528
 4918SOL    HW126813   7.329   5.561   3.371  0.1311  0.5153  0.0233
 4918SOL    HW226814   7.406   5.700   3.336  0.4717  0.2557 -0.2588
 4919SOL     OW26815   0.599   0.672   5.658  0.0629  0.2080  0.4598
 4919SOL    HW126816   0.541   0.601   5.698  1.2618 -1.7220 -1.1348
 4919SOL    HW226817   0.544   0.754   5.640 -2.2205 -1.6370 -1.1862
 4920SOL     OW26818   2.497   9.229   0.664  0.2551 -0.6917  0.1979
 4920SOL    HW126819   2.594   9.232   0.689  0.0273 -1.7979  1.2402
 4920SOL    HW226820   2.481   9.292   0.588  1.9176 -0.9671 -0.4147
 4921SOL     OW26821   8.750   2.147   0.380 -0.6599 -0.2814  0.1193
 4921SOL    HW126822   8.846   2.159   0.407 -1.4477 -0.6059  3.1810
 4921SOL    HW226823   8.695   2.125   0.460 -3.7044  2.1353 -1.2086
 4922SOL     OW26824   7.147   0.714   7.779 -0.3969  0.0483 -0.0854
 4922SOL    HW126825   7.201   0.634   7.752 -1.6191 -0.6867 -0.3400
 4922SOL    HW226826   7.157   0.785   7.709 -0.0918 -0.2321 -0.3325
 4923SOL     OW26827   8.927   9.258   5.058 -0.5887  0.2906  0.1228
 4923SOL    HW126828   8.881   9.340   5.091  0.0409  0.9057 -0.5339
 4923SOL    HW226829   8.951   9.200   5.136 -0.1689  1.1774  0.6544
 4924SOL     OW26830   9.870   4.695   0.363 -0.2395  0.9498 -0.0956
 4924SOL    HW126831   9.797   4.753   0.328 -0.8877  0.4560  0.4224
 4924SOL    HW226832   9.929   4.666   0.287  0.3777  2.6672 -0.2832
 4925SOL     OW26833   7.803   4.347   6.920  0.4297 -0.2254 -0.0550
 4925SOL    HW126834   7.733   4.298   6.970  1.0549 -1.4402 -0.3479
 4925SOL    HW226835   7.761   4.409   6.854 -0.3673 -0.0665  0.6046
 4926SOL     OW26836   8.811   2.681   2.918 -0.4176 -0.3410 -0.5292
 4926SOL    HW126837   8.779   2.587   2.925 -0.4824 -0.2973 -0.2035
 4926SOL    HW226838   8.736   2.740   2.889 -0.5733 -0.2787 -0.0181
 4927SOL     OW26839   3.991   9.930   6.582  0.2429 -0.4286 -0.4055
 4927SOL    HW126840   3.893   9.943   6.574  0.2984  0.6156  0.4692
 4927SOL    HW226841   4.009   9.842   6.628 -0.2747 -0.6023 -0.5306
 4928SOL     OW26842   7.901   5.460   0.718  0.2792 -0.0053 -0.6668
 4928SOL    HW126843   7.973   5.444   0.786 -0.8621 -2.3215  0.0631
 4928SOL    HW226844   7.925   5.414   0.633  0.8558  1.3983 -1.2849
 4929SOL     OW26845   2.225   3.093   5.762 -0.4099  0.2739 -0.0620
 4929SOL    HW126846   2.237   3.125   5.668  0.7712  0.4327  0.1349
 4929SOL    HW226847   2.314   3.075   5.803 -0.9930 -1.6913  0.3896
 4930SOL     OW26848   6.577   1.862   5.450 -0.1482 -0.4003  0.7294
 4930SOL    HW126849   6.549   1.771   5.419 -1.1134 -0.3364  1.3649
 4930SOL    HW226850   6.523   1.931   5.402 -0.2288 -0.2162  1.0853
 4931SOL     OW26851   9.843   3.168   6.052 -0.2564 -0.3040 -0.0960
 4931SOL    HW126852   9.916   3.116   6.096 -0.0527 -0.6828 -0.8579
 4931SOL    HW226853   9.789   3.107   5.994  0.4146  0.4386 -1.5561
 4932SOL     OW26854   7.781   4.663   3.598  0.1635 -0.1643 -0.0298
 4932SOL    HW126855   7.832   4.652   3.513  2.2959 -0.7732  1.2897
 4932SOL    HW226856   7.841   4.704   3.667 -1.5694  0.4273  1.1476
 4933SOL     OW26857   3.310   7.881   5.614  0.3940 -0.2096 -0.1030
 4933SOL    HW126858   3.361   7.957   5.574  0.6140 -0.4245 -0.2301
 4933SOL    HW226859   3.371   7.826   5.672  0.4671 -0.8420 -0.7730
 4934SOL     OW26860   7.175   1.819   5.576  0.4106  0.0311  0.2948
 4934SOL    HW126861   7.188   1.736   5.630 -0.5214  0.3655  1.0326
 4934SOL    HW226862   7.242   1.821   5.501  0.5328 -1.2981  0.3705
 4935SOL     OW26863   9.648   0.766   8.639  0.2861  0.1753  0.3178
 4935SOL    HW126864   9.698   0.738   8.557 -1.2271 -1.5859 -0.0211
 4935SOL    HW226865   9.562   0.809   8.612  0.1863  0.3954  0.9802
 4936SOL     OW26866   9.652   4.278   9.883  0.1249  0.2418 -0.1253
 4936SOL    HW126867   9.751   4.288   9.877  0.1392 -0.5296 -1.3994
 4936SOL    HW226868   9.609   4.315   9.800 -0.8755  3.1465  1.6275
 4937SOL     OW26869   9.989   2.922   2.611  0.3242 -0.1371  0.1892
 4937SOL    HW126870  10.067   2.950   2.555 -1.2377 -1.5997 -2.8268
 4937SOL    HW226871   9.907   2.972   2.582 -0.7006 -1.5629  0.5637
 4938SOL     OW26872   0.192   8.032   2.996 -0.0524 -0.1759 -0.1382
 4938SOL    HW126873   0.289   8.046   3.017 -0.5388  0.1026  2.0095
 4938SOL    HW226874   0.150   7.976   3.067 -1.0715 -1.8496 -2.0113
 4939SOL     OW26875   9.480   7.416   8.745  0.0544  0.1606  0.0722
 4939SOL    HW126876   9.556   7.368   8.702 -0.8334  0.3373 -1.7270
 4939SOL    HW226877   9.470   7.385   8.840  1.0160 -1.4031 -0.3288
 4940SOL     OW26878   2.438   8.022   0.240 -0.1327  0.0954  0.7302
 4940SOL    HW126879   2.372   7.977   0.180 -0.0820 -0.8520  1.3696
 4940SOL    HW226880   2.520   7.965   0.249 -0.8351 -0.6309  3.0415
 4941SOL     OW26881   5.579   6.284   2.380  0.1072 -0.5263 -0.6601
 4941SOL    HW126882   5.585   6.206   2.317  0.3134  0.8544 -2.4067
 4941SOL    HW226883   5.493   6.332   2.364  0.0942 -0.2471  0.2343
 4942SOL     OW26884   0.006   7.650   6.127 -0.0247 -0.0362 -0.5113
 4942SOL    HW126885  -0.076   7.706   6.137 -0.8997 -1.4824  0.5873
 4942SOL    HW226886  -0.013   7.573   6.066  0.5676 -0.2540 -0.4263
 4943SOL     OW26887   2.862   6.348   3.960 -0.1656 -0.1909 -0.4359
 4943SOL    HW126888   2.768   6.358   3.928 -0.1994  1.8212  0.1725
 4943SOL    HW226889   2.883   6.422   4.024  1.5149 -1.2020  0.2212
 4944SOL     OW26890   0.625   3.973   9.790 -0.2511 -0.3020 -0.5622
 4944SOL    HW126891   0.709   3.921   9.774  0.2407  1.0087 -2.5309
 4944SOL    HW226892   0.640   4.038   9.865  0.7741  0.4625 -1.4020
 4945SOL     OW26893   2.660   0.872   5.476 -0.1529  0.1528 -0.1418
 4945SOL    HW126894   2.586   0.936   5.460 -0.7565 -0.8496 -1.4400
 4945SOL    HW226895   2.720   0.907   5.549 -0.6097  2.0351 -0.6506
 4946SOL     OW26896   8.256   2.238   0.167 -0.7716  0.4982  0.2706
 4946SOL    HW126897   8.251   2.186   0.252  1.8533 -1.2704 -0.5963
 4946SOL    HW226898   8.336   2.299   0.170 -0.2511 -0.1023 -1.1892
 4947SOL     OW26899   8.265   8.669   7.196 -0.1519 -0.1044  0.5574
 4947SOL    HW126900   8.345   8.644   7.141 -0.2413 -0.8504  0.7671
 4947SOL    HW226901   8.290   8.669   7.293 -0.7781 -1.7497  0.7260
 4948SOL     OW26902   6.724   5.520   2.399  0.5146  0.0344  0.3770
 4948SOL    HW126903   6.725   5.562   2.309  2.5477 -1.1043 -0.1635
 4948SOL    HW226904   6.631   5.520   2.435 -0.7086 -1.3407 -2.6155
 4949SOL     OW26905   5.266   6.368   2.429  0.4131  0.1640  0.1274
 4949SOL    HW126906   5.306   6.449   2.385  0.9279  0.5556  1.2983
 4949SOL    HW226907   5.219   6.396   2.513 -0.8648 -0.5346 -0.3454
 4950SOL     OW26908   1.470   5.345   6.732 -0.2010 -0.7719 -0.1019
 4950SOL    HW126909   1.493   5.256   6.770  2.1599 -0.6936 -1.2339
 4950SOL    HW226910   1.452   5.410   6.806  3.3342 -0.8634  0.9313
 4951SOL     OW26911   4.461   1.782   9.687 -0.5953 -0.0014 -0.0483
 4951SOL    HW126912   4.453   1.793   9.786 -2.1941 -0.2219 -0.1345
 4951SOL    HW226913   4.556   1.763   9.662 -0.4525 -1.5629  1.6121
 4952SOL     OW26914   4.058   9.529   7.320 -0.3958 -0.5646 -0.4035
 4952SOL    HW126915   4.048   9.436   7.357 -0.1507 -0.1918  0.6203
 4952SOL    HW226916   4.088   9.590   7.393 -2.4767  0.7169 -0.6054
 4953SOL     OW26917   3.331   2.141   0.855  0.1007  0.2937  0.3691
 4953SOL    HW126918   3.377   2.054   0.873  1.6879  0.7155 -1.4262
 4953SOL    HW226919   3.234   2.135   0.880  0.3628 -1.7552  0.8981
 4954SOL     OW26920   9.058   8.500   7.024  0.0787 -0.2036  0.4403
 4954SOL    HW126921   9.043   8.582   6.968 -0.8756 -0.4608  0.3131
 4954SOL    HW226922   9.046   8.523   7.121  0.4091 -0.0541  0.4445
 4955SOL     OW26923   2.533   4.930   9.952 -0.3994 -0.7199 -0.1879
 4955SOL    HW126924   2.581   4.957  10.036 -1.4539  1.6811 -0.3190
 4955SOL    HW226925   2.436   4.914   9.973 -0.4526 -1.1355 -0.7579
 4956SOL     OW26926   3.438   5.087   4.622  0.1562  0.8431 -0.1605
 4956SOL    HW126927   3.525   5.072   4.668 -0.3766 -0.9481  0.2889
 4956SOL    HW226928   3.368   5.110   4.690 -0.1852  0.2014 -0.2920
 4957SOL     OW26929   8.851   9.888   6.099 -0.4909 -0.6631 -0.4992
 4957SOL    HW126930   8.795   9.817   6.141 -0.6447 -0.8074 -0.9442
 4957SOL    HW226931   8.837   9.974   6.147 -0.4031 -0.9082 -0.0395
 4958SOL     OW26932   9.116   8.835   4.847  0.2235  0.2555 -0.6272
 4958SOL    HW126933   9.165   8.897   4.786  0.7857 -0.5979 -1.0623
 4958SOL    HW226934   9.038   8.795   4.799  0.1178  0.2939 -0.4873
 4959SOL     OW26935   2.715   7.753   9.569  0.2180  0.2017 -0.6883
 4959SOL    HW126936   2.756   7.836   9.531  0.1581  0.1611 -0.8460
 4959SOL    HW226937   2.632   7.777   9.619  0.4103  0.2795 -0.4078
 4960SOL     OW26938   9.201   4.664   2.305  0.3861  0.8508 -0.6738
 4960SOL    HW126939   9.278   4.632   2.362 -0.5130  0.5838  0.4046
 4960SOL    HW226940   9.203   4.616   2.218  0.4815 -0.4113 -0.0017
 4961SOL     OW26941   7.570   8.703   9.819 -0.6305 -0.1300 -0.5376
 4961SOL    HW126942   7.601   8.740   9.907 -1.2804 -0.5696 -0.1159
 4961SOL    HW226943   7.529   8.777   9.765  0.9368  0.4093 -1.0172
 4962SOL     OW26944   3.710   0.638   0.811 -0.0197 -0.4805 -0.2508
 4962SOL    HW126945   3.788   0.576   0.820 -1.0383 -1.5641  1.4835
 4962SOL    HW226946   3.737   0.729   0.843  1.2883 -0.1544 -2.1834
 4963SOL     OW26947   5.810   7.383   6.911  0.5485 -0.1915  0.0990
 4963SOL    HW126948   5.836   7.478   6.925  0.8504 -0.2755  0.1143
 4963SOL    HW226949   5.747   7.355   6.983  1.0500 -0.2234  0.5321
 4964SOL     OW26950   1.088   9.578   4.814 -0.4522 -0.7012 -0.1759
 4964SOL    HW126951   1.055   9.581   4.908  1.2005  0.3565  0.4010
 4964SOL    HW226952   1.011   9.579   4.751 -1.5515 -0.2865  1.1551
 4965SOL     OW26953   2.721   2.855   8.869 -0.6595  0.4767  0.1196
 4965SOL    HW126954   2.785   2.780   8.846 -0.4096  1.2457 -1.7981
 4965SOL    HW226955   2.632   2.816   8.891  0.0869 -0.5303  1.4843
 4966SOL     OW26956   8.224   9.903   1.010  0.2364 -0.3393  0.0303
 4966SOL    HW126957   8.232   9.912   0.911  0.9970  0.6143  0.1642
 4966SOL    HW226958   8.264   9.816   1.039  0.2334 -0.5112 -0.4728
 4967SOL     OW26959   0.751   0.144   1.507 -0.0391  0.2212 -0.2120
 4967SOL    HW126960   0.735   0.085   1.587 -1.0560 -0.1460 -0.6774
 4967SOL    HW226961   0.773   0.087   1.428  1.0676  0.5941 -0.1786
 4968SOL     OW26962   0.600   5.714   1.130  0.2679  0.4203 -0.4097
 4968SOL    HW126963   0.632   5.786   1.068  1.0081  0.3174 -0.1439
 4968SOL    HW226964   0.606   5.745   1.224 -0.4990  0.4305 -0.3551
 4969SOL     OW26965   0.793   9.554   3.071 -0.3157  0.2451  0.5592
 4969SOL    HW126966   0.814   9.589   2.979 -0.5225 -1.3706 -0.1341
 4969SOL    HW226967   0.697   9.574   3.093 -0.8105 -1.0368 -0.3827
 4970SOL     OW26968   9.369   6.754   1.133 -0.0134 -0.4664  0.3197
 4970SOL    HW126969   9.437   6.828   1.132 -0.5509  0.0324 -1.0628
 4970SOL    HW226970   9.367   6.711   1.042 -0.3714 -1.5680  0.8486
 4971SOL     OW26971   2.803   2.294   6.292 -0.1157 -0.0295  0.3419
 4971SOL    HW126972   2.864   2.285   6.214 -3.5365  1.5276 -2.6247
 4971SOL    HW226973   2.839   2.361   6.356  3.2055 -2.0252  0.6783
 4972SOL     OW26974   9.660   2.251   8.727 -0.3014  0.1795 -0.0878
 4972SOL    HW126975   9.757   2.269   8.742 -0.0421 -0.2535 -1.2242
 4972SOL    HW226976   9.629   2.299   8.646  0.2367 -3.7853 -2.7976
 4973SOL     OW26977   0.129   4.640   5.595  0.1286  0.4962 -0.5066
 4973SOL    HW126978   0.229   4.635   5.601  0.1218  1.4410  0.6096
 4973SOL    HW226979   0.103   4.731   5.564 -0.4764  1.2391  2.0939
 4974SOL     OW26980   1.349   5.904   5.232 -0.3967 -0.4615  0.3999
 4974SOL    HW126981   1.313   5.892   5.325 -1.0052 -0.2353  0.1946
 4974SOL    HW226982   1.438   5.950   5.237 -0.5457 -0.2119  0.8576
 4975SOL     OW26983   3.947   2.832   8.614  0.0192 -0.2948 -0.0750
 4975SOL    HW126984   3.931   2.929   8.597  0.2700 -0.1604  0.4429
 4975SOL    HW226985   3.869   2.792   8.661 -0.6722 -0.6648 -1.5203
 4976SOL     OW26986   4.658   7.752   5.901 -0.0704 -0.6074 -0.0732
 4976SOL    HW126987   4.680   7.739   5.805 -0.1610 -2.3158  0.1260
 4976SOL    HW226988   4.735   7.721   5.957 -0.0557  0.2899  0.4102
 4977SOL     OW26989   8.833   1.825   4.111  0.6726  0.1557  0.2419
 4977SOL    HW126990   8.885   1.810   4.026 -1.6284  2.0542 -1.5759
 4977SOL    HW226991   8.802   1.920   4.114 -0.0478 -0.1277  2.8183
 4978SOL     OW26992   3.875   7.077  10.000 -0.5426 -0.2255 -0.5981
 4978SOL    HW126993   3.852   7.111   9.909 -1.2029 -0.2487 -0.4400
 4978SOL    HW226994   3.969   7.103  10.022 -1.1200  1.7154 -0.3755
 4979SOL     OW26995   2.838   0.186   0.724  0.1358  0.2015  0.0707
 4979SOL    HW126996   2.786   0.206   0.807 -1.1253  0.3825 -0.7592
 4979SOL    HW226997   2.876   0.271   0.688 -0.0908  0.2455 -0.0603
 4980SOL     OW26998   6.056   9.881   6.490  0.3997 -0.8632 -0.3886
 4980SOL    HW126999   6.028   9.973   6.520  0.1362 -0.9429 -0.3917
 4980SOL    HW227000   6.093   9.887   6.397  3.2972 -0.2454  0.7299
 4981SOL     OW27001   9.447   1.473   2.454 -0.0513 -0.4443 -0.1293
 4981SOL    HW127002   9.528   1.487   2.509  0.7220 -2.4962 -0.6841
 4981SOL    HW227003   9.470   1.483   2.357 -0.2339 -1.8353 -0.3387
 4982SOL     OW27004   2.886   4.057   1.058 -0.6894 -0.4492 -0.0205
 4982SOL    HW127005   2.928   4.086   0.972  3.6831 -2.8743  1.1394
 4982SOL    HW227006   2.849   3.964   1.047 -0.3417 -0.6704  0.6277
 4983SOL     OW27007   9.177   4.186   8.045 -0.3486 -0.3028  0.1427
 4983SOL    HW127008   9.171   4.127   7.965  0.4006  0.5693 -0.5548
 4983SOL    HW227009   9.220   4.136   8.120 -2.9256 -1.8243  0.6809
 4984SOL     OW27010   6.592   0.334   5.365  0.2553  0.4519 -0.1065
 4984SOL    HW127011   6.680   0.374   5.340 -0.4086  1.7906 -0.3882
 4984SOL    HW227012   6.521   0.371   5.304 -0.9139  1.4223  1.8100
 4985SOL     OW27013   1.632   4.448   6.800  0.3296  0.0364  0.0527
 4985SOL    HW127014   1.575   4.524   6.767 -1.7900 -1.1592  0.8154
 4985SOL    HW227015   1.631   4.375   6.732  3.0376  0.9789 -1.0479
 4986SOL     OW27016   1.855   3.073   3.293 -0.4640 -0.3663 -0.0967
 4986SOL    HW127017   1.798   3.089   3.374  0.5373  0.4110  0.4688
 4986SOL    HW227018   1.900   3.159   3.267  1.2083 -1.1698  0.0603
 4987SOL     OW27019   7.210   8.675   6.642 -0.0048 -0.1624  0.6009
 4987SOL    HW127020   7.158   8.607   6.591  0.6357 -0.4501  0.3374
 4987SOL    HW227021   7.301   8.686   6.601 -0.2539  1.1623  0.3654
 4988SOL     OW27022   3.610   0.307   6.290 -0.4984  0.0908  0.3595
 4988SOL    HW127023   3.646   0.400   6.296  2.0516 -0.6248 -2.7907
 4988SOL    HW227024   3.544   0.301   6.216 -0.5744 -0.6344  0.4792
 4989SOL     OW27025   3.426   9.292   1.646 -0.2156 -0.0904  0.3689
 4989SOL    HW127026   3.488   9.344   1.589 -0.4642 -0.7897 -0.5494
 4989SOL    HW227027   3.395   9.349   1.722  1.5915  0.2381  0.8821
 4990SOL     OW27028   3.934   5.796   7.667 -0.1850  0.1732 -0.2730
 4990SOL    HW127029   4.021   5.758   7.698 -1.2294 -2.6867 -0.7016
 4990SOL    HW227030   3.858   5.742   7.703 -1.7939  2.1971 -0.4865
 4991SOL     OW27031   7.955   4.311   9.027 -0.1596  0.0209 -0.3547
 4991SOL    HW127032   7.997   4.254   8.957 -3.5746 -1.2145 -1.4655
 4991SOL    HW227033   7.916   4.253   9.098  0.6319  1.1812  1.0680
 4992SOL     OW27034   2.866   1.734   5.262  0.0337  0.5141 -0.5519
 4992SOL    HW127035   2.859   1.641   5.225 -0.6997  0.9444 -1.5059
 4992SOL    HW227036   2.920   1.791   5.200  2.1530  0.2547  0.9766
 4993SOL     OW27037   7.493   8.559   5.773  0.1615 -0.2858 -0.0623
 4993SOL    HW127038   7.487   8.615   5.691 -3.2097 -3.5919 -2.2393
 4993SOL    HW227039   7.588   8.528   5.786  0.9784  1.3597 -1.9223
 4994SOL     OW27040   4.922   5.302   7.997 -0.0441  0.1643 -0.1682
 4994SOL    HW127041   4.944   5.314   7.901  2.4082 -1.2431  0.1860
 4994SOL    HW227042   4.973   5.225   8.034 -1.9266 -0.1295  1.9677
 4995SOL     OW27043   4.729   7.758   6.355  0.0494  0.0812 -0.0350
 4995SOL    HW127044   4.681   7.693   6.295 -0.5645  1.7911 -1.4519
 4995SOL    HW227045   4.666   7.832   6.381  1.2775  1.1679 -0.1040
 4996SOL     OW27046   5.906   4.864   8.299 -0.2656 -0.2546  0.8270
 4996SOL    HW127047   5.899   4.905   8.208 -2.1718  2.4936  2.1230
 4996SOL    HW227048   5.994   4.888   8.340 -0.8171  1.4398  1.0404
 4997SOL     OW27049   1.971   0.684   5.102 -0.0077  0.1918  0.0360
 4997SOL    HW127050   1.877   0.715   5.116 -0.1480  0.1639 -0.8336
 4997SOL    HW227051   1.980   0.642   5.012  0.2461 -2.0678  1.0944
 4998SOL     OW27052   4.879   4.160   8.906  1.1467  0.5239 -0.0513
 4998SOL    HW127053   4.805   4.170   8.972  1.2233 -1.0688  0.2901
 4998SOL    HW227054   4.866   4.225   8.831 -0.0930  0.8749  0.4648
 4999SOL     OW27055   2.233   4.454   1.127 -0.0845  0.0557 -0.0130
 4999SOL    HW127056   2.198   4.510   1.052  1.3731 -0.4843 -1.1178
 4999SOL    HW227057   2.221   4.357   1.106  0.2015 -0.0987  0.5165
 5000SOL     OW27058   2.633   4.812   6.883 -0.2144 -0.2781  0.0846
 5000SOL    HW127059   2.731   4.830   6.869 -0.0943 -0.4507  0.7120
 5000SOL    HW227060   2.613   4.717   6.859 -0.0131 -0.5673  1.0529
 5001SOL     OW27061   0.317   1.091   9.850  0.1618 -0.0521  0.3113
 5001SOL    HW127062   0.308   1.172   9.791  0.1077  0.2576  0.7449
 5001SOL    HW227063   0.226   1.059   9.875  0.1690 -0.7045 -0.4841
 5002SOL     OW27064   3.413   4.952   2.917 -0.4730 -0.1031  0.6329
 5002SOL    HW127065   3.437   5.000   2.832  0.4488 -0.7033  0.5420
 5002SOL    HW227066   3.448   5.004   2.995 -0.1564 -0.2251  0.5743
 5003SOL     OW27067   7.593   1.387   3.194  0.1931 -0.5403  0.1371
 5003SOL    HW127068   7.552   1.336   3.118 -0.3072  0.0709 -0.0059
 5003SOL    HW227069   7.591   1.331   3.277  1.9078 -1.7138 -0.5803
 5004SOL     OW27070   4.068   7.903   1.081  0.7727  0.0656  0.1932
 5004SOL    HW127071   4.112   7.831   1.135 -0.4304 -0.5707  0.3442
 5004SOL    HW227072   3.969   7.889   1.082  0.4488  2.1732  0.9026
 5005SOL     OW27073   1.875   9.226   8.978 -0.0682  0.5824 -0.7316
 5005SOL    HW127074   1.782   9.211   9.013  0.0690 -0.3002 -0.7510
 5005SOL    HW227075   1.889   9.171   8.896  0.2772  1.1669 -1.0692
 5006SOL     OW27076   2.784   3.987   6.401 -0.0462 -0.0898 -0.6379
 5006SOL    HW127077   2.847   3.998   6.478 -0.9581 -0.3797  0.1746
 5006SOL    HW227078   2.725   3.907   6.418  0.8862 -1.2065 -2.4637
 5007SOL     OW27079   2.149   7.048   0.718 -0.2697  0.2518  0.2861
 5007SOL    HW127080   2.173   6.975   0.654  0.1455 -0.2123  0.9793
 5007SOL    HW227081   2.139   7.134   0.667 -2.3128 -0.5807 -0.7775
 5008SOL     OW27082   5.833   4.011   2.337 -0.0810 -0.2379  0.2886
 5008SOL    HW127083   5.846   3.991   2.240  1.0416 -1.3559  0.6581
 5008SOL    HW227084   5.919   3.998   2.386 -0.2721  1.7206  1.2134
 5009SOL     OW27085   6.961   4.437   8.305  0.0467  0.6571  0.6656
 5009SOL    HW127086   6.995   4.480   8.221  0.3942  1.2436  1.1064
 5009SOL    HW227087   6.861   4.432   8.301  0.1973 -1.9632 -1.0644
 5010SOL     OW27088   1.715   6.089   8.586  0.4711 -0.1091 -0.7492
 5010SOL    HW127089   1.702   6.023   8.661 -1.0931  0.3403 -0.6102
 5010SOL    HW227090   1.812   6.105   8.573  0.7914 -0.6232  0.8351
 5011SOL     OW27091   0.287   2.028   1.273  0.2579  0.4611 -0.0147
 5011SOL    HW127092   0.379   1.990   1.262 -0.5013 -0.7903 -2.3631
 5011SOL    HW227093   0.228   1.962   1.319  0.1054  0.5581 -0.0694
 5012SOL     OW27094   8.696   3.499   3.226 -0.0253 -0.0912 -0.2390
 5012SOL    HW127095   8.695   3.492   3.126 -1.4669  0.0398 -0.2511
 5012SOL    HW227096   8.698   3.408   3.266  1.3600 -0.1291 -0.3836
 5013SOL     OW27097   9.192   4.463   9.278 -0.1075  0.1652 -0.2050
 5013SOL    HW127098   9.278   4.415   9.260  0.5683  0.6309  1.7105
 5013SOL    HW227099   9.185   4.541   9.216  0.9584  0.2452 -0.2390
 5014SOL     OW27100   2.762   8.356   0.974 -0.2563 -0.1140 -0.0603
 5014SOL    HW127101   2.670   8.360   0.935  0.3839 -0.3905 -1.6399
 5014SOL    HW227102   2.802   8.266   0.954  0.4826  0.1243  0.3371
 5015SOL     OW27103   0.212   5.849   3.372 -0.1005  0.3785 -0.2732
 5015SOL    HW127104   0.195   5.913   3.297  0.4324  0.8298 -0.0131
 5015SOL    HW227105   0.258   5.897   3.447 -1.1783  0.0756  0.5920
 5016SOL     OW27106   9.633   7.986   4.784 -0.1849  0.5589  0.0442
 5016SOL    HW127107   9.691   8.007   4.705 -0.9046 -1.4713 -1.0675
 5016SOL    HW227108   9.683   7.928   4.848  0.1776  1.6687  0.7657
 5017SOL     OW27109   6.038   0.168   2.129  0.3730  0.0166  0.9681
 5017SOL    HW127110   5.985   0.204   2.205  2.0444  0.1442  2.0854
 5017SOL    HW227111   6.125   0.217   2.122 -0.2007  0.7491 -1.6998
 5018SOL     OW27112   9.113   0.295   5.623  0.0562  0.3078  0.1862
 5018SOL    HW127113   9.171   0.320   5.545  2.2679 -0.6114  1.4805
 5018SOL    HW227114   9.029   0.349   5.621 -0.1718 -0.0639 -3.1120
 5019SOL     OW27115   0.849   6.055   2.358  0.0099 -0.2406  0.2523
 5019SOL    HW127116   0.889   5.983   2.301  0.1490  1.3521 -1.7233
 5019SOL    HW227117   0.803   6.122   2.299 -1.5909  0.3714  2.1835
 5020SOL     OW27118   7.445   5.836   2.393 -0.6702  0.4888 -0.4826
 5020SOL    HW127119   7.388   5.755   2.410  0.6220 -0.4112 -0.4389
 5020SOL    HW227120   7.476   5.873   2.480  0.6357 -0.3319 -0.5890
 5021SOL     OW27121   5.629   9.702   7.496  0.6855  0.4284  0.2338
 5021SOL    HW127122   5.671   9.778   7.546  1.3322 -0.2699  0.7854
 5021SOL    HW227123   5.662   9.615   7.535  1.5415 -0.1334 -1.6777
 5022SOL     OW27124   0.307   0.333   3.881  0.5197 -0.1781 -0.0395
 5022SOL    HW127125   0.297   0.290   3.791 -1.0195  0.3496 -0.1222
 5022SOL    HW227126   0.260   0.421   3.882  1.3024  0.2424  1.0109
 5023SOL     OW27127   0.563   3.769   1.074 -0.5719  0.2273 -0.7907
 5023SOL    HW127128   0.657   3.744   1.095 -0.4360 -0.5440 -2.2360
 5023SOL    HW227129   0.503   3.691   1.091 -0.5215 -0.2699 -2.7338
 5024SOL     OW27130   4.928   9.334   8.743 -0.5851  0.6034 -0.5376
 5024SOL    HW127131   4.963   9.428   8.749 -0.9248  0.6312  1.4319
 5024SOL    HW227132   5.000   9.270   8.770 -1.3727  0.5348  1.5085
 5025SOL     OW27133   2.787   7.186   6.958 -0.3697 -0.0098  0.3253
 5025SOL    HW127134   2.878   7.146   6.967 -0.4885  0.1408  2.5825
 5025SOL    HW227135   2.793   7.273   6.909  0.4578 -0.7460 -0.9212
 5026SOL     OW27136   5.981   8.215   4.291  0.1266  0.1164 -0.0788
 5026SOL    HW127137   6.024   8.125   4.303 -1.6873 -1.0290 -1.8921
 5026SOL    HW227138   6.000   8.248   4.199 -2.0448  0.0349 -0.5690
 5027SOL     OW27139   3.861   4.178   4.961  0.1406 -0.1680 -0.3657
 5027SOL    HW127140   3.882   4.270   4.993 -0.5806  0.0134 -0.3967
 5027SOL    HW227141   3.795   4.135   5.023 -3.6167  1.2922 -3.1145
 5028SOL     OW27142   5.519   5.976   0.997 -0.2069 -0.2374 -0.7334
 5028SOL    HW127143   5.594   6.024   1.043 -0.0791 -0.6617 -0.5032
 5028SOL    HW227144   5.554   5.894   0.953 -1.0165 -1.8999  1.6596
 5029SOL     OW27145   3.059   0.882   5.888  0.0271  0.2843  0.2336
 5029SOL    HW127146   3.070   0.969   5.937  0.1214 -0.1469  0.9970
 5029SOL    HW227147   3.049   0.808   5.955  1.0404 -0.4294 -0.3993
 5030SOL     OW27148   0.215   1.478   9.940 -0.0671 -0.2578 -0.3089
 5030SOL    HW127149   0.233   1.479   9.842  1.0914 -1.7347 -0.1342
 5030SOL    HW227150   0.224   1.571   9.976 -0.5821  0.3104 -1.6038
 5031SOL     OW27151   8.263   2.113   1.599  0.7921  0.2433 -0.3289
 5031SOL    HW127152   8.187   2.094   1.660  0.6682  0.1784 -0.5031
 5031SOL    HW227153   8.231   2.168   1.521  0.7991 -0.3142 -0.7241
 5032SOL     OW27154   8.806   4.717   6.015 -0.3382  0.2594 -0.2459
 5032SOL    HW127155   8.771   4.765   5.934  0.2977  0.8347 -0.1910
 5032SOL    HW227156   8.761   4.752   6.097 -1.0973 -0.4353 -0.3732
 5033SOL     OW27157   4.158   6.217   3.105  0.2232  0.0965  0.6469
 5033SOL    HW127158   4.163   6.315   3.086  2.6798  0.0168  0.6870
 5033SOL    HW227159   4.176   6.201   3.202  1.8290 -0.4931  0.2770
 5034SOL     OW27160   2.035   6.927   6.890  0.8222  0.4610  0.2042
 5034SOL    HW127161   2.026   6.829   6.908  0.1203  0.5528  0.3414
 5034SOL    HW227162   2.054   6.942   6.793  0.5695  0.2144  0.1169
 5035SOL     OW27163   1.894   2.964   2.859  0.2306  0.3539 -0.1987
 5035SOL    HW127164   1.988   2.998   2.867  0.5564 -0.2908 -1.1706
 5035SOL    HW227165   1.891   2.891   2.791 -1.0469  0.6352 -0.4545
 5036SOL     OW27166   8.490   7.635   4.008 -0.4856 -0.5328 -0.0173
 5036SOL    HW127167   8.414   7.583   3.969 -0.6949 -0.4905  0.3242
 5036SOL    HW227168   8.575   7.583   3.998 -0.7829 -1.1903  0.8197
 5037SOL     OW27169   0.662   8.289   5.748 -0.4958 -0.0935  0.1770
 5037SOL    HW127170   0.653   8.221   5.821 -0.3744 -0.4863 -0.1696
 5037SOL    HW227171   0.584   8.351   5.750  0.2755  0.8708  1.6220
 5038SOL     OW27172   3.885   8.396   4.315  0.4381  0.0888 -0.1916
 5038SOL    HW127173   3.889   8.440   4.226  1.7599 -0.5069 -0.4410
 5038SOL    HW227174   3.977   8.391   4.354 -0.0582 -0.0940  0.9889
 5039SOL     OW27175   1.088   4.724   0.989 -0.1157 -0.1842 -0.2570
 5039SOL    HW127176   1.162   4.716   0.923 -1.6325 -0.0583 -1.9875
 5039SOL    HW227177   1.120   4.689   1.078  1.7655 -0.8336 -1.1528
 5040SOL     OW27178   7.425   3.201   9.398 -0.2132  0.3906  0.0255
 5040SOL    HW127179   7.329   3.224   9.385 -0.6551 -1.2350  0.2867
 5040SOL    HW227180   7.467   3.179   9.310 -0.3238  0.1574  0.0324
 5041SOL     OW27181   8.119   1.203   4.658 -0.2489  0.0693 -0.0016
 5041SOL    HW127182   8.151   1.290   4.621 -0.3732  0.2966  0.4222
 5041SOL    HW227183   8.150   1.194   4.752 -0.9090  0.0108  0.2118
 5042SOL     OW27184   8.298   1.831   5.765 -0.4114  0.2027  0.1751
 5042SOL    HW127185   8.350   1.746   5.772  0.3771  0.6708  0.0208
 5042SOL    HW227186   8.200   1.811   5.771 -0.3510 -0.9992 -2.3927
 5043SOL     OW27187   0.270   1.438   5.107  0.3872 -0.8719  0.2132
 5043SOL    HW127188   0.292   1.385   5.024  0.1737  1.3937 -1.3192
 5043SOL    HW227189   0.329   1.518   5.111  0.4779 -1.0355  2.3641
 5044SOL     OW27190   0.140   4.459   7.373 -0.2021  0.1279 -0.1531
 5044SOL    HW127191   0.049   4.498   7.363  0.0483  0.5855 -0.6804
 5044SOL    HW227192   0.150   4.422   7.465 -1.9431 -2.5794 -1.0062
 5045SOL     OW27193   3.776   9.383   7.652 -0.2920 -0.4016 -0.4364
 5045SOL    HW127194   3.868   9.415   7.676 -1.0097  1.1056  0.3561
 5045SOL    HW227195   3.767   9.287   7.676  0.7793 -0.3158  0.3314
 5046SOL     OW27196   8.656   4.286   3.732 -0.3473  0.0182  0.1733
 5046SOL    HW127197   8.633   4.205   3.786  1.2301 -0.7371 -0.2536
 5046SOL    HW227198   8.611   4.280   3.642  0.7594 -0.9986 -0.3201
 5047SOL     OW27199   4.224   4.990   2.106  0.0873  0.4197  0.0814
 5047SOL    HW127200   4.227   5.000   2.206  1.2046 -0.4395  0.1439
 5047SOL    HW227201   4.169   5.064   2.067 -0.0560  0.9742  1.3066
 5048SOL     OW27202   6.749   9.726   4.321  0.0855 -0.2192  0.5591
 5048SOL    HW127203   6.671   9.678   4.361 -0.4830 -0.0889 -0.3643
 5048SOL    HW227204   6.827   9.665   4.316 -0.5200 -0.9471 -0.2611
 5049SOL     OW27205   6.152   4.873   8.387  0.8965 -0.0828 -0.9601
 5049SOL    HW127206   6.192   4.850   8.299  0.8251  0.9412 -1.2692
 5049SOL    HW227207   6.219   4.856   8.459  1.3582  0.1581 -1.3267
 5050SOL     OW27208   8.593   1.873   3.823 -0.3523 -0.5024  0.4813
 5050SOL    HW127209   8.689   1.854   3.843 -0.3207 -1.0447 -0.1816
 5050SOL    HW227210   8.541   1.788   3.823 -0.3676 -0.5095 -1.6486
 5051SOL     OW27211   0.885   2.186   2.898 -0.0732  0.9640 -0.2544
 5051SOL    HW127212   0.831   2.125   2.957 -0.3101  0.3349 -1.1200
 5051SOL    HW227213   0.972   2.207   2.943  1.2621 -2.3112 -1.1697
 5052SOL     OW27214   9.363   7.273   1.288  0.0923  0.4595  0.1399
 5052SOL    HW127215   9.268   7.240   1.294  0.0544  0.3988 -0.7996
 5052SOL    HW227216   9.365   7.371   1.306 -0.0771  0.3549  0.7314
 5053SOL     OW27217   2.556   4.300   8.176 -0.0024  1.2863  0.2913
 5053SOL    HW127218   2.524   4.211   8.209 -0.9943  0.6760 -2.1253
 5053SOL    HW227219   2.649   4.290   8.140  0.1943  1.4062  0.7711
 5054SOL     OW27220   2.749   1.409   7.753 -0.0517 -0.1370 -0.0597
 5054SOL    HW127221   2.675   1.472   7.728 -0.2713 -0.9388 -1.4608
 5054SOL    HW227222   2.799   1.383   7.671 -0.5238 -2.4899  0.3694
 5055SOL     OW27223   4.262   9.464   0.121  0.1684  0.2227  0.4014
 5055SOL    HW127224   4.299   9.532   0.058 -0.0015  0.3697  0.4592
 5055SOL    HW227225   4.209   9.396   0.070  0.0074  0.3592  0.3901
 5056SOL     OW27226   8.783   1.550   7.656  0.1106  0.7453 -0.5425
 5056SOL    HW127227   8.810   1.636   7.612 -0.7114  1.0625 -0.4396
 5056SOL    HW227228   8.802   1.474   7.595 -2.0697  1.2760 -1.9041
 5057SOL     OW27229   8.122   1.789   8.198  0.3938  0.1105  0.6541
 5057SOL    HW127230   8.172   1.822   8.119  1.1346  0.7711  1.3915
 5057SOL    HW227231   8.049   1.726   8.168  0.9901 -0.0414 -0.4906
 5058SOL     OW27232   0.061   1.695   3.786  0.1272 -0.0560  0.0956
 5058SOL    HW127233   0.002   1.760   3.739 -0.6197 -1.1784 -0.5670
 5058SOL    HW227234   0.156   1.724   3.779 -0.1235  0.5573 -0.8393
 5059SOL     OW27235   4.990   0.503   4.855  0.1117 -0.1427  0.3009
 5059SOL    HW127236   5.028   0.449   4.780  3.0026 -0.2719  1.7928
 5059SOL    HW227237   4.963   0.593   4.820  0.9207 -0.3881 -1.0067
 5060SOL     OW27238   1.113   5.163   1.245  0.5990  0.1428 -0.1802
 5060SOL    HW127239   1.088   5.111   1.163  1.7881  0.8122 -0.9853
 5060SOL    HW227240   1.030   5.200   1.287  0.0604  0.7117 -1.7061
 5061SOL     OW27241   3.254   5.706   2.595 -0.4616 -0.1586 -0.4149
 5061SOL    HW127242   3.282   5.777   2.660  4.0819 -1.8962 -0.2894
 5061SOL    HW227243   3.258   5.743   2.502  0.3446  0.2090 -0.2390
 5062SOL     OW27244   3.694   3.788   7.283  0.6034  0.0515 -0.3216
 5062SOL    HW127245   3.660   3.784   7.189 -1.2421 -0.0986  0.3358
 5062SOL    HW227246   3.693   3.883   7.315 -0.0988 -0.0568  0.0025
 5063SOL     OW27247   7.726   2.331   3.924 -0.2383 -0.2313  0.7301
 5063SOL    HW127248   7.738   2.429   3.940  0.3836  0.0317 -1.1814
 5063SOL    HW227249   7.647   2.317   3.864  0.6982 -0.7607 -0.3999
 5064SOL     OW27250   3.909   2.408   3.157 -0.1392 -0.0553 -0.2106
 5064SOL    HW127251   3.987   2.354   3.124 -0.8823 -1.3804  0.1701
 5064SOL    HW227252   3.917   2.502   3.124  1.4411 -0.2676 -0.4623
 5065SOL     OW27253   0.471   4.060   3.037 -0.1516 -0.0244 -0.0732
 5065SOL    HW127254   0.376   4.088   3.055 -0.0316  0.0945  0.3590
 5065SOL    HW227255   0.523   4.140   3.005 -0.7301 -0.5310 -2.3966
 5066SOL     OW27256   4.957   9.671   6.577 -0.2999 -0.2477 -0.0614
 5066SOL    HW127257   4.969   9.600   6.645  0.3100 -1.2889 -1.2290
 5066SOL    HW227258   5.040   9.727   6.571  0.5240 -1.5832 -1.5298
 5067SOL     OW27259   4.434   2.995   9.255  0.2369 -0.1330  0.0317
 5067SOL    HW127260   4.413   2.906   9.294 -2.0109  0.9712  1.4448
 5067SOL    HW227261   4.511   3.036   9.304  1.0117 -1.1015 -0.3610
 5068SOL     OW27262   2.655   6.752   7.470 -0.3582  0.4055  0.0892
 5068SOL    HW127263   2.575   6.726   7.523  0.1479  0.3349  0.8236
 5068SOL    HW227264   2.639   6.840   7.426 -0.7971  0.4371  0.3143
 5069SOL     OW27265   2.265   7.135   5.165 -0.7585  0.3828  0.4693
 5069SOL    HW127266   2.209   7.075   5.223 -0.8550  0.3212  0.3110
 5069SOL    HW227267   2.313   7.080   5.096 -0.3737  0.4130  0.7049
 5070SOL     OW27268   7.936   6.271   2.409  0.3927  0.3721  0.7224
 5070SOL    HW127269   8.032   6.257   2.383  0.3893 -0.5020  1.1755
 5070SOL    HW227270   7.894   6.337   2.346  0.7759 -0.6388 -0.6175
 5071SOL     OW27271   8.132   4.229   5.382 -0.1060  0.1738 -0.0859
 5071SOL    HW127272   8.198   4.171   5.334 -1.0015 -0.4678 -0.5451
 5071SOL    HW227273   8.178   4.277   5.457  1.0497  0.3213 -0.8850
 5072SOL     OW27274   4.657   2.462   8.606  0.2150 -0.1785 -0.1305
 5072SOL    HW127275   4.628   2.503   8.520  0.5524  2.0716  0.7880
 5072SOL    HW227276   4.612   2.374   8.618 -1.5558  0.5007 -1.5604
 5073SOL     OW27277   2.092   1.947   9.738  0.3920  0.1933  0.5499
 5073SOL    HW127278   2.029   1.932   9.815  2.0441 -0.1621  1.8769
 5073SOL    HW227279   2.048   2.005   9.670 -1.1212  0.5376  1.7781
 5074SOL     OW27280   2.521   9.923   1.504  0.5398 -0.0825 -0.3174
 5074SOL    HW127281   2.586   9.973   1.447  2.3638  0.2561  1.9651
 5074SOL    HW227282   2.568   9.847   1.548 -1.3771 -1.7093 -0.9914
 5075SOL     OW27283   8.095   1.459   5.562 -0.0464 -0.3812 -0.2935
 5075SOL    HW127284   8.128   1.389   5.625 -0.8755 -1.5539 -1.1482
 5075SOL    HW227285   7.995   1.460   5.563 -0.0517  0.2206 -0.9002
 5076SOL     OW27286   0.739   3.233   0.241 -0.4970  0.4228  0.3364
 5076SOL    HW127287   0.788   3.297   0.301 -1.4069  0.5052  0.9877
 5076SOL    HW227288   0.720   3.278   0.153 -0.8277  0.9209  0.6654
 5077SOL     OW27289   9.029   2.662   4.224 -0.3224 -0.1330 -0.5894
 5077SOL    HW127290   8.949   2.648   4.166 -0.6687 -1.0577  0.1017
 5077SOL    HW227291   8.999   2.692   4.315 -0.0066 -2.3577  0.2706
 5078SOL     OW27292   8.321   5.265   5.510  0.0559 -0.0356 -0.1013
 5078SOL    HW127293   8.383   5.323   5.457  2.3785 -0.5146  2.0232
 5078SOL    HW227294   8.260   5.323   5.564 -0.0593  0.4355 -0.7278
 5079SOL     OW27295   1.682   4.127   9.353  0.1833  0.3213  0.1358
 5079SOL    HW127296   1.754   4.182   9.310 -1.1856 -0.8535 -3.8215
 5079SOL    HW227297   1.719   4.037   9.377  0.8961  0.9081  1.2862
 5080SOL     OW27298   0.919   1.445   1.261  0.1418 -0.0105 -0.0591
 5080SOL    HW127299   0.943   1.450   1.358  0.2265  0.8581 -0.1181
 5080SOL    HW227300   0.836   1.392   1.249 -0.3552  0.6203  0.5805
 5081SOL     OW27301   8.155   3.740   1.579  0.0631  0.1771 -0.4278
 5081SOL    HW127302   8.120   3.804   1.648  0.2599 -0.2330  0.0606
 5081SOL    HW227303   8.161   3.786   1.491  1.3894  1.2205  0.1817
 5082SOL     OW27304   9.627   3.585   5.899 -0.1437 -0.3665 -0.0826
 5082SOL    HW127305   9.561   3.548   5.965 -0.6665 -0.6634 -0.7636
 5082SOL    HW227306   9.593   3.569   5.806  1.6177 -1.8854 -0.4777
 5083SOL     OW27307   4.705   5.573   7.492  0.2174 -0.1474 -0.1046
 5083SOL    HW127308   4.803   5.582   7.477  0.1022  0.3210 -0.6322
 5083SOL    HW227309   4.687   5.497   7.554  0.9241 -0.1022  0.1633
 5084SOL     OW27310   9.543   1.590   3.497 -0.0643 -0.0275  0.4295
 5084SOL    HW127311   9.562   1.512   3.437  0.5476  0.8138 -0.4961
 5084SOL    HW227312   9.574   1.570   3.589  3.4986  0.5262 -0.5907
 5085SOL     OW27313   9.699   0.243   6.706  0.2946  0.4128  0.2113
 5085SOL    HW127314   9.783   0.211   6.749  0.2575 -0.6929 -0.4941
 5085SOL    HW227315   9.622   0.232   6.769  0.3563 -0.5287  0.1318
 5086SOL     OW27316   1.659   0.244   8.333  0.0599  0.5365 -0.5081
 5086SOL    HW127317   1.579   0.272   8.280 -1.6812 -1.1001  1.1714
 5086SOL    HW227318   1.633   0.234   8.429  2.8668  2.2634  0.4719
 5087SOL     OW27319   3.147   0.091   3.535  0.7359  0.3679  0.3095
 5087SOL    HW127320   3.089   0.011   3.524 -1.1420  1.7780 -0.3882
 5087SOL    HW227321   3.144   0.146   3.452  0.4942  2.1108  1.4398
 5088SOL     OW27322   4.551   7.476   7.091  0.1590  0.1700  0.0645
 5088SOL    HW127323   4.476   7.542   7.090  0.3582  0.4093  0.6362
 5088SOL    HW227324   4.596   7.476   7.002  0.0734  0.7080  0.0183
 5089SOL     OW27325   1.605   7.564   5.916 -0.3204 -0.0531  0.1141
 5089SOL    HW127326   1.584   7.504   5.838  0.6042 -0.1656 -0.0546
 5089SOL    HW227327   1.675   7.522   5.972  0.9842  1.2643 -0.4972
 5090SOL     OW27328   0.486   5.910   5.804  0.3551  0.2036  0.6440
 5090SOL    HW127329   0.391   5.928   5.783  0.4742  1.6715  1.3159
 5090SOL    HW227330   0.544   5.936   5.727  0.1933 -1.0020  0.1074
 5091SOL     OW27331   7.026   6.637   6.161  0.6266 -0.0627 -0.0788
 5091SOL    HW127332   7.103   6.660   6.221 -1.6165  1.1545  2.4084
 5091SOL    HW227333   7.026   6.699   6.082  0.3187  2.1087  1.5949
 5092SOL     OW27334   2.900   1.638   1.999  0.0485 -0.0684  0.1837
 5092SOL    HW127335   2.991   1.603   1.977 -0.2474  0.2467 -1.5827
 5092SOL    HW227336   2.908   1.711   2.067  1.1422  0.2652 -0.3010
 5093SOL     OW27337   3.461   7.363   9.467  0.2373 -0.7932 -0.1562
 5093SOL    HW127338   3.426   7.288   9.522 -0.4151 -0.1151  0.3633
 5093SOL    HW227339   3.385   7.421   9.436  0.9693  1.8037  2.6140
 5094SOL     OW27340   0.480   2.161   7.386  0.0492  0.4559 -0.4693
 5094SOL    HW127341   0.450   2.257   7.386  0.1421  0.4839 -1.7771
 5094SOL    HW227342   0.435   2.112   7.312 -0.8834 -0.8083  0.8938
 5095SOL     OW27343   0.085   8.519   8.717  0.0082 -0.2520  0.1667
 5095SOL    HW127344   0.057   8.433   8.759 -0.3858  0.2212  0.8918
 5095SOL    HW227345   0.140   8.572   8.782 -0.0557  0.1982 -0.1399
 5096SOL     OW27346   3.752   5.191   0.539  0.4981  0.0677  0.1020
 5096SOL    HW127347   3.820   5.265   0.546 -0.2827  0.7334  0.7317
 5096SOL    HW227348   3.737   5.152   0.629  1.9171 -1.7962 -0.4412
 5097SOL     OW27349   1.886   6.858   0.583 -0.3364 -0.8240 -0.0228
 5097SOL    HW127350   1.841   6.931   0.635  0.2056 -0.0120 -0.7113
 5097SOL    HW227351   1.982   6.854   0.608 -0.0243 -0.2798 -1.1519
 5098SOL     OW27352   7.238   0.005   2.666  0.6056 -0.6866  0.4114
 5098SOL    HW127353   7.173   0.056   2.722  1.1372  0.2353  0.1878
 5098SOL    HW227354   7.220  -0.093   2.676 -1.7820 -0.4172 -0.7891
 5099SOL     OW27355   9.000   0.163   1.902  0.3377  0.1862  0.4841
 5099SOL    HW127356   8.921   0.108   1.929 -0.1809  0.2298 -0.8812
 5099SOL    HW227357   9.031   0.135   1.811 -0.0157  2.2128 -0.2978
 5100SOL     OW27358   5.080   2.352   5.712 -0.0333 -0.7704  0.1222
 5100SOL    HW127359   5.055   2.279   5.777  1.2170 -1.2243  0.0911
 5100SOL    HW227360   4.998   2.381   5.663 -0.5605 -2.1276  0.1646
 5101SOL     OW27361   0.578   0.030   1.045 -0.5049  0.3594  0.1147
 5101SOL    HW127362   0.611   0.010   1.138 -0.1261  1.8264  0.3171
 5101SOL    HW227363   0.656   0.053   0.986 -0.5046 -2.7830 -1.1852
 5102SOL     OW27364   7.075   6.540   2.498  0.1105  0.4388 -0.2011
 5102SOL    HW127365   7.063   6.536   2.399 -2.3542  0.0852  0.0860
 5102SOL    HW227366   7.155   6.596   2.519 -0.7854  2.5847 -2.3107
 5103SOL     OW27367   0.055   0.917   8.059  0.7067  0.5484  0.4139
 5103SOL    HW127368   0.041   0.907   7.960 -1.5419  2.2026  0.5050
 5103SOL    HW227369   0.135   0.975   8.076  0.7837  0.7130 -0.4681
 5104SOL     OW27370   7.733   3.755   6.115 -0.4958 -0.3095  0.0674
 5104SOL    HW127371   7.822   3.769   6.072 -1.5417 -0.9992 -2.3927
 5104SOL    HW227372   7.695   3.844   6.142  0.1645  0.1297 -0.4460
 5105SOL     OW27373   9.566   9.282   3.234 -0.2950  0.1693 -0.2034
 5105SOL    HW127374   9.651   9.248   3.276 -0.6695 -0.2955  0.1900
 5105SOL    HW227375   9.565   9.256   3.137 -0.5942 -1.0124  0.1006
 5106SOL     OW27376   7.292   8.430   2.884 -0.0172  0.0811  0.4721
 5106SOL    HW127377   7.227   8.499   2.916  0.0926 -0.1581  1.2105
 5106SOL    HW227378   7.315   8.368   2.959 -0.0338 -0.7011 -0.1666
 5107SOL     OW27379   1.556   0.308   6.327  0.4178  0.0063 -0.2310
 5107SOL    HW127380   1.585   0.222   6.285 -0.4341 -0.3198 -0.1537
 5107SOL    HW227381   1.628   0.376   6.316  1.6649 -1.1052  0.8833
 5108SOL     OW27382   8.501   2.154   8.532 -0.1722  0.6580  0.5109
 5108SOL    HW127383   8.481   2.223   8.462 -0.0238  0.9632  0.7643
 5108SOL    HW227384   8.446   2.072   8.515 -0.8990  1.1114  0.6275
 5109SOL     OW27385   0.657   9.324   3.130 -0.0914 -0.0195  0.0770
 5109SOL    HW127386   0.628   9.291   3.041  0.5953  0.4991 -0.3409
 5109SOL    HW227387   0.746   9.369   3.123  0.7547 -1.4493  1.3232
 5110SOL     OW27388   1.881   4.687   1.140 -0.2773  0.0231 -0.8129
 5110SOL    HW127389   1.909   4.729   1.226 -3.2076 -0.2384  0.3381
 5110SOL    HW227390   1.890   4.753   1.066 -2.2604  1.8651  0.5326
 5111SOL     OW27391   7.277   1.787   8.797 -0.0514  0.0207 -0.0994
 5111SOL    HW127392   7.239   1.739   8.877 -0.9996 -0.8833 -1.0768
 5111SOL    HW227393   7.202   1.823   8.741  0.6509  1.8585  0.1470
 5112SOL     OW27394   2.286   0.776  10.011 -0.6172  0.1668 -0.2429
 5112SOL    HW127395   2.344   0.735   9.940 -1.3668  1.4373 -1.6342
 5112SOL    HW227396   2.252   0.705  10.072  0.4064 -0.9005 -0.8937
 5113SOL     OW27397   4.769   3.480   9.784 -0.2463 -0.2480 -0.2121
 5113SOL    HW127398   4.737   3.565   9.826 -0.8855  0.1057 -1.3833
 5113SOL    HW227399   4.868   3.475   9.788 -0.3388 -0.7070  2.2502
 5114SOL     OW27400   5.756   8.906   6.541  0.1821  0.5538 -0.4246
 5114SOL    HW127401   5.736   8.897   6.639  0.9171 -1.5737 -0.4565
 5114SOL    HW227402   5.687   8.859   6.488  0.6933  0.3026 -0.8680
 5115SOL     OW27403   3.012   8.140   8.453 -0.0327  0.0526  0.1768
 5115SOL    HW127404   2.973   8.078   8.384  1.9163 -1.9039  0.7808
 5115SOL    HW227405   2.944   8.157   8.524 -0.8621 -0.7408 -0.4128
 5116SOL     OW27406   8.899   6.808   7.702  0.3566  0.0899 -0.1386
 5116SOL    HW127407   8.979   6.755   7.673  1.8817  3.1531 -1.7550
 5116SOL    HW227408   8.818   6.776   7.653  1.2336 -0.7994 -1.0159
 5117SOL     OW27409   9.362   2.987   6.847  0.0467 -0.3973 -0.3195
 5117SOL    HW127410   9.423   3.015   6.774  0.9625 -1.4918  0.0102
 5117SOL    HW227411   9.409   2.995   6.935 -1.1954  1.3547  0.2169
 5118SOL     OW27412   5.914   5.356   2.111  0.1099 -0.1215 -0.4356
 5118SOL    HW127413   5.889   5.412   2.032  0.5949 -0.3063 -0.7280
 5118SOL    HW227414   5.931   5.262   2.080  1.7721  0.1427 -0.3497
 5119SOL     OW27415   7.452   4.677   8.030  0.9783  0.2207 -0.2853
 5119SOL    HW127416   7.492   4.586   8.036  0.2553 -0.3150 -2.9357
 5119SOL    HW227417   7.379   4.687   8.097  0.2096 -1.6192 -0.8346
 5120SOL     OW27418   1.603   2.368   9.791  0.4613  0.1238 -0.2940
 5120SOL    HW127419   1.531   2.340   9.854 -0.5145 -0.8501 -1.8187
 5120SOL    HW227420   1.693   2.351   9.833 -0.1749  1.2776  1.5789
 5121SOL     OW27421   7.034   2.453   3.148 -0.5058  0.4070  0.5858
 5121SOL    HW127422   7.109   2.508   3.112 -0.8230  1.2633  1.2194
 5121SOL    HW227423   7.051   2.356   3.128  0.9994  0.5480  1.1529
 5122SOL     OW27424   7.425   7.012   4.410  0.5068 -0.0267  0.4754
 5122SOL    HW127425   7.471   6.933   4.452  0.6261  0.7260  1.7687
 5122SOL    HW227426   7.341   7.031   4.460  0.9674  1.2711  0.7546
 5123SOL     OW27427   8.793   3.620   0.625 -0.0784  0.2913 -0.0535
 5123SOL    HW127428   8.713   3.565   0.645 -0.6466  1.3543  0.6544
 5123SOL    HW227429   8.778   3.672   0.541  1.1272 -1.8823 -1.6781
 5124SOL     OW27430   6.222   8.419   2.844  0.3402  0.4282 -0.2277
 5124SOL    HW127431   6.289   8.391   2.775  0.8817  1.3748 -0.0871
 5124SOL    HW227432   6.265   8.421   2.934 -0.0547  0.3659 -0.0382
 5125SOL     OW27433   4.332   8.960   3.689  0.3224  0.1565 -0.4126
 5125SOL    HW127434   4.271   8.928   3.617 -0.0409 -2.5560  1.0665
 5125SOL    HW227435   4.280   9.012   3.757  0.0296 -0.3174 -0.2743
 5126SOL     OW27436   4.659   5.997  10.063 -0.4935  0.9104  0.2095
 5126SOL    HW127437   4.564   6.007  10.095 -1.0370  1.8344 -1.6269
 5126SOL    HW227438   4.666   6.030   9.969  1.8783  1.7954  0.6683
 5127SOL     OW27439   8.298   2.082   9.703 -0.2387  0.6305  0.4526
 5127SOL    HW127440   8.263   2.082   9.610 -0.7934  0.2621  0.6582
 5127SOL    HW227441   8.309   2.177   9.735 -0.3543  0.7493  0.1320
 5128SOL     OW27442   7.616   7.612   7.035  0.3090 -0.4875 -0.5127
 5128SOL    HW127443   7.644   7.683   6.970  0.7735  0.5450  0.7854
 5128SOL    HW227444   7.690   7.598   7.101 -1.0166  0.0831  1.1287
 5129SOL     OW27445   0.225   6.386   5.441  0.2143 -0.0959  0.1601
 5129SOL    HW127446   0.127   6.395   5.455  0.5696  1.9700  1.5877
 5129SOL    HW227447   0.267   6.344   5.522  0.5024 -1.1082 -0.5028
 5130SOL     OW27448   7.425   4.020   3.650  0.1193 -0.2495 -0.3333
 5130SOL    HW127449   7.358   4.042   3.579 -1.4953  0.5852  1.3634
 5130SOL    HW227450   7.414   4.085   3.726  1.8381 -1.0684  0.6356
 5131SOL     OW27451   8.696   2.945   5.036  0.3251  0.4371 -0.3199
 5131SOL    HW127452   8.740   3.034   5.022  1.4726  0.3933  2.7100
 5131SOL    HW227453   8.605   2.958   5.075  0.1072  0.3056 -0.7801
 5132SOL     OW27454   4.426   0.395   4.973  0.1010 -0.4150 -0.1884
 5132SOL    HW127455   4.526   0.389   4.979  0.0944  0.1366  0.5233
 5132SOL    HW227456   4.394   0.474   5.025 -0.5959  0.2329 -1.5812
 5133SOL     OW27457   1.091   2.962   1.349  0.2640 -0.1300  0.1544
 5133SOL    HW127458   1.189   2.954   1.334 -0.0457 -1.6987 -1.1147
 5133SOL    HW227459   1.046   2.877   1.323 -1.1752 -0.2931  3.0144
 5134SOL     OW27460   9.926   5.162   7.194 -0.2539 -0.2999 -0.7470
 5134SOL    HW127461   9.939   5.175   7.096  1.7060  0.7799 -0.3713
 5134SOL    HW227462   9.934   5.250   7.241  1.0701 -1.1118  0.5972
 5135SOL     OW27463   8.193   8.592   7.943  0.5162 -0.4561  0.6068
 5135SOL    HW127464   8.275   8.556   7.986  2.8750 -0.1343 -3.3825
 5135SOL    HW227465   8.148   8.520   7.890  2.1574  1.0003 -2.8718
 5136SOL     OW27466   9.441   1.034   7.138  0.2255 -0.5712  0.1813
 5136SOL    HW127467   9.370   1.033   7.067  1.8668  1.5446 -1.5525
 5136SOL    HW227468   9.530   1.022   7.095  1.2252  0.5715  1.9064
 5137SOL     OW27469   0.710   3.206   8.240  0.4949  0.5218  0.2174
 5137SOL    HW127470   0.687   3.187   8.145 -0.6661 -0.7162  0.7194
 5137SOL    HW227471   0.806   3.230   8.248  0.8143 -0.2873 -1.1414
 5138SOL     OW27472   6.567   7.941   7.677 -0.3715  0.2357  0.2520
 5138SOL    HW127473   6.618   7.858   7.701  0.2689  0.6431  0.3002
 5138SOL    HW227474   6.602   8.018   7.730 -0.2088  0.7666 -0.6289
 5139SOL     OW27475   2.154   4.584   4.941 -0.0896  0.0788  0.2997
 5139SOL    HW127476   2.251   4.609   4.948  0.7960 -3.0632  0.2593
 5139SOL    HW227477   2.139   4.535   4.855 -1.1509 -1.7522  1.5128
 5140SOL     OW27478   3.647   8.107   5.533 -0.3110  0.2838  0.0322
 5140SOL    HW127479   3.703   8.107   5.450  1.2188  0.7122  1.0433
 5140SOL    HW227480   3.665   8.190   5.586 -1.3947  0.0929  0.7158
 5141SOL     OW27481   3.419   9.268   4.088 -0.7758 -0.1092 -0.4963
 5141SOL    HW127482   3.361   9.189   4.068 -2.4446  0.6800  1.0928
 5141SOL    HW227483   3.484   9.245   4.160 -2.4706  0.4359  1.2768
 5142SOL     OW27484   3.934   2.413   2.750 -0.1326  0.1782  0.1149
 5142SOL    HW127485   3.908   2.506   2.723 -0.3523  0.4623  1.2672
 5142SOL    HW227486   3.858   2.350   2.730 -0.9572  0.6695  1.6000
 5143SOL     OW27487   0.822   9.737   6.678  0.4094 -0.0148  0.5102
 5143SOL    HW127488   0.913   9.777   6.672  1.6159 -2.5082  1.3907
 5143SOL    HW227489   0.821   9.648   6.633 -1.2933 -0.4817  1.4036
 5144SOL     OW27490   7.303   3.847   0.114 -0.0973  0.0456 -0.0728
 5144SOL    HW127491   7.382   3.909   0.113 -0.0446 -0.0360 -0.6853
 5144SOL    HW227492   7.219   3.900   0.107 -0.1056  0.1345  0.5919
 5145SOL     OW27493   2.796   7.213   5.206 -0.4294  0.0648 -0.1074
 5145SOL    HW127494   2.866   7.222   5.276 -1.9606 -0.0939  1.4728
 5145SOL    HW227495   2.753   7.302   5.189 -1.1694 -0.2112  0.3220
 5146SOL     OW27496   8.663   1.671   4.594  0.1446  0.0891  0.2724
 5146SOL    HW127497   8.601   1.658   4.517  0.1451  0.0442  0.2787
 5146SOL    HW227498   8.658   1.766   4.626 -0.5139 -0.1147  0.7844
 5147SOL     OW27499   4.691   1.300   5.663 -0.0403 -0.6496  0.2242
 5147SOL    HW127500   4.779   1.273   5.622 -0.6188 -0.5514 -1.1211
 5147SOL    HW227501   4.658   1.226   5.721  0.1129 -1.3828 -0.6105
 5148SOL     OW27502   7.748   0.270   9.680  0.1866 -0.5939  0.2073
 5148SOL    HW127503   7.777   0.236   9.590 -0.1142 -0.8681  0.2151
 5148SOL    HW227504   7.665   0.324   9.670  2.1863  2.5201 -0.2102
 5149SOL     OW27505   5.060   0.222   4.252 -0.3668  0.6845 -0.4097
 5149SOL    HW127506   5.156   0.196   4.262 -0.3014  0.6787 -1.0849
 5149SOL    HW227507   5.043   0.307   4.301  0.1600  1.1070 -0.9637
 5150SOL     OW27508   3.051   5.392   1.382 -0.1019 -0.6464  0.1528
 5150SOL    HW127509   3.086   5.460   1.446 -0.7086 -1.4681  1.3769
 5150SOL    HW227510   3.083   5.414   1.290 -1.4695  2.1549  0.2572
 5151SOL     OW27511   8.104   8.109   5.259  0.0922 -0.1817  0.1180
 5151SOL    HW127512   8.160   8.171   5.205  1.0450 -1.1752 -0.0467
 5151SOL    HW227513   8.096   8.144   5.353 -1.9086  1.7605 -0.7236
 5152SOL     OW27514   8.798   1.229   6.914  0.5486 -0.0775  0.2308
 5152SOL    HW127515   8.831   1.154   6.858  0.8232 -0.0668  0.3759
 5152SOL    HW227516   8.700   1.218   6.932  0.8948 -1.2065  1.5000
 5153SOL     OW27517   3.431   7.206   7.134  0.5701 -0.0192  0.1615
 5153SOL    HW127518   3.473   7.200   7.224 -0.9143 -1.6337  0.7790
 5153SOL    HW227519   3.399   7.299   7.118  2.1951  0.6409  0.6589
 5154SOL     OW27520   0.542   9.085   3.175  0.7117  0.4953  0.6254
 5154SOL    HW127521   0.575   9.179   3.162  1.5240  0.2911  1.2021
 5154SOL    HW227522   0.596   9.040   3.246 -0.3161 -0.0943  1.0355
 5155SOL     OW27523   7.777   6.168   0.802  0.3291 -0.6125  0.3365
 5155SOL    HW127524   7.845   6.165   0.728  1.3289 -1.3100  1.2526
 5155SOL    HW227525   7.703   6.104   0.781  0.7091 -0.9585  0.0299
 5156SOL     OW27526   7.203   5.876   2.241 -0.5408  1.1553  0.0279
 5156SOL    HW127527   7.232   5.834   2.155  0.4315 -1.9436  1.7552
 5156SOL    HW227528   7.284   5.910   2.289  0.0651 -3.9945  3.0771
 5157SOL     OW27529   7.578   1.917   1.354  0.2850 -0.7567  0.0632
 5157SOL    HW127530   7.527   1.935   1.270  0.9861  1.0821  0.0010
 5157SOL    HW227531   7.628   1.831   1.345  1.5866  0.1876 -2.0104
 5158SOL     OW27532   3.013   3.858   3.206  0.1128  0.0303  0.0013
 5158SOL    HW127533   2.923   3.869   3.249 -0.8429  0.4385 -2.0495
 5158SOL    HW227534   3.085   3.878   3.273 -1.3039 -0.4833  1.7185
 5159SOL     OW27535   9.988   1.403   5.742  0.5459 -0.3748 -0.0135
 5159SOL    HW127536   9.943   1.426   5.656  1.7570  3.1407  0.2019
 5159SOL    HW227537   9.924   1.414   5.817  0.8473  1.4995 -0.0110
 5160SOL     OW27538   7.553   8.642   6.649 -0.0111 -0.0792 -0.6762
 5160SOL    HW127539   7.582   8.596   6.733 -0.2638 -0.6505 -0.8983
 5160SOL    HW227540   7.614   8.616   6.574  0.9482  1.3634 -0.4286
 5161SOL     OW27541   2.091   8.395   3.649  0.0393 -0.3488 -0.3862
 5161SOL    HW127542   2.086   8.419   3.746 -0.6211  0.2172 -0.5613
 5161SOL    HW227543   2.157   8.454   3.603 -0.6698  0.3201 -0.5610
 5162SOL     OW27544   6.004   0.639   3.586  0.2554  0.0017  0.2370
 5162SOL    HW127545   5.937   0.666   3.655 -1.5622  1.9390 -2.2064
 5162SOL    HW227546   6.086   0.695   3.596 -0.3296  0.8552  0.2930
 5163SOL     OW27547   8.526   5.046   4.930 -0.1299 -0.2372  0.4419
 5163SOL    HW127548   8.589   5.011   4.999  0.1651  1.0946  0.8542
 5163SOL    HW227549   8.469   5.117   4.970  1.3093  1.8777 -1.1481
 5164SOL     OW27550   0.693   9.233   0.620  0.0934  0.4119 -0.0488
 5164SOL    HW127551   0.691   9.139   0.587 -0.0706  0.6242 -0.6599
 5164SOL    HW227552   0.697   9.295   0.542 -0.7737  0.9428  0.3234
 5165SOL     OW27553   3.139   4.728   7.797  0.1841 -0.0463 -0.3632
 5165SOL    HW127554   3.194   4.808   7.822  0.2957  0.1372 -1.1703
 5165SOL    HW227555   3.059   4.722   7.857  2.1616 -1.5282  2.2323
 5166SOL     OW27556   4.343   9.664   2.285 -0.4120 -0.4585  0.0499
 5166SOL    HW127557   4.334   9.618   2.373  0.1619 -0.4110  0.1311
 5166SOL    HW227558   4.326   9.762   2.297  0.3715 -0.3463  0.2323
 5167SOL     OW27559   6.884   2.497  10.033  0.4995 -0.0730  0.1543
 5167SOL    HW127560   6.874   2.412  10.086  1.5166  0.7758  1.7678
 5167SOL    HW227561   6.972   2.495   9.984  1.4754  0.8878  1.8202
 5168SOL     OW27562   3.993   2.254   3.844 -0.0842 -0.3330 -0.0033
 5168SOL    HW127563   4.087   2.287   3.849 -0.6170  1.0371  1.2952
 5168SOL    HW227564   3.977   2.213   3.754  2.5309 -3.1023  0.7399
 5169SOL     OW27565   6.106   6.283   1.099  0.6064 -0.4533  0.1228
 5169SOL    HW127566   6.055   6.368   1.093 -1.1431 -1.3505  1.7465
 5169SOL    HW227567   6.141   6.259   1.008 -2.5329 -0.1968 -1.2261
 5170SOL     OW27568   8.583   8.835   3.838 -0.1553 -0.0913 -0.4977
 5170SOL    HW127569   8.572   8.934   3.832 -2.0482 -0.1711  1.0545
 5170SOL    HW227570   8.552   8.793   3.752 -0.1529  0.5993 -0.8410
 5171SOL     OW27571   1.658   1.410   5.626 -0.0466 -0.0743 -0.0905
 5171SOL    HW127572   1.709   1.407   5.712 -0.8222 -0.5732  0.3511
 5171SOL    HW227573   1.599   1.330   5.618  0.4633 -0.3376 -1.3654
 5172SOL     OW27574   4.317   1.075   7.234  0.1216 -0.5277  0.7352
 5172SOL    HW127575   4.302   1.136   7.311  0.8502 -0.1609  0.5917
 5172SOL    HW227576   4.409   1.037   7.240  0.1248 -0.6134  0.1259
 5173SOL     OW27577   8.255   8.300   0.127  0.4412 -0.0079 -0.0233
 5173SOL    HW127578   8.260   8.384   0.073 -0.0178 -0.3324 -0.5874
 5173SOL    HW227579   8.168   8.298   0.177 -0.2703 -0.8800 -1.2674
 5174SOL     OW27580   3.719   2.838   0.965  0.3268  0.2449  0.2704
 5174SOL    HW127581   3.661   2.757   0.955  0.8659  0.1857 -3.1594
 5174SOL    HW227582   3.813   2.809   0.987  0.4630 -0.0663 -0.6958
 5175SOL     OW27583   7.246   0.324   8.978  0.0802 -0.2309 -0.5019
 5175SOL    HW127584   7.259   0.229   9.006  0.7710 -0.5248 -1.7670
 5175SOL    HW227585   7.177   0.329   8.907  1.0223  0.0335 -1.4154
 5176SOL     OW27586   0.458   4.921   7.088 -0.0655 -0.2624  0.0771
 5176SOL    HW127587   0.377   4.862   7.081  2.2514 -3.3140 -1.7612
 5176SOL    HW227588   0.510   4.917   7.003  3.2157 -0.0945  1.9958
 5177SOL     OW27589   4.775   7.223   5.415  0.0948 -0.1377 -0.2481
 5177SOL    HW127590   4.721   7.147   5.449  2.0032 -1.5907 -0.3928
 5177SOL    HW227591   4.718   7.280   5.355 -1.4990 -1.1263  0.3028
 5178SOL     OW27592   7.459   5.382   8.259 -0.4552 -0.1759  0.0262
 5178SOL    HW127593   7.375   5.364   8.311  0.6959 -0.7233  1.7166
 5178SOL    HW227594   7.488   5.476   8.276 -0.0852 -0.3521  0.3775
 5179SOL     OW27595   1.436   7.564   8.705  0.3549  0.6789  0.6262
 5179SOL    HW127596   1.464   7.659   8.719  0.4914  0.5392  1.3145
 5179SOL    HW227597   1.382   7.557   8.621  1.5699  1.1231 -0.2122
 5180SOL     OW27598   9.414   1.696   0.279 -0.1291 -0.4164 -0.3408
 5180SOL    HW127599   9.501   1.647   0.276  0.3212  0.3926 -0.5821
 5180SOL    HW227600   9.360   1.664   0.357  0.7243 -0.3462  0.2859
 5181SOL     OW27601   3.409   4.108   4.397 -0.2907  0.1284  0.0273
 5181SOL    HW127602   3.475   4.179   4.420 -1.4280  1.1743  0.1571
 5181SOL    HW227603   3.373   4.125   4.305  0.1190 -0.8246 -0.3173
 5182SOL     OW27604   5.616   7.949   5.867 -0.3826  0.8132  0.6014
 5182SOL    HW127605   5.545   7.887   5.899  0.9769 -0.0018  2.1406
 5182SOL    HW227606   5.586   7.994   5.783 -1.9527 -0.8914  0.2153
 5183SOL     OW27607   6.735   7.226   4.472  0.1495 -0.1609 -0.0658
 5183SOL    HW127608   6.644   7.224   4.512 -0.2049  1.2112 -0.7746
 5183SOL    HW227609   6.777   7.315   4.489 -0.2174  0.6572 -3.1151
 5184SOL     OW27610   6.229   0.001   7.220  0.2298 -0.1185  0.2241
 5184SOL    HW127611   6.207  -0.048   7.304 -0.4922 -1.2831 -0.6225
 5184SOL    HW227612   6.177  -0.039   7.144 -0.0578  1.7099 -0.5498
 5185SOL     OW27613   1.140   4.469   5.615 -0.0109 -0.0340 -0.0947
 5185SOL    HW127614   1.105   4.561   5.594  1.1769  0.4664  0.1110
 5185SOL    HW227615   1.201   4.474   5.693  0.0082 -1.0229 -0.0468
 5186SOL     OW27616   3.688   7.492   6.854  0.5120 -0.3080  0.4586
 5186SOL    HW127617   3.677   7.467   6.757  0.6687 -1.3769  0.7150
 5186SOL    HW227618   3.732   7.417   6.903  1.6712  0.7629  1.0875
 5187SOL     OW27619   3.563   2.780   8.823  0.0192  0.4399 -0.2357
 5187SOL    HW127620   3.503   2.814   8.896  0.3053  0.2564  0.0913
 5187SOL    HW227621   3.658   2.793   8.852  0.1318  0.2494 -0.5295
 5188SOL     OW27622   1.051   9.486   5.474  0.3390  0.7688  0.0673
 5188SOL    HW127623   1.111   9.410   5.496 -0.6423 -0.3680 -1.1308
 5188SOL    HW227624   1.102   9.557   5.427  1.2855  0.9185  1.2976
 5189SOL     OW27625   2.071   9.448   0.829 -0.2706 -0.2113 -0.5416
 5189SOL    HW127626   2.015   9.370   0.856  0.9380 -1.4785 -1.5825
 5189SOL    HW227627   2.016   9.512   0.776 -1.0895 -0.7522 -0.3544
 5190SOL     OW27628   4.439   2.344   7.586  0.5661  0.2324  0.2739
 5190SOL    HW127629   4.480   2.434   7.602  1.7812 -0.2605 -0.0433
 5190SOL    HW227630   4.436   2.325   7.488 -0.1999  0.1605  0.3090
 5191SOL     OW27631   0.796   0.355   4.139  0.1378 -0.2774 -0.3987
 5191SOL    HW127632   0.779   0.285   4.069  1.3904 -1.1814  0.1803
 5191SOL    HW227633   0.866   0.418   4.106  0.4143 -0.4479 -0.1398
 5192SOL     OW27634   5.920   9.011   3.801 -0.0686 -0.2308  0.2510
 5192SOL    HW127635   6.001   9.070   3.796 -0.7774  0.6868 -0.6917
 5192SOL    HW227636   5.945   8.918   3.773  0.6934  0.0106  0.1155
 5193SOL     OW27637   0.775   7.350   1.503  0.3749 -0.1921 -0.4420
 5193SOL    HW127638   0.853   7.309   1.457 -0.3881 -1.3379 -0.7318
 5193SOL    HW227639   0.728   7.412   1.440 -0.0153 -0.9072 -0.8626
 5194SOL     OW27640   8.701   9.751   4.640  0.3343 -0.1550 -0.1149
 5194SOL    HW127641   8.620   9.808   4.654 -0.2755 -0.8844 -0.5968
 5194SOL    HW227642   8.783   9.808   4.641 -0.2557  0.7108 -0.4954
 5195SOL     OW27643   5.019   6.952   3.948  0.0714 -0.0737 -0.1686
 5195SOL    HW127644   4.989   6.858   3.964 -0.4654  0.2003  0.4874
 5195SOL    HW227645   4.942   7.006   3.915  0.1845  0.3251  0.2194
 5196SOL     OW27646   5.958   9.700   5.713 -0.3101 -0.1214  0.1906
 5196SOL    HW127647   5.890   9.695   5.639  0.6542 -0.2997 -0.6898
 5196SOL    HW227648   5.938   9.779   5.771 -3.3442 -2.1093  1.9943
 5197SOL     OW27649   9.682   5.171   4.528  0.3753 -0.5360  0.1790
 5197SOL    HW127650   9.698   5.118   4.612 -0.4787  0.6061  1.0736
 5197SOL    HW227651   9.620   5.121   4.468 -0.3421 -0.6192  0.9742
 5198SOL     OW27652   9.389   9.372   7.297 -0.2310  0.2433  0.0658
 5198SOL    HW127653   9.418   9.468   7.307  0.5642 -0.0881  1.0517
 5198SOL    HW227654   9.305   9.358   7.350  0.6317 -0.0258  1.3833
 5199SOL     OW27655   4.957   3.461   5.378 -0.3854  0.6445 -0.4052
 5199SOL    HW127656   4.931   3.408   5.459  0.9229 -0.8542 -0.9317
 5199SOL    HW227657   4.896   3.437   5.302 -0.5704  0.8186 -0.3126
 5200SOL     OW27658   8.156   2.018   3.482  0.2705  0.2959  0.2118
 5200SOL    HW127659   8.186   2.073   3.559 -0.0480  1.0998 -0.2335
 5200SOL    HW227660   8.063   1.984   3.499  0.4781 -0.1374  0.4986
 5201SOL     OW27661   4.656   4.121   2.848  0.4368 -0.0129  0.1018
 5201SOL    HW127662   4.736   4.136   2.791 -0.6576 -1.4026 -1.8366
 5201SOL    HW227663   4.614   4.210   2.869  2.1580  0.6845  0.7171
 5202SOL     OW27664   0.766   2.495   6.516 -0.0503  0.9739 -0.1639
 5202SOL    HW127665   0.767   2.482   6.615 -1.0930 -1.5982 -0.4643
 5202SOL    HW227666   0.855   2.531   6.486  1.4685 -1.4638  1.2934
 5203SOL     OW27667   2.059   8.832   0.741  0.0528  0.2406  0.1178
 5203SOL    HW127668   1.998   8.907   0.716 -0.8259 -0.9095 -1.2769
 5203SOL    HW227669   2.117   8.860   0.817 -0.3844  2.2653 -0.2728
 5204SOL     OW27670   5.344   9.522   8.646 -0.3111 -0.2663 -0.5483
 5204SOL    HW127671   5.275   9.524   8.717 -0.4889 -1.2057 -0.6967
 5204SOL    HW227672   5.425   9.574   8.676 -1.2296  1.2029 -0.5478
 5205SOL     OW27673   8.392   2.368   8.351  0.4372  0.5728 -0.1230
 5205SOL    HW127674   8.381   2.302   8.276 -0.2573  1.5351 -0.8946
 5205SOL    HW227675   8.305   2.414   8.367  0.3365 -0.3217  1.9584
 5206SOL     OW27676   4.859   1.501   9.731  0.0214  0.2011  0.1353
 5206SOL    HW127677   4.902   1.591   9.743 -2.1940  1.2327  0.5730
 5206SOL    HW227678   4.894   1.438   9.801  3.0097  0.1305 -1.3371
 5207SOL     OW27679   2.324   9.283   8.757  0.0666 -0.3376 -0.1714
 5207SOL    HW127680   2.368   9.209   8.706  2.1671  0.5137  0.3714
 5207SOL    HW227681   2.320   9.260   8.854 -2.3296 -1.1758 -0.4285
 5208SOL     OW27682   1.484   2.623   6.582  1.2810  0.0031 -0.4428
 5208SOL    HW127683   1.520   2.602   6.673  3.4040  4.1093 -0.2260
 5208SOL    HW227684   1.558   2.625   6.516  0.5464  2.2695 -1.2339
 5209SOL     OW27685   9.144   5.670   9.547  0.3354 -0.0105 -0.4957
 5209SOL    HW127686   9.199   5.658   9.630  1.2288 -0.8214 -1.1869
 5209SOL    HW227687   9.047   5.669   9.571  0.6009  0.8011  0.6615
 5210SOL     OW27688   4.738   1.999   9.224  0.0010  0.0063 -0.0148
 5210SOL    HW127689   4.779   2.078   9.270 -0.4282  1.2014 -1.6578
 5210SOL    HW227690   4.662   1.964   9.279  0.3729  0.5502  0.8531
 5211SOL     OW27691   3.484   5.932   4.048  0.6202 -0.1444 -0.0581
 5211SOL    HW127692   3.437   6.016   4.020  1.1373  0.3912  0.6513
 5211SOL    HW227693   3.551   5.906   3.978  0.8911  0.3833  0.0027
 5212SOL     OW27694   7.385   0.756   3.129 -0.3616 -0.3009  0.0147
 5212SOL    HW127695   7.426   0.812   3.057 -1.3215 -1.2086 -1.2608
 5212SOL    HW227696   7.398   0.801   3.217  0.8163  0.8381 -0.7176
 5213SOL     OW27697   5.958   2.390   5.326 -0.0006  0.3043 -0.2325
 5213SOL    HW127698   6.015   2.439   5.392 -0.7444  0.0650  0.6088
 5213SOL    HW227699   6.012   2.317   5.283  0.9655  1.5388 -1.1318
 5214SOL     OW27700   2.726   2.502   1.639  0.1312  0.1989  0.3673
 5214SOL    HW127701   2.741   2.577   1.702 -0.7024  2.0985 -1.6273
 5214SOL    HW227702   2.628   2.489   1.624  0.3077 -0.3547 -0.3756
 5215SOL     OW27703   7.876   5.599   2.641 -0.7774  0.2207  0.0801
 5215SOL    HW127704   7.812   5.561   2.574  0.0081 -0.1106 -0.4875
 5215SOL    HW227705   7.918   5.682   2.604 -1.3388  0.7861  0.7000
 5216SOL     OW27706   8.486   5.051   2.621 -0.0043 -0.5202  0.1177
 5216SOL    HW127707   8.567   4.993   2.627  1.3532  1.3895  0.4171
 5216SOL    HW227708   8.480   5.091   2.530  0.6678  1.1537  0.7930
 5217SOL     OW27709   8.480   2.367   6.926 -0.2192  0.3753 -0.3189
 5217SOL    HW127710   8.504   2.463   6.912 -0.9149  0.6682  0.4398
 5217SOL    HW227711   8.559   2.318   6.963  0.0532  0.7198 -0.4409
 5218SOL     OW27712   8.568   9.889   0.907  0.2570 -0.3435  0.7146
 5218SOL    HW127713   8.623   9.971   0.925  2.6753 -2.0193  1.1711
 5218SOL    HW227714   8.484   9.915   0.860  0.8346  2.4365  1.1501
 5219SOL     OW27715   0.287   8.002   4.577  0.5469 -0.0313 -0.0592
 5219SOL    HW127716   0.378   8.036   4.553  0.5000 -0.2084 -0.4871
 5219SOL    HW227717   0.275   8.005   4.677  1.0029  0.0382 -0.0073
 5220SOL     OW27718   7.576   6.134   3.611 -0.1858 -0.8230  0.0175
 5220SOL    HW127719   7.593   6.124   3.513  0.8781  0.7387  0.0317
 5220SOL    HW227720   7.602   6.050   3.659 -0.5431 -1.5205 -1.0095
 5221SOL     OW27721   8.247   2.415   0.421 -0.9492 -0.0717 -0.0712
 5221SOL    HW127722   8.315   2.450   0.358 -1.7696  0.0493 -0.9003
 5221SOL    HW227723   8.243   2.315   0.415 -1.0033 -0.0624 -0.1955
 5222SOL     OW27724   2.546   4.413   3.424 -0.0840  0.2878 -0.3978
 5222SOL    HW127725   2.573   4.353   3.349  1.7110  0.2334  0.2642
 5222SOL    HW227726   2.613   4.486   3.435 -1.1345  1.1834  0.1711
 5223SOL     OW27727   0.294   9.152   2.117 -0.0195 -0.1954 -0.4093
 5223SOL    HW127728   0.233   9.095   2.061 -0.2314 -1.5285  1.1095
 5223SOL    HW227729   0.373   9.098   2.145  0.5869  0.7571 -0.2671
 5224SOL     OW27730   2.458   3.684   3.656  0.0598  0.3955 -0.1194
 5224SOL    HW127731   2.388   3.643   3.597  0.8413 -0.7655 -0.2547
 5224SOL    HW227732   2.459   3.783   3.643 -2.2527  0.5641  0.6148
 5225SOL     OW27733   9.963   2.307   1.829  0.6509  0.1471 -0.4554
 5225SOL    HW127734  10.052   2.327   1.869  0.0866  0.1258  0.8484
 5225SOL    HW227735   9.953   2.208   1.818 -0.7385 -0.1974  3.1493
 5226SOL     OW27736   0.643   1.186   8.656  0.5886 -0.4631 -0.0053
 5226SOL    HW127737   0.686   1.247   8.589 -2.3226  1.9687  0.1909
 5226SOL    HW227738   0.564   1.141   8.614  1.3161 -2.3009  0.5582
 5227SOL     OW27739   8.829   0.048   0.742  0.4288 -0.3070 -0.0606
 5227SOL    HW127740   8.798   0.143   0.752 -2.6413 -1.0234 -2.0113
 5227SOL    HW227741   8.884   0.039   0.659  0.8656 -0.1862  0.2183
 5228SOL     OW27742   3.915   8.678   5.594 -0.0297 -0.6574  0.5606
 5228SOL    HW127743   3.844   8.732   5.550  0.7976  0.5732  0.7205
 5228SOL    HW227744   3.884   8.649   5.684 -0.0664  0.4754  0.9207
 5229SOL     OW27745   5.106   7.314   4.136 -0.0980  0.0413 -0.1100
 5229SOL    HW127746   5.060   7.315   4.224  0.2102 -0.7287  0.0662
 5229SOL    HW227747   5.136   7.220   4.115 -1.7014 -0.1157 -1.8153
 5230SOL     OW27748   8.066   0.597   3.639 -0.0607  0.4493  0.1033
 5230SOL    HW127749   8.102   0.507   3.612 -1.3129 -0.7277  2.1829
 5230SOL    HW227750   7.972   0.607   3.605  0.2666  1.2063 -0.5904
 5231SOL     OW27751   2.014   1.115   2.961  0.3691 -0.0959  0.0416
 5231SOL    HW127752   1.961   1.115   3.046 -0.3288 -0.6117 -0.3969
 5231SOL    HW227753   1.965   1.165   2.890  1.5503  1.4856  0.2988
 5232SOL     OW27754   5.319   4.477   0.649 -0.2702  0.5226 -0.4322
 5232SOL    HW127755   5.329   4.378   0.661  0.6054  0.4692 -1.5496
 5232SOL    HW227756   5.374   4.525   0.717 -0.1457  0.2396 -0.3342
 5233SOL     OW27757   3.119   0.856   6.787 -0.3563  0.2024 -0.2656
 5233SOL    HW127758   3.068   0.770   6.793 -0.2940  0.2087  0.3833
 5233SOL    HW227759   3.056   0.931   6.766 -0.6474  0.2265  0.6368
 5234SOL     OW27760   8.818   9.577   3.863  0.6920 -0.1638 -0.0968
 5234SOL    HW127761   8.814   9.563   3.962  0.7458  1.3093  0.1237
 5234SOL    HW227762   8.791   9.492   3.816 -1.2438 -0.2864  1.1784
 5235SOL     OW27763   8.471   5.922   5.241  0.2539  0.3393 -0.0904
 5235SOL    HW127764   8.461   5.844   5.302  1.1952  0.2181 -0.0891
 5235SOL    HW227765   8.380   5.954   5.212 -0.2107  0.5365  1.5433
 5236SOL     OW27766   3.846   3.481   5.184  0.0298 -0.3364 -0.1569
 5236SOL    HW127767   3.832   3.565   5.131 -0.3838 -0.0899  0.3401
 5236SOL    HW227768   3.937   3.482   5.225  0.0477 -0.1599 -0.2013
 5237SOL     OW27769   5.529   0.698   7.275 -0.2953 -0.1499  0.4236
 5237SOL    HW127770   5.469   0.718   7.199  0.2319 -1.6697 -0.4176
 5237SOL    HW227771   5.608   0.760   7.274 -0.5516  0.1647  0.0428
 5238SOL     OW27772   6.857   9.695   3.596  0.6621  0.1306 -0.2494
 5238SOL    HW127773   6.886   9.752   3.674 -0.0316 -1.7010  1.3921
 5238SOL    HW227774   6.918   9.712   3.519  1.6374  1.6924  0.8230
 5239SOL     OW27775   6.318   7.275   3.360 -0.6584  0.2811  0.4970
 5239SOL    HW127776   6.407   7.229   3.366  0.5491  2.6268  1.3007
 5239SOL    HW227777   6.310   7.323   3.273 -1.0664  0.2554  0.5171
 5240SOL     OW27778   3.581   8.283   2.950  0.0122 -0.0539  0.6151
 5240SOL    HW127779   3.581   8.199   3.003 -0.2402 -0.3119  0.2122
 5240SOL    HW227780   3.518   8.274   2.873 -0.5853  0.7751  0.9927
 5241SOL     OW27781   9.778   8.044   7.862  0.3511  0.3669 -0.0133
 5241SOL    HW127782   9.852   8.108   7.844  2.7190 -2.0638  0.7279
 5241SOL    HW227783   9.752   7.997   7.778 -0.0508  0.9248 -0.1973
 5242SOL     OW27784   8.836   9.570   4.179 -0.4975  0.3716  0.4709
 5242SOL    HW127785   8.920   9.518   4.168 -1.1193 -0.6525  0.4864
 5242SOL    HW227786   8.857   9.662   4.211  0.7046  0.5511 -0.8187
 5243SOL     OW27787   4.533   4.287   3.656 -0.0240 -0.5921 -0.1247
 5243SOL    HW127788   4.483   4.210   3.694  0.7529 -0.6414  0.8307
 5243SOL    HW227789   4.474   4.368   3.654 -0.8948 -1.2503 -1.3124
 5244SOL     OW27790   3.939   2.397   1.234 -0.0026 -0.4308  0.4039
 5244SOL    HW127791   3.870   2.325   1.239  0.7586 -1.0468  2.4680
 5244SOL    HW227792   3.960   2.429   1.326  2.4385 -0.2128 -0.2058
 5245SOL     OW27793   8.702   0.111   6.163  0.1073 -0.1165 -0.6535
 5245SOL    HW127794   8.752   0.179   6.216  0.0220 -2.2059  2.2057
 5245SOL    HW227795   8.614   0.149   6.134  0.7278  1.4925 -0.4672
 5246SOL     OW27796   7.327   1.257   4.985 -0.2951  0.0335  0.6649
 5246SOL    HW127797   7.424   1.232   4.984 -0.4399 -0.6280  1.7372
 5246SOL    HW227798   7.297   1.268   5.080 -1.6707 -1.4155  0.4162
 5247SOL     OW27799   8.114   4.881   2.306 -0.3420 -0.2752 -0.3399
 5247SOL    HW127800   8.065   4.961   2.272 -0.1495 -0.6051 -1.4301
 5247SOL    HW227801   8.079   4.799   2.261 -2.1948 -1.1103  2.5269
 5248SOL     OW27802   5.204   5.163   0.332 -0.0058  0.8418  0.1030
 5248SOL    HW127803   5.163   5.239   0.282 -0.4248  0.7571  0.3181
 5248SOL    HW227804   5.140   5.129   0.400 -0.0718 -0.1357 -0.4440
 5249SOL     OW27805   4.912   5.003   2.380 -0.3350 -0.3075  0.3173
 5249SOL    HW127806   4.930   5.093   2.340 -4.2524  0.8764  0.9810
 5249SOL    HW227807   4.981   4.938   2.348  1.6011  2.5222 -1.5094
 5250SOL     OW27808   9.904   0.458   8.600 -0.0815  0.3197 -0.2862
 5250SOL    HW127809   9.954   0.490   8.519 -0.6999 -0.1647 -0.8659
 5250SOL    HW227810   9.925   0.517   8.678  1.1839  0.2842 -0.5855
 5251SOL     OW27811   9.227   8.954   5.852 -0.1598  0.2809 -0.7127
 5251SOL    HW127812   9.261   8.973   5.759 -0.4497  1.0079 -0.6745
 5251SOL    HW227813   9.301   8.970   5.918  0.1253 -0.4981 -0.8349
 5252SOL     OW27814   3.826   7.868   9.325  0.0808  0.3764  0.3759
 5252SOL    HW127815   3.856   7.777   9.295  0.8985  0.4709  0.9002
 5252SOL    HW227816   3.889   7.903   9.394 -0.0837  1.4583 -0.0142
 5253SOL     OW27817   4.397   0.999   9.077 -0.1546 -0.0443  0.0635
 5253SOL    HW127818   4.344   0.921   9.044  1.3530 -1.6546  1.3288
 5253SOL    HW227819   4.436   0.977   9.167 -0.7474  2.6641  1.0246
 5254SOL     OW27820   5.045   5.386   1.691  0.5072 -0.6248 -0.2102
 5254SOL    HW127821   4.951   5.353   1.700  0.4198 -0.7294 -1.3918
 5254SOL    HW227822   5.105   5.335   1.753  0.2343 -2.4184 -1.3916
 5255SOL     OW27823   6.891   7.501   5.719  0.1681 -0.0366 -0.0372
 5255SOL    HW127824   6.818   7.434   5.704 -0.5904  0.4683  1.3943
 5255SOL    HW227825   6.932   7.487   5.809 -1.9612  3.2576  1.5354
 5256SOL     OW27826   1.778   9.947   6.066  0.6658  0.0678 -0.1465
 5256SOL    HW127827   1.857   9.890   6.045 -0.5337 -1.1800 -1.3363
 5256SOL    HW227828   1.796   9.998   6.150  1.9893 -1.6417  0.6503
 5257SOL     OW27829   0.351   0.428   1.525  0.3186  0.1494  0.3955
 5257SOL    HW127830   0.449   0.415   1.516  0.0062 -1.5515 -0.8458
 5257SOL    HW227831   0.331   0.524   1.541  2.1143  0.6358 -0.1922
 5258SOL     OW27832   2.870   3.731   7.159 -0.0516  0.0784  0.6580
 5258SOL    HW127833   2.815   3.753   7.240 -0.6518 -2.0327  0.8453
 5258SOL    HW227834   2.809   3.703   7.085  0.6486 -0.1330  0.1586
 5259SOL     OW27835   7.748   9.327   7.192  0.0900 -0.9057  0.8584
 5259SOL    HW127836   7.694   9.255   7.148 -0.0783 -0.3548  0.1486
 5259SOL    HW227837   7.754   9.309   7.290 -0.2083 -1.7209  0.7333
 5260SOL     OW27838   2.940   8.585   2.124  0.7367  0.1253  0.1772
 5260SOL    HW127839   3.012   8.519   2.141  0.2652 -0.4523 -0.0351
 5260SOL    HW227840   2.894   8.607   2.210  2.1352  1.6426  0.5626
 5261SOL     OW27841   1.895   0.217   0.936 -0.2716 -0.3058 -0.4202
 5261SOL    HW127842   1.897   0.215   0.836  1.7799 -2.9896 -0.3768
 5261SOL    HW227843   1.812   0.171   0.968  1.0025 -3.0081 -0.8829
 5262SOL     OW27844   2.376   8.032   1.499 -0.4813 -0.3001  0.5438
 5262SOL    HW127845   2.383   7.977   1.582  1.3437  0.1508  0.7041
 5262SOL    HW227846   2.412   7.980   1.422  2.5180  1.1074  0.9224
 5263SOL     OW27847   5.970   1.538   6.201 -0.3860  0.3581  0.3277
 5263SOL    HW127848   6.029   1.461   6.226 -0.3298 -0.0865 -1.1086
 5263SOL    HW227849   6.023   1.623   6.204 -0.3454  0.3013  1.5307
 5264SOL     OW27850   1.022   3.871   4.594 -0.2898  0.8376 -0.1750
 5264SOL    HW127851   0.926   3.882   4.566  0.1302  1.3474 -1.4655
 5264SOL    HW227852   1.073   3.953   4.568  0.4893  0.5813  0.5458
 5265SOL     OW27853   2.983   8.671   7.812 -0.0880  0.1410  0.3214
 5265SOL    HW127854   3.081   8.692   7.807 -0.3391  1.3184  0.2233
 5265SOL    HW227855   2.950   8.686   7.906 -0.1927 -0.1813  0.3372
 5266SOL     OW27856   4.075   9.447   9.357 -0.6388  0.0571  0.0061
 5266SOL    HW127857   4.109   9.473   9.266 -0.3175  0.0941  0.1346
 5266SOL    HW227858   3.993   9.391   9.348 -0.5409 -0.0317 -0.3086
 5267SOL     OW27859   5.634   0.440   6.013 -0.0388 -0.4389  0.3455
 5267SOL    HW127860   5.693   0.497   6.070  0.7708 -2.0752  1.1767
 5267SOL    HW227861   5.542   0.440   6.052  0.2314 -0.6158  0.9948
 5268SOL     OW27862   9.543   9.941   9.577  0.0111 -0.6492  0.3286
 5268SOL    HW127863   9.546   9.937   9.677 -0.1093 -0.9793  0.3209
 5268SOL    HW227864   9.577  10.030   9.546  0.8345 -0.8488  0.6294
 5269SOL     OW27865   2.026   3.612   6.928 -0.5026  0.6590  0.0982
 5269SOL    HW127866   2.048   3.647   6.836 -0.2601 -1.8153 -0.8289
 5269SOL    HW227867   2.044   3.683   6.996 -0.7808  2.5738 -1.7716
 5270SOL     OW27868   3.780   0.121   9.789  0.0617 -0.2494  0.4988
 5270SOL    HW127869   3.863   0.067   9.806 -0.2773 -0.4607  1.5453
 5270SOL    HW227870   3.709   0.061   9.751 -0.2637 -0.5096  1.5124
 5271SOL     OW27871   2.129   8.185   1.334 -0.3369  0.4191  0.5320
 5271SOL    HW127872   2.211   8.205   1.389  0.2165  0.2342 -0.2080
 5271SOL    HW227873   2.051   8.234   1.372 -0.0037  0.1669  1.5853
 5272SOL     OW27874   8.056   1.144   4.050 -0.0196 -0.4692 -0.3480
 5272SOL    HW127875   8.147   1.151   4.009  0.7825  0.9442  1.5501
 5272SOL    HW227876   8.059   1.079   4.126 -0.4979 -0.1564 -0.0566
 5273SOL     OW27877   7.707   6.028   1.659 -1.1251  0.5390 -0.3720
 5273SOL    HW127878   7.612   6.059   1.664 -0.9522  1.1032 -0.6272
 5273SOL    HW227879   7.766   6.094   1.704 -1.1107 -0.9820  1.9388
 5274SOL     OW27880   2.745   8.185   6.292  0.3448 -0.1792 -0.0286
 5274SOL    HW127881   2.705   8.197   6.383 -2.6084  1.7622 -1.4998
 5274SOL    HW227882   2.802   8.265   6.271 -1.4938  0.8998 -1.0633
 5275SOL     OW27883   9.383   5.341   6.980  0.1047  0.2187  0.3510
 5275SOL    HW127884   9.414   5.263   7.033 -0.8468  0.4384  1.2472
 5275SOL    HW227885   9.299   5.317   6.931  0.1448  0.4964  0.1451
 5276SOL     OW27886   5.157   8.221   3.271  0.2708 -0.3633 -0.1479
 5276SOL    HW127887   5.139   8.207   3.369 -1.2286  1.2407 -0.1692
 5276SOL    HW227888   5.077   8.263   3.228  1.0459 -0.7341 -2.0058
 5277SOL     OW27889   2.718   6.587   3.136  0.3218  0.0655 -0.2460
 5277SOL    HW127890   2.667   6.579   3.221  1.4590  1.0303  0.5347
 5277SOL    HW227891   2.810   6.549   3.148  0.6247  0.5744 -0.9280
 5278SOL     OW27892   5.502   3.278   8.319  0.4435 -0.5553 -0.6264
 5278SOL    HW127893   5.489   3.375   8.341 -2.9087 -0.8534 -1.1149
 5278SOL    HW227894   5.502   3.266   8.220  1.9970 -0.9269 -0.5878
 5279SOL     OW27895   0.685   2.922   1.852  0.1258  0.6844  0.1170
 5279SOL    HW127896   0.673   2.923   1.752 -1.0306  0.5135  0.2492
 5279SOL    HW227897   0.665   2.831   1.886 -2.0514  1.3899  0.8038
 5280SOL     OW27898   4.917   2.052   2.033  0.0445 -0.3246  0.0754
 5280SOL    HW127899   4.939   2.006   2.119 -0.5251  0.2658  0.5454
 5280SOL    HW227900   4.989   2.118   2.010 -0.8410  1.0605  1.2175
 5281SOL     OW27901   9.449   1.705   9.198  0.2238 -0.4859 -0.2001
 5281SOL    HW127902   9.505   1.698   9.115  0.0407  0.0362 -0.3700
 5281SOL    HW227903   9.504   1.744   9.271  0.1134 -0.0742 -0.3360
 5282SOL     OW27904   0.116   8.815   3.373 -0.3558 -0.7161 -0.1308
 5282SOL    HW127905   0.167   8.891   3.413  0.6654 -1.0805 -0.7175
 5282SOL    HW227906   0.029   8.805   3.420 -0.5611  0.9070 -0.1283
 5283SOL     OW27907   2.494   7.720   4.751 -0.7896  0.2780 -0.1575
 5283SOL    HW127908   2.526   7.782   4.679 -0.3499  2.5621  1.9236
 5283SOL    HW227909   2.569   7.659   4.777 -0.2697  0.9321 -0.1037
 5284SOL     OW27910   3.362   7.738   1.002 -0.0235 -0.3359 -0.3357
 5284SOL    HW127911   3.303   7.733   0.921  0.9769  0.0530 -1.0926
 5284SOL    HW227912   3.450   7.779   0.977  0.5476 -0.8481  0.8026
 5285SOL     OW27913   2.716   9.172   5.307  0.0179 -0.0781  0.2182
 5285SOL    HW127914   2.704   9.188   5.209  0.8669 -0.9031 -0.0286
 5285SOL    HW227915   2.813   9.184   5.331 -0.2804  0.6774  1.0635
 5286SOL     OW27916   1.858   0.370   9.925  0.1669 -0.1378  1.0095
 5286SOL    HW127917   1.875   0.431   9.847 -1.3871 -0.0790  0.6893
 5286SOL    HW227918   1.759   0.364   9.941  0.1120 -4.0497 -0.1821
 5287SOL     OW27919   6.286   5.609   2.633 -0.5964  0.0681  0.6861
 5287SOL    HW127920   6.376   5.651   2.647 -0.9559  0.9078  0.4538
 5287SOL    HW227921   6.223   5.641   2.704 -1.1413  0.6796 -0.0800
 5288SOL     OW27922   0.448   6.191   4.142 -0.5496  0.1001 -0.1685
 5288SOL    HW127923   0.479   6.108   4.094  1.6170  0.9339 -0.2657
 5288SOL    HW227924   0.382   6.240   4.085 -0.6564 -0.7445 -0.7839
 5289SOL     OW27925   2.552   8.250   0.656  0.5347  0.3279  0.3398
 5289SOL    HW127926   2.637   8.240   0.605  0.6527 -0.1940  0.6366
 5289SOL    HW227927   2.505   8.333   0.626  1.1936  0.6692  0.2428
 5290SOL     OW27928   9.073   6.813   5.162  0.7486 -0.4677 -0.3861
 5290SOL    HW127929   9.010   6.814   5.240  0.8014 -0.8373 -0.3364
 5290SOL    HW227930   9.029   6.856   5.083  1.3648  1.5619  0.3513
 5291SOL     OW27931   0.569   4.732   1.009 -0.1212 -0.5331  1.2662
 5291SOL    HW127932   0.537   4.774   0.924 -1.3973 -4.4870 -0.3383
 5291SOL    HW227933   0.666   4.751   1.022  0.3486 -0.7571 -1.6838
 5292SOL     OW27934   7.229   0.596   4.638 -0.3076 -0.0172 -0.0193
 5292SOL    HW127935   7.316   0.581   4.686 -2.0358 -0.7787  2.9717
 5292SOL    HW227936   7.207   0.694   4.641  0.1831  0.1105 -0.3716
 5293SOL     OW27937   7.442   5.036   0.860  0.0925 -0.3712  0.1176
 5293SOL    HW127938   7.380   5.002   0.930 -0.6287 -0.5721 -0.6204
 5293SOL    HW227939   7.511   5.096   0.903  1.4468 -2.7976  1.4367
 5294SOL     OW27940   9.442   2.282   9.651 -0.3853 -0.7066  0.2795
 5294SOL    HW127941   9.385   2.359   9.682 -0.0991 -0.5884  0.5133
 5294SOL    HW227942   9.384   2.211   9.611 -0.5631  0.0894 -0.9089
 5295SOL     OW27943   1.629   5.866   0.593  0.1047  0.4969  0.0781
 5295SOL    HW127944   1.550   5.809   0.617 -1.8462  2.2852 -1.9115
 5295SOL    HW227945   1.609   5.916   0.509  3.0728  1.6120  0.0024
 5296SOL     OW27946   3.523   4.499   6.706  0.0716 -0.6446  0.2967
 5296SOL    HW127947   3.525   4.568   6.778  1.2550 -0.1430 -0.2038
 5296SOL    HW227948   3.476   4.417   6.739  0.2038 -0.2487  1.4785
 5297SOL     OW27949   8.794   3.735   5.453 -0.8193  0.1548  0.1803
 5297SOL    HW127950   8.862   3.805   5.430 -3.2770  2.3336 -0.6535
 5297SOL    HW227951   8.809   3.705   5.548  0.2459  1.8343  0.5757
 5298SOL     OW27952   8.575   8.324   9.587  0.1865 -0.0954  0.6256
 5298SOL    HW127953   8.586   8.291   9.493  2.8685  0.6380  0.6265
 5298SOL    HW227954   8.531   8.413   9.587 -0.0124 -0.1918  0.0820
 5299SOL     OW27955   8.807   7.916   0.906  0.4021 -1.3843 -0.3565
 5299SOL    HW127956   8.831   7.979   0.980  1.2950 -0.7079 -1.2022
 5299SOL    HW227957   8.713   7.933   0.877  0.1356 -1.4790  0.4445
 5300SOL     OW27958   3.951   9.696   4.683 -0.1902  0.2238  0.1894
 5300SOL    HW127959   4.024   9.655   4.628 -0.1204  1.9636 -1.0621
 5300SOL    HW227960   3.868   9.704   4.628 -0.1044  2.0439  0.2989
 5301SOL     OW27961   6.228   4.971   9.988  0.5522  0.2119 -0.5851
 5301SOL    HW127962   6.233   5.069   9.970  0.6433  0.5181  1.0906
 5301SOL    HW227963   6.319   4.930   9.982  0.5436  0.2536 -1.0564
 5302SOL     OW27964   9.912   1.143   8.433  0.0226 -0.3718 -0.0199
 5302SOL    HW127965   9.829   1.151   8.489  0.9868  5.2780  0.9053
 5302SOL    HW227966   9.986   1.108   8.490 -0.5971 -0.9147  0.4618
 5303SOL     OW27967   2.114   7.621   8.460  0.1790  0.3054  0.5895
 5303SOL    HW127968   2.064   7.629   8.373 -1.0698  0.4223  1.3124
 5303SOL    HW227969   2.182   7.548   8.452  0.2924  0.5201 -0.5929
 5304SOL     OW27970   8.220   7.269   3.961 -0.0630 -0.1672 -0.3478
 5304SOL    HW127971   8.296   7.261   3.897  0.6684 -0.8461  0.5930
 5304SOL    HW227972   8.137   7.233   3.919  0.6028 -1.4373 -0.5859
 5305SOL     OW27973   2.904   7.556   8.681 -0.8033  0.1322 -0.1224
 5305SOL    HW127974   2.924   7.463   8.712 -0.2323 -0.1381 -1.2842
 5305SOL    HW227975   2.988   7.610   8.684 -1.1458  0.6270  0.5960
 5306SOL     OW27976   9.144   9.679   4.595 -0.7523 -0.0237  0.4882
 5306SOL    HW127977   9.114   9.621   4.671  1.9965 -3.1940 -0.7134
 5306SOL    HW227978   9.193   9.624   4.529  1.9264  3.7338 -0.8191
 5307SOL     OW27979   8.119   7.520   1.836 -0.1320  0.1743 -0.6932
 5307SOL    HW127980   8.025   7.552   1.825 -0.2382 -0.0151 -0.3610
 5307SOL    HW227981   8.121   7.420   1.829 -0.1543  0.0725  0.6070
 5308SOL     OW27982   0.837   4.816   4.958  0.5015  0.5761  0.1633
 5308SOL    HW127983   0.892   4.896   4.936 -0.4898  2.1082  2.9972
 5308SOL    HW227984   0.890   4.733   4.941  1.6012  1.8036 -2.6754
 5309SOL     OW27985   7.415   0.583   9.018 -0.2650 -1.0394  0.3531
 5309SOL    HW127986   7.338   0.520   9.028  0.0105 -1.3337  0.5958
 5309SOL    HW227987   7.501   0.533   9.024 -0.0575 -0.8423 -0.8219
 5310SOL     OW27988   9.533   9.457   2.284 -0.2974 -0.1170  0.5438
 5310SOL    HW127989   9.563   9.543   2.326  0.0971 -0.1333  0.2947
 5310SOL    HW227990   9.582   9.380   2.326  1.2094 -0.0178 -0.9774
 5311SOL     OW27991   2.850   1.489   5.141 -0.1250 -0.0375 -0.3985
 5311SOL    HW127992   2.783   1.415   5.132  0.2598 -0.1711 -2.1972
 5311SOL    HW227993   2.938   1.450   5.167 -0.3591 -0.0154  0.4498
 5312SOL     OW27994   8.413   9.139   3.543 -0.1151  0.0480 -0.1063
 5312SOL    HW127995   8.332   9.084   3.564  0.0831  0.0589  0.7088
 5312SOL    HW227996   8.394   9.196   3.464 -0.8016 -0.1766 -0.1145
 5313SOL     OW27997   6.588   7.918   8.229  0.8453  0.2011 -0.5150
 5313SOL    HW127998   6.616   7.825   8.254  2.6587  0.4690 -1.4588
 5313SOL    HW227999   6.496   7.915   8.190  1.4049 -1.4123 -1.7888
 5314SOL     OW28000   8.946   0.937   3.913 -0.2930 -0.1849  0.6424
 5314SOL    HW128001   8.871   0.876   3.939 -1.0238  0.2523 -0.4169
 5314SOL    HW228002   9.027   0.883   3.891 -0.8470 -0.7473 -0.0004
 5315SOL     OW28003   0.003   0.246   3.206  0.1630  0.0335  0.3796
 5315SOL    HW128004   0.003   0.146   3.194  2.7200  0.1724 -1.1102
 5315SOL    HW228005   0.014   0.268   3.303 -0.3310 -1.1206  0.7107
 5316SOL     OW28006   8.720   4.220   4.689  0.3511  0.1495 -0.5004
 5316SOL    HW128007   8.712   4.238   4.786 -2.2535 -0.0405 -0.6535
 5316SOL    HW228008   8.675   4.293   4.637  0.6805 -0.3607 -1.5191
 5317SOL     OW28009   7.796   3.935   2.389  0.2438 -0.3900 -0.3250
 5317SOL    HW128010   7.754   3.881   2.316 -0.5896  0.1342 -0.2368
 5317SOL    HW228011   7.766   4.030   2.383  0.4810 -0.2557  0.4622
 5318SOL     OW28012   3.203   2.807   4.607  0.8505  0.0717 -0.0030
 5318SOL    HW128013   3.295   2.791   4.642  0.9066  1.1522  0.3818
 5318SOL    HW228014   3.197   2.775   4.513  2.0018  1.1097 -0.4519
 5319SOL     OW28015   5.298   0.915   5.283  0.1422 -0.1188  0.0951
 5319SOL    HW128016   5.225   0.976   5.253 -0.2618 -0.8020 -0.3272
 5319SOL    HW228017   5.380   0.930   5.228  0.6588  1.3538  1.2251
 5320SOL     OW28018   9.656   3.398   9.087  0.6705 -0.1675  0.0082
 5320SOL    HW128019   9.741   3.351   9.064  0.3305 -0.3762 -0.8268
 5320SOL    HW228020   9.677   3.487   9.129  1.2926  0.4729 -1.6252
 5321SOL     OW28021   6.537   7.586   3.632 -0.5371 -0.2744  0.6911
 5321SOL    HW128022   6.586   7.672   3.635 -0.4357 -0.3191  0.3757
 5321SOL    HW228023   6.522   7.559   3.536  0.0471 -0.9523  0.7867
 5322SOL     OW28024   7.295   1.610   2.099 -0.0641 -0.2364  0.0992
 5322SOL    HW128025   7.389   1.594   2.070 -0.3664 -2.3054  0.1144
 5322SOL    HW228026   7.290   1.694   2.153  2.0370 -0.7885  1.2230
 5323SOL     OW28027   5.709   8.452   9.047 -0.1360  0.0336 -0.1327
 5323SOL    HW128028   5.807   8.469   9.048  0.3462 -2.5922 -0.7290
 5323SOL    HW228029   5.665   8.518   8.985  0.9773  2.3225  1.4301
 5324SOL     OW28030   9.177   6.926   3.842  0.1056  0.4499 -0.0325
 5324SOL    HW128031   9.188   6.845   3.898  0.4173 -0.7646 -1.7958
 5324SOL    HW228032   9.080   6.947   3.831  0.0180  0.2284  0.3279
 5325SOL     OW28033   2.947   4.411   9.057  0.4158 -0.5868 -0.1748
 5325SOL    HW128034   3.045   4.399   9.045  0.2902 -2.2462  0.3128
 5325SOL    HW228035   2.924   4.508   9.054  2.1986 -0.1339  0.6419
 5326SOL     OW28036   9.658   5.918   6.510 -0.1782  0.0838  0.3070
 5326SOL    HW128037   9.601   5.994   6.542 -0.0202  1.1075 -1.7692
 5326SOL    HW228038   9.616   5.832   6.538 -1.8632  0.8640  0.2568
 5327SOL     OW28039   1.231   3.324   2.359  0.7627 -0.2722  0.1367
 5327SOL    HW128040   1.323   3.328   2.318  0.4194 -0.4049 -0.6613
 5327SOL    HW228041   1.169   3.279   2.295  0.0608  0.1354  0.5360
 5328SOL     OW28042   1.961   2.688   0.288 -0.5666 -1.0126 -0.3052
 5328SOL    HW128043   1.893   2.640   0.233  0.0168 -2.0148 -0.1579
 5328SOL    HW228044   2.053   2.659   0.260 -0.1397  1.2423 -1.3711
 5329SOL     OW28045   4.028   0.743   0.841  0.1685 -0.4579  0.0988
 5329SOL    HW128046   4.022   0.650   0.806 -0.2641 -0.3608 -0.0824
 5329SOL    HW228047   4.124   0.767   0.855  0.3223 -0.6695 -0.5574
 5330SOL     OW28048   6.852   9.272   8.412 -0.3690  0.3273  0.0104
 5330SOL    HW128049   6.818   9.362   8.439 -0.4287  0.4466 -0.4528
 5330SOL    HW228050   6.774   9.212   8.392 -0.3070  0.6203 -1.1158
 5331SOL     OW28051   8.878   8.040   2.913 -0.2319  0.1100 -0.0820
 5331SOL    HW128052   8.958   8.097   2.936 -0.6151 -0.0053  1.6491
 5331SOL    HW228053   8.794   8.092   2.933 -0.5921 -0.0020 -1.2870
 5332SOL     OW28054   7.710   5.360   8.746  0.4348 -0.0216  0.1583
 5332SOL    HW128055   7.761   5.400   8.823  0.7695 -0.0248 -0.0653
 5332SOL    HW228056   7.767   5.359   8.665 -0.2355  0.8484 -0.3348
 5333SOL     OW28057   3.760   0.844   8.240 -0.7012  0.4701  0.3215
 5333SOL    HW128058   3.856   0.838   8.213 -0.8023  2.0328 -0.4429
 5333SOL    HW228059   3.702   0.841   8.159 -1.2789 -0.2082  0.7636
 5334SOL     OW28060   3.764   8.741   5.119  0.3857 -0.3408  0.5074
 5334SOL    HW128061   3.832   8.670   5.141  0.3082 -0.1706  1.3076
 5334SOL    HW228062   3.784   8.780   5.029  2.5555  1.1153  1.5870
 5335SOL     OW28063   5.447   4.484   9.576 -0.1504  0.5059 -0.3451
 5335SOL    HW128064   5.491   4.571   9.601 -1.5509  1.2795 -0.5485
 5335SOL    HW228065   5.498   4.441   9.502 -0.5328  2.0780 -1.5364
 5336SOL     OW28066   8.703   9.769   6.509  0.5522 -0.4694 -0.0838
 5336SOL    HW128067   8.647   9.825   6.447 -0.7744 -0.1125  1.3960
 5336SOL    HW228068   8.673   9.673   6.503 -0.8330 -0.1458  1.3333
 5337SOL     OW28069   9.992   8.907   1.635 -0.0294 -0.2944 -0.5051
 5337SOL    HW128070   9.946   8.900   1.546 -0.9385  0.6904 -0.1303
 5337SOL    HW228071   9.943   8.972   1.692  2.6210  1.9005 -0.5913
 5338SOL     OW28072   3.673   6.335   1.288 -0.1435  0.7402 -1.3338
 5338SOL    HW128073   3.768   6.304   1.281 -0.2404  0.7234 -2.8620
 5338SOL    HW228074   3.645   6.336   1.384  0.9161 -0.7444 -0.9798
 5339SOL     OW28075   7.062   8.805   6.862  0.5174  0.2420 -0.2943
 5339SOL    HW128076   7.105   8.773   6.777 -1.1558  0.0849 -1.0911
 5339SOL    HW228077   6.963   8.794   6.856  0.3130  1.0403  1.3488
 5340SOL     OW28078   2.359   2.706   2.363  0.7729  0.1452 -0.2750
 5340SOL    HW128079   2.278   2.750   2.323  0.3685  2.4761  2.9201
 5340SOL    HW228080   2.439   2.729   2.309  0.2053  2.9757  0.0152
 5341SOL     OW28081   6.450   4.102   2.170  0.0897 -0.1387  0.2692
 5341SOL    HW128082   6.368   4.158   2.167  0.6404  0.6340 -1.0987
 5341SOL    HW228083   6.518   4.140   2.106  1.4083 -0.8966  1.2047
 5342SOL     OW28084   3.707   2.160   1.829 -0.0020 -0.3192  0.6186
 5342SOL    HW128085   3.653   2.166   1.913 -1.5446  0.1140 -0.3833
 5342SOL    HW228086   3.667   2.091   1.769  0.3257  0.2766 -0.2899
 5343SOL     OW28087   9.395   1.696   0.845 -0.4294  0.1159  0.2887
 5343SOL    HW128088   9.365   1.792   0.848 -1.0576 -0.0369 -0.7832
 5343SOL    HW228089   9.479   1.689   0.791 -1.1299 -0.1140 -0.7875
 5344SOL     OW28090   3.573   9.996   6.594  0.3804  0.1075 -0.3117
 5344SOL    HW128091   3.480   9.983   6.559  0.4231 -0.6246 -0.1580
 5344SOL    HW228092   3.604  10.089   6.572 -0.1439  0.1427 -0.9241
 5345SOL     OW28093   7.609   9.482   9.313 -0.5280 -0.4234 -0.5840
 5345SOL    HW128094   7.676   9.525   9.252  0.8944 -1.7824 -0.0146
 5345SOL    HW228095   7.631   9.385   9.324 -0.9687 -0.2883  1.8252
 5346SOL     OW28096   3.140   8.765   6.041  0.1571  0.4958  0.2757
 5346SOL    HW128097   3.113   8.790   5.948 -1.0389  1.2723  0.8244
 5346SOL    HW228098   3.238   8.745   6.043  0.6588  2.7715 -0.6680
 5347SOL     OW28099   1.912   4.856   9.082  0.5121  0.0414  0.1156
 5347SOL    HW128100   1.836   4.843   9.146  0.9996  1.9881  1.1223
 5347SOL    HW228101   1.970   4.930   9.115  1.8564 -0.2474 -1.5895
 5348SOL     OW28102   6.233   7.686   3.514 -0.0698 -0.2189  0.4769
 5348SOL    HW128103   6.193   7.679   3.605  1.0967 -0.3700  0.9822
 5348SOL    HW228104   6.325   7.646   3.514  0.4174  0.8729 -0.4674
 5349SOL     OW28105   3.520   4.844   1.357  0.2313 -0.2660  0.5308
 5349SOL    HW128106   3.546   4.862   1.262  0.3958 -0.0192  0.6225
 5349SOL    HW228107   3.437   4.895   1.379  0.7462  0.4517  0.8164
 5350SOL     OW28108   6.905   1.118   5.229 -0.7942  0.1947 -0.3582
 5350SOL    HW128109   6.925   1.020   5.225  0.4929  0.4335 -0.0747
 5350SOL    HW228110   6.867   1.148   5.142  0.4523 -0.2217 -1.0564
 5351SOL     OW28111   7.788   1.892   6.461 -0.4851  0.0604  0.2415
 5351SOL    HW128112   7.794   1.975   6.405 -0.5512 -0.3800 -0.4097
 5351SOL    HW228113   7.693   1.875   6.486 -0.4572  0.2458  0.4756
 5352SOL     OW28114   1.769   6.983   7.973  0.6475 -0.2053 -0.3852
 5352SOL    HW128115   1.777   7.082   7.962 -0.2888  0.0361  0.9514
 5352SOL    HW228116   1.823   6.955   8.053  0.5139 -0.7048 -0.4707
 5353SOL     OW28117   2.682   9.107   2.775  0.4331  0.1782 -0.1998
 5353SOL    HW128118   2.750   9.047   2.733  0.1329  0.7282 -1.4765
 5353SOL    HW228119   2.713   9.202   2.769  0.3056  0.2820  0.6753
 5354SOL     OW28120   7.715   0.152   6.043 -0.5748  0.1517  0.2572
 5354SOL    HW128121   7.707   0.083   6.114 -0.4435  0.5238  0.6322
 5354SOL    HW228122   7.743   0.239   6.083 -1.0219  0.5008 -0.1675
 5355SOL     OW28123   9.049   8.351   1.411 -0.3364 -0.1457  0.1280
 5355SOL    HW128124   9.127   8.404   1.378 -0.8671  1.8417  1.9616
 5355SOL    HW228125   9.081   8.282   1.476  0.1208 -0.7151 -0.6950
 5356SOL     OW28126   1.245   4.494   0.653 -0.0201 -0.1614 -0.2701
 5356SOL    HW128127   1.291   4.426   0.595 -1.1813 -0.7364 -0.5351
 5356SOL    HW228128   1.191   4.447   0.722  1.5550  0.5226  1.4649
 5357SOL     OW28129   1.817   5.052   2.204  0.1954 -0.3231 -0.0188
 5357SOL    HW128130   1.753   5.082   2.132  0.5290  2.6341  0.8395
 5357SOL    HW228131   1.792   5.097   2.290  2.8413  0.1107  0.5436
 5358SOL     OW28132   3.648   1.004   3.904 -0.4540 -0.3957 -0.8750
 5358SOL    HW128133   3.664   0.917   3.857 -0.1435 -0.1599 -1.2122
 5358SOL    HW228134   3.555   1.035   3.887 -1.3645 -1.8537  1.2173
 5359SOL     OW28135   2.699   2.106   3.179 -0.3216 -0.1254  0.1140
 5359SOL    HW128136   2.654   2.023   3.212  2.3881 -1.4314  0.6467
 5359SOL    HW228137   2.699   2.107   3.079 -0.0659 -0.9527  0.1041
 5360SOL     OW28138   3.629   7.071   3.624 -0.2898  0.2678  0.2655
 5360SOL    HW128139   3.704   7.129   3.655  0.4160 -0.5141  0.0430
 5360SOL    HW228140   3.662   7.009   3.553 -1.7456  1.6442 -1.6678
 5361SOL     OW28141   2.110   5.972   4.529 -0.4780  0.1329 -0.1331
 5361SOL    HW128142   2.190   6.026   4.501  0.9534 -2.0585 -0.3911
 5361SOL    HW228143   2.047   6.031   4.580  1.2851  1.9286  0.0580
 5362SOL     OW28144   0.359   1.336   2.295 -0.5378 -0.4011  0.3590
 5362SOL    HW128145   0.429   1.326   2.367  0.0948 -1.0428 -0.3382
 5362SOL    HW228146   0.329   1.245   2.266 -0.5100 -0.1519 -0.4559
 5363SOL     OW28147   0.854   9.946   7.869  0.1425 -0.1429 -0.0128
 5363SOL    HW128148   0.925   9.981   7.808 -0.1797  0.8048  0.1489
 5363SOL    HW228149   0.764   9.969   7.833 -0.0467  1.1837  1.2416
 5364SOL     OW28150   3.121   0.035   9.175  0.1071  0.0076 -0.0636
 5364SOL    HW128151   3.173   0.121   9.170 -1.6774  1.2113  1.4564
 5364SOL    HW228152   3.052   0.033   9.103  1.8121 -1.3595 -1.7434
 5365SOL     OW28153   0.133   1.381   5.338  0.3008 -0.1417 -0.2922
 5365SOL    HW128154   0.189   1.322   5.397 -0.7215 -0.6217  0.2099
 5365SOL    HW228155   0.191   1.422   5.267  0.6229 -3.5489 -2.0991
 5366SOL     OW28156   7.888   8.099   2.859  0.1557 -0.1788 -0.4691
 5366SOL    HW128157   7.854   8.017   2.906  0.6300 -0.1792 -0.1169
 5366SOL    HW228158   7.898   8.174   2.925 -3.7096  1.2755 -1.4301
 5367SOL     OW28159   0.870   9.788   0.963 -0.2842 -0.2586 -0.4224
 5367SOL    HW128160   0.875   9.887   0.973 -1.3503 -0.0137 -2.0270
 5367SOL    HW228161   0.918   9.761   0.879  2.2792 -1.4088  1.3461
 5368SOL     OW28162   0.657   2.963   9.455 -0.4634  0.3419 -0.0130
 5368SOL    HW128163   0.580   2.965   9.392 -1.7422 -1.2387  1.4600
 5368SOL    HW228164   0.624   2.960   9.549  1.4157  1.7762  0.7326
 5369SOL     OW28165   4.766   6.686   2.732 -0.9534  0.4148 -0.5245
 5369SOL    HW128166   4.745   6.621   2.659  0.4186 -1.0937  0.3867
 5369SOL    HW228167   4.805   6.637   2.810 -1.2668  2.1578  0.7540
 5370SOL     OW28168   3.162   6.960   3.263 -0.5126  0.1659  0.1490
 5370SOL    HW128169   3.222   6.892   3.304  1.6739  1.3162 -1.0994
 5370SOL    HW228170   3.068   6.925   3.262  0.5978 -2.9601 -0.6938
 5371SOL     OW28171   3.894   8.856   2.430  0.1408 -0.2932  0.4860
 5371SOL    HW128172   3.867   8.788   2.362  0.9138  0.0323 -0.1539
 5371SOL    HW228173   3.876   8.820   2.522  0.0435 -1.1446  0.1417
 5372SOL     OW28174   2.388   0.586   0.266  0.2200 -0.7606 -0.4572
 5372SOL    HW128175   2.388   0.683   0.243 -1.8883 -0.2663  1.4705
 5372SOL    HW228176   2.348   0.533   0.191 -0.3253  0.0574 -0.7434
 5373SOL     OW28177   4.035   4.697   3.350 -0.1150  0.2612 -0.3871
 5373SOL    HW128178   4.071   4.610   3.316  0.6142 -0.1518  1.3688
 5373SOL    HW228179   3.968   4.733   3.285  0.6702 -0.8577 -1.8623
 5374SOL     OW28180   5.291   3.467   1.874  0.1327 -0.5465  0.1525
 5374SOL    HW128181   5.314   3.442   1.780  0.3679 -1.2684  0.3962
 5374SOL    HW228182   5.372   3.456   1.932 -0.3008 -1.2165  0.6475
 5375SOL     OW28183   5.689   9.443   7.617  0.0734  0.2646  0.3632
 5375SOL    HW128184   5.787   9.427   7.621  0.1462  0.9385  1.4942
 5375SOL    HW228185   5.654   9.458   7.709 -1.1287 -0.1704 -0.0095
 5376SOL     OW28186   4.627   5.449   2.526  0.2208  0.2719  0.3942
 5376SOL    HW128187   4.628   5.395   2.442  2.1094  0.7771  0.0808
 5376SOL    HW228188   4.704   5.424   2.584 -1.6509 -0.8265  2.5047
 5377SOL     OW28189   2.562   1.919   8.896 -0.2256 -0.2630  0.2543
 5377SOL    HW128190   2.572   1.831   8.851  0.6735 -0.4908  0.8773
 5377SOL    HW228191   2.650   1.967   8.897 -0.3398 -0.0483  1.2990
 5378SOL     OW28192   9.710   5.550   8.361  0.1553  0.0036  0.0629
 5378SOL    HW128193   9.767   5.488   8.308  0.2535  1.0993 -1.1370
 5378SOL    HW228194   9.631   5.578   8.307  0.0343  0.7915  0.6321
 5379SOL     OW28195   4.964   7.948   7.457  0.0461  0.0531 -0.4613
 5379SOL    HW128196   5.028   7.903   7.394 -3.4974 -2.8782 -2.1123
 5379SOL    HW228197   4.951   7.890   7.538 -1.9809 -0.3348 -1.0453
 5380SOL     OW28198   6.322   0.990   3.152  0.8014 -0.2590  0.2694
 5380SOL    HW128199   6.250   0.986   3.221 -0.4655 -1.3339 -1.0726
 5380SOL    HW228200   6.407   1.022   3.193 -0.6756  1.9511  1.6715
 5381SOL     OW28201   0.917   7.730   7.039  0.6671  0.0154  0.2020
 5381SOL    HW128202   0.865   7.681   7.110 -0.5718 -1.0760 -1.4323
 5381SOL    HW228203   0.923   7.827   7.064  0.6475 -0.4292  2.0355
 5382SOL     OW28204   8.732   0.382   3.263 -0.3221 -0.7435 -0.7657
 5382SOL    HW128205   8.748   0.400   3.361  2.1263 -0.1640 -1.2330
 5382SOL    HW228206   8.782   0.300   3.236 -0.2446 -0.3814 -1.7319
 5383SOL     OW28207   2.256   9.950   0.778 -0.0196 -0.0328  0.5282
 5383SOL    HW128208   2.255   9.949   0.878  0.7691  0.2483  0.5460
 5383SOL    HW228209   2.288  10.040   0.746  0.5977 -0.4173  0.0405
 5384SOL     OW28210   7.229   0.987   4.209 -0.5275  0.2710  0.0610
 5384SOL    HW128211   7.207   1.068   4.154  0.0483  0.5691  0.2595
 5384SOL    HW228212   7.236   0.907   4.150  1.5984  0.8656 -0.5345
 5385SOL     OW28213   6.193   1.195   5.079  0.0510  0.6692  0.0690
 5385SOL    HW128214   6.265   1.180   5.011 -1.5944  0.4868 -1.6749
 5385SOL    HW228215   6.150   1.108   5.102  0.5160  0.7441  1.3025
 5386SOL     OW28216   0.628   0.556   3.407 -0.5836 -0.2368  0.3566
 5386SOL    HW128217   0.698   0.503   3.455 -0.0542 -1.6396 -1.8572
 5386SOL    HW228218   0.620   0.523   3.313 -1.8515  2.1532 -0.4342
 5387SOL     OW28219   8.063   8.522   4.305 -0.1101  0.1001 -0.3568
 5387SOL    HW128220   7.968   8.499   4.282 -0.4731  1.9509 -0.8040
 5387SOL    HW228221   8.100   8.583   4.235 -0.1547  3.2153  2.2004
 5388SOL     OW28222   1.031   9.440   0.945 -0.5176 -0.3642 -0.1393
 5388SOL    HW128223   1.096   9.374   0.907 -0.6171  0.1954 -1.3012
 5388SOL    HW228224   1.074   9.490   1.020  1.0486  1.2815 -2.0754
 5389SOL     OW28225   7.487   1.839   4.320  0.8421 -0.5552 -0.2698
 5389SOL    HW128226   7.437   1.916   4.360 -0.5570 -1.6539  0.1749
 5389SOL    HW228227   7.531   1.787   4.393  0.8366 -0.8107 -0.4475
 5390SOL     OW28228   8.309   1.946   0.189 -0.1564  0.1312  0.5685
 5390SOL    HW128229   8.315   2.043   0.162 -2.2338  0.5583  1.5242
 5390SOL    HW228230   8.331   1.889   0.110 -0.5335  1.3982 -0.4841
 5391SOL     OW28231   2.874   2.901   7.033 -0.0741 -0.4132 -0.3357
 5391SOL    HW128232   2.871   2.993   7.072 -1.5538  0.8232 -3.2066
 5391SOL    HW228233   2.931   2.843   7.090  0.1897  2.0529  2.0158
 5392SOL     OW28234   8.893   7.255   1.151 -0.4042 -0.2554  0.3927
 5392SOL    HW128235   8.973   7.302   1.113  0.0765 -1.5291 -0.1654
 5392SOL    HW228236   8.810   7.295   1.113  0.0142 -0.1914 -0.4541
 5393SOL     OW28237   1.229   8.474   9.278 -0.0365  0.2439  0.0391
 5393SOL    HW128238   1.249   8.497   9.373  0.3531 -0.4582  0.1282
 5393SOL    HW228239   1.263   8.546   9.218 -0.9460  1.0522  0.4770
 5394SOL     OW28240   1.092   3.052   3.839  0.0664  0.1382  0.3770
 5394SOL    HW128241   1.189   3.027   3.845 -0.0228 -0.4970 -0.7035
 5394SOL    HW228242   1.040   2.996   3.903  0.3095 -0.0820  0.3868
 5395SOL     OW28243   7.551   5.893   4.668 -0.4098  0.2042 -0.5997
 5395SOL    HW128244   7.649   5.883   4.646  0.4086  0.0842  2.7895
 5395SOL    HW228245   7.500   5.819   4.623  0.9743  0.4603 -2.6978
 5396SOL     OW28246   0.839   4.518   1.562 -0.2358 -1.1026 -0.0424
 5396SOL    HW128247   0.817   4.608   1.601  0.1916 -0.7305 -0.6515
 5396SOL    HW228248   0.791   4.447   1.613  1.0919 -0.6987  1.8346
 5397SOL     OW28249   2.644   8.365   7.952 -0.4086 -0.8482 -0.1247
 5397SOL    HW128250   2.587   8.391   7.874 -0.8933 -0.0342  0.4922
 5397SOL    HW228251   2.708   8.294   7.924 -2.4925 -2.6227 -0.5404
 5398SOL     OW28252   3.375   8.111   5.486 -0.1186  0.1395 -0.1343
 5398SOL    HW128253   3.342   8.129   5.394 -1.9058 -0.6599  0.3195
 5398SOL    HW228254   3.475   8.112   5.487 -0.0677 -0.4870 -2.2051
 5399SOL     OW28255   3.559   7.084   2.390 -0.7112  0.4532 -0.1122
 5399SOL    HW128256   3.477   7.050   2.344 -0.3035  1.4406 -1.5883
 5399SOL    HW228257   3.562   7.048   2.483 -2.0849 -0.7320 -0.5117
 5400SOL     OW28258   4.098   5.227   2.031  0.4454  0.6187 -0.2107
 5400SOL    HW128259   4.085   5.326   2.031  0.1228  0.5865  0.7004
 5400SOL    HW228260   4.039   5.185   1.963 -1.6172  0.7945  1.4375
 5401SOL     OW28261   3.129   5.371   0.473  0.1973  0.5211 -0.9241
 5401SOL    HW128262   3.089   5.462   0.479 -1.7681 -0.3591  0.0561
 5401SOL    HW228263   3.071   5.313   0.416 -0.0478 -0.8360  0.6671
 5402SOL     OW28264   3.565   9.765   3.626  0.3474 -0.3475 -0.2187
 5402SOL    HW128265   3.582   9.779   3.723  0.4673  0.4314 -0.3522
 5402SOL    HW228266   3.503   9.835   3.592  0.7194 -0.3029 -0.8165
 5403SOL     OW28267   8.513   3.139   8.030  0.1658  0.2844  0.2546
 5403SOL    HW128268   8.561   3.225   8.049  2.8309 -1.1377  0.1976
 5403SOL    HW228269   8.562   3.063   8.071 -0.7641 -1.5020 -1.8006
 5404SOL     OW28270   3.982   5.290   7.115 -0.1899 -0.3034  0.4407
 5404SOL    HW128271   3.901   5.232   7.126 -1.3383  1.0819 -0.4596
 5404SOL    HW228272   3.980   5.333   7.025  0.6039  1.1860  1.1071
 5405SOL     OW28273   0.387   4.112   8.742  0.0611  0.1667 -0.8172
 5405SOL    HW128274   0.412   4.107   8.839 -2.0193  0.0688 -0.2575
 5405SOL    HW228275   0.311   4.177   8.731 -0.5190 -0.7342 -2.2041
 5406SOL     OW28276   7.938   7.447   5.606 -0.4790  0.0219  0.2537
 5406SOL    HW128277   7.995   7.415   5.530  0.5777  0.3302  0.8974
 5406SOL    HW228278   7.843   7.420   5.590 -0.4266  0.8276 -1.5959
 5407SOL     OW28279   7.922   2.007   7.353  0.1367 -0.6248 -0.1997
 5407SOL    HW128280   7.999   1.948   7.380  0.0491 -0.3497  0.6888
 5407SOL    HW228281   7.836   1.962   7.379  0.0427 -0.4601 -0.2301
 5408SOL     OW28282   4.177   6.943   3.983 -0.0176  0.2346 -0.5452
 5408SOL    HW128283   4.263   6.917   3.938  0.3391 -0.5866  0.5741
 5408SOL    HW228284   4.192   7.026   4.037 -0.0723  0.4047 -0.7916
 5409SOL     OW28285   0.910   9.040   2.063 -0.3233 -0.0545  0.5157
 5409SOL    HW128286   0.836   9.069   2.003  1.2001  1.3654 -0.7208
 5409SOL    HW228287   0.947   8.953   2.031 -1.4264 -0.7546  1.1243
 5410SOL     OW28288   5.678   4.744   8.538 -0.1656 -0.7678 -0.4921
 5410SOL    HW128289   5.672   4.716   8.442 -1.2844 -0.8875 -0.3866
 5410SOL    HW228290   5.591   4.727   8.584 -0.5123  1.7593 -0.1234
 5411SOL     OW28291   6.058   9.597   5.277 -0.2397 -0.4144 -0.6873
 5411SOL    HW128292   6.073   9.510   5.323  0.3130 -0.8698 -1.7240
 5411SOL    HW228293   5.967   9.631   5.301 -0.1129 -0.8265  0.4283
 5412SOL     OW28294   2.657   9.902   4.523 -0.2627  0.2924 -0.3218
 5412SOL    HW128295   2.671   9.828   4.589 -0.9469 -0.3814 -0.9088
 5412SOL    HW228296   2.563   9.934   4.529  0.7269  2.9965  1.7987
 5413SOL     OW28297   0.591   6.489   8.114 -0.3903  0.3142 -0.1538
 5413SOL    HW128298   0.569   6.585   8.129 -0.9948  0.3768 -1.3944
 5413SOL    HW228299   0.507   6.437   8.099 -0.0946 -0.4745  0.8493
 5414SOL     OW28300   9.649   4.662   1.930  0.4883  0.5484 -0.3890
 5414SOL    HW128301   9.729   4.603   1.928 -0.9796 -1.5546  1.0962
 5414SOL    HW228302   9.661   4.737   1.865  1.7800 -2.1578 -3.3879
 5415SOL     OW28303   0.309   4.744   4.202 -0.0600 -0.7167  1.0293
 5415SOL    HW128304   0.283   4.817   4.266 -0.8315  0.0990 -0.1877
 5415SOL    HW228305   0.390   4.772   4.150 -1.3167  0.0125 -0.6076
 5416SOL     OW28306   4.258   4.390   9.906  0.1112  0.0846 -0.0295
 5416SOL    HW128307   4.281   4.325   9.978  0.0311 -1.0431 -1.0006
 5416SOL    HW228308   4.338   4.402   9.846  0.4011  1.5344  0.6229
 5417SOL     OW28309   1.830   8.492   8.762 -0.4349 -0.1211 -0.3244
 5417SOL    HW128310   1.846   8.531   8.853  0.6662 -1.2125 -0.0289
 5417SOL    HW228311   1.732   8.481   8.748 -0.6084 -0.1883  0.8391
 5418SOL     OW28312   9.355   0.812   0.796  0.4826  0.2305  0.2633
 5418SOL    HW128313   9.389   0.748   0.864  0.9403  1.6447  1.3877
 5418SOL    HW228314   9.341   0.902   0.838  0.6928  1.1079 -1.4827
 5419SOL     OW28315   3.670   9.392   4.501  0.2571 -0.7952  0.2344
 5419SOL    HW128316   3.688   9.362   4.595  2.5384  0.4101  0.2125
 5419SOL    HW228317   3.670   9.312   4.440  1.9330 -1.2315  0.7991
 5420SOL     OW28318   8.391   6.331   6.558 -0.2039  0.3790  0.0223
 5420SOL    HW128319   8.357   6.424   6.573 -0.3417  0.4736 -0.8584
 5420SOL    HW228320   8.442   6.328   6.472 -1.3711 -0.6707 -0.6455
 5421SOL     OW28321   3.692   3.770   0.691 -0.4497  0.4286 -0.4549
 5421SOL    HW128322   3.712   3.676   0.662 -0.6761  0.1545  0.2706
 5421SOL    HW228323   3.628   3.768   0.768 -0.9129  1.1964 -0.8177
 5422SOL     OW28324   0.521   0.298   9.991  0.2263  0.0648 -0.2168
 5422SOL    HW128325   0.588   0.371  10.003  0.1193 -0.1638  1.8496
 5422SOL    HW228326   0.429   0.334  10.007  0.2440 -0.7245  1.6851
 5423SOL     OW28327   6.033   5.774   7.575  0.5839  0.1636  0.0130
 5423SOL    HW128328   6.008   5.857   7.525 -0.5201  0.8904  1.7224
 5423SOL    HW228329   6.114   5.792   7.631 -0.7521  0.6655  1.8157
 5424SOL     OW28330   6.409   9.236   3.452  0.5136 -0.5523 -0.3712
 5424SOL    HW128331   6.327   9.235   3.393  0.0805  0.0173  0.2164
 5424SOL    HW228332   6.412   9.322   3.502  1.6245 -0.4649 -0.5942
 5425SOL     OW28333   4.076   5.769   9.551 -0.3354  0.4331 -0.1056
 5425SOL    HW128334   4.134   5.703   9.504 -0.8214  0.4022 -0.6674
 5425SOL    HW228335   4.112   5.861   9.536 -0.0187  0.3529  0.1508
 5426SOL     OW28336   3.047   0.246   7.020  0.7306 -0.1014 -0.3015
 5426SOL    HW128337   3.143   0.216   7.018  0.7004 -0.2360  0.4612
 5426SOL    HW228338   3.042   0.339   7.057  0.4845 -0.3697  0.3274
 5427SOL     OW28339   8.130   4.307   0.181 -0.0947 -0.1657  0.3683
 5427SOL    HW128340   8.160   4.321   0.087 -1.2080  1.4863  0.2199
 5427SOL    HW228341   8.209   4.287   0.239  0.4837 -2.1834 -1.0693
 5428SOL     OW28342   4.177   6.190   4.911 -0.3698 -0.1911  0.4328
 5428SOL    HW128343   4.154   6.112   4.969  0.4653 -0.5360  0.2962
 5428SOL    HW228344   4.252   6.166   4.850 -1.0206  0.2746 -0.5729
 5429SOL     OW28345   7.647   6.488   3.505 -0.0640 -0.6983 -0.5043
 5429SOL    HW128346   7.668   6.451   3.415 -2.0846 -0.0460 -1.2904
 5429SOL    HW228347   7.550   6.471   3.526 -0.0762  0.7651  0.7306
 5430SOL     OW28348   8.157   7.122   5.324 -0.2984  0.2621 -0.0991
 5430SOL    HW128349   8.061   7.099   5.335 -0.9640  3.6713  1.8370
 5430SOL    HW228350   8.167   7.191   5.253  0.4100  1.5889  1.2493
 5431SOL     OW28351   5.033   0.461   5.118  0.2869  0.2528  0.0658
 5431SOL    HW128352   5.021   0.469   5.019  1.0191 -0.0032 -0.0454
 5431SOL    HW228353   5.077   0.544   5.153  0.2549  0.2390  0.1389
 5432SOL     OW28354   9.940   2.007   8.736 -0.1309 -0.7874  0.1179
 5432SOL    HW128355   9.938   1.970   8.829 -0.4368 -0.7204  0.1367
 5432SOL    HW228356   9.968   2.103   8.739 -0.4101 -0.7079  0.1651
 5433SOL     OW28357   4.147   8.373   5.490 -0.1501  0.0921  0.0933
 5433SOL    HW128358   4.093   8.365   5.574 -0.3085  1.2330  0.1166
 5433SOL    HW228359   4.158   8.470   5.467  3.1434 -0.0297  0.8927
 5434SOL     OW28360   1.914   2.660   4.225 -0.4375  0.1223 -0.0005
 5434SOL    HW128361   1.866   2.635   4.309 -2.6824 -0.1076 -1.3192
 5434SOL    HW228362   1.919   2.580   4.165 -0.5297  0.7861 -0.8856
 5435SOL     OW28363   2.025   3.031   2.503  0.1983  0.2147  0.4788
 5435SOL    HW128364   1.975   3.110   2.539  0.0176  0.2799  0.0962
 5435SOL    HW228365   2.073   2.985   2.577  1.2849  1.3783  0.5227
 5436SOL     OW28366   5.846   9.787   7.693  0.5035 -0.2360  0.0444
 5436SOL    HW128367   5.871   9.884   7.689 -1.6463  0.4038  1.4283
 5436SOL    HW228368   5.860   9.753   7.785  0.4783 -1.0300 -0.2417
 5437SOL     OW28369   1.021   7.075   8.187  0.2772  0.1674  0.0270
 5437SOL    HW128370   1.068   7.089   8.274  0.3015  1.3121 -0.1608
 5437SOL    HW228371   0.922   7.074   8.202  0.2792  0.4271  0.0583
 5438SOL     OW28372   1.504   6.878   8.593  0.5085  0.4827 -0.3245
 5438SOL    HW128373   1.411   6.841   8.591  1.4169 -1.9591  1.1619
 5438SOL    HW228374   1.562   6.827   8.530  1.5519 -0.0636  1.0503
 5439SOL     OW28375   3.918   2.379   4.397  0.4754 -0.7496 -0.1312
 5439SOL    HW128376   3.840   2.366   4.336  0.4378 -2.2864  0.2287
 5439SOL    HW228377   3.974   2.297   4.398  1.0545 -0.3572  1.0777
 5440SOL     OW28378   0.326   4.656   4.947  0.1586  0.1767  0.2067
 5440SOL    HW128379   0.241   4.634   4.899 -1.7271  1.8118  2.6301
 5440SOL    HW228380   0.384   4.575   4.951 -1.1242 -0.8832 -1.7867
 5441SOL     OW28381   2.399   2.602   3.998  0.1384 -0.2214 -0.0552
 5441SOL    HW128382   2.429   2.535   4.066 -0.1160 -0.1918  0.0883
 5441SOL    HW228383   2.463   2.679   3.997 -0.4462  0.2908  0.9315
 5442SOL     OW28384   4.110   7.952   9.828 -0.2485 -0.3155  0.5843
 5442SOL    HW128385   4.099   7.928   9.731  0.4604  2.0365 -0.1130
 5442SOL    HW228386   4.028   7.923   9.878 -0.8728 -1.0613 -0.8144
 5443SOL     OW28387   4.948   2.094   8.045  0.4900 -0.1346  0.6631
 5443SOL    HW128388   4.915   2.185   8.020  2.8624  0.1203 -1.7655
 5443SOL    HW228389   4.999   2.099   8.130 -0.1150  0.6480  0.9813
 5444SOL     OW28390   0.871   2.039   9.680  0.0983  0.3001 -0.5373
 5444SOL    HW128391   0.954   1.990   9.708 -1.3481 -2.2158 -0.5239
 5444SOL    HW228392   0.817   2.063   9.761  0.8076  1.9792 -0.5427
 5445SOL     OW28393   0.680   2.605   4.287 -0.6425 -0.5659 -0.1251
 5445SOL    HW128394   0.595   2.609   4.339  0.4983 -0.3723  1.7985
 5445SOL    HW228395   0.711   2.511   4.279 -1.0638 -0.6388 -0.8462
 5446SOL     OW28396   8.817   0.145   8.903 -0.3073  0.5506 -0.2107
 5446SOL    HW128397   8.904   0.151   8.855 -0.2652  0.8022 -0.1040
 5446SOL    HW228398   8.817   0.063   8.962  0.1483  0.9548  0.3630
 5447SOL     OW28399   7.128   2.224   3.426 -0.1703  0.0166 -0.5741
 5447SOL    HW128400   7.098   2.241   3.332 -0.7067 -0.4434 -0.4878
 5447SOL    HW228401   7.051   2.188   3.479  0.6568 -1.7049 -0.4961
 5448SOL     OW28402   2.892   2.503   5.297 -0.1902 -0.7704  0.3745
 5448SOL    HW128403   2.874   2.417   5.250 -2.3537 -1.1411  1.7962
 5448SOL    HW228404   2.840   2.577   5.253 -0.5964 -0.7444  0.8821
 5449SOL     OW28405   5.202   7.205   1.773  0.1679 -0.4118  0.0470
 5449SOL    HW128406   5.289   7.158   1.786  0.4187 -0.1391 -0.6291
 5449SOL    HW228407   5.128   7.138   1.772  0.5156 -0.7880 -0.8202
 5450SOL     OW28408   2.230   9.645   1.503  0.3415 -0.5003  0.3109
 5450SOL    HW128409   2.151   9.592   1.533  0.2429 -0.8733 -0.6110
 5450SOL    HW228410   2.239   9.639   1.404  1.5960 -0.5584  0.4173
 5451SOL     OW28411   8.418   0.657   3.059 -0.1364 -0.0602 -0.2111
 5451SOL    HW128412   8.434   0.711   2.976  1.5311 -0.1834  0.0077
 5451SOL    HW228413   8.505   0.619   3.091 -1.0944 -1.8526  0.3454
 5452SOL     OW28414   4.568   2.983   5.057  0.7385 -0.1820  0.2279
 5452SOL    HW128415   4.655   2.998   5.103  0.2581  1.2188  0.6952
 5452SOL    HW228416   4.498   3.040   5.099 -0.1466 -0.4059 -0.9309
 5453SOL     OW28417   3.583   6.084   7.072  0.4000  0.3309 -0.0348
 5453SOL    HW128418   3.546   6.141   7.146 -1.4824 -1.0586  0.1287
 5453SOL    HW228419   3.594   6.140   6.990  0.0871  1.3060  0.5805
 5454SOL     OW28420   0.758   7.843   4.376 -0.2224 -0.2446 -0.2878
 5454SOL    HW128421   0.731   7.771   4.440  0.5561 -1.4930 -1.3555
 5454SOL    HW228422   0.778   7.927   4.427 -1.9545 -0.5219  0.8919
 5455SOL     OW28423   4.748   2.568   8.089 -0.0964  0.3263  0.0229
 5455SOL    HW128424   4.703   2.516   8.016 -0.9206  0.3546  0.5089
 5455SOL    HW228425   4.742   2.666   8.069  0.5803  0.2867 -0.3870
 5456SOL     OW28426   8.572   6.876   2.317 -0.5420  0.3823 -0.2501
 5456SOL    HW128427   8.607   6.961   2.278 -1.0766  0.5293 -0.4087
 5456SOL    HW228428   8.530   6.895   2.406 -1.7829  0.4916 -0.8516
 5457SOL     OW28429   3.258   4.279   5.520 -0.2673 -0.0963 -0.5068
 5457SOL    HW128430   3.180   4.314   5.571 -0.0554 -0.0772 -0.1927
 5457SOL    HW228431   3.280   4.187   5.552 -0.3036 -0.1922 -0.7545
 5458SOL     OW28432   8.889   3.929   4.307  0.2518  0.4530 -0.4062
 5458SOL    HW128433   8.892   4.025   4.332 -1.3296  0.4408 -0.0769
 5458SOL    HW228434   8.798   3.892   4.327  0.3767 -0.7390 -1.8796
 5459SOL     OW28435   9.685   3.840   9.731 -0.0017 -0.1705 -0.6320
 5459SOL    HW128436   9.622   3.763   9.728 -0.8691  0.3808  2.0047
 5459SOL    HW228437   9.634   3.925   9.744  1.0034  0.7717 -2.6887
 5460SOL     OW28438   0.126   6.013   3.182 -0.2132  0.3251  0.1083
 5460SOL    HW128439   0.215   6.055   3.166 -0.0160  0.0964  0.5905
 5460SOL    HW228440   0.081   5.995   3.094  1.0957 -1.4455 -0.2324
 5461SOL     OW28441   2.758   0.128   3.783  0.0354  0.0567  0.4616
 5461SOL    HW128442   2.811   0.122   3.868 -0.0633 -0.2112  0.5041
 5461SOL    HW228443   2.690   0.055   3.781 -0.1950  0.2761  0.3118
 5462SOL     OW28444   1.739   1.110   9.755  0.1903  0.4658  0.1343
 5462SOL    HW128445   1.769   1.164   9.833  0.6055 -0.1209  0.3861
 5462SOL    HW228446   1.760   1.013   9.771  2.1231  0.5713 -1.5625
 5463SOL     OW28447   1.883   5.579   1.239  0.5170 -0.4456 -0.4280
 5463SOL    HW128448   1.875   5.508   1.310 -2.5739  0.6508  0.4131
 5463SOL    HW228449   1.823   5.556   1.162  0.7343  0.4315 -0.8688
 5464SOL     OW28450   3.147   2.611   6.026  0.0145  0.0615 -0.1637
 5464SOL    HW128451   3.154   2.516   6.055  1.3205 -0.1870 -1.1937
 5464SOL    HW228452   3.066   2.653   6.065 -1.2355 -1.8316 -0.6805
 5465SOL     OW28453   3.058   9.406   1.492  0.1033  0.0968  0.4975
 5465SOL    HW128454   3.143   9.447   1.524  0.4663  0.8039 -1.3130
 5465SOL    HW228455   3.038   9.324   1.547  1.6473  0.2307  1.2955
 5466SOL     OW28456   8.002   4.945   8.707  0.7928 -0.1325  0.3925
 5466SOL    HW128457   8.011   5.037   8.670 -0.2089 -0.1688  0.0446
 5466SOL    HW228458   8.080   4.889   8.678  1.6388  0.7236  0.9796
 5467SOL     OW28459   4.666   1.607   1.677  0.0168  0.2209  0.6179
 5467SOL    HW128460   4.577   1.597   1.633  0.5866 -0.5916 -0.3666
 5467SOL    HW228461   4.711   1.690   1.644  0.7941 -0.8057 -1.0045
 5468SOL     OW28462   9.906   6.284   0.054 -0.0110 -0.6152  0.0457
 5468SOL    HW128463   9.924   6.302  -0.043 -0.9204 -1.6054 -0.3159
 5468SOL    HW228464   9.847   6.203   0.063  1.5997 -1.6692  1.4978
 5469SOL     OW28465   0.738   9.410   4.939 -0.5068 -0.1120  0.3569
 5469SOL    HW128466   0.700   9.503   4.935  0.8923  0.4530 -0.2618
 5469SOL    HW228467   0.717   9.362   4.854 -1.3664 -0.4262  0.7404
 5470SOL     OW28468   0.743   5.181   1.175  0.5503  0.2203  0.0170
 5470SOL    HW128469   0.656   5.134   1.189  0.1704 -0.0702 -2.9829
 5470SOL    HW228470   0.812   5.115   1.147  0.5386  1.0717 -2.1590
 5471SOL     OW28471   2.397   3.114   8.390  0.1892  0.1220  0.2481
 5471SOL    HW128472   2.302   3.113   8.361 -0.2926  0.5000  1.7410
 5471SOL    HW228473   2.451   3.169   8.327 -0.3674 -1.0007 -1.2195
 5472SOL     OW28474   9.498   2.850   2.289  0.5113 -0.3026  0.2993
 5472SOL    HW128475   9.446   2.794   2.224 -0.3803 -1.9399  2.3558
 5472SOL    HW228476   9.594   2.852   2.262  0.1428 -0.9422 -1.0873
 5473SOL     OW28477   1.490   2.582   1.698  0.5068  0.4807 -0.2251
 5473SOL    HW128478   1.420   2.645   1.665  2.0366  1.3943 -1.7847
 5473SOL    HW228479   1.498   2.504   1.636 -1.0588 -1.0696  1.4524
 5474SOL     OW28480   1.470   8.670   6.137  0.5954 -0.7320 -0.3348
 5474SOL    HW128481   1.490   8.747   6.077 -0.2671 -1.3701 -1.4722
 5474SOL    HW228482   1.512   8.587   6.100 -1.0403 -1.3808 -0.7991
 5475SOL     OW28483   4.020   1.189   9.858 -0.2717  0.3814  0.9392
 5475SOL    HW128484   4.049   1.144   9.774 -0.5796 -2.5071  2.3267
 5475SOL    HW228485   4.033   1.288   9.849  1.8524 -0.0789 -1.6247
 5476SOL     OW28486   3.360   5.105   0.644 -0.2325  0.4323 -0.5106
 5476SOL    HW128487   3.420   5.116   0.565  0.2593  0.3611 -0.1473
 5476SOL    HW228488   3.405   5.140   0.726  0.0190 -1.1831  0.0689
 5477SOL     OW28489   9.553   0.167   8.616 -0.1663  0.2855 -0.9428
 5477SOL    HW128490   9.543   0.259   8.578  0.6018  0.6757 -0.2149
 5477SOL    HW228491   9.649   0.151   8.641 -1.2022  1.5151  4.4642
 5478SOL     OW28492   3.861   4.198   1.144  0.3987  0.4627 -0.2818
 5478SOL    HW128493   3.788   4.194   1.212  0.4006  0.3435 -0.2882
 5478SOL    HW228494   3.927   4.126   1.162 -0.2202 -0.3201 -1.1267
 5479SOL     OW28495   9.884   5.953   8.957 -0.2950 -0.0846 -0.2619
 5479SOL    HW128496   9.944   5.933   9.034  0.3396  0.2158 -0.6764
 5479SOL    HW228497   9.920   6.031   8.906 -1.1509  0.2384 -0.3901
 5480SOL     OW28498   1.438   5.346   9.674  0.1324  0.2182 -0.3423
 5480SOL    HW128499   1.340   5.334   9.688  0.1503  0.0960 -0.3152
 5480SOL    HW228500   1.488   5.276   9.726  0.2001 -0.2651 -1.0389
 5481SOL     OW28501   3.348   4.192   9.662  0.1268 -0.5747 -0.2044
 5481SOL    HW128502   3.313   4.258   9.729  1.0302 -0.5386  0.2341
 5481SOL    HW228503   3.441   4.165   9.687  0.6371 -0.2341 -1.7020
 5482SOL     OW28504   2.545   5.932   0.276 -0.1763  0.2115 -0.3738
 5482SOL    HW128505   2.577   5.877   0.199  0.5141  0.7107 -0.4438
 5482SOL    HW228506   2.497   6.013   0.241  0.2780  0.5202 -0.2794
 5483SOL     OW28507   4.166   4.587   7.680 -0.5719 -0.5419 -0.2312
 5483SOL    HW128508   4.219   4.625   7.603 -0.3504 -0.0590  0.1564
 5483SOL    HW228509   4.132   4.497   7.655 -0.5647 -0.3579 -0.9313
 5484SOL     OW28510   8.174   0.177   2.776 -0.3249  0.1007 -0.2894
 5484SOL    HW128511   8.133   0.267   2.795 -3.8062 -1.2647 -0.9479
 5484SOL    HW228512   8.158   0.152   2.681  0.9923 -1.0324 -0.2258
 5485SOL     OW28513   5.895   8.493   5.380 -0.1735 -0.1271 -0.1396
 5485SOL    HW128514   5.951   8.488   5.297  1.7296 -1.0821  1.1425
 5485SOL    HW228515   5.840   8.410   5.388  0.7663 -0.7296  0.2811
 5486SOL     OW28516   9.325   3.587   4.340 -0.4167  0.3871  0.1586
 5486SOL    HW128517   9.379   3.584   4.424 -1.9695  0.4785  1.1882
 5486SOL    HW228518   9.371   3.644   4.272  0.6152  0.7141  1.1197
 5487SOL     OW28519   2.577   2.742   2.206 -0.2523  0.3298  0.3799
 5487SOL    HW128520   2.522   2.773   2.129  0.4132  0.1236 -0.1848
 5487SOL    HW228521   2.674   2.762   2.189 -0.2404  1.5153  1.7722
 5488SOL     OW28522   0.677   5.267   5.321 -0.5948  1.0617  0.1404
 5488SOL    HW128523   0.654   5.190   5.261 -0.6229  1.1785  0.0001
 5488SOL    HW228524   0.672   5.238   5.416 -1.0526  1.0161  0.1006
 5489SOL     OW28525   2.153   2.779   3.891  0.5233 -0.3892  0.4120
 5489SOL    HW128526   2.081   2.757   3.825 -0.6352 -0.7377  1.7682
 5489SOL    HW228527   2.173   2.699   3.948 -0.5482  0.7103  2.3933
 5490SOL     OW28528   5.872   6.001   0.345  0.2920 -0.5489  0.4010
 5490SOL    HW128529   5.902   6.093   0.320  1.2757 -0.8855  0.3191
 5490SOL    HW228530   5.797   6.007   0.411  0.3507  0.3073  0.3943
 5491SOL     OW28531   0.070   3.757   6.631 -0.0880  0.5984 -0.7665
 5491SOL    HW128532   0.039   3.665   6.653  0.2048  0.4250 -1.0687
 5491SOL    HW228533   0.043   3.820   6.704 -2.1618  0.6613 -1.5495
 5492SOL     OW28534   1.024   4.525   7.639 -0.1154 -0.3788 -0.0510
 5492SOL    HW128535   0.957   4.593   7.607  0.0585  0.3653  1.1368
 5492SOL    HW228536   1.076   4.490   7.561 -0.3428  0.7075 -0.7022
 5493SOL     OW28537   7.724   0.182   7.947  0.4039 -0.5040 -0.4520
 5493SOL    HW128538   7.661   0.135   7.886 -0.8564  0.2766  0.2493
 5493SOL    HW228539   7.740   0.125   8.028  0.3934 -0.5772 -0.5001
 5494SOL     OW28540   2.573   0.725   8.198 -0.1923 -0.4101  0.6020
 5494SOL    HW128541   2.652   0.748   8.141 -0.8520  1.0031  0.2262
 5494SOL    HW228542   2.604   0.691   8.286  0.8603  2.1812  1.2769
 5495SOL     OW28543   8.698   4.454   5.750  0.0405  0.0232 -0.0508
 5495SOL    HW128544   8.626   4.411   5.696 -0.2430  0.2318  0.1627
 5495SOL    HW228545   8.691   4.553   5.741  0.0814  0.0522  0.2600
 5496SOL     OW28546   5.709   8.397   2.837 -0.3636 -0.3247  0.2220
 5496SOL    HW128547   5.775   8.329   2.867  1.0045  0.8496 -0.0704
 5496SOL    HW228548   5.699   8.393   2.737 -0.6370 -0.4147  0.2520
 5497SOL     OW28549   2.506   8.817   1.919 -0.0384 -0.1597 -0.0635
 5497SOL    HW128550   2.535   8.731   1.877  1.0799 -0.4975  1.3503
 5497SOL    HW228551   2.436   8.798   1.988  1.7096 -0.2071  1.7387
 5498SOL     OW28552   7.835   0.269   3.309  0.1862 -0.3314 -0.5724
 5498SOL    HW128553   7.906   0.201   3.291 -0.3546 -1.0690  0.0805
 5498SOL    HW228554   7.876   0.360   3.309  1.2552 -0.8003  0.4471
 5499SOL     OW28555   7.735   7.682   8.360  0.1775 -0.0957 -0.5964
 5499SOL    HW128556   7.737   7.601   8.418 -0.3380 -0.0640 -0.5343
 5499SOL    HW228557   7.642   7.718   8.355 -0.0704 -0.9680 -2.6554
 5500SOL     OW28558   4.364   0.615   8.287 -0.4822  0.1488  0.2425
 5500SOL    HW128559   4.283   0.620   8.228 -0.4835  0.3656  0.2629
 5500SOL    HW228560   4.353   0.539   8.352 -1.0326  0.6993  0.7918
 5501SOL     OW28561   8.446   2.895   0.508 -0.2203  0.5227 -0.4652
 5501SOL    HW128562   8.356   2.887   0.552  0.5416 -4.4454  0.4831
 5501SOL    HW228563   8.510   2.936   0.572 -0.5754 -0.9856  0.8986
 5502SOL     OW28564   2.272   0.509   9.227 -0.6867 -0.2779 -0.3265
 5502SOL    HW128565   2.265   0.600   9.266 -1.2870 -0.5671  0.2483
 5502SOL    HW228566   2.335   0.511   9.149  1.0725  0.1575  1.0594
 5503SOL     OW28567   1.075   5.126   9.861 -0.0590 -0.0373 -0.4291
 5503SOL    HW128568   1.065   5.224   9.848 -0.6159 -0.2414 -1.6103
 5503SOL    HW228569   1.111   5.084   9.778 -1.0079 -0.9899 -0.3846
 5504SOL     OW28570   1.598   0.979   4.968 -0.0223 -0.2106  0.2988
 5504SOL    HW128571   1.523   0.921   5.003 -0.3004 -0.0502 -0.0329
 5504SOL    HW228572   1.681   0.961   5.021 -0.5683  0.3780  1.3594
 5505SOL     OW28573   1.168   4.620   4.233  0.4639 -0.3002 -0.1695
 5505SOL    HW128574   1.133   4.682   4.303 -0.7002 -0.2163 -0.8158
 5505SOL    HW228575   1.115   4.535   4.234  0.0510 -0.0685 -1.3292
 5506SOL     OW28576   2.435   8.898   7.785 -0.4903 -0.5077  0.6838
 5506SOL    HW128577   2.485   8.896   7.698 -1.6976  1.7154 -0.0999
 5506SOL    HW228578   2.494   8.934   7.857 -0.3656  0.2879  0.1793
 5507SOL     OW28579   1.506   6.496   9.020  0.7381  0.3734 -0.3239
 5507SOL    HW128580   1.453   6.531   8.943 -3.0126 -2.2823  0.9276
 5507SOL    HW228581   1.525   6.399   9.005 -0.8765 -0.4175  2.4835
 5508SOL     OW28582   9.686   4.405   5.552  0.5565  0.2125 -0.0540
 5508SOL    HW128583   9.641   4.491   5.527  0.0501 -0.1480 -0.3925
 5508SOL    HW228584   9.785   4.418   5.552  0.4918  0.7364 -0.3313
 5509SOL     OW28585   1.545   0.602   6.821  0.4210  0.1650  0.4983
 5509SOL    HW128586   1.604   0.586   6.900  0.0104 -2.4923  0.3150
 5509SOL    HW228587   1.565   0.535   6.750 -1.6944  0.2250 -0.2031
 5510SOL     OW28588   6.564   0.987   2.143  0.2615 -0.5097 -0.0656
 5510SOL    HW128589   6.555   1.087   2.139  1.6094 -0.4196 -1.9850
 5510SOL    HW228590   6.474   0.946   2.155  0.0554  1.0368  4.3104
 5511SOL     OW28591   2.274   6.836   6.729 -0.3350  0.1625 -0.5093
 5511SOL    HW128592   2.319   6.889   6.657 -0.3919 -0.8047 -1.2790
 5511SOL    HW228593   2.230   6.756   6.688 -1.7535  0.4641  0.3897
 5512SOL     OW28594   7.968   3.804   2.808 -0.2443  0.3528 -0.5823
 5512SOL    HW128595   8.061   3.782   2.837 -1.0937 -1.2570  0.9837
 5512SOL    HW228596   7.954   3.903   2.813  0.3572  0.3283  2.3702
 5513SOL     OW28597   3.454   8.755   3.332  0.6255 -0.0534  0.2979
 5513SOL    HW128598   3.533   8.808   3.301 -0.6113  1.7296  0.0977
 5513SOL    HW228599   3.420   8.698   3.257  0.8782  0.2340 -0.0325
 5514SOL     OW28600   2.475   0.949   9.385  0.2917  0.2864 -0.1908
 5514SOL    HW128601   2.399   0.972   9.446  0.4815  1.1079 -0.2548
 5514SOL    HW228602   2.451   0.974   9.291 -0.8927 -3.0396 -0.8377
 5515SOL     OW28603   9.877   6.955   0.783 -0.5699 -0.9086  0.1695
 5515SOL    HW128604   9.937   7.003   0.848 -0.8659 -0.5323  0.1684
 5515SOL    HW228605   9.933   6.896   0.724  0.1558  1.5826 -1.7145
 5516SOL     OW28606   5.477   4.594   0.818 -0.5609  0.2936  0.2172
 5516SOL    HW128607   5.539   4.561   0.890  0.3055 -2.8339 -1.8148
 5516SOL    HW228608   5.429   4.675   0.850  0.6615 -0.2924  3.8667
 5517SOL     OW28609   2.391   2.100   9.270 -0.0532 -0.1852  0.1304
 5517SOL    HW128610   2.388   2.009   9.228 -4.3096 -1.1878  2.2856
 5517SOL    HW228611   2.397   2.170   9.199  0.7428 -2.0460 -1.6812
 5518SOL     OW28612   0.667   4.340   7.042 -0.2360 -0.1395 -0.0936
 5518SOL    HW128613   0.586   4.302   7.087  0.4481  0.2323  1.5085
 5518SOL    HW228614   0.665   4.440   7.049  0.7696 -0.1679  0.7009
 5519SOL     OW28615   9.744   4.024   5.312  0.2032 -0.0189  0.0446
 5519SOL    HW128616   9.678   4.067   5.250  1.7997  1.4210 -0.7209
 5519SOL    HW228617   9.814   4.091   5.336  2.3377 -1.9842 -0.5377
 5520SOL     OW28618   6.240   1.996   1.760 -0.3712 -0.2959 -0.7399
 5520SOL    HW128619   6.220   2.049   1.677 -0.5179  0.0231 -0.5007
 5520SOL    HW228620   6.187   1.911   1.759  0.2218 -0.6593 -1.3517
 5521SOL     OW28621   1.424   1.162   7.691 -0.2804  0.2653  0.7104
 5521SOL    HW128622   1.376   1.075   7.675  0.2264  0.0577  0.3148
 5521SOL    HW228623   1.433   1.177   7.789 -2.8336  1.2212  0.8288
 5522SOL     OW28624   3.204   8.919   7.326 -0.0601  0.0895 -0.0342
 5522SOL    HW128625   3.257   8.893   7.407 -2.0574 -0.2778  1.1956
 5522SOL    HW228626   3.157   9.006   7.344 -0.8722 -0.2190 -0.6312
 5523SOL     OW28627   3.888   4.490   2.990  0.0826 -0.0103 -0.2726
 5523SOL    HW128628   3.824   4.541   2.933  0.2852  0.5912  0.0353
 5523SOL    HW228629   3.842   4.461   3.074 -0.5059 -1.7570 -1.1670
 5524SOL     OW28630   6.678   2.009   0.078  0.2817  0.0260  0.4227
 5524SOL    HW128631   6.749   1.984   0.143  1.0272 -0.8473 -0.7130
 5524SOL    HW228632   6.609   1.937   0.074 -1.0389  1.1670  2.0110
 5525SOL     OW28633   7.378   4.839   7.189  0.0062 -0.0422 -0.0802
 5525SOL    HW128634   7.439   4.915   7.170 -1.1132  0.9048  0.0763
 5525SOL    HW228635   7.286   4.873   7.208  0.7257 -0.9066  6.0313
 5526SOL     OW28636   8.175   2.476   6.393  0.2009 -0.5037  0.0952
 5526SOL    HW128637   8.196   2.386   6.431 -1.3154 -2.2355 -2.9787
 5526SOL    HW228638   8.115   2.526   6.456 -1.4905 -2.8991  0.4617
 5527SOL     OW28639   1.718   9.332   8.635  0.6994 -0.0395 -0.7999
 5527SOL    HW128640   1.722   9.417   8.584  0.0294  1.1302  1.0545
 5527SOL    HW228641   1.809   9.308   8.668  0.4815  1.3379  0.8575
 5528SOL     OW28642   9.491   7.609   2.827  0.2562  0.4452 -0.0079
 5528SOL    HW128643   9.551   7.639   2.901 -0.8936 -2.0707  2.0541
 5528SOL    HW228644   9.537   7.537   2.775  0.1103  0.4904 -0.1980
 5529SOL     OW28645   2.670   6.990   5.631  0.1623  0.0987  0.0206
 5529SOL    HW128646   2.645   7.037   5.715  1.1894 -1.5866  1.2963
 5529SOL    HW228647   2.751   7.033   5.592  0.4869  0.0394  0.6238
 5530SOL     OW28648   7.483   3.656   9.282  0.0044 -0.2542  0.0258
 5530SOL    HW128649   7.490   3.694   9.374 -0.9850 -2.9674  1.2675
 5530SOL    HW228650   7.396   3.682   9.241  0.7478  1.5447 -0.4420
 5531SOL     OW28651   0.762   9.848   2.598  0.5591  0.4176  0.3941
 5531SOL    HW128652   0.687   9.909   2.624 -1.3904 -0.5335 -2.6500
 5531SOL    HW228653   0.725   9.769   2.548  3.3382 -1.5896  1.3821
 5532SOL     OW28654   1.270   5.377   7.316  0.3214 -0.0969  0.0704
 5532SOL    HW128655   1.172   5.358   7.310  0.3938 -0.6201  0.4962
 5532SOL    HW228656   1.285   5.475   7.317 -0.2082 -0.0160  0.1406
 5533SOL     OW28657   0.904   3.689   9.301 -0.4853 -0.2338 -0.4614
 5533SOL    HW128658   0.993   3.675   9.257 -0.9149 -2.3948 -0.7151
 5533SOL    HW228659   0.834   3.640   9.249 -1.5167 -0.1093  0.8034
 5534SOL     OW28660   2.222   6.465   4.058 -0.8052 -0.2480  0.2745
 5534SOL    HW128661   2.272   6.517   3.988  0.1163 -0.6867  0.5971
 5534SOL    HW228662   2.185   6.528   4.126 -0.2889  0.0453  0.2873
 5535SOL     OW28663   8.985   4.938   4.476  0.3472  0.1678  0.0510
 5535SOL    HW128664   9.043   4.867   4.515  0.6005  1.2931  1.7564
 5535SOL    HW228665   8.992   4.935   4.376  0.8350 -1.7806  0.1246
 5536SOL     OW28666   8.717   1.674   7.938 -0.2239 -0.3049 -0.1438
 5536SOL    HW128667   8.761   1.620   7.867  0.9407 -0.1736  0.4660
 5536SOL    HW228668   8.702   1.617   8.019 -2.3343 -0.6940 -0.7685
 5537SOL     OW28669   9.881   6.968   5.656  0.0821 -0.3880 -0.1402
 5537SOL    HW128670   9.943   6.948   5.731 -0.4341 -1.0174  0.1248
 5537SOL    HW228671   9.932   6.974   5.570  0.6777  0.3892  0.2722
 5538SOL     OW28672   1.789   1.446   1.132 -0.5574  0.0063 -0.0754
 5538SOL    HW128673   1.816   1.542   1.141  0.7803 -0.4053  0.3049
 5538SOL    HW228674   1.731   1.436   1.050  1.1039  0.7672 -1.3832
 5539SOL     OW28675   3.522   7.383   4.549  0.1265 -0.3804 -0.2685
 5539SOL    HW128676   3.493   7.430   4.632  1.4981 -0.5501  0.3170
 5539SOL    HW228677   3.553   7.451   4.482 -0.6531 -0.2656 -0.5142
 5540SOL     OW28678   7.485   5.835   0.602  0.7969 -0.1305  0.1707
 5540SOL    HW128679   7.501   5.833   0.503 -0.1974  0.6181 -0.0081
 5540SOL    HW228680   7.562   5.791   0.648  2.1186  1.0623 -0.8285
 5541SOL     OW28681   1.257   3.633   5.187 -0.1306  0.4170  0.2993
 5541SOL    HW128682   1.275   3.535   5.176 -0.3451  0.5014 -0.8408
 5541SOL    HW228683   1.294   3.664   5.275  0.8039 -0.4785  0.2298
 5542SOL     OW28684   8.740   9.154   0.181 -0.1167 -0.5944  0.2129
 5542SOL    HW128685   8.658   9.115   0.139 -0.5151  2.9419 -2.4854
 5542SOL    HW228686   8.714   9.226   0.245  0.8330  3.3229 -3.5737
 5543SOL     OW28687   6.705   0.063   6.149  0.5908  0.7643 -0.1791
 5543SOL    HW128688   6.793   0.073   6.102  1.3000  1.0330  1.1723
 5543SOL    HW228689   6.682   0.149   6.195  0.7307 -0.0096  1.3452
 5544SOL     OW28690   8.314   6.914   3.763  0.2674 -0.3297  0.2509
 5544SOL    HW128691   8.315   6.872   3.673  1.1664  0.2053  0.0028
 5544SOL    HW228692   8.221   6.941   3.786  0.2992  1.2040 -1.3142
 5545SOL     OW28693   2.046   1.605   8.054 -0.1284  0.5871  0.2194
 5545SOL    HW128694   2.032   1.701   8.078 -0.3471  0.6481 -0.1341
 5545SOL    HW228695   2.083   1.555   8.132  0.4661  1.0681  0.2404
 5546SOL     OW28696   7.639   2.495   4.325 -0.1499  0.2357 -0.2985
 5546SOL    HW128697   7.645   2.582   4.276 -0.8561  0.2245 -0.4183
 5546SOL    HW228698   7.548   2.487   4.366  0.4040  0.2002  0.9296
 5547SOL     OW28699   8.561   9.460   6.769 -0.0568 -0.3413  0.0718
 5547SOL    HW128700   8.574   9.506   6.681 -0.4965  0.2893  0.3416
 5547SOL    HW228701   8.530   9.366   6.753 -2.5470  0.5440 -0.3955
 5548SOL     OW28702   9.474   2.112   5.959  0.5187 -0.3436 -0.2048
 5548SOL    HW128703   9.495   2.064   5.874  0.6826 -0.7924  0.0853
 5548SOL    HW228704   9.392   2.073   6.000 -0.4730  0.9186 -0.9600
 5549SOL     OW28705   2.493   7.976   6.389  0.0168  0.4410  0.0602
 5549SOL    HW128706   2.406   8.021   6.369 -1.3155 -1.1485  1.9682
 5549SOL    HW228707   2.561   8.043   6.417 -1.4832  1.4235  1.3923
 5550SOL     OW28708   9.211   4.246   6.310 -0.8548  0.2626 -0.2731
 5550SOL    HW128709   9.166   4.261   6.398 -0.1810 -0.9735  0.2910
 5550SOL    HW228710   9.221   4.334   6.262 -1.9510  0.8285  0.5173
 5551SOL     OW28711   4.059   4.605   6.391 -0.6297 -0.0707 -0.9556
 5551SOL    HW128712   3.987   4.654   6.342 -0.5564 -0.3517 -1.3524
 5551SOL    HW228713   4.078   4.651   6.478  1.0132  1.9528 -2.3064
 5552SOL     OW28714   3.731   8.003   7.828  0.6314 -0.0144  0.0436
 5552SOL    HW128715   3.762   7.912   7.855  0.1149 -0.5523 -1.1083
 5552SOL    HW228716   3.677   8.043   7.902  0.3677 -0.8867  0.3325
 5553SOL     OW28717   8.624   3.107   3.050 -0.2185 -0.1315  0.2510
 5553SOL    HW128718   8.644   3.143   3.142 -1.3371 -2.1358  1.3215
 5553SOL    HW228719   8.528   3.125   3.028 -0.9014 -2.7650  0.9756
 5554SOL     OW28720   7.565   3.008   5.895 -0.4940  0.3028 -0.0789
 5554SOL    HW128721   7.527   3.097   5.870 -2.2559 -0.5319 -0.4097
 5554SOL    HW228722   7.536   2.983   5.987 -1.8312 -0.9182 -0.8179
 5555SOL     OW28723   1.748   1.761   9.694 -0.5749  0.4106 -0.4236
 5555SOL    HW128724   1.679   1.763   9.622 -0.6571 -0.3247 -0.3700
 5555SOL    HW228725   1.753   1.851   9.739 -1.1650  0.5950 -0.7285
 5556SOL     OW28726   2.417   9.330   2.246  0.2238  0.1987 -0.9503
 5556SOL    HW128727   2.333   9.326   2.302  0.6419 -2.0991 -0.4445
 5556SOL    HW228728   2.478   9.400   2.283 -1.0261  1.1814 -0.7033
 5557SOL     OW28729   9.955   8.149   6.391 -0.1425 -0.0333  0.3650
 5557SOL    HW128730   9.968   8.212   6.314  0.1903 -0.6116 -0.0512
 5557SOL    HW228731   9.894   8.192   6.458 -0.1924  0.5958 -0.0742
 5558SOL     OW28732   7.754   9.611   5.552  0.1114  0.5012  0.2834
 5558SOL    HW128733   7.676   9.625   5.492  1.2735 -2.6953 -2.1329
 5558SOL    HW228734   7.810   9.694   5.555 -0.9305  1.3002 -1.6413
 5559SOL     OW28735   7.714   6.224   7.365  0.0130 -0.0248 -0.0388
 5559SOL    HW128736   7.662   6.307   7.348 -0.4038 -0.2515  0.1376
 5559SOL    HW228737   7.734   6.179   7.278 -0.3199 -0.0829 -0.0852
 5560SOL     OW28738   0.720   0.390   8.481 -0.0014  0.0510  0.7412
 5560SOL    HW128739   0.681   0.320   8.541  0.0767  0.0126  0.7465
 5560SOL    HW228740   0.646   0.449   8.447  0.1097  0.8773  1.9143
 5561SOL     OW28741   0.536   1.391   4.250  0.6882 -0.2348 -0.5877
 5561SOL    HW128742   0.593   1.440   4.183 -0.5394  0.0260 -1.4623
 5561SOL    HW228743   0.579   1.304   4.272  1.0756 -0.3712 -1.7988
 5562SOL     OW28744   2.885   7.387   7.413  0.4477  0.3772  0.5548
 5562SOL    HW128745   2.845   7.312   7.466 -1.4999  1.7937  1.1414
 5562SOL    HW228746   2.942   7.443   7.473 -0.3592  0.9769  0.7693
 5563SOL     OW28747   2.925   8.757   4.751  0.3004 -0.4545 -0.4918
 5563SOL    HW128748   2.852   8.711   4.802  0.6104  0.4314  0.7909
 5563SOL    HW228749   2.948   8.843   4.797  0.8063  0.2167 -1.9761
 5564SOL     OW28750   8.452   3.651   6.650  0.3646  0.1312  0.0522
 5564SOL    HW128751   8.389   3.577   6.672 -0.5678  1.1456  0.8511
 5564SOL    HW228752   8.491   3.687   6.735 -0.5875  1.7666 -0.1978
 5565SOL     OW28753   1.558   1.232  10.069  0.0430 -0.1849  0.0982
 5565SOL    HW128754   1.583   1.135  10.069  0.2475 -0.1445 -1.0369
 5565SOL    HW228755   1.618   1.282  10.131 -1.1528 -1.0427  1.9692
 5566SOL     OW28756   8.848   8.056   6.012  0.5881 -0.1168 -0.0175
 5566SOL    HW128757   8.867   8.047   6.110  0.3077 -0.0562  0.0422
 5566SOL    HW228758   8.835   8.152   5.989 -2.9848 -0.3969  0.5711
 5567SOL     OW28759   3.331   3.793   0.524  0.5903  0.5277 -0.9925
 5567SOL    HW128760   3.371   3.712   0.565 -0.8860  0.4461  0.3427
 5567SOL    HW228761   3.269   3.765   0.450 -0.0067  0.4041 -0.4576
 5568SOL     OW28762   0.184   6.539   9.475 -0.1584  0.2579 -0.2615
 5568SOL    HW128763   0.084   6.534   9.483 -0.0596 -0.8419  0.3109
 5568SOL    HW228764   0.212   6.501   9.388 -0.2103  0.2836 -0.2896
 5569SOL     OW28765   4.761   0.249   1.698  0.3995 -0.2396  0.4610
 5569SOL    HW128766   4.680   0.307   1.687  0.6399 -0.2477 -1.4994
 5569SOL    HW228767   4.734   0.159   1.732 -0.3962 -0.1949 -0.0538
 5570SOL     OW28768   9.057   8.293   5.636 -0.0099  0.4889  0.5482
 5570SOL    HW128769   9.117   8.337   5.703 -0.4491  0.7388  0.7723
 5570SOL    HW228770   9.000   8.225   5.682 -1.3442  1.6834  0.6689
 5571SOL     OW28771   0.410   2.672   8.622  0.0226 -0.1752  0.3034
 5571SOL    HW128772   0.421   2.585   8.575  0.9338 -0.3738  0.8584
 5571SOL    HW228773   0.327   2.718   8.590 -0.7699 -1.5097  0.4335
 5572SOL     OW28774   9.815   3.644   0.193  0.6017  0.5130 -0.0819
 5572SOL    HW128775   9.749   3.611   0.261  2.3695  0.5385  1.6632
 5572SOL    HW228776   9.767   3.658   0.106 -1.4504 -0.6739  0.7984
 5573SOL     OW28777   2.776   7.200   0.843 -0.0145  0.4259 -0.0929
 5573SOL    HW128778   2.702   7.185   0.909  0.5525 -0.2903  0.3935
 5573SOL    HW228779   2.789   7.299   0.829 -0.9035  0.5586 -0.0113
 5574SOL     OW28780   8.119   5.478   8.470 -0.3407 -0.1372 -0.5092
 5574SOL    HW128781   8.088   5.534   8.393 -0.3835  0.0406 -0.3649
 5574SOL    HW228782   8.201   5.519   8.509 -1.0521  0.4972  0.3507
 5575SOL     OW28783   4.679   3.784   1.108  0.0497  0.5222  0.0176
 5575SOL    HW128784   4.746   3.789   1.035  1.0264  2.2826  1.0145
 5575SOL    HW228785   4.720   3.740   1.188 -0.5067  0.1037  0.0811
 5576SOL     OW28786   0.818   9.649   7.152  0.0283 -0.2584  0.0204
 5576SOL    HW128787   0.845   9.560   7.190  1.8673  0.9796  1.6706
 5576SOL    HW228788   0.891   9.684   7.094 -0.5528  0.3591 -0.3473
 5577SOL     OW28789   3.847   2.953   3.307  0.3762  0.5296  0.1085
 5577SOL    HW128790   3.811   3.026   3.248  0.6918  1.7979  1.4289
 5577SOL    HW228791   3.771   2.904   3.349  0.1632  0.4715 -0.3406
 5578SOL     OW28792   8.220   5.033   4.793  0.2892  0.8983  0.2123
 5578SOL    HW128793   8.160   5.031   4.874  0.9664 -0.8686  0.6860
 5578SOL    HW228794   8.314   5.052   4.822  0.3687  1.2543 -0.2773
 5579SOL     OW28795   0.787   7.151   4.362 -0.6098  0.0474 -0.9902
 5579SOL    HW128796   0.835   7.064   4.353 -1.0477 -0.1723 -1.2166
 5579SOL    HW228797   0.841   7.224   4.320  0.9139  0.3078  1.3369
 5580SOL     OW28798   0.841   5.704   0.353 -0.3022  0.4937  0.1320
 5580SOL    HW128799   0.905   5.670   0.284 -0.4469 -0.6667  0.5683
 5580SOL    HW228800   0.890   5.721   0.439 -0.7809 -1.5305  0.8247
 5581SOL     OW28801   5.077   3.030   5.153 -0.1473  0.3167 -0.5705
 5581SOL    HW128802   5.170   3.054   5.124 -0.4120  2.3149  0.1645
 5581SOL    HW228803   5.046   3.094   5.223 -0.8070 -2.4002  1.6905
 5582SOL     OW28804   8.274   7.296   5.547 -0.2869 -0.3373 -0.0175
 5582SOL    HW128805   8.260   7.381   5.495 -1.7265 -1.2916 -1.2379
 5582SOL    HW228806   8.236   7.219   5.496  1.7732 -1.8666  0.6723
 5583SOL     OW28807   6.768   4.627   9.766  0.6925  0.7142 -0.0492
 5583SOL    HW128808   6.791   4.627   9.669  0.2787  1.6364 -0.1615
 5583SOL    HW228809   6.731   4.538   9.793  1.5653  0.2003 -0.5466
 5584SOL     OW28810   1.283   3.449   9.247 -0.6643  0.3987  0.0730
 5584SOL    HW128811   1.375   3.446   9.207 -0.3408  0.2299  0.8299
 5584SOL    HW228812   1.232   3.368   9.219 -0.6548  0.5873 -0.5076
 5585SOL     OW28813   7.891   8.876   7.656  0.1119  0.6497 -0.2173
 5585SOL    HW128814   7.958   8.802   7.657 -0.1580  0.3783 -1.7312
 5585SOL    HW228815   7.800   8.839   7.636 -0.6061  0.9532  2.2317
 5586SOL     OW28816   3.893   4.331   0.907 -0.1805  0.1474  0.6581
 5586SOL    HW128817   3.859   4.269   0.836 -1.0647  1.1965  0.1459
 5586SOL    HW228818   3.898   4.282   0.995  4.1029 -2.1261 -0.7204
 5587SOL     OW28819   3.489   0.829   6.169  0.4593  0.2143 -0.1382
 5587SOL    HW128820   3.422   0.792   6.233  0.2277 -1.0364 -1.0902
 5587SOL    HW228821   3.530   0.912   6.207 -2.6279  1.7943 -0.1218
 5588SOL     OW28822   4.093   9.160   6.600 -0.4604  0.2477  0.3035
 5588SOL    HW128823   4.174   9.219   6.593  0.9344 -1.3239  2.3703
 5588SOL    HW228824   4.079   9.112   6.514  1.9205 -0.7981  0.4398
 5589SOL     OW28825   3.099   6.199   3.496  0.6636  0.7376  0.3376
 5589SOL    HW128826   3.112   6.285   3.445  1.9241  0.6158  0.4377
 5589SOL    HW228827   3.162   6.196   3.573  0.6720 -0.3097  0.2960
 5590SOL     OW28828   4.702   4.235   6.194  0.3690 -0.4421 -0.0731
 5590SOL    HW128829   4.617   4.182   6.202  0.1663  0.0013  0.7770
 5590SOL    HW228830   4.696   4.316   6.252  0.4780  0.8016 -1.7945
 5591SOL     OW28831   8.947   2.652   3.650 -0.2920  0.5265  0.4776
 5591SOL    HW128832   8.939   2.555   3.624  0.4693  0.5470  0.1700
 5591SOL    HW228833   8.857   2.696   3.641 -0.4790  0.0309 -0.1042
 5592SOL     OW28834   7.865   0.991   2.742 -0.3684  0.3818 -0.2414
 5592SOL    HW128835   7.964   0.976   2.739 -0.3707  0.1532  0.6617
 5592SOL    HW228836   7.832   0.979   2.835 -1.1833  0.8961 -0.4560
 5593SOL     OW28837   2.243   5.148   8.458  0.2783  0.1997 -0.0045
 5593SOL    HW128838   2.249   5.058   8.414  0.1391 -0.2473  0.8762
 5593SOL    HW228839   2.228   5.136   8.556 -3.4536  1.1806 -0.3753
 5594SOL     OW28840   1.500   4.894   6.620  0.2985 -0.3864 -0.1370
 5594SOL    HW128841   1.595   4.894   6.591  0.0898  1.6544 -0.9213
 5594SOL    HW228842   1.444   4.936   6.548 -1.0492 -0.6359  0.7533
 5595SOL     OW28843   9.059   5.025   4.908 -0.1470 -0.2895  0.7620
 5595SOL    HW128844   8.987   5.001   4.843  0.3521 -0.1065  0.1339
 5595SOL    HW228845   9.038   5.113   4.951 -0.2127 -0.1606  0.4627
 5596SOL     OW28846   4.868   6.630   3.761 -0.3193  0.3242 -0.5437
 5596SOL    HW128847   4.899   6.571   3.686 -0.2509  0.7422 -0.8426
 5596SOL    HW228848   4.772   6.611   3.780  0.2833 -1.5484  0.9129
 5597SOL     OW28849   1.560   7.666   0.205 -0.4568 -0.0432 -0.5938
 5597SOL    HW128850   1.607   7.611   0.275  1.0121  1.0095 -0.7221
 5597SOL    HW228851   1.539   7.756   0.243 -2.0985 -0.3904 -0.6543
 5598SOL     OW28852   5.120   6.000   2.278 -0.0094 -0.5413 -0.6614
 5598SOL    HW128853   5.097   5.951   2.193  1.4935  1.8676 -2.5148
 5598SOL    HW228854   5.186   5.946   2.330  0.2839 -1.3092 -1.7933
 5599SOL     OW28855   6.212   8.678   5.641  0.1816 -0.1021  0.0218
 5599SOL    HW128856   6.184   8.584   5.622  0.4207 -0.3850  1.0401
 5599SOL    HW228857   6.147   8.741   5.600 -0.9551 -0.7268  0.8246
 5600SOL     OW28858   3.748   7.954   7.559 -0.5624 -0.2888 -0.0335
 5600SOL    HW128859   3.739   8.001   7.647  1.6583 -1.3054  0.7741
 5600SOL    HW228860   3.799   8.012   7.495  0.5836 -0.8357  0.3766
 5601SOL     OW28861   6.769   0.684  10.008  0.2774  0.0387 -0.9065
 5601SOL    HW128862   6.866   0.695   9.985  0.1058  0.8428 -1.2852
 5601SOL    HW228863   6.715   0.678   9.924 -0.0542  0.1067 -0.6987
 5602SOL     OW28864   2.630   3.833   4.135  0.2444 -0.0913 -0.8353
 5602SOL    HW128865   2.541   3.791   4.155  0.6985 -0.6991 -0.0775
 5602SOL    HW228866   2.689   3.826   4.216  1.5613 -1.1894 -1.8574
 5603SOL     OW28867   5.720   5.725   7.465  0.0107  0.1765 -0.6305
 5603SOL    HW128868   5.769   5.638   7.459 -1.8284 -0.9156 -0.3661
 5603SOL    HW228869   5.784   5.800   7.457  1.6092 -1.2102 -1.1189
 5604SOL     OW28870   1.258   3.247   5.367 -0.3554  0.0992  0.3608
 5604SOL    HW128871   1.274   3.262   5.465 -0.2464  3.0970 -0.0540
 5604SOL    HW228872   1.322   3.304   5.315 -1.5488 -0.1908 -1.4485
 5605SOL     OW28873   1.898   7.714   8.609 -0.2028 -0.2805 -0.0444
 5605SOL    HW128874   1.927   7.792   8.665  1.2980 -0.7537 -0.1464
 5605SOL    HW228875   1.977   7.677   8.560 -1.0778 -1.3042 -0.6999
 5606SOL     OW28876   7.539   4.816   1.679 -0.1526 -0.2242  0.0421
 5606SOL    HW128877   7.597   4.878   1.626  1.6081 -2.2592 -0.4580
 5606SOL    HW228878   7.444   4.828   1.649  0.3468  1.1885 -1.0748
 5607SOL     OW28879   4.842   5.754   8.117 -0.0288 -0.0646 -0.1369
 5607SOL    HW128880   4.815   5.783   8.025 -0.6562  0.5676  0.2455
 5607SOL    HW228881   4.760   5.737   8.172  0.3472  0.3814  0.5705
 5608SOL     OW28882   8.816   3.991   9.130  0.5443 -0.4637  0.0419
 5608SOL    HW128883   8.825   3.960   9.036 -0.4332  0.4930 -0.3745
 5608SOL    HW228884   8.874   4.072   9.144 -1.3588  1.0345 -0.5085
 5609SOL     OW28885   8.354   1.452   9.931 -0.5951 -0.1201  0.0577
 5609SOL    HW128886   8.259   1.484   9.923 -0.0038  1.4871 -0.7589
 5609SOL    HW228887   8.355   1.353   9.929 -2.2894 -0.1727  0.3165
 5610SOL     OW28888   0.003   1.607   5.479  0.7543  0.2495 -0.1477
 5610SOL    HW128889  -0.097   1.602   5.483  0.5831  2.1209 -1.3242
 5610SOL    HW228890   0.039   1.522   5.439 -0.4672  0.1185 -1.0061
 5611SOL     OW28891   8.028   8.200   9.556 -0.0878  0.3024  0.0218
 5611SOL    HW128892   8.038   8.237   9.649  0.6823  0.5472 -0.1551
 5611SOL    HW228893   8.113   8.155   9.529 -0.1063  0.7641 -0.7993
 5612SOL     OW28894   1.263   1.970   2.674  0.4056 -0.4295  0.1996
 5612SOL    HW128895   1.293   1.888   2.721  0.9023 -0.3417  0.0411
 5612SOL    HW228896   1.168   1.989   2.696  0.2684 -1.0954  0.1671
 5613SOL     OW28897   7.829   9.102   8.416 -0.0566 -0.2189  0.1273
 5613SOL    HW128898   7.755   9.147   8.366  0.0087  1.1096  1.1678
 5613SOL    HW228899   7.896   9.171   8.445  0.4505 -1.0965  1.0910
 5614SOL     OW28900   4.739   3.001   9.633 -0.2253 -0.8730 -0.5324
 5614SOL    HW128901   4.725   3.076   9.698 -0.4635 -0.5664 -0.9311
 5614SOL    HW228902   4.708   3.030   9.542 -1.3037 -1.8283 -0.4827
 5615SOL     OW28903   2.093   9.211   9.436  0.0351  0.0864 -0.6797
 5615SOL    HW128904   2.085   9.272   9.357 -0.6078 -0.9775 -1.4411
 5615SOL    HW228905   2.023   9.236   9.504  1.6369  2.0599  0.3036
 5616SOL     OW28906   2.471   8.935   4.766  0.4220 -0.0011 -0.0213
 5616SOL    HW128907   2.530   8.901   4.693 -1.2440  0.7537 -1.7536
 5616SOL    HW228908   2.393   8.875   4.777 -2.3442  2.8522 -2.8470
 5617SOL     OW28909   5.968   8.278   5.752 -0.6783 -0.0835  0.0398
 5617SOL    HW128910   5.918   8.211   5.698 -1.5130  1.7246 -1.4606
 5617SOL    HW228911   5.904   8.344   5.792  0.3148  1.0716 -0.2447
 5618SOL     OW28912   6.979   8.660   5.008 -0.6565 -0.0387 -0.1433
 5618SOL    HW128913   7.055   8.661   5.073  1.6938  0.5052 -2.7766
 5618SOL    HW228914   6.950   8.566   4.992  0.8629 -0.4350 -0.6508
 5619SOL     OW28915   1.607   0.124   4.985 -0.0253  0.1277 -0.0585
 5619SOL    HW128916   1.665   0.200   4.957 -0.1709  0.5368  0.7583
 5619SOL    HW228917   1.538   0.108   4.915  1.5174 -0.8453 -1.4054
 5620SOL     OW28918   0.527   8.232   4.798 -0.0086  0.2674  0.2903
 5620SOL    HW128919   0.500   8.240   4.702  2.7409 -1.8652 -0.7114
 5620SOL    HW228920   0.624   8.252   4.807 -0.5056  1.8192  2.8966
 5621SOL     OW28921   2.274   8.410   5.386 -0.3183 -0.2184  0.0277
 5621SOL    HW128922   2.346   8.371   5.328  0.1950 -1.3676  1.4176
 5621SOL    HW228923   2.205   8.454   5.328  2.2392  2.2350 -1.2885
 5622SOL     OW28924   7.196   9.452   5.820  0.2020  0.0141 -0.1892
 5622SOL    HW128925   7.291   9.428   5.798  0.0270 -0.9185  0.0371
 5622SOL    HW228926   7.160   9.386   5.886 -0.3711  0.7995  0.2902
 5623SOL     OW28927   7.709   1.385   0.223 -0.1246 -0.3691  0.1211
 5623SOL    HW128928   7.744   1.299   0.259  1.9165 -0.2841 -1.5379
 5623SOL    HW228929   7.780   1.430   0.169 -1.6793  1.5867 -0.3707
 5624SOL     OW28930   9.630   7.751   3.869  0.4643 -0.5531 -0.1527
 5624SOL    HW128931   9.629   7.681   3.941  0.9179  0.6262  1.0345
 5624SOL    HW228932   9.542   7.798   3.868 -0.0641 -1.5434 -1.3724
 5625SOL     OW28933   7.263   0.660   5.237  0.1523 -0.1542  0.1085
 5625SOL    HW128934   7.304   0.583   5.188 -1.3850 -0.7327 -0.3051
 5625SOL    HW228935   7.199   0.625   5.305 -1.5455  0.7833 -0.9909
 5626SOL     OW28936   4.551   0.562   5.645 -0.0143  0.1679  0.1089
 5626SOL    HW128937   4.599   0.589   5.728  0.0471  0.3423  0.0175
 5626SOL    HW228938   4.507   0.642   5.604 -0.6141 -0.0382  0.3417
 5627SOL     OW28939   3.378   7.100   8.137 -0.0497 -0.1401  0.2851
 5627SOL    HW128940   3.348   7.009   8.165 -1.0738 -0.1124 -0.6862
 5627SOL    HW228941   3.440   7.138   8.206  0.7719 -1.7646  0.4524
 5628SOL     OW28942   4.321   7.133   6.821 -0.1250 -0.3898  0.4081
 5628SOL    HW128943   4.259   7.162   6.749  1.1941 -0.6482 -0.8640
 5628SOL    HW228944   4.280   7.151   6.910 -1.7515 -0.0124 -0.4040
 5629SOL     OW28945   4.838   3.202   2.594  0.1463  0.2387 -0.2181
 5629SOL    HW128946   4.832   3.154   2.507 -1.4224 -0.4846  0.2673
 5629SOL    HW228947   4.747   3.228   2.624  0.8716  2.4687  0.1319
 5630SOL     OW28948   7.553   2.357   5.529 -0.4838 -0.1067  0.4456
 5630SOL    HW128949   7.511   2.448   5.537 -1.3153 -0.2894 -1.6054
 5630SOL    HW228950   7.521   2.313   5.445  1.7542 -1.3373  0.2039
 5631SOL     OW28951   8.210   1.582   6.713  0.0110  0.2067  0.1312
 5631SOL    HW128952   8.195   1.655   6.780  0.0173  0.9826 -0.7054
 5631SOL    HW228953   8.154   1.503   6.737  2.0544 -0.5758  2.6340
 5632SOL     OW28954   3.916   1.546   7.549 -0.2086 -0.5379  0.4098
 5632SOL    HW128955   4.002   1.497   7.561 -0.3011 -0.6930  0.4373
 5632SOL    HW228956   3.867   1.549   7.636 -0.9932 -1.8732  0.0313
 5633SOL     OW28957   2.329   9.284   5.143  0.0370 -0.5720  0.1129
 5633SOL    HW128958   2.310   9.194   5.181  0.3888 -0.4141  0.6592
 5633SOL    HW228959   2.395   9.332   5.201 -0.2943  0.1120 -0.0705
 5634SOL     OW28960   0.815   7.950   1.051 -0.0540  0.4839  0.3677
 5634SOL    HW128961   0.851   7.920   1.139  1.8686  0.2758 -0.4664
 5634SOL    HW228962   0.821   7.876   0.985 -2.2308  0.3851  0.2250
 5635SOL     OW28963   1.849   1.477   3.745 -0.2135  0.4535  0.4993
 5635SOL    HW128964   1.881   1.411   3.813  0.7210  0.6442  0.2438
 5635SOL    HW228965   1.852   1.569   3.784  2.8113  0.8869 -0.6411
 5636SOL     OW28966   7.547   5.639   6.638 -0.1384  0.3580 -0.0441
 5636SOL    HW128967   7.613   5.705   6.604  1.5997 -1.6602 -0.7319
 5636SOL    HW228968   7.533   5.653   6.736 -0.4632  2.2642 -0.3470
 5637SOL     OW28969   6.314   4.131   1.828  0.3028  0.5081 -0.0081
 5637SOL    HW128970   6.354   4.210   1.782 -3.9158  3.0664  0.3800
 5637SOL    HW228971   6.279   4.160   1.918  2.2874 -2.7909  1.9038
 5638SOL     OW28972   5.514   1.610   0.638  0.2619 -0.3585  0.6846
 5638SOL    HW128973   5.502   1.594   0.736  1.0083 -1.1401  0.6537
 5638SOL    HW228974   5.611   1.626   0.618 -0.1666  1.9596  0.3761
 5639SOL     OW28975   9.316   5.833   3.667 -0.1997 -0.4827 -0.2752
 5639SOL    HW128976   9.373   5.912   3.643 -0.1055 -0.4363  0.0995
 5639SOL    HW228977   9.239   5.863   3.724 -0.0921 -0.6845 -0.0262
 5640SOL     OW28978   9.074   3.373   7.153 -0.0733 -0.0892 -0.1717
 5640SOL    HW128979   9.150   3.371   7.088  0.8408 -0.1408  0.8884
 5640SOL    HW228980   9.040   3.280   7.168 -0.0329 -0.1210 -0.2761
 5641SOL     OW28981   1.838   5.551   2.814  0.2213 -0.0072 -0.2571
 5641SOL    HW128982   1.790   5.637   2.829  1.1171  0.3668  0.5111
 5641SOL    HW228983   1.801   5.480   2.874  0.6960  0.3138  0.4272
 5642SOL     OW28984   3.018   8.583   7.259 -0.7114 -0.0156 -0.1434
 5642SOL    HW128985   3.073   8.609   7.339  0.0992  1.4078 -1.1418
 5642SOL    HW228986   2.946   8.650   7.245 -1.0819 -0.4644 -0.3966
 5643SOL     OW28987   2.546   7.331   2.488 -0.4804  0.6635  0.0680
 5643SOL    HW128988   2.483   7.260   2.520  1.2852 -0.9854 -0.0314
 5643SOL    HW228989   2.599   7.367   2.565  0.2897  0.1888 -0.2320
 5644SOL     OW28990   0.302   1.631   3.953 -0.5052 -0.8998 -0.1244
 5644SOL    HW128991   0.331   1.726   3.942 -0.2594 -0.8755  0.7122
 5644SOL    HW228992   0.228   1.626   4.019  0.8717 -1.5151  1.4189
 5645SOL     OW28993   9.621   8.072   6.596 -0.3461  0.0992 -0.0147
 5645SOL    HW128994   9.567   7.995   6.562  0.4072 -0.1508 -0.6779
 5645SOL    HW228995   9.626   8.143   6.526  2.1104 -0.8748 -0.8756
 5646SOL     OW28996   3.840   5.309   7.593 -0.4106  0.1791 -0.0129
 5646SOL    HW128997   3.880   5.370   7.661  0.1346 -0.3003  0.1056
 5646SOL    HW228998   3.780   5.243   7.639  0.9339 -0.9358  0.1597
 5647SOL     OW28999   5.921   8.983   3.187  0.0221 -0.2873 -0.0099
 5647SOL    HW129000   5.937   8.886   3.170 -2.5920 -1.0485  1.5443
 5647SOL    HW229001   5.961   9.008   3.275 -0.1221 -0.1983  0.0301
 5648SOL     OW29002   5.819   8.338   3.831 -0.5838 -0.6693 -0.2604
 5648SOL    HW129003   5.812   8.248   3.790 -1.3547 -0.4002 -0.7206
 5648SOL    HW229004   5.845   8.405   3.762 -0.1392 -0.5173  0.0518
 5649SOL     OW29005   1.036   9.431   0.499 -0.0292  0.1514 -0.3218
 5649SOL    HW129006   0.961   9.494   0.519  0.8192  0.4738  2.0636
 5649SOL    HW229007   1.024   9.347   0.552 -0.0235 -0.8302 -1.8493
 5650SOL     OW29008   4.943   4.824   6.288 -0.0971 -0.4917 -0.4788
 5650SOL    HW129009   5.021   4.789   6.237  0.7507  2.2210 -1.0741
 5650SOL    HW229010   4.867   4.843   6.225 -0.0669  0.0733 -0.3471
 5651SOL     OW29011   1.574   8.421   3.442 -0.0500 -0.1131  0.0691
 5651SOL    HW129012   1.572   8.516   3.473  0.2937  0.1884 -0.8095
 5651SOL    HW229013   1.480   8.388   3.431 -0.2113 -0.7059  2.8013
 5652SOL     OW29014   3.854   7.707   4.110 -0.6307  0.1802  0.5940
 5652SOL    HW129015   3.781   7.741   4.050 -1.4218  1.3068  2.1730
 5652SOL    HW229016   3.913   7.645   4.058 -0.4709  2.2151 -1.7474
 5653SOL     OW29017   2.825   9.780   3.287  0.0671  0.0913 -0.2110
 5653SOL    HW129018   2.733   9.765   3.250  0.1745 -2.7148  0.4934
 5653SOL    HW229019   2.875   9.844   3.229 -1.4340 -0.3837 -2.0842
 5654SOL     OW29020   8.187   4.024   3.649  0.2204  0.0279 -0.0036
 5654SOL    HW129021   8.218   4.050   3.558  1.6582  1.3267  0.8324
 5654SOL    HW229022   8.211   3.929   3.667  0.8176  0.0619 -0.6206
 5655SOL     OW29023   8.982   4.413   4.261  0.0835 -0.4226  0.6771
 5655SOL    HW129024   9.058   4.478   4.263  0.9338 -1.4196  1.2360
 5655SOL    HW229025   8.927   4.429   4.179  0.9672  0.2163  0.1897
 5656SOL     OW29026   9.738   3.319   8.572 -0.5333  0.5158 -0.4887
 5656SOL    HW129027   9.801   3.281   8.504 -0.2677  0.9119 -0.4601
 5656SOL    HW229028   9.730   3.255   8.649 -1.8777 -0.5567 -1.5035
 5657SOL     OW29029   0.320   0.911   1.217 -0.5346 -0.6357 -0.0426
 5657SOL    HW129030   0.414   0.940   1.231 -1.0346  0.1908  1.7085
 5657SOL    HW229031   0.260   0.990   1.216 -1.3428 -1.2377 -0.0416
 5658SOL     OW29032   0.578   4.949   5.833 -0.2291  0.1811 -0.1853
 5658SOL    HW129033   0.520   4.896   5.771 -1.1338 -0.0090  0.7955
 5658SOL    HW229034   0.520   5.009   5.889  0.5791  0.4285  0.3956
 5659SOL     OW29035   2.049   5.708   9.020 -1.0739  0.3160 -0.3637
 5659SOL    HW129036   2.093   5.618   9.021 -1.1800  0.2680  0.2577
 5659SOL    HW229037   2.097   5.769   9.083 -0.9961  0.6985 -0.7933
 5660SOL     OW29038   3.023   6.308   8.721  0.0016 -0.5800  0.3521
 5660SOL    HW129039   2.967   6.230   8.694 -0.9645 -0.0088  0.6652
 5660SOL    HW229040   2.966   6.390   8.727  1.3336  0.5214 -1.6467
 5661SOL     OW29041   1.591   7.418   5.255 -0.1197 -0.4396  0.0440
 5661SOL    HW129042   1.658   7.349   5.230  1.1280  1.2946 -1.5926
 5661SOL    HW229043   1.615   7.458   5.344  0.1887 -0.8262  0.1337
 5662SOL     OW29044   2.241   9.726   2.967  0.1862  0.1996 -0.0422
 5662SOL    HW129045   2.330   9.686   2.990  0.3061 -0.7754 -2.1372
 5662SOL    HW229046   2.229   9.727   2.868 -1.2564  2.2932  0.1164
 5663SOL     OW29047   1.013   2.572   3.284  0.2607 -0.4866 -0.3183
 5663SOL    HW129048   0.975   2.643   3.342  0.5411  0.3219 -1.1075
 5663SOL    HW229049   1.006   2.600   3.188  0.2243 -1.5935 -0.6541
 5664SOL     OW29050   8.181   5.196   8.427 -0.4784 -0.1480  0.1889
 5664SOL    HW129051   8.155   5.143   8.346 -0.0517  0.0387 -0.0678
 5664SOL    HW229052   8.162   5.292   8.411 -1.4723 -0.2421  0.7412
 5665SOL     OW29053   2.189   8.174   4.703  0.3150 -0.8710 -0.4297
 5665SOL    HW129054   2.203   8.082   4.740 -2.2065 -1.2817 -0.4372
 5665SOL    HW229055   2.200   8.242   4.775  1.7616 -1.1948 -0.3337
 5666SOL     OW29056   0.710   1.345   8.407  0.0339  0.6309  0.3742
 5666SOL    HW129057   0.620   1.379   8.379 -0.2144 -0.3039  0.0216
 5666SOL    HW229058   0.764   1.324   8.325  0.4577  0.8882  0.5885
 5667SOL     OW29059   3.547   2.593   6.001  0.3524  0.1572  0.0394
 5667SOL    HW129060   3.612   2.669   5.993 -0.7875  0.9944 -1.6138
 5667SOL    HW229061   3.536   2.568   6.097  1.7941  1.1558  0.4806
 5668SOL     OW29062   9.353   5.600   0.361  0.4144 -0.0425 -0.5754
 5668SOL    HW129063   9.305   5.680   0.398  0.2334 -0.0626 -0.7716
 5668SOL    HW229064   9.360   5.608   0.262 -1.0897 -1.0754 -0.7834
 5669SOL     OW29065   6.479   3.388   1.153 -0.2370  0.1857  1.0924
 5669SOL    HW129066   6.476   3.445   1.235 -2.1102 -0.6543  1.6186
 5669SOL    HW229067   6.401   3.409   1.094  2.7598  3.1033 -2.1150
 5670SOL     OW29068   2.502   4.826   9.511 -0.1403 -0.1179  0.1555
 5670SOL    HW129069   2.531   4.741   9.554  2.0365  0.8538  0.6680
 5670SOL    HW229070   2.575   4.860   9.453 -2.3562 -0.4664 -2.9623
 5671SOL     OW29071   8.369   8.660   7.446 -0.2351  0.1506  0.2952
 5671SOL    HW129072   8.330   8.686   7.534 -0.8730  2.9718 -0.7680
 5671SOL    HW229073   8.454   8.711   7.431  0.5635 -1.2923 -0.1555
 5672SOL     OW29074   2.663   3.057   2.350  0.0539  0.4842  0.3798
 5672SOL    HW129075   2.710   3.116   2.284 -1.1378 -1.3703 -2.2254
 5672SOL    HW229076   2.730   3.000   2.398  0.8641  1.2391  0.1549
 5673SOL     OW29077   7.936   1.395   0.543  0.1289 -0.4326  0.4797
 5673SOL    HW129078   7.978   1.481   0.575 -0.9764 -0.3810  1.8366
 5673SOL    HW229079   7.992   1.318   0.572 -0.4200 -0.3327  1.8118
 5674SOL     OW29080   6.331   1.577   6.027  0.2198 -0.0505  0.0736
 5674SOL    HW129081   6.371   1.602   6.116 -2.2179  0.4168  1.0862
 5674SOL    HW229082   6.360   1.643   5.958 -0.0314  1.1900  1.1305
 5675SOL     OW29083   9.437   2.325   3.579  0.4228  0.2045 -0.0149
 5675SOL    HW129084   9.535   2.303   3.578  0.7566  1.5627  1.1599
 5675SOL    HW229085   9.425   2.424   3.568 -0.8123  0.0628 -0.0403
 5676SOL     OW29086   2.924   2.381   6.832 -0.5320 -0.4312  0.2345
 5676SOL    HW129087   2.880   2.469   6.815 -0.2494 -0.4521 -0.6508
 5676SOL    HW229088   2.857   2.316   6.869 -1.1268 -0.3247 -0.6532
 5677SOL     OW29089   3.489   2.029   1.249  0.1611  0.9244  0.5251
 5677SOL    HW129090   3.460   2.067   1.337 -2.2754  0.3614  0.0091
 5677SOL    HW229091   3.541   1.944   1.265  1.5589  1.9259  1.4730
 5678SOL     OW29092   1.895   8.659   3.152 -0.6846  0.5200 -0.0554
 5678SOL    HW129093   1.858   8.576   3.110  0.8546 -0.6445  0.8197
 5678SOL    HW229094   1.917   8.641   3.248  1.9914  1.1761 -0.5035
 5679SOL     OW29095   4.057   7.762   3.007  0.1045  0.4279  0.0955
 5679SOL    HW129096   4.086   7.686   2.948 -0.6165 -1.0927  1.6565
 5679SOL    HW229097   4.045   7.844   2.952  0.6954 -0.6385 -1.6645
 5680SOL     OW29098   1.903   6.935   5.079  0.0067  0.4167  0.1789
 5680SOL    HW129099   1.821   6.881   5.063  0.2165 -0.6152  2.4165
 5680SOL    HW229100   1.963   6.929   4.999 -0.5862 -1.5507 -0.1459
 5681SOL     OW29101   7.517   7.547   8.654 -0.0387 -0.0681  0.4829
 5681SOL    HW129102   7.611   7.528   8.624 -0.1995  0.1503 -0.1632
 5681SOL    HW229103   7.453   7.499   8.595 -0.3145 -0.8145  1.3858
 5682SOL     OW29104   0.905   2.145   7.944  0.2201  0.1209  0.9299
 5682SOL    HW129105   0.827   2.208   7.946 -1.3372 -1.7973  2.2111
 5682SOL    HW229106   0.907   2.092   8.028  1.4269 -1.6365 -0.1750
 5683SOL     OW29107   9.172   1.916   2.303 -0.1334  0.3496  0.1139
 5683SOL    HW129108   9.114   1.896   2.224  0.8206 -0.0033 -0.5003
 5683SOL    HW229109   9.268   1.904   2.278  0.2520  1.7577  0.8861
 5684SOL     OW29110   4.481   2.243   7.319 -0.0359  0.0061  0.3652
 5684SOL    HW129111   4.531   2.329   7.332 -0.4022  0.2293  0.2900
 5684SOL    HW229112   4.544   2.173   7.283  0.9442 -0.5395  2.9939
 5685SOL     OW29113   5.221   6.576   1.949 -0.5535 -0.2069  0.2709
 5685SOL    HW129114   5.208   6.574   1.850 -0.3393 -2.0176  0.2666
 5685SOL    HW229115   5.263   6.491   1.979  0.8912  0.9973  1.7343
 5686SOL     OW29116   3.356   2.027   2.783 -0.0151 -0.2767  0.5410
 5686SOL    HW129117   3.437   1.997   2.733  0.4055 -1.1635  1.7215
 5686SOL    HW229118   3.280   1.964   2.766 -0.7417  1.0605 -1.2847
 5687SOL     OW29119   1.502   4.944   3.241 -0.3544  0.2101 -0.4062
 5687SOL    HW129120   1.418   4.990   3.212 -0.3044  0.4165 -0.2283
 5687SOL    HW229121   1.492   4.914   3.336 -0.3016  0.0546 -0.4497
 5688SOL     OW29122   1.505   5.148   7.868  1.1491  1.3212 -0.1876
 5688SOL    HW129123   1.509   5.091   7.949 -0.4808  0.3340 -0.7704
 5688SOL    HW229124   1.591   5.140   7.817  0.4162 -1.7982 -1.0282
 5689SOL     OW29125   8.434   3.219   9.962 -0.1126 -0.4312  0.4572
 5689SOL    HW129126   8.372   3.154  10.007 -1.9122  0.2370 -0.9687
 5689SOL    HW229127   8.453   3.295  10.024  0.7437 -1.5418  1.5682
 5690SOL     OW29128   8.832   3.198   4.995 -0.4696 -0.1179 -0.0400
 5690SOL    HW129129   8.873   3.240   5.076  0.2097  1.5887 -1.2399
 5690SOL    HW229130   8.751   3.250   4.968 -0.2625 -0.2340 -0.8902
 5691SOL     OW29131   1.431   6.688   6.383  0.5875 -0.4984  0.1451
 5691SOL    HW129132   1.516   6.707   6.432  0.7685 -0.8397 -0.0362
 5691SOL    HW229133   1.430   6.737   6.296 -0.2510  1.0593  1.0085
 5692SOL     OW29134   0.242   3.690   4.951  0.0592  0.3025 -0.6150
 5692SOL    HW129135   0.159   3.697   4.897  0.3592  3.4058 -0.7300
 5692SOL    HW229136   0.322   3.694   4.891  0.3550 -1.4331 -0.3829
 5693SOL     OW29137   2.331   7.950   6.836  0.1918  0.2232  0.1124
 5693SOL    HW129138   2.384   8.028   6.802 -0.6709  0.8494  0.1952
 5693SOL    HW229139   2.234   7.972   6.833 -0.0908 -1.0788 -0.4103
 5694SOL     OW29140   9.070   3.537   6.639 -0.3286  0.0634 -0.2857
 5694SOL    HW129141   9.057   3.441   6.664  1.6431 -0.3655 -0.7892
 5694SOL    HW229142   9.008   3.561   6.565  0.9899 -1.6175 -2.0181
 5695SOL     OW29143   2.386   3.074   2.642  0.1648  0.1470 -0.2231
 5695SOL    HW129144   2.399   3.081   2.543 -2.7508  0.6210 -0.6129
 5695SOL    HW229145   2.360   2.980   2.665  1.1904 -0.0479  0.1338
 5696SOL     OW29146   9.796   4.929   3.706  0.5219 -0.8591 -0.1739
 5696SOL    HW129147   9.789   4.831   3.724 -1.7423 -0.9387 -1.2322
 5696SOL    HW229148   9.830   4.944   3.613  1.9265 -0.6090  0.3688
 5697SOL     OW29149   3.118   7.358   1.744 -0.0664  0.1131  0.5670
 5697SOL    HW129150   3.074   7.384   1.658 -0.0959  0.5537  0.7132
 5697SOL    HW229151   3.072   7.278   1.782 -2.2682  1.9211  1.8888
 5698SOL     OW29152   3.133   1.067   9.296  0.2015  0.4675 -0.0668
 5698SOL    HW129153   3.099   1.010   9.370  0.8723  1.5182  1.0536
 5698SOL    HW229154   3.221   1.031   9.264  0.1188  0.2661 -0.0715
 5699SOL     OW29155   7.520   4.936   8.012 -0.4452  0.4730 -0.2977
 5699SOL    HW129156   7.497   4.988   7.930  0.6876 -0.1744 -1.0345
 5699SOL    HW229157   7.479   4.845   8.007 -0.5995  0.5248 -0.0169
 5700SOL     OW29158   7.094   0.972   0.099 -0.2217 -0.3566 -0.4072
 5700SOL    HW129159   7.167   1.027   0.057 -0.2464 -0.8261 -1.0929
 5700SOL    HW229160   7.135   0.896   0.150 -0.1834  0.4032  0.6880
 5701SOL     OW29161   3.992   0.300   8.775 -0.9439 -0.1253  0.3487
 5701SOL    HW129162   3.892   0.293   8.776 -0.9364 -0.4026 -0.6136
 5701SOL    HW229163   4.032   0.210   8.760 -0.6186  0.3737 -1.9430
 5702SOL     OW29164   7.630   8.466   8.135  0.0559 -0.0664  0.1424
 5702SOL    HW129165   7.542   8.429   8.105  0.5539 -2.1692  1.1541
 5702SOL    HW229166   7.629   8.479   8.234  0.3527  1.4377 -0.0379
 5703SOL     OW29167   6.049   9.718   2.974 -0.4140  0.1138 -0.2365
 5703SOL    HW129168   5.979   9.647   2.982 -1.4206  1.1083 -0.1337
 5703SOL    HW229169   6.097   9.727   3.062  1.2894 -2.0176 -0.9098
 5704SOL     OW29170   0.219   2.191   6.844  0.2474 -0.3318 -0.2895
 5704SOL    HW129171   0.235   2.255   6.769 -0.3147  0.3848  0.1976
 5704SOL    HW229172   0.164   2.114   6.811  0.3520 -0.2262 -0.7107
 5705SOL     OW29173   1.888   6.482   8.069  0.3727 -0.3924  0.7383
 5705SOL    HW129174   1.855   6.440   7.984  0.5195  0.8860  0.0257
 5705SOL    HW229175   1.812   6.529   8.114  0.7065  0.6701  0.2354
 5706SOL     OW29176   2.183   0.437   8.792  0.1316  0.5362  0.1557
 5706SOL    HW129177   2.107   0.490   8.830 -0.1890  0.6913 -0.6929
 5706SOL    HW229178   2.218   0.484   8.711 -0.0124 -0.4439 -0.4756
 5707SOL     OW29179   7.345   0.457   9.424  0.2672  0.2909  0.3197
 5707SOL    HW129180   7.302   0.537   9.465  0.1162  0.3832 -0.0154
 5707SOL    HW229181   7.302   0.438   9.336  1.2518  0.6741 -0.2499
 5708SOL     OW29182   7.921   5.148   9.636 -0.0894  0.4656 -0.1834
 5708SOL    HW129183   8.006   5.162   9.686  0.1244 -0.5598 -0.2679
 5708SOL    HW229184   7.844   5.147   9.700 -0.1197  1.9795 -0.1594
 5709SOL     OW29185   5.092   1.773   6.126 -0.6474 -0.1392 -0.3871
 5709SOL    HW129186   5.121   1.742   6.216 -1.5878 -1.9418 -0.6651
 5709SOL    HW229187   5.063   1.869   6.131  0.6552  0.2046  0.8979
 5710SOL     OW29188   8.467   5.728   9.695  0.2935 -0.5748 -0.2677
 5710SOL    HW129189   8.479   5.826   9.711  0.7169 -0.9255  1.6477
 5710SOL    HW229190   8.404   5.714   9.619 -0.6717  1.1673  0.1898
 5711SOL     OW29191   8.351   5.360   4.136 -0.0003 -0.2417 -0.0683
 5711SOL    HW129192   8.449   5.344   4.120  0.5619  2.1547  0.7637
 5711SOL    HW229193   8.299   5.325   4.058  1.6887  0.2050 -1.4321
 5712SOL     OW29194   8.239   7.837   4.407 -0.2993 -0.1972  0.7671
 5712SOL    HW129195   8.184   7.861   4.327 -1.9329 -1.3126  1.5094
 5712SOL    HW229196   8.327   7.801   4.377 -1.6837 -2.6135 -0.6606
 5713SOL     OW29197   6.417   9.205   6.423 -0.3337  0.0955  0.0016
 5713SOL    HW129198   6.384   9.113   6.444  0.8911 -0.2159  0.6361
 5713SOL    HW229199   6.407   9.264   6.503 -2.0324  0.8059 -0.7041
 5714SOL     OW29200   9.992   1.287   4.509  0.0723 -0.0539  0.2278
 5714SOL    HW129201  10.091   1.277   4.520  0.1098  0.8237  0.7767
 5714SOL    HW229202   9.949   1.293   4.599 -0.3670  0.5217 -0.0128
 5715SOL     OW29203   2.541   1.207   4.960 -0.0488  0.2399 -0.0463
 5715SOL    HW129204   2.510   1.247   4.874 -1.1744  1.8265  1.0606
 5715SOL    HW229205   2.475   1.138   4.990 -0.2425  0.5076  0.1352
 5716SOL     OW29206   7.260   3.915   2.456 -0.4564  0.0927 -0.2843
 5716SOL    HW129207   7.183   3.941   2.397 -0.0526  0.2240 -0.7606
 5716SOL    HW229208   7.243   3.945   2.549 -0.4609  1.1609 -0.6248
 5717SOL     OW29209   2.920   8.177   8.144 -0.4452 -0.1821 -0.6870
 5717SOL    HW129210   2.917   8.253   8.080  1.1208  1.1805  0.8162
 5717SOL    HW229211   2.827   8.144   8.162 -1.0661  0.8943 -1.8878
 5718SOL     OW29212   9.483   2.088   1.371 -0.4434 -0.1852  0.4293
 5718SOL    HW129213   9.475   2.061   1.467  1.9984  0.2637  0.8141
 5718SOL    HW229214   9.579   2.082   1.343 -0.6785  2.4175 -1.1481
 5719SOL     OW29215   9.478   3.770   7.664 -0.2808  0.0241  0.6611
 5719SOL    HW129216   9.405   3.833   7.688  1.5249  2.4351  0.0867
 5719SOL    HW229217   9.538   3.813   7.596  3.2147 -0.7422  3.0956
 5720SOL     OW29218   0.324   8.275   8.063 -0.1237 -0.0180  0.0940
 5720SOL    HW129219   0.305   8.361   8.015 -1.5434  0.2798  1.2000
 5720SOL    HW229220   0.405   8.286   8.120  1.9561 -0.5375 -2.5969
 5721SOL     OW29221   4.500   3.794   8.572  0.2669 -0.2719 -0.2956
 5721SOL    HW129222   4.477   3.866   8.638  0.5621 -0.9411  0.5506
 5721SOL    HW229223   4.549   3.721   8.619 -0.2559 -1.1457 -1.0928
 5722SOL     OW29224   5.717   2.839   1.730 -0.5361 -0.3210  0.0448
 5722SOL    HW129225   5.760   2.860   1.642  0.9064  0.2851  0.8581
 5722SOL    HW229226   5.775   2.775   1.780 -0.9157 -0.0142  0.8866
 5723SOL     OW29227   3.798   7.640   2.860 -0.0228  0.7042 -0.7282
 5723SOL    HW129228   3.809   7.739   2.868  0.5144  0.6659 -0.9381
 5723SOL    HW229229   3.885   7.600   2.830 -0.3224  0.2028 -0.9267
 5724SOL     OW29230   1.316   6.242   0.585 -0.5323 -0.1610  0.7681
 5724SOL    HW129231   1.358   6.317   0.535 -0.2999 -1.3193 -0.8159
 5724SOL    HW229232   1.379   6.211   0.657  0.1617 -0.0658  0.2102
 5725SOL     OW29233   2.866   8.142   7.820 -0.1042 -0.4612  0.1281
 5725SOL    HW129234   2.842   8.067   7.881 -0.6996 -0.4652 -0.1110
 5725SOL    HW229235   2.903   8.218   7.874  1.0340 -1.1345  0.3129
 5726SOL     OW29236   9.671   2.843   7.287  0.0053  0.7121 -0.4855
 5726SOL    HW129237   9.701   2.760   7.335  0.7043  0.3428 -1.5572
 5726SOL    HW229238   9.655   2.916   7.354  1.3363  0.3111  0.2914
 5727SOL     OW29239   0.230   5.270   0.435  0.2270  0.2306 -0.6434
 5727SOL    HW129240   0.270   5.355   0.399 -1.0023  0.9025 -0.4840
 5727SOL    HW229241   0.287   5.235   0.510  1.3013  0.3468 -1.3983
 5728SOL     OW29242   0.711   2.706   0.017  0.0957  0.5330  0.3206
 5728SOL    HW129243   0.756   2.642  -0.046 -0.4798  1.9048 -1.5415
 5728SOL    HW229244   0.765   2.790   0.024 -0.3528  0.7762  0.8771
 5729SOL     OW29245   9.634   1.327   7.035  0.4749  0.5518 -0.3777
 5729SOL    HW129246   9.631   1.286   6.944 -1.0283 -1.7114  0.6467
 5729SOL    HW229247   9.543   1.364   7.058  0.3132 -0.6494  0.9641
 5730SOL     OW29248   0.773   6.035   4.965 -0.0632  0.0637  0.0216
 5730SOL    HW129249   0.872   6.048   4.971  0.1992 -1.1291 -1.4681
 5730SOL    HW229250   0.745   6.038   4.870 -1.2124 -1.2944  0.3070
 5731SOL     OW29251   0.244   6.705   3.451  0.3810 -0.5321 -0.0347
 5731SOL    HW129252   0.152   6.737   3.474  0.8765  0.3406  0.7469
 5731SOL    HW229253   0.286   6.768   3.386  0.8907 -0.2323  0.5699
 5732SOL     OW29254   8.126   4.360   4.909 -0.0249 -0.0201  0.3145
 5732SOL    HW129255   8.104   4.264   4.920 -0.4162  0.2205  1.6370
 5732SOL    HW229256   8.147   4.379   4.813 -1.1438 -1.1600 -0.1520
 5733SOL     OW29257   6.866   9.634   8.124  0.4391  0.2376 -0.0358
 5733SOL    HW129258   6.844   9.731   8.110 -1.4244  0.0314  1.2547
 5733SOL    HW229259   6.791   9.577   8.091  0.6324 -0.6687  1.0339
 5734SOL     OW29260   3.247   3.948   8.332 -0.1368  0.1935  0.0339
 5734SOL    HW129261   3.200   3.860   8.330  0.1672  0.0074  0.8124
 5734SOL    HW229262   3.303   3.958   8.250  1.3289 -1.1802  0.8381
 5735SOL     OW29263   4.142   4.970   9.188  0.0301 -0.3694  0.6629
 5735SOL    HW129264   4.106   4.953   9.280 -0.3798  2.0842  0.9834
 5735SOL    HW229265   4.096   4.910   9.122  0.7016 -2.5186  2.0943
 5736SOL     OW29266   8.965   0.204   1.027 -0.2895 -0.0586  0.9653
 5736SOL    HW129267   9.022   0.159   1.097 -0.9138 -1.6674  0.4585
 5736SOL    HW229268   8.871   0.172   1.036 -0.4533  0.0487 -0.3578
 5737SOL     OW29269   5.141   8.606   4.163  0.9681 -0.1461 -0.2825
 5737SOL    HW129270   5.123   8.508   4.154  0.0565 -0.0418  0.2482
 5737SOL    HW229271   5.225   8.620   4.216  1.9129 -0.6496 -1.6388
 5738SOL     OW29272   4.772   5.968   2.751  0.2475 -0.0770 -0.1958
 5738SOL    HW129273   4.737   5.930   2.665 -1.6177 -0.7533  0.8204
 5738SOL    HW229274   4.831   5.900   2.795  1.1227  0.2303 -0.8735
 5739SOL     OW29275   2.094   9.177   4.113  0.1918 -0.1017 -0.1012
 5739SOL    HW129276   2.001   9.143   4.119  0.6877 -1.3851  0.5101
 5739SOL    HW229277   2.094   9.269   4.074 -1.2161 -0.5511 -1.1779
 5740SOL     OW29278   5.132   5.936   7.930 -0.6177 -0.4694 -0.3171
 5740SOL    HW129279   5.201   5.956   7.860  3.3784  0.4200  3.6147
 5740SOL    HW229280   5.054   5.997   7.919  1.3013  1.7516 -2.1786
 5741SOL     OW29281   4.520   9.189   8.290  1.0033  0.2751  0.1139
 5741SOL    HW129282   4.545   9.242   8.371 -1.7348 -0.7316  1.6616
 5741SOL    HW229283   4.552   9.095   8.300  1.2233  0.3029 -0.2884
 5742SOL     OW29284   1.408   9.342   6.695 -0.2307  0.6070  0.6180
 5742SOL    HW129285   1.425   9.246   6.675 -0.9644  0.2260  1.7487
 5742SOL    HW229286   1.489   9.396   6.672 -0.3424 -0.0522 -1.4429
 5743SOL     OW29287   3.510   7.555   5.156  0.2999 -0.1176  0.0732
 5743SOL    HW129288   3.529   7.641   5.204  0.5750  0.5248 -1.1734
 5743SOL    HW229289   3.416   7.527   5.174 -0.3428  1.3537 -0.8894
 5744SOL     OW29290   9.505   8.571   4.601  0.0064 -0.4358 -0.0305
 5744SOL    HW129291   9.458   8.530   4.678  0.5939  1.4680  1.3649
 5744SOL    HW229292   9.595   8.529   4.590 -0.2785 -1.0525 -0.0022
 5745SOL     OW29293   2.173   0.011   2.913 -0.3407 -0.4982 -0.9328
 5745SOL    HW129294   2.108   0.049   2.847 -1.0948 -1.1278 -0.5627
 5745SOL    HW229295   2.152  -0.086   2.929  1.3349 -0.9877 -1.5893
 5746SOL     OW29296   1.799   3.410   1.456  0.0486  0.3862 -0.6310
 5746SOL    HW129297   1.819   3.486   1.518 -1.2883  1.4261 -1.4707
 5746SOL    HW229298   1.826   3.324   1.500  2.1590  1.3703  0.0708
 5747SOL     OW29299   4.848   1.665   8.699  0.1208 -0.0413 -0.1673
 5747SOL    HW129300   4.767   1.644   8.644  0.6443 -0.0560 -0.9438
 5747SOL    HW229301   4.871   1.762   8.689  0.1337 -0.0156  0.1258
 5748SOL     OW29302   7.336   8.878   7.259 -0.2650  0.2608  0.0055
 5748SOL    HW129303   7.405   8.916   7.197  0.9952 -1.3524  0.3848
 5748SOL    HW229304   7.270   8.949   7.283 -0.1332  1.2186 -2.2863
 5749SOL     OW29305   6.280   6.551   1.482 -0.5811 -0.3636 -0.3328
 5749SOL    HW129306   6.341   6.620   1.521 -0.9706 -0.9512  1.3703
 5749SOL    HW229307   6.243   6.584   1.395  0.3269  0.9762 -0.2197
 5750SOL     OW29308   5.184   8.986   9.572  0.4116 -0.3875  0.1596
 5750SOL    HW129309   5.169   9.025   9.481 -0.6221 -1.3725 -0.0958
 5750SOL    HW229310   5.189   9.061   9.639  0.0968  0.2894 -0.5608
 5751SOL     OW29311   3.443   9.276   9.639 -0.8374  0.1193 -0.2576
 5751SOL    HW129312   3.399   9.216   9.573 -1.7049 -0.3449  0.7366
 5751SOL    HW229313   3.409   9.256   9.731 -1.6141  2.5486  0.0177
 5752SOL     OW29314   9.214   7.445   9.925 -0.6762  0.5680 -0.5825
 5752SOL    HW129315   9.189   7.472  10.018 -1.6788  1.0488 -0.9747
 5752SOL    HW229316   9.291   7.382   9.927 -1.2040 -0.0503  0.6206
 5753SOL     OW29317   6.266   7.280   5.074  0.7746 -0.0632 -0.0548
 5753SOL    HW129318   6.194   7.231   5.123  0.7737 -0.5950 -0.5692
 5753SOL    HW229319   6.257   7.378   5.089  0.8916 -0.2400  1.1515
 5754SOL     OW29320   8.469   7.870   2.904 -0.5042  0.1077 -0.1557
 5754SOL    HW129321   8.521   7.903   2.983  0.2479 -0.1178 -0.5507
 5754SOL    HW229322   8.513   7.788   2.867 -1.1512 -0.0927 -0.4896
 5755SOL     OW29323   0.007   4.142   2.184 -0.0830 -0.0741 -0.0700
 5755SOL    HW129324  -0.042   4.056   2.197 -0.3998  0.4438  2.5004
 5755SOL    HW229325  -0.019   4.206   2.257  0.6666  1.9528 -1.5508
 5756SOL     OW29326   9.570   2.700   4.203  0.8321 -0.2315  0.3011
 5756SOL    HW129327   9.585   2.607   4.236  0.1741 -0.5849 -0.3810
 5756SOL    HW229328   9.557   2.761   4.281  1.9601 -0.5819  0.7704
 5757SOL     OW29329   3.797   8.314   6.362  0.0963  0.2577  0.3945
 5757SOL    HW129330   3.762   8.310   6.455  0.6473  1.8913  0.6900
 5757SOL    HW229331   3.892   8.346   6.363 -0.1910  1.1981 -0.7918
 5758SOL     OW29332   3.794   4.788   7.080 -0.1666  0.1765  0.3484
 5758SOL    HW129333   3.797   4.694   7.044 -1.8045 -0.3927  1.6110
 5758SOL    HW229334   3.698   4.817   7.087  0.2776  1.4712  1.1799
 5759SOL     OW29335   3.813   5.278   0.002  0.2106  0.2103  0.2422
 5759SOL    HW129336   3.894   5.221  -0.007  0.4888  0.3181  2.0381
 5759SOL    HW229337   3.822   5.338   0.082 -1.4616  0.4987  0.2346
 5760SOL     OW29338   7.039   2.974   9.649 -0.5814  0.2562 -0.0423
 5760SOL    HW129339   6.951   2.977   9.696  0.1740  0.3772  1.3977
 5760SOL    HW229340   7.082   3.064   9.652 -0.7856  0.4276 -1.5257
 5761SOL     OW29341   4.832   7.197   3.397 -0.4314 -0.0914 -0.0897
 5761SOL    HW129342   4.921   7.197   3.352  0.8232 -3.7460  2.1874
 5761SOL    HW229343   4.773   7.129   3.354 -1.2775  0.5249  0.0678
 5762SOL     OW29344   8.045   6.371   2.075 -1.2128 -0.4083  0.3585
 5762SOL    HW129345   8.092   6.338   2.157 -2.0702  0.5466  1.2601
 5762SOL    HW229346   8.051   6.302   2.003  0.1920 -0.9547  0.9736
 5763SOL     OW29347   5.953   4.581   8.318  0.3330  0.0778 -0.3656
 5763SOL    HW129348   5.935   4.672   8.281 -0.2549  0.1611  0.1057
 5763SOL    HW229349   5.954   4.585   8.418 -0.3209 -0.5404 -0.3270
 5764SOL     OW29350   0.529   0.504   1.025 -0.1729 -0.1290 -0.0237
 5764SOL    HW129351   0.510   0.407   1.022 -1.2756 -0.0072  2.0216
 5764SOL    HW229352   0.444   0.556   1.018  0.3092  0.6615 -0.1322
 5765SOL     OW29353   1.473   4.165   2.250 -0.3102  0.5164 -0.5827
 5765SOL    HW129354   1.480   4.263   2.270 -0.5703  0.6042 -0.9150
 5765SOL    HW229355   1.564   4.126   2.238 -0.1931  0.6607 -0.1752
 5766SOL     OW29356   5.337   7.203   7.163  0.3872 -0.2697 -0.2071
 5766SOL    HW129357   5.337   7.189   7.064  0.0763 -0.3835 -0.1895
 5766SOL    HW229358   5.248   7.236   7.192 -0.5042 -3.1553  0.4755
 5767SOL     OW29359   9.428   4.331   6.558  0.3904  0.8158  0.3281
 5767SOL    HW129360   9.361   4.401   6.585 -1.3496 -0.4676 -0.6086
 5767SOL    HW229361   9.482   4.365   6.481 -0.4105  1.1437 -0.0929
 5768SOL     OW29362   3.367   8.955   1.739 -0.3657 -0.6964  0.4422
 5768SOL    HW129363   3.343   8.892   1.665 -3.1184 -1.0545  1.5933
 5768SOL    HW229364   3.320   9.041   1.726  0.8881  0.0320  0.6169
 5769SOL     OW29365   6.116   2.990   2.064  0.1898  0.0378  0.0630
 5769SOL    HW129366   6.067   2.992   1.977  1.3708 -0.7802 -0.6231
 5769SOL    HW229367   6.208   2.953   2.051 -0.5658 -2.8026  2.1036
 5770SOL     OW29368   6.905   5.766   1.232  0.2574 -0.0225  0.1139
 5770SOL    HW129369   6.901   5.839   1.163 -0.6584  0.8400  1.0717
 5770SOL    HW229370   6.994   5.722   1.228  0.6354  0.7990 -0.8384
 5771SOL     OW29371   3.864   7.213   3.679 -0.0482 -0.1541 -0.2886
 5771SOL    HW129372   3.933   7.225   3.607  0.2385 -2.5144 -0.4365
 5771SOL    HW229373   3.866   7.292   3.740  3.4620 -0.6141  0.2781
 5772SOL     OW29374   0.079   9.442   2.680 -0.3479 -0.4236  0.1087
 5772SOL    HW129375   0.154   9.500   2.648 -0.2589 -1.4084 -1.5224
 5772SOL    HW229376   0.104   9.401   2.768 -0.7689  2.6607  1.7398
 5773SOL     OW29377   2.134   2.540   2.766 -0.1061 -0.1883 -0.1600
 5773SOL    HW129378   2.175   2.529   2.675  1.0422 -1.2807  0.4715
 5773SOL    HW229379   2.095   2.453   2.795  1.1439 -0.3391  1.1494
 5774SOL     OW29380   9.142   0.894   8.266 -0.2773  0.4391 -0.1974
 5774SOL    HW129381   9.143   0.977   8.321 -1.1590  0.1496  0.2513
 5774SOL    HW229382   9.208   0.904   8.191 -0.5222  1.6190 -0.2687
 5775SOL     OW29383   9.779   4.933   7.798 -0.3210  0.3013 -0.2145
 5775SOL    HW129384   9.809   4.920   7.893  1.7455  0.7944 -0.7801
 5775SOL    HW229385   9.709   5.003   7.795  0.8231  1.5181  0.7662
 5776SOL     OW29386   7.327   7.842   3.460 -0.1326  0.0473 -0.4214
 5776SOL    HW129387   7.259   7.915   3.461  0.5279  0.6639  0.6455
 5776SOL    HW229388   7.371   7.836   3.550 -0.3973 -1.8745 -0.4012
 5777SOL     OW29389   1.786   0.727   7.743 -0.2982 -0.1255 -0.1445
 5777SOL    HW129390   1.864   0.701   7.686  0.1137 -1.7080  1.0994
 5777SOL    HW229391   1.807   0.707   7.839 -2.5167 -1.3256  0.1313
 5778SOL     OW29392   2.882   2.041   8.616  0.1863 -0.2346 -0.2985
 5778SOL    HW129393   2.960   1.990   8.580 -0.5078 -1.3144 -0.2919
 5778SOL    HW229394   2.863   2.119   8.556  0.6651 -0.5261 -0.8391
 5779SOL     OW29395   7.794   0.586  10.060 -0.5612  0.7242 -0.2157
 5779SOL    HW129396   7.771   0.680  10.037 -1.1166  0.4959 -0.5896
 5779SOL    HW229397   7.778   0.570  10.157 -2.4756  0.4284 -0.5611
 5780SOL     OW29398   6.706   0.463   9.212 -0.3330  0.1651  0.2185
 5780SOL    HW129399   6.788   0.498   9.167  0.7892 -0.5593  1.6954
 5780SOL    HW229400   6.691   0.368   9.185  0.5881 -0.4074  1.7102
 5781SOL     OW29401   8.380   1.845   0.988 -0.0906 -0.3782  0.3997
 5781SOL    HW129402   8.471   1.811   0.962  0.0802 -0.1163  0.6449
 5781SOL    HW229403   8.321   1.768   1.011  0.2596 -0.5168  0.8483
 5782SOL     OW29404   5.897   3.469   2.617  0.0322  0.2030 -0.3683
 5782SOL    HW129405   5.837   3.435   2.689  0.8474  0.2687  0.3392
 5782SOL    HW229406   5.965   3.531   2.656  0.9797 -0.3811 -1.0556
 5783SOL     OW29407   8.062   5.363   3.607 -0.3895  0.7960  0.1726
 5783SOL    HW129408   8.124   5.342   3.683 -0.0670  0.6154 -0.1400
 5783SOL    HW229409   8.012   5.280   3.581  0.0573  0.6773 -0.3137
 5784SOL     OW29410   8.814   2.900   1.331 -0.3100  0.4595 -0.3990
 5784SOL    HW129411   8.794   2.968   1.261  1.1540  0.5400 -0.7716
 5784SOL    HW229412   8.736   2.890   1.393 -1.2742  1.0274 -1.5162
 5785SOL     OW29413   3.570   6.660   0.306 -0.1639  0.5829  0.6493
 5785SOL    HW129414   3.570   6.572   0.352  1.0836  0.1156 -0.2482
 5785SOL    HW229415   3.542   6.731   0.371 -1.6706 -0.5174  1.2416
 5786SOL     OW29416   7.562   6.040   6.440 -0.5020  0.2806 -0.6457
 5786SOL    HW129417   7.488   5.976   6.418 -1.2113  1.3528 -1.4694
 5786SOL    HW229418   7.547   6.078   6.531 -0.7867  0.2221 -0.6665
 5787SOL     OW29419   9.839   9.194   9.894  0.1089 -0.2730 -0.2262
 5787SOL    HW129420   9.802   9.151   9.976  1.2931  0.0981  0.5155
 5787SOL    HW229421   9.905   9.264   9.920 -0.3097  0.6016 -1.4784
 5788SOL     OW29422   2.932   4.928   6.004 -0.1461  0.6281  0.5582
 5788SOL    HW129423   2.991   5.002   5.972  0.0789  0.8925  1.5820
 5788SOL    HW229424   2.979   4.877   6.076  1.0711 -2.5665 -2.3633
 5789SOL     OW29425   1.229   7.033   6.977 -0.3917  0.2910 -0.1883
 5789SOL    HW129426   1.212   7.042   7.075  2.9726  1.1751  0.3619
 5789SOL    HW229427   1.258   6.940   6.956  1.0027  0.6703  0.0187
 5790SOL     OW29428   9.469   6.034   0.250 -0.4513  0.0064  0.0723
 5790SOL    HW129429   9.466   6.111   0.314 -0.6986  0.5246 -0.5491
 5790SOL    HW229430   9.444   5.950   0.297 -3.1863  0.7640  0.0931
 5791SOL     OW29431   1.258   0.960   6.103  0.3523 -0.1464 -0.3336
 5791SOL    HW129432   1.248   1.013   6.187  2.1378  1.6109 -1.1671
 5791SOL    HW229433   1.220   0.868   6.116 -1.1702  0.7370  1.7320
 5792SOL     OW29434   3.905   9.648   3.808 -0.1817  0.0434 -0.2709
 5792SOL    HW129435   3.874   9.743   3.811 -1.2222 -0.3111  0.3326
 5792SOL    HW229436   3.997   9.642   3.847 -1.0085  0.4594  1.8281
 5793SOL     OW29437   6.855   1.833  10.046  0.3705 -0.2869  0.5620
 5793SOL    HW129438   6.804   1.755  10.082  1.8937 -1.5044  0.1854
 5793SOL    HW229439   6.798   1.915  10.048 -0.5012 -0.9294  3.0491
 5794SOL     OW29440   7.576   1.226   3.407 -0.6391 -0.1157  0.0007
 5794SOL    HW129441   7.494   1.170   3.396 -2.2858  1.6568  2.5754
 5794SOL    HW229442   7.635   1.184   3.476  0.0261 -0.7545 -0.9610
 5795SOL     OW29443   0.524   7.237   5.499 -0.1914 -0.0534  0.2758
 5795SOL    HW129444   0.614   7.269   5.469 -0.1798 -0.1547  0.2023
 5795SOL    HW229445   0.523   7.138   5.502 -1.6314 -0.2679 -3.9263
 5796SOL     OW29446   9.067   8.600   0.100  0.0906 -0.3378  0.3582
 5796SOL    HW129447   9.013   8.612   0.017  0.6766  0.0153  0.0173
 5796SOL    HW229448   9.093   8.690   0.136  2.1157 -0.4963 -0.6031
 5797SOL     OW29449   4.510   0.627   1.395 -0.6310 -0.1817  0.3555
 5797SOL    HW129450   4.557   0.671   1.472 -0.6716 -0.4497  0.5361
 5797SOL    HW229451   4.548   0.535   1.383 -1.3991 -0.5544  0.7667
 5798SOL     OW29452   1.170   0.698   3.845 -0.2213  0.3551 -0.4810
 5798SOL    HW129453   1.186   0.767   3.917 -1.2780  0.6211 -0.4930
 5798SOL    HW229454   1.192   0.607   3.881 -0.5011  0.5127  0.1053
 5799SOL     OW29455   0.544   4.957   6.339  0.9545 -0.0032  0.1713
 5799SOL    HW129456   0.470   4.913   6.287  0.5439 -0.6013  1.2561
 5799SOL    HW229457   0.620   4.893   6.347  0.6370 -0.2616  1.1367
 5800SOL     OW29458   3.209   1.203   5.659  0.0176 -0.1830  0.2891
 5800SOL    HW129459   3.291   1.247   5.695 -0.2909  1.6286 -1.1468
 5800SOL    HW229460   3.148   1.272   5.620 -0.6688 -1.8397 -1.7025
 5801SOL     OW29461   0.901   3.909   9.816 -0.2482 -0.3235  0.1011
 5801SOL    HW129462   0.971   3.859   9.867 -0.4949 -0.2164  0.5528
 5801SOL    HW229463   0.929   4.005   9.807  0.1787 -0.5215 -0.6780
 5802SOL     OW29464   5.822   3.254   8.634  0.0549 -0.6990  0.2026
 5802SOL    HW129465   5.850   3.194   8.708  0.8017 -1.0022 -0.3186
 5802SOL    HW229466   5.903   3.285   8.583 -0.5550 -2.0761 -1.6942
 5803SOL     OW29467   2.316   9.033   5.227 -0.3039  0.1094  0.2726
 5803SOL    HW129468   2.230   8.991   5.255  0.1738 -0.3186  1.1470
 5803SOL    HW229469   2.385   9.015   5.297  1.6530 -3.1541 -2.3271
 5804SOL     OW29470   7.236   1.362   0.570 -0.4031 -0.1016 -0.0584
 5804SOL    HW129471   7.208   1.291   0.634 -1.2538  0.8121  0.5894
 5804SOL    HW229472   7.290   1.431   0.618  0.3171 -0.2409 -0.6597
 5805SOL     OW29473   5.113   8.797   3.957 -0.4886  0.0714  0.2899
 5805SOL    HW129474   5.083   8.889   3.981 -1.2993  0.3151 -1.5176
 5805SOL    HW229475   5.115   8.739   4.038 -1.7905  1.1971  1.1336
 5806SOL     OW29476   0.203   9.094   9.978 -0.5889 -0.1643  0.3024
 5806SOL    HW129477   0.212   9.176   9.922 -0.3912 -0.4848 -0.1384
 5806SOL    HW229478   0.124   9.040   9.947  0.0957 -0.8321 -0.3043
 5807SOL     OW29479   2.083   5.182   2.627 -0.1156 -0.1778 -0.0203
 5807SOL    HW129480   2.014   5.254   2.633 -0.9604 -0.9221 -0.6232
 5807SOL    HW229481   2.041   5.098   2.592  0.9136 -0.8920  0.4309
 5808SOL     OW29482   2.111   0.188   4.388  0.0684  0.3607 -0.2549
 5808SOL    HW129483   2.144   0.280   4.370 -0.2475  0.2939 -1.2004
 5808SOL    HW229484   2.026   0.193   4.441 -0.2839  0.6287 -0.8442
 5809SOL     OW29485   0.746   8.023   9.737 -0.1656  0.1880 -0.2970
 5809SOL    HW129486   0.789   7.975   9.813 -2.9761 -1.2039  0.5177
 5809SOL    HW229487   0.771   7.978   9.651 -1.3770 -1.7314  0.3149
 5810SOL     OW29488   7.479   1.259   1.044  0.4183 -0.3646  0.2828
 5810SOL    HW129489   7.501   1.327   0.975 -3.4499  1.2412  0.4642
 5810SOL    HW229490   7.506   1.293   1.134  1.9249 -0.7421 -0.0236
 5811SOL     OW29491   3.945   8.227   0.563 -0.1136 -0.0228  0.1601
 5811SOL    HW129492   3.969   8.285   0.641  0.7795  0.6795 -0.6210
 5811SOL    HW229493   3.997   8.256   0.483 -1.2594 -0.5200 -0.7822
 5812SOL     OW29494   8.830   1.219   8.212 -0.3947  0.6254 -0.3581
 5812SOL    HW129495   8.853   1.133   8.166  0.8294  0.4332  0.5911
 5812SOL    HW229496   8.839   1.294   8.147 -0.1135  0.1930 -0.8255
 5813SOL     OW29497   0.760   9.596   5.885 -0.0187  0.3270 -0.4016
 5813SOL    HW129498   0.744   9.694   5.897 -1.3110  0.1017 -0.1413
 5813SOL    HW229499   0.709   9.546   5.956  3.1486 -0.4012  1.4543
 5814SOL     OW29500   2.805   0.772   8.023  0.0013  0.1104 -0.0381
 5814SOL    HW129501   2.798   0.847   7.957  0.4058 -0.0223 -0.2339
 5814SOL    HW229502   2.859   0.698   7.984  0.4366  0.1232  0.5247
 5815SOL     OW29503   4.864   4.754   3.006  0.0824  0.2618 -0.0560
 5815SOL    HW129504   4.790   4.779   3.068  0.2967  0.2886  0.1864
 5815SOL    HW229505   4.865   4.817   2.928 -1.0755 -0.6122 -0.8067
 5816SOL     OW29506   3.460   4.961   6.037  0.3532 -0.1260  0.6865
 5816SOL    HW129507   3.488   4.869   6.064  0.6651  0.1240  1.2317
 5816SOL    HW229508   3.440   4.963   5.939  3.1679 -0.1100  0.0483
 5817SOL     OW29509   0.147   8.666   2.406  0.1481  0.4581  0.4093
 5817SOL    HW129510   0.174   8.674   2.502 -0.3409  1.8399  0.4415
 5817SOL    HW229511   0.225   8.633   2.352  0.5257  0.0167  1.2131
 5818SOL     OW29512   9.450   6.020   6.102 -0.4329 -0.2606  0.3144
 5818SOL    HW129513   9.529   6.063   6.145 -0.5042  0.3303 -0.1208
 5818SOL    HW229514   9.392   6.092   6.061 -1.3735 -0.6571  0.9463
 5819SOL     OW29515   8.361   5.756   5.411  0.1148  0.2236  0.2398
 5819SOL    HW129516   8.366   5.684   5.480 -0.4900  0.1917  0.2553
 5819SOL    HW229517   8.270   5.798   5.413  0.5319  1.1180  0.3594
 5820SOL     OW29518   4.958   4.414   0.706 -0.0433 -0.5714 -0.2705
 5820SOL    HW129519   5.010   4.492   0.671  1.2625 -2.1172 -1.8730
 5820SOL    HW229520   4.981   4.399   0.802  0.6092  0.2771 -0.2850
 5821SOL     OW29521   2.919   3.091   0.353  0.2988  0.5229  0.4220
 5821SOL    HW129522   2.826   3.066   0.325  1.0646  0.9029 -2.5354
 5821SOL    HW229523   2.973   3.118   0.273  2.6524  1.3799  2.2300
 5822SOL     OW29524   8.921   8.341   2.202  0.3510 -0.3044  0.0329
 5822SOL    HW129525   8.910   8.338   2.103 -0.2089  2.2500 -0.0331
 5822SOL    HW229526   8.848   8.289   2.246 -0.6516  0.3392 -0.8636
 5823SOL     OW29527   7.232   3.252   4.793  0.4360 -0.2502  0.3186
 5823SOL    HW129528   7.213   3.293   4.882  1.0557  0.3785  0.1644
 5823SOL    HW229529   7.186   3.164   4.787  0.4968 -0.3587  1.3154
 5824SOL     OW29530   2.815   7.183   7.603  0.4870 -0.2391 -0.1780
 5824SOL    HW129531   2.734   7.125   7.614  0.8086 -0.5921  0.3725
 5824SOL    HW229532   2.897   7.126   7.605  1.0157  0.5411  3.6805
 5825SOL     OW29533   0.875   3.027   5.237 -0.4726 -0.1045  0.2282
 5825SOL    HW129534   0.894   2.993   5.145 -0.0077  0.4932  0.1027
 5825SOL    HW229535   0.778   3.049   5.245 -0.7841 -1.4176  0.2995
 5826SOL     OW29536   6.120   8.075   3.947 -0.4173 -0.0136  0.0223
 5826SOL    HW129537   6.088   8.150   4.004 -0.2217  0.6602 -0.7535
 5826SOL    HW229538   6.220   8.075   3.945 -0.4401  0.6469 -1.2211
 5827SOL     OW29539   9.512   5.041   4.384 -0.2119 -0.1093 -0.3889
 5827SOL    HW129540   9.429   5.008   4.429  1.2773 -1.2185  1.5748
 5827SOL    HW229541   9.534   4.980   4.307 -0.6979 -0.3345 -0.3538
 5828SOL     OW29542   9.919   5.812   3.261 -0.0474  0.3878 -0.2413
 5828SOL    HW129543   9.885   5.877   3.193  0.2819  3.0533  2.0034
 5828SOL    HW229544  10.018   5.825   3.272 -0.2367  0.6463  1.3324
 5829SOL     OW29545   0.755   6.689   8.377 -0.0458 -0.0341 -0.0524
 5829SOL    HW129546   0.769   6.623   8.451  0.8174 -0.6133 -0.7361
 5829SOL    HW229547   0.667   6.671   8.334  0.4624 -1.1473 -0.6475
 5830SOL     OW29548   9.257   0.325   4.935 -0.1744 -0.0348  0.3826
 5830SOL    HW129549   9.287   0.372   4.853  2.0909  2.3531  2.5202
 5830SOL    HW229550   9.175   0.369   4.971  0.7714  1.0123  1.2570
 5831SOL     OW29551   7.580   1.724   0.217 -0.2530  0.1486  0.2632
 5831SOL    HW129552   7.573   1.644   0.277  1.1397 -0.6165 -0.5558
 5831SOL    HW229553   7.669   1.723   0.171 -0.1834  2.2275  0.2956
 5832SOL     OW29554   4.704   3.024   7.018  0.8095  0.1156  0.1590
 5832SOL    HW129555   4.612   2.985   7.026 -0.3084  2.6801  0.3381
 5832SOL    HW229556   4.757   3.004   7.100 -0.2769  0.3109  0.9169
 5833SOL     OW29557   9.841   6.340   4.334  0.0513  0.4947  0.6252
 5833SOL    HW129558   9.855   6.248   4.297 -1.5218  0.0442  1.0749
 5833SOL    HW229559   9.928   6.378   4.364  0.7964 -0.6409 -0.0679
 5834SOL     OW29560   1.810   0.895   5.479 -0.6522 -0.1947 -0.1535
 5834SOL    HW129561   1.892   0.838   5.475 -0.3510  0.1673  0.7543
 5834SOL    HW229562   1.813   0.952   5.561 -1.4692  0.3443 -0.4946
 5835SOL     OW29563   0.529   9.132   5.154  0.1423 -0.3278  0.3042
 5835SOL    HW129564   0.595   9.205   5.171 -0.2207  0.3851 -1.2508
 5835SOL    HW229565   0.437   9.168   5.163 -0.0484 -1.0689  1.4060
 5836SOL     OW29566   3.974   1.440   4.439  0.7975  0.2260 -0.3586
 5836SOL    HW129567   3.876   1.422   4.440  0.9470 -0.7937 -2.0744
 5836SOL    HW229568   4.017   1.399   4.520 -0.0957  0.1817  0.0928
 5837SOL     OW29569   3.443   8.025   4.053 -0.2494  0.4941 -0.1573
 5837SOL    HW129570   3.483   7.935   4.036  1.5066  1.4855 -1.3374
 5837SOL    HW229571   3.412   8.030   4.148 -1.2330 -1.6784 -0.3312
 5838SOL     OW29572   8.051   0.669   9.739 -0.0230 -0.5913 -0.2461
 5838SOL    HW129573   8.085   0.645   9.648 -0.4859 -1.1578 -0.2753
 5838SOL    HW229574   8.028   0.585   9.789  0.3587 -0.2876  0.4397
 5839SOL     OW29575   8.464   8.712   3.141  0.3630 -0.2761 -0.6949
 5839SOL    HW129576   8.503   8.765   3.066  1.4930  0.0506  0.1134
 5839SOL    HW229577   8.536   8.690   3.207 -0.6936 -0.2261  0.4928
 5840SOL     OW29578   6.417   1.655   1.102 -0.0680  0.0377 -0.6929
 5840SOL    HW129579   6.513   1.680   1.111  0.0754  0.2171 -2.4500
 5840SOL    HW229580   6.409   1.561   1.070 -0.4411  0.3574 -1.5696
 5841SOL     OW29581   4.360   4.196   3.378  0.2002  0.0820  0.1332
 5841SOL    HW129582   4.288   4.200   3.447 -0.7206  0.6954 -0.8514
 5841SOL    HW229583   4.449   4.205   3.423 -0.3149 -0.9933  1.3811
 5842SOL     OW29584   8.885   2.014   9.471 -0.7718 -0.0300  0.0955
 5842SOL    HW129585   8.836   2.080   9.413  0.5226  0.1067 -0.8752
 5842SOL    HW229586   8.932   2.063   9.544 -0.6915  0.0194  0.0114
 5843SOL     OW29587   6.874   1.130   3.067  0.1584 -0.3675 -0.0655
 5843SOL    HW129588   6.925   1.054   3.106  0.1407  0.4470  1.6192
 5843SOL    HW229589   6.806   1.162   3.133 -0.4805  0.4890 -1.1174
 5844SOL     OW29590   0.875   6.926   7.101 -0.3786  0.2762  0.3183
 5844SOL    HW129591   0.904   7.001   7.042 -0.7947  1.4096  1.5112
 5844SOL    HW229592   0.939   6.918   7.178 -0.1201 -0.8446 -0.0137
 5845SOL     OW29593   9.811   7.260   1.382 -0.3907 -0.3662 -0.1207
 5845SOL    HW129594   9.821   7.358   1.402  0.3698 -0.6853  1.1258
 5845SOL    HW229595   9.723   7.228   1.417 -0.1150 -0.3880  0.5652
 5846SOL     OW29596   9.087   8.020   5.855 -0.0242 -0.3499 -0.6376
 5846SOL    HW129597   9.125   7.961   5.783  1.5360  1.5392 -1.4401
 5846SOL    HW229598   9.045   7.964   5.926  3.3876 -2.5567 -0.2419
 5847SOL     OW29599   4.132   7.477   6.917  0.1160 -0.3709 -0.4383
 5847SOL    HW129600   4.109   7.437   7.005 -0.7818 -0.3396 -0.6540
 5847SOL    HW229601   4.141   7.404   6.849  2.4748 -0.5468  0.0252
 5848SOL     OW29602   2.141   6.625   6.965 -0.1340  0.2007  0.2892
 5848SOL    HW129603   2.227   6.673   6.984  0.4997 -1.2296  1.0508
 5848SOL    HW229604   2.147   6.579   6.876 -0.2784  0.4624  0.1424
 5849SOL     OW29605   3.312   8.867   4.389 -0.0747 -0.0014 -0.4760
 5849SOL    HW129606   3.336   8.958   4.425 -1.0262  0.4724 -1.0146
 5849SOL    HW229607   3.395   8.813   4.379  0.5013  0.7935 -0.0926
 5850SOL     OW29608   1.364   0.033   7.637 -1.0883 -0.1284 -0.6596
 5850SOL    HW129609   1.430  -0.015   7.580  0.0489  1.2496 -0.5219
 5850SOL    HW229610   1.329   0.112   7.587  0.0288  1.1781  0.5886
 5851SOL     OW29611   0.682   2.546   9.357 -0.2569 -0.1633  0.1720
 5851SOL    HW129612   0.779   2.567   9.350 -0.0164 -1.3692 -0.2590
 5851SOL    HW229613   0.635   2.576   9.274  0.1019 -1.4103 -0.4869
 5852SOL     OW29614   9.187   2.730   2.091 -0.0251 -0.3191  0.7208
 5852SOL    HW129615   9.241   2.799   2.042 -1.0407 -0.9642 -1.3477
 5852SOL    HW229616   9.248   2.673   2.146  1.4680 -1.1969 -1.7759
 5853SOL     OW29617   8.972   8.972   8.329  0.0102  0.4168 -0.1129
 5853SOL    HW129618   8.916   8.978   8.246  0.2492 -0.8656 -0.3857
 5853SOL    HW229619   8.971   9.060   8.376 -3.0043  0.1930  0.3713
 5854SOL     OW29620   1.732   5.451   3.224  0.1726  0.1055  0.4997
 5854SOL    HW129621   1.742   5.518   3.298  1.2104  0.6554 -0.1227
 5854SOL    HW229622   1.662   5.384   3.249  0.9829 -0.1116  2.2758
 5855SOL     OW29623   4.025   8.464   3.084  0.0507  0.2554  0.1929
 5855SOL    HW129624   4.098   8.450   3.017 -2.0315 -2.3928 -1.6528
 5855SOL    HW229625   4.045   8.415   3.168 -0.1335 -1.5033 -0.7644
 5856SOL     OW29626   5.233   0.969   9.529 -0.0245 -0.7765  0.3395
 5856SOL    HW129627   5.306   0.978   9.461 -0.1093 -1.6435  0.1385
 5856SOL    HW229628   5.144   0.965   9.483 -0.2932  1.2005  0.6255
 5857SOL     OW29629   9.865   1.348   3.418 -0.0922  0.0652 -0.2996
 5857SOL    HW129630   9.885   1.375   3.512 -1.9089 -1.1209  0.4545
 5857SOL    HW229631   9.785   1.397   3.385 -1.1248 -1.5398 -0.2396
 5858SOL     OW29632   1.947   8.790   6.530 -0.0031 -0.4621  0.0313
 5858SOL    HW129633   1.883   8.866   6.547  0.1226  0.0930 -1.8941
 5858SOL    HW229634   1.896   8.712   6.495  0.5843  0.5958 -3.2784
 5859SOL     OW29635   5.351   3.891   2.371  0.6135  0.1344  0.0728
 5859SOL    HW129636   5.369   3.809   2.317  0.6517 -0.0321  0.3387
 5859SOL    HW229637   5.317   3.865   2.461 -2.1159  0.4402 -0.8114
 5860SOL     OW29638   0.878   5.700   7.127 -0.0405 -0.0286 -0.2008
 5860SOL    HW129639   0.830   5.618   7.158  0.3654 -0.7846 -1.5087
 5860SOL    HW229640   0.934   5.736   7.201  1.4975 -2.2114 -0.2554
 5861SOL     OW29641   4.473   3.073   5.596  0.5051  0.1485  0.5008
 5861SOL    HW129642   4.373   3.068   5.590  0.6551 -2.7478 -0.0175
 5861SOL    HW229643   4.503   3.043   5.686  0.9078  1.1616  0.7083
 5862SOL     OW29644   8.640   0.172   3.904  0.0365 -0.2645 -0.8071
 5862SOL    HW129645   8.642   0.077   3.873 -1.6089 -0.1543 -1.3080
 5862SOL    HW229646   8.547   0.207   3.895  0.0814  0.5914  1.7923
 5863SOL     OW29647   8.118   4.395   7.947 -0.0097 -0.3554 -0.0751
 5863SOL    HW129648   8.155   4.351   7.866 -1.0573 -1.5498  0.0809
 5863SOL    HW229649   8.129   4.494   7.940 -0.5276 -0.4134 -1.8919
 5864SOL     OW29650   2.427   7.562   7.595  0.1246  0.0508 -0.3168
 5864SOL    HW129651   2.363   7.494   7.631  1.9003 -1.2664  0.4402
 5864SOL    HW229652   2.494   7.586   7.665 -0.5617  2.7300 -0.5421
 5865SOL     OW29653   0.040   1.530   3.267  0.2544  0.4125 -0.4864
 5865SOL    HW129654   0.042   1.609   3.329  0.1709  0.2828 -0.3197
 5865SOL    HW229655  -0.017   1.458   3.307  1.2923 -0.1909 -0.0944
 5866SOL     OW29656   6.297   5.020   2.572  0.0217  0.0043  0.2951
 5866SOL    HW129657   6.369   5.082   2.542 -0.9706  0.7704 -0.5394
 5866SOL    HW229658   6.311   4.996   2.668 -0.3295  2.5978  1.0326
 5867SOL     OW29659   6.443   2.647   9.297  0.3043  0.3893  0.2990
 5867SOL    HW129660   6.515   2.625   9.232  0.5881 -0.8474  1.0241
 5867SOL    HW229661   6.471   2.618   9.389 -0.5294  1.1742  0.8092
 5868SOL     OW29662   4.169   7.364   4.994 -0.2660 -0.3450 -0.1459
 5868SOL    HW129663   4.242   7.297   5.000 -0.2465 -0.2100  1.4875
 5868SOL    HW229664   4.202   7.447   4.950  0.0059 -1.0155 -1.2021
 5869SOL     OW29665   3.589   8.653   9.908  0.1376 -0.1354  0.6613
 5869SOL    HW129666   3.586   8.753   9.910  0.9917 -0.0685 -0.7159
 5869SOL    HW229667   3.531   8.620   9.833 -0.6848 -0.7154  1.5370
 5870SOL     OW29668   8.000   9.156   6.871  0.0406 -0.0205 -0.3827
 5870SOL    HW129669   8.049   9.197   6.948  1.3543 -0.3975 -1.0090
 5870SOL    HW229670   7.939   9.084   6.905 -0.8881  1.1555  0.5140
 5871SOL     OW29671   0.538   1.933   5.338  0.0201 -0.0865  0.2817
 5871SOL    HW129672   0.550   1.834   5.349 -0.9009 -0.1643  0.6868
 5871SOL    HW229673   0.581   1.962   5.253  0.7522 -0.7486  0.4142
 5872SOL     OW29674   8.275   8.754   6.648  0.2301  0.1658 -0.2845
 5872SOL    HW129675   8.354   8.809   6.674  0.2742 -1.2354  2.7065
 5872SOL    HW229676   8.191   8.805   6.670  0.2425  1.4183 -2.9432
 5873SOL     OW29677   0.115   2.499   0.075  0.4867 -0.3286 -0.0004
 5873SOL    HW129678   0.077   2.440   0.146  0.3640 -0.2787 -0.0236
 5873SOL    HW229679   0.190   2.452   0.029 -1.2226 -1.4769 -1.7072
 5874SOL     OW29680   7.377   8.771   5.584 -0.0559  0.0750 -0.0425
 5874SOL    HW129681   7.302   8.707   5.568  0.1627  0.2877 -2.0299
 5874SOL    HW229682   7.348   8.864   5.559  1.0752  0.0495 -1.5189
 5875SOL     OW29683   4.297   2.811   8.037 -0.1953 -0.3726 -0.4250
 5875SOL    HW129684   4.320   2.908   8.039  0.7597 -0.5566 -1.8173
 5875SOL    HW229685   4.310   2.772   8.128  0.2074  0.6346 -0.0448
 5876SOL     OW29686   4.331   3.477   8.693  0.2873 -0.3819 -0.0514
 5876SOL    HW129687   4.353   3.529   8.611  1.3100 -0.2282  0.3204
 5876SOL    HW229688   4.247   3.424   8.677  0.3288 -0.1410 -1.0906
 5877SOL     OW29689   8.016   1.977   3.987  0.4829  0.2672  0.1775
 5877SOL    HW129690   8.086   2.043   3.960  1.0299 -0.4412 -0.1528
 5877SOL    HW229691   7.998   1.915   3.912  0.6073 -0.5087  0.7796
 5878SOL     OW29692   1.696   6.686   0.468 -0.4981 -0.6470  0.6031
 5878SOL    HW129693   1.742   6.756   0.523 -0.3610 -1.2076  1.2138
 5878SOL    HW229694   1.760   6.611   0.449 -0.1513  0.1328 -1.4369
 5879SOL     OW29695   4.175   2.860   2.601 -0.1696 -0.2400  0.5257
 5879SOL    HW129696   4.142   2.946   2.564  0.5414  0.5216  1.6461
 5879SOL    HW229697   4.135   2.845   2.691 -0.3645 -1.1398  0.3011
 5880SOL     OW29698   0.388   5.680   3.492 -0.2120  0.0184  0.1106
 5880SOL    HW129699   0.362   5.710   3.584 -0.7307 -1.3874  0.4251
 5880SOL    HW229700   0.333   5.729   3.424 -1.4031 -0.5908  0.6396
 5881SOL     OW29701   1.082   3.005   5.907  0.0078  0.1861 -0.0681
 5881SOL    HW129702   1.176   3.018   5.939 -0.0215 -2.0176  1.0524
 5881SOL    HW229703   1.082   2.984   5.809  0.6911 -0.0389 -0.0186
 5882SOL     OW29704   6.885   5.299   9.437  0.4785 -0.5216  0.5511
 5882SOL    HW129705   6.887   5.364   9.514 -2.2860 -1.4537  1.4483
 5882SOL    HW229706   6.827   5.221   9.461  2.1627 -2.3824 -1.2948
 5883SOL     OW29707   3.968   5.352   8.912 -0.3448  0.1757  0.1403
 5883SOL    HW129708   4.042   5.308   8.964 -0.3648 -0.6058 -0.4923
 5883SOL    HW229709   3.959   5.308   8.823 -0.0456  1.7732 -0.7018
 5884SOL     OW29710   2.740   4.094   1.296  0.1468  0.7840 -0.0941
 5884SOL    HW129711   2.640   4.094   1.290  0.0985  1.6754  0.7020
 5884SOL    HW229712   2.779   4.094   1.204 -0.5728 -1.4449 -0.4464
 5885SOL     OW29713   4.457   4.419   9.729 -0.4800 -0.3226 -0.4046
 5885SOL    HW129714   4.421   4.391   9.639  1.1540 -1.7020 -0.6531
 5885SOL    HW229715   4.545   4.465   9.716 -0.7631  0.4334  0.4054
 5886SOL     OW29716   9.078   5.590   4.631  0.4391 -0.1621 -0.5173
 5886SOL    HW129717   9.035   5.501   4.649 -0.8600  0.1435 -1.9866
 5886SOL    HW229718   9.149   5.580   4.562 -0.6462  0.1476 -1.7033
 5887SOL     OW29719   7.939   4.637   7.754 -0.2558 -0.5533  0.1747
 5887SOL    HW129720   7.854   4.661   7.707 -0.0646 -0.7738 -0.2813
 5887SOL    HW229721   7.918   4.589   7.840 -0.6419  1.1737  1.0698
 5888SOL     OW29722   3.873   9.606   0.327  0.0093  0.2879  0.1621
 5888SOL    HW129723   3.839   9.604   0.233  1.7719  1.0523 -0.5200
 5888SOL    HW229724   3.882   9.701   0.357  1.1912  0.0926  0.4421
 5889SOL     OW29725   4.627   2.345   6.351  0.1185 -0.0934  0.2265
 5889SOL    HW129726   4.529   2.334   6.364  0.1633  0.4998  1.1282
 5889SOL    HW229727   4.644   2.408   6.275 -0.2022  0.1172  0.3304
 5890SOL     OW29728   9.639   2.024   9.294  0.5294  0.5981 -0.7199
 5890SOL    HW129729   9.619   2.098   9.230  2.6417  3.3842  1.7089
 5890SOL    HW229730   9.641   2.060   9.387 -0.7603 -3.0189  0.7744
 5891SOL     OW29731   7.442   4.252   8.737 -0.0818 -0.6024  0.0384
 5891SOL    HW129732   7.494   4.321   8.788  0.3678 -2.5426  2.2944
 5891SOL    HW229733   7.356   4.291   8.706  0.0838  0.9212  1.4499
 5892SOL     OW29734   4.325   0.875   8.437  0.2313  0.2129 -0.0750
 5892SOL    HW129735   4.397   0.883   8.506  0.2729 -1.0376  0.0368
 5892SOL    HW229736   4.348   0.802   8.373 -0.9335 -0.2009 -0.0307
 5893SOL     OW29737   6.417   2.814   1.634  0.0466  0.3982 -0.1788
 5893SOL    HW129738   6.427   2.717   1.655  0.9270  0.8991  1.7597
 5893SOL    HW229739   6.500   2.848   1.591  0.2552  0.6180  0.4015
 5894SOL     OW29740   4.282   2.101   4.988 -0.1583  0.4923  0.0312
 5894SOL    HW129741   4.232   2.066   4.909 -0.8993  0.5797  0.4637
 5894SOL    HW229742   4.371   2.055   4.994 -0.3631  0.0239 -0.4706
 5895SOL     OW29743   8.215   7.182   9.745 -0.0672  0.0642 -0.6791
 5895SOL    HW129744   8.249   7.090   9.725 -0.6641 -0.2529 -0.2463
 5895SOL    HW229745   8.204   7.232   9.659 -0.6380 -0.5961 -0.9993
 5896SOL     OW29746   9.204   8.503   7.764 -0.6103  0.3288 -0.0522
 5896SOL    HW129747   9.295   8.489   7.802 -0.8476 -0.3470  0.2855
 5896SOL    HW229748   9.198   8.458   7.675 -0.9392 -0.5698  0.4086
 5897SOL     OW29749   3.162   8.553   4.830 -0.6450  0.1339  0.4434
 5897SOL    HW129750   3.068   8.583   4.814 -0.2292  0.8608 -0.6173
 5897SOL    HW229751   3.200   8.514   4.746  0.7593  1.8972  0.2388
 5898SOL     OW29752   1.713   8.976   7.712 -0.2588  0.4761 -0.0253
 5898SOL    HW129753   1.764   8.926   7.782  0.6422 -1.2015 -1.8276
 5898SOL    HW229754   1.617   8.948   7.714 -0.3832  0.9538  0.9789
 5899SOL     OW29755   3.670   1.060   0.329 -0.8937  0.8300  0.3674
 5899SOL    HW129756   3.721   1.043   0.245 -0.8923  2.2678  0.0578
 5899SOL    HW229757   3.610   1.139   0.316 -0.6653  1.2554  1.8148
 5900SOL     OW29758   8.435   9.379   8.261  0.1504 -0.9782  0.1859
 5900SOL    HW129759   8.347   9.373   8.309 -0.2709  2.4096 -0.0184
 5900SOL    HW229760   8.426   9.337   8.171 -1.5145 -0.0497 -0.1122
 5901SOL     OW29761   7.754   8.841   7.916  0.4185 -0.0944 -0.0691
 5901SOL    HW129762   7.796   8.853   7.825 -0.4699  1.4922 -0.2843
 5901SOL    HW229763   7.657   8.864   7.911  0.2022 -0.7359  1.1299
 5902SOL     OW29764   5.083   1.834   1.508  0.2896  0.0431 -0.2873
 5902SOL    HW129765   5.044   1.809   1.419  0.0978  1.4196 -0.6097
 5902SOL    HW229766   5.070   1.760   1.573 -0.9293 -0.3701 -0.9969
 5903SOL     OW29767   8.031   5.942   6.500  0.1182  0.1603 -0.1675
 5903SOL    HW129768   8.095   5.995   6.446 -0.6490 -0.4491 -1.7008
 5903SOL    HW229769   7.937   5.960   6.469 -0.2376 -1.1915  0.0745
 5904SOL     OW29770   0.843   7.857   9.211 -0.0479  0.1398 -0.2199
 5904SOL    HW129771   0.891   7.856   9.123  3.5343 -0.4508  1.6642
 5904SOL    HW229772   0.850   7.766   9.253 -1.4709  0.5108  0.8552
 5905SOL     OW29773   2.870   2.264   9.786 -0.0942 -0.0797 -0.0682
 5905SOL    HW129774   2.775   2.236   9.770 -0.1510  0.5256 -0.8747
 5905SOL    HW229775   2.915   2.198   9.846 -1.0160 -0.3916  0.2957
 5906SOL     OW29776   8.023   0.536   7.282 -0.0106 -0.1380 -0.0083
 5906SOL    HW129777   7.984   0.447   7.259  1.0536 -0.8425  0.8485
 5906SOL    HW229778   8.020   0.549   7.381  0.9824  0.2304 -0.0199
 5907SOL     OW29779   4.876   3.555   4.944  1.0878  0.2680 -0.1855
 5907SOL    HW129780   4.887   3.639   4.997 -2.1344  1.1542 -0.8231
 5907SOL    HW229781   4.845   3.481   5.003  0.0406  0.5878 -0.3167
 5908SOL     OW29782   1.891   1.439   7.444 -0.2122 -0.3976 -0.1202
 5908SOL    HW129783   1.933   1.383   7.515  1.1258 -0.9643 -1.3348
 5908SOL    HW229784   1.921   1.408   7.354 -1.3818  0.7133 -0.9267
 5909SOL     OW29785   2.816   2.489   6.567  0.1433 -0.7907  0.2491
 5909SOL    HW129786   2.742   2.556   6.566 -0.3183 -1.2990 -1.3000
 5909SOL    HW229787   2.813   2.437   6.652  1.6063  2.3224  2.3447
 5910SOL     OW29788   6.460   7.585   3.346 -0.1355 -0.1016 -0.0559
 5910SOL    HW129789   6.439   7.494   3.312  2.0304 -0.3337 -0.8492
 5910SOL    HW229790   6.454   7.651   3.271 -1.7543  0.4441  0.5274
 5911SOL     OW29791   1.054   5.134   9.236 -0.3882  0.3844 -0.6697
 5911SOL    HW129792   1.009   5.166   9.153 -0.4389  3.1225  0.3620
 5911SOL    HW229793   1.145   5.098   9.213 -0.8052  0.1702 -2.0128
 5912SOL     OW29794   3.194   9.538   4.116 -0.0743 -0.1426 -0.5870
 5912SOL    HW129795   3.241   9.450   4.101 -0.8125 -0.6737  0.1522
 5912SOL    HW229796   3.181   9.584   4.029  0.8697 -0.4896 -0.9183
 5913SOL     OW29797   0.703   7.067   9.131 -0.0755  0.2044 -0.0819
 5913SOL    HW129798   0.730   7.007   9.206 -2.7289  0.4260  1.0820
 5913SOL    HW229799   0.772   7.062   9.058  2.1990 -0.5079  2.0510
 5914SOL     OW29800   9.065   5.297   9.392 -0.2382  0.2350  0.9398
 5914SOL    HW129801   8.986   5.359   9.399 -0.4365 -0.1220  2.0049
 5914SOL    HW229802   9.149   5.351   9.392 -0.4330  0.5431  1.2015
 5915SOL     OW29803   8.916   0.932   4.256  0.1654  0.1037  0.2976
 5915SOL    HW129804   8.821   0.950   4.282 -0.5652 -1.0371 -1.4954
 5915SOL    HW229805   8.920   0.851   4.198  2.4610 -0.8550  1.7309
 5916SOL     OW29806   9.100   9.741   8.008  0.0397  0.7788 -0.3353
 5916SOL    HW129807   9.008   9.702   8.010  0.0409  0.7805 -0.2291
 5916SOL    HW229808   9.146   9.712   7.924  0.4248 -0.3145  0.2483
 5917SOL     OW29809   7.998   1.402   7.652  0.2144 -0.3522  0.1366
 5917SOL    HW129810   8.033   1.312   7.676  1.6898 -0.1215 -1.0834
 5917SOL    HW229811   8.031   1.470   7.718 -0.9000 -0.6871  1.0570
 5918SOL     OW29812   4.390   2.325   2.281 -0.4174  0.3494  0.1899
 5918SOL    HW129813   4.402   2.236   2.236 -0.7273  0.7193 -0.6433
 5918SOL    HW229814   4.361   2.311   2.376  1.0864 -0.4573  0.5359
 5919SOL     OW29815   1.239   7.348   6.876  0.3271 -0.1285  0.1024
 5919SOL    HW129816   1.267   7.261   6.917  0.0412 -0.7493 -1.0004
 5919SOL    HW229817   1.158   7.383   6.923  0.8406 -0.1247  0.9831
 5920SOL     OW29818   3.032   7.883   3.431  0.1788  0.1423  0.1835
 5920SOL    HW129819   3.069   7.790   3.441 -0.3636 -0.0620  0.3050
 5920SOL    HW229820   2.943   7.888   3.476 -1.3490 -0.1849 -2.6749
 5921SOL     OW29821   3.569   8.396   1.481  0.2015 -0.0966  0.2951
 5921SOL    HW129822   3.521   8.358   1.560  0.0794 -1.3208 -0.3465
 5921SOL    HW229823   3.578   8.495   1.491  0.6861 -0.3108  2.1095
 5922SOL     OW29824   1.649   7.149   5.749 -0.1241  0.2497  0.0617
 5922SOL    HW129825   1.599   7.109   5.826 -1.7858 -1.2239 -1.7640
 5922SOL    HW229826   1.598   7.136   5.665  2.0799  1.1079 -1.4596
 5923SOL     OW29827   8.073   9.233   5.085 -0.5241  0.6287 -0.0157
 5923SOL    HW129828   8.001   9.302   5.078 -1.6603 -0.3782  1.4187
 5923SOL    HW229829   8.087   9.191   4.995 -2.1296  0.4523 -0.1954
 5924SOL     OW29830   0.148   7.480   5.746 -0.3341  0.5186 -0.3204
 5924SOL    HW129831   0.195   7.428   5.675 -1.3129 -1.5354  0.4836
 5924SOL    HW229832   0.207   7.490   5.826 -0.0930  0.7603 -0.5303
 5925SOL     OW29833   4.012   6.994   3.066  0.1108  0.3978  0.0238
 5925SOL    HW129834   3.957   7.050   3.128 -2.6274 -0.3669 -1.6363
 5925SOL    HW229835   4.007   6.898   3.094 -0.9532  0.0812 -1.2089
 5926SOL     OW29836   4.513   7.217   7.197 -0.0119 -0.4797 -0.7969
 5926SOL    HW129837   4.510   7.305   7.151 -3.7277  0.3314  0.7896
 5926SOL    HW229838   4.574   7.222   7.276  0.3438  0.4240 -1.1280
 5927SOL     OW29839   9.986   9.180   8.935 -0.6089 -0.7608 -0.1503
 5927SOL    HW129840   9.900   9.140   8.967 -1.5198 -0.8011 -2.5454
 5927SOL    HW229841  10.055   9.108   8.926 -0.5811 -0.8721  0.9363
 5928SOL     OW29842   2.782   3.115   0.602  0.0111  0.2506  0.2641
 5928SOL    HW129843   2.843   3.119   0.681 -0.2647  0.9249  0.4434
 5928SOL    HW229844   2.829   3.070   0.526  0.7429  0.8080  0.3837
 5929SOL     OW29845   9.068   9.948   0.496 -0.3065  0.4640  0.0375
 5929SOL    HW129846   9.072  10.048   0.498 -1.3203  0.5350 -0.8970
 5929SOL    HW229847   9.157   9.910   0.520  0.0216  1.5883  0.6250
 5930SOL     OW29848   1.535   6.079   3.745 -0.3742 -0.2562 -0.2820
 5930SOL    HW129849   1.522   6.166   3.792 -0.3882  0.1484 -1.0303
 5930SOL    HW229850   1.629   6.073   3.712  0.4643 -1.7558  2.2388
 5931SOL     OW29851   4.063   1.952   8.472  0.0638 -0.0593  0.0664
 5931SOL    HW129852   4.105   2.008   8.544  0.2290  0.7074 -0.6295
 5931SOL    HW229853   4.092   1.984   8.383 -0.2168 -0.9629 -0.3550
 5932SOL     OW29854   7.867   9.621   8.127  0.1298 -0.4441 -0.1707
 5932SOL    HW129855   7.836   9.552   8.062 -1.2946 -0.4088  0.4485
 5932SOL    HW229856   7.794   9.640   8.193  1.4579 -0.3285  1.3142
 5933SOL     OW29857   8.569   6.020   4.263  0.0565  0.2197  0.4386
 5933SOL    HW129858   8.476   6.039   4.296 -0.7385 -0.5680 -1.3253
 5933SOL    HW229859   8.629   6.095   4.292 -1.1115  0.7431  1.6002
 5934SOL     OW29860   9.819   2.093   2.610  0.3647 -0.2334 -0.6052
 5934SOL    HW129861   9.888   2.111   2.540 -0.8219  1.1485 -1.4464
 5934SOL    HW229862   9.769   2.177   2.630 -2.3743 -1.6210 -1.3898
 5935SOL     OW29863   2.205   2.161   8.973 -0.5571 -0.5541 -0.4060
 5935SOL    HW129864   2.283   2.214   9.007  0.4810 -1.3488 -1.5152
 5935SOL    HW229865   2.123   2.217   8.976 -0.6388 -0.7349  3.8842
 5936SOL     OW29866   0.041   6.004   0.140 -0.0179 -0.6090  0.2522
 5936SOL    HW129867   0.080   5.998   0.048  0.8187 -2.3845  0.7090
 5936SOL    HW229868  -0.036   5.941   0.147 -0.4419 -0.0536  0.6003
 5937SOL     OW29869   4.292   0.793   5.826  0.2225  1.0102  0.2366
 5937SOL    HW129870   4.324   0.701   5.849  0.6389  1.5069  1.6992
 5937SOL    HW229871   4.206   0.787   5.775 -0.1354 -0.1659  0.9654
 5938SOL     OW29872   7.558   9.416   8.470 -0.0133 -0.2768 -0.2720
 5938SOL    HW129873   7.469   9.458   8.451  0.6876  1.6699  0.6124
 5938SOL    HW229874   7.544   9.323   8.504 -1.7645  0.4269  1.0251
 5939SOL     OW29875   4.322   0.640   7.818 -0.4082 -0.2311 -0.1030
 5939SOL    HW129876   4.231   0.603   7.798 -0.1668  0.0745 -1.8316
 5939SOL    HW229877   4.365   0.585   7.889 -2.5655  0.5842  1.9227
 5940SOL     OW29878   4.405   3.217   9.061 -0.2497 -0.4467 -0.5131
 5940SOL    HW129879   4.408   3.165   9.146 -1.9174  1.3712  0.7283
 5940SOL    HW229880   4.459   3.171   8.991  1.5547 -1.7351  1.6633
 5941SOL     OW29881   4.122   3.434   6.450  0.1146  0.1180 -0.6915
 5941SOL    HW129882   4.024   3.419   6.439 -0.3469  1.9407  0.7337
 5941SOL    HW229883   4.155   3.380   6.528  0.0473  0.2701 -0.5577
 5942SOL     OW29884   6.440   5.652   7.868  0.1461  0.1317  0.6513
 5942SOL    HW129885   6.476   5.602   7.789 -0.7625  1.2173 -0.4621
 5942SOL    HW229886   6.514   5.707   7.908  0.4589  0.0609  0.1784
 5943SOL     OW29887   3.769   5.045   6.079  0.4699 -0.4636  0.4582
 5943SOL    HW129888   3.758   5.006   5.988  1.7415  1.6765 -0.6522
 5943SOL    HW229889   3.691   5.104   6.100  0.7776  0.0402  0.2116
 5944SOL     OW29890   5.347   3.438   9.095 -0.2008  0.1670 -0.4322
 5944SOL    HW129891   5.354   3.341   9.117 -0.4947  0.3824  0.6034
 5944SOL    HW229892   5.434   3.470   9.058  0.2750 -0.2048  0.3603
 5945SOL     OW29893   8.015   4.528   9.219  0.0113 -0.0122 -0.1133
 5945SOL    HW129894   8.010   4.428   9.219  0.4184 -0.0414 -2.0668
 5945SOL    HW229895   7.965   4.564   9.141  1.5884  1.2103 -0.5891
 5946SOL     OW29896   2.193   2.665   3.007 -0.0392 -0.3520  0.8840
 5946SOL    HW129897   2.192   2.630   2.913  0.7914 -0.5324  0.9345
 5946SOL    HW229898   2.104   2.648   3.050  0.7168 -3.6409  1.3419
 5947SOL     OW29899   4.068   2.830   0.501  0.1799  0.4559 -0.3010
 5947SOL    HW129900   4.100   2.906   0.558  1.3569  0.1047 -0.4715
 5947SOL    HW229901   4.019   2.765   0.559 -0.3859  1.0923 -0.0583
 5948SOL     OW29902   2.266   5.120   6.098 -0.3074  0.4333  0.5310
 5948SOL    HW129903   2.278   5.208   6.144 -0.0947 -0.5340  2.3462
 5948SOL    HW229904   2.255   5.048   6.166 -1.6189 -0.7994 -0.9511
 5949SOL     OW29905   2.143   5.414   3.971  0.1444  0.2226  0.3339
 5949SOL    HW129906   2.058   5.415   4.024 -0.1731  0.1035 -0.1721
 5949SOL    HW229907   2.142   5.489   3.904 -0.2249 -0.6998 -0.7112
 5950SOL     OW29908   0.974   3.759   7.691 -0.5661  0.0328 -1.0137
 5950SOL    HW129909   0.893   3.705   7.670  0.5725 -0.7204 -3.5798
 5950SOL    HW229910   1.035   3.761   7.612  1.2758  1.7638  0.3946
 5951SOL     OW29911   7.869   5.616   7.439  0.2390 -0.5589  0.2927
 5951SOL    HW129912   7.844   5.569   7.523 -0.1195 -1.1145 -0.1200
 5951SOL    HW229913   7.833   5.566   7.361  0.8891 -0.2508 -0.2127
 5952SOL     OW29914   1.286   2.947   8.416  0.4021  0.3220 -0.2334
 5952SOL    HW129915   1.235   3.004   8.352  1.4713  0.3567 -1.0644
 5952SOL    HW229916   1.374   2.990   8.437  0.6609 -0.3828  0.1466
 5953SOL     OW29917   0.637   8.026   0.112  0.1202 -0.4025 -0.7927
 5953SOL    HW129918   0.706   8.064   0.052 -1.2294  1.5390 -1.1504
 5953SOL    HW229919   0.565   7.983   0.057 -1.4046  1.8789 -0.6137
 5954SOL     OW29920   0.032   2.915   8.275  0.0446 -0.3365  0.9823
 5954SOL    HW129921   0.095   2.854   8.226 -0.0946  0.1664  0.1770
 5954SOL    HW229922  -0.062   2.896   8.248  0.1494  1.7481 -0.9897
 5955SOL     OW29923   8.647   1.368   1.353  0.2258 -0.3147  0.0995
 5955SOL    HW129924   8.670   1.274   1.329  2.3216  0.4592 -1.0530
 5955SOL    HW229925   8.662   1.427   1.274 -1.5824  0.9266  0.6547
 5956SOL     OW29926   2.379   7.331   3.128 -0.1389 -0.3776 -0.1741
 5956SOL    HW129927   2.446   7.399   3.096  0.7770 -1.2557 -0.1681
 5956SOL    HW229928   2.319   7.373   3.195 -0.8318  0.9643 -1.5920
 5957SOL     OW29929   3.249   3.292   3.364 -0.5164 -0.2198  0.1083
 5957SOL    HW129930   3.328   3.337   3.324 -0.9057  1.4504  1.1992
 5957SOL    HW229931   3.174   3.289   3.298 -0.5978  1.0365  0.1422
 5958SOL     OW29932   8.669   5.294   0.816  0.0324 -0.0289 -0.0355
 5958SOL    HW129933   8.710   5.213   0.857  0.4842 -0.6245 -1.6293
 5958SOL    HW229934   8.726   5.325   0.739 -0.8712  0.9765 -0.3123
 5959SOL     OW29935   1.681   7.930   1.614 -0.1958 -0.4405  0.1100
 5959SOL    HW129936   1.682   7.833   1.587 -0.4737 -0.2715 -0.5043
 5959SOL    HW229937   1.747   7.944   1.687 -0.1045 -1.0868  0.1587
 5960SOL     OW29938   7.813   4.633   4.338 -1.1073  0.1626  0.2207
 5960SOL    HW129939   7.772   4.713   4.295 -1.9105 -0.4354 -0.1409
 5960SOL    HW229940   7.868   4.583   4.271  1.7755  1.9785  1.1637
 5961SOL     OW29941   0.389   8.695   8.109 -0.1492  0.5270 -0.3685
 5961SOL    HW129942   0.307   8.696   8.166 -1.3219 -2.2671 -1.9247
 5961SOL    HW229943   0.385   8.769   8.043 -1.3171  0.5529 -0.2741
 5962SOL     OW29944   6.845   5.334   0.016  0.2774  0.0713 -0.1808
 5962SOL    HW129945   6.834   5.306  -0.079  0.5060  1.9603 -0.7869
 5962SOL    HW229946   6.929   5.295   0.053  0.6481  0.0568 -1.0342
 5963SOL     OW29947   2.874   5.622   3.212  0.2514 -0.0563 -0.0777
 5963SOL    HW129948   2.912   5.705   3.253  0.4635  0.5699 -1.5260
 5963SOL    HW229949   2.948   5.569   3.170 -0.0795 -0.2874 -0.3687
 5964SOL     OW29950   0.294   6.257   5.677 -0.9839  0.5513  0.2864
 5964SOL    HW129951   0.259   6.271   5.770 -0.1567 -1.9813  1.0267
 5964SOL    HW229952   0.280   6.162   5.650  2.4626  0.2169 -0.5962
 5965SOL     OW29953   2.297   3.789   6.188  0.1551  0.1810  0.0251
 5965SOL    HW129954   2.330   3.708   6.139  0.3504  0.7867 -0.8559
 5965SOL    HW229955   2.372   3.828   6.242  1.0997  1.8955 -2.4328
 5966SOL     OW29956   2.492   1.948   5.321 -0.4781 -0.0782 -0.3214
 5966SOL    HW129957   2.550   2.028   5.306 -2.4400  1.5748  0.5604
 5966SOL    HW229958   2.538   1.867   5.286  1.2013  1.5434 -2.0680
 5967SOL     OW29959   4.186   0.843   7.171  0.3867  0.0859 -0.3306
 5967SOL    HW129960   4.121   0.830   7.246 -1.6494  0.3594 -2.0000
 5967SOL    HW229961   4.229   0.933   7.179  1.8461 -0.7629  1.7211
 5968SOL     OW29962   3.363   7.075   3.614 -0.2008 -0.5740  0.6685
 5968SOL    HW129963   3.330   6.983   3.591  0.6660 -1.1343  1.6219
 5968SOL    HW229964   3.456   7.087   3.578 -0.9096  0.5203 -0.8486
 5969SOL     OW29965   4.389   3.531   1.225  0.0083 -0.0598 -0.3115
 5969SOL    HW129966   4.420   3.510   1.132 -1.4046  1.0855 -1.0619
 5969SOL    HW229967   4.460   3.503   1.291  0.8966 -1.1453 -1.6957
 5970SOL     OW29968   3.010   3.930   9.742  0.4001 -0.0405 -0.4786
 5970SOL    HW129969   3.032   3.904   9.836  1.3556 -1.0543 -0.9777
 5970SOL    HW229970   2.911   3.919   9.727 -0.2560  2.9391  1.2602
 5971SOL     OW29971   1.592   5.310   7.052  0.0640  0.6245  0.1501
 5971SOL    HW129972   1.515   5.369   7.027  0.0785  0.9632  0.9042
 5971SOL    HW229973   1.558   5.224   7.091 -0.0077 -0.6445 -2.5667
 5972SOL     OW29974   2.877   8.083   4.928 -0.0886 -0.7129  0.5115
 5972SOL    HW129975   2.920   8.054   4.843 -1.0753 -0.3731 -0.1074
 5972SOL    HW229976   2.780   8.103   4.912  0.3577  2.1550  1.0564
 5973SOL     OW29977   8.676   2.703   4.334 -0.3108  0.0010 -0.1598
 5973SOL    HW129978   8.688   2.630   4.401 -0.9676  2.1564  2.3677
 5973SOL    HW229979   8.706   2.670   4.244 -0.7339 -3.4106  0.8571
 5974SOL     OW29980   0.409   8.948   3.566 -0.0189  0.2256 -0.4971
 5974SOL    HW129981   0.336   9.006   3.531  0.7696  1.6379  0.1020
 5974SOL    HW229982   0.395   8.933   3.664  0.0363 -0.1916 -0.5541
 5975SOL     OW29983   6.409   2.312   9.378 -0.5460 -0.5270  0.0440
 5975SOL    HW129984   6.495   2.361   9.392  0.0921 -1.2461 -1.3163
 5975SOL    HW229985   6.419   2.217   9.405 -1.3531 -0.2883  1.2489
 5976SOL     OW29986   3.731   4.783   0.615 -0.2547  0.4209 -0.2456
 5976SOL    HW129987   3.792   4.706   0.634  0.0125  0.3016 -1.5843
 5976SOL    HW229988   3.637   4.756   0.634 -0.0256  0.2368  0.6990
 5977SOL     OW29989   7.482   0.428   0.465 -0.8106 -0.0052  0.2910
 5977SOL    HW129990   7.474   0.335   0.501 -0.1122 -1.0560 -2.1712
 5977SOL    HW229991   7.557   0.475   0.511 -0.0952 -1.2154  0.3711
 5978SOL     OW29992   2.606   2.809   7.797 -0.2309  0.0578  0.2400
 5978SOL    HW129993   2.595   2.722   7.846  0.0344  0.2787  0.6965
 5978SOL    HW229994   2.653   2.793   7.710 -1.2738 -0.4285 -0.2370
 5979SOL     OW29995   4.596   5.049   5.267 -0.3241 -0.1143  0.2593
 5979SOL    HW129996   4.620   5.003   5.353  0.7077 -0.8745 -0.4334
 5979SOL    HW229997   4.677   5.054   5.208 -0.4480  2.3956  0.2318
 5980SOL     OW29998   9.095   8.806   1.747 -0.4965 -0.2745 -0.3955
 5980SOL    HW129999   9.067   8.761   1.832 -1.5398  1.9014  0.4565
 5980SOL    HW230000   9.180   8.857   1.763 -0.6970  0.1439 -0.6640
 5981SOL     OW30001   9.119   9.182   9.729 -0.0986 -0.2033 -0.3022
 5981SOL    HW130002   9.130   9.184   9.630 -2.1448  1.4081 -0.5190
 5981SOL    HW230003   9.057   9.107   9.754 -1.1971  0.6557 -0.4240
 5982SOL     OW30004   5.658   9.814   6.087 -0.0317 -0.1033  0.1169
 5982SOL    HW130005   5.595   9.747   6.050  1.0984 -1.0123 -0.2071
 5982SOL    HW230006   5.700   9.778   6.170 -1.0013  1.0790  1.1337
 5983SOL     OW30007   1.280   4.485   4.601  0.5652 -0.1700 -0.3428
 5983SOL    HW130008   1.285   4.409   4.537  0.5198 -0.7896  0.3749
 5983SOL    HW230009   1.273   4.449   4.694  0.9257  0.7143  0.0315
 5984SOL     OW30010   2.344   6.376   4.316 -0.6089  0.0940 -0.2766
 5984SOL    HW130011   2.340   6.476   4.310 -0.3970  0.1066 -0.2196
 5984SOL    HW230012   2.379   6.339   4.230 -2.2781 -0.0375 -0.9136
 5985SOL     OW30013   1.328   7.941   3.201 -0.3413 -0.1202 -0.5527
 5985SOL    HW130014   1.413   7.979   3.239 -0.2637  0.0997 -0.9412
 5985SOL    HW230015   1.274   7.901   3.275  0.5289 -1.0986 -0.4365
 5986SOL     OW30016   0.145   3.894   4.036 -0.1213  0.5000  0.6274
 5986SOL    HW130017   0.168   3.977   4.086  0.0881  0.3905  0.7142
 5986SOL    HW230018   0.061   3.908   3.984  0.4060  1.0762 -0.0905
 5987SOL     OW30019   2.910   7.504   4.509 -0.1252 -0.1078 -0.0262
 5987SOL    HW130020   2.973   7.580   4.528 -1.3865  0.8154  0.5413
 5987SOL    HW230021   2.955   7.417   4.529  1.3635  0.4809 -0.7309
 5988SOL     OW30022   0.721   4.962   0.425 -0.2017 -0.0207 -0.3075
 5988SOL    HW130023   0.642   5.014   0.392 -0.6766  0.3434  1.3669
 5988SOL    HW230024   0.708   4.939   0.521  0.8751 -1.6124 -0.5327
 5989SOL     OW30025   8.816   6.468   5.539  0.8127 -0.6804 -0.2221
 5989SOL    HW130026   8.881   6.393   5.557  0.7402 -0.3210  1.6421
 5989SOL    HW230027   8.819   6.533   5.615 -1.1039 -0.2061 -0.5424
 5990SOL     OW30028   4.920   8.452   5.540 -0.2961 -0.3901  0.3735
 5990SOL    HW130029   4.820   8.451   5.545 -0.3317  2.2317  0.4988
 5990SOL    HW230030   4.948   8.463   5.445 -0.1114 -0.6319  0.3982
 5991SOL     OW30031   0.711   7.557   6.482 -0.3107  1.7110 -0.0132
 5991SOL    HW130032   0.662   7.550   6.569  0.0939  0.8648  0.1461
 5991SOL    HW230033   0.657   7.514   6.410 -0.1652  1.4831  0.0140
 5992SOL     OW30034   5.596   8.522   4.814 -0.2515  0.4823 -0.0765
 5992SOL    HW130035   5.696   8.524   4.811 -0.2842  2.1261 -0.5495
 5992SOL    HW230036   5.562   8.590   4.879 -1.0885  0.4506 -0.4630
 5993SOL     OW30037   9.539   3.807   9.333 -0.0220  0.2131 -0.4128
 5993SOL    HW130038   9.513   3.775   9.242 -1.6828  0.8063 -0.1582
 5993SOL    HW230039   9.457   3.824   9.387  0.9714 -1.5584  1.7160
 5994SOL     OW30040   1.374   5.003   2.943  0.1818  0.2254  0.3180
 5994SOL    HW130041   1.449   4.938   2.954 -0.5706 -0.6901  0.0367
 5994SOL    HW230042   1.335   5.024   3.033  0.3018  0.1617  0.3857
 5995SOL     OW30043   9.537   6.348  10.043 -0.0773  0.0536  0.0444
 5995SOL    HW130044   9.445   6.378  10.065  0.6849  2.1552  0.5130
 5995SOL    HW230045   9.603   6.404  10.093  1.4348 -2.0771  0.4881
 5996SOL     OW30046   6.152   5.392   0.114 -0.3021 -0.6088  0.1997
 5996SOL    HW130047   6.164   5.440   0.201 -1.4717  1.2770 -0.6644
 5996SOL    HW230048   6.070   5.426   0.068  1.4673 -0.0490 -2.6418
 5997SOL     OW30049   5.362   0.419   7.063 -0.0713  0.8577  0.5815
 5997SOL    HW130050   5.330   0.482   6.992 -0.8403 -0.5098 -0.2965
 5997SOL    HW230051   5.454   0.387   7.041  0.1944  1.4211  0.8649
 5998SOL     OW30052   5.209   3.715   1.953  0.4676  0.0067 -0.0219
 5998SOL    HW130053   5.159   3.739   2.036 -2.1954 -0.1423 -1.5227
 5998SOL    HW230054   5.224   3.616   1.951  0.3558 -0.0157  0.1881
 5999SOL     OW30055   8.512   7.275   5.709 -0.9975 -0.5528 -0.2168
 5999SOL    HW130056   8.524   7.365   5.752 -0.4685 -0.8346  0.2243
 5999SOL    HW230057   8.433   7.279   5.647 -0.1709  0.5979 -1.2304
 6000SOL     OW30058   3.789   1.987   2.236  0.5743  0.7979 -0.4943
 6000SOL    HW130059   3.854   2.014   2.307  0.9527  1.6221 -1.1379
 6000SOL    HW230060   3.819   1.902   2.194 -1.7912 -1.8907  3.0440
 6001SOL     OW30061   7.100   2.768   5.159 -0.6560 -0.3897  0.6736
 6001SOL    HW130062   7.110   2.730   5.250 -2.2645 -2.0742  0.1788
 6001SOL    HW230063   7.148   2.710   5.093 -0.4935  0.1667  0.3003
 6002SOL     OW30064   9.165   4.519   7.355  0.5525  0.2617  0.0701
 6002SOL    HW130065   9.136   4.557   7.443 -0.2862  0.4078 -0.2651
 6002SOL    HW230066   9.102   4.549   7.283  0.9513 -0.2566 -0.5013
 6003SOL     OW30067   0.944   9.974   5.526 -0.1385  0.3980 -0.3130
 6003SOL    HW130068   0.986   9.994   5.437  2.9310 -0.5529  0.8682
 6003SOL    HW230069   0.946  10.056   5.583 -0.4118  0.4964 -0.4392
 6004SOL     OW30070   0.783   8.495   2.786 -0.1485 -0.0087 -0.6877
 6004SOL    HW130071   0.877   8.487   2.751 -0.0123 -1.1323 -0.1001
 6004SOL    HW230072   0.777   8.573   2.848  0.6138 -0.4199 -0.0845
 6005SOL     OW30073   5.315   7.041   3.522 -0.0382 -0.1866 -0.4465
 6005SOL    HW130074   5.299   7.034   3.621 -1.1582  0.2935 -0.5913
 6005SOL    HW230075   5.372   7.121   3.503 -0.7357  0.3536 -0.2857
 6006SOL     OW30076   3.312   5.448   2.523  0.0650  0.0106 -0.5137
 6006SOL    HW130077   3.231   5.426   2.470  0.1329  1.2602 -1.1670
 6006SOL    HW230078   3.296   5.532   2.575  0.9330  0.2641 -0.6487
 6007SOL     OW30079   1.328   6.182   9.794 -0.4218 -0.0529 -0.0520
 6007SOL    HW130080   1.395   6.161   9.723  0.0760 -0.0991  0.4306
 6007SOL    HW230081   1.304   6.279   9.789 -1.8321 -0.4448 -1.5162
 6008SOL     OW30082   1.012   0.250   6.045 -0.2503  0.7783  0.2189
 6008SOL    HW130083   0.984   0.191   6.120 -1.5779 -0.5915 -1.3027
 6008SOL    HW230084   1.074   0.321   6.079 -0.3386 -0.1847  2.4621
 6009SOL     OW30085   7.159   3.068   4.536  0.1522  0.0389 -0.6416
 6009SOL    HW130086   7.127   3.142   4.477  1.0381 -0.4810 -1.7902
 6009SOL    HW230087   7.249   3.036   4.505  0.7057 -0.1541  1.0742
 6010SOL     OW30088   8.608   7.758   6.300  0.2239  0.1846  0.5971
 6010SOL    HW130089   8.636   7.665   6.322 -1.8300 -0.4151  0.7963
 6010SOL    HW230090   8.590   7.808   6.384  0.5489  0.5159  0.4706
 6011SOL     OW30091   8.338   8.424   6.844  0.2221 -0.2187 -0.3364
 6011SOL    HW130092   8.346   8.336   6.798  1.0138 -0.6161  0.5537
 6011SOL    HW230093   8.249   8.465   6.822  0.6690 -0.3142 -2.3573
 6012SOL     OW30094   8.955   0.338   7.699  0.1367 -0.2393 -0.4751
 6012SOL    HW130095   8.986   0.379   7.613  2.2893 -0.2546  0.2634
 6012SOL    HW230096   8.992   0.390   7.776 -0.1592 -1.3719  0.4505
 6013SOL     OW30097   1.883   4.941   9.717  0.3049 -1.0414  0.5188
 6013SOL    HW130098   1.916   4.999   9.792 -2.3882  1.4768 -0.1173
 6013SOL    HW230099   1.950   4.941   9.642  0.1331  1.7829  0.3067
 6014SOL     OW30100   9.135   5.942   0.171  0.0990  0.2516  0.4393
 6014SOL    HW130101   9.168   5.921   0.263  1.4100  0.7503  0.0915
 6014SOL    HW230102   9.200   6.001   0.125 -1.1970  1.1012 -0.3441
 6015SOL     OW30103   0.479   0.198   7.900  0.2230 -0.2842  0.5318
 6015SOL    HW130104   0.494   0.198   7.999  0.9287  0.1928  0.4315
 6015SOL    HW230105   0.534   0.125   7.859  0.3344 -0.1468  0.4366
 6016SOL     OW30106   5.254   1.419   2.203 -0.6616  0.3701  0.1512
 6016SOL    HW130107   5.287   1.354   2.135 -0.0283  0.8159  0.0282
 6016SOL    HW230108   5.207   1.494   2.157  2.1906  2.1024 -0.0103
 6017SOL     OW30109   5.873   5.220   9.005 -0.0673  0.2641  0.6955
 6017SOL    HW130110   5.899   5.281   8.930 -0.9761  0.3797  0.4620
 6017SOL    HW230111   5.789   5.171   8.980 -0.4614  0.4202  1.7100
 6018SOL     OW30112   1.826   6.595   9.713  0.3024 -0.1000  0.1058
 6018SOL    HW130113   1.768   6.527   9.758  1.5495 -0.2920  1.4388
 6018SOL    HW230114   1.904   6.549   9.670  0.8477  0.4279  0.5309
 6019SOL     OW30115   5.513   1.893   9.673  0.2003  0.7463 -0.0252
 6019SOL    HW130116   5.548   1.963   9.736 -1.7850  1.6333  0.1137
 6019SOL    HW230117   5.441   1.931   9.616  1.5899 -0.2102 -2.5116
 6020SOL     OW30118   2.206   1.843   0.035  0.1800 -0.8781 -0.2202
 6020SOL    HW130119   2.264   1.839  -0.046 -0.4787  0.6632 -0.7803
 6020SOL    HW230120   2.241   1.779   0.103  1.7681 -0.9406 -1.0534
 6021SOL     OW30121   5.611   9.506   6.341  0.7461 -0.1946  0.2300
 6021SOL    HW130122   5.519   9.519   6.303  1.0421 -0.9124 -0.7678
 6021SOL    HW230123   5.627   9.408   6.355  1.3786 -0.0759  0.3588
 6022SOL     OW30124   4.925   8.637   8.779  0.0318 -0.1081 -0.3805
 6022SOL    HW130125   4.846   8.667   8.724 -0.9304 -0.0690  1.0016
 6022SOL    HW230126   5.000   8.611   8.718  0.0364  2.7630 -1.6592
 6023SOL     OW30127   6.981   3.056   9.391  0.0631 -0.1739  0.3492
 6023SOL    HW130128   7.012   3.024   9.480 -1.7319 -0.6977  0.8211
 6023SOL    HW230129   6.915   2.991   9.354 -1.1798  1.3410 -0.1627
 6024SOL     OW30130   5.700   4.231   9.443  0.4512  0.0058 -0.1887
 6024SOL    HW130131   5.620   4.200   9.493  0.5696  0.4616  0.2945
 6024SOL    HW230132   5.677   4.311   9.389  1.1907  1.7406  1.9785
 6025SOL     OW30133   7.714   0.472   2.886  0.5258 -0.8223 -0.5693
 6025SOL    HW130134   7.704   0.376   2.914 -2.6662 -0.6253 -0.9070
 6025SOL    HW230135   7.680   0.531   2.959 -0.5181 -0.0646 -1.6562
 6026SOL     OW30136   2.685   8.657   2.495 -0.1987  0.0927 -0.8757
 6026SOL    HW130137   2.624   8.684   2.421 -0.5737  0.8982 -0.2789
 6026SOL    HW230138   2.766   8.612   2.457 -0.7537 -0.1932 -1.7208
 6027SOL     OW30139   7.940   3.767   8.805  0.3320 -0.0409 -0.3431
 6027SOL    HW130140   7.950   3.675   8.768  2.5237 -0.0459  0.1602
 6027SOL    HW230141   7.912   3.830   8.732 -1.9298 -1.2259 -0.5175
 6028SOL     OW30142   2.460   7.074   4.977 -0.0913  0.4209 -0.1951
 6028SOL    HW130143   2.518   7.070   5.058 -1.2838 -2.1138  0.5588
 6028SOL    HW230144   2.493   7.009   4.909  1.1549  2.8186 -1.9756
 6029SOL     OW30145   4.732   6.124   9.738 -0.3786 -0.0028  0.0069
 6029SOL    HW130146   4.795   6.167   9.673  0.3987  2.3552  2.2262
 6029SOL    HW230147   4.765   6.032   9.760  0.8602  0.2283 -0.8212
 6030SOL     OW30148   1.237   6.712   2.189 -0.2779 -0.1374  0.0749
 6030SOL    HW130149   1.334   6.701   2.209 -0.0482  0.9308 -0.4089
 6030SOL    HW230150   1.188   6.738   2.273 -0.2141 -1.0417  0.3968
 6031SOL     OW30151   8.959   3.720   9.450 -0.2740  0.1255  0.1986
 6031SOL    HW130152   8.922   3.632   9.480  0.1916 -0.0599  0.2275
 6031SOL    HW230153   9.012   3.762   9.524  0.0594  0.1212 -0.0363
 6032SOL     OW30154   4.027   2.605   4.492 -0.2513  0.0270 -0.2690
 6032SOL    HW130155   4.065   2.661   4.418  2.0379 -0.9590  0.1210
 6032SOL    HW230156   3.963   2.539   4.454 -0.3106  0.5858 -1.1667
 6033SOL     OW30157   1.111   5.512   4.499  0.2684  0.6822 -0.6260
 6033SOL    HW130158   1.015   5.514   4.527  0.4328 -1.7023  0.2236
 6033SOL    HW230159   1.164   5.574   4.557 -0.2889 -0.1267  0.7628
 6034SOL     OW30160   7.242   2.507   9.455  0.6466  0.3913  0.1486
 6034SOL    HW130161   7.300   2.463   9.387  0.7389 -1.8549  1.6483
 6034SOL    HW230162   7.161   2.546   9.410  0.3523 -1.6627 -1.1776
 6035SOL     OW30163   0.179   4.890   4.832 -0.2277 -0.2599  0.0023
 6035SOL    HW130164   0.263   4.903   4.885  0.7220 -2.9997 -0.7451
 6035SOL    HW230165   0.142   4.799   4.851 -2.1833  0.3303 -0.8897
 6036SOL     OW30166   8.485   0.601   2.439 -0.3494 -0.8108  0.1035
 6036SOL    HW130167   8.504   0.698   2.456  0.4204 -0.4548 -2.6218
 6036SOL    HW230168   8.565   0.558   2.396 -1.1911 -2.3281  0.0278
 6037SOL     OW30169   3.983   2.449   0.981  0.0537 -0.0238  0.6602
 6037SOL    HW130170   3.964   2.427   1.076 -0.3163 -1.2674  0.3080
 6037SOL    HW230171   3.923   2.396   0.921  0.0543  0.9924 -0.2595
 6038SOL     OW30172   3.247   4.792   5.339 -0.2556  0.5785 -0.2002
 6038SOL    HW130173   3.197   4.758   5.418 -1.1473  0.6100 -0.7460
 6038SOL    HW230174   3.186   4.848   5.282  0.4978  0.9378 -0.6691
 6039SOL     OW30175   7.582   3.090   2.552  0.3827  0.0293 -0.2401
 6039SOL    HW130176   7.663   3.106   2.608  1.2674 -0.7156 -1.3032
 6039SOL    HW230177   7.573   3.163   2.485 -0.1384  0.3993  0.2234
 6040SOL     OW30178   8.987   0.531   6.314  0.1674 -0.1644 -0.2322
 6040SOL    HW130179   9.023   0.583   6.392  1.0926 -0.6022 -0.3552
 6040SOL    HW230180   9.049   0.541   6.236  0.8021 -2.1075 -0.0110
 6041SOL     OW30181   3.610   7.231   0.781 -0.2068 -0.0744  0.2868
 6041SOL    HW130182   3.526   7.228   0.725  0.0667  0.0730 -0.1361
 6041SOL    HW230183   3.687   7.196   0.727 -0.0116 -0.2841  0.7033
 6042SOL     OW30184   3.132   5.938   7.599 -0.4176  0.0482  0.6632
 6042SOL    HW130185   3.198   6.013   7.604 -2.3589  1.8045  0.4741
 6042SOL    HW230186   3.059   5.962   7.535 -0.6755 -2.3407 -0.0048
 6043SOL     OW30187   8.247   1.818   6.525 -0.1830  0.5164  0.0514
 6043SOL    HW130188   8.225   1.722   6.539  0.6768  0.1030 -1.3622
 6043SOL    HW230189   8.189   1.855   6.452 -0.6764  1.1402  0.7474
 6044SOL     OW30190   5.535   1.878   1.077 -0.1844  0.4495  0.0733
 6044SOL    HW130191   5.506   1.934   0.999  0.2142  0.3680 -0.1322
 6044SOL    HW230192   5.556   1.937   1.155 -2.7450  0.4071  0.8357
 6045SOL     OW30193   2.664   6.452   0.804 -0.3723  0.3839  0.0779
 6045SOL    HW130194   2.712   6.365   0.803 -2.1620 -0.6127 -1.5622
 6045SOL    HW230195   2.681   6.501   0.719 -0.1067  1.2233  0.6095
 6046SOL     OW30196   7.667   6.136   5.046 -0.5278 -0.2514 -0.2086
 6046SOL    HW130197   7.661   6.181   4.957 -0.0684  0.7198  0.2491
 6046SOL    HW230198   7.698   6.202   5.115  0.1883 -1.2830  0.4578
 6047SOL     OW30199   9.547   9.020   8.121 -0.0338 -0.0116 -0.4863
 6047SOL    HW130200   9.494   8.967   8.054  0.9275 -0.9932 -0.4782
 6047SOL    HW230201   9.583   8.959   8.191  1.5147  0.5610 -0.7558
 6048SOL     OW30202   2.159   2.615   1.467 -0.2377  0.2128 -0.0671
 6048SOL    HW130203   2.124   2.543   1.407  0.3531  1.1192 -1.5257
 6048SOL    HW230204   2.134   2.704   1.429  2.3217  0.8598 -0.3551
 6049SOL     OW30205   8.795   6.572   3.019 -0.5450 -0.0578 -0.2362
 6049SOL    HW130206   8.838   6.483   3.034 -1.7035 -0.7546 -0.9627
 6049SOL    HW230207   8.862   6.634   2.979  0.8226 -0.0014  2.0409
 6050SOL     OW30208   0.333   1.352   8.588 -0.0738  0.5947 -0.1969
 6050SOL    HW130209   0.396   1.381   8.517  1.6773  1.7048  1.7598
 6050SOL    HW230210   0.263   1.422   8.602  0.7331  1.2619  0.5146
 6051SOL     OW30211   7.711   8.073   6.833  0.5339  0.1509  0.6239
 6051SOL    HW130212   7.789   8.135   6.837  1.2388 -0.8281  2.3880
 6051SOL    HW230213   7.686   8.058   6.737  2.9332 -0.0541 -0.0060
 6052SOL     OW30214   9.608   9.403   0.190  0.3686  0.2349  0.2110
 6052SOL    HW130215   9.551   9.321   0.191 -1.8648  1.7453 -0.0397
 6052SOL    HW230216   9.594   9.452   0.104  0.4186  1.7420  1.0477
 6053SOL     OW30217   7.950   7.895   8.932 -0.2472 -0.1327  0.3936
 6053SOL    HW130218   7.967   7.816   8.990  0.2163  0.2519  0.7894
 6053SOL    HW230219   7.856   7.928   8.947 -0.4536 -0.6251  0.1997
 6054SOL     OW30220   4.800   3.519   9.118  0.2808 -0.4108 -0.0472
 6054SOL    HW130221   4.898   3.502   9.130  0.6128  1.3975 -0.0220
 6054SOL    HW230222   4.771   3.590   9.181 -0.8898 -0.3951 -0.5976
 6055SOL     OW30223   3.516   9.434   7.360  0.0359 -0.3742  1.1118
 6055SOL    HW130224   3.549   9.515   7.408  0.5501 -0.6421  1.2123
 6055SOL    HW230225   3.511   9.453   7.262  0.0522 -0.1873  1.1474
 6056SOL     OW30226   2.617   2.385   5.266 -0.1367  0.2240  0.0444
 6056SOL    HW130227   2.631   2.445   5.188  0.7565  2.0912  1.5799
 6056SOL    HW230228   2.519   2.380   5.287 -0.1800  1.6328  0.2432
 6057SOL     OW30229   8.979   2.706   4.494  0.1910 -0.3414  0.0228
 6057SOL    HW130230   8.933   2.748   4.572 -0.0793  0.1231 -0.3802
 6057SOL    HW230231   8.997   2.609   4.513  0.4705 -0.1352  0.8053
 6058SOL     OW30232   3.223   0.814   3.860  0.0514 -0.4367 -0.8799
 6058SOL    HW130233   3.258   0.754   3.788  0.4202 -0.3901 -0.7403
 6058SOL    HW230234   3.136   0.777   3.895 -0.4592 -0.1086 -1.7868
 6059SOL     OW30235   2.392   6.365   3.101 -0.4872 -0.4070 -0.1311
 6059SOL    HW130236   2.307   6.348   3.052 -1.4888  0.0409  1.4401
 6059SOL    HW230237   2.417   6.461   3.093 -0.5988 -0.3540  0.1474
 6060SOL     OW30238   1.732   1.931   4.342 -0.0530  0.3884 -0.6857
 6060SOL    HW130239   1.815   1.936   4.398 -0.4007  1.5060 -0.2686
 6060SOL    HW230240   1.672   2.008   4.363 -1.5774 -0.8431 -0.3949
 6061SOL     OW30241   9.974   1.624   8.989 -0.1614  0.3820 -0.2370
 6061SOL    HW130242   9.954   1.603   8.893  0.9413  0.6064 -0.5241
 6061SOL    HW230243   9.975   1.540   9.042  0.0402  0.1628 -0.5843
 6062SOL     OW30244   5.503   3.641   1.492  0.2882 -0.1648 -0.1246
 6062SOL    HW130245   5.479   3.709   1.561  0.0036 -0.7220  0.3264
 6062SOL    HW230246   5.427   3.630   1.429  0.1668 -0.3875  0.0614
 6063SOL     OW30247   6.161   6.852   4.988  0.4373 -0.0190  0.6524
 6063SOL    HW130248   6.214   6.884   4.910  0.2393  0.8928  0.8771
 6063SOL    HW230249   6.064   6.852   4.964  0.4423 -0.5430  0.6280
 6064SOL     OW30250   4.078   4.146   6.850 -0.7096 -0.2149  0.9403
 6064SOL    HW130251   3.979   4.159   6.839 -0.6815 -0.5576  0.2325
 6064SOL    HW230252   4.095   4.064   6.904 -0.8171  0.0878  1.4371
 6065SOL     OW30253   4.899   9.851   2.800 -0.6597  0.0691 -0.3737
 6065SOL    HW130254   4.816   9.891   2.762 -0.3655  0.7566 -0.3139
 6065SOL    HW230255   4.917   9.763   2.758 -1.4774 -0.1276 -0.3077
 6066SOL     OW30256   7.272   0.202   3.072 -0.2019 -0.7816 -0.3702
 6066SOL    HW130257   7.369   0.199   3.096 -0.4822  0.8249  1.1308
 6066SOL    HW230258   7.218   0.172   3.151 -0.9471 -0.5484 -0.7928
 6067SOL     OW30259   8.280   3.687   7.367 -0.1645 -0.2712 -0.3979
 6067SOL    HW130260   8.338   3.716   7.443  0.3215 -1.1598 -0.4138
 6067SOL    HW230261   8.203   3.750   7.357  1.6645  1.8865 -1.4117
 6068SOL     OW30262   4.802   0.484   6.909  0.5760 -0.0959  0.0655
 6068SOL    HW130263   4.854   0.479   6.994  1.3223  1.1634 -0.2976
 6068SOL    HW230264   4.779   0.392   6.877  1.2259 -0.5993  1.0543
 6069SOL     OW30265   5.450   7.333   6.121  0.5813  0.3659  0.7768
 6069SOL    HW130266   5.509   7.413   6.121 -0.1141  0.8909 -1.1792
 6069SOL    HW230267   5.358   7.360   6.148  0.2140  0.3408 -0.4278
 6070SOL     OW30268   2.650   6.754   5.932 -0.3112 -0.0807  0.3288
 6070SOL    HW130269   2.678   6.706   6.015  0.2351  2.0696  1.4237
 6070SOL    HW230270   2.731   6.770   5.875 -0.3231  0.3736  0.4335
 6071SOL     OW30271   9.406   3.851   2.213 -0.2541  0.6495 -0.2777
 6071SOL    HW130272   9.505   3.857   2.197  0.0680 -2.1367  0.3809
 6071SOL    HW230273   9.369   3.943   2.227  2.8705  1.4878  3.2368
 6072SOL     OW30274   5.926   3.001   9.200 -0.0859  0.0232 -0.7292
 6072SOL    HW130275   5.840   3.023   9.245 -0.3079  1.5925 -1.8892
 6072SOL    HW230276   5.912   2.996   9.101  0.4781 -3.0265 -0.7032
 6073SOL     OW30277   1.278   5.675   8.197 -0.1801  0.1364 -0.3720
 6073SOL    HW130278   1.276   5.626   8.110 -0.0867 -1.2735  0.4075
 6073SOL    HW230279   1.184   5.694   8.226 -0.2660 -0.8645  0.0268
 6074SOL     OW30280   3.129   2.202   2.309  0.3243 -0.1390  0.0029
 6074SOL    HW130281   3.175   2.132   2.363 -0.2913  0.6496  1.5558
 6074SOL    HW230282   3.048   2.234   2.357  1.4096  2.7279  0.0372
 6075SOL     OW30283   4.897   2.429   5.513  0.0586 -0.0609 -0.0878
 6075SOL    HW130284   4.917   2.487   5.434 -0.2636  0.5360  0.2720
 6075SOL    HW230285   4.807   2.451   5.549 -0.1537 -0.9311 -0.0829
 6076SOL     OW30286   4.902   5.851   9.490 -0.3108 -1.0106  0.2652
 6076SOL    HW130287   4.984   5.878   9.440 -2.7773  1.4339 -2.6465
 6076SOL    HW230288   4.910   5.880   9.586  0.9921  1.8827 -0.6772
 6077SOL     OW30289   3.533   0.039   7.539 -0.3994  0.2474 -0.1865
 6077SOL    HW130290   3.624   0.080   7.541 -0.5580  0.6419 -0.8394
 6077SOL    HW230291   3.536  -0.051   7.582  1.0497 -1.2402 -3.2519
 6078SOL     OW30292   1.185   6.623   3.341 -0.1069 -0.3349  0.1486
 6078SOL    HW130293   1.137   6.598   3.257  0.7040 -0.7852 -0.1935
 6078SOL    HW230294   1.127   6.682   3.397 -0.7990 -0.3449 -0.5508
 6079SOL     OW30295   2.026   1.289   7.617 -0.1704  0.6550 -0.0578
 6079SOL    HW130296   2.064   1.322   7.703 -1.1170  1.2040  0.1565
 6079SOL    HW230297   1.988   1.198   7.631  0.2494  0.4802 -0.0515
 6080SOL     OW30298   0.518   1.888   5.055  0.0084 -0.4058  0.1161
 6080SOL    HW130299   0.474   1.819   5.113 -1.2089  0.0956 -0.2003
 6080SOL    HW230300   0.449   1.953   5.022  0.7262 -0.5016 -1.6325
 6081SOL     OW30301   0.913   3.166   1.256  0.3327  0.3554  0.8042
 6081SOL    HW130302   0.986   3.163   1.188  0.0900  1.9410  0.4460
 6081SOL    HW230303   0.936   3.106   1.332  0.4314 -1.7429 -0.8234
 6082SOL     OW30304   4.204   3.336   3.468 -0.0295 -0.1759 -0.3300
 6082SOL    HW130305   4.266   3.413   3.484  0.4390 -0.4175 -0.9838
 6082SOL    HW230306   4.228   3.291   3.382 -0.1505 -1.2022  0.1684
 6083SOL     OW30307   8.110   3.661   5.498 -0.1905 -0.1004 -0.2406
 6083SOL    HW130308   8.033   3.610   5.460 -1.0562  1.1649 -0.2218
 6083SOL    HW230309   8.106   3.756   5.467 -0.7903  0.9146  2.7406
 6084SOL     OW30310   1.050   5.100   0.966 -0.3337  0.4672  0.0749
 6084SOL    HW130311   0.967   5.055   0.931 -0.0111 -0.7921  0.8884
 6084SOL    HW230312   1.130   5.048   0.938  0.1233  1.1636  0.0952
 6085SOL     OW30313   8.887   2.388   7.107  0.6259  0.0973  0.3570
 6085SOL    HW130314   8.857   2.481   7.083 -1.1048 -0.2870  0.9361
 6085SOL    HW230315   8.896   2.381   7.206 -0.0780 -0.5759  0.3815
 6086SOL     OW30316   4.362   0.506   4.554 -0.0697  0.3196 -0.1180
 6086SOL    HW130317   4.434   0.488   4.487  2.6685  1.2626  2.4549
 6086SOL    HW230318   4.356   0.604   4.571 -1.0288  0.1336  0.6679
 6087SOL     OW30319   2.774   5.136   7.349  0.1922 -0.6314 -0.5126
 6087SOL    HW130320   2.682   5.150   7.312 -0.1958  0.7288  0.8842
 6087SOL    HW230321   2.827   5.220   7.339  1.7581 -1.8337 -2.5545
 6088SOL     OW30322   1.495   9.562   2.790 -0.3960  0.1660 -0.3485
 6088SOL    HW130323   1.473   9.658   2.805 -0.2292 -0.1031  1.7512
 6088SOL    HW230324   1.593   9.552   2.776 -0.2033  0.1250  1.0005
 6089SOL     OW30325   0.509   9.904   2.940  0.4795 -0.1109 -0.0664
 6089SOL    HW130326   0.562   9.988   2.944 -0.1494  0.3794 -1.5404
 6089SOL    HW230327   0.498   9.876   2.845  0.1945 -1.5437  0.3795
 6090SOL     OW30328   8.151   0.565   7.037 -0.1436 -0.5480  0.6346
 6090SOL    HW130329   8.082   0.535   7.103 -3.9370  1.6736 -2.0851
 6090SOL    HW230330   8.147   0.665   7.029  2.1632 -0.5536 -0.9716
 6091SOL     OW30331   2.340   5.415   6.747  0.5751  0.5575 -0.4790
 6091SOL    HW130332   2.278   5.363   6.806  0.8442 -1.1837 -1.6687
 6091SOL    HW230333   2.377   5.493   6.797 -2.7925  1.8176  0.1733
 6092SOL     OW30334   5.559   8.657   3.438  0.2021  0.0551 -0.0142
 6092SOL    HW130335   5.568   8.742   3.385  3.3181  0.0922  0.4766
 6092SOL    HW230336   5.588   8.674   3.532  0.1178 -1.3585  0.2715
 6093SOL     OW30337   4.957   8.365   3.687 -0.5225  0.0229 -0.3032
 6093SOL    HW130338   4.972   8.326   3.778  4.0764 -1.6642 -1.6346
 6093SOL    HW230339   4.982   8.462   3.688 -1.5512  0.2890  0.4683
 6094SOL     OW30340   0.157   3.694   6.379 -0.3765 -0.4362  0.4072
 6094SOL    HW130341   0.257   3.700   6.376 -0.3807 -0.4577  0.2133
 6094SOL    HW230342   0.126   3.706   6.473 -0.1656 -0.8540  0.5314
 6095SOL     OW30343   5.392   0.735   6.695  0.0498  0.1602  0.7851
 6095SOL    HW130344   5.464   0.777   6.750  0.4752 -0.3654  0.6214
 6095SOL    HW230345   5.359   0.801   6.627  2.0572 -0.4036 -0.7547
 6096SOL     OW30346   3.711   0.214   0.639  0.6263  0.4650 -0.5900
 6096SOL    HW130347   3.685   0.183   0.731  0.7642  2.6128  0.2110
 6096SOL    HW230348   3.663   0.299   0.618  1.3187  0.4943 -2.1308
 6097SOL     OW30349   1.232   3.614   9.530 -0.2675 -0.3285  0.0773
 6097SOL    HW130350   1.139   3.576   9.536  0.0034 -0.8449  1.2599
 6097SOL    HW230351   1.271   3.595   9.440 -1.3154 -0.0986 -0.4314
 6098SOL     OW30352   4.824   1.045   0.529 -0.2297 -0.1752  0.0824
 6098SOL    HW130353   4.906   1.085   0.487 -0.0933  0.1385  0.6368
 6098SOL    HW230354   4.779   0.984   0.464 -0.3516  0.7630 -0.7192
 6099SOL     OW30355   1.554   1.069   1.955 -0.4966 -0.2184 -0.1881
 6099SOL    HW130356   1.513   0.982   1.981 -2.2021  0.4218 -0.7274
 6099SOL    HW230357   1.544   1.134   2.031 -3.4405  0.9484 -1.5353
 6100SOL     OW30358   0.779   0.821   3.396 -0.1406 -0.3175  0.0636
 6100SOL    HW130359   0.864   0.775   3.371 -0.4765 -1.0082  0.2073
 6100SOL    HW230360   0.705   0.755   3.401  0.2023 -0.4930  4.4668
 6101SOL     OW30361   8.510   0.194   0.006  0.1772  0.1257  0.7086
 6101SOL    HW130362   8.557   0.279  -0.016 -2.7688  2.0269  1.4351
 6101SOL    HW230363   8.466   0.202   0.095 -2.1462 -1.2428 -0.2655
 6102SOL     OW30364   9.890   7.385   0.576  0.8520  0.1992  0.0968
 6102SOL    HW130365   9.907   7.400   0.673  1.1655 -0.8690  0.2130
 6102SOL    HW230366   9.802   7.427   0.550  0.9401  0.7943  0.7483
 6103SOL     OW30367   5.710   0.894   2.920 -0.3309 -0.4484  0.4505
 6103SOL    HW130368   5.810   0.899   2.931 -0.2231 -2.2309  0.5702
 6103SOL    HW230369   5.688   0.898   2.822 -0.1268 -0.0897  0.4203
 6104SOL     OW30370   9.268   4.695   9.153  0.0962 -0.3229  0.2959
 6104SOL    HW130371   9.252   4.777   9.097  0.2285 -0.1810  0.4661
 6104SOL    HW230372   9.324   4.630   9.103  1.5052  0.4496  0.8467
 6105SOL     OW30373   7.627   6.594   5.239  0.2357  0.2717 -0.1138
 6105SOL    HW130374   7.678   6.602   5.153 -1.3197  0.2442 -1.0457
 6105SOL    HW230375   7.643   6.677   5.294  1.7432  0.0099 -0.1275
 6106SOL     OW30376   8.215   2.165   3.797 -0.4917 -0.1133  0.1661
 6106SOL    HW130377   8.232   2.239   3.731  0.5420 -0.8842 -0.4336
 6106SOL    HW230378   8.300   2.144   3.845 -0.7651 -1.0006  0.2529
 6107SOL     OW30379   1.955   4.639   4.095 -0.2048 -0.4847 -0.2667
 6107SOL    HW130380   1.969   4.714   4.160 -0.5913 -0.9222  0.3149
 6107SOL    HW230381   1.873   4.588   4.119  0.8498 -1.9940  0.1921
 6108SOL     OW30382   1.619   4.112   1.621  0.0043  0.7398  0.0697
 6108SOL    HW130383   1.660   4.165   1.695  2.3936 -1.5784  0.5052
 6108SOL    HW230384   1.591   4.022   1.656 -2.0713  0.9245 -1.0818
 6109SOL     OW30385   4.121   8.093   7.761  0.0628  0.0975  0.9368
 6109SOL    HW130386   4.104   8.000   7.795  0.6599  0.0572  1.1275
 6109SOL    HW230387   4.219   8.107   7.751 -0.0599  0.4974  0.3007
 6110SOL     OW30388   1.470   6.537   3.683 -0.3737  0.1681  0.0859
 6110SOL    HW130389   1.374   6.509   3.685  0.2337 -1.9043  2.6433
 6110SOL    HW230390   1.485   6.610   3.748  0.0098 -0.3192  0.5486
 6111SOL     OW30391   6.454   9.014   8.257 -0.5556  0.1603 -0.5672
 6111SOL    HW130392   6.516   8.986   8.184  0.0736  1.1070 -0.4085
 6111SOL    HW230393   6.378   8.949   8.264  0.2923 -0.8656 -0.9254
 6112SOL     OW30394   7.533   6.935   3.261 -0.0269  0.3829  0.1640
 6112SOL    HW130395   7.521   6.899   3.168 -0.6565 -0.8936  0.7261
 6112SOL    HW230396   7.594   7.014   3.258  0.3809  0.0367 -1.2735
 6113SOL     OW30397   3.910   1.487   5.058 -0.3324  0.3485 -0.0028
 6113SOL    HW130398   3.907   1.578   5.100 -1.5740 -0.5702  1.9575
 6113SOL    HW230399   3.998   1.475   5.012  1.3173  1.2383  2.7567
 6114SOL     OW30400   2.836   2.895   1.654  0.4946  0.2763 -0.3490
 6114SOL    HW130401   2.793   2.827   1.714  1.4908 -0.7882 -0.8316
 6114SOL    HW230402   2.895   2.955   1.708  1.8632 -1.0603 -0.3504
 6115SOL     OW30403   6.246   9.519   3.835  0.2447 -0.2427 -0.1511
 6115SOL    HW130404   6.154   9.492   3.863 -0.4503  1.7099 -0.4660
 6115SOL    HW230405   6.249   9.618   3.820  2.3734 -0.2931 -0.2523
 6116SOL     OW30406   3.443   8.086   2.420 -0.1990 -0.6960  0.0675
 6116SOL    HW130407   3.434   7.989   2.399  0.5148 -0.5732 -0.8837
 6116SOL    HW230408   3.361   8.118   2.467 -1.7160 -1.1272 -2.1805
 6117SOL     OW30409   1.454   4.885   8.019 -0.5659 -0.1284 -0.3314
 6117SOL    HW130410   1.448   4.868   8.117  0.5186  1.9184  0.1135
 6117SOL    HW230411   1.544   4.853   7.986 -1.0738 -1.1576 -0.7469
 6118SOL     OW30412   2.222   7.443   9.330 -0.1496 -0.1218 -0.1013
 6118SOL    HW130413   2.168   7.430   9.413 -1.6249 -1.5484 -1.2434
 6118SOL    HW230414   2.200   7.370   9.264 -2.6734  3.6494 -3.6798
 6119SOL     OW30415   4.292   8.952   0.275 -0.2588  0.1658  0.1310
 6119SOL    HW130416   4.321   9.042   0.309  1.1454  0.4051 -1.5911
 6119SOL    HW230417   4.294   8.886   0.349  0.1834  1.2337  1.0815
 6120SOL     OW30418   0.670   6.213   5.656 -0.8290 -0.1713 -0.3988
 6120SOL    HW130419   0.610   6.235   5.733 -2.0218  0.4562 -1.4733
 6120SOL    HW230420   0.656   6.118   5.629 -0.3854 -0.4006  0.1712
 6121SOL     OW30421   2.774   3.223   2.175 -0.0871  0.0450 -0.1016
 6121SOL    HW130422   2.777   3.265   2.084  0.0138  1.0685  0.3742
 6121SOL    HW230423   2.839   3.269   2.236  0.2676 -1.0152  0.3372
 6122SOL     OW30424   0.059   4.534   4.579 -0.1312  0.0128 -0.4215
 6122SOL    HW130425   0.030   4.451   4.626  1.0569  1.0876  2.3066
 6122SOL    HW230426   0.157   4.550   4.596 -0.5512  2.4597 -0.0935
 6123SOL     OW30427   5.431   1.065   1.965 -0.2836 -0.2434  0.3495
 6123SOL    HW130428   5.399   1.117   1.886 -1.8988  0.3816  1.3789
 6123SOL    HW230429   5.461   0.974   1.937 -1.7821 -0.3725 -0.8227
 6124SOL     OW30430   7.491   3.514   3.365 -0.3712  0.0151 -0.4626
 6124SOL    HW130431   7.468   3.430   3.317 -0.0793 -0.3527  0.0366
 6124SOL    HW230432   7.544   3.573   3.304  1.6869 -1.2827  0.0158
 6125SOL     OW30433   4.317   3.951   1.458  0.4130  0.4495 -0.4352
 6125SOL    HW130434   4.335   3.868   1.510 -0.5779 -0.1714 -1.0958
 6125SOL    HW230435   4.372   3.951   1.374  0.9634  0.8084 -0.0802
 6126SOL     OW30436   7.506   9.657   6.367 -0.0735  0.6290 -0.3529
 6126SOL    HW130437   7.540   9.624   6.279 -0.2395  1.6146 -0.8064
 6126SOL    HW230438   7.434   9.596   6.400  2.7282 -1.9965  1.0822
 6127SOL     OW30439   8.477   4.875   8.647  0.2858 -0.3218 -0.0631
 6127SOL    HW130440   8.519   4.801   8.595  1.4073  0.7098 -0.6540
 6127SOL    HW230441   8.493   4.861   8.744 -0.2793 -1.3163 -0.1056
 6128SOL     OW30442   1.502   6.592   2.158 -0.2131  0.0216 -0.4422
 6128SOL    HW130443   1.470   6.497   2.151  1.7328 -0.5356 -2.1487
 6128SOL    HW230444   1.571   6.598   2.230  0.8801 -0.2202 -1.4563
 6129SOL     OW30445   1.615   8.849   6.370 -0.4894 -0.8177  0.2372
 6129SOL    HW130446   1.667   8.820   6.290 -0.6023 -1.1061  0.2704
 6129SOL    HW230447   1.572   8.770   6.413 -1.5865 -0.4777 -0.2289
 6130SOL     OW30448   9.745   7.649   3.445 -0.5544 -0.5506 -0.4876
 6130SOL    HW130449   9.765   7.674   3.350 -1.2334 -2.0637 -1.0318
 6130SOL    HW230450   9.824   7.670   3.502 -0.2609  0.6830 -1.3163
 6131SOL     OW30451   4.532   4.324   4.944  0.0812  0.1374  0.2680
 6131SOL    HW130452   4.499   4.316   5.038  1.4958 -1.0589  0.6843
 6131SOL    HW230453   4.626   4.358   4.945  0.8853 -1.9864 -0.5874
 6132SOL     OW30454   1.675   2.919   0.863  0.1025 -0.1088  0.0393
 6132SOL    HW130455   1.578   2.925   0.886  0.2736 -1.5070  1.2425
 6132SOL    HW230456   1.698   2.987   0.794 -1.8293 -0.0527 -0.5681
 6133SOL     OW30457   0.903   2.366   9.253  0.4907  0.8035 -0.0776
 6133SOL    HW130458   0.979   2.417   9.213  0.7680  1.5003  1.3089
 6133SOL    HW230459   0.915   2.360   9.352 -1.6404  1.5788  0.2542
 6134SOL     OW30460   9.749   5.828   7.142  0.4316 -0.6146 -0.0711
 6134SOL    HW130461   9.773   5.865   7.232 -1.6917  4.2905 -1.3169
 6134SOL    HW230462   9.832   5.813   7.089  1.4925  1.5188  0.9176
 6135SOL     OW30463   4.978   6.443   3.616 -0.0495  0.3797  0.3745
 6135SOL    HW130464   4.972   6.369   3.683 -0.4346  0.2788  0.2295
 6135SOL    HW230465   5.051   6.423   3.550 -1.7898 -1.0681 -1.1310
 6136SOL     OW30466   9.243   2.775   8.501  0.0581 -0.0936  0.9141
 6136SOL    HW130467   9.145   2.797   8.508  0.6213  2.0604  2.4313
 6136SOL    HW230468   9.296   2.859   8.503  1.9008 -1.1478 -1.5490
 6137SOL     OW30469   5.746   4.472   1.366 -0.2835  0.8003 -0.3070
 6137SOL    HW130470   5.763   4.416   1.447 -1.1877  0.5171 -0.3061
 6137SOL    HW230471   5.819   4.457   1.299  0.3004  0.7985  0.3283
 6138SOL     OW30472   7.797   6.496   3.758  0.0730  0.0325 -0.2001
 6138SOL    HW130473   7.855   6.576   3.747  0.0715 -0.1395 -1.5193
 6138SOL    HW230474   7.729   6.494   3.684  0.2713 -1.3523 -0.3514
 6139SOL     OW30475   0.411   8.707   5.158  0.2315 -0.7801 -0.4988
 6139SOL    HW130476   0.471   8.711   5.078 -0.5918 -0.3985 -1.1026
 6139SOL    HW230477   0.458   8.745   5.237  0.4306  0.4394 -1.1927
 6140SOL     OW30478   8.836   3.874   8.887  0.4868 -0.0240 -0.0755
 6140SOL    HW130479   8.898   3.922   8.826  0.2122  0.2027 -0.1770
 6140SOL    HW230480   8.839   3.776   8.868  2.1540 -0.2291  1.1092
 6141SOL     OW30481   7.333   5.902   7.367 -0.4462  0.3057 -0.5571
 6141SOL    HW130482   7.304   5.973   7.432 -2.0563  1.8590 -2.8690
 6141SOL    HW230483   7.407   5.938   7.310  1.2466 -1.1921  0.6292
 6142SOL     OW30484   7.218   7.342   8.812 -0.1329 -0.0043 -0.9118
 6142SOL    HW130485   7.146   7.305   8.870 -0.9765  1.6682 -0.8554
 6142SOL    HW230486   7.213   7.442   8.813  1.8826  0.1169 -1.2961
 6143SOL     OW30487   5.911   7.681   7.575  0.2390  0.2572  0.3995
 6143SOL    HW130488   5.876   7.769   7.543 -0.3443 -0.2533 -0.3964
 6143SOL    HW230489   5.867   7.657   7.662  0.0451  0.5313  0.3766
 6144SOL     OW30490   0.832   9.815   0.232  0.0405  0.2381  0.4718
 6144SOL    HW130491   0.883   9.835   0.315  1.0713 -0.0332 -0.0840
 6144SOL    HW230492   0.845   9.889   0.166 -0.7220  0.4248  0.5234
 6145SOL     OW30493   6.488   4.293   2.720 -0.4931  0.6851  0.0218
 6145SOL    HW130494   6.400   4.271   2.762 -0.2507 -0.3738  0.0030
 6145SOL    HW230495   6.473   4.346   2.636 -1.1117  0.5535  0.0494
 6146SOL     OW30496   3.461   4.629   4.526 -0.0807 -0.3523  0.8454
 6146SOL    HW130497   3.462   4.728   4.518  1.7447 -0.3667  0.7722
 6146SOL    HW230498   3.430   4.589   4.439  3.2306  0.0523 -0.6155
 6147SOL     OW30499   3.808   5.863   7.408  0.0080  0.6421 -0.4373
 6147SOL    HW130500   3.844   5.861   7.315  1.8955 -1.3621  0.2994
 6147SOL    HW230501   3.878   5.901   7.469 -0.2333 -0.5449  0.5707
 6148SOL     OW30502   9.176   3.268   4.950 -0.1474  0.1576 -0.2429
 6148SOL    HW130503   9.275   3.278   4.939 -0.3692 -0.5596 -3.1308
 6148SOL    HW230504   9.158   3.193   5.013  1.1427  0.0140 -0.0214
 6149SOL     OW30505   1.078   1.007   5.060  0.4364 -0.0156  0.2568
 6149SOL    HW130506   1.072   0.910   5.080  2.9242 -0.4712 -0.9719
 6149SOL    HW230507   1.019   1.058   5.122  2.3347 -1.9723  3.8324
 6150SOL     OW30508   9.819   2.198   3.309 -0.8011 -0.0657  0.2348
 6150SOL    HW130509   9.892   2.259   3.276  0.0288 -1.7968 -1.2213
 6150SOL    HW230510   9.806   2.212   3.408  1.1465  0.6305  0.4150
 6151SOL     OW30511   0.169   8.830   0.102  0.0590 -0.0549 -0.0670
 6151SOL    HW130512   0.256   8.779   0.102 -0.5127 -1.0489  0.2214
 6151SOL    HW230513   0.094   8.767   0.083 -0.4444  1.0885 -2.0022
 6152SOL     OW30514   7.932   8.309   3.713  0.2446  0.0923  0.2330
 6152SOL    HW130515   7.899   8.332   3.621 -1.0789  0.4898  0.8012
 6152SOL    HW230516   7.931   8.392   3.770 -0.0388 -0.3932  0.9350
 6153SOL     OW30517   0.209   1.243   0.287 -0.3207  0.6645 -0.0312
 6153SOL    HW130518   0.121   1.250   0.242  0.2206  1.1019 -1.0308
 6153SOL    HW230519   0.276   1.299   0.239  1.1645 -1.8040 -0.9073
 6154SOL     OW30520   7.601   5.397   3.221  0.3489  0.2915  0.1187
 6154SOL    HW130521   7.530   5.370   3.157 -0.7157  1.1512  0.9136
 6154SOL    HW230522   7.630   5.491   3.202  0.5979  0.2702  0.3805
 6155SOL     OW30523   9.400   2.939   5.588 -0.0830 -0.0451 -0.4190
 6155SOL    HW130524   9.372   3.019   5.642 -0.6725 -0.1623 -0.5551
 6155SOL    HW230525   9.321   2.900   5.542 -0.2976 -2.2717  1.7062
 6156SOL     OW30526   7.234   9.621   5.601 -0.4771  0.8710  0.2755
 6156SOL    HW130527   7.229   9.567   5.685 -0.3888 -0.1409 -0.3636
 6156SOL    HW230528   7.156   9.683   5.596  0.0046  1.6022  1.5508
 6157SOL     OW30529   7.269   2.501   9.098  0.1429  0.1788  0.6122
 6157SOL    HW130530   7.337   2.574   9.105  0.4347 -0.0762  0.4411
 6157SOL    HW230531   7.285   2.449   9.014  1.4125 -1.5912  1.9120
 6158SOL     OW30532   2.152   3.538   0.467  0.0500 -0.4092  0.5759
 6158SOL    HW130533   2.156   3.601   0.545 -0.0682  0.1748  0.1102
 6158SOL    HW230534   2.216   3.463   0.482  1.2643  0.5948  0.4656
 6159SOL     OW30535   6.580   0.808   1.447 -0.3078 -0.0434 -0.0128
 6159SOL    HW130536   6.602   0.786   1.352  0.9245  1.3115 -0.0536
 6159SOL    HW230537   6.665   0.820   1.499 -0.9705  0.3882  0.9859
 6160SOL     OW30538   0.291   7.187   3.911 -0.1291 -0.3326  0.1504
 6160SOL    HW130539   0.357   7.262   3.919  1.3107 -1.2875 -2.1387
 6160SOL    HW230540   0.208   7.221   3.866  0.7072 -0.1893 -1.3148
 6161SOL     OW30541   1.425   0.991   8.297 -0.3737  0.8633  0.2168
 6161SOL    HW130542   1.399   1.087   8.313 -0.0212  1.2532 -1.4456
 6161SOL    HW230543   1.367   0.931   8.352 -0.3529  2.0467  1.5567
 6162SOL     OW30544   8.357   7.171   6.911  0.3106 -0.1768 -0.2511
 6162SOL    HW130545   8.439   7.222   6.887  0.2454 -0.0833 -0.2713
 6162SOL    HW230546   8.377   7.111   6.989  0.5559 -0.5817 -0.6212
 6163SOL     OW30547   8.371   0.394   0.501  0.5137  0.2019  0.0444
 6163SOL    HW130548   8.289   0.345   0.530  0.3634  0.3650 -0.1034
 6163SOL    HW230549   8.345   0.471   0.443  0.8605 -0.7968 -1.4860
 6164SOL     OW30550   2.224   7.802   9.153  0.2735 -0.3872 -0.1384
 6164SOL    HW130551   2.175   7.842   9.075  0.1296  0.0530  0.1774
 6164SOL    HW230552   2.159   7.754   9.212  0.4583 -1.1696 -0.5628
 6165SOL     OW30553   2.654   3.727   6.388  0.5562 -0.2701  0.4217
 6165SOL    HW130554   2.639   3.630   6.367 -1.1920  0.2761 -0.8960
 6165SOL    HW230555   2.570   3.767   6.424  0.7297  1.2033 -0.7572
 6166SOL     OW30556   2.416   6.734   5.504 -0.1572  0.3668  0.2052
 6166SOL    HW130557   2.480   6.668   5.466  0.5132 -1.3343  3.9992
 6166SOL    HW230558   2.440   6.826   5.473  2.4290 -0.5494 -0.6501
 6167SOL     OW30559   0.300   0.590   9.704  0.1372  0.1665 -0.4866
 6167SOL    HW130560   0.348   0.676   9.719  0.0315  0.1878 -0.2662
 6167SOL    HW230561   0.366   0.519   9.681  0.0098  0.8411 -3.0952
 6168SOL     OW30562   7.403   2.730   6.022  0.2987  0.0114  0.2962
 6168SOL    HW130563   7.470   2.656   6.021  0.3621  0.0832 -0.4787
 6168SOL    HW230564   7.367   2.745   5.930  0.3124  0.9619  0.4393
 6169SOL     OW30565   2.711   1.946   1.098 -0.2387 -0.3764  0.3531
 6169SOL    HW130566   2.687   1.987   1.185  1.1789 -0.4036  0.7693
 6169SOL    HW230567   2.644   1.874   1.075 -1.4381  0.6124  0.6921
 6170SOL     OW30568   5.842   9.084   4.855  0.6360 -0.2722  0.3487
 6170SOL    HW130569   5.905   9.041   4.790 -0.2540 -0.3763 -0.4476
 6170SOL    HW230570   5.895   9.134   4.924  1.5456  0.9589 -1.2297
 6171SOL     OW30571   8.513   5.265   5.166  0.5329  0.1368  0.1424
 6171SOL    HW130572   8.426   5.258   5.117  0.8193 -1.9232 -0.1248
 6171SOL    HW230573   8.499   5.312   5.253 -0.4543  1.5971 -0.7867
 6172SOL     OW30574   0.280   5.972   5.214 -0.2917  0.1532  0.3736
 6172SOL    HW130575   0.208   5.978   5.283 -0.0547  0.4199  0.5988
 6172SOL    HW230576   0.267   5.889   5.160 -1.2431  0.6239 -0.1270
 6173SOL     OW30577   5.357   0.116   7.614  0.6801  0.1316  0.0963
 6173SOL    HW130578   5.277   0.097   7.558 -0.0892  0.3733  1.1050
 6173SOL    HW230579   5.368   0.045   7.683  1.3103  0.1233 -0.0058
 6174SOL     OW30580   0.737   2.844   0.942  0.1198  0.1464 -0.2389
 6174SOL    HW130581   0.820   2.845   0.998 -1.3458  1.0794  2.0083
 6174SOL    HW230582   0.685   2.760   0.960 -0.1626  0.2597 -0.5156
 6175SOL     OW30583   3.527   5.192   6.192 -0.1873  0.0833  0.0844
 6175SOL    HW130584   3.503   5.274   6.140  1.7009  1.0846  0.7255
 6175SOL    HW230585   3.485   5.112   6.149 -1.5355  1.2974 -0.9248
 6176SOL     OW30586   8.843   2.627   6.458  0.4432  0.0448 -0.1081
 6176SOL    HW130587   8.921   2.690   6.468 -0.7705  1.1459  3.1307
 6176SOL    HW230588   8.772   2.671   6.402  0.5747  0.6148  0.1607
 6177SOL     OW30589   0.327   6.450   2.522 -0.2801  0.1471 -0.3240
 6177SOL    HW130590   0.395   6.431   2.451 -0.3235 -0.4111 -0.2183
 6177SOL    HW230591   0.373   6.453   2.611 -0.3782 -0.1370 -0.2635
 6178SOL     OW30592   2.518   9.412   5.386 -0.4541 -0.4168 -0.0447
 6178SOL    HW130593   2.502   9.424   5.484  1.0493  0.0409  0.1605
 6178SOL    HW230594   2.569   9.328   5.370  0.4849  0.1883 -0.2987
 6179SOL     OW30595   3.356   9.197   1.154  0.2096 -0.3097  0.2011
 6179SOL    HW130596   3.361   9.267   1.226 -0.4469 -1.4928  1.4225
 6179SOL    HW230597   3.343   9.242   1.065  2.9140  1.2741  0.5484
 6180SOL     OW30598   1.723   4.545   4.181 -0.1979 -0.2312  0.0636
 6180SOL    HW130599   1.648   4.552   4.247 -1.9562  1.0281 -1.9931
 6180SOL    HW230600   1.712   4.461   4.128  0.5451 -0.6470  0.5644
 6181SOL     OW30601   0.691   3.446   6.535  0.3468  0.1661 -0.1539
 6181SOL    HW130602   0.723   3.500   6.458  0.8385 -1.5978 -1.2172
 6181SOL    HW230603   0.604   3.403   6.512  0.6783 -0.6692  0.1122
 6182SOL     OW30604   4.493   0.748   4.327  0.0416  0.0641  0.2705
 6182SOL    HW130605   4.591   0.763   4.341  0.3843 -2.5252  0.8899
 6182SOL    HW230606   4.480   0.678   4.257 -1.2998 -0.8422  1.3977
 6183SOL     OW30607   4.654   1.770   2.159 -0.0808  0.0561  0.0178
 6183SOL    HW130608   4.731   1.734   2.211 -0.7852 -1.9772 -0.2662
 6183SOL    HW230609   4.683   1.789   2.066  0.5956  1.3629  0.4923
 6184SOL     OW30610   1.570   4.442   2.256 -0.2542  0.5228 -0.4129
 6184SOL    HW130611   1.551   4.535   2.227  0.0030  0.1753 -1.7486
 6184SOL    HW230612   1.594   4.386   2.176 -0.9633 -0.8228  0.2891
 6185SOL     OW30613   0.926   0.530   1.787 -0.1514  0.0979  0.2684
 6185SOL    HW130614   0.936   0.629   1.794 -0.5723  0.1345  0.3809
 6185SOL    HW230615   0.991   0.494   1.720 -0.8107  0.5917 -0.6463
 6186SOL     OW30616   1.306   8.061   5.376 -0.0905 -0.0330  0.8055
 6186SOL    HW130617   1.369   7.987   5.399  0.6777  0.7446  1.2417
 6186SOL    HW230618   1.223   8.052   5.431 -0.6955 -1.5074 -0.3365
 6187SOL     OW30619   0.700   7.783   2.334 -0.2081 -0.1043  0.2267
 6187SOL    HW130620   0.774   7.817   2.277 -0.4558 -0.7521 -0.4928
 6187SOL    HW230621   0.614   7.828   2.308 -0.6642 -1.7452 -1.1956
 6188SOL     OW30622   3.356   0.720   9.129 -0.1694 -0.3830  0.1973
 6188SOL    HW130623   3.357   0.640   9.068 -2.3255 -0.8224  0.6952
 6188SOL    HW230624   3.272   0.719   9.183  0.1469  1.8379  0.7521
 6189SOL     OW30625   2.761   7.716   1.033  0.5427 -0.0500 -0.8293
 6189SOL    HW130626   2.825   7.725   1.109  1.3208 -0.3651 -1.4388
 6189SOL    HW230627   2.672   7.754   1.059  1.2129  1.1417 -0.2656
 6190SOL     OW30628   8.047   6.814   1.907  0.3497  0.1034  0.2001
 6190SOL    HW130629   8.146   6.819   1.923  0.6356 -3.4900 -0.1152
 6190SOL    HW230630   7.999   6.806   1.994  0.4395  0.3340  0.2711
 6191SOL     OW30631   8.390   9.308   1.196 -0.1045  0.0767  0.6744
 6191SOL    HW130632   8.451   9.233   1.221 -1.8663 -1.7431 -0.2488
 6191SOL    HW230633   8.404   9.332   1.100  0.3560  0.8209  0.9298
 6192SOL     OW30634   4.414   3.519   7.306  0.1742 -0.7510  0.2341
 6192SOL    HW130635   4.322   3.507   7.343  1.0723 -0.3139  2.7390
 6192SOL    HW230636   4.456   3.600   7.347  3.1117 -3.1617  2.2188
 6193SOL     OW30637   8.714   9.695   4.385 -0.0626  0.3434  0.0616
 6193SOL    HW130638   8.730   9.598   4.367  0.7360  0.6318 -0.8573
 6193SOL    HW230639   8.706   9.711   4.483 -0.7207 -0.7298  0.1794
 6194SOL     OW30640   3.348   8.142   3.669  0.0769 -0.0434 -0.0218
 6194SOL    HW130641   3.371   8.086   3.590 -0.0410 -2.3074  1.5017
 6194SOL    HW230642   3.432   8.168   3.717  0.0970  0.6068 -0.4085
 6195SOL     OW30643   2.835   5.106   2.685  0.5410  0.3927 -0.2404
 6195SOL    HW130644   2.770   5.047   2.637  0.8513 -0.0737 -0.0966
 6195SOL    HW230645   2.832   5.198   2.646 -0.1714  0.3653 -0.2645
 6196SOL     OW30646   4.104   8.890   8.570 -0.2324 -0.1117  0.0672
 6196SOL    HW130647   4.175   8.820   8.561  2.3669  2.2822  1.0725
 6196SOL    HW230648   4.085   8.930   8.480 -1.0448 -1.3840 -0.3528
 6197SOL     OW30649   7.684   7.056   4.086  0.6374 -0.0481  0.3000
 6197SOL    HW130650   7.708   7.151   4.102 -1.1929  0.3722  0.6951
 6197SOL    HW230651   7.699   7.003   4.170  0.8438  0.0712  0.3378
 6198SOL     OW30652   4.206   9.245   7.364 -0.2934 -0.5775  0.1523
 6198SOL    HW130653   4.287   9.305   7.362 -0.5362 -0.2677 -0.4526
 6198SOL    HW230654   4.191   9.214   7.458  0.1830 -0.1634  0.3726
 6199SOL     OW30655   0.987   4.754   3.067  0.1450  0.5684 -0.2974
 6199SOL    HW130656   0.908   4.798   3.110  0.0503  0.3073 -0.2007
 6199SOL    HW230657   0.963   4.725   2.974 -0.2362 -0.5465  0.1412
 6200SOL     OW30658   5.839   1.121   5.793  0.3418  0.3349 -0.3371
 6200SOL    HW130659   5.794   1.055   5.854  0.2757 -0.4836 -1.2754
 6200SOL    HW230660   5.879   1.074   5.715  0.3272  1.3990 -0.9992
 6201SOL     OW30661   1.913   6.234   3.306 -0.2139  0.4715  0.5147
 6201SOL    HW130662   1.919   6.326   3.266  0.7482 -0.0477 -0.5518
 6201SOL    HW230663   1.980   6.174   3.263 -1.2942 -0.9230  0.7211
 6202SOL     OW30664   7.160   1.736   0.939  0.2891 -0.4017  0.2836
 6202SOL    HW130665   7.100   1.657   0.927  0.5848 -0.5762 -0.0348
 6202SOL    HW230666   7.168   1.785   0.852 -1.4687  1.0985  0.9219
 6203SOL     OW30667   5.051   4.825   2.734 -0.3825  0.3478 -0.4494
 6203SOL    HW130668   5.057   4.791   2.640 -2.1806 -1.6070  0.0933
 6203SOL    HW230669   5.075   4.922   2.736 -0.3755  0.4370 -2.9259
 6204SOL     OW30670   0.652   9.404   8.260 -0.1950 -0.0502  0.6429
 6204SOL    HW130671   0.668   9.479   8.325 -0.3151  0.6627 -0.1476
 6204SOL    HW230672   0.556   9.404   8.232 -1.1335 -2.8468  3.5418
 6205SOL     OW30673   8.504   9.339   7.205  0.1270 -0.7029 -0.2414
 6205SOL    HW130674   8.520   9.433   7.234  1.8339 -0.6702 -1.2363
 6205SOL    HW230675   8.583   9.306   7.153 -0.1215 -2.9376  0.7427
 6206SOL     OW30676   4.014   8.340   7.007  0.5844  0.2772 -0.1932
 6206SOL    HW130677   4.110   8.316   6.992  0.4295 -0.6470  0.2665
 6206SOL    HW230678   3.974   8.370   6.920  0.9095 -0.7099 -0.6973
 6207SOL     OW30679   5.425   6.678   1.116  0.1023 -0.1426 -0.1663
 6207SOL    HW130680   5.414   6.778   1.123  1.7989  0.1053 -0.8055
 6207SOL    HW230681   5.453   6.654   1.023  1.4238 -1.0265  0.4383
 6208SOL     OW30682   6.564   4.533   7.668  0.6597  0.4541  0.2821
 6208SOL    HW130683   6.612   4.488   7.592  0.4384  0.5590  0.0834
 6208SOL    HW230684   6.615   4.614   7.696  0.5783  0.5889  0.0420
 6209SOL     OW30685   2.890   0.872   6.457 -0.2504 -0.1564 -0.2817
 6209SOL    HW130686   2.958   0.874   6.384  1.6193 -1.7855  1.3664
 6209SOL    HW230687   2.925   0.921   6.536 -1.7347  0.4760  0.0015
 6210SOL     OW30688   3.192   7.134   7.769  0.1965 -0.2829 -0.1648
 6210SOL    HW130689   3.253   7.212   7.753 -0.6797  0.6508  0.9106
 6210SOL    HW230690   3.149   7.108   7.682  0.9427  0.0478 -0.6412
 6211SOL     OW30691   3.642   5.051   5.782  0.0567  0.7050  0.3249
 6211SOL    HW130692   3.544   5.060   5.762 -0.0174  0.2126  0.4457
 6211SOL    HW230693   3.662   4.955   5.801  0.8489  0.5511 -1.2399
 6212SOL     OW30694   1.665   4.699   3.931  0.5452 -0.4384  0.4306
 6212SOL    HW130695   1.691   4.656   4.018 -0.8744  0.3618  1.2726
 6212SOL    HW230696   1.570   4.678   3.911  0.5590  0.2652 -0.4014
 6213SOL     OW30697   2.740   0.627   6.867  0.1941 -0.2600  0.0153
 6213SOL    HW130698   2.731   0.726   6.859 -0.8374 -0.2064  1.4920
 6213SOL    HW230699   2.797   0.592   6.793  0.6016  1.4380 -0.4929
 6214SOL     OW30700   9.869   0.947   8.257 -0.1487  0.2065  0.0960
 6214SOL    HW130701   9.941   0.947   8.187 -1.6634  2.1305 -1.5282
 6214SOL    HW230702   9.877   1.030   8.313  0.7399 -1.0752  1.9189
 6215SOL     OW30703   1.724   0.439   0.437 -0.2584  0.3847 -0.1903
 6215SOL    HW130704   1.819   0.467   0.451 -0.9023  2.7195 -0.2524
 6215SOL    HW230705   1.688   0.401   0.522  0.7756 -0.7160 -0.2238
 6216SOL     OW30706   1.780   8.352   3.283 -0.5941 -0.0241  0.3165
 6216SOL    HW130707   1.862   8.404   3.304 -1.3263  1.3522 -0.1466
 6216SOL    HW230708   1.713   8.364   3.356 -1.2443  0.7281 -0.3891
 6217SOL     OW30709   3.195   3.310   5.643  0.2064 -0.1099 -0.0997
 6217SOL    HW130710   3.137   3.245   5.692  0.0305 -0.1664 -0.3757
 6217SOL    HW230711   3.255   3.261   5.580  0.8359 -0.0762  0.4763
 6218SOL     OW30712   1.465   6.167   0.807 -0.6083  0.4060  0.5400
 6218SOL    HW130713   1.432   6.082   0.847 -1.0888  0.4991  0.3542
 6218SOL    HW230714   1.560   6.157   0.779 -1.6291 -1.2093 -2.6706
 6219SOL     OW30715   8.826   8.132   6.489 -0.0189  0.2137 -0.5657
 6219SOL    HW130716   8.769   8.212   6.470  0.3527  0.7742  0.5962
 6219SOL    HW230717   8.836   8.077   6.406 -0.5766  1.1839 -1.2818
 6220SOL     OW30718   3.878   8.241   7.771  0.1616  0.6471 -0.5442
 6220SOL    HW130719   3.973   8.209   7.773 -0.0206  0.2002  1.5246
 6220SOL    HW230720   3.817   8.168   7.801 -0.8572  0.9300 -1.8664
 6221SOL     OW30721   6.705   7.032   4.001 -0.6135  0.2340  0.6999
 6221SOL    HW130722   6.694   7.099   4.074 -0.3417  1.0982 -0.0535
 6221SOL    HW230723   6.665   7.067   3.916  0.4108 -0.1263  0.0573
 6222SOL     OW30724   1.860   2.866   4.677 -0.3458  0.0147 -0.3829
 6222SOL    HW130725   1.860   2.877   4.777 -0.1119 -1.2196 -0.2462
 6222SOL    HW230726   1.916   2.939   4.637 -0.9493  0.8892  0.3369
 6223SOL     OW30727   5.942   0.479   3.022 -0.5254 -0.0362  0.2525
 6223SOL    HW130728   6.006   0.402   3.020 -1.1886 -0.5688 -0.5951
 6223SOL    HW230729   5.989   0.560   3.057  0.6969 -0.3511 -0.6224
 6224SOL     OW30730   8.675   6.263   2.582  0.1969  0.4771 -0.0013
 6224SOL    HW130731   8.617   6.262   2.500  0.5390  1.4656 -0.2599
 6224SOL    HW230732   8.665   6.176   2.630 -0.5017  0.1324 -0.7463
 6225SOL     OW30733   7.013   9.227   2.930  0.1010  0.0034  0.5369
 6225SOL    HW130734   6.976   9.300   2.873  0.7067 -0.1004  0.0024
 6225SOL    HW230735   7.066   9.164   2.873  0.7574 -0.0666  1.2196
 6226SOL     OW30736   8.352   6.068   0.674  0.0833  0.3803  0.2959
 6226SOL    HW130737   8.377   6.160   0.704  0.0427  0.1194  1.1635
 6226SOL    HW230738   8.319   6.016   0.753  0.2112 -0.4117 -0.1698
 6227SOL     OW30739   8.697   2.931   2.636  0.0664  0.1046  0.0012
 6227SOL    HW130740   8.668   2.928   2.731 -2.2769  0.9248 -0.6373
 6227SOL    HW230741   8.735   3.021   2.615 -0.9476  0.4929 -0.2260
 6228SOL     OW30742   0.685   9.418   8.682 -0.4396  0.0486 -0.3274
 6228SOL    HW130743   0.694   9.480   8.604 -0.7757 -0.1740 -0.5448
 6228SOL    HW230744   0.593   9.427   8.720 -0.2001  0.3225  0.1859
 6229SOL     OW30745   6.840   5.971   2.643 -0.2373  0.0084 -0.0518
 6229SOL    HW130746   6.744   5.995   2.628 -0.1898 -0.6879 -1.5025
 6229SOL    HW230747   6.858   5.880   2.607  1.5586  1.0964 -1.9895
 6230SOL     OW30748   1.563   5.581   3.633 -0.0773 -0.1780  0.3067
 6230SOL    HW130749   1.481   5.624   3.594  0.8275  2.0997  0.8576
 6230SOL    HW230750   1.547   5.483   3.642 -1.9538 -0.0953 -1.6071
 6231SOL     OW30751   8.321   4.857   8.975 -0.6611  0.6139 -0.0100
 6231SOL    HW130752   8.384   4.934   8.971 -2.1925  1.7868 -2.5660
 6231SOL    HW230753   8.274   4.847   8.888 -1.7512 -2.1845  0.8224
 6232SOL     OW30754   6.134   0.454   6.408  0.2864 -0.3578  0.1655
 6232SOL    HW130755   6.129   0.548   6.442  1.1193  0.6263 -2.3205
 6232SOL    HW230756   6.043   0.423   6.381  0.1014 -0.0713  0.4556
 6233SOL     OW30757   9.059   3.290   5.422 -0.1822  0.0662 -0.2497
 6233SOL    HW130758   9.135   3.232   5.392  0.6323  0.8448  0.2838
 6233SOL    HW230759   9.093   3.359   5.485 -1.7203 -0.9640  1.7756
 6234SOL     OW30760   8.668   7.752   9.751  0.1400 -0.2409  0.1742
 6234SOL    HW130761   8.633   7.722   9.662 -0.4682  1.0918 -0.0417
 6234SOL    HW230762   8.598   7.735   9.821  0.6769 -1.4330  0.4348
 6235SOL     OW30763   4.678   4.638   9.653  0.2790  0.2387  0.0919
 6235SOL    HW130764   4.766   4.685   9.657 -0.0062  0.8047 -0.1996
 6235SOL    HW230765   4.626   4.672   9.575 -0.3223  0.1223  0.4402
 6236SOL     OW30766   0.650   1.873   6.124  0.5358 -0.6708  0.5541
 6236SOL    HW130767   0.567   1.927   6.111 -1.0357 -2.8302  1.3023
 6236SOL    HW230768   0.673   1.869   6.221  1.8009  0.3224  0.3006
 6237SOL     OW30769   4.167   5.348   7.369 -0.3806  0.1235  0.6009
 6237SOL    HW130770   4.117   5.433   7.351  0.4872  0.8669  1.6008
 6237SOL    HW230771   4.118   5.271   7.329 -0.1405  1.3363 -2.1370
 6238SOL     OW30772   7.021   9.041   5.667  0.1785  0.0405  0.2383
 6238SOL    HW130773   7.115   9.012   5.652 -0.2808 -0.4870 -1.7087
 6238SOL    HW230774   7.018   9.140   5.682  0.9476  0.1722 -0.4607
 6239SOL     OW30775   0.802   5.637   6.172  0.6104 -0.1845 -0.0106
 6239SOL    HW130776   0.874   5.626   6.239  1.6782  0.6904 -0.9875
 6239SOL    HW230777   0.837   5.689   6.094 -0.0454 -2.7595 -2.0927
 6240SOL     OW30778   4.946   7.990   8.404  0.3006  0.5666 -0.0434
 6240SOL    HW130779   5.028   8.026   8.359 -1.5030  1.8826 -2.4036
 6240SOL    HW230780   4.880   8.065   8.418 -1.3374 -0.8332 -0.0951
 6241SOL     OW30781   7.990   4.897   7.643 -0.9863 -0.9121  0.2723
 6241SOL    HW130782   8.025   4.967   7.704  1.1646 -1.8791  0.1948
 6241SOL    HW230783   7.999   4.807   7.686 -1.7899 -1.3538 -0.4614
 6242SOL     OW30784   3.491   3.608   3.138  0.1041  0.2816 -0.1927
 6242SOL    HW130785   3.581   3.645   3.161  0.7348 -1.0594 -0.4604
 6242SOL    HW230786   3.427   3.631   3.211  1.0372 -0.1068  0.7792
 6243SOL     OW30787   8.467   3.859   2.508 -0.0554 -0.0066 -0.5280
 6243SOL    HW130788   8.420   3.782   2.550 -0.1345  0.9212  1.1432
 6243SOL    HW230789   8.561   3.834   2.488 -0.2408 -0.7181 -0.5303
 6244SOL     OW30790   3.232   9.497   9.312  0.5111 -0.4313 -0.0198
 6244SOL    HW130791   3.207   9.593   9.307  1.8105 -0.1283 -0.7106
 6244SOL    HW230792   3.331   9.488   9.323  0.2708 -1.6548  1.3682
 6245SOL     OW30793   8.351   7.470   8.704 -0.3811  0.2040  0.3438
 6245SOL    HW130794   8.444   7.436   8.717 -0.2362 -0.5381 -2.2716
 6245SOL    HW230795   8.352   7.570   8.698  0.8459  0.0798 -3.2614
 6246SOL     OW30796   7.691   2.871   8.557  0.2654  0.8592  0.8764
 6246SOL    HW130797   7.683   2.807   8.634  1.7713 -1.1485 -0.5998
 6246SOL    HW230798   7.763   2.937   8.576  1.2886 -0.2248  0.8021
 6247SOL     OW30799   3.539   0.038   7.884  0.1702 -0.2045 -0.9471
 6247SOL    HW130800   3.493   0.122   7.859  1.3959  0.3071 -1.5384
 6247SOL    HW230801   3.515  -0.034   7.819 -1.3278 -0.4818 -0.1110
 6248SOL     OW30802   5.791   9.187   9.232 -0.1971  0.0504 -0.0638
 6248SOL    HW130803   5.891   9.189   9.222 -0.3474  1.0853 -1.5627
 6248SOL    HW230804   5.763   9.254   9.300  0.2281 -1.3270  1.5096
 6249SOL     OW30805   8.754   6.881   9.375  0.1136  0.6416 -0.3582
 6249SOL    HW130806   8.686   6.924   9.315  0.2728  1.4844  0.0486
 6249SOL    HW230807   8.714   6.872   9.467  0.4836  0.9673 -0.1657
 6250SOL     OW30808   9.935   6.985   8.315  0.1961 -1.5023  0.5708
 6250SOL    HW130809   9.840   6.959   8.333  0.1548 -1.2345  0.7474
 6250SOL    HW230810   9.992   6.903   8.311 -0.4042 -1.8513 -1.7621
 6251SOL     OW30811   3.534   4.666   8.472 -0.2047  0.1804  0.2469
 6251SOL    HW130812   3.456   4.636   8.415  0.0076 -0.2082  0.1550
 6251SOL    HW230813   3.619   4.649   8.422  0.1613 -2.6848  1.7356
 6252SOL     OW30814   8.186   6.707   2.925  0.3035  0.4664 -0.0951
 6252SOL    HW130815   8.180   6.740   2.831 -0.5627 -0.2766 -0.3082
 6252SOL    HW230816   8.236   6.773   2.980 -0.2762  1.5113 -0.8022
 6253SOL     OW30817   2.219   1.081   4.470 -0.3925  0.2126 -0.1915
 6253SOL    HW130818   2.316   1.102   4.478 -0.4739  0.2444  0.7583
 6253SOL    HW230819   2.180   1.131   4.392 -0.1530  2.0320  0.8203
 6254SOL     OW30820   4.922   1.468   5.752  0.4819 -0.0537 -0.1568
 6254SOL    HW130821   4.874   1.555   5.769 -1.4773 -1.1229 -0.0798
 6254SOL    HW230822   4.936   1.420   5.838  2.5530  0.6501 -0.0641
 6255SOL     OW30823   8.079   8.480   8.288  0.2088 -1.5070 -0.3095
 6255SOL    HW130824   8.035   8.526   8.365  0.2123 -0.6560 -0.8171
 6255SOL    HW230825   8.157   8.427   8.321  0.9943 -0.1046  0.0932
 6256SOL     OW30826   2.761   8.804   1.584  0.4970 -0.3139  0.2927
 6256SOL    HW130827   2.726   8.732   1.644 -0.6103  0.4132  0.5374
 6256SOL    HW230828   2.847   8.774   1.542 -1.4355 -2.9480 -1.9200
 6257SOL     OW30829   2.461   2.452   4.202  0.3912  0.1337 -0.1021
 6257SOL    HW130830   2.391   2.496   4.257  0.4028 -0.4885  0.4237
 6257SOL    HW230831   2.538   2.426   4.260  0.2276 -0.8964 -0.3221
 6258SOL     OW30832   1.192   0.632   9.092 -0.0286  0.0869 -0.0761
 6258SOL    HW130833   1.274   0.655   9.040  0.6452  1.0216  1.3767
 6258SOL    HW230834   1.142   0.715   9.117 -1.0644 -0.4317 -0.3823
 6259SOL     OW30835   3.518   9.505   4.894 -0.2957 -0.3179  0.2333
 6259SOL    HW130836   3.564   9.423   4.860  0.5996  0.6278 -0.8639
 6259SOL    HW230837   3.456   9.479   4.968 -0.4702 -2.0633 -0.4885
 6260SOL     OW30838   2.344   8.293   1.505  0.1936 -0.1196  0.4039
 6260SOL    HW130839   2.344   8.193   1.513  1.6366 -0.0784  1.1616
 6260SOL    HW230840   2.439   8.326   1.501 -0.2234  1.3283  1.7776
 6261SOL     OW30841   2.846   4.912   4.268 -0.2407  0.8538  0.1525
 6261SOL    HW130842   2.766   4.968   4.245 -0.2652  1.1808  1.0228
 6261SOL    HW230843   2.852   4.901   4.367 -0.2934 -0.7820 -0.0107
 6262SOL     OW30844   2.035   6.082   3.892 -0.1579 -0.2520  0.4115
 6262SOL    HW130845   2.008   6.174   3.920 -0.0303  0.0740 -0.5192
 6262SOL    HW230846   2.067   6.084   3.797  2.6730 -0.6811  1.2857
 6263SOL     OW30847   5.398   5.213   2.961  0.1471  0.0838 -0.5463
 6263SOL    HW130848   5.487   5.237   2.922  0.2058 -0.0109 -0.4666
 6263SOL    HW230849   5.338   5.293   2.957  1.0740  0.9497  1.8475
 6264SOL     OW30850   9.617   3.344   1.490 -0.7256 -0.1471 -0.1165
 6264SOL    HW130851   9.559   3.326   1.411  0.3316 -0.3251 -0.8677
 6264SOL    HW230852   9.674   3.263   1.508  0.9853  0.8656 -0.8585
 6265SOL     OW30853   2.289   1.101   3.737  0.5808 -0.3538 -0.5376
 6265SOL    HW130854   2.304   1.002   3.729 -1.5246 -0.6496 -1.0911
 6265SOL    HW230855   2.373   1.145   3.768  1.1880 -2.4725  0.9243
 6266SOL     OW30856   4.320   7.673   6.773  0.3352 -0.0832 -0.4018
 6266SOL    HW130857   4.286   7.609   6.842 -1.5552  0.2937 -0.9491
 6266SOL    HW230858   4.338   7.762   6.816  1.5054 -0.5331  0.0605
 6267SOL     OW30859   7.192   1.570   0.389  0.1362 -0.1404 -0.4339
 6267SOL    HW130860   7.200   1.497   0.456  0.4347  1.0597  0.8648
 6267SOL    HW230861   7.103   1.565   0.344  0.9561 -2.5441 -1.8468
 6268SOL     OW30862   3.484   4.812   3.868 -0.0597 -0.0390  0.5099
 6268SOL    HW130863   3.541   4.861   3.933  1.3014 -2.6743  1.3847
 6268SOL    HW230864   3.414   4.760   3.918 -1.8183  1.3722 -0.4227
 6269SOL     OW30865   7.817   7.818   2.957  0.1056  0.0858  0.0431
 6269SOL    HW130866   7.865   7.796   3.042  2.3933 -0.5263 -1.3255
 6269SOL    HW230867   7.852   7.759   2.884 -0.7123  1.6450 -1.6479
 6270SOL     OW30868   9.409   5.556   1.021 -0.1078  0.4243  0.2939
 6270SOL    HW130869   9.383   5.605   0.939 -1.3710 -0.3248  0.2249
 6270SOL    HW230870   9.374   5.462   1.016  3.1739 -0.8286 -0.0611
 6271SOL     OW30871   8.193   0.054   5.498 -0.0176 -0.2321  0.2077
 6271SOL    HW130872   8.183   0.036   5.400  0.1670  1.4466 -0.1379
 6271SOL    HW230873   8.231   0.146   5.511 -1.5983  0.2164  1.8820
 6272SOL     OW30874   8.018   1.790   5.626  0.1090  0.0799 -0.0107
 6272SOL    HW130875   8.050   1.772   5.533  0.4165 -0.1068  0.1305
 6272SOL    HW230876   7.961   1.872   5.626 -1.3035 -0.8790 -0.6635
 6273SOL     OW30877   8.368   0.208   0.245  0.0920  0.1638 -0.0190
 6273SOL    HW130878   8.453   0.254   0.271  1.1933 -1.3163 -0.9032
 6273SOL    HW230879   8.307   0.274   0.201  0.8560  1.2076  0.4512
 6274SOL     OW30880   1.449   5.662   5.309  0.2656 -0.5022  0.1141
 6274SOL    HW130881   1.415   5.749   5.273  0.1566 -0.6915 -0.2454
 6274SOL    HW230882   1.373   5.609   5.346  0.2813 -0.6041 -0.0037
 6275SOL     OW30883   7.937   9.354   2.516 -0.1058  0.1609  0.0159
 6275SOL    HW130884   8.031   9.357   2.552 -0.3138 -3.3414  1.0992
 6275SOL    HW230885   7.873   9.340   2.592 -1.1273 -1.0947 -1.0485
 6276SOL     OW30886   5.386   9.294   2.889 -0.1487  0.6849 -0.3799
 6276SOL    HW130887   5.340   9.250   2.966  0.5630  2.2356  0.9536
 6276SOL    HW230888   5.380   9.235   2.809  1.1027 -2.0043  1.4401
 6277SOL     OW30889   7.438   4.600   1.846  0.0966 -0.2445 -0.4583
 6277SOL    HW130890   7.340   4.606   1.825  0.2540 -4.7964 -3.1017
 6277SOL    HW230891   7.486   4.673   1.798 -1.7666  0.8878 -0.6733
 6278SOL     OW30892   5.448   9.538   5.330  0.1350  0.2155 -0.4056
 6278SOL    HW130893   5.426   9.498   5.419  2.5121  0.2521  0.2370
 6278SOL    HW230894   5.411   9.631   5.325  0.2620  0.3331  0.6891
 6279SOL     OW30895   3.614   4.393   6.468  0.2567  0.4349  0.2697
 6279SOL    HW130896   3.583   4.440   6.551  0.7700  0.1650  0.6168
 6279SOL    HW230897   3.692   4.334   6.490  0.6995  0.7275 -0.4955
 6280SOL     OW30898   5.226   7.689   1.763 -0.2624 -0.2810 -0.1383
 6280SOL    HW130899   5.201   7.752   1.690 -0.3462  0.6266  0.6608
 6280SOL    HW230900   5.216   7.735   1.851 -2.3131 -2.0407  0.5969
 6281SOL     OW30901   2.474   8.533   6.887 -0.4376 -0.2008 -0.0807
 6281SOL    HW130902   2.393   8.491   6.928 -2.0121  2.4537 -0.3840
 6281SOL    HW230903   2.552   8.522   6.949 -1.9662  0.6635  2.0686
 6282SOL     OW30904   2.287   3.903   7.996 -0.2750  0.6767 -0.3170
 6282SOL    HW130905   2.306   3.865   8.087 -1.2312 -1.2769 -0.9166
 6282SOL    HW230906   2.372   3.936   7.956  0.2367  1.1276  1.0852
 6283SOL     OW30907   1.319   7.882   4.852 -0.9888  0.4121 -0.0230
 6283SOL    HW130908   1.270   7.952   4.801 -1.0536  0.4424  0.0818
 6283SOL    HW230909   1.319   7.904   4.949  0.2562  1.0305 -0.1524
 6284SOL     OW30910   1.968   8.164   3.183 -0.4116 -0.2206 -0.6303
 6284SOL    HW130911   2.003   8.106   3.257 -1.0592 -0.5130 -0.5498
 6284SOL    HW230912   1.881   8.204   3.210  0.1126  0.9252 -0.6290
 6285SOL     OW30913   7.130   9.430   9.285 -0.1224  0.0335  0.1618
 6285SOL    HW130914   7.129   9.340   9.241 -1.6885 -0.3552  0.9668
 6285SOL    HW230915   7.073   9.428   9.367 -0.9932  2.0202 -0.3565
 6286SOL     OW30916   0.562   3.636   4.901  0.0082 -0.2480  0.7451
 6286SOL    HW130917   0.606   3.555   4.862  2.3839  1.1525  0.4682
 6286SOL    HW230918   0.619   3.716   4.886 -2.9661  1.7682 -0.1823
 6287SOL     OW30919   6.081   3.828   0.787 -0.0318 -0.2572 -0.4920
 6287SOL    HW130920   6.056   3.760   0.857  0.2514  0.3130  0.1704
 6287SOL    HW230921   6.176   3.855   0.801 -0.1470  0.2771 -0.7510
 6288SOL     OW30922   6.894   4.468   1.808  0.7645 -0.6897 -0.4592
 6288SOL    HW130923   6.927   4.519   1.729  0.5657  0.7794  0.3815
 6288SOL    HW230924   6.868   4.375   1.780 -0.8512  0.3135 -2.4418
 6289SOL     OW30925   7.523   9.964   3.088 -0.4189  0.3351  0.3891
 6289SOL    HW130926   7.435   9.922   3.112 -0.7265  0.7609  0.0227
 6289SOL    HW230927   7.551   9.932   2.997  0.6969 -1.2035  1.2627
 6290SOL     OW30928   9.368   2.945   3.433  0.7420 -0.0445 -0.3214
 6290SOL    HW130929   9.334   2.904   3.349  1.7136 -1.0979 -0.2181
 6290SOL    HW230930   9.309   2.919   3.509  0.0545  0.6316 -0.6254
 6291SOL     OW30931   2.970   5.487   5.343 -0.2500  0.0405  0.1049
 6291SOL    HW130932   2.946   5.397   5.306  0.9131 -0.8066  1.3413
 6291SOL    HW230933   2.954   5.557   5.274 -0.0682 -1.2524 -1.2696
 6292SOL     OW30934   1.739   1.064   1.447 -0.1794 -0.4866  0.0293
 6292SOL    HW130935   1.812   0.999   1.466  0.0591 -0.0310  0.7074
 6292SOL    HW230936   1.700   1.097   1.534 -0.9903 -0.5070 -0.3220
 6293SOL     OW30937   1.838   4.037   6.276 -0.1868 -0.0017 -0.0879
 6293SOL    HW130938   1.808   3.955   6.226  2.6725 -1.2363  0.0960
 6293SOL    HW230939   1.817   4.026   6.374 -2.4037  0.7731 -0.4616
 6294SOL     OW30940   1.010   5.591   7.546 -0.3091 -0.3701 -0.0604
 6294SOL    HW130941   0.977   5.614   7.638  2.1603 -1.0789  1.0306
 6294SOL    HW230942   0.991   5.495   7.527 -2.9290  0.3429 -1.2551
 6295SOL     OW30943   1.795   7.717   3.947 -0.3238  0.9681  0.2042
 6295SOL    HW130944   1.741   7.723   3.863  1.5630 -0.9613 -1.2048
 6295SOL    HW230945   1.864   7.645   3.937 -0.1507  0.5952  3.4681
 6296SOL     OW30946   9.139   5.803   1.503 -0.2165  0.0641  0.4729
 6296SOL    HW130947   9.145   5.902   1.516 -0.2645  0.0769  0.3952
 6296SOL    HW230948   9.055   5.780   1.455 -0.8332 -0.1143  1.6094
 6297SOL     OW30949   5.866   5.140   2.777  0.5649 -0.2459  0.3799
 6297SOL    HW130950   5.815   5.193   2.710  1.6859  0.9242  0.4240
 6297SOL    HW230951   5.894   5.053   2.737  2.6167  1.1090 -1.2367
 6298SOL     OW30952   3.628   3.759   8.481  0.0888 -0.3765  0.5850
 6298SOL    HW130953   3.711   3.708   8.504  0.2476 -1.0347 -1.3831
 6298SOL    HW230954   3.548   3.709   8.515  0.2341 -2.0505 -1.4620
 6299SOL     OW30955   4.912   0.804   5.274 -0.1802  0.0658  0.6183
 6299SOL    HW130956   5.005   0.777   5.302 -0.3322 -1.4220 -0.2729
 6299SOL    HW230957   4.912   0.826   5.176 -0.7804  0.0474  0.6145
 6300SOL     OW30958   3.891   9.144   1.833  0.1519  0.0137 -0.2151
 6300SOL    HW130959   3.957   9.094   1.890  1.6357  1.8593 -0.3056
 6300SOL    HW230960   3.869   9.231   1.876 -1.5950 -0.1840 -0.6333
 6301SOL     OW30961   1.255   2.697   0.468  0.2183  0.0199 -0.0741
 6301SOL    HW130962   1.337   2.753   0.458 -1.6536  2.6284 -1.4363
 6301SOL    HW230963   1.190   2.745   0.527 -0.9250 -1.3427 -0.2114
 6302SOL     OW30964   3.640   5.654   3.749  0.2286 -0.2641  0.4446
 6302SOL    HW130965   3.632   5.555   3.741  0.0641 -0.2806  0.8234
 6302SOL    HW230966   3.549   5.695   3.753  0.2908 -0.0676 -0.0480
 6303SOL     OW30967   2.058   9.042   1.082 -0.6564 -0.1551  0.1112
 6303SOL    HW130968   2.081   9.094   1.165  0.1882  0.4026 -0.4661
 6303SOL    HW230969   2.077   8.945   1.097  0.0017  0.0111  0.4020
 6304SOL     OW30970   1.714   7.526   8.493  0.7327 -0.4160 -0.2700
 6304SOL    HW130971   1.775   7.586   8.545  1.9630 -0.3056 -1.8135
 6304SOL    HW230972   1.768   7.465   8.436 -0.5844 -1.1042 -0.7961
 6305SOL     OW30973   0.762   6.828   9.365 -0.0626 -0.7218 -0.5487
 6305SOL    HW130974   0.850   6.832   9.317 -1.2237 -0.4923 -2.6859
 6305SOL    HW230975   0.723   6.737   9.356 -1.1836 -0.1406 -1.6793
 6306SOL     OW30976   0.563   9.661   2.480  0.4666 -0.4985  0.1494
 6306SOL    HW130977   0.640   9.601   2.456  1.5172  1.1434 -0.6314
 6306SOL    HW230978   0.539   9.716   2.400  0.4178  1.1138  1.2694
 6307SOL     OW30979   8.135   3.845   9.678  0.1314 -0.5978 -0.1978
 6307SOL    HW130980   8.120   3.760   9.628  0.6029 -0.8105  0.0210
 6307SOL    HW230981   8.122   3.829   9.776  2.9274 -1.0817  0.1397
 6308SOL     OW30982   5.082   3.955   0.360  0.2629 -0.1532 -0.2497
 6308SOL    HW130983   5.140   3.967   0.280  0.1128 -1.7026 -0.6029
 6308SOL    HW230984   5.138   3.925   0.437 -0.1224 -2.1318 -0.7205
 6309SOL     OW30985   3.191   0.584   0.713 -0.2827  0.4702 -0.2104
 6309SOL    HW130986   3.270   0.625   0.759 -0.7316  1.6979 -0.5277
 6309SOL    HW230987   3.222   0.536   0.631  0.2253  0.2518  0.1010
 6310SOL     OW30988   1.048   2.815   0.930 -0.0239  0.1581 -0.4455
 6310SOL    HW130989   1.052   2.783   0.835  1.7866  1.3292 -0.7726
 6310SOL    HW230990   1.038   2.915   0.931 -0.5729  0.0988  0.6085
 6311SOL     OW30991   3.276   9.440   5.610  0.1435 -0.4774  0.1785
 6311SOL    HW130992   3.287   9.378   5.688 -2.5737  0.3499  1.2720
 6311SOL    HW230993   3.319   9.527   5.631 -0.4171 -0.3209  0.7004
 6312SOL     OW30994   8.309   3.542   6.079 -0.4654  0.0005 -0.3481
 6312SOL    HW130995   8.307   3.565   5.982  0.2624  1.2034 -0.0939
 6312SOL    HW230996   8.291   3.445   6.091 -2.8260  0.2376 -1.5361
 6313SOL     OW30997   0.509   0.966   5.807  0.4321  0.8241  0.1805
 6313SOL    HW130998   0.539   1.061   5.808 -0.1276  1.1105 -3.5586
 6313SOL    HW230999   0.498   0.935   5.713 -2.1035 -2.1019  1.3345
 6314SOL     OW31000   5.986   9.561   4.583 -0.6963  0.3315  0.0650
 6314SOL    HW131001   6.022   9.648   4.550 -1.5179  0.2137 -1.1615
 6314SOL    HW231002   6.054   9.517   4.642 -0.2256  1.7337  0.5884
 6315SOL     OW31003   9.351   6.819   0.735 -0.1455  0.2647  0.2053
 6315SOL    HW131004   9.410   6.810   0.655 -0.4504  1.6755 -0.1907
 6315SOL    HW231005   9.341   6.730   0.779 -0.4111 -0.6399 -1.6499
 6316SOL     OW31006   3.964   6.817   2.252  0.0436 -0.1765  0.0681
 6316SOL    HW131007   3.993   6.902   2.296  0.9987 -0.9557  0.9558
 6316SOL    HW231008   3.877   6.832   2.205  0.0523  1.2080  0.4813
 6317SOL     OW31009   1.272   5.901   0.366  0.0854 -0.1643  0.3988
 6317SOL    HW131010   1.262   5.802   0.375 -1.3247  0.1112  2.2096
 6317SOL    HW231011   1.210   5.947   0.430  0.4489  1.8979 -0.6754
 6318SOL     OW31012   6.399   1.021   1.705 -0.0229  0.1045  0.4404
 6318SOL    HW131013   6.379   1.115   1.676 -1.6561 -0.5319 -0.5336
 6318SOL    HW231014   6.331   0.959   1.667  0.9249 -1.4639  1.2553
 6319SOL     OW31015   4.111   5.917   7.486  0.5346  0.1085  0.1297
 6319SOL    HW131016   4.067   5.859   7.555  0.1597 -1.1004 -1.0923
 6319SOL    HW231017   4.207   5.893   7.479  1.3967  2.5601  2.6011
 6320SOL     OW31018   5.154   8.846   7.112  0.2397 -0.9233  0.1827
 6320SOL    HW131019   5.088   8.771   7.113 -1.2228  0.3138  2.4023
 6320SOL    HW231020   5.219   8.833   7.037 -1.9011 -2.7190 -1.4258
 6321SOL     OW31021   7.273   2.590   1.441 -0.1596  0.0251 -0.0135
 6321SOL    HW131022   7.262   2.538   1.525  1.3797  0.3943  0.4431
 6321SOL    HW231023   7.264   2.530   1.362 -1.6728 -0.3120  0.4103
 6322SOL     OW31024   5.894   2.638   1.817  0.1645 -0.0529 -0.1491
 6322SOL    HW131025   5.818   2.581   1.847  0.9679 -1.1630 -0.1660
 6322SOL    HW231026   5.978   2.607   1.862  0.3809  2.0373  0.9448
 6323SOL     OW31027   3.270   6.231   1.400  0.1587 -0.1803 -0.2647
 6323SOL    HW131028   3.208   6.196   1.330 -0.7103 -0.9630  0.8737
 6323SOL    HW231029   3.354   6.266   1.357 -0.0554 -1.3232 -1.6233
 6324SOL     OW31030   6.570   7.727   5.100  0.0541 -0.1798 -0.2035
 6324SOL    HW131031   6.655   7.700   5.144  0.3424 -0.5434 -0.9729
 6324SOL    HW231032   6.499   7.740   5.169  0.3967 -1.0997  0.3319
 6325SOL     OW31033   0.605   8.075   7.435 -0.1041  0.2971  0.7205
 6325SOL    HW131034   0.590   8.135   7.357  1.4480  1.5382  1.3585
 6325SOL    HW231035   0.599   7.979   7.405 -2.1385  0.7291 -0.3825
 6326SOL     OW31036   8.739   2.176   7.632  0.0457 -0.6696  0.2614
 6326SOL    HW131037   8.721   2.254   7.571  1.9622 -1.2548 -1.0779
 6326SOL    HW231038   8.764   2.210   7.722  0.4068  0.2717 -0.1861
 6327SOL     OW31039   6.380   1.437   1.290  0.3743  0.2654  0.1077
 6327SOL    HW131040   6.429   1.410   1.207 -0.1429 -3.7154  0.9984
 6327SOL    HW231041   6.281   1.435   1.272  0.3230  1.3341  0.2679
 6328SOL     OW31042   2.670   4.378   9.011 -0.6737 -0.4963  0.6877
 6328SOL    HW131043   2.718   4.351   8.927 -1.2057  0.7164 -0.0193
 6328SOL    HW231044   2.699   4.470   9.038 -1.0738 -0.5804  1.4154
 6329SOL     OW31045   9.937   9.676   2.685  0.2012  0.0391 -0.1369
 6329SOL    HW131046   9.970   9.583   2.696 -1.4980 -0.4671  0.8933
 6329SOL    HW231047   9.899   9.709   2.772 -0.9889  0.9683 -0.9805
 6330SOL     OW31048   7.658   0.484   8.862 -0.4618  0.3708  1.2797
 6330SOL    HW131049   7.607   0.456   8.781 -1.2047  0.6272  1.6530
 6330SOL    HW231050   7.711   0.566   8.841 -0.1132  0.0418  0.8586
 6331SOL     OW31051   8.956   8.627   7.266  0.0803  0.2386  0.1196
 6331SOL    HW131052   8.927   8.720   7.244  0.3366  0.5166  0.9374
 6331SOL    HW231053   9.010   8.628   7.350  0.3866 -0.6018 -0.0659
 6332SOL     OW31054   8.609   7.064   5.570 -0.6692 -0.9578  0.2998
 6332SOL    HW131055   8.550   7.049   5.490 -0.3794  0.9798 -0.2929
 6332SOL    HW231056   8.569   7.134   5.629  0.7004 -0.1083  0.2366
 6333SOL     OW31057   5.131   2.765   9.494  0.2338  0.2570  0.1503
 6333SOL    HW131058   5.198   2.730   9.559 -0.5779 -1.1671  0.2468
 6333SOL    HW231059   5.082   2.842   9.535  2.1808  1.6893 -0.1457
 6334SOL     OW31060   4.111   4.068   5.047 -0.1897 -0.1475  0.3309
 6334SOL    HW131061   4.100   3.969   5.037 -1.1299 -0.1142  0.9370
 6334SOL    HW231062   4.119   4.110   4.957  0.7993 -0.8327  0.0843
 6335SOL     OW31063   5.327   8.308   8.768 -0.1816  0.3622  0.2786
 6335SOL    HW131064   5.378   8.302   8.854 -2.0169 -0.0001  1.3427
 6335SOL    HW231065   5.270   8.390   8.769 -1.7714 -0.7347  0.2609
 6336SOL     OW31066   7.742   9.360   7.591  0.2869  0.1706  0.3843
 6336SOL    HW131067   7.791   9.324   7.670 -0.7952 -0.4987  0.7576
 6336SOL    HW231068   7.659   9.306   7.575 -0.4499  1.4138 -0.1054
 6337SOL     OW31069   2.458   1.890   4.834 -0.3430 -0.4081 -0.5753
 6337SOL    HW131070   2.455   1.882   4.735 -2.4608  2.0674 -0.7549
 6337SOL    HW231071   2.529   1.957   4.861 -0.7205 -0.0390 -0.4956
 6338SOL     OW31072   1.641   7.657   1.673  0.3065  0.2552 -0.0590
 6338SOL    HW131073   1.644   7.713   1.757 -1.8183  1.1348 -0.5447
 6338SOL    HW231074   1.597   7.570   1.693  1.3158 -0.2265  0.1059
 6339SOL     OW31075   9.691   1.915   8.584 -0.0337 -0.1586  0.8372
 6339SOL    HW131076   9.644   1.982   8.527 -1.1825 -1.3655  0.3585
 6339SOL    HW231077   9.789   1.918   8.564 -0.0252  1.5663  1.0320
 6340SOL     OW31078   1.092   6.181   8.885 -0.3403  0.0515 -0.2477
 6340SOL    HW131079   1.094   6.087   8.850  2.3275  0.4528 -1.3550
 6340SOL    HW231080   1.052   6.242   8.816 -2.5725 -0.3288  0.6867
 6341SOL     OW31081   9.409   0.023   6.999  0.2499 -0.1141  0.2367
 6341SOL    HW131082   9.453  -0.064   6.975  1.1022  0.0092  1.3431
 6341SOL    HW231083   9.388   0.024   7.096  2.3859  1.8366  0.7099
 6342SOL     OW31084   9.162   5.920   9.093  0.1241 -0.1253 -0.0990
 6342SOL    HW131085   9.195   5.832   9.059 -0.4753 -0.5391  0.3749
 6342SOL    HW231086   9.126   5.908   9.186 -1.5279  0.2758 -0.6775
 6343SOL     OW31087   1.840   1.789   8.795 -0.4009  0.0458 -0.2597
 6343SOL    HW131088   1.890   1.722   8.739 -0.7111 -0.3508 -0.0663
 6343SOL    HW231089   1.882   1.879   8.784  0.3697 -0.2863 -0.0825
 6344SOL     OW31090   1.515   4.317   7.024 -0.3039  0.6372 -0.5991
 6344SOL    HW131091   1.584   4.278   7.085  1.0931 -0.1020 -2.5823
 6344SOL    HW231092   1.556   4.336   6.935 -2.5835  0.5363 -1.7197
 6345SOL     OW31093   3.816   0.094   8.308  0.1975 -0.1096 -0.0783
 6345SOL    HW131094   3.808   0.035   8.229 -0.3361 -0.5722  0.3149
 6345SOL    HW231095   3.911   0.097   8.339  0.3844 -0.0189 -0.6572
 6346SOL     OW31096   5.555   3.154   2.796  0.3510 -0.4032  0.1041
 6346SOL    HW131097   5.466   3.187   2.764  0.0687 -0.0404  1.2309
 6346SOL    HW231098   5.541   3.074   2.855  0.6649  0.3950  1.2850
 6347SOL     OW31099   6.995   4.526   2.254 -0.3501 -0.3661  0.1188
 6347SOL    HW131100   6.949   4.535   2.342  1.8294 -1.4666  1.4128
 6347SOL    HW231101   7.074   4.588   2.251  1.1369 -2.2214 -0.0006
 6348SOL     OW31102   5.128   8.504   8.667 -0.0410 -0.6676  0.2237
 6348SOL    HW131103   5.088   8.412   8.670 -0.4892 -0.4960 -0.3448
 6348SOL    HW231104   5.132   8.534   8.572 -2.5125  1.0393  0.6147
 6349SOL     OW31105   3.976   7.381   4.395  0.0251  0.3618  0.4977
 6349SOL    HW131106   4.019   7.398   4.484 -0.8249  1.5711  0.6985
 6349SOL    HW231107   3.953   7.284   4.387 -2.2480  0.6586  2.7143
 6350SOL     OW31108   4.340   6.178   3.847  0.1423 -0.3612 -0.0907
 6350SOL    HW131109   4.388   6.213   3.928  1.3414  0.6647 -1.2026
 6350SOL    HW231110   4.379   6.090   3.820  0.7092 -0.0394 -0.3510
 6351SOL     OW31111   8.757   3.426   2.489  0.1405  0.2837  0.2602
 6351SOL    HW131112   8.755   3.428   2.389  0.3889  1.3194  0.2774
 6351SOL    HW231113   8.766   3.331   2.520 -0.1761 -0.0610 -0.6923
 6352SOL     OW31114   8.203   2.557   8.959 -0.0831  0.4175 -0.3301
 6352SOL    HW131115   8.147   2.639   8.974 -1.6666 -0.4548 -1.2479
 6352SOL    HW231116   8.176   2.486   9.024  0.0137  0.0161 -0.7288
 6353SOL     OW31117   9.687   6.288   4.722  0.1540  0.1831 -0.0824
 6353SOL    HW131118   9.757   6.312   4.789 -0.9088 -0.2081  1.1690
 6353SOL    HW231119   9.615   6.235   4.765  0.1371 -1.2857 -1.8348
 6354SOL     OW31120   0.849   7.382   3.330  0.2691  0.5883 -0.3046
 6354SOL    HW131121   0.897   7.468   3.313  0.3502  0.9436  1.5554
 6354SOL    HW231122   0.822   7.378   3.426 -0.5562 -1.0603 -0.5886
 6355SOL     OW31123   9.292   7.880   6.329  0.4214  0.3861  0.3381
 6355SOL    HW131124   9.361   7.928   6.274  1.1533 -1.9077 -0.8214
 6355SOL    HW231125   9.285   7.786   6.298 -0.5631 -0.4435  2.9462
 6356SOL     OW31126   0.870   7.424   0.387 -0.1223  0.2545  0.3443
 6356SOL    HW131127   0.792   7.475   0.425 -0.0066  0.4780  0.2818
 6356SOL    HW231128   0.836   7.342   0.341 -0.3551  0.5558 -0.0258
 6357SOL     OW31129   4.286   7.275   6.232  0.2867  0.4527 -0.0280
 6357SOL    HW131130   4.219   7.204   6.251  2.2911 -1.0034  1.8520
 6357SOL    HW231131   4.279   7.347   6.301  0.2869  0.5524 -0.1325
 6358SOL     OW31132   1.957   7.447   7.301  0.6161 -0.1355  0.1314
 6358SOL    HW131133   1.905   7.479   7.222  0.6653  1.0438  0.5601
 6358SOL    HW231134   1.938   7.506   7.380  0.4875 -1.3564  1.0282
 6359SOL     OW31135   4.251   5.021   0.097 -0.1257 -0.6312  0.0422
 6359SOL    HW131136   4.306   4.938   0.100 -0.7725 -1.0393  2.3350
 6359SOL    HW231137   4.301   5.096   0.140  0.6992  0.3294 -2.5731
 6360SOL     OW31138   0.109   1.222   7.597  0.2021 -0.1642  0.0676
 6360SOL    HW131139   0.056   1.273   7.528  0.2705  1.6167  1.2867
 6360SOL    HW231140   0.159   1.147   7.552 -1.4342 -0.3679 -1.4724
 6361SOL     OW31141   1.287   8.913   0.618  0.0501  0.0992  0.1605
 6361SOL    HW131142   1.353   8.842   0.594 -0.9105 -0.0625 -2.1535
 6361SOL    HW231143   1.334   9.002   0.622  0.7812 -0.2991  0.6160
 6362SOL     OW31144   3.854   7.882   0.281 -0.4528  0.2524 -0.4894
 6362SOL    HW131145   3.951   7.901   0.264 -0.3062  1.2397  1.3190
 6362SOL    HW231146   3.846   7.829   0.366 -1.5638  1.0550 -0.0898
 6363SOL     OW31147   7.063   9.538   8.269 -0.4245 -0.1284 -0.4186
 6363SOL    HW131148   7.039   9.455   8.319  0.2096 -0.6140 -0.9145
 6363SOL    HW231149   6.985   9.568   8.214 -0.3665 -0.9132 -0.9432
 6364SOL     OW31150   1.712   1.831   5.536 -0.9321  0.1790  0.5069
 6364SOL    HW131151   1.721   1.931   5.539  1.5709 -0.0588  2.0055
 6364SOL    HW231152   1.720   1.794   5.628 -1.2223 -1.4756 -0.1151
 6365SOL     OW31153   2.999   7.766   4.174  0.0535 -0.0065 -0.2280
 6365SOL    HW131154   2.979   7.670   4.192 -0.7234  0.0481 -0.7656
 6365SOL    HW231155   3.085   7.773   4.124 -0.4324 -0.4941 -1.1378
 6366SOL     OW31156   0.192   3.609   5.653  0.0623 -0.1820 -0.0388
 6366SOL    HW131157   0.108   3.560   5.630 -0.2021 -0.2787  1.1019
 6366SOL    HW231158   0.171   3.685   5.713  0.7031  0.2411 -0.3432
 6367SOL     OW31159   5.364   3.822   1.096 -0.8076  0.2470  0.1502
 6367SOL    HW131160   5.315   3.909   1.091 -1.2602 -0.0137  0.0040
 6367SOL    HW231161   5.375   3.796   1.192 -0.6686  0.4696  0.1941
 6368SOL     OW31162   1.719   2.017   2.237 -0.2059  0.5372 -0.1232
 6368SOL    HW131163   1.677   1.945   2.182 -1.0815  1.3632 -0.5474
 6368SOL    HW231164   1.675   2.020   2.327 -1.5556  1.8714 -0.8168
 6369SOL     OW31165   7.262   1.332   3.279 -0.0010 -0.0308  0.2999
 6369SOL    HW131166   7.178   1.363   3.325  1.0753  1.0249  1.5900
 6369SOL    HW231167   7.341   1.361   3.332  1.1599 -2.0311 -0.2937
 6370SOL     OW31168   7.157   6.335   4.958 -0.5163 -0.3394 -0.4611
 6370SOL    HW131169   7.236   6.375   4.914 -0.4694  0.9053  0.7178
 6370SOL    HW231170   7.077   6.393   4.943 -0.9734 -1.0233 -0.7242
 6371SOL     OW31171   7.117   1.298   6.118 -0.2334  0.7928  0.1569
 6371SOL    HW131172   7.131   1.231   6.191 -1.5133 -0.1454 -0.4302
 6371SOL    HW231173   7.202   1.349   6.103  0.4369  0.0633  1.3678
 6372SOL     OW31174   2.703   4.309   0.331  0.2008  0.2602  0.5974
 6372SOL    HW131175   2.801   4.293   0.334  0.3219  0.1887 -2.1899
 6372SOL    HW231176   2.655   4.224   0.311 -0.2023  0.7706 -0.6865
 6373SOL     OW31177   2.959   0.233   7.490  0.4957 -0.1267  0.1533
 6373SOL    HW131178   3.050   0.275   7.486  1.1263 -1.4553  0.3879
 6373SOL    HW231179   2.956   0.153   7.430  0.5727 -2.1364  2.7195
 6374SOL     OW31180   5.442   9.322   9.418  0.5030 -0.1313  0.0747
 6374SOL    HW131181   5.388   9.257   9.472 -0.5994  1.2089  0.6209
 6374SOL    HW231182   5.420   9.310   9.321 -0.4428  0.0971  0.2546
 6375SOL     OW31183   7.007   5.832   7.520  0.3691  0.1040  0.6168
 6375SOL    HW131184   7.020   5.765   7.447  0.3061 -0.7167  1.3484
 6375SOL    HW231185   6.991   5.922   7.480  1.3287 -0.1554 -0.3581
 6376SOL     OW31186   0.138   9.999   1.668  0.1646  0.0167  0.7514
 6376SOL    HW131187   0.123   9.942   1.587 -1.7084  0.8494  0.4759
 6376SOL    HW231188   0.145  10.095   1.640 -0.2061  0.2794  1.5579
 6377SOL     OW31189   8.756   0.718   6.645 -0.1263 -0.1104 -0.3196
 6377SOL    HW131190   8.709   0.665   6.716 -0.3626  0.3018 -0.1656
 6377SOL    HW231191   8.766   0.812   6.676 -0.7215  0.2004 -1.0630
 6378SOL     OW31192   0.271   7.848   6.371 -0.9778  0.1107  0.1067
 6378SOL    HW131193   0.325   7.792   6.434 -1.4410 -1.1041 -0.5599
 6378SOL    HW231194   0.174   7.839   6.394 -1.0930  0.2268 -0.3270
 6379SOL     OW31195   4.772   3.168   6.309 -0.4464 -0.5567  0.0175
 6379SOL    HW131196   4.773   3.095   6.241 -1.1269  1.2806 -2.0117
 6379SOL    HW231197   4.866   3.193   6.333 -0.2065 -1.0380 -0.4242
 6380SOL     OW31198   1.948   2.266   6.018  0.3494  0.2884 -0.2126
 6380SOL    HW131199   2.011   2.250   5.943  0.3113  0.5700 -0.3076
 6380SOL    HW231200   1.858   2.228   5.996  0.4715 -0.0602 -0.1025
 6381SOL     OW31201   7.722   0.784   4.221 -0.6289  0.4278 -0.2075
 6381SOL    HW131202   7.680   0.770   4.311 -0.4462  2.7887  0.2758
 6381SOL    HW231203   7.711   0.702   4.166 -0.7904 -1.0472  1.9645
 6382SOL     OW31204   6.802   2.673   9.595  0.3570 -0.0091  0.5150
 6382SOL    HW131205   6.883   2.628   9.631  2.1767  2.9480  0.3265
 6382SOL    HW231206   6.749   2.713   9.670 -0.0539 -0.5286  0.5050
 6383SOL     OW31207   1.612   7.218   8.194 -0.0889  0.4930 -0.0790
 6383SOL    HW131208   1.608   7.228   8.095 -0.1603  2.6876  0.1322
 6383SOL    HW231209   1.564   7.134   8.221 -0.4922  0.1466 -1.8401
 6384SOL     OW31210   3.265   0.727   7.704  0.4627  0.2692 -0.2340
 6384SOL    HW131211   3.247   0.704   7.799  0.7778  0.8019 -0.0449
 6384SOL    HW231212   3.314   0.814   7.699  2.0761 -0.6572 -0.7925
 6385SOL     OW31213   7.703   9.877   7.057  0.2033  0.2617  0.4870
 6385SOL    HW131214   7.692   9.940   6.980 -0.9426 -0.6773 -0.1548
 6385SOL    HW231215   7.786   9.823   7.044  1.1444  1.5732  1.0040
 6386SOL     OW31216   9.590   0.831   5.455 -0.2032 -0.7246 -0.1002
 6386SOL    HW131217   9.647   0.775   5.514 -0.4767  0.8872  1.7724
 6386SOL    HW231218   9.516   0.776   5.417  0.8422 -2.1261 -0.1236
 6387SOL     OW31219   3.410   8.341   9.102 -0.2845  0.2114  0.3807
 6387SOL    HW131220   3.417   8.429   9.149  2.1004 -0.4775  1.4147
 6387SOL    HW231221   3.396   8.356   9.004  1.4193  1.7763  0.3476
 6388SOL     OW31222   2.740   5.563   5.489  0.2975 -0.1276 -0.1263
 6388SOL    HW131223   2.828   5.534   5.451 -0.1745 -1.6065 -0.0996
 6388SOL    HW231224   2.754   5.643   5.548  1.7834 -0.9643  0.6909
 6389SOL     OW31225   1.896   7.616   1.312 -0.8467  0.3533  0.1900
 6389SOL    HW131226   1.995   7.620   1.318 -0.9013  0.4508  1.1732
 6389SOL    HW231227   1.862   7.539   1.366 -1.2093 -0.6654 -1.4579
 6390SOL     OW31228   9.049   1.434   4.122 -0.2274 -0.7739  0.2163
 6390SOL    HW131229   9.084   1.403   4.210  1.3337 -0.7424 -0.3743
 6390SOL    HW231230   9.053   1.358   4.057  0.5424 -0.2526 -0.3592
 6391SOL     OW31231   1.680   9.481   1.289  0.3729  0.2423  0.7781
 6391SOL    HW131232   1.724   9.412   1.232 -0.4785 -0.4929  0.9997
 6391SOL    HW231233   1.739   9.503   1.367  0.8831  0.1679  0.4145
 6392SOL     OW31234   6.531   8.830   7.556 -0.8863  0.1558  0.1341
 6392SOL    HW131235   6.486   8.864   7.639  0.8634  0.5079  0.9633
 6392SOL    HW231236   6.563   8.908   7.502 -0.1209 -0.0962  0.2144
 6393SOL     OW31237   4.268   5.755   1.622  0.0162 -0.3565 -0.7808
 6393SOL    HW131238   4.191   5.788   1.677 -0.8935 -1.6385 -1.2543
 6393SOL    HW231239   4.332   5.705   1.679  0.3966  0.5285 -0.4245
 6394SOL     OW31240   3.827   9.783   3.112 -0.0593 -0.0121 -0.0281
 6394SOL    HW131241   3.859   9.763   3.204 -1.6300 -0.9805  0.3441
 6394SOL    HW231242   3.886   9.738   3.045  0.5850 -0.0105  0.5364
 6395SOL     OW31243   2.144   7.901   8.169 -0.0972  0.4242 -0.8978
 6395SOL    HW131244   2.201   7.932   8.094 -0.1179  0.3577 -0.9420
 6395SOL    HW231245   2.191   7.918   8.256 -0.0069  0.3603 -0.9339
 6396SOL     OW31246   2.678   9.648   7.465  0.0778 -0.0688  0.4558
 6396SOL    HW131247   2.580   9.665   7.457  0.2704  0.5343 -0.8119
 6396SOL    HW231248   2.708   9.666   7.558 -1.2270 -1.3694  1.1414
 6397SOL     OW31249   8.308   1.118   9.975  0.3187 -0.2062 -0.0256
 6397SOL    HW131250   8.274   1.028   9.949 -0.4161  0.0617  0.0175
 6397SOL    HW231251   8.408   1.119   9.968  0.4716 -1.5721  1.6515
 6398SOL     OW31252   2.486   4.919   6.567 -0.0498  0.6014  0.2537
 6398SOL    HW131253   2.581   4.909   6.597  0.2210  0.8346 -0.5246
 6398SOL    HW231254   2.463   5.016   6.559 -0.8561  0.5705  2.0077
 6399SOL     OW31255   2.897   5.240   6.400 -0.3261  0.2842 -0.0678
 6399SOL    HW131256   2.990   5.243   6.365  0.4263 -0.3862  1.7910
 6399SOL    HW231257   2.850   5.160   6.363 -0.3167  0.8559 -1.3395
 6400SOL     OW31258   4.100   6.264   3.919  0.0853  0.2480 -0.1854
 6400SOL    HW131259   4.092   6.364   3.924  0.9085  0.2951  0.1888
 6400SOL    HW231260   4.184   6.240   3.871  0.3615 -0.2750  0.5597
 6401SOL     OW31261   0.935   4.508   7.170 -0.5200 -0.2807  0.3127
 6401SOL    HW131262   0.838   4.532   7.173 -0.5680 -0.4772  0.3395
 6401SOL    HW231263   0.947   4.414   7.201 -0.2972 -0.1883  0.5021
 6402SOL     OW31264   5.569   2.693   9.492 -0.0852 -0.4121  0.5225
 6402SOL    HW131265   5.584   2.640   9.408 -0.5168  1.3576 -0.6859
 6402SOL    HW231266   5.656   2.707   9.538  0.1077 -1.7021  0.5855
 6403SOL     OW31267   6.755   7.066   5.146 -0.2029  0.7960 -0.0589
 6403SOL    HW131268   6.709   7.044   5.232 -1.3101  1.4530 -0.4767
 6403SOL    HW231269   6.725   7.156   5.114  0.0664  0.4798 -1.2341
 6404SOL     OW31270   5.102   5.404   9.215  0.0978 -0.0271  0.9453
 6404SOL    HW131271   5.194   5.429   9.244  0.0231  2.1975 -0.5886
 6404SOL    HW231272   5.107   5.353   9.129 -0.1013  0.5203  0.6010
 6405SOL     OW31273   2.273   5.519   3.622 -0.1037 -0.2536 -0.2332
 6405SOL    HW131274   2.193   5.486   3.571 -0.1175 -1.0798  0.3130
 6405SOL    HW231275   2.242   5.571   3.702 -0.1409 -2.1646  1.0339
 6406SOL     OW31276   2.789   7.069   6.167  0.0629  0.3895 -0.0709
 6406SOL    HW131277   2.799   7.168   6.158 -0.5927  0.4600 -0.0698
 6406SOL    HW231278   2.695   7.043   6.143  0.1366 -0.1911  0.2679
 6407SOL     OW31279   9.620   5.853   5.726  0.0694  0.3524 -0.0055
 6407SOL    HW131280   9.580   5.775   5.678 -0.4960 -0.6658  2.0597
 6407SOL    HW231281   9.717   5.861   5.702 -0.4585  0.5674 -2.1737
 6408SOL     OW31282   6.309   1.984   2.466 -0.6764 -0.7917 -0.2106
 6408SOL    HW131283   6.408   1.970   2.470 -1.1248 -3.8694  1.7864
 6408SOL    HW231284   6.280   1.986   2.370  1.2881  0.0604 -0.8151
 6409SOL     OW31285   3.979   0.870   9.840  0.1615 -0.1493 -0.1671
 6409SOL    HW131286   4.059   0.922   9.808  1.8082 -1.4775  1.6083
 6409SOL    HW231287   3.988   0.855   9.938 -2.0024 -0.8717 -0.0725
 6410SOL     OW31288   2.868   1.647   6.148 -0.5934  0.1291 -0.2123
 6410SOL    HW131289   2.885   1.668   6.244  0.6577  0.7048 -0.5563
 6410SOL    HW231290   2.906   1.720   6.090 -0.5774 -0.6358 -1.1813
 6411SOL     OW31291   4.541   4.532   0.849 -0.5541 -0.0840  0.0700
 6411SOL    HW131292   4.625   4.580   0.877 -1.1592  0.9036  0.2056
 6411SOL    HW231293   4.462   4.580   0.885 -1.1537 -1.5795  0.7630
 6412SOL     OW31294   3.203   4.660   3.149  0.2234  0.2657  0.0318
 6412SOL    HW131295   3.113   4.662   3.106 -0.1067  0.2326  0.7162
 6412SOL    HW231296   3.265   4.604   3.094  0.0234  0.8598 -0.8131
 6413SOL     OW31297   5.342   2.401   8.753 -0.2442  0.3767  0.1926
 6413SOL    HW131298   5.325   2.429   8.658 -1.3720  0.8491  0.5221
 6413SOL    HW231299   5.432   2.358   8.760  0.0335  0.7510 -1.0042
 6414SOL     OW31300   6.240   4.265   2.133  0.4134  0.3061  0.7203
 6414SOL    HW131301   6.230   4.318   2.218  1.1351 -0.2509  1.1625
 6414SOL    HW231302   6.278   4.323   2.061 -1.4380  1.1419  0.3936
 6415SOL     OW31303   3.043   5.432   2.404  0.8265 -0.1975 -0.5042
 6415SOL    HW131304   3.022   5.481   2.489 -0.4989  1.0477 -1.5356
 6415SOL    HW231305   3.025   5.334   2.418  0.3313  0.0312  0.5663
 6416SOL     OW31306   7.520   4.514   0.256  0.6633 -0.5954  0.1339
 6416SOL    HW131307   7.487   4.608   0.250 -0.3918 -0.8644  1.4563
 6416SOL    HW231308   7.580   4.504   0.336  2.0417 -0.6881 -0.8886
 6417SOL     OW31309   8.306   5.441   4.765 -0.4157 -0.0550  0.7071
 6417SOL    HW131310   8.376   5.369   4.769 -0.6666 -0.3793 -0.5388
 6417SOL    HW231311   8.233   5.419   4.830  0.1971 -0.1684  1.3778
 6418SOL     OW31312   1.477   4.843   8.972 -0.1636  0.0728  0.0586
 6418SOL    HW131313   1.394   4.877   8.929 -1.1303 -1.4425  0.6568
 6418SOL    HW231314   1.539   4.919   8.991 -1.4714  1.2388 -0.2695
 6419SOL     OW31315   5.138   0.080   9.346  0.5249 -1.0992 -0.0979
 6419SOL    HW131316   5.103   0.170   9.368 -1.4619 -1.3318 -2.1501
 6419SOL    HW231317   5.083   0.010   9.392  2.9950 -1.2844  2.7349
 6420SOL     OW31318   4.679   9.859   2.464  0.1454  0.3693 -0.1804
 6420SOL    HW131319   4.779   9.852   2.462  0.2175  1.2622  0.1318
 6420SOL    HW231320   4.646   9.898   2.379  0.0048 -0.5308 -0.5473
 6421SOL     OW31321   1.419   0.121   2.521 -0.2190 -0.6995  0.4000
 6421SOL    HW131322   1.416   0.220   2.532  0.0459 -0.6586  0.1143
 6421SOL    HW231323   1.337   0.080   2.561  0.4304 -0.4996  1.9852
 6422SOL     OW31324   7.894   2.644   7.980  0.1549  0.3151 -0.0409
 6422SOL    HW131325   7.925   2.604   8.066  1.1903  0.4828 -0.3189
 6422SOL    HW231326   7.936   2.594   7.904  0.8402  1.4399 -0.4048
 6423SOL     OW31327   0.192   8.222   0.307  0.5989  0.1371 -0.0628
 6423SOL    HW131328   0.197   8.134   0.258 -1.0646 -0.4259  0.7274
 6423SOL    HW231329   0.120   8.217   0.376  0.5729  2.0997  0.0797
 6424SOL     OW31330   0.263   5.090   9.903 -0.1682  0.4539 -0.3825
 6424SOL    HW131331   0.282   4.992   9.893 -3.0390 -0.0659 -1.2166
 6424SOL    HW231332   0.237   5.109   9.998  0.5255  0.4339 -0.1874
 6425SOL     OW31333   2.214   2.874   9.424 -0.3221  0.0017 -0.2669
 6425SOL    HW131334   2.264   2.907   9.344 -0.0676 -3.1495 -1.4638
 6425SOL    HW231335   2.272   2.814   9.478 -1.7243 -1.0403  0.1230
 6426SOL     OW31336   6.485   9.888   2.668 -0.1506  0.1116 -0.5743
 6426SOL    HW131337   6.484   9.986   2.691 -1.3502  0.3806 -1.7445
 6426SOL    HW231338   6.400   9.845   2.699  0.3009 -0.5360 -0.2132
 6427SOL     OW31339   8.132   1.769   4.152  0.1152 -0.0837 -0.0992
 6427SOL    HW131340   8.197   1.709   4.198 -1.9749 -1.0372  1.7160
 6427SOL    HW231341   8.180   1.826   4.086  2.7942 -0.6264  1.3206
 6428SOL     OW31342   1.443   3.579   2.479  0.1406 -0.2442 -0.1605
 6428SOL    HW131343   1.371   3.512   2.461 -1.0770  0.4968  1.7773
 6428SOL    HW231344   1.436   3.654   2.414 -0.9622 -0.0927  0.1264
 6429SOL     OW31345   7.419   5.294   7.237 -0.5809  0.0217  0.0661
 6429SOL    HW131346   7.350   5.313   7.307 -0.9321  0.1519 -0.3141
 6429SOL    HW231347   7.381   5.231   7.169  0.0677 -0.8607  0.4938
 6430SOL     OW31348   2.978   0.620   5.653  0.6669 -0.1233  0.7129
 6430SOL    HW131349   3.001   0.655   5.563  0.1011  2.3949  1.5115
 6430SOL    HW231350   2.944   0.526   5.645  1.2838 -0.1636 -1.5907
 6431SOL     OW31351   7.272   7.139   7.872  0.2562 -0.1954  0.2659
 6431SOL    HW131352   7.269   7.149   7.773  0.0511  1.2579  0.4097
 6431SOL    HW231353   7.179   7.142   7.909  0.3971  0.3385  0.5910
 6432SOL     OW31354   9.806   9.032   5.079  0.7422 -0.8439  0.6500
 6432SOL    HW131355   9.882   9.047   5.016  1.4699 -0.3342  1.6226
 6432SOL    HW231356   9.754   8.951   5.051  0.7941 -0.3763 -0.8403
 6433SOL     OW31357   9.756   0.649   0.250 -0.4884 -0.4790  0.6439
 6433SOL    HW131358   9.753   0.727   0.188 -0.0768 -1.0963 -0.1559
 6433SOL    HW231359   9.826   0.664   0.319  0.2910 -0.5920 -0.1200
 6434SOL     OW31360   8.139   0.989   6.431 -0.6184  0.5505 -0.3307
 6434SOL    HW131361   8.236   1.006   6.450 -0.3129 -2.3869  0.9658
 6434SOL    HW231362   8.099   1.071   6.391  1.3602  3.3267  3.0212
 6435SOL     OW31363   3.921   6.054   0.735 -0.1215 -0.1950  0.0390
 6435SOL    HW131364   4.010   6.033   0.774 -0.7747  0.2012  1.7943
 6435SOL    HW231365   3.916   6.018   0.641  2.2114  0.6765 -0.4504
 6436SOL     OW31366   0.661   2.680   0.445 -0.4105 -0.6453 -0.1905
 6436SOL    HW131367   0.725   2.742   0.490 -1.4426 -0.3270  0.8475
 6436SOL    HW231368   0.712   2.621   0.381  0.7981  0.1368  0.0258
 6437SOL     OW31369   8.204   4.599   8.520 -0.1830  0.1339  0.2167
 6437SOL    HW131370   8.148   4.516   8.515  0.4732 -0.1878 -2.4844
 6437SOL    HW231371   8.184   4.657   8.441  4.3439 -0.7044 -1.7350
 6438SOL     OW31372   2.397   7.977   4.088  0.8992 -0.1156  0.1048
 6438SOL    HW131373   2.319   8.024   4.046  0.0164  0.2233  2.0586
 6438SOL    HW231374   2.433   7.909   4.025 -1.1022 -0.4121 -0.7574
 6439SOL     OW31375   1.540   7.111   7.740  0.0820 -0.4229 -0.1939
 6439SOL    HW131376   1.488   7.064   7.668  0.8357  2.2914 -2.6353
 6439SOL    HW231377   1.477   7.155   7.803 -0.5953 -2.0830  0.3043
 6440SOL     OW31378   2.823   0.995   2.505 -0.2667  0.4548 -0.2140
 6440SOL    HW131379   2.803   0.912   2.453 -1.1195  1.1069 -0.9465
 6440SOL    HW231380   2.740   1.051   2.512  0.1089  0.8891  0.9316
 6441SOL     OW31381   1.498   1.732   7.293  0.2797  0.5678 -0.0706
 6441SOL    HW131382   1.524   1.638   7.316  0.6989  0.8609  0.6773
 6441SOL    HW231383   1.450   1.773   7.371 -0.5821  0.7200 -0.6795
 6442SOL     OW31384   7.409   1.022   8.199  0.2798  0.2664 -0.0685
 6442SOL    HW131385   7.436   1.035   8.294 -1.0105 -0.3106  0.3857
 6442SOL    HW231386   7.363   0.934   8.189 -0.5751  0.8049 -1.0074
 6443SOL     OW31387   6.500   0.537   4.084 -0.0380 -0.0735 -0.7867
 6443SOL    HW131388   6.528   0.625   4.124  0.2506 -0.0733 -0.9892
 6443SOL    HW231389   6.411   0.510   4.122  0.9001 -0.7986  0.9746
 6444SOL     OW31390   4.018   0.865   2.325 -0.2459  0.2989 -0.0478
 6444SOL    HW131391   3.982   0.773   2.341  0.4020  0.1459  0.5836
 6444SOL    HW231392   4.033   0.910   2.413 -2.2561  1.6743 -0.3995
 6445SOL     OW31393   4.083   3.963   2.025 -0.3223 -0.0807  0.1170
 6445SOL    HW131394   4.039   4.016   2.097  0.9801  3.2095 -1.4014
 6445SOL    HW231395   4.168   3.924   2.060 -1.2274 -1.0834  1.2198
 6446SOL     OW31396   1.384   5.952   8.215 -0.0867 -0.3693 -0.0844
 6446SOL    HW131397   1.449   6.018   8.177 -1.1281  0.4817 -0.4391
 6446SOL    HW231398   1.428   5.899   8.288  0.4893  1.4005  0.8846
 6447SOL     OW31399   1.097   3.994   7.748  0.1133  0.5435  0.0243
 6447SOL    HW131400   1.057   3.915   7.702  2.3333 -0.3696 -0.4175
 6447SOL    HW231401   1.028   4.066   7.757 -1.7564 -1.1930 -0.1239
 6448SOL     OW31402   7.183   3.393   9.144 -0.1335 -0.0880 -0.3607
 6448SOL    HW131403   7.085   3.376   9.149 -0.0461 -1.3309 -2.2154
 6448SOL    HW231404   7.230   3.308   9.117  1.1489  1.1834 -2.2462
 6449SOL     OW31405   5.489   2.422   1.555  0.0510  0.2817 -0.0207
 6449SOL    HW131406   5.528   2.372   1.478 -0.1994 -0.3600  0.2647
 6449SOL    HW231407   5.494   2.365   1.637  0.5858  1.0696  0.5001
 6450SOL     OW31408   3.114   9.091   9.865 -0.0496  0.0123  1.2314
 6450SOL    HW131409   3.024   9.128   9.886 -0.3815  1.1236 -1.8541
 6450SOL    HW231410   3.107   8.992   9.848 -0.4299 -0.1600  2.4112
 6451SOL     OW31411   8.470   6.202   3.932 -0.1057  0.2172 -0.3933
 6451SOL    HW131412   8.467   6.248   4.020  0.7670  0.0434 -0.2644
 6451SOL    HW231413   8.463   6.103   3.945 -0.8724  0.2448 -0.5864
 6452SOL     OW31414   3.405   2.356   4.155 -0.0974  0.2215 -0.2082
 6452SOL    HW131415   3.334   2.418   4.120 -1.0417 -0.4075  0.5412
 6452SOL    HW231416   3.365   2.265   4.170  0.9158 -0.1835  0.0578
 6453SOL     OW31417   8.332   6.053   2.696 -0.1636  0.1644 -0.3646
 6453SOL    HW131418   8.284   6.075   2.781 -2.8281 -0.4695 -1.6625
 6453SOL    HW231419   8.350   6.138   2.645 -2.8554  0.1727 -1.3826
 6454SOL     OW31420   2.398   0.454   2.448  0.3227  0.0892 -0.4499
 6454SOL    HW131421   2.425   0.414   2.536  2.6743 -1.8508 -1.9848
 6454SOL    HW231422   2.322   0.402   2.410  0.3665 -0.0778 -0.3124
 6455SOL     OW31423   8.069   4.062   7.413  0.4340 -0.2421  0.2259
 6455SOL    HW131424   8.150   4.050   7.471  1.4171  1.8165 -0.6752
 6455SOL    HW231425   8.060   3.983   7.352  1.3007 -0.8564  0.8743
 6456SOL     OW31426   3.425   7.604   5.443  0.2570 -0.3143  0.0359
 6456SOL    HW131427   3.404   7.523   5.498  1.2526 -1.1684 -0.8267
 6456SOL    HW231428   3.516   7.637   5.467  0.6893 -0.6834 -1.0755
 6457SOL     OW31429   1.129   4.475   2.929 -0.4719  0.2912  0.0213
 6457SOL    HW131430   1.033   4.482   2.902 -0.3091 -0.1458 -0.6748
 6457SOL    HW231431   1.179   4.555   2.894 -0.0347 -0.8073 -1.9695
 6458SOL     OW31432   2.532   9.453   8.427  0.2321  0.0849 -0.7335
 6458SOL    HW131433   2.511   9.539   8.473  2.0095  0.5135 -0.6747
 6458SOL    HW231434   2.605   9.405   8.476 -1.1611 -1.7771 -0.4189
 6459SOL     OW31435   7.957   6.047   1.243 -0.4184  0.3714 -0.4808
 6459SOL    HW131436   7.993   6.119   1.184  0.2839  1.2965  1.0363
 6459SOL    HW231437   7.887   6.086   1.303 -0.5406 -0.3592 -0.1464
 6460SOL     OW31438   2.666   7.771   7.240 -0.2322 -0.3725  0.1499
 6460SOL    HW131439   2.699   7.857   7.278  1.4323 -0.4393 -1.1030
 6460SOL    HW231440   2.652   7.705   7.313 -0.2216  0.5301  0.9762
 6461SOL     OW31441   3.438   0.440   1.642  0.7614  0.2632  0.2460
 6461SOL    HW131442   3.471   0.449   1.736  1.0930 -0.3203  0.1835
 6461SOL    HW231443   3.369   0.510   1.625  0.2036 -0.0483  1.1472
 6462SOL     OW31444   2.478   7.014   5.439  0.0208  0.3740  0.0432
 6462SOL    HW131445   2.512   7.042   5.349 -0.4548  0.7834 -0.0090
 6462SOL    HW231446   2.554   7.007   5.503  0.0370  2.6359  0.2899
 6463SOL     OW31447   0.687   9.121   1.074  0.6782 -0.7615  0.3924
 6463SOL    HW131448   0.761   9.185   1.094 -0.5373  0.3899  1.2753
 6463SOL    HW231449   0.634   9.154   0.995  0.4163 -0.9865  0.4719
 6464SOL     OW31450   8.231   0.697   1.943  1.1534  0.2606  0.1246
 6464SOL    HW131451   8.140   0.699   1.986  1.3969 -2.9215  0.9504
 6464SOL    HW231452   8.300   0.726   2.009  1.1474 -1.3643  0.8871
 6465SOL     OW31453   4.873   3.531   9.393 -0.2472 -0.0071  0.1727
 6465SOL    HW131454   4.956   3.481   9.367 -0.4698 -0.0011 -0.5615
 6465SOL    HW231455   4.897   3.607   9.453  0.2616 -0.1046  0.0949
 6466SOL     OW31456   3.505   7.034   0.957  0.6338  0.7851  0.1232
 6466SOL    HW131457   3.561   7.088   0.895  2.1494  2.4705  2.8254
 6466SOL    HW231458   3.482   7.088   1.038 -0.5588 -1.5694  1.4415
 6467SOL     OW31459   2.423   5.931   1.327  0.0714 -0.0515 -0.1692
 6467SOL    HW131460   2.347   5.922   1.262 -0.0904  1.1484 -0.1506
 6467SOL    HW231461   2.392   5.976   1.410  0.7661  0.3354 -0.1099
 6468SOL     OW31462   8.785   7.796   4.732  0.1570 -0.0239 -0.2993
 6468SOL    HW131463   8.884   7.815   4.726  0.2101 -0.3062 -0.3118
 6468SOL    HW231464   8.746   7.849   4.808  0.1644  0.7285 -0.8142
 6469SOL     OW31465   8.474   6.574   8.037 -0.1508  0.1730 -0.6660
 6469SOL    HW131466   8.516   6.533   8.118 -0.1918  0.8759 -0.2887
 6469SOL    HW231467   8.383   6.535   8.023  0.1057 -0.4093 -0.7409
 6470SOL     OW31468   7.974   6.002   7.830  0.3176  0.1120 -0.0920
 6470SOL    HW131469   8.002   6.032   7.739  0.5499 -0.1524 -0.1099
 6470SOL    HW231470   7.966   5.902   7.831  1.0716  0.0561  0.3915
 6471SOL     OW31471   2.879   0.725   9.366 -0.3721 -0.1428 -0.7294
 6471SOL    HW131472   2.798   0.697   9.314 -0.7576 -1.9218  0.7752
 6471SOL    HW231473   2.943   0.648   9.372  1.1307  1.0180 -1.2720
 6472SOL     OW31474   4.428   2.683   0.004 -0.7965 -0.2314 -0.2208
 6472SOL    HW131475   4.470   2.773   0.006 -3.1843  0.9335 -0.0622
 6472SOL    HW231476   4.476   2.621   0.067 -0.3626  1.5047  1.1835
 6473SOL     OW31477   2.438   6.201   3.317 -0.4678  0.0473  0.1860
 6473SOL    HW131478   2.357   6.144   3.331 -1.2432  1.2015  0.4074
 6473SOL    HW231479   2.423   6.261   3.238  0.6223 -0.5375 -0.4764
 6474SOL     OW31480   7.676   3.592   0.312 -0.2990  0.8362  0.4724
 6474SOL    HW131481   7.757   3.594   0.253 -0.8185  0.7237 -0.2493
 6474SOL    HW231482   7.650   3.686   0.334 -0.0412  0.8766  0.6073
 6475SOL     OW31483   3.152   8.395   9.336  0.1075  0.3573  0.4622
 6475SOL    HW131484   3.066   8.434   9.370 -0.8804  0.5388 -2.1095
 6475SOL    HW231485   3.207   8.468   9.294  0.9702  0.0244  1.0091
 6476SOL     OW31486   9.741   6.908   9.791  0.5639  0.4913  0.1625
 6476SOL    HW131487   9.660   6.859   9.761  0.8448  0.0909  0.0464
 6476SOL    HW231488   9.755   6.891   9.889 -0.9980  2.7235  0.7911
 6477SOL     OW31489   8.147   7.430   2.731  0.2034 -0.5158  0.1415
 6477SOL    HW131490   8.100   7.397   2.649 -1.4542 -1.1836  1.3581
 6477SOL    HW231491   8.173   7.353   2.789  0.3819  0.0284  0.7999
 6478SOL     OW31492   8.937   8.589   3.626 -0.8523  0.0515  0.0875
 6478SOL    HW131493   8.907   8.553   3.714  0.1770  0.0333  0.4319
 6478SOL    HW231494   8.875   8.661   3.596  0.7404  2.4642  2.4670
 6479SOL     OW31495   1.709   8.736   8.649  0.3963 -0.0298 -0.3684
 6479SOL    HW131496   1.611   8.715   8.645  0.2585  0.2928  1.1839
 6479SOL    HW231497   1.732   8.801   8.577 -0.0957 -1.8013 -2.1793
 6480SOL     OW31498   5.011   9.189   6.813 -0.3667  0.4194  0.2139
 6480SOL    HW131499   5.089   9.192   6.750  0.4273 -2.5214  0.9811
 6480SOL    HW231500   4.928   9.217   6.765  0.3497 -1.1079 -1.9909
 6481SOL     OW31501   2.990   4.555   7.323  0.0285  0.0003 -0.0314
 6481SOL    HW131502   2.923   4.591   7.387  1.5513  0.5549  1.2840
 6481SOL    HW231503   3.015   4.462   7.348  0.4814  0.1475  0.0657
 6482SOL     OW31504   2.736   2.386   5.783 -0.1877 -0.4250  0.7889
 6482SOL    HW131505   2.747   2.359   5.687 -1.3582  0.8616  0.2708
 6482SOL    HW231506   2.806   2.455   5.806  0.2968 -0.9697  0.9632
 6483SOL     OW31507   2.580   6.806   1.878 -0.4102 -0.7318 -0.1222
 6483SOL    HW131508   2.533   6.847   1.800 -0.0545 -2.2097 -1.1336
 6483SOL    HW231509   2.629   6.724   1.848  0.8310 -0.5653  1.3935
 6484SOL     OW31510   2.410   7.074   8.683 -0.3650 -0.4600 -0.4943
 6484SOL    HW131511   2.469   6.994   8.678  1.0621  0.6185 -1.1366
 6484SOL    HW231512   2.320   7.047   8.719  0.5396 -2.0859  0.5826
 6485SOL     OW31513   2.747   7.510   4.078 -0.1899 -0.0877 -0.5469
 6485SOL    HW131514   2.704   7.599   4.094 -0.3623 -0.4785  1.3045
 6485SOL    HW231515   2.808   7.489   4.154 -1.7092 -2.4591  0.0867
 6486SOL     OW31516   2.777   7.995   7.356  0.3932  0.4322  0.1259
 6486SOL    HW131517   2.784   8.025   7.452  0.7870  0.9486 -0.0614
 6486SOL    HW231518   2.719   8.059   7.305 -0.1586 -0.0753  0.1128
 6487SOL     OW31519   4.775   8.125   3.415 -0.8441 -0.3378 -0.4285
 6487SOL    HW131520   4.772   8.025   3.407 -1.0108 -0.2498 -1.4593
 6487SOL    HW231521   4.855   8.160   3.366 -1.3151  0.1143 -0.8830
 6488SOL     OW31522   0.106   9.820   0.315  0.2152 -0.1158 -0.3187
 6488SOL    HW131523   0.012   9.794   0.294  1.0038 -2.7561 -0.8084
 6488SOL    HW231524   0.146   9.868   0.237 -1.0592  2.0435  0.3262
 6489SOL     OW31525   6.336   2.423   4.545 -0.4464 -0.1810 -0.3946
 6489SOL    HW131526   6.296   2.512   4.524  0.3119  0.1327 -0.5026
 6489SOL    HW231527   6.355   2.416   4.643 -1.1966 -0.5095 -0.2682
 6490SOL     OW31528   7.701   4.650   7.628 -0.4211 -0.1217 -0.3447
 6490SOL    HW131529   7.612   4.680   7.662 -0.5935 -0.0523 -0.8582
 6490SOL    HW231530   7.714   4.681   7.534  0.9577  1.5417  0.3718
 6491SOL     OW31531   2.875   3.794   9.479 -0.0796 -0.1456  0.4677
 6491SOL    HW131532   2.807   3.867   9.491 -0.0648 -0.0523 -0.0119
 6491SOL    HW231533   2.877   3.766   9.383  1.0277  0.3124  0.3457
 6492SOL     OW31534   2.922   6.860   6.252 -0.1670 -0.0985 -0.4539
 6492SOL    HW131535   2.865   6.939   6.231 -0.5850 -0.0291  0.8806
 6492SOL    HW231536   2.940   6.858   6.351 -0.1268 -1.6412 -0.4858
 6493SOL     OW31537   7.862   8.741   6.704  0.1461  0.1020  0.2807
 6493SOL    HW131538   7.835   8.679   6.630 -1.0935 -0.3370  1.0688
 6493SOL    HW231539   7.823   8.708   6.790  1.9160  0.3747  1.2002
 6494SOL     OW31540   3.586   7.213   8.946  0.2238  0.1151  0.0328
 6494SOL    HW131541   3.490   7.224   8.973  0.4577  0.0382  0.8929
 6494SOL    HW231542   3.631   7.302   8.947 -0.0470  0.2843 -1.2062
 6495SOL     OW31543   5.124   0.891   4.437  0.2666 -0.8732  0.2891
 6495SOL    HW131544   5.104   0.977   4.484  1.3580 -0.4066 -0.0829
 6495SOL    HW231545   5.069   0.818   4.477 -1.1802  0.1135  0.1686
 6496SOL     OW31546   9.225   7.592   8.830  0.9410  0.2130  0.0372
 6496SOL    HW131547   9.191   7.527   8.899  0.7334  0.5789  0.2790
 6496SOL    HW231548   9.193   7.563   8.739  2.1685 -0.9152 -0.0483
 6497SOL     OW31549   2.788   8.718   7.269  0.4498 -0.5693 -0.0368
 6497SOL    HW131550   2.797   8.817   7.280 -2.2522 -0.1416 -1.3469
 6497SOL    HW231551   2.739   8.680   7.347 -0.0006 -0.6143 -0.3387
 6498SOL     OW31552   5.090   4.540   1.921  0.2090 -1.0096 -0.0787
 6498SOL    HW131553   5.104   4.442   1.908 -2.4053 -1.3274 -0.8387
 6498SOL    HW231554   5.120   4.566   2.013  1.3529 -2.4330 -0.0393
 6499SOL     OW31555   2.808   6.251   2.841  0.1166 -0.2260  0.5405
 6499SOL    HW131556   2.904   6.271   2.822  0.2226 -1.5205 -0.3796
 6499SOL    HW231557   2.799   6.201   2.927  0.5197 -2.2214 -0.5472
 6500SOL     OW31558   9.788   7.910   3.722 -0.4047 -0.1236  0.0954
 6500SOL    HW131559   9.877   7.911   3.767  0.4724 -0.9315 -1.5930
 6500SOL    HW231560   9.728   7.844   3.768  0.5255 -1.0441  0.0043
 6501SOL     OW31561   2.067   4.811   1.734 -0.3867  0.4479 -0.4375
 6501SOL    HW131562   1.991   4.820   1.797 -0.6958  0.9194 -0.8677
 6501SOL    HW231563   2.114   4.724   1.749 -1.6671 -0.3233 -0.9068
 6502SOL     OW31564   0.052   0.046   7.889 -0.7860 -0.2476  0.4190
 6502SOL    HW131565   0.078  -0.016   7.814  1.5876  1.8920 -0.5831
 6502SOL    HW231566  -0.040   0.081   7.871 -0.3623  0.0177 -1.4002
 6503SOL     OW31567   2.600   9.900   6.849  0.2659 -0.1402 -0.4176
 6503SOL    HW131568   2.641   9.933   6.934  1.7231  1.2060 -1.6232
 6503SOL    HW231569   2.569   9.978   6.795 -0.2531 -0.9730 -1.3308
 6504SOL     OW31570   9.050   3.747   4.191  0.0774  0.1958 -0.6392
 6504SOL    HW131571   9.007   3.660   4.214 -0.2041  0.4838 -0.0807
 6504SOL    HW231572   8.994   3.822   4.224  0.8294  0.5780 -0.2088
 6505SOL     OW31573   4.870   1.569   6.192 -0.0436  0.0717 -0.3989
 6505SOL    HW131574   4.941   1.619   6.142 -0.8483 -0.4042 -2.0382
 6505SOL    HW231575   4.907   1.482   6.224  0.4216  0.3011 -0.3055
 6506SOL     OW31576   0.946   6.998   2.756  0.6475 -0.6845 -0.0670
 6506SOL    HW131577   0.997   6.977   2.672  1.1694 -0.4400  0.1902
 6506SOL    HW231578   0.987   7.077   2.801 -1.1586  0.7913 -0.9165
 6507SOL     OW31579   5.106   2.982   9.125  0.2147  0.0371 -0.2472
 6507SOL    HW131580   5.130   3.045   9.051  0.4439 -0.7643 -0.8633
 6507SOL    HW231581   5.008   2.963   9.123  0.4486 -1.0957 -1.2331
 6508SOL     OW31582   2.618   0.032   9.633 -0.3581  0.7646  0.0453
 6508SOL    HW131583   2.581  -0.061   9.632 -0.0947  0.6661 -1.1219
 6508SOL    HW231584   2.617   0.070   9.540 -0.1541  1.8042  0.4574
 6509SOL     OW31585   8.656   4.883   2.004 -0.2337 -0.0745  0.1992
 6509SOL    HW131586   8.734   4.895   1.943 -1.3011  1.8556 -0.8116
 6509SOL    HW231587   8.580   4.842   1.955 -0.4405 -0.3686  0.7541
 6510SOL     OW31588   0.471   2.554   4.716  0.2269  0.3209 -0.0276
 6510SOL    HW131589   0.507   2.540   4.808  1.3671  1.2264 -0.3358
 6510SOL    HW231590   0.415   2.637   4.715 -0.0804  0.1130 -0.0671
 6511SOL     OW31591   3.117   5.707   9.600  0.3868  0.2513 -0.2237
 6511SOL    HW131592   3.036   5.649   9.608  0.2386  0.7795  2.3202
 6511SOL    HW231593   3.199   5.649   9.598  0.1551 -0.1065  0.6989
 6512SOL     OW31594   0.347   9.549   5.406 -0.3613  0.1839 -0.1987
 6512SOL    HW131595   0.263   9.601   5.388 -1.5077 -1.6372 -0.1757
 6512SOL    HW231596   0.328   9.478   5.474  0.8734 -1.0868 -1.1602
 6513SOL     OW31597   9.991   7.302   6.210 -0.0991 -0.5280  0.3042
 6513SOL    HW131598   9.906   7.326   6.256  1.3002  2.8659  1.2479
 6513SOL    HW231599   9.976   7.298   6.111 -1.1083  1.2090  0.3756
 6514SOL     OW31600   1.264   9.805   7.909 -0.0191 -0.0880  0.3404
 6514SOL    HW131601   1.266   9.759   7.998 -4.4429 -2.2121 -0.5625
 6514SOL    HW231602   1.266   9.904   7.922 -1.3548 -0.3669  2.8614
 6515SOL     OW31603   3.562   2.547   7.376 -0.8505 -0.2230  0.0814
 6515SOL    HW131604   3.555   2.457   7.418 -2.8498  0.2031  0.7364
 6515SOL    HW231605   3.657   2.565   7.350 -0.6700 -3.0675 -1.3398
 6516SOL     OW31606   2.660   8.257   2.901 -0.3764  0.1425  0.8201
 6516SOL    HW131607   2.694   8.180   2.955 -0.2299  0.6308  1.4204
 6516SOL    HW231608   2.601   8.314   2.957 -0.9533  0.1486  0.2075
 6517SOL     OW31609   0.595   2.771   7.642  0.1673 -0.0011 -0.0747
 6517SOL    HW131610   0.670   2.780   7.576 -0.0582 -0.5903 -0.4143
 6517SOL    HW231611   0.619   2.820   7.726  1.7974 -1.8162  0.5535
 6518SOL     OW31612   2.425   3.565   6.079  0.0417  0.1781 -0.1189
 6518SOL    HW131613   2.343   3.521   6.114  0.8240 -0.7677  0.5669
 6518SOL    HW231614   2.456   3.518   5.996 -0.3126  0.7635 -0.5863
 6519SOL     OW31615   0.769   3.696   2.487  0.0040 -0.4180 -0.2287
 6519SOL    HW131616   0.722   3.781   2.463 -0.6119 -0.9586 -0.9546
 6519SOL    HW231617   0.703   3.622   2.494  0.5426 -0.8447  0.3850
 6520SOL     OW31618   2.964   3.155   0.815  0.7195 -0.4737  0.1128
 6520SOL    HW131619   3.023   3.192   0.743 -1.5352 -1.3669 -2.3125
 6520SOL    HW231620   3.019   3.106   0.882  2.8940  0.2757 -1.0608
 6521SOL     OW31621   0.100   2.759   6.557 -0.1706 -0.0079 -0.7020
 6521SOL    HW131622   0.076   2.687   6.622  0.5350  0.8227  0.5104
 6521SOL    HW231623   0.199   2.761   6.544 -0.2410  0.3486 -1.1795
 6522SOL     OW31624   5.146   5.083   2.117 -0.1482 -0.3099 -0.1818
 6522SOL    HW131625   5.246   5.084   2.114 -0.1229  1.1347  0.6175
 6522SOL    HW231626   5.115   5.107   2.208 -1.2361 -3.1043  0.2373
 6523SOL     OW31627   0.464   6.970   6.480  0.1356  0.9929  0.2464
 6523SOL    HW131628   0.455   7.050   6.540 -0.6887  2.3223 -1.5807
 6523SOL    HW231629   0.479   7.001   6.386 -0.3779 -1.0120 -0.5185
 6524SOL     OW31630   0.337   7.483   8.010  0.3898 -0.1362 -0.3515
 6524SOL    HW131631   0.427   7.517   7.985  0.7821  0.3054  1.6025
 6524SOL    HW231632   0.281   7.558   8.044 -0.5382 -0.5074 -1.0311
 6525SOL     OW31633   2.727   0.956   8.789 -0.2671 -0.4828 -0.2806
 6525SOL    HW131634   2.638   0.994   8.763  0.1614  0.1684 -0.8057
 6525SOL    HW231635   2.791   0.966   8.713 -0.3329 -2.8831 -0.6916
 6526SOL     OW31636   3.751   4.268   4.051  0.1970  0.2407  0.6925
 6526SOL    HW131637   3.651   4.266   4.047  0.1788 -3.4032  1.4132
 6526SOL    HW231638   3.785   4.341   3.992 -2.8285  0.7665 -0.4940
 6527SOL     OW31639   5.667   5.617   1.278 -0.1877 -0.6289  0.0554
 6527SOL    HW131640   5.752   5.585   1.319  0.5735  0.9049 -0.3042
 6527SOL    HW231641   5.657   5.578   1.186 -0.1723 -1.2819  0.3305
 6528SOL     OW31642   0.822   4.792   1.085 -0.9404 -0.0516  1.0688
 6528SOL    HW131643   0.821   4.775   1.184  0.0665  2.5600  1.5684
 6528SOL    HW231644   0.913   4.773   1.049 -1.4692 -1.5987  0.5048
 6529SOL     OW31645   4.007   4.003   8.654  0.2521 -0.6637 -0.2758
 6529SOL    HW131646   4.030   3.906   8.653  1.0048 -0.5401  1.9526
 6529SOL    HW231647   3.907   4.013   8.659  0.1410 -1.3043 -1.1397
 6530SOL     OW31648   9.932   9.842   1.453  0.4601 -0.1917 -0.6396
 6530SOL    HW131649   9.922   9.743   1.464 -0.2488  0.0151  0.7318
 6530SOL    HW231650   9.847   9.887   1.480  1.5215  0.9262  0.9439
 6531SOL     OW31651   5.435   2.108   0.918  0.3306  0.0900 -0.6274
 6531SOL    HW131652   5.437   2.203   0.948 -1.1947  0.4169 -1.5278
 6531SOL    HW231653   5.340   2.080   0.902  0.7060 -1.7625  0.1974
 6532SOL     OW31654   0.646   1.828   8.235 -0.3779  0.3076 -0.1887
 6532SOL    HW131655   0.575   1.772   8.193 -0.0166  0.2642 -0.7422
 6532SOL    HW231656   0.692   1.776   8.307 -0.7681  0.2623  0.0230
 6533SOL     OW31657   3.930   9.628   5.741 -0.0376 -0.5284  0.7089
 6533SOL    HW131658   4.026   9.652   5.721 -0.2227  0.1143  0.5739
 6533SOL    HW231659   3.870   9.678   5.678 -0.5004 -0.3864  1.2571
 6534SOL     OW31660   2.474   9.066   9.169  0.3051  0.0808  0.1794
 6534SOL    HW131661   2.430   9.152   9.143 -0.2370  1.1316  4.1885
 6534SOL    HW231662   2.412   8.989   9.151 -0.5871  0.8959 -0.2322
 6535SOL     OW31663   9.985   6.212   1.712  0.5309  0.0408 -0.0696
 6535SOL    HW131664   9.964   6.128   1.663  0.3680 -0.3480  0.6584
 6535SOL    HW231665   9.900   6.262   1.730  0.6470  0.4489 -0.6610
 6536SOL     OW31666   3.201   6.684   1.533  0.2091 -0.0829  0.0589
 6536SOL    HW131667   3.106   6.657   1.519  0.3316 -0.4216 -0.1182
 6536SOL    HW231668   3.235   6.728   1.450  0.4195 -0.5815 -0.1185
 6537SOL     OW31669   9.430   6.873   8.999 -0.2205 -0.4641 -0.0018
 6537SOL    HW131670   9.510   6.818   9.020 -0.8347 -1.3817 -0.0138
 6537SOL    HW231671   9.355   6.813   8.972 -0.4892  0.4686 -1.3753
 6538SOL     OW31672   2.472   2.768   8.943 -0.3134 -0.4981 -0.1799
 6538SOL    HW131673   2.399   2.804   8.886  0.4529 -0.5302 -1.2134
 6538SOL    HW231674   2.434   2.709   9.014 -1.3069 -0.2747 -0.5277
 6539SOL     OW31675   2.662   6.877   8.386 -0.3237  0.3700  0.0916
 6539SOL    HW131676   2.640   6.831   8.300  1.2244  1.4236 -0.8849
 6539SOL    HW231677   2.750   6.923   8.378  1.1557 -1.7695  3.1457
 6540SOL     OW31678   4.991   8.345   3.950 -0.4309  0.4543 -0.2696
 6540SOL    HW131679   4.920   8.395   4.000 -1.8054 -0.8162 -0.9361
 6540SOL    HW231680   5.076   8.347   4.003 -1.7504 -0.5043  1.9414
 6541SOL     OW31681   0.069   2.462   9.693 -0.0357 -0.2161 -0.0963
 6541SOL    HW131682  -0.023   2.437   9.661  0.0386  0.6353 -0.9956
 6541SOL    HW231683   0.089   2.411   9.777 -0.9850 -1.0577 -0.3560
 6542SOL     OW31684   6.567   6.238   7.718  0.1035 -0.0569 -0.1496
 6542SOL    HW131685   6.468   6.230   7.720  0.1391 -0.4459  0.0570
 6542SOL    HW231686   6.608   6.153   7.748  0.4812  0.9986  2.4561
 6543SOL     OW31687   3.486   3.374   3.809  0.0161  0.2757  0.3069
 6543SOL    HW131688   3.486   3.455   3.867  0.1810  0.4588  0.0467
 6543SOL    HW231689   3.562   3.378   3.745 -1.3614  1.0400 -1.2980
 6544SOL     OW31690   5.281   9.395   5.173 -0.9530  0.0276  0.4381
 6544SOL    HW131691   5.234   9.325   5.227  1.4513 -0.3537  2.1088
 6544SOL    HW231692   5.354   9.436   5.228  0.1428  1.1600 -1.8105
 6545SOL     OW31693   9.375   1.413   7.430 -0.1523  0.5664  1.0605
 6545SOL    HW131694   9.278   1.401   7.453  0.0918 -0.5034  1.5442
 6545SOL    HW231695   9.429   1.415   7.514  0.3323  0.3471  0.7546
 6546SOL     OW31696   1.474   3.503   0.393  0.3552  0.0906  0.2826
 6546SOL    HW131697   1.454   3.420   0.341 -0.4173  1.0375 -0.9644
 6546SOL    HW231698   1.496   3.478   0.487  0.4126 -1.5487 -0.1414
 6547SOL     OW31699   6.083   3.647   2.736 -0.0331  0.4273 -0.7357
 6547SOL    HW131700   6.137   3.666   2.653  0.2053  0.4113 -0.5832
 6547SOL    HW231701   6.113   3.561   2.776 -0.5836  0.1191 -0.9841
 6548SOL     OW31702   3.591   3.095   5.847  0.1672 -0.3013  0.0119
 6548SOL    HW131703   3.645   3.045   5.914 -0.0712 -0.2112  0.2694
 6548SOL    HW231704   3.637   3.092   5.758  0.3633 -0.6143  0.1265
 6549SOL     OW31705   1.820   2.798   7.768  0.2587  0.3481  0.1971
 6549SOL    HW131706   1.808   2.885   7.814 -0.1740  0.6857 -0.5396
 6549SOL    HW231707   1.882   2.739   7.821  0.6079  1.1273  0.6525
 6550SOL     OW31708   1.607   9.855   5.866 -0.0853  0.3248 -0.0833
 6550SOL    HW131709   1.605   9.756   5.851 -1.1644  0.2990  0.1461
 6550SOL    HW231710   1.632   9.874   5.961 -0.0315  0.2571 -0.0841
 6551SOL     OW31711   1.732   3.835   4.180  0.3629 -0.2293  0.4030
 6551SOL    HW131712   1.693   3.902   4.243  1.5237  0.5250  0.3441
 6551SOL    HW231713   1.676   3.752   4.179 -1.7603  1.1795 -0.4111
 6552SOL     OW31714   4.512   1.422   9.318  0.2276 -0.2342  0.0713
 6552SOL    HW131715   4.413   1.434   9.308  0.2359  0.9287  1.2645
 6552SOL    HW231716   4.530   1.362   9.395  0.4871  1.2114  1.1611
 6553SOL     OW31717   1.581   6.473   9.342  0.1524  0.0441  0.4138
 6553SOL    HW131718   1.570   6.503   9.247  0.8069  0.6160  0.5151
 6553SOL    HW231719   1.531   6.388   9.356 -0.3950  0.2412 -0.3054
 6554SOL     OW31720   1.453   6.467   3.069  0.3373  0.0429  0.1641
 6554SOL    HW131721   1.404   6.508   2.992 -0.7740  1.0992  1.4150
 6554SOL    HW231722   1.525   6.529   3.099  1.4261 -0.8020 -0.6294
 6555SOL     OW31723   9.346   8.890   7.468  0.4759  0.5902 -0.1133
 6555SOL    HW131724   9.278   8.908   7.397 -0.7532  0.7600  1.0707
 6555SOL    HW231725   9.313   8.816   7.527  1.1996  0.8610  0.6418
 6556SOL     OW31726   1.447   3.243   1.719  0.2903 -0.6662  0.7541
 6556SOL    HW131727   1.437   3.149   1.753 -0.0478  0.3311  3.5335
 6556SOL    HW231728   1.357   3.280   1.698  0.4406 -1.0141 -0.5417
 6557SOL     OW31729   8.970   7.744   0.423 -0.1610  0.6100 -0.6358
 6557SOL    HW131730   9.027   7.826   0.423 -0.1968  0.6487 -1.6075
 6557SOL    HW231731   8.960   7.709   0.516 -0.2990  1.8122 -0.1992
 6558SOL     OW31732   5.142   2.004   1.279 -0.6737  0.3609  0.0611
 6558SOL    HW131733   5.044   2.006   1.298 -0.7270  1.6845 -0.2727
 6558SOL    HW231734   5.192   2.027   1.363 -0.6581 -0.0397  0.1622
 6559SOL     OW31735   4.888   2.285   2.419  0.4034 -0.5693 -0.2961
 6559SOL    HW131736   4.827   2.297   2.341  0.3546  0.8691 -0.0425
 6559SOL    HW231737   4.929   2.194   2.415 -4.3316 -2.9243  1.3998
 6560SOL     OW31738   6.859   3.756   1.822  0.1553  0.0893  0.1938
 6560SOL    HW131739   6.947   3.786   1.858  1.1089 -0.6062 -1.5349
 6560SOL    HW231740   6.850   3.784   1.726 -1.1550 -0.5837  0.0994
 6561SOL     OW31741   9.188   6.402   9.082  0.1216  0.0741  0.2024
 6561SOL    HW131742   9.184   6.456   9.166  1.7341 -1.6846  1.4373
 6561SOL    HW231743   9.152   6.310   9.099  0.7615 -0.3975 -0.9536
 6562SOL     OW31744   3.749   1.045   1.992  0.2949 -0.0477 -0.0884
 6562SOL    HW131745   3.755   0.947   1.973  0.0036  0.3235 -2.2276
 6562SOL    HW231746   3.680   1.086   1.933  1.5069  1.7118 -0.3087
 6563SOL     OW31747   8.512   7.927   7.012 -0.1198  0.1526 -0.5216
 6563SOL    HW131748   8.542   7.925   7.107 -0.1575  1.8447 -0.4611
 6563SOL    HW231749   8.562   7.998   6.962  1.0712 -1.7803 -2.1901
 6564SOL     OW31750   9.065   2.253   6.943 -0.0619  0.0458  0.2229
 6564SOL    HW131751   8.992   2.279   7.007 -0.8794 -1.3971 -0.0894
 6564SOL    HW231752   9.053   2.157   6.917  1.8370 -0.1447 -0.0108
 6565SOL     OW31753   3.124   9.296   2.280 -0.0561  0.1494  0.0973
 6565SOL    HW131754   3.109   9.392   2.301 -1.1700 -0.2417  1.1618
 6565SOL    HW231755   3.038   9.246   2.288  0.8073 -1.2365  1.2340
 6566SOL     OW31756   4.474   8.647   1.186  0.0733  0.0848 -0.0194
 6566SOL    HW131757   4.541   8.708   1.144 -1.8305  2.0959 -0.1888
 6566SOL    HW231758   4.506   8.620   1.277  1.3238  0.6585 -0.2818
 6567SOL     OW31759   9.499   5.743   3.851  0.3381  0.4364  0.2981
 6567SOL    HW131760   9.477   5.812   3.920  0.8222  0.8741  0.0145
 6567SOL    HW231761   9.435   5.752   3.775 -0.5293 -0.3836  0.9101
 6568SOL     OW31762   4.139   1.036   9.663 -0.5148 -0.0349 -0.4176
 6568SOL    HW131763   4.233   1.007   9.674 -0.7710 -1.0722 -0.8652
 6568SOL    HW231764   4.090   0.970   9.606 -2.2102 -0.9281  2.0358
 6569SOL     OW31765   7.383   9.529   7.553  0.4413  0.3353  0.1781
 6569SOL    HW131766   7.355   9.514   7.458 -0.1260  0.2593  0.3561
 6569SOL    HW231767   7.480   9.553   7.556  0.8789 -1.3218 -0.2920
 6570SOL     OW31768   8.611   5.417   2.426  0.5243 -0.5215  0.2364
 6570SOL    HW131769   8.707   5.427   2.399  0.4096 -0.1742 -0.0436
 6570SOL    HW231770   8.607   5.376   2.517  0.9674  0.1961  0.5922
 6571SOL     OW31771   6.535   9.498   6.734  0.0433  0.3951  0.6511
 6571SOL    HW131772   6.501   9.566   6.798 -0.3400  0.8778 -0.0707
 6571SOL    HW231773   6.593   9.541   6.666  1.5495 -0.3169  1.4502
 6572SOL     OW31774   9.159   5.156   3.329 -0.0761  0.2082  0.5283
 6572SOL    HW131775   9.155   5.221   3.406  1.4364  0.4136  0.4666
 6572SOL    HW231776   9.230   5.186   3.265 -1.9156  0.5081 -1.4189
 6573SOL     OW31777   7.368   1.574   5.638 -0.4401  0.0021  0.4832
 6573SOL    HW131778   7.424   1.491   5.639  0.8289  0.8502  0.2893
 6573SOL    HW231779   7.276   1.551   5.604 -0.1648 -1.3530  0.6003
 6574SOL     OW31780   0.653   5.259   0.198  0.0631  0.3393 -0.0222
 6574SOL    HW131781   0.684   5.272   0.104 -0.2370  1.3363  0.0166
 6574SOL    HW231782   0.558   5.227   0.198 -0.5925  2.2692 -0.0106
 6575SOL     OW31783   3.490   5.196   3.662 -0.2827  0.1265  0.3040
 6575SOL    HW131784   3.485   5.097   3.658 -1.0268  0.1559  0.4026
 6575SOL    HW231785   3.398   5.235   3.652 -0.1947  0.7452  1.6771
 6576SOL     OW31786   0.928   8.819   5.649  0.4074 -0.1993 -0.3813
 6576SOL    HW131787   0.968   8.756   5.715 -2.2639 -0.6366  0.8520
 6576SOL    HW231788   0.921   8.774   5.560  1.2262 -0.6289 -0.2316
 6577SOL     OW31789   2.408   0.181   2.946 -0.3266  0.3913  0.1035
 6577SOL    HW131790   2.417   0.214   3.040 -0.2692  1.9848 -0.4349
 6577SOL    HW231791   2.324   0.127   2.937  0.2195 -0.6680  1.3090
 6578SOL     OW31792   6.617   2.684   0.790 -0.8588  0.3423  0.5233
 6578SOL    HW131793   6.663   2.640   0.867 -0.1906  0.1314  0.0144
 6578SOL    HW231794   6.580   2.772   0.819 -0.9798  0.0739  1.1915
 6579SOL     OW31795   1.306   5.563   6.130 -0.7629 -0.3022  0.0839
 6579SOL    HW131796   1.405   5.551   6.135 -0.6201  1.0444  0.6976
 6579SOL    HW231797   1.260   5.489   6.179 -0.0561 -0.7366  0.0924
 6580SOL     OW31798   0.878   7.972   6.316 -0.3415  0.1247 -0.1096
 6580SOL    HW131799   0.899   7.891   6.372  0.4950 -0.1670 -0.8372
 6580SOL    HW231800   0.941   7.976   6.239  0.7504  2.4541  0.8885
 6581SOL     OW31801   6.841   9.998   4.330  0.1181 -0.3795  0.0696
 6581SOL    HW131802   6.896  10.001   4.413  0.9553 -0.3439 -0.4764
 6581SOL    HW231803   6.806   9.906   4.316  3.1296 -1.3593 -1.5301
 6582SOL     OW31804   4.182   1.276   7.907 -0.3179 -0.0240  0.3911
 6582SOL    HW131805   4.194   1.353   7.843 -0.6933 -0.3486 -0.0652
 6582SOL    HW231806   4.091   1.280   7.946 -0.3600 -0.2816  0.3160
 6583SOL     OW31807   2.686   3.596   6.678  0.2658 -0.2003 -0.4823
 6583SOL    HW131808   2.690   3.684   6.631  1.1763 -0.9170 -1.7694
 6583SOL    HW231809   2.624   3.535   6.629  0.9010 -0.8226 -0.5217
 6584SOL     OW31810   1.980   9.613   0.395  0.1284  0.2497 -0.1052
 6584SOL    HW131811   2.031   9.544   0.445 -0.6531 -1.4399 -1.5680
 6584SOL    HW231812   1.965   9.582   0.301 -1.6616  1.6836 -0.3286
 6585SOL     OW31813   9.692   9.586  10.052  0.3216  0.2499 -0.3035
 6585SOL    HW131814   9.782   9.604  10.012  0.1773 -0.1493 -0.8133
 6585SOL    HW231815   9.654   9.671  10.089 -0.1762  0.9210 -2.3043
 6586SOL     OW31816   6.478   9.288   7.516  0.7033  0.1839  0.4116
 6586SOL    HW131817   6.525   9.372   7.488 -1.0753  1.6541  1.7437
 6586SOL    HW231818   6.523   9.249   7.596  0.4431  0.9096  0.9217
 6587SOL     OW31819   1.961   1.950   1.451  0.4750 -0.1422 -0.3783
 6587SOL    HW131820   2.042   1.949   1.510 -0.0847  0.4475  0.4201
 6587SOL    HW231821   1.903   1.871   1.471 -0.0390  0.4078  0.3359
 6588SOL     OW31822   7.644   4.964   2.498 -0.4242 -0.3713 -0.5678
 6588SOL    HW131823   7.633   4.989   2.594 -0.5458  0.8676 -0.8940
 6588SOL    HW231824   7.703   4.884   2.491 -0.2023 -0.3102  0.5196
 6589SOL     OW31825   0.077   8.116   7.334 -0.1025 -0.0790  0.3347
 6589SOL    HW131826   0.066   8.203   7.286 -0.8104 -0.3749 -0.0487
 6589SOL    HW231827   0.157   8.120   7.393 -0.6944  1.1686  1.0623
 6590SOL     OW31828   5.449   8.343   2.899  0.0452  0.0909  0.1531
 6590SOL    HW131829   5.546   8.341   2.876  0.1523  1.8312  0.4379
 6590SOL    HW231830   5.422   8.253   2.934  0.7752 -1.4234 -3.0242
 6591SOL     OW31831   9.945   8.013   4.061  0.4204 -0.5871 -0.5877
 6591SOL    HW131832   9.947   7.978   3.967 -0.6657  0.4578 -1.0055
 6591SOL    HW231833   9.867   7.974   4.110  1.8046 -2.2748  0.3619
 6592SOL     OW31834   6.820   5.385   8.483  0.0121 -0.2910  0.4091
 6592SOL    HW131835   6.750   5.420   8.421 -1.1356  1.3492  2.5533
 6592SOL    HW231836   6.899   5.446   8.482  0.3355 -0.7172 -0.0618
 6593SOL     OW31837   2.678   3.806   2.785 -0.0050  0.1289  0.4041
 6593SOL    HW131838   2.700   3.903   2.789  2.0908 -0.2991  0.1513
 6593SOL    HW231839   2.740   3.755   2.844  0.0476 -1.2240 -0.7745
 6594SOL     OW31840   5.134   5.130   2.741  0.0512 -0.0318 -0.1478
 6594SOL    HW131841   5.124   5.219   2.695 -1.1447  0.4896  1.1062
 6594SOL    HW231842   5.230   5.118   2.768  0.3390  0.6173 -0.8390
 6595SOL     OW31843   8.881   5.186   9.953 -0.3250 -0.1053  0.3447
 6595SOL    HW131844   8.828   5.146   9.877  0.2018  0.1249 -0.1454
 6595SOL    HW231845   8.976   5.158   9.945  0.3010  2.2040 -0.6737
 6596SOL     OW31846   2.442   3.368   1.274 -0.3059  0.0115  0.3804
 6596SOL    HW131847   2.343   3.366   1.261 -0.1373 -0.1949 -0.9635
 6596SOL    HW231848   2.468   3.453   1.318 -0.8089  1.3480 -1.7883
 6597SOL     OW31849   9.489   9.553   0.405  0.4726 -0.5326 -0.6326
 6597SOL    HW131850   9.454   9.509   0.488 -0.8119 -0.4843 -1.1305
 6597SOL    HW231851   9.559   9.496   0.363  2.2186  0.1410  1.2873
 6598SOL     OW31852   8.301   0.189   1.865  0.0252  0.1084  0.7227
 6598SOL    HW131853   8.243   0.268   1.845  1.1772  0.1564 -2.9108
 6598SOL    HW231854   8.374   0.184   1.796  1.1212 -3.0126  2.0375
 6599SOL     OW31855   9.739   5.793   4.956  0.4486 -0.1662 -0.4593
 6599SOL    HW131856   9.793   5.712   4.936  1.8213  0.4379  0.7632
 6599SOL    HW231857   9.798   5.867   4.987 -0.8134  1.2325 -1.2676
 6600SOL     OW31858   9.085   4.164   3.108 -0.3859 -0.3972 -0.1302
 6600SOL    HW131859   8.999   4.182   3.060 -1.0208 -0.2095  1.0468
 6600SOL    HW231860   9.065   4.147   3.205  0.7957 -1.4227 -0.0535
 6601SOL     OW31861   9.378   9.139   7.579 -0.0940 -0.4377  0.3858
 6601SOL    HW131862   9.361   9.123   7.677  0.1581  0.4185  0.5693
 6601SOL    HW231863   9.338   9.064   7.526  1.6196 -2.0369  1.2792
 6602SOL     OW31864   8.404   3.425   5.368 -0.2075  0.4354  0.4538
 6602SOL    HW131865   8.456   3.343   5.341 -0.4171  0.4285  0.0778
 6602SOL    HW231866   8.374   3.415   5.463  1.7944  1.0957  1.2011
 6603SOL     OW31867   8.919   5.068   6.227 -0.4637  0.4123 -0.0972
 6603SOL    HW131868   8.937   4.996   6.295 -0.3475  0.1044 -0.4534
 6603SOL    HW231869   8.991   5.136   6.231 -0.0061 -0.0464 -0.4944
 6604SOL     OW31870   9.529   8.142   1.931  0.3717  0.2461 -0.0863
 6604SOL    HW131871   9.554   8.084   2.008 -0.5413 -0.4697 -0.3165
 6604SOL    HW231872   9.463   8.211   1.961 -1.6469 -1.3696 -0.6394
 6605SOL     OW31873   2.896   0.879   0.903 -0.4862  0.0772 -0.1099
 6605SOL    HW131874   2.995   0.887   0.892 -0.3521 -0.0965  0.8977
 6605SOL    HW231875   2.853   0.968   0.886 -0.1139  0.2592 -0.1032
 6606SOL     OW31876   0.165   7.809   5.866  0.0724  0.4789 -0.0962
 6606SOL    HW131877   0.178   7.872   5.789  0.4528 -0.7225 -1.0358
 6606SOL    HW231878   0.071   7.776   5.866  0.3031 -0.2045 -0.5974
 6607SOL     OW31879   8.030   9.293   0.046 -0.7212  0.2837 -0.2800
 6607SOL    HW131880   8.126   9.283   0.071  0.2340  1.0466 -3.4410
 6607SOL    HW231881   7.987   9.203   0.044  0.9944 -0.5112 -2.8315
 6608SOL     OW31882   1.374   5.365   9.152 -0.0269  0.3198  0.4899
 6608SOL    HW131883   1.337   5.351   9.244 -0.4383 -0.8158  0.1630
 6608SOL    HW231884   1.462   5.318   9.143 -0.0859  0.2502  0.2519
 6609SOL     OW31885   3.109   9.738   1.086 -0.0221 -0.1667  0.0268
 6609SOL    HW131886   3.069   9.647   1.090 -3.1912  1.2425  1.3906
 6609SOL    HW231887   3.069   9.789   1.010 -0.4574  1.0871  1.0848
 6610SOL     OW31888   9.626   8.816   4.868 -0.3877 -0.2426  0.4238
 6610SOL    HW131889   9.573   8.857   4.794  0.0188 -0.9037 -0.2510
 6610SOL    HW231890   9.631   8.717   4.854  0.4854 -0.2598  0.8234
 6611SOL     OW31891   6.233   4.973   7.681 -0.1964  0.0602 -0.6181
 6611SOL    HW131892   6.208   4.898   7.742 -1.6357  1.3561  0.3991
 6611SOL    HW231893   6.155   5.035   7.670  0.6074  0.7981 -2.3673
 6612SOL     OW31894   1.446   2.140   1.475 -0.3372  1.1319 -0.3336
 6612SOL    HW131895   1.499   2.143   1.390  0.6644  1.3033  0.2910
 6612SOL    HW231896   1.430   2.045   1.501 -0.1685  1.0769 -0.4276
 6613SOL     OW31897   4.853   7.037   4.586  0.0670  0.5465  0.3210
 6613SOL    HW131898   4.793   7.090   4.646 -1.2615 -2.2736  1.6059
 6613SOL    HW231899   4.940   7.019   4.633  0.0048  0.4790  0.4107
 6614SOL     OW31900   4.992   8.477   6.577 -0.2860  0.4662  0.5399
 6614SOL    HW131901   5.075   8.490   6.523  0.3532 -1.8693  0.9348
 6614SOL    HW231902   5.012   8.419   6.656 -2.8277 -2.1227 -0.6663
 6615SOL     OW31903   8.899   2.832   0.282  0.2262 -0.5747  0.3262
 6615SOL    HW131904   8.840   2.829   0.201  0.4234 -1.2103  0.2074
 6615SOL    HW231905   8.995   2.837   0.253  0.2141  1.1952  0.5117
 6616SOL     OW31906   8.781   9.494   8.532  0.1490 -0.3646 -0.6822
 6616SOL    HW131907   8.684   9.484   8.510 -0.0386 -2.2069  0.8170
 6616SOL    HW231908   8.798   9.584   8.570 -0.9597 -0.0005 -1.0318
 6617SOL     OW31909   2.441   4.980   8.738  0.6084 -0.0502  0.1362
 6617SOL    HW131910   2.495   5.011   8.660  0.4278 -0.6583 -0.2306
 6617SOL    HW231911   2.353   5.027   8.739  1.7040  2.0437  1.5699
 6618SOL     OW31912   2.841   1.538   9.799  0.2721 -0.5532  0.2675
 6618SOL    HW131913   2.743   1.519   9.809  0.0109  0.8900  0.6611
 6618SOL    HW231914   2.859   1.568   9.705  0.3160 -0.7132  0.2244
 6619SOL     OW31915   9.450   8.644   6.604  0.0595 -0.2331  0.2118
 6619SOL    HW131916   9.398   8.700   6.669 -0.8236  1.4057 -1.8546
 6619SOL    HW231917   9.489   8.703   6.533 -0.6495 -2.2130 -1.8538
 6620SOL     OW31918   4.059   1.674   7.238  0.3342  0.3578  0.7429
 6620SOL    HW131919   4.134   1.698   7.300 -0.4982  0.2937  1.7732
 6620SOL    HW231920   4.003   1.603   7.279 -0.8411  1.0650  0.3801
 6621SOL     OW31921   2.241   0.436   5.789  0.1515  0.6661 -0.6626
 6621SOL    HW131922   2.193   0.349   5.800  2.0007 -0.2838  0.0328
 6621SOL    HW231923   2.323   0.423   5.734 -0.1296  2.1873 -1.4632
 6622SOL     OW31924   5.119   9.436   6.192  0.0800  0.0047 -0.3632
 6622SOL    HW131925   5.050   9.370   6.222 -0.5868 -0.3044 -2.5123
 6622SOL    HW231926   5.087   9.481   6.109  1.6303  1.2579 -0.2831
 6623SOL     OW31927   7.275   6.602   0.681 -0.4927 -0.7991  0.2464
 6623SOL    HW131928   7.177   6.600   0.699 -0.5345 -1.3491 -0.0351
 6623SOL    HW231929   7.324   6.630   0.764 -0.7627 -2.1663  0.8820
 6624SOL     OW31930   1.616   3.180   9.939  0.1806  0.1137  0.4545
 6624SOL    HW131931   1.656   3.266   9.908 -0.0626  0.0309 -0.0931
 6624SOL    HW231932   1.586   3.127   9.860 -3.4131  1.3175  0.9411
 6625SOL     OW31933   7.664   2.681   8.756 -0.2735  0.6166  0.0110
 6625SOL    HW131934   7.582   2.714   8.805 -0.4803  0.3826 -0.1759
 6625SOL    HW231935   7.695   2.597   8.799 -0.6606  0.2238 -0.4797
 6626SOL     OW31936   8.798   4.069   5.256  0.5447  0.3052 -0.3540
 6626SOL    HW131937   8.707   4.109   5.260  0.7988  0.7013  2.8208
 6626SOL    HW231938   8.844   4.099   5.172 -1.4013  1.9581 -0.8753
 6627SOL     OW31939   4.031   1.963   8.099  0.2589 -0.6839  0.1010
 6627SOL    HW131940   3.953   2.022   8.115  0.4458 -0.1846 -0.7837
 6627SOL    HW231941   4.084   1.997   8.021 -0.4522 -2.8392 -1.3788
 6628SOL     OW31942   0.779   2.086   0.722 -0.4042 -0.0246 -0.1979
 6628SOL    HW131943   0.737   2.114   0.635  0.1563 -0.4385 -0.6019
 6628SOL    HW231944   0.805   1.990   0.717 -2.0760 -0.5773  1.0928
 6629SOL     OW31945   5.989   0.782   3.341 -0.1027 -0.1697  0.5507
 6629SOL    HW131946   5.901   0.747   3.306  0.5521 -1.0341 -0.2834
 6629SOL    HW231947   6.010   0.737   3.427  0.6452 -1.7494 -0.4255
 6630SOL     OW31948   4.153   7.320   8.155  1.0100 -0.2806  0.0402
 6630SOL    HW131949   4.075   7.343   8.096  0.1000 -0.1578  1.2882
 6630SOL    HW231950   4.215   7.398   8.161 -0.7010  0.9424  2.0983
 6631SOL     OW31951   4.643   3.803   2.252  0.2279  0.4609  0.1650
 6631SOL    HW131952   4.562   3.744   2.257  1.0390 -0.7849 -1.1288
 6631SOL    HW231953   4.653   3.854   2.338 -0.7571 -0.9199  1.1119
 6632SOL     OW31954   9.469   4.362   9.209  0.5613 -0.2813  0.1912
 6632SOL    HW131955   9.482   4.263   9.206  1.1136 -0.1840 -1.4361
 6632SOL    HW231956   9.542   4.404   9.262  0.9957 -0.6424 -0.1236
 6633SOL     OW31957   3.199   4.103   7.910  0.1199  0.0746 -0.3123
 6633SOL    HW131958   3.135   4.179   7.921  0.5608  0.3410  0.4109
 6633SOL    HW231959   3.290   4.132   7.939  0.0049 -1.1716  1.3424
 6634SOL     OW31960   7.535   9.618   3.772  0.1872  0.1422 -0.2169
 6634SOL    HW131961   7.443   9.580   3.757  0.7389 -0.0157 -3.4883
 6634SOL    HW231962   7.540   9.710   3.733  1.5513 -0.0472 -0.5053
 6635SOL     OW31963   9.989   3.642   9.313 -0.2748  0.2278 -0.1509
 6635SOL    HW131964  10.039   3.629   9.227  0.8930  0.7369  0.4388
 6635SOL    HW231965  10.006   3.565   9.373 -1.2163 -0.2013 -0.4331
 6636SOL     OW31966   4.800   9.264   2.394  0.2635  0.5393 -0.8556
 6636SOL    HW131967   4.891   9.302   2.408  0.5414 -0.4936  0.1707
 6636SOL    HW231968   4.747   9.326   2.335  1.8038  0.8453 -1.9374
 6637SOL     OW31969   9.379   0.180   1.420  0.0405 -0.3528  0.0731
 6637SOL    HW131970   9.392   0.266   1.470 -1.1787  1.1196 -2.0734
 6637SOL    HW231971   9.443   0.177   1.343 -0.6881 -0.8699 -0.5071
 6638SOL     OW31972   3.283   2.198   7.301  0.1973 -0.5714 -0.5730
 6638SOL    HW131973   3.247   2.290   7.291  3.0694  0.6773  0.0018
 6638SOL    HW231974   3.331   2.190   7.389 -0.7843 -2.8995 -0.2099
 6639SOL     OW31975   4.436   1.541   6.002 -0.1321 -0.2485 -0.2696
 6639SOL    HW131976   4.423   1.522   5.905 -1.0428  2.1604 -0.6495
 6639SOL    HW231977   4.527   1.579   6.017  0.4310 -1.6854 -0.0048
 6640SOL     OW31978   9.164   0.021   3.632  0.6262 -0.4041 -0.4365
 6640SOL    HW131979   9.067   0.000   3.643  0.6531 -0.5667 -0.5041
 6640SOL    HW231980   9.181   0.117   3.654  0.6609 -0.6956  0.8408
 6641SOL     OW31981   4.202   5.646   9.921 -0.1565 -0.1404  0.4483
 6641SOL    HW131982   4.257   5.609   9.997  1.6837  1.5622  0.0017
 6641SOL    HW231983   4.122   5.588   9.906  2.7459 -4.1324 -0.4269
 6642SOL     OW31984   0.667   4.141   2.439 -0.2211 -0.0856 -0.2769
 6642SOL    HW131985   0.653   4.240   2.434  1.3903  0.2046  0.7253
 6642SOL    HW231986   0.723   4.110   2.362  0.8693  0.0906  0.4288
 6643SOL     OW31987   1.277   5.665   2.000  0.5192  0.2032  0.6165
 6643SOL    HW131988   1.326   5.633   2.081  0.9199  1.4223  0.8645
 6643SOL    HW231989   1.270   5.765   2.003  2.0206  0.4036 -1.7001
 6644SOL     OW31990   6.783   5.533   7.572 -0.1044 -0.5975 -0.2865
 6644SOL    HW131991   6.815   5.610   7.627 -0.0831 -0.2605 -0.7690
 6644SOL    HW231992   6.731   5.470   7.630 -1.0567  0.3329 -0.1154
 6645SOL     OW31993   1.958   9.101   3.794 -0.8984  0.0575 -0.2631
 6645SOL    HW131994   2.020   9.136   3.723  0.9337 -0.0237  1.2671
 6645SOL    HW231995   1.915   9.178   3.841 -1.5186  0.1250 -0.9327
 6646SOL     OW31996   9.345   0.097   2.205  0.5312 -0.0231 -0.2642
 6646SOL    HW131997   9.422   0.154   2.234  1.7817 -0.5825 -2.3689
 6646SOL    HW231998   9.378   0.004   2.187 -1.5330 -1.6094  3.4889
 6647SOL     OW31999   9.919   3.761   8.707  0.5339 -0.0441  0.0548
 6647SOL    HW132000   9.907   3.758   8.806  3.5488 -2.0381  0.4288
 6647SOL    HW232001   9.849   3.704   8.664 -1.5011  1.7211  0.8912
 6648SOL     OW32002   4.810   6.126   0.189  0.1687  0.0300  0.1662
 6648SOL    HW132003   4.779   6.098   0.279 -1.2700  0.8597 -0.0519
 6648SOL    HW232004   4.769   6.067   0.120 -0.7028  0.9380 -0.1054
 6649SOL     OW32005   9.120   7.690   5.008 -0.2906 -0.3389 -0.1736
 6649SOL    HW132006   9.079   7.616   4.954 -1.2147 -0.9253  1.2919
 6649SOL    HW232007   9.058   7.714   5.083  1.2988 -0.0558  1.0650
 6650SOL     OW32008   9.361   6.293   9.489 -0.0343 -0.2979  0.0775
 6650SOL    HW132009   9.357   6.321   9.585 -1.2334 -1.0140  0.2533
 6650SOL    HW232010   9.456   6.274   9.463  0.2592 -0.3813  1.2057
 6651SOL     OW32011   6.291   8.709   7.859  0.7483  0.3460  0.4080
 6651SOL    HW132012   6.214   8.650   7.836  2.0872 -1.5845  0.7678
 6651SOL    HW232013   6.258   8.802   7.877 -1.4286 -0.3547  0.1457
 6652SOL     OW32014   4.430   6.342   2.788  0.3445  0.1075  0.2229
 6652SOL    HW132015   4.450   6.305   2.878  0.5804 -0.2964  0.0043
 6652SOL    HW232016   4.479   6.290   2.718  1.5522  1.5143 -0.0067
 6653SOL     OW32017   7.823   2.397   6.019  0.7031 -0.6458  0.0129
 6653SOL    HW132018   7.919   2.417   6.037  0.2724  1.3147  0.2759
 6653SOL    HW232019   7.814   2.352   5.930  1.6876  1.2251 -1.0650
 6654SOL     OW32020   4.355   8.147   0.520 -0.6694 -0.0918 -0.2956
 6654SOL    HW132021   4.431   8.212   0.521  0.2436 -1.1451  0.7533
 6654SOL    HW232022   4.292   8.168   0.594 -0.4712 -0.2740 -0.0721
 6655SOL     OW32023   5.529   4.981   7.886  0.6173 -0.0405 -0.0579
 6655SOL    HW132024   5.581   5.036   7.951 -0.6111  0.4768  0.5085
 6655SOL    HW232025   5.432   4.986   7.909  0.4618 -2.3856 -0.0313
 6656SOL     OW32026   0.373   4.405   5.161  0.0964 -0.5151 -0.1269
 6656SOL    HW132027   0.464   4.377   5.131 -0.2749 -1.5967 -0.2565
 6656SOL    HW232028   0.310   4.401   5.083  0.3168  2.0009 -0.4857
 6657SOL     OW32029   4.296   2.261   9.647 -0.2696 -0.1409  0.0345
 6657SOL    HW132030   4.349   2.345   9.659  2.6965 -1.9933  0.5409
 6657SOL    HW232031   4.226   2.255   9.718 -0.4294  1.8152  0.0667
 6658SOL     OW32032   4.557   4.617   6.212  0.0319 -0.3932 -0.1069
 6658SOL    HW132033   4.469   4.584   6.245 -0.1582  1.5061  1.3757
 6658SOL    HW232034   4.630   4.585   6.272  0.2006 -0.7141 -0.4766
 6659SOL     OW32035   4.607   1.196   1.346  0.0323  0.1857  0.0079
 6659SOL    HW132036   4.637   1.256   1.271 -0.9770  0.6528 -0.0239
 6659SOL    HW232037   4.569   1.112   1.309 -0.9151  0.6232 -0.0259
 6660SOL     OW32038   2.682   0.656   5.727 -0.3792 -0.4033 -0.3666
 6660SOL    HW132039   2.679   0.700   5.637 -2.4780 -0.4723 -0.3611
 6660SOL    HW232040   2.758   0.694   5.780 -0.4846  1.2627 -1.3593
 6661SOL     OW32041   9.444   6.086   8.846 -0.9845 -0.0797 -0.1586
 6661SOL    HW132042   9.398   6.045   8.767 -0.3452  1.9052 -1.5763
 6661SOL    HW232043   9.495   6.015   8.895 -0.2385 -1.0608 -2.3151
 6662SOL     OW32044   8.013   7.082   2.072 -0.4100 -0.1141  0.5461
 6662SOL    HW132045   8.043   7.045   1.984 -0.6105  1.5774 -0.2594
 6662SOL    HW232046   7.963   7.168   2.057 -0.8250 -0.0307  2.2789
 6663SOL     OW32047   2.456   7.619   4.110  0.4477  0.1862 -0.1750
 6663SOL    HW132048   2.511   7.692   4.151 -2.0613 -0.0290  3.8393
 6663SOL    HW232049   2.472   7.533   4.159 -1.1309 -0.5960 -1.0018
 6664SOL     OW32050   1.723   3.952   1.165 -0.0167 -0.4722 -0.0355
 6664SOL    HW132051   1.814   3.909   1.158  0.5228  0.5694  0.4507
 6664SOL    HW232052   1.726   4.042   1.122 -0.6544 -0.1729  0.5428
 6665SOL     OW32053   3.317   7.750   9.712  0.1095  0.5253 -0.6799
 6665SOL    HW132054   3.296   7.804   9.793 -0.1190  0.6265 -0.8044
 6665SOL    HW232055   3.391   7.686   9.732 -0.2149  0.2702 -0.2734
 6666SOL     OW32056   3.744   9.156   5.026 -0.1147 -0.2934  0.3211
 6666SOL    HW132057   3.831   9.167   5.073  0.6217 -0.5695 -0.9568
 6666SOL    HW232058   3.672   9.139   5.093  0.6063  1.1038  1.4782
 6667SOL     OW32059   5.121   5.659   2.233 -0.1248  0.1773 -0.0628
 6667SOL    HW132060   5.137   5.567   2.197  0.2340  0.8409 -1.6462
 6667SOL    HW232061   5.023   5.678   2.238 -0.1724  0.5625 -2.0160
 6668SOL     OW32062   6.794   3.322   9.924 -0.4962  0.2454 -0.7121
 6668SOL    HW132063   6.879   3.375   9.923 -0.1483 -0.3006 -0.2249
 6668SOL    HW232064   6.742   3.342   9.841  0.2491  0.3561 -1.1593
 6669SOL     OW32065   5.632   4.367   1.639  0.3351  0.3289 -0.1523
 6669SOL    HW132066   5.542   4.365   1.597  0.0207  0.8020  0.4995
 6669SOL    HW232067   5.630   4.424   1.722  1.0596 -0.2018  0.2413
 6670SOL     OW32068   2.954   2.319   2.601 -0.2305  0.1678  0.0394
 6670SOL    HW132069   3.001   2.405   2.620  0.8623 -0.4082  0.0183
 6670SOL    HW232070   2.892   2.331   2.524  0.2106  0.8441 -0.2183
 6671SOL     OW32071   4.296   8.713   9.013  0.3343  0.2303 -0.0993
 6671SOL    HW132072   4.259   8.709   9.106  1.9846 -1.2588  0.5270
 6671SOL    HW232073   4.253   8.643   8.956  1.2144 -0.6228  0.2721
 6672SOL     OW32074   8.042   0.838   5.996  0.1146 -0.4000 -0.1969
 6672SOL    HW132075   7.961   0.884   6.032  0.4927  0.6550 -0.6638
 6672SOL    HW232076   8.076   0.772   6.063  0.5482  1.1959  1.1786
 6673SOL     OW32077   9.656   1.624   0.768  0.0353 -0.2753  0.0258
 6673SOL    HW132078   9.640   1.559   0.694  1.5762  0.0440 -0.5978
 6673SOL    HW232079   9.679   1.574   0.852  2.8938 -0.5408 -0.8573
 6674SOL     OW32080   7.035   6.386   2.236 -0.8433  0.1104  0.2004
 6674SOL    HW132081   7.119   6.333   2.231 -0.9989 -0.0372 -1.0584
 6674SOL    HW232082   6.961   6.328   2.270 -0.5197  0.1392  0.9537
 6675SOL     OW32083   3.355   1.872   4.277  0.2293  0.1188  0.0907
 6675SOL    HW132084   3.381   1.775   4.280 -2.6196 -0.6511  1.5197
 6675SOL    HW232085   3.276   1.887   4.336 -1.0224  2.8292 -2.1706
 6676SOL     OW32086   2.772   3.706   1.289  0.0647  0.3707 -0.2274
 6676SOL    HW132087   2.769   3.752   1.200 -0.7377 -0.5512 -0.6856
 6676SOL    HW232088   2.830   3.624   1.282  0.4811  0.6170  0.2610
 6677SOL     OW32089   6.485   9.841   5.410  0.6735 -0.0425 -0.2891
 6677SOL    HW132090   6.520   9.935   5.415 -0.0381  0.1973  0.5011
 6677SOL    HW232091   6.555   9.781   5.372  1.8561  0.4616  1.0468
 6678SOL     OW32092   5.612   2.265   1.778  0.3226  0.1900  0.3339
 6678SOL    HW132093   5.560   2.189   1.817 -0.5660 -0.1586 -1.4883
 6678SOL    HW232094   5.708   2.239   1.767  0.1658 -0.4046  0.3904
 6679SOL     OW32095   9.327   3.329   3.141  0.0828  0.4902 -0.1502
 6679SOL    HW132096   9.381   3.363   3.064  0.2294 -0.6662 -0.5667
 6679SOL    HW232097   9.385   3.274   3.201 -0.1123  1.0985  0.6045
 6680SOL     OW32098   9.724   6.504   5.863 -0.0805  0.2893 -0.0788
 6680SOL    HW132099   9.802   6.567   5.869  0.2770 -0.3169  2.3141
 6680SOL    HW232100   9.679   6.515   5.775  2.2622  1.1929 -1.2110
 6681SOL     OW32101   5.077   1.696   5.644 -0.7642  0.3958  0.0875
 6681SOL    HW132102   4.982   1.668   5.650 -0.9729  1.0399 -0.1850
 6681SOL    HW232103   5.135   1.615   5.634 -0.9954 -0.2152  3.2887
 6682SOL     OW32104   0.064   6.803   0.644  0.7311 -0.0164  0.3519
 6682SOL    HW132105   0.018   6.799   0.555  2.3074  0.1334 -0.5021
 6682SOL    HW232106   0.077   6.711   0.679 -1.7465  0.0160  1.4356
 6683SOL     OW32107   3.547   0.648   7.843  0.1836 -0.6392  0.1560
 6683SOL    HW132108   3.538   0.607   7.753 -0.2516  0.6019 -0.3740
 6683SOL    HW232109   3.633   0.700   7.848 -1.5253  2.4058 -0.8361
 6684SOL     OW32110   4.932   5.247   3.251  0.3089 -0.0392  0.4668
 6684SOL    HW132111   4.966   5.301   3.175 -0.2461 -1.3356 -0.7203
 6684SOL    HW232112   4.838   5.273   3.272  0.3415  0.0730  0.4703
 6685SOL     OW32113   5.292   3.291   2.707 -0.2663 -0.2906  0.4266
 6685SOL    HW132114   5.356   3.366   2.723 -0.9183  0.4146 -0.1655
 6685SOL    HW232115   5.200   3.329   2.691 -0.7032 -1.2438  0.6343
 6686SOL     OW32116   0.239   7.012   0.728  0.1852  0.2969  0.2719
 6686SOL    HW132117   0.150   6.970   0.715 -0.5798  2.4000 -1.5827
 6686SOL    HW232118   0.309   6.941   0.731 -1.1644 -1.1777 -1.8308
 6687SOL     OW32119   0.887   5.211   0.321  0.0855 -0.4275  0.2942
 6687SOL    HW132120   0.801   5.228   0.274  0.8900 -0.5665 -1.2917
 6687SOL    HW232121   0.876   5.134   0.384 -0.6453 -1.2354 -0.7966
 6688SOL     OW32122   8.852   5.672   7.013  0.6570  0.1508  0.3603
 6688SOL    HW132123   8.871   5.632   6.923  1.9101  2.9390 -0.6718
 6688SOL    HW232124   8.873   5.605   7.084  1.0769 -1.6022 -1.3550
 6689SOL     OW32125   3.587   5.450   0.160  0.3067  0.1521  0.5419
 6689SOL    HW132126   3.600   5.355   0.133  0.3812  0.1402  0.6181
 6689SOL    HW232127   3.545   5.453   0.252 -0.8051  0.1819  0.0455
 6690SOL     OW32128   3.299   1.996   5.311  0.1184  0.5335  0.3804
 6690SOL    HW132129   3.304   2.070   5.379  2.5903  1.0456 -0.3063
 6690SOL    HW232130   3.291   2.036   5.219  2.6166  0.0190 -0.0956
 6691SOL     OW32131   0.393   3.644   4.519 -0.1653 -0.0231 -0.2831
 6691SOL    HW132132   0.433   3.578   4.582 -0.9455  0.0816  0.3340
 6691SOL    HW232133   0.306   3.608   4.484 -0.3291  0.4461 -0.3628
 6692SOL     OW32134   0.143   9.019   1.920 -0.4167  0.0342  0.5098
 6692SOL    HW132135   0.175   8.927   1.938  1.5912  0.8435  1.1247
 6692SOL    HW232136   0.043   9.020   1.918 -0.5227 -1.5528  3.5930
 6693SOL     OW32137   2.417   8.430   4.053 -0.1246  0.4596 -0.0353
 6693SOL    HW132138   2.466   8.479   4.126 -0.6021  0.1441  0.4991
 6693SOL    HW232139   2.467   8.347   4.030 -0.4187  0.1305  0.5181
 6694SOL     OW32140   4.034   5.985   5.032 -0.3742 -0.4296 -0.4082
 6694SOL    HW132141   4.015   5.888   5.044 -0.0288 -0.3011  1.2804
 6694SOL    HW232142   3.978   6.038   5.096  0.2782  0.4103 -0.5263
 6695SOL     OW32143   1.042   9.797   6.016  0.1473 -1.2331 -0.0169
 6695SOL    HW132144   1.132   9.777   5.976 -0.2184 -0.5854 -1.2223
 6695SOL    HW232145   0.977   9.815   5.942 -0.5648 -0.0235  0.8868
 6696SOL     OW32146   4.030   3.182   0.392  0.3789 -1.0791  0.2673
 6696SOL    HW132147   4.081   3.103   0.360  0.4729 -1.2443  0.8106
 6696SOL    HW232148   4.026   3.181   0.492 -0.9141 -1.1990  0.2202
 6697SOL     OW32149   6.647   6.670   5.293 -0.2422 -0.3671  0.0304
 6697SOL    HW132150   6.623   6.594   5.353  1.4897  0.4029  1.7689
 6697SOL    HW232151   6.681   6.635   5.205  2.4742 -1.6999  1.5571
 6698SOL     OW32152   7.980   1.165   8.670 -0.1621  0.0783  0.4195
 6698SOL    HW132153   8.032   1.080   8.679  0.3814  0.5516  1.9266
 6698SOL    HW232154   8.009   1.213   8.587 -0.1150 -0.9749 -0.1690
 6699SOL     OW32155   7.751   7.315   7.471  0.0336  0.1772 -0.0890
 6699SOL    HW132156   7.818   7.241   7.466 -0.6870 -0.5766  1.2607
 6699SOL    HW232157   7.719   7.337   7.379  1.6793  0.1435 -0.6914
 6700SOL     OW32158   2.990   4.698   1.962 -0.0333  0.4855  0.2505
 6700SOL    HW132159   3.060   4.689   1.891 -0.0821 -0.3711  0.3037
 6700SOL    HW232160   2.901   4.712   1.920  0.3224  2.7243  0.2029
 6701SOL     OW32161   2.880   3.693   1.660 -0.5776 -0.0065 -0.8562
 6701SOL    HW132162   2.820   3.757   1.613  0.4240 -0.2817 -2.5450
 6701SOL    HW232163   2.975   3.722   1.647 -0.3124  0.4194  1.7578
 6702SOL     OW32164   1.665   8.222   4.170  0.4638 -0.2288  0.1799
 6702SOL    HW132165   1.636   8.176   4.253  0.7253 -0.3670  0.1949
 6702SOL    HW232166   1.692   8.154   4.101 -0.8929 -0.1541 -0.4513
 6703SOL     OW32167   8.386   0.203   3.735  0.1785 -0.7012  0.2328
 6703SOL    HW132168   8.311   0.137   3.728  1.0254 -1.6252 -0.1926
 6703SOL    HW232169   8.365   0.269   3.807 -0.0886 -2.2240  1.5865
 6704SOL     OW32170   5.871   7.763   3.277 -0.1723 -0.4889 -0.4660
 6704SOL    HW132171   5.968   7.783   3.265 -0.4640  0.2804 -1.6269
 6704SOL    HW232172   5.857   7.718   3.365  0.8647  1.9788  1.0155
 6705SOL     OW32173   0.102   8.340   3.622  0.3412  0.7588 -0.2162
 6705SOL    HW132174   0.189   8.362   3.577  0.7373  2.0067  1.1241
 6705SOL    HW232175   0.069   8.421   3.671 -1.3020  0.1245 -0.2562
 6706SOL     OW32176   8.940   7.019   6.391  0.1469 -0.4696  0.6432
 6706SOL    HW132177   9.000   6.970   6.454  1.6515  0.1532 -0.2744
 6706SOL    HW232178   8.949   6.980   6.299  0.4152  0.6882  0.1625
 6707SOL     OW32179   2.520   1.414   2.453  0.1141  0.1703 -0.3891
 6707SOL    HW132180   2.430   1.439   2.487  1.0798  0.7357  1.7903
 6707SOL    HW232181   2.564   1.495   2.413 -0.2673 -0.0792 -1.3434
 6708SOL     OW32182   9.915   8.197   4.579 -0.4802 -0.0975 -0.6544
 6708SOL    HW132183   9.874   8.118   4.534  0.7443 -1.2058  0.1668
 6708SOL    HW232184   9.958   8.256   4.510 -0.7000 -0.5543 -1.1783
 6709SOL     OW32185   9.990   7.884   6.477 -0.3171 -0.0163  0.1074
 6709SOL    HW132186   9.959   7.969   6.435 -1.5154 -2.1289 -3.4871
 6709SOL    HW232187   9.945   7.874   6.566 -0.9550  2.5939  0.1353
 6710SOL     OW32188   9.004   1.855   4.945  0.2924 -0.0708  0.3293
 6710SOL    HW132189   9.072   1.923   4.920  0.4916 -0.0075  1.0351
 6710SOL    HW232190   8.989   1.793   4.868  3.1384 -1.7413  1.0676
 6711SOL     OW32191   7.163   8.542   6.161 -0.2314  0.5863 -0.1800
 6711SOL    HW132192   7.183   8.451   6.196  0.6528  1.5077  1.7955
 6711SOL    HW232193   7.100   8.535   6.084 -1.0843 -1.6126  0.6799
 6712SOL     OW32194   8.775   1.123   9.396  0.4884  0.0281  0.7462
 6712SOL    HW132195   8.686   1.086   9.370  0.1896  0.9089  0.4971
 6712SOL    HW232196   8.844   1.093   9.330  0.0387  0.8581 -0.1119
 6713SOL     OW32197   2.989   6.354   0.641  0.2118 -0.1014  0.0043
 6713SOL    HW132198   2.936   6.294   0.702 -0.3801 -2.0976 -2.3771
 6713SOL    HW232199   2.980   6.449   0.671 -1.0040 -0.9105  2.3235
 6714SOL     OW32200   1.294   1.701   8.279  0.1014 -0.4165  0.6168
 6714SOL    HW132201   1.334   1.705   8.370  0.1256 -2.8500  0.7360
 6714SOL    HW232202   1.270   1.607   8.257  0.3565  0.0927 -2.0163
 6715SOL     OW32203   0.178   9.536   8.191  0.4510 -0.2880  0.3085
 6715SOL    HW132204   0.199   9.532   8.288 -2.1537  0.2041  0.9290
 6715SOL    HW232205   0.098   9.480   8.171 -0.5984  1.6446 -1.0879
 6716SOL     OW32206   8.879   0.297   3.533 -0.1055 -0.6682  0.0777
 6716SOL    HW132207   8.963   0.262   3.490  0.6516  0.6612  0.4310
 6716SOL    HW232208   8.871   0.395   3.515 -0.6894 -0.4505  1.4937
 6717SOL     OW32209   1.046   9.046   0.906 -0.8652 -0.4010  0.0175
 6717SOL    HW132210   1.068   9.043   1.003 -1.8467 -0.1156  0.2557
 6717SOL    HW232211   1.085   8.967   0.859 -1.2119 -1.0487  0.8205
 6718SOL     OW32212   0.722   7.063   2.349  0.5863  0.4608 -0.4696
 6718SOL    HW132213   0.644   7.007   2.323  0.7312  0.4817 -0.9487
 6718SOL    HW232214   0.689   7.147   2.393  0.2798  1.0748 -1.8296
 6719SOL     OW32215   4.342   2.940   1.556 -0.3407  0.2299  0.1288
 6719SOL    HW132216   4.404   2.918   1.632  0.0672  0.0889 -0.2437
 6719SOL    HW232217   4.334   3.039   1.547 -0.6351  0.2461  0.5538
 6720SOL     OW32218   0.901   7.729   6.479  0.2246 -0.5923  0.1994
 6720SOL    HW132219   0.879   7.755   6.573 -1.7468  1.2496 -0.7100
 6720SOL    HW232220   0.838   7.657   6.448 -0.9943  0.7864 -0.5999
 6721SOL     OW32221   1.192   8.257   1.868  0.0957  1.3819 -0.0309
 6721SOL    HW132222   1.147   8.247   1.779 -0.8421 -1.1785  0.6756
 6721SOL    HW232223   1.159   8.340   1.913 -0.3066  2.0763 -1.5646
 6722SOL     OW32224   3.474   7.422   1.323 -0.2869 -0.2850 -0.1186
 6722SOL    HW132225   3.435   7.453   1.410 -0.7442 -2.7040  0.5738
 6722SOL    HW232226   3.415   7.450   1.248 -1.1998 -0.3655  0.5633
 6723SOL     OW32227   8.429   3.545   9.778 -0.4317 -0.3772 -0.2736
 6723SOL    HW132228   8.352   3.601   9.809  0.1963  0.1781  0.3119
 6723SOL    HW232229   8.509   3.564   9.835  0.5681  0.1575 -1.8377
 6724SOL     OW32230   8.262   3.262   6.031  0.0662 -0.2568  0.0637
 6724SOL    HW132231   8.328   3.202   5.986 -0.5166 -0.0141 -1.1507
 6724SOL    HW232232   8.190   3.207   6.073  0.2350 -0.4632  0.0807
 6725SOL     OW32233   9.687   2.084   2.041 -0.4748  0.0343 -0.4555
 6725SOL    HW132234   9.660   2.176   2.012 -0.5178  0.2424  0.2263
 6725SOL    HW232235   9.717   2.087   2.137 -0.7011 -0.7078 -0.3587
 6726SOL     OW32236   9.907   4.631   7.376  0.3298 -0.1083 -0.1004
 6726SOL    HW132237   9.923   4.687   7.457  1.0630  2.0501 -1.6585
 6726SOL    HW232238   9.832   4.671   7.322  0.4181 -1.0056 -0.8959
 6727SOL     OW32239   8.096   1.104   9.006  0.1733  0.2287 -0.3117
 6727SOL    HW132240   8.142   1.180   8.961  1.5905 -0.1921  0.3751
 6727SOL    HW232241   8.074   1.033   8.939 -0.6434  1.0018 -0.8595
 6728SOL     OW32242   1.212   4.587   3.513 -0.4793 -0.2034  0.3313
 6728SOL    HW132243   1.247   4.522   3.445  0.9085  0.3302  0.5126
 6728SOL    HW232244   1.288   4.625   3.565 -1.3030  1.3308  0.4538
 6729SOL     OW32245   5.288   8.969   6.680  0.2765  0.2371  0.4883
 6729SOL    HW132246   5.249   8.877   6.686  0.7980 -0.0108  0.1361
 6729SOL    HW232247   5.375   8.972   6.729 -0.1244  0.7588  1.1749
 6730SOL     OW32248   9.041   6.747   5.928  0.0303 -0.4949 -0.3360
 6730SOL    HW132249   8.976   6.822   5.912  0.5075 -0.2307 -1.0708
 6730SOL    HW232250   9.131   6.772   5.891  0.2120 -1.4015 -0.5252
 6731SOL     OW32251   9.363   3.405   7.012 -0.6174  0.5400 -0.8245
 6731SOL    HW132252   9.455   3.367   7.007 -1.0629 -0.5252 -1.1086
 6731SOL    HW232253   9.352   3.456   7.097  0.4187  1.1681 -1.0671
 6732SOL     OW32254   9.067   6.589   2.920 -0.2480 -0.3422 -0.3771
 6732SOL    HW132255   9.145   6.652   2.925  0.3656 -1.2158  1.3399
 6732SOL    HW232256   9.101   6.496   2.907 -0.9579 -0.8528  1.3657
 6733SOL     OW32257   0.164   4.743   0.879  0.1529 -0.7257 -0.6108
 6733SOL    HW132258   0.231   4.671   0.859 -0.2257 -1.3372  0.2821
 6733SOL    HW232259   0.202   4.832   0.852  0.7547 -1.2224 -1.4222
 6734SOL     OW32260   1.011   7.009   3.747  0.2275  0.1887  0.5659
 6734SOL    HW132261   0.979   7.097   3.784  0.1551  0.5358 -0.3146
 6734SOL    HW232262   1.106   7.019   3.717  0.0699  0.0830  0.0439
 6735SOL     OW32263   5.682   3.539   1.755  0.3311  0.4594 -0.6751
 6735SOL    HW132264   5.667   3.440   1.753 -0.5198  0.5172  1.4007
 6735SOL    HW232265   5.616   3.584   1.696 -1.2848 -0.0045  0.7593
 6736SOL     OW32266   7.897   4.447   3.815  0.0229  0.5880 -0.3943
 6736SOL    HW132267   7.977   4.416   3.764  1.1435 -0.7125  2.0878
 6736SOL    HW232268   7.825   4.379   3.809  0.7693 -0.3588  1.1221
 6737SOL     OW32269   9.340   0.359   1.097 -0.6111 -0.5084 -0.6114
 6737SOL    HW132270   9.425   0.353   1.148 -1.3959 -0.4599  0.7349
 6737SOL    HW232271   9.339   0.290   1.024  0.3925 -0.7756 -0.3717
 6738SOL     OW32272   1.230   3.899   5.110  0.3180 -0.3443 -0.1617
 6738SOL    HW132273   1.139   3.908   5.070 -0.3649 -0.9561  1.2259
 6738SOL    HW232274   1.257   3.803   5.112  0.7903 -0.2155 -0.0906
 6739SOL     OW32275   3.118   6.460   6.053 -0.2123 -0.3990  0.4284
 6739SOL    HW132276   3.113   6.560   6.058 -2.0976 -0.4086 -0.7007
 6739SOL    HW232277   3.094   6.431   5.960 -1.2466 -1.9859  1.1754
 6740SOL     OW32278   7.039   5.147   0.863  0.5656  0.1201  0.0601
 6740SOL    HW132279   6.987   5.100   0.791  0.1712  1.1194 -0.3124
 6740SOL    HW232280   7.013   5.110   0.952 -0.3718  0.2195 -0.1686
 6741SOL     OW32281   6.463   5.708   2.175  0.2575  0.2360  0.3573
 6741SOL    HW132282   6.474   5.797   2.219  1.7304 -0.0453  0.5964
 6741SOL    HW232283   6.553   5.671   2.153 -0.3889 -0.7018 -0.7346
 6742SOL     OW32284   2.408   3.454   7.479  0.0444 -0.9332  0.5915
 6742SOL    HW132285   2.351   3.398   7.539 -2.2702  0.8021  0.0870
 6742SOL    HW232286   2.404   3.550   7.509  2.0194 -0.6520  0.0204
 6743SOL     OW32287   8.645   8.586   5.689  0.2200  0.3421 -0.1602
 6743SOL    HW132288   8.663   8.684   5.694 -1.0624  0.7557 -2.7435
 6743SOL    HW232289   8.685   8.549   5.606 -0.6531 -1.0235  0.0076
 6744SOL     OW32290   8.323   9.043   7.750 -0.0133  0.0573 -0.6091
 6744SOL    HW132291   8.245   9.103   7.731  0.5522  0.3276 -2.0846
 6744SOL    HW232292   8.289   8.950   7.766 -0.7170  0.3754 -0.1769
 6745SOL     OW32293   7.941   3.480   7.098 -0.1113  0.4282  0.6440
 6745SOL    HW132294   8.036   3.510   7.104 -0.4229  1.7407 -0.5554
 6745SOL    HW232295   7.887   3.529   7.167 -0.1233  0.5830  0.5267
 6746SOL     OW32296   3.910   0.481   3.960 -0.4103 -0.5975 -0.0415
 6746SOL    HW132297   3.927   0.475   4.059 -1.3160  0.5473  0.1903
 6746SOL    HW232298   3.960   0.408   3.914  1.1503 -0.2958  1.1278
 6747SOL     OW32299   1.966   1.235   7.198  0.3924 -0.3835  0.4972
 6747SOL    HW132300   1.885   1.204   7.249 -0.4364  0.5640 -0.2143
 6747SOL    HW232301   1.951   1.221   7.100 -0.0215  2.2076  0.1379
 6748SOL     OW32302   0.137   5.895   6.417 -0.2700  0.0970 -0.0334
 6748SOL    HW132303   0.138   5.891   6.517  0.6968 -0.1066 -0.0422
 6748SOL    HW232304   0.043   5.905   6.385 -0.3528  3.0960  1.0122
 6749SOL     OW32305   3.898   6.590   8.941  0.0139  0.2131 -1.0550
 6749SOL    HW132306   3.848   6.542   8.869 -0.1208 -0.1626 -0.7107
 6749SOL    HW232307   3.990   6.550   8.949  0.0855  0.3625 -1.1287
 6750SOL     OW32308   1.940   2.915   9.532 -0.2973  0.1131 -0.4787
 6750SOL    HW132309   2.034   2.896   9.504 -0.3566 -0.0594 -0.5609
 6750SOL    HW232310   1.931   3.011   9.557  0.3581 -0.2626  1.2926
 6751SOL     OW32311   4.707   9.940   5.010 -0.1155  0.4948 -0.1815
 6751SOL    HW132312   4.790   9.995   5.022 -0.4531  0.9366  0.1343
 6751SOL    HW232313   4.680   9.902   5.099 -0.0679  0.0852 -0.3414
 6752SOL     OW32314   8.539   3.277   6.697  0.6701 -0.0453  1.0451
 6752SOL    HW132315   8.543   3.258   6.599 -0.9162 -0.4544  1.0415
 6752SOL    HW232316   8.612   3.341   6.722  0.2655  1.1095 -0.6439
 6753SOL     OW32317   2.283   2.967   5.340 -0.1667  0.0531 -0.1194
 6753SOL    HW132318   2.223   2.893   5.371  0.0004  0.2194  0.5932
 6753SOL    HW232319   2.379   2.939   5.350 -0.1000  0.4194  0.2855
 6754SOL     OW32320   4.333   9.821   8.958  0.3009 -0.3873  0.3040
 6754SOL    HW132321   4.333   9.747   8.891  1.0197 -1.2976  1.2753
 6754SOL    HW232322   4.274   9.895   8.927 -0.3958 -1.3527 -0.7060
 6755SOL     OW32323   8.657   3.300   4.623  0.2667 -0.2018 -0.3373
 6755SOL    HW132324   8.595   3.223   4.615  0.6050 -0.4034 -1.0612
 6755SOL    HW232325   8.653   3.338   4.715 -1.3547  0.1409 -0.5436
 6756SOL     OW32326   3.312   1.063   4.166  0.4803 -0.0081  0.1742
 6756SOL    HW132327   3.239   1.002   4.133  1.9118 -1.6210 -0.0706
 6756SOL    HW232328   3.280   1.113   4.247 -0.8751 -0.7213  0.0935
 6757SOL     OW32329   3.031   1.440   7.925  0.0969  0.5699 -0.2058
 6757SOL    HW132330   2.988   1.359   7.886 -1.7103  2.0923 -1.4916
 6757SOL    HW232331   3.123   1.451   7.888 -0.9121  0.9799 -2.6937
 6758SOL     OW32332   5.021   8.575   8.414 -0.2019  0.6694  0.0084
 6758SOL    HW132333   4.948   8.641   8.395 -0.1980  1.1285  1.5180
 6758SOL    HW232334   4.990   8.484   8.387 -0.5337  1.1612 -1.2981
 6759SOL     OW32335   1.679   4.848   7.281 -0.0135 -0.0596  0.0391
 6759SOL    HW132336   1.636   4.765   7.246 -0.8074 -0.9686  3.0139
 6759SOL    HW232337   1.653   4.861   7.377  1.2770  2.8433  0.0449
 6760SOL     OW32338   2.188   6.076   3.644 -0.1253 -0.5317 -0.1351
 6760SOL    HW132339   2.219   6.169   3.623  0.7384 -0.1170  2.7792
 6760SOL    HW232340   2.265   6.013   3.638 -0.3733 -0.7891 -0.5714
 6761SOL     OW32341   8.903   3.222   1.426  0.3206 -0.7348 -0.0677
 6761SOL    HW132342   9.001   3.217   1.409  0.2494  0.2384 -0.7632
 6761SOL    HW232343   8.879   3.159   1.501  1.7992  0.6821  1.6420
 6762SOL     OW32344   2.511   2.267   1.145 -0.2678 -0.0281 -0.3991
 6762SOL    HW132345   2.497   2.297   1.239 -0.5134 -0.8172 -0.1771
 6762SOL    HW232346   2.579   2.325   1.100 -0.4236  0.5760  0.1501
 6763SOL     OW32347   3.307   6.745   3.628 -0.1505 -0.1875  0.6830
 6763SOL    HW132348   3.236   6.699   3.681 -1.5213  0.7300 -0.3335
 6763SOL    HW232349   3.378   6.780   3.689 -3.4125  3.9273  2.3371
 6764SOL     OW32350   2.909   8.951   6.326  1.0554  0.1038  0.3501
 6764SOL    HW132351   2.880   8.861   6.295  0.6750  1.2043 -2.5814
 6764SOL    HW232352   2.832   8.998   6.369  0.7191 -0.1716  0.0491
 6765SOL     OW32353   4.270   2.824   6.783 -0.0576 -0.2112  0.2579
 6765SOL    HW132354   4.183   2.873   6.774  0.0076  0.0916  1.2473
 6765SOL    HW232355   4.337   2.865   6.722  0.0061  0.9621  1.0982
 6766SOL     OW32356   2.633   1.219   3.188  0.4590 -0.9026 -0.2980
 6766SOL    HW132357   2.609   1.152   3.117  3.1219 -2.4507  0.2031
 6766SOL    HW232358   2.721   1.194   3.228 -0.6502  0.3892  3.0552
 6767SOL     OW32359   6.026   6.106   0.704 -0.4071  0.1537 -0.1310
 6767SOL    HW132360   5.941   6.063   0.734 -1.5412  0.9077 -2.1516
 6767SOL    HW232361   6.022   6.204   0.721  0.6516  0.0104  1.0471
 6768SOL     OW32362   9.641   2.079   9.559  0.4183  0.1687  0.7452
 6768SOL    HW132363   9.724   2.044   9.603  0.7584  1.2378  0.9670
 6768SOL    HW232364   9.591   2.136   9.624 -1.3940 -1.8490  1.1744
 6769SOL     OW32365   0.504   9.251   1.939  0.4036 -0.1884  0.1542
 6769SOL    HW132366   0.475   9.319   2.007 -0.1453  1.5228 -1.7379
 6769SOL    HW232367   0.431   9.184   1.927 -0.7876  1.2766 -0.9804
 6770SOL     OW32368   0.570   4.307   7.711 -0.1513 -0.2410  0.0830
 6770SOL    HW132369   0.592   4.368   7.635  1.0437  0.1106  0.6975
 6770SOL    HW232370   0.505   4.353   7.772 -1.7873 -0.8579 -1.1589
 6771SOL     OW32371   1.705   0.939   7.104  0.4183  0.5174 -0.0442
 6771SOL    HW132372   1.716   1.019   7.162  0.5647  1.0720 -0.8306
 6771SOL    HW232373   1.793   0.912   7.066  0.2876  0.3029 -0.2026
 6772SOL     OW32374   1.810   4.882   6.259 -0.4593  0.6324 -0.2576
 6772SOL    HW132375   1.825   4.871   6.161 -0.9139 -0.2454 -0.2341
 6772SOL    HW232376   1.725   4.837   6.285 -0.1493  0.5307  0.6041
 6773SOL     OW32377   7.254   9.656   9.194  0.1074  0.3284  0.3440
 6773SOL    HW132378   7.207   9.572   9.225 -0.2189  0.3805 -0.0130
 6773SOL    HW232379   7.308   9.693   9.270  0.9171 -0.6648  0.2655
 6774SOL     OW32380   8.306   7.125   4.835 -0.6099 -0.2959  0.1831
 6774SOL    HW132381   8.215   7.140   4.874 -0.8121  0.0796 -0.4101
 6774SOL    HW232382   8.351   7.213   4.822 -0.3687 -0.4458  0.0028
 6775SOL     OW32383   3.500   7.183   8.377  0.2811  0.5303 -0.2727
 6775SOL    HW132384   3.451   7.233   8.448  0.3459  0.1149  0.0645
 6775SOL    HW232385   3.571   7.126   8.419  1.7541  1.9086 -0.8138
 6776SOL     OW32386   3.216   8.372   0.264 -0.4153 -0.7524 -0.2022
 6776SOL    HW132387   3.306   8.334   0.285 -0.0815 -0.0418 -0.3401
 6776SOL    HW232388   3.226   8.463   0.223 -1.2678  0.3705  2.0070
 6777SOL     OW32389   0.568   0.634   7.924 -0.0403  0.3221  0.5012
 6777SOL    HW132390   0.655   0.683   7.914 -0.3909  0.7664 -0.4687
 6777SOL    HW232391   0.548   0.585   7.839  0.4951 -1.8306  1.5922
 6778SOL     OW32392   1.950   4.728   0.654  0.1245 -0.2948  0.2180
 6778SOL    HW132393   1.986   4.639   0.683  0.2671 -0.4476 -0.4289
 6778SOL    HW232394   1.909   4.719   0.564  0.0515  0.2762  0.1970
 6779SOL     OW32395   1.304   3.254   5.889 -0.0094  0.2828  0.4294
 6779SOL    HW132396   1.352   3.184   5.941 -2.1179 -0.4393  1.4302
 6779SOL    HW232397   1.268   3.323   5.951  0.7834  1.4892 -0.4257
 6780SOL     OW32398   9.259   7.156   5.053  0.1338 -0.0969  0.2205
 6780SOL    HW132399   9.212   7.226   5.107  1.3561  0.6071  0.3876
 6780SOL    HW232400   9.358   7.167   5.063  0.3501 -1.0490 -0.7859
 6781SOL     OW32401   0.319   4.292   9.286  0.2963 -0.1235 -0.6129
 6781SOL    HW132402   0.406   4.342   9.295  0.9856 -1.2667 -0.8917
 6781SOL    HW232403   0.325   4.206   9.335 -1.2297  0.4803  0.6540
 6782SOL     OW32404   9.750   6.084   3.329 -0.1104  0.1591 -0.5656
 6782SOL    HW132405   9.813   6.048   3.398 -0.1081  1.5029  0.1656
 6782SOL    HW232406   9.799   6.150   3.271 -1.4627  3.3293  1.7691
 6783SOL     OW32407   1.466   4.315   8.236  0.0700  0.2164 -0.0470
 6783SOL    HW132408   1.498   4.221   8.241  0.8552  0.3908 -1.6436
 6783SOL    HW232409   1.524   4.368   8.174 -1.5930  1.2474 -0.7753
 6784SOL     OW32410   6.297   8.225   6.658  0.1051 -0.0093 -0.0273
 6784SOL    HW132411   6.265   8.199   6.567  1.3867 -0.5035 -0.3519
 6784SOL    HW232412   6.397   8.215   6.662 -0.0302 -0.8807  1.7016
 6785SOL     OW32413   8.750   0.600   8.556  0.2080 -0.1601 -0.8216
 6785SOL    HW132414   8.835   0.557   8.525 -0.0959  0.3263 -2.3666
 6785SOL    HW232415   8.674   0.565   8.502 -0.2904  0.9309 -0.8313
 6786SOL     OW32416   6.176   8.830   2.988  0.5472  0.0970 -0.4573
 6786SOL    HW132417   6.094   8.772   3.001 -0.1793  0.7991 -1.7901
 6786SOL    HW232418   6.160   8.892   2.911  2.3570  0.2321 -0.7251
 6787SOL     OW32419   5.776   7.167   3.229  0.0158  0.1906  0.0075
 6787SOL    HW132420   5.858   7.222   3.243 -1.2972  2.5473 -1.1960
 6787SOL    HW232421   5.760   7.110   3.309  3.2862 -0.9719 -0.0910
 6788SOL     OW32422   0.530   3.807   4.310  0.6432  0.0172 -0.3553
 6788SOL    HW132423   0.506   3.729   4.368 -1.5276  0.1400 -1.0675
 6788SOL    HW232424   0.518   3.783   4.214  1.1135  0.8583 -0.6333
 6789SOL     OW32425   8.727   9.167   9.695 -0.0818  0.1953  0.3169
 6789SOL    HW132426   8.742   9.185   9.792  0.1478  1.8906 -0.0214
 6789SOL    HW232427   8.732   9.253   9.643  0.5258 -0.7813 -1.2855
 6790SOL     OW32428   2.529   7.263   6.321  0.3603 -0.0133 -0.0693
 6790SOL    HW132429   2.466   7.215   6.382  0.5245 -0.1197  0.0179
 6790SOL    HW232430   2.482   7.341   6.279 -0.8454 -2.0647 -2.6184
 6791SOL     OW32431   2.098   6.874   6.440 -0.3338 -0.4008  0.4154
 6791SOL    HW132432   2.053   6.906   6.523 -0.4641 -1.0766  0.6088
 6791SOL    HW232433   2.134   6.782   6.455 -0.3429 -0.5202 -0.2698
 6792SOL     OW32434   7.945   7.391   6.772 -0.2575 -0.1697  0.1171
 6792SOL    HW132435   8.015   7.431   6.832  0.1259  0.5784 -0.8070
 6792SOL    HW232436   7.976   7.303   6.738 -0.0517 -0.1432  0.2350
 6793SOL     OW32437   6.148   8.741   4.904  0.4146  0.1973  0.2768
 6793SOL    HW132438   6.181   8.706   4.992  0.4905 -0.8985 -0.1706
 6793SOL    HW232439   6.052   8.765   4.911  0.2490 -0.5125  0.4862
 6794SOL     OW32440   1.956   3.175   1.871 -0.0024  0.0438  0.1445
 6794SOL    HW132441   1.884   3.227   1.918 -0.1213  0.4427 -0.4740
 6794SOL    HW232442   2.041   3.227   1.874 -0.2647  0.5738 -0.9989
 6795SOL     OW32443   9.361   4.469   8.985  0.2474 -0.3196  0.3629
 6795SOL    HW132444   9.398   4.427   9.068 -0.6795  1.0728  1.4923
 6795SOL    HW232445   9.423   4.449   8.909  0.5157 -2.5861  1.1245
 6796SOL     OW32446   7.722   5.635   3.980  0.5496 -0.3288  0.2002
 6796SOL    HW132447   7.628   5.667   3.966  0.2049 -1.8895 -1.2673
 6796SOL    HW232448   7.720   5.551   4.035  1.2886  0.9331  2.2238
 6797SOL     OW32449   2.732   3.268   9.842 -0.4841 -0.4968 -0.0819
 6797SOL    HW132450   2.730   3.214   9.757 -1.0325 -0.2604 -0.2234
 6797SOL    HW232451   2.826   3.286   9.868 -0.3114 -0.5136 -0.6809
 6798SOL     OW32452   9.510   8.122   2.964 -0.2577  0.3222  0.8689
 6798SOL    HW132453   9.468   8.198   2.913  3.1228  1.6103 -0.1358
 6798SOL    HW232454   9.532   8.049   2.900  0.5267  0.3528  1.1076
 6799SOL     OW32455   5.415   9.430   3.303  0.0420  0.2603  0.1279
 6799SOL    HW132456   5.364   9.485   3.369  0.5342  0.6536  0.1852
 6799SOL    HW232457   5.385   9.452   3.210 -0.7555 -0.4026  0.2252
 6800SOL     OW32458   3.630   0.092   5.530 -0.7445 -0.2416  0.9272
 6800SOL    HW132459   3.580   0.027   5.473 -1.1334  0.6407  0.2381
 6800SOL    HW232460   3.566   0.135   5.594 -0.5202 -0.4359  1.2792
 6801SOL     OW32461   2.335   4.727   5.850 -0.0339  0.7439 -0.1034
 6801SOL    HW132462   2.254   4.699   5.799  1.2570  0.7874 -2.2510
 6801SOL    HW232463   2.391   4.788   5.794  0.3315  2.6228  2.2164
 6802SOL     OW32464   1.418   4.968   5.339 -0.3343 -0.1265  0.2457
 6802SOL    HW132465   1.421   4.905   5.262  0.1035 -0.7718  0.7859
 6802SOL    HW232466   1.380   5.055   5.309 -1.3152 -0.7685 -0.4272
 6803SOL     OW32467   2.673   2.069   1.788  0.2886  0.1084  0.3174
 6803SOL    HW132468   2.659   2.036   1.881 -0.9617 -0.6149 -0.1109
 6803SOL    HW232469   2.737   2.145   1.789 -1.0661  1.2616  1.9906
 6804SOL     OW32470   4.211   7.449   0.622  0.3157 -0.3942 -0.1000
 6804SOL    HW132471   4.171   7.534   0.587 -1.1821 -1.0193  0.0736
 6804SOL    HW232472   4.146   7.374   0.609  2.1260 -1.7706 -1.4414
 6805SOL     OW32473   9.307   8.682   8.984 -0.0253  0.1346 -0.2190
 6805SOL    HW132474   9.225   8.626   8.973  0.2114 -0.0862 -0.8937
 6805SOL    HW232475   9.311   8.752   8.912  1.2191 -0.9236 -1.2156
 6806SOL     OW32476   2.996   5.934  10.042  0.0860 -0.3382  0.0496
 6806SOL    HW132477   3.048   6.018  10.059 -0.6752  0.1988 -0.2162
 6806SOL    HW232478   2.903   5.958  10.014 -0.3201 -1.2870  0.5607
 6807SOL     OW32479   5.976   6.363   0.782  0.0621  0.3255  0.5870
 6807SOL    HW132480   6.050   6.428   0.766  0.5687 -0.7631 -1.6934
 6807SOL    HW232481   5.953   6.362   0.879  1.6785  2.1299  1.0200
 6808SOL     OW32482   8.576   0.136   8.737  0.1152  1.2169 -0.0419
 6808SOL    HW132483   8.665   0.172   8.765  0.0375  0.9614  0.5557
 6808SOL    HW232484   8.562   0.046   8.778  0.4510  0.3366 -1.8172
 6809SOL     OW32485   8.428   0.263   5.004  0.0821  0.1259  0.0258
 6809SOL    HW132486   8.358   0.299   4.942  0.6014 -1.0621 -1.2720
 6809SOL    HW232487   8.517   0.300   4.979 -0.1215  2.0492  2.0081
 6810SOL     OW32488   1.142   8.372   4.260 -0.1295  0.5272 -0.3476
 6810SOL    HW132489   1.076   8.307   4.298  1.2893 -0.9334 -0.3190
 6810SOL    HW232490   1.188   8.330   4.181  0.9276  1.4407 -0.2243
 6811SOL     OW32491   8.300   1.629   4.308 -0.4793 -0.3767 -0.3034
 6811SOL    HW132492   8.393   1.593   4.310 -0.5169 -0.4813 -0.4292
 6811SOL    HW232493   8.291   1.700   4.378 -0.9108 -1.8440  1.1533
 6812SOL     OW32494   0.334   8.976   7.666  0.2774 -0.0936  0.2966
 6812SOL    HW132495   0.259   8.920   7.629  1.0923 -1.1276  0.1816
 6812SOL    HW232496   0.296   9.060   7.705 -0.5861  1.0370 -2.8957
 6813SOL     OW32497   9.112   8.255   3.364  0.0200  0.3081  0.2104
 6813SOL    HW132498   9.029   8.211   3.331  0.3279  1.4943 -2.2993
 6813SOL    HW232499   9.113   8.351   3.334  1.2140  0.9622  2.1868
 6814SOL     OW32500   8.191   2.398   9.189  0.1204 -0.7298 -0.1567
 6814SOL    HW132501   8.258   2.324   9.195  0.1800 -0.6004  0.9057
 6814SOL    HW232502   8.099   2.360   9.197  0.1863 -0.5926  1.6542
 6815SOL     OW32503   0.589   4.488   7.482 -0.0687 -0.1714 -0.4085
 6815SOL    HW132504   0.519   4.559   7.470 -0.0584 -0.6030 -3.2783
 6815SOL    HW232505   0.680   4.528   7.471 -0.0752 -0.6732 -2.4500
 6816SOL     OW32506   7.830   0.904   9.543 -0.0542  0.2617 -0.0855
 6816SOL    HW132507   7.777   0.917   9.459  0.5021  0.1549 -0.4572
 6816SOL    HW232508   7.848   0.993   9.585  0.5265  0.4016 -0.6192
 6817SOL     OW32509   0.309   0.986   3.781 -0.1994 -0.1108  0.1782
 6817SOL    HW132510   0.365   0.939   3.712  0.2583  1.0234 -0.2401
 6817SOL    HW232511   0.297   0.926   3.861  0.5714 -0.8360 -0.2390
 6818SOL     OW32512   0.915   5.089   6.254 -0.0755  0.0283  0.0668
 6818SOL    HW132513   0.904   5.035   6.338 -0.4329  0.0931  0.0615
 6818SOL    HW232514   0.878   5.181   6.269  1.8016  0.7416  0.5356
 6819SOL     OW32515   9.504   1.555   8.079 -0.0309  0.1411  0.3824
 6819SOL    HW132516   9.571   1.533   8.008 -1.3140 -0.9247 -0.5297
 6819SOL    HW232517   9.483   1.653   8.076 -0.2372  0.0753 -0.8699
 6820SOL     OW32518   0.935   1.537   7.704 -0.1095 -1.0094  0.2117
 6820SOL    HW132519   0.937   1.602   7.780 -2.2489 -2.3254  1.4582
 6820SOL    HW232520   1.029   1.508   7.683  0.6939  0.9458  0.9421
 6821SOL     OW32521   4.606   3.407   5.734  0.1372  0.1324  0.8572
 6821SOL    HW132522   4.529   3.436   5.679  0.6019  0.9221  0.6147
 6821SOL    HW232523   4.599   3.309   5.753 -1.2556  0.3238  1.3867
 6822SOL     OW32524   4.755   4.958   4.098  0.6035 -0.5971  0.1538
 6822SOL    HW132525   4.722   4.878   4.048  1.0233 -1.6545  1.5367
 6822SOL    HW232526   4.767   4.934   4.194  1.3249  0.9667  0.4626
 6823SOL     OW32527   8.579   3.239   6.439 -0.2913  0.0286  0.0774
 6823SOL    HW132528   8.606   3.316   6.381  0.6382 -0.3956 -0.0676
 6823SOL    HW232529   8.643   3.163   6.425 -0.7319 -0.4836  0.8159
 6824SOL     OW32530   5.893   5.960   1.576 -0.6896  0.0660  0.1501
 6824SOL    HW132531   5.818   5.971   1.511  0.0882 -1.1710 -0.9879
 6824SOL    HW232532   5.948   6.043   1.578 -1.1467  0.3804 -0.2021
 6825SOL     OW32533   0.167   9.248   1.760  0.1405  0.2031 -0.5150
 6825SOL    HW132534   0.154   9.158   1.801 -2.6219  0.6758 -0.2789
 6825SOL    HW232535   0.202   9.311   1.829 -2.2779  0.4168  0.5536
 6826SOL     OW32536   3.468   4.827   0.451  0.2824 -0.7543  0.1383
 6826SOL    HW132537   3.462   4.927   0.449  2.7382 -0.5552  0.8620
 6826SOL    HW232538   3.489   4.794   0.359 -0.6686 -0.6061 -0.1297
 6827SOL     OW32539   9.802   4.447   4.346  0.4918 -1.3029  0.0292
 6827SOL    HW132540   9.879   4.510   4.360  0.3501 -1.0760 -0.2037
 6827SOL    HW232541   9.800   4.380   4.420  1.5631 -1.9839 -0.5562
 6828SOL     OW32542   7.501   1.522   8.961 -0.0627 -0.1461  0.1428
 6828SOL    HW132543   7.448   1.487   9.038  0.4617 -4.0464 -1.1572
 6828SOL    HW232544   7.439   1.554   8.889 -0.5942 -0.1118  0.6142
 6829SOL     OW32545   4.833   9.255   8.510  0.2555 -0.5296 -0.6998
 6829SOL    HW132546   4.828   9.314   8.591 -0.5017  0.1936 -1.2675
 6829SOL    HW232547   4.795   9.303   8.431 -0.1743 -1.6988 -1.2213
 6830SOL     OW32548   4.278   1.851   5.282  0.4054 -0.1713 -0.2726
 6830SOL    HW132549   4.187   1.883   5.257  0.0906  0.0449  1.1058
 6830SOL    HW232550   4.300   1.768   5.231 -0.0844  0.4351 -1.4737
 6831SOL     OW32551   2.542   7.951   4.574  0.1240  0.2531  0.2029
 6831SOL    HW132552   2.569   7.936   4.479 -1.0704  0.7495 -0.2272
 6831SOL    HW232553   2.490   8.036   4.581 -1.1173 -0.5632  1.0359
 6832SOL     OW32554   0.081   7.718   4.191 -0.1208 -0.2474  0.3096
 6832SOL    HW132555   0.002   7.746   4.245 -0.0805  0.4027  0.0268
 6832SOL    HW232556   0.131   7.798   4.159  1.4438 -0.6572  1.6285
 6833SOL     OW32557   4.028   0.679   3.144 -0.6905 -0.0445 -0.5655
 6833SOL    HW132558   3.976   0.688   3.229 -0.0119 -3.3730  0.2644
 6833SOL    HW232559   4.115   0.633   3.163  1.0734  2.3748 -2.5019
 6834SOL     OW32560   3.865   8.754   4.043  0.2007 -0.2910 -0.2646
 6834SOL    HW132561   3.932   8.826   4.063  1.0303 -0.9149 -0.7554
 6834SOL    HW232562   3.801   8.786   3.974 -0.3656  0.5207  0.6251
 6835SOL     OW32563   5.677   9.361   2.843 -0.0691 -0.9727 -0.4982
 6835SOL    HW132564   5.578   9.355   2.852  0.1908 -2.2802  2.0824
 6835SOL    HW232565   5.706   9.316   2.758 -1.5780 -1.6120 -0.6836
 6836SOL     OW32566   7.489   3.853   2.750  0.6962  0.1163  0.7704
 6836SOL    HW132567   7.506   3.828   2.654  0.9932  0.1206  0.8200
 6836SOL    HW232568   7.564   3.818   2.807  0.7799  0.5558  0.9313
 6837SOL     OW32569   2.338   3.962   1.619  0.2727 -0.0631 -0.0964
 6837SOL    HW132570   2.383   3.972   1.530 -0.8326  0.6021 -0.5861
 6837SOL    HW232571   2.262   4.026   1.626  1.7809  1.5629  2.2599
 6838SOL     OW32572   6.120   0.897   5.430 -0.0943 -0.4042  0.2108
 6838SOL    HW132573   6.047   0.916   5.495 -0.2100 -0.9782  0.2513
 6838SOL    HW232574   6.191   0.842   5.474 -0.0194 -0.5250 -0.0605
 6839SOL     OW32575   9.637   3.839   8.122 -0.0572  0.4073 -0.4116
 6839SOL    HW132576   9.683   3.843   8.033  1.1222 -0.5891  0.1353
 6839SOL    HW232577   9.597   3.748   8.134 -0.5632  0.6715 -0.0920
 6840SOL     OW32578   6.947   0.267   5.623  0.2240 -0.0113 -0.1603
 6840SOL    HW132579   6.863   0.281   5.676  0.8671 -0.1008  0.9038
 6840SOL    HW232580   6.924   0.240   5.529 -0.9361  0.5608 -0.0406
 6841SOL     OW32581   8.240   6.021   5.159 -0.3663 -0.1033 -0.3403
 6841SOL    HW132582   8.290   6.107   5.154 -2.6758  1.3814  1.3715
 6841SOL    HW232583   8.153   6.030   5.111 -0.7469 -1.4153  0.0751
 6842SOL     OW32584   6.045   4.413   0.855 -0.5013 -0.4443  0.3197
 6842SOL    HW132585   5.951   4.384   0.837 -0.6825  0.6638 -0.5574
 6842SOL    HW232586   6.100   4.399   0.773 -0.3520  0.7318  0.2167
 6843SOL     OW32587   3.802   7.891   2.216 -0.2291 -0.5822 -0.0823
 6843SOL    HW132588   3.895   7.865   2.191 -0.0922  0.0091 -0.2022
 6843SOL    HW232589   3.803   7.937   2.305 -0.4819 -1.0886  0.1830
 6844SOL     OW32590   9.326   4.710   6.558  0.6047 -0.1633  0.4125
 6844SOL    HW132591   9.295   4.805   6.549 -1.1247 -0.6088  1.2748
 6844SOL    HW232592   9.253   4.655   6.600  0.6667 -2.3650 -2.1638
 6845SOL     OW32593   6.310   1.740   8.928  0.0882 -0.4951  0.1086
 6845SOL    HW132594   6.211   1.742   8.913 -0.1571 -2.7030  1.1670
 6845SOL    HW232595   6.337   1.818   8.985 -1.1524 -0.2550  0.3879
 6846SOL     OW32596   1.538   2.629   0.714 -0.7861 -0.7870 -0.3686
 6846SOL    HW132597   1.569   2.535   0.730  1.3082  0.1917  1.6317
 6846SOL    HW232598   1.617   2.690   0.711 -2.1644  1.0166 -1.0436
 6847SOL     OW32599   7.628   2.482   9.564  0.3900 -0.0314 -0.3475
 6847SOL    HW132600   7.687   2.403   9.584  1.8526  1.4132  1.1965
 6847SOL    HW232601   7.554   2.486   9.630 -0.0056 -0.4280 -0.7669
 6848SOL     OW32602   3.020   6.052   3.234 -0.0532  0.1472 -0.4841
 6848SOL    HW132603   3.031   6.006   3.146  0.2404 -1.7438  0.5196
 6848SOL    HW232604   2.942   6.115   3.229  1.1133  1.4773 -2.6504
 6849SOL     OW32605   7.608   0.729   4.998 -0.2668 -0.1567  0.2776
 6849SOL    HW132606   7.680   0.743   5.066  1.2954  0.4313 -1.4587
 6849SOL    HW232607   7.589   0.816   4.951  0.3689 -1.0312 -1.6675
 6850SOL     OW32608   4.719   2.314   1.221 -0.8580 -0.1518 -0.2533
 6850SOL    HW132609   4.653   2.247   1.256  1.4532 -2.1786  0.3611
 6850SOL    HW232610   4.752   2.284   1.132  1.3916 -0.7536  0.7301
 6851SOL     OW32611   4.682   5.868   7.880 -0.2693 -0.3004  1.0318
 6851SOL    HW132612   4.593   5.828   7.859 -1.2054  1.8875  0.6648
 6851SOL    HW232613   4.753   5.826   7.823 -1.6451  0.4231 -1.2790
 6852SOL     OW32614   5.808   7.551   5.830  0.3535 -0.4056  0.1553
 6852SOL    HW132615   5.822   7.452   5.836  0.2875 -0.5057 -1.1856
 6852SOL    HW232616   5.777   7.575   5.737  1.1886  0.9746  0.2195
 6853SOL     OW32617   3.261   9.312   5.362  0.0429  1.1258  0.1094
 6853SOL    HW132618   3.278   9.371   5.441  2.1238  0.1020  0.4509
 6853SOL    HW232619   3.272   9.216   5.387  0.6628  0.7800 -1.3903
 6854SOL     OW32620   0.139   0.669   3.406 -0.0622 -0.1031  0.3337
 6854SOL    HW132621   0.236   0.672   3.382 -0.1627  1.0494  0.0765
 6854SOL    HW232622   0.126   0.611   3.487  0.9023  0.2329  0.7234
 6855SOL     OW32623   6.481   8.043   6.270  1.0806  0.4214  0.1036
 6855SOL    HW132624   6.528   8.119   6.315 -0.0607  0.4595  1.2553
 6855SOL    HW232625   6.390   8.072   6.242  0.6734 -0.4955  0.4632
 6856SOL     OW32626   7.386   0.901   5.226  0.3015 -0.6406  0.1307
 6856SOL    HW132627   7.347   0.810   5.240 -0.5461 -0.4407 -0.8572
 6856SOL    HW232628   7.351   0.940   5.141 -1.7832  1.8619  2.0379
 6857SOL     OW32629   9.591   0.140   1.661  0.5381 -0.1632  0.1478
 6857SOL    HW132630   9.506   0.137   1.715 -0.7298  0.5972 -1.7612
 6857SOL    HW232631   9.630   0.231   1.666  0.1050  0.0706 -0.6821
 6858SOL     OW32632   6.538   0.818   7.350  0.1954  0.4102  0.2011
 6858SOL    HW132633   6.516   0.914   7.366 -1.9815 -0.0067 -0.1824
 6858SOL    HW232634   6.507   0.764   7.428  0.3179 -0.1419 -0.1313
 6859SOL     OW32635   8.357   6.847   9.371  0.2895 -0.0087  0.3882
 6859SOL    HW132636   8.443   6.898   9.371  1.7125 -2.3115 -1.6676
 6859SOL    HW232637   8.282   6.909   9.396  2.4100  2.1949  1.5363
 6860SOL     OW32638   2.728   5.794   5.650  0.0311 -0.0333 -0.4033
 6860SOL    HW132639   2.724   5.862   5.723  0.2738  0.8441 -1.2031
 6860SOL    HW232640   2.670   5.823   5.574 -0.7930 -1.2963 -0.2700
 6861SOL     OW32641   3.074   2.893   3.720 -0.4931 -0.2315  0.3250
 6861SOL    HW132642   3.119   2.980   3.700 -1.3438  0.3607  0.9294
 6861SOL    HW232643   3.133   2.836   3.777 -0.2093  0.2257  0.4866
 6862SOL     OW32644   7.821   9.730   6.129 -0.2986  0.3636  0.7865
 6862SOL    HW132645   7.747   9.793   6.152 -0.2787  0.1129  1.5552
 6862SOL    HW232646   7.785   9.637   6.121 -0.1691  0.3318  0.5614
 6863SOL     OW32647   5.664   6.097   2.201 -0.0122  0.1218 -0.5031
 6863SOL    HW132648   5.631   6.028   2.137  1.5494 -1.3912  0.2754
 6863SOL    HW232649   5.735   6.057   2.260  0.0808  2.0613  0.7573
 6864SOL     OW32650   6.484   4.508   9.772  0.6290  0.0967 -0.5865
 6864SOL    HW132651   6.551   4.439   9.801  2.3163  0.9263 -2.3827
 6864SOL    HW232652   6.473   4.503   9.672 -1.1161  0.7763 -0.4432
 6865SOL     OW32653   4.264   1.359   5.576  0.6844 -0.3257  0.1663
 6865SOL    HW132654   4.279   1.388   5.482  1.3050 -2.3600 -0.3739
 6865SOL    HW232655   4.280   1.261   5.585  4.0006  0.3560  3.0831
 6866SOL     OW32656   5.927   0.701   8.967  0.4546 -0.4195 -0.0159
 6866SOL    HW132657   5.938   0.609   9.007  0.0175 -0.0108  1.0645
 6866SOL    HW232658   5.906   0.693   8.870 -0.0258 -1.4829  0.1695
 6867SOL     OW32659   6.140   0.957   5.797  0.6883  0.2512  0.2572
 6867SOL    HW132660   6.191   1.036   5.764  3.1249 -1.5454 -0.4022
 6867SOL    HW232661   6.145   0.883   5.729 -2.3103 -0.1838  0.4469
 6868SOL     OW32662   8.988   7.064   7.808 -0.5119  0.3138  0.1109
 6868SOL    HW132663   8.913   7.129   7.822 -0.3619  0.2845  1.0900
 6868SOL    HW232664   8.956   6.986   7.755 -1.8620 -0.9271  2.6547
 6869SOL     OW32665   2.224   4.171   4.811 -0.3312 -0.7079 -0.1547
 6869SOL    HW132666   2.224   4.165   4.911  3.6398 -0.7016 -0.0595
 6869SOL    HW232667   2.235   4.079   4.773 -0.0160 -0.5285 -0.5002
 6870SOL     OW32668   5.049   5.232   7.175  0.3863 -0.1402  0.0580
 6870SOL    HW132669   5.058   5.234   7.076  2.0169 -0.5535  0.1915
 6870SOL    HW232670   4.968   5.284   7.202  0.0232  0.1021 -1.4737
 6871SOL     OW32671   9.072   5.814   5.393  0.1928 -0.3047  0.1827
 6871SOL    HW132672   9.168   5.786   5.395 -0.1342 -1.3861  1.1405
 6871SOL    HW232673   9.059   5.893   5.453  0.3467 -0.5860  0.5852
 6872SOL     OW32674   1.995   7.128   8.389  0.4480  0.4919  0.0968
 6872SOL    HW132675   1.955   7.062   8.452  0.5585 -0.8455 -1.2136
 6872SOL    HW232676   1.945   7.215   8.395 -2.1112 -0.8737 -0.8787
 6873SOL     OW32677   4.823   7.052   4.151  0.2361  0.1346  0.7522
 6873SOL    HW132678   4.907   7.002   4.133  0.2239  0.9148 -1.6549
 6873SOL    HW232679   4.757   6.991   4.197  1.0673 -1.3200  0.0472
 6874SOL     OW32680   5.521   0.020   8.350 -0.0394 -0.2461  0.0482
 6874SOL    HW132681   5.557   0.050   8.261  0.1949 -1.1235 -0.1553
 6874SOL    HW232682   5.544  -0.076   8.364 -1.9300 -0.7037  0.1051
 6875SOL     OW32683   0.351   9.405   0.700  0.3403 -0.6230 -0.0895
 6875SOL    HW132684   0.399   9.442   0.780 -0.4333 -0.9262  0.5229
 6875SOL    HW232685   0.416   9.393   0.625  0.7999  1.0195  0.0249
 6876SOL     OW32686   8.140   0.509   2.573  0.2595 -0.0940 -0.1299
 6876SOL    HW132687   8.085   0.515   2.490  2.3382  1.3957 -1.4500
 6876SOL    HW232688   8.212   0.440   2.561  2.1525  1.9032 -0.5668
 6877SOL     OW32689   2.634   0.227   5.909 -0.1816 -0.6023  0.5491
 6877SOL    HW132690   2.685   0.165   5.850 -0.8110 -1.9098  1.3581
 6877SOL    HW232691   2.697   0.270   5.974  0.2380 -0.4648  0.0573
 6878SOL     OW32692   4.844   5.175   0.635  0.3170  0.2852 -0.5734
 6878SOL    HW132693   4.858   5.272   0.652  0.0403  0.3000 -0.4401
 6878SOL    HW232694   4.749   5.150   0.655  0.6854 -0.2596  0.5431
 6879SOL     OW32695   9.265   6.225   6.027  0.3381 -0.9907 -0.1423
 6879SOL    HW132696   9.179   6.233   5.976  0.9442 -0.2221 -1.0769
 6879SOL    HW232697   9.325   6.301   6.002  2.0219 -2.5498 -0.9126
 6880SOL     OW32698   9.738   6.019   8.134  0.2752 -0.0439 -0.1168
 6880SOL    HW132699   9.701   5.981   8.218  1.1190 -1.6368 -0.4324
 6880SOL    HW232700   9.704   5.967   8.056  0.1024  0.9386 -0.7066
 6881SOL     OW32701   8.324   6.191   9.866 -0.0575  0.3540  0.1623
 6881SOL    HW132702   8.319   6.150   9.958  2.0339  0.2868  0.2821
 6881SOL    HW232703   8.265   6.140   9.804  0.6298 -1.3397  0.8663
 6882SOL     OW32704   2.593   5.695   8.329 -0.6489  0.0443  0.3493
 6882SOL    HW132705   2.523   5.638   8.372 -2.6647  2.1107 -0.1396
 6882SOL    HW232706   2.610   5.661   8.236  1.7497 -2.7300  1.6870
 6883SOL     OW32707   0.787   9.378   4.235 -0.7763 -0.4374 -0.3408
 6883SOL    HW132708   0.856   9.382   4.163 -0.9587 -2.6826 -0.6601
 6883SOL    HW232709   0.760   9.283   4.251 -0.7554  0.0125  2.6600
 6884SOL     OW32710   7.795   9.697   9.441 -0.3482 -0.0574 -0.3150
 6884SOL    HW132711   7.778   9.651   9.354  0.5021  0.2162 -0.6329
 6884SOL    HW232712   7.733   9.774   9.451 -0.9031 -0.4912 -0.3679
 6885SOL     OW32713   7.159   0.233   6.861  0.2830 -1.0071 -0.0754
 6885SOL    HW132714   7.180   0.323   6.899 -0.9014 -0.9652  0.5301
 6885SOL    HW232715   7.179   0.163   6.930  1.5017 -1.2315 -0.6597
 6886SOL     OW32716   3.944   9.056   1.002  0.3110 -0.2150 -0.5735
 6886SOL    HW132717   3.963   8.974   1.057  2.4344  1.1983  0.8483
 6886SOL    HW232718   3.845   9.069   0.996 -0.0971 -3.1716 -1.2895
 6887SOL     OW32719   0.001   7.773   9.019  0.0862 -0.1224  0.0727
 6887SOL    HW132720   0.041   7.784   9.110 -0.7658  0.0699  0.4347
 6887SOL    HW232721   0.015   7.679   8.988  1.8433  0.2490 -0.3225
 6888SOL     OW32722   7.198   2.703   1.903  0.1863  0.0152 -0.3435
 6888SOL    HW132723   7.190   2.696   2.002  2.6831 -2.6478 -0.2778
 6888SOL    HW232724   7.206   2.799   1.876  0.7392  0.6798  2.1194
 6889SOL     OW32725   8.983   9.569   3.634  0.0735 -0.4058  0.1823
 6889SOL    HW132726   8.986   9.472   3.614  0.6828 -0.8912  2.5063
 6889SOL    HW232727   8.912   9.587   3.702 -0.0121  0.7715 -0.1958
 6890SOL     OW32728   2.056   1.826   6.620  0.4837 -0.2882  0.6731
 6890SOL    HW132729   2.045   1.843   6.522  0.4230  0.8719  0.8793
 6890SOL    HW232730   1.975   1.778   6.654  1.7405 -3.2680 -0.4084
 6891SOL     OW32731   3.556   1.438   4.151 -0.3864  0.5381 -0.5093
 6891SOL    HW132732   3.611   1.484   4.081 -2.0784 -0.0704 -2.2818
 6891SOL    HW232733   3.528   1.348   4.117 -0.1057 -0.3446  1.5077
 6892SOL     OW32734   2.734   0.773   1.974 -0.2705 -0.1823 -0.0970
 6892SOL    HW132735   2.778   0.747   1.889  2.1289 -2.7590  1.8649
 6892SOL    HW232736   2.786   0.847   2.017  0.1561 -0.8318  0.5117
 6893SOL     OW32737   7.429   2.604   5.541 -0.3090  0.1083 -0.1644
 6893SOL    HW132738   7.375   2.657   5.475 -0.9673  1.0542  1.1176
 6893SOL    HW232739   7.491   2.665   5.590  1.4152 -0.8652 -1.1105
 6894SOL     OW32740   7.132   5.442   7.132  0.0484  0.5102 -0.1869
 6894SOL    HW132741   7.156   5.345   7.127  2.3858  1.0606 -0.4566
 6894SOL    HW232742   7.184   5.485   7.206  0.1904  1.8648 -1.0551
 6895SOL     OW32743   4.562   1.534   4.477 -0.3659  0.0466 -0.5498
 6895SOL    HW132744   4.583   1.609   4.414  0.8787  0.2340  0.0708
 6895SOL    HW232745   4.540   1.571   4.567  1.9259 -0.3575  0.2301
 6896SOL     OW32746   2.724   9.109   5.846 -0.1116  0.2179 -0.5950
 6896SOL    HW132747   2.720   9.196   5.796  2.3379  0.7595  0.0673
 6896SOL    HW232748   2.687   9.122   5.938 -0.7276  0.3027 -0.8558
 6897SOL     OW32749   9.326   8.678   7.217 -0.6241 -0.2340  0.2161
 6897SOL    HW132750   9.303   8.754   7.156  0.6312 -0.2629 -0.2958
 6897SOL    HW232751   9.419   8.688   7.251 -0.0084 -2.1964 -0.8403
 6898SOL     OW32752   3.485   8.183   4.716  0.0716  0.3479 -0.0407
 6898SOL    HW132753   3.576   8.222   4.724 -0.2797  0.9049  1.3589
 6898SOL    HW232754   3.417   8.249   4.748 -0.8480 -0.0073 -1.1968
 6899SOL     OW32755   0.551   2.795   2.521  0.4080  0.2205  0.0583
 6899SOL    HW132756   0.553   2.853   2.439 -0.6501 -0.4844 -0.4785
 6899SOL    HW232757   0.630   2.816   2.579  0.1503  2.0395 -0.2304
 6900SOL     OW32758   4.723   6.337   4.286 -0.1466  0.0682 -0.2275
 6900SOL    HW132759   4.779   6.262   4.252  1.4392  0.9663  0.3887
 6900SOL    HW232760   4.756   6.423   4.248 -0.5114  0.7040  0.8795
 6901SOL     OW32761   2.702   0.422   3.149  0.7652 -0.0216  0.1453
 6901SOL    HW132762   2.783   0.371   3.178  0.4721 -0.6927 -0.1916
 6901SOL    HW232763   2.635   0.358   3.112  1.3173  0.8758 -2.4572
 6902SOL     OW32764   1.283   5.933   1.617 -0.1809 -0.2525  0.1355
 6902SOL    HW132765   1.357   5.868   1.634 -1.3937 -2.2708 -1.8699
 6902SOL    HW232766   1.255   5.927   1.521 -0.6876  2.9106  0.0367
 6903SOL     OW32767   1.780   4.422   0.577  0.2872 -0.0687 -0.4853
 6903SOL    HW132768   1.757   4.360   0.501  2.9524 -1.6491 -0.0677
 6903SOL    HW232769   1.878   4.438   0.577  0.0026  1.7363  1.3052
 6904SOL     OW32770   9.606   6.504   9.114  0.3604  0.3915  0.1508
 6904SOL    HW132771   9.616   6.517   9.213 -0.5089  0.5562  0.2191
 6904SOL    HW232772   9.537   6.434   9.096  0.9905 -0.1071 -0.3300
 6905SOL     OW32773   2.839   9.184   9.907 -0.1192  0.0400  0.5529
 6905SOL    HW132774   2.796   9.251   9.847 -0.4898  0.8542  1.7066
 6905SOL    HW232775   2.794   9.185   9.996 -0.4538 -2.0990  0.4342
 6906SOL     OW32776   9.610   4.506  10.041 -0.0311  0.3096 -0.0531
 6906SOL    HW132777   9.650   4.424  10.000  2.3028  2.2622 -1.8610
 6906SOL    HW232778   9.538   4.541   9.981 -0.8465 -0.2572  0.5896
 6907SOL     OW32779   7.572   3.259   1.358 -0.2504  0.2933  0.5397
 6907SOL    HW132780   7.503   3.234   1.426  0.4604  0.4972  1.3456
 6907SOL    HW232781   7.608   3.177   1.315 -0.6940  0.1618  0.4232
 6908SOL     OW32782   2.186   0.126   6.198 -0.3560  0.2597  0.7951
 6908SOL    HW132783   2.157   0.220   6.185 -2.4378 -0.6357 -1.3969
 6908SOL    HW232784   2.268   0.109   6.143 -0.5988  0.5045  0.3563
 6909SOL     OW32785   0.354   7.244   1.444 -0.4591  0.2353 -0.0021
 6909SOL    HW132786   0.304   7.286   1.368  1.1605 -0.8889 -1.7213
 6909SOL    HW232787   0.397   7.316   1.499 -0.8394  1.0118 -0.7021
 6910SOL     OW32788   0.757   3.411   8.467 -0.6482  0.3339 -0.9334
 6910SOL    HW132789   0.808   3.335   8.425  0.0007  0.0256  0.3749
 6910SOL    HW232790   0.803   3.497   8.447 -0.1931  0.1620 -0.6333
 6911SOL     OW32791   8.327   8.876   1.477  0.5045  0.0157 -0.1197
 6911SOL    HW132792   8.401   8.943   1.484  0.1032  0.5047 -0.5454
 6911SOL    HW232793   8.260   8.893   1.549  0.6695 -0.2682  0.1053
 6912SOL     OW32794   0.415   2.570   0.845  0.1211  0.6815 -0.0947
 6912SOL    HW132795   0.336   2.621   0.811  0.1379  1.4523  1.0014
 6912SOL    HW232796   0.424   2.584   0.943  2.3842  1.6679 -0.4072
 6913SOL     OW32797   9.881   4.856   1.710 -0.7388  0.2448 -0.3813
 6913SOL    HW132798   9.952   4.805   1.758 -0.7288 -0.1669 -0.8200
 6913SOL    HW232799   9.840   4.797   1.639 -1.4219  0.5158 -0.2215
 6914SOL     OW32800   3.231   9.357   4.478  0.0805 -0.5294  0.0340
 6914SOL    HW132801   3.281   9.435   4.515 -0.9070  0.2732 -0.3045
 6914SOL    HW232802   3.292   9.278   4.471  1.4045  0.5420 -0.7097
 6915SOL     OW32803   0.052   6.795   5.423 -0.1145 -0.2262 -0.2602
 6915SOL    HW132804   0.143   6.758   5.444 -0.1467  0.2939  0.8301
 6915SOL    HW232805   0.059   6.894   5.409 -0.4241 -0.2729 -0.7568
 6916SOL     OW32806   3.768   0.262   1.355 -0.5666  0.3648  0.7055
 6916SOL    HW132807   3.730   0.217   1.274  0.9212 -1.3421  0.9138
 6916SOL    HW232808   3.827   0.197   1.404  0.0942  1.9811  2.0858
 6917SOL     OW32809   7.287   5.561   5.095  0.1330  0.0982  0.4514
 6917SOL    HW132810   7.371   5.558   5.150 -0.1892 -0.3076  0.9209
 6917SOL    HW232811   7.216   5.507   5.139  0.0901 -0.8268 -0.7301
 6918SOL     OW32812   1.283   7.051   5.790 -0.3454  0.2568  0.2764
 6918SOL    HW132813   1.279   7.146   5.758 -1.8494  0.3874  0.8241
 6918SOL    HW232814   1.305   7.049   5.887  2.5687 -0.0870 -0.3363
 6919SOL     OW32815   4.833   9.378   5.292  0.2208 -0.4930 -0.4496
 6919SOL    HW132816   4.865   9.298   5.242  0.7098 -1.4611  1.3776
 6919SOL    HW232817   4.762   9.425   5.238  0.2959 -1.8423 -1.7588
 6920SOL     OW32818   2.246   5.971   3.102  0.0035 -0.3613  0.2654
 6920SOL    HW132819   2.173   5.985   3.035  0.0958 -0.5894  0.1155
 6920SOL    HW232820   2.207   5.954   3.192 -0.1090  1.6331  0.6081
 6921SOL     OW32821   6.383   9.304   6.681 -0.4780 -0.2339 -0.3568
 6921SOL    HW132822   6.436   9.382   6.716 -1.6989  0.5171 -0.1517
 6921SOL    HW232823   6.364   9.240   6.755 -0.4288 -0.1787 -0.2963
 6922SOL     OW32824   9.263   4.930   7.171  0.1010  0.3783  0.4263
 6922SOL    HW132825   9.225   5.004   7.115  0.5769 -0.0708 -0.5100
 6922SOL    HW232826   9.312   4.866   7.112  0.0379 -0.4703  1.2792
 6923SOL     OW32827   0.156   4.114   1.147  0.2539 -0.0910  0.2062
 6923SOL    HW132828   0.229   4.066   1.197 -0.7468  1.3001  3.0772
 6923SOL    HW232829   0.123   4.055   1.073  1.9616 -2.0987  0.9706
 6924SOL     OW32830   9.685   1.562   2.545 -0.2046  0.3827  0.3515
 6924SOL    HW132831   9.730   1.650   2.556  0.8102 -0.2491  1.2967
 6924SOL    HW232832   9.752   1.492   2.522 -1.1466  0.0409 -1.4938
 6925SOL     OW32833   5.102   1.051   1.181  0.0078 -0.0419  0.4152
 6925SOL    HW132834   5.128   0.956   1.198  0.9648  0.3140  1.0032
 6925SOL    HW232835   5.002   1.058   1.177 -0.0627 -1.0959  0.1959
 6926SOL     OW32836   4.324   8.302   7.053  0.3839  0.3468 -0.0762
 6926SOL    HW132837   4.285   8.246   7.126  2.0525  0.4050  0.8839
 6926SOL    HW232838   4.365   8.243   6.983 -1.0378  0.2977 -0.8940
 6927SOL     OW32839   3.212   7.204   8.794 -0.6769  0.3486 -0.3120
 6927SOL    HW132840   3.289   7.236   8.739  0.2350 -1.5266 -0.1649
 6927SOL    HW232841   3.212   7.250   8.882  1.0989 -0.6429  0.2135
 6928SOL     OW32842   9.124   5.209   5.917  0.3000 -0.3005 -0.2930
 6928SOL    HW132843   9.156   5.172   5.830 -0.7001 -0.7756 -0.4658
 6928SOL    HW232844   9.200   5.253   5.965  0.7470  0.4069 -1.6303
 6929SOL     OW32845   2.683   5.652   7.698 -0.2851  0.5276 -0.1805
 6929SOL    HW132846   2.588   5.628   7.720 -0.0648  0.5787  0.8750
 6929SOL    HW232847   2.699   5.748   7.720  0.4017  0.1487  1.0510
 6930SOL     OW32848   2.682   0.779   9.816  0.5041 -0.0266  0.7992
 6930SOL    HW132849   2.696   0.796   9.718  1.3882 -0.4679  0.8417
 6930SOL    HW232850   2.599   0.726   9.830  0.0160  0.6094  0.3399
 6931SOL     OW32851   8.080   0.330   5.304  0.6281  0.3058  0.1240
 6931SOL    HW132852   8.022   0.292   5.375  0.9932  1.0556  0.8271
 6931SOL    HW232853   8.173   0.295   5.315 -0.0200 -2.2747 -2.0368
 6932SOL     OW32854   0.834   5.324   6.331 -0.5851 -0.0740 -0.2084
 6932SOL    HW132855   0.751   5.348   6.381  0.8859 -0.0230  2.3453
 6932SOL    HW232856   0.914   5.342   6.389  1.1294 -1.5288 -2.0309
 6933SOL     OW32857   5.604   8.529   2.412 -0.0046 -0.1946  0.2955
 6933SOL    HW132858   5.602   8.446   2.468 -2.4288 -0.6803 -0.4720
 6933SOL    HW232859   5.631   8.506   2.319  0.6706  0.0923  0.4178
 6934SOL     OW32860   4.150   0.077   4.258  0.0026 -0.0899 -0.0654
 6934SOL    HW132861   4.194   0.123   4.334  1.0838  0.3230 -0.9329
 6934SOL    HW232862   4.080   0.136   4.219  0.8348  0.5101 -0.6673
 6935SOL     OW32863   7.601   9.843   2.862  0.3226  0.1715  0.3515
 6935SOL    HW132864   7.672   9.802   2.805  0.2195  0.1662  0.2278
 6935SOL    HW232865   7.530   9.883   2.804  1.0831  1.6779  0.4639
 6936SOL     OW32866   9.597   5.505  10.040 -0.4051  0.5186  0.2178
 6936SOL    HW132867   9.582   5.486   9.943 -1.8218  3.2805 -0.1558
 6936SOL    HW232868   9.684   5.553  10.051  0.4330 -1.0377  0.5037
 6937SOL     OW32869   2.016   9.331   5.222  0.4338  0.0329  0.1362
 6937SOL    HW132870   1.968   9.245   5.204  0.7039 -0.3116  1.0304
 6937SOL    HW232871   2.110   9.324   5.190  0.7384 -0.3630  1.0886
 6938SOL     OW32872   1.117   5.993   9.796  0.2764 -0.2362 -0.4096
 6938SOL    HW132873   1.207   6.035   9.812  0.0028  0.5300 -0.8333
 6938SOL    HW232874   1.046   6.063   9.806 -0.3860 -1.1062  1.1979
 6939SOL     OW32875   8.916   4.937   7.949 -0.5536  0.1822  0.7207
 6939SOL    HW132876   8.873   4.915   7.861 -0.3662 -0.2097  0.7254
 6939SOL    HW232877   9.003   4.889   7.956 -0.0304  1.0874  0.6373
 6940SOL     OW32878   5.158   8.796   2.060 -0.3732  0.1957  0.2845
 6940SOL    HW132879   5.214   8.846   1.993 -0.3012 -0.8601 -0.4483
 6940SOL    HW232880   5.070   8.842   2.070 -1.1973 -0.8004 -2.1075
 6941SOL     OW32881   7.144   9.237   5.985 -0.4002  0.6493 -0.3286
 6941SOL    HW132882   7.181   9.157   5.939 -1.7680  0.5443 -1.2638
 6941SOL    HW232883   7.112   9.211   6.076  1.2759  0.6279  0.2737
 6942SOL     OW32884   0.739   7.026   5.193  0.0341  0.2350  0.3035
 6942SOL    HW132885   0.807   6.969   5.239 -1.5406 -3.6392 -1.9278
 6942SOL    HW232886   0.652   7.018   5.241 -0.0536  1.2916  0.3260
 6943SOL     OW32887   6.901   2.971   3.893  0.0691 -0.0423 -0.0790
 6943SOL    HW132888   6.840   2.900   3.858  1.1886 -0.4126 -1.3135
 6943SOL    HW232889   6.864   3.061   3.871  0.2488 -0.2675 -1.3558
 6944SOL     OW32890   4.696   0.714   1.588 -0.1934 -0.5433 -0.3560
 6944SOL    HW132891   4.730   0.695   1.680 -1.5496 -0.6150  0.1530
 6944SOL    HW232892   4.648   0.802   1.587 -2.1821 -1.5894 -0.4102
 6945SOL     OW32893   9.470   5.835   9.985 -0.1223 -0.3560  0.1070
 6945SOL    HW132894   9.493   5.774   9.909  1.7650 -1.3184  1.4032
 6945SOL    HW232895   9.520   5.921   9.975  0.0967 -0.4682  0.2173
 6946SOL     OW32896   6.872   5.850   7.184 -0.0661 -0.1089  0.0270
 6946SOL    HW132897   6.926   5.776   7.144 -0.5795  0.7672 -2.3457
 6946SOL    HW232898   6.889   5.934   7.134 -0.2340  1.1883  2.1071
 6947SOL     OW32899   2.855   1.887   4.169 -0.2984 -0.0356 -0.2050
 6947SOL    HW132900   2.930   1.824   4.151  0.7984  1.2730 -0.3016
 6947SOL    HW232901   2.852   1.908   4.267 -1.4088 -1.1459  0.0100
 6948SOL     OW32902   2.525   6.568   6.287  0.3507  0.4559 -0.6874
 6948SOL    HW132903   2.617   6.607   6.273  0.4074  1.3469  1.9191
 6948SOL    HW232904   2.457   6.639   6.269  0.2668  0.4620 -0.3387
 6949SOL     OW32905   0.777   5.324   5.009  0.2836  0.4702  0.5661
 6949SOL    HW132906   0.860   5.307   5.062  0.3199 -0.6809  0.1370
 6949SOL    HW232907   0.770   5.422   4.990  1.8761  0.4999  0.0731
 6950SOL     OW32908   2.678   5.800   0.070 -0.0915  0.4745 -0.8136
 6950SOL    HW132909   2.770   5.774   0.100 -0.0403  1.5157 -0.0250
 6950SOL    HW232910   2.684   5.873   0.002 -0.3360  0.5940 -0.7087
 6951SOL     OW32911   7.140   1.868   4.806 -0.0339 -0.4301 -0.0576
 6951SOL    HW132912   7.167   1.926   4.729 -1.3737  0.0117 -0.1979
 6951SOL    HW232913   7.047   1.890   4.835  0.3011 -0.8635  1.4415
 6952SOL     OW32914   1.073   8.385   0.798 -0.0788 -0.2088  0.0885
 6952SOL    HW132915   1.108   8.419   0.711 -0.6386  1.1674  0.3978
 6952SOL    HW232916   0.975   8.405   0.805 -0.2163 -1.0640  0.6730
 6953SOL     OW32917   9.786   7.608   6.353 -0.2957 -0.5935  0.5906
 6953SOL    HW132918   9.771   7.683   6.289 -2.2793 -0.6054  1.0155
 6953SOL    HW232919   9.884   7.589   6.359  0.0514  0.4529 -1.2279
 6954SOL     OW32920   3.343   4.126   3.151 -0.8014  0.2700 -0.1356
 6954SOL    HW132921   3.330   4.218   3.115 -0.1030  0.3159 -0.2823
 6954SOL    HW232922   3.346   4.061   3.075  1.2797  0.4406 -0.2188
 6955SOL     OW32923   9.759   1.276   8.954 -0.1852  0.5158  0.4491
 6955SOL    HW132924   9.716   1.306   9.039  0.1486 -2.7782  1.8528
 6955SOL    HW232925   9.855   1.254   8.972 -0.1167 -0.1926 -0.7716
 6956SOL     OW32926   6.508   9.821   7.360 -0.2678 -0.1249 -0.0123
 6956SOL    HW132927   6.607   9.815   7.372 -0.2425 -1.9691 -0.9504
 6956SOL    HW232928   6.466   9.856   7.443  1.3438  2.5250 -0.2704
 6957SOL     OW32929   0.966   1.779   5.416  0.0461 -0.1878 -0.5000
 6957SOL    HW132930   1.040   1.775   5.348  1.1408 -1.5540  0.7219
 6957SOL    HW232931   1.006   1.778   5.508 -1.5017 -1.0126  0.1814
 6958SOL     OW32932   9.113   8.740   3.092  0.1001 -0.4025  0.1716
 6958SOL    HW132933   9.129   8.830   3.132 -0.2178 -0.3784  0.2464
 6958SOL    HW232934   9.138   8.669   3.157 -0.0294 -0.3662  0.2612
 6959SOL     OW32935   1.943   7.103   4.129  0.1919  0.3095 -0.2184
 6959SOL    HW132936   1.939   7.083   4.227  0.5877 -0.7555 -0.4028
 6959SOL    HW232937   1.985   7.025   4.082  0.3732  0.9883 -1.1810
 6960SOL     OW32938   3.991   2.988   9.363 -0.5376  0.2317 -0.3021
 6960SOL    HW132939   4.069   3.001   9.424 -0.3140 -0.2178 -0.4944
 6960SOL    HW232940   3.912   2.956   9.416 -0.9197  1.7356  0.0788
 6961SOL     OW32941   3.002   0.991   4.434  0.5287 -0.0919  0.2727
 6961SOL    HW132942   2.950   0.910   4.404 -1.8947  0.8841  1.6635
 6961SOL    HW232943   2.964   1.072   4.389  0.8745  0.6316  1.2866
 6962SOL     OW32944   1.461   1.811   8.928 -0.1223 -0.7112  0.6090
 6962SOL    HW132945   1.423   1.752   8.857 -1.0041  1.8931 -1.1471
 6962SOL    HW232946   1.555   1.782   8.949 -0.5939 -2.8121 -0.0588
 6963SOL     OW32947   8.146   0.917   2.706 -0.6375 -0.0239 -0.0938
 6963SOL    HW132948   8.212   0.849   2.739 -0.8697  0.9645  2.5242
 6963SOL    HW232949   8.168   0.941   2.611  0.3201 -2.6457 -0.5871
 6964SOL     OW32950   8.762   3.768   9.267 -0.2583  0.0008 -0.0972
 6964SOL    HW132951   8.790   3.860   9.239  1.2551 -0.6060 -0.6439
 6964SOL    HW232952   8.833   3.728   9.324 -1.2094 -0.5902  0.6900
 6965SOL     OW32953   2.796   9.639   8.128 -0.0843  0.1455  0.4399
 6965SOL    HW132954   2.721   9.621   8.064  0.6654  0.1343 -0.4307
 6965SOL    HW232955   2.761   9.695   8.204 -0.2432  2.9569 -1.6245
 6966SOL     OW32956   0.501   2.768   8.848  0.1376 -0.6934  0.4421
 6966SOL    HW132957   0.461   2.734   8.763  0.2612  0.8136 -0.2371
 6966SOL    HW232958   0.601   2.768   8.841  0.1064  1.7752 -0.3790
 6967SOL     OW32959   9.705   6.915   7.819 -0.2283 -0.3533 -0.2189
 6967SOL    HW132960   9.769   6.892   7.893  0.5670  1.3767 -0.3505
 6967SOL    HW232961   9.629   6.967   7.857 -0.3409 -0.3467 -0.4562
 6968SOL     OW32962   7.962   3.147   7.435 -0.1556 -0.1773 -0.7620
 6968SOL    HW132963   8.036   3.088   7.467 -1.1293 -0.5691  0.8555
 6968SOL    HW232964   7.973   3.166   7.337  2.1508 -0.0878 -0.5049
 6969SOL     OW32965   0.849   9.653   2.800 -0.2244 -0.3337 -0.0555
 6969SOL    HW132966   0.824   9.742   2.762 -2.3378 -1.5477 -1.5899
 6969SOL    HW232967   0.790   9.582   2.762  0.4525 -2.2159  2.2384
 6970SOL     OW32968   9.382   5.527   6.339  0.0664 -0.0160  0.2094
 6970SOL    HW132969   9.287   5.555   6.325 -0.0273  0.6527  2.0806
 6970SOL    HW232970   9.443   5.605   6.326  0.3895 -0.4885 -1.1865
 6971SOL     OW32971   8.968   1.954   7.789 -0.7128  0.7588 -0.4356
 6971SOL    HW132972   8.932   2.034   7.838 -2.2040 -1.1466  1.7055
 6971SOL    HW232973   9.028   1.902   7.850  0.0585  0.1165 -1.7283
 6972SOL     OW32974   1.197   3.052   9.690 -0.1997 -0.0917  0.5115
 6972SOL    HW132975   1.248   3.130   9.655  0.3296 -1.0917 -0.9979
 6972SOL    HW232976   1.136   3.017   9.619 -0.6505 -0.8536  1.2626
 6973SOL     OW32977   3.000   9.764   5.122 -0.1842 -0.0061 -0.2853
 6973SOL    HW132978   2.954   9.685   5.080  0.2080 -0.1048 -0.5200
 6973SOL    HW232979   3.099   9.753   5.115 -0.1152  0.0350  0.5449
 6974SOL     OW32980   7.986   6.265   6.534  0.3220  0.0385 -0.3301
 6974SOL    HW132981   8.072   6.229   6.498 -0.6581 -0.4185 -2.2746
 6974SOL    HW232982   7.950   6.202   6.603 -0.0751 -1.4589 -1.8568
 6975SOL     OW32983   1.169   2.630   6.924  0.0300 -0.5773  0.0978
 6975SOL    HW132984   1.127   2.548   6.964 -1.8802 -0.2970 -1.2281
 6975SOL    HW232985   1.234   2.603   6.853 -0.2074 -0.9572  0.0223
 6976SOL     OW32986   3.423   2.604   0.508 -0.8584  0.1174 -0.2027
 6976SOL    HW132987   3.340   2.660   0.520 -0.6084  0.4769 -0.1296
 6976SOL    HW232988   3.428   2.536   0.581 -2.1124 -1.2127 -1.3207
 6977SOL     OW32989   0.163   2.784   3.464 -0.2763 -0.3152 -0.0616
 6977SOL    HW132990   0.212   2.772   3.551 -0.8617  1.6814  0.5592
 6977SOL    HW232991   0.067   2.761   3.477 -0.1649 -1.0062 -0.4458
 6978SOL     OW32992   8.950   3.716   1.398  0.3601 -0.4171 -0.1627
 6978SOL    HW132993   9.026   3.761   1.350 -0.7896  2.4356  0.5873
 6978SOL    HW232994   8.979   3.691   1.490  0.3242  0.9184  0.2162
 6979SOL     OW32995   8.252   6.890   8.586  0.2227 -0.0735  0.2096
 6979SOL    HW132996   8.217   6.829   8.657 -0.5873 -1.0605 -1.0382
 6979SOL    HW232997   8.352   6.880   8.580  0.1493 -0.9016  0.3508
 6980SOL     OW32998   0.661   7.550   7.582  0.4117  0.5090 -0.3844
 6980SOL    HW132999   0.580   7.512   7.538  0.8290  0.6626 -1.3013
 6980SOL    HW233000   0.703   7.479   7.639 -0.6008  0.5600  0.4281
 6981SOL     OW33001   3.950   3.744   3.388 -0.3347  0.4360  0.0304
 6981SOL    HW133002   3.933   3.832   3.431 -0.4044 -0.0189  0.9676
 6981SOL    HW233003   4.047   3.737   3.363  0.8656 -1.1342  4.5665
 6982SOL     OW33004   2.850   2.718   5.567  0.5149  0.0847  0.1820
 6982SOL    HW133005   2.765   2.697   5.617  0.9174  1.1313  1.3478
 6982SOL    HW233006   2.908   2.775   5.625  0.5934  2.1323 -1.8566
 6983SOL     OW33007   8.312   7.533   7.951  0.5032  0.5375 -0.3062
 6983SOL    HW133008   8.287   7.462   8.017 -0.5479  2.2355  1.1850
 6983SOL    HW233009   8.288   7.502   7.859  0.6883 -1.3033  0.2295
 6984SOL     OW33010   7.351   9.554   3.421 -0.0724  0.0021  0.0018
 6984SOL    HW133011   7.419   9.481   3.427  3.1312  2.9987  2.6991
 6984SOL    HW233012   7.303   9.563   3.509 -1.4943  0.1884 -0.7753
 6985SOL     OW33013   6.854   6.795   3.791 -0.0864  0.2865 -0.2446
 6985SOL    HW133014   6.819   6.888   3.799  0.1890  0.4438 -0.8429
 6985SOL    HW233015   6.913   6.788   3.710  1.3424  0.0625  0.7836
 6986SOL     OW33016   3.473   4.399   7.805 -0.5046  0.0984 -0.1234
 6986SOL    HW133017   3.471   4.497   7.821 -0.6318  0.0046  0.4404
 6986SOL    HW233018   3.471   4.350   7.892  1.8499 -0.3855 -0.3035
 6987SOL     OW33019   7.884   2.219   2.192  0.8499 -0.3802  0.0367
 6987SOL    HW133020   7.851   2.222   2.097  0.1616  4.1427  0.3361
 6987SOL    HW233021   7.810   2.188   2.252  0.3632 -0.3289 -0.5303
 6988SOL     OW33022   2.339   5.048   9.144  0.2354  1.1340  0.4498
 6988SOL    HW133023   2.322   4.952   9.121  0.4433  1.0916  0.4708
 6988SOL    HW233024   2.433   5.071   9.120 -0.0430  1.5421 -0.2422
 6989SOL     OW33025   7.335   1.563   0.726  0.1947  0.3223 -0.3869
 6989SOL    HW133026   7.329   1.651   0.679  0.5247  0.6851  0.2429
 6989SOL    HW233027   7.428   1.527   0.718  1.2317  2.0236  2.8568
 6990SOL     OW33028   3.542   4.561   4.211  0.3431 -0.3149  0.1656
 6990SOL    HW133029   3.579   4.644   4.168  0.1206 -0.3644 -0.1250
 6990SOL    HW233030   3.616   4.506   4.248  0.5484 -0.3713 -0.3375
 6991SOL     OW33031   1.599   8.847   1.614  0.5971  0.2231  0.5304
 6991SOL    HW133032   1.565   8.911   1.544  1.0311  1.4639  1.4332
 6991SOL    HW233033   1.611   8.896   1.700  1.2556 -1.0248  1.1538
 6992SOL     OW33034   3.995   9.750   9.220  0.2574 -0.5118  0.2270
 6992SOL    HW133035   3.938   9.833   9.217  1.1570  0.0983 -0.2274
 6992SOL    HW233036   4.091   9.777   9.223  0.5614 -1.5564 -0.2559
 6993SOL     OW33037   5.779   4.153   8.580 -0.1680  0.3127 -0.4372
 6993SOL    HW133038   5.812   4.201   8.499 -0.6791 -0.6967 -1.2480
 6993SOL    HW233039   5.752   4.060   8.556  0.2211 -0.1952  0.9969
 6994SOL     OW33040   0.669   7.612   0.516 -0.7881 -0.3519 -0.6541
 6994SOL    HW133041   0.613   7.529   0.509 -0.5294 -0.6122  0.3009
 6994SOL    HW233042   0.611   7.693   0.507 -0.9098 -0.6299 -2.5753
 6995SOL     OW33043   7.165   9.867   4.928 -0.3267  0.1275 -0.1051
 6995SOL    HW133044   7.081   9.870   4.873 -0.6979  0.0500  0.4565
 6995SOL    HW233045   7.244   9.880   4.868 -0.8236  2.0348 -0.4034
 6996SOL     OW33046   3.644   9.339   0.846  0.1840 -0.2282  0.0386
 6996SOL    HW133047   3.627   9.384   0.934 -1.7397  0.7314 -0.8131
 6996SOL    HW233048   3.672   9.244   0.863  3.4504  0.9653  1.8098
 6997SOL     OW33049   5.190   6.528   2.662 -0.0705  0.5183  0.0346
 6997SOL    HW133050   5.280   6.567   2.684 -0.0444  1.1098 -1.0724
 6997SOL    HW233051   5.141   6.590   2.601 -0.1848 -0.9883 -1.4415
 6998SOL     OW33052   2.482   8.899   5.063  0.0293  0.2192  0.2830
 6998SOL    HW133053   2.425   8.963   5.115  0.7735  0.8982  0.2889
 6998SOL    HW233054   2.471   8.916   4.965 -2.3459 -1.9109  0.1473
 6999SOL     OW33055   8.645   5.832   1.501 -0.5018 -0.0760 -0.3406
 6999SOL    HW133056   8.658   5.928   1.476  1.4510 -0.4251 -0.8018
 6999SOL    HW233057   8.593   5.785   1.429  0.1731  0.2148 -1.0229
 7000SOL     OW33058   8.610   9.946   3.095 -0.0547 -0.2627  0.1719
 7000SOL    HW133059   8.537   9.900   3.146  0.4874 -1.2032  0.1187
 7000SOL    HW233060   8.592   9.938   2.997 -1.2696  1.8288  0.2001
 7001SOL     OW33061   1.325   2.211   4.704 -0.3466  0.6639 -0.1165
 7001SOL    HW133062   1.318   2.126   4.652  0.0040  1.2259 -1.0968
 7001SOL    HW233063   1.245   2.221   4.763 -0.4097 -0.3240 -0.0398
 7002SOL     OW33064   4.770   7.949   8.792 -0.0120 -0.4596 -0.2854
 7002SOL    HW133065   4.843   8.013   8.815 -0.6002 -0.3753  1.4940
 7002SOL    HW233066   4.810   7.866   8.753  1.0104 -0.2376  0.2631
 7003SOL     OW33067   0.260   8.855   7.349 -0.4937 -0.4505 -0.3897
 7003SOL    HW133068   0.336   8.790   7.359 -0.2936 -0.4773 -1.9771
 7003SOL    HW233069   0.275   8.912   7.269  0.0150  2.5243  1.7226
 7004SOL     OW33070   7.180   7.529   8.391 -0.0512  0.2815 -0.0343
 7004SOL    HW133071   7.260   7.514   8.449 -0.8517 -3.7150  0.1929
 7004SOL    HW233072   7.201   7.500   8.297 -0.9741 -0.0264 -0.1527
 7005SOL     OW33073   2.821   3.215   5.923 -0.2318 -0.3144 -0.3036
 7005SOL    HW133074   2.832   3.172   5.833  0.0945 -1.3403  0.2254
 7005SOL    HW233075   2.905   3.267   5.944 -0.4267  0.1798 -0.7146
 7006SOL     OW33076   6.675   4.311   8.380 -0.1012 -0.0264 -0.6064
 7006SOL    HW133077   6.630   4.390   8.422 -0.2151  0.4428 -1.5982
 7006SOL    HW233078   6.665   4.316   8.280  1.8540 -0.0713 -0.8262
 7007SOL     OW33079   1.452   6.809   0.375  0.0649  0.2079  0.1073
 7007SOL    HW133080   1.440   6.830   0.278 -3.3581 -0.5132  0.2861
 7007SOL    HW233081   1.531   6.748   0.387 -1.0365 -1.8638 -2.5882
 7008SOL     OW33082   6.203   5.851   7.254 -0.0725  0.1345 -0.0284
 7008SOL    HW133083   6.200   5.773   7.316 -1.5730  0.8581  0.8277
 7008SOL    HW233084   6.242   5.823   7.167 -1.5315 -1.8182 -0.0757
 7009SOL     OW33085   7.987   1.318   5.127  0.2335  0.1839 -0.5183
 7009SOL    HW133086   8.059   1.312   5.197  0.3064 -0.0190 -0.6101
 7009SOL    HW233087   8.029   1.345   5.039  0.0520  1.0576 -0.3421
 7010SOL     OW33088   4.199   0.952   1.411 -0.4560  0.3398  0.4094
 7010SOL    HW133089   4.131   0.970   1.339 -0.2861 -1.5591 -0.2285
 7010SOL    HW233090   4.258   1.032   1.421  0.5690  0.0522 -2.7060
 7011SOL     OW33091   3.976   7.860   2.509 -0.4360  1.0798  0.4183
 7011SOL    HW133092   4.053   7.894   2.563  0.9114  0.5111 -1.0826
 7011SOL    HW233093   3.992   7.764   2.485 -0.6820  1.4926 -1.4967
 7012SOL     OW33094   8.878   8.407   5.145 -0.4560 -0.3052  0.3732
 7012SOL    HW133095   8.900   8.425   5.241 -0.8815 -0.1571  0.4428
 7012SOL    HW233096   8.884   8.309   5.127  0.7459 -0.2259  0.2755
 7013SOL     OW33097   0.744   1.210   7.171  0.4168  0.1551  0.1261
 7013SOL    HW133098   0.759   1.276   7.097 -0.0828 -0.4726 -0.5515
 7013SOL    HW233099   0.672   1.244   7.232  0.1984  0.2672 -0.1908
 7014SOL     OW33100   7.147   8.392   5.889  0.1319 -1.1261 -0.0210
 7014SOL    HW133101   7.143   8.323   5.816  1.4339 -0.3779 -0.8286
 7014SOL    HW233102   7.184   8.350   5.972  1.2604 -1.3420 -0.6120
 7015SOL     OW33103   4.807   7.679   6.604  0.3284 -0.2259 -0.0643
 7015SOL    HW133104   4.724   7.679   6.659  0.3272 -0.5423 -0.0646
 7015SOL    HW233105   4.785   7.705   6.510  0.5797  1.9515  0.4399
 7016SOL     OW33106   9.661   8.404   3.263 -0.3723 -0.0606 -0.3147
 7016SOL    HW133107   9.587   8.460   3.226 -0.2476 -0.0980 -0.6219
 7016SOL    HW233108   9.705   8.452   3.338 -2.2374 -1.0400  1.4430
 7017SOL     OW33109   1.712   4.074   5.783  0.5170  0.1899  0.6494
 7017SOL    HW133110   1.701   4.069   5.684 -0.0510 -1.1831  0.7829
 7017SOL    HW233111   1.638   4.129   5.822  0.8496  0.8956  0.3108
 7018SOL     OW33112   3.361   6.346   9.911 -0.0346 -0.2806 -0.4888
 7018SOL    HW133113   3.457   6.325   9.926  0.1344  0.8690  0.1136
 7018SOL    HW233114   3.353   6.418   9.842 -0.4168  0.1993  0.0469
 7019SOL     OW33115   1.616   8.325   3.026  0.0484 -0.5804  0.8980
 7019SOL    HW133116   1.531   8.378   3.025  0.3681 -0.0879 -0.2550
 7019SOL    HW233117   1.685   8.372   3.080 -0.3702 -0.9413  1.7703
 7020SOL     OW33118   5.446   0.306   3.209 -0.6259  0.2859  0.0973
 7020SOL    HW133119   5.519   0.280   3.271 -0.3542 -0.9909 -0.7494
 7020SOL    HW233120   5.395   0.224   3.180 -1.3549  0.9705 -0.6052
 7021SOL     OW33121   1.011   1.143   7.130 -0.1266  0.1134  0.4787
 7021SOL    HW133122   1.021   1.120   7.034  0.6778 -1.1602  0.8504
 7021SOL    HW233123   0.914   1.154   7.152 -0.5010 -2.0867  0.0722
 7022SOL     OW33124   9.239   6.288   9.896  0.0321 -0.2339  0.4488
 7022SOL    HW133125   9.239   6.238   9.809  2.6796  0.9198 -0.2787
 7022SOL    HW233126   9.180   6.368   9.889  0.3756 -0.0448 -0.3775
 7023SOL     OW33127   3.282   8.477   4.107 -0.4047 -0.2685  0.2310
 7023SOL    HW133128   3.259   8.466   4.203 -0.1097 -1.4174  0.1702
 7023SOL    HW233129   3.267   8.391   4.058 -0.4541  0.2744 -0.7267
 7024SOL     OW33130   1.883   1.315   4.561  0.5107 -0.4267 -0.1390
 7024SOL    HW133131   1.982   1.328   4.570  0.5720 -0.2130 -1.0851
 7024SOL    HW233132   1.846   1.383   4.498 -0.4170  0.2015  1.0609
 7025SOL     OW33133   4.605   3.964   0.003 -0.1363  0.0407  0.1968
 7025SOL    HW133134   4.664   4.003   0.074 -0.3331  0.1031  0.3259
 7025SOL    HW233135   4.511   3.962   0.035 -0.3072  0.5767 -0.2773
 7026SOL     OW33136   2.293   1.446   1.256  0.3448  0.2205 -0.5148
 7026SOL    HW133137   2.282   1.377   1.328  0.4833  0.4432 -0.2820
 7026SOL    HW233138   2.211   1.447   1.198  0.1742  0.1396 -0.2754
 7027SOL     OW33139   8.705   8.715   6.663 -0.0921 -0.5171 -0.0946
 7027SOL    HW133140   8.650   8.678   6.738  0.0709 -1.0555 -0.2419
 7027SOL    HW233141   8.671   8.679   6.576 -0.7265  0.6598 -0.3368
 7028SOL     OW33142   6.849   1.765   9.270  0.3029 -0.6764 -0.3388
 7028SOL    HW133143   6.877   1.671   9.286  1.4745 -0.5899 -1.7813
 7028SOL    HW233144   6.912   1.808   9.206  0.3490  1.3959  1.0547
 7029SOL     OW33145   8.640   6.565   8.778 -0.0212  0.4288 -0.1731
 7029SOL    HW133146   8.660   6.663   8.784  0.4725  0.2657  0.8796
 7029SOL    HW233147   8.718   6.513   8.812 -0.4706 -0.3259 -0.3020
 7030SOL     OW33148   0.288   3.687   0.505 -0.1526 -0.5209 -0.0592
 7030SOL    HW133149   0.345   3.651   0.431  1.8132  0.2665  1.0111
 7030SOL    HW233150   0.193   3.661   0.490  0.5871 -2.5190 -1.5107
 7031SOL     OW33151   2.476   2.114   2.695 -0.0089 -0.2123 -0.3653
 7031SOL    HW133152   2.421   2.108   2.778 -0.3896  0.2897 -0.5802
 7031SOL    HW233153   2.456   2.037   2.635 -0.3372 -0.1317 -0.3585
 7032SOL     OW33154   3.149   4.788   3.590  0.0901  0.0974  0.1774
 7032SOL    HW133155   3.144   4.792   3.689 -2.3755 -0.1760  0.0896
 7032SOL    HW233156   3.110   4.702   3.558 -0.9561  1.0368 -1.1212
 7033SOL     OW33157   9.280   0.372   4.029  0.1026  0.4773 -0.3525
 7033SOL    HW133158   9.343   0.423   3.971  2.4329 -2.4993 -0.5919
 7033SOL    HW233159   9.322   0.285   4.056 -3.2807 -0.8910  0.8824
 7034SOL     OW33160   2.044   6.624   1.813 -0.4789 -0.1030  0.8550
 7034SOL    HW133161   1.993   6.555   1.761 -0.0956  0.6504 -0.5544
 7034SOL    HW233162   2.086   6.581   1.892 -0.1162 -1.5270 -0.0915
 7035SOL     OW33163   8.366   2.803  10.000 -0.0886 -0.6335  1.0228
 7035SOL    HW133164   8.293   2.767  10.059  0.5791 -0.5602  1.8924
 7035SOL    HW233165   8.435   2.732   9.985 -0.0578 -0.5275  0.6478
 7036SOL     OW33166   5.852   8.769   4.928 -0.2230 -0.1747 -0.6505
 7036SOL    HW133167   5.855   8.867   4.946  0.2870 -0.1288 -0.9805
 7036SOL    HW233168   5.776   8.728   4.979  0.9890  0.0026  1.3310
 7037SOL     OW33169   3.191   3.672   9.053 -0.4456 -0.0143 -0.1776
 7037SOL    HW133170   3.197   3.616   9.135 -1.7217  0.6386  0.3617
 7037SOL    HW233171   3.115   3.640   8.996 -0.6472  0.6453 -0.2718
 7038SOL     OW33172   3.129   2.372   2.940 -0.0079  0.3838 -0.0766
 7038SOL    HW133173   3.136   2.417   3.028 -0.5698 -0.1817  0.2654
 7038SOL    HW233174   3.210   2.392   2.885  1.7883 -1.7262  1.7176
 7039SOL     OW33175   2.203   5.270   8.162 -0.6278  0.1887  0.8729
 7039SOL    HW133176   2.216   5.234   8.254 -0.2306 -1.9227  0.0115
 7039SOL    HW233177   2.291   5.280   8.117 -0.9853 -1.0342 -0.1105
 7040SOL     OW33178   4.748   8.462   2.563 -0.5838 -0.1908  0.6094
 7040SOL    HW133179   4.742   8.410   2.478 -2.3012 -0.6856  1.0138
 7040SOL    HW233180   4.798   8.410   2.632  0.7353  0.1747 -0.0507
 7041SOL     OW33181   8.892   9.993   5.844 -0.0699  0.3036  0.6928
 7041SOL    HW133182   8.911   9.922   5.776  2.7851  0.9111  0.7837
 7041SOL    HW233183   8.888   9.952   5.935 -3.1583 -0.3957  0.3068
 7042SOL     OW33184   2.292   7.973   5.820  0.0366 -0.0648 -0.2531
 7042SOL    HW133185   2.255   7.913   5.748  1.3772 -0.4391 -0.6592
 7042SOL    HW233186   2.342   8.048   5.777 -1.6454  1.3765  0.2604
 7043SOL     OW33187   9.009   7.343   9.790 -0.3497  0.3663 -0.0224
 7043SOL    HW133188   9.081   7.397   9.832  0.4200 -1.2129  0.7583
 7043SOL    HW233189   8.928   7.399   9.777 -0.1489  1.2598  2.3447
 7044SOL     OW33190   3.786   2.275   1.578  0.1428 -0.0148 -0.3763
 7044SOL    HW133191   3.767   2.271   1.676 -2.0014 -1.1574 -0.7939
 7044SOL    HW233192   3.817   2.186   1.546  0.3153  0.2050 -0.8304
 7045SOL     OW33193   4.119   8.004   0.167  0.1228 -0.1378  0.3299
 7045SOL    HW133194   4.168   8.080   0.211  0.6391 -0.9462  1.1865
 7045SOL    HW233195   4.165   7.918   0.189 -0.6822 -0.7408 -0.3108
 7046SOL     OW33196   8.893   4.311   8.431  0.6241  0.0540 -0.3789
 7046SOL    HW133197   8.882   4.216   8.401  1.5938  0.2857 -1.4841
 7046SOL    HW233198   8.804   4.355   8.435  0.2173 -0.7559 -0.3521
 7047SOL     OW33199   9.816   0.269   8.790 -0.1440 -0.5777 -0.7810
 7047SOL    HW133200   9.863   0.325   8.858  0.4185 -0.0792 -1.5647
 7047SOL    HW233201   9.810   0.320   8.704 -0.4311 -1.3839 -1.2430
 7048SOL     OW33202   1.448   3.643   1.987  0.3038  0.3418  0.0489
 7048SOL    HW133203   1.514   3.582   1.943  1.0461  1.2583 -0.1040
 7048SOL    HW233204   1.465   3.737   1.959 -0.1981  0.7516  1.0956
 7049SOL     OW33205   1.418   0.517   9.790 -0.0054  0.5957 -0.2334
 7049SOL    HW133206   1.429   0.616   9.803  0.2696  0.3279  1.6457
 7049SOL    HW233207   1.323   0.498   9.766 -0.2019  1.2503  0.0078
 7050SOL     OW33208   2.417   5.200   0.468  0.4755  0.0192  0.0558
 7050SOL    HW133209   2.367   5.257   0.403 -1.9187 -2.9951 -0.8237
 7050SOL    HW233210   2.390   5.226   0.561  0.7294  1.4855 -0.2654
 7051SOL     OW33211   0.231   6.413   8.824  0.5975 -0.1016 -0.2697
 7051SOL    HW133212   0.183   6.485   8.874  0.0939  0.3223 -1.3266
 7051SOL    HW233213   0.315   6.388   8.872 -0.1721 -0.1328  1.0792
 7052SOL     OW33214   3.618   1.637   2.824  0.2479 -0.0038 -0.3139
 7052SOL    HW133215   3.600   1.702   2.750  1.6602  2.2941  1.2893
 7052SOL    HW233216   3.716   1.635   2.843 -0.0431 -0.9207  1.1705
 7053SOL     OW33217   3.462   3.916   2.680  0.6355 -0.4108 -0.3148
 7053SOL    HW133218   3.363   3.915   2.667  0.7187  1.6692 -1.3244
 7053SOL    HW233219   3.505   3.954   2.598  2.1773 -0.0218  0.6622
 7054SOL     OW33220   7.506   7.295   7.948  0.5350 -0.2434  0.1450
 7054SOL    HW133221   7.540   7.300   7.855 -2.3405  1.4283 -0.8816
 7054SOL    HW233222   7.424   7.239   7.951  0.3388  0.0857  1.5946
 7055SOL     OW33223   1.755   1.499   5.377  0.3958 -0.1234 -0.0043
 7055SOL    HW133224   1.750   1.592   5.341  2.4761  0.4998  1.2356
 7055SOL    HW233225   1.725   1.499   5.473 -2.8555 -1.3569 -0.9529
 7056SOL     OW33226   7.407   5.115   2.435 -0.1798  0.0232  0.2957
 7056SOL    HW133227   7.432   5.212   2.440  0.2719 -0.1007  0.4142
 7056SOL    HW233228   7.490   5.059   2.438 -0.4050 -0.3458 -0.3874
 7057SOL     OW33229   6.687   2.944   1.868 -1.0040  0.1561 -0.4887
 7057SOL    HW133230   6.741   2.878   1.919  0.0530  0.8680 -0.6792
 7057SOL    HW233231   6.652   3.014   1.930  1.0200  1.5241 -0.8250
 7058SOL     OW33232   6.808   8.801   4.166  0.4895  0.4991 -0.7469
 7058SOL    HW133233   6.768   8.843   4.248  1.1369  0.7400 -0.5522
 7058SOL    HW233234   6.890   8.751   4.191 -0.4006 -1.0994 -0.9442
 7059SOL     OW33235   8.682   4.359   8.017 -0.4086 -0.6016 -0.6594
 7059SOL    HW133236   8.650   4.436   8.072 -1.2104 -0.3565 -1.4475
 7059SOL    HW233237   8.761   4.317   8.061 -1.6558 -1.0451  1.1783
 7060SOL     OW33238   0.102   9.232   9.308  0.1440 -0.3918  0.0018
 7060SOL    HW133239   0.199   9.255   9.312  0.4124 -1.4072 -0.4026
 7060SOL    HW233240   0.047   9.316   9.307  1.0363  0.1905 -0.3850
 7061SOL     OW33241   1.397   4.855   1.189  0.1577  0.1362  0.7684
 7061SOL    HW133242   1.436   4.765   1.208 -1.7527 -1.1500 -1.1352
 7061SOL    HW233243   1.305   4.861   1.228 -0.1864  0.8125 -0.1170
 7062SOL     OW33244   1.014   9.786   0.463  0.2284  0.6291 -0.3394
 7062SOL    HW133245   1.114   9.777   0.452  0.2989  2.0221 -0.9439
 7062SOL    HW233246   0.981   9.713   0.523  2.0837  2.0859  2.5716
 7063SOL     OW33247   3.855   7.398   0.231  0.0339 -0.0493 -0.1656
 7063SOL    HW133248   3.848   7.305   0.195 -1.8296  0.5494 -1.4326
 7063SOL    HW233249   3.820   7.400   0.325 -1.1813 -0.3890 -0.5994
 7064SOL     OW33250   7.391   3.892   8.530  0.2362  0.2043  0.8669
 7064SOL    HW133251   7.322   3.822   8.511 -1.5050  1.5514  2.0055
 7064SOL    HW233252   7.349   3.982   8.520  1.9047  1.0542  1.4234
 7065SOL     OW33253   8.115   1.600   7.199 -0.4870 -0.0698 -0.3634
 7065SOL    HW133254   8.110   1.510   7.242  0.6974 -1.0681 -2.2471
 7065SOL    HW233255   8.023   1.630   7.173 -0.7909 -1.1457 -0.5434
 7066SOL     OW33256   2.159   3.891   9.787  0.9504  0.3035  0.0745
 7066SOL    HW133257   2.123   3.798   9.787  0.9924  0.2708 -1.7082
 7066SOL    HW233258   2.218   3.905   9.708  1.8283  1.5214  0.9147
 7067SOL     OW33259   7.130   5.436   1.050  0.5661  0.5770  0.1560
 7067SOL    HW133260   7.180   5.430   0.963  2.2667 -0.0095  1.1509
 7067SOL    HW233261   7.036   5.405   1.036  0.9011  0.2155 -1.4203
 7068SOL     OW33262   0.749   8.424   7.968 -0.1963 -0.3467 -0.2780
 7068SOL    HW133263   0.664   8.460   7.930  0.0109 -1.8737 -2.3178
 7068SOL    HW233264   0.766   8.332   7.931  0.5904 -1.5007  2.7658
 7069SOL     OW33265   8.119   7.916   4.177  0.3490  0.1959  0.6228
 7069SOL    HW133266   8.073   7.829   4.159 -0.0787  0.3771  0.8367
 7069SOL    HW233267   8.058   7.976   4.228 -1.2111  2.4766 -3.6440
 7070SOL     OW33268   0.106   3.585   9.706  0.6335  0.3300  0.3609
 7070SOL    HW133269   0.051   3.662   9.674 -0.2508 -0.6460 -0.4840
 7070SOL    HW233270   0.107   3.586   9.806  1.1010  1.7637  0.3573
 7071SOL     OW33271   9.167   4.058   9.436  0.2701 -0.0327 -0.4037
 7071SOL    HW133272   9.136   3.983   9.495  0.3269 -1.3352 -2.0073
 7071SOL    HW233273   9.098   4.076   9.366  1.4727 -0.4396 -1.7013
 7072SOL     OW33274   7.491   0.385   3.342 -0.1201 -0.0392 -0.7272
 7072SOL    HW133275   7.492   0.289   3.314 -1.7997 -0.0418 -0.8415
 7072SOL    HW233276   7.570   0.404   3.401  0.0653 -1.5597 -0.4712
 7073SOL     OW33277   0.490   2.467   0.594  0.3154  0.1578  0.3993
 7073SOL    HW133278   0.578   2.514   0.593 -1.1796  3.0953  0.9931
 7073SOL    HW233279   0.453   2.467   0.687 -0.7495 -0.1716 -0.0135
 7074SOL     OW33280   3.073   5.062   7.639  0.3589 -0.5071 -0.6316
 7074SOL    HW133281   2.993   5.122   7.653 -0.4940 -1.2579 -2.1787
 7074SOL    HW233282   3.058   5.005   7.559  1.7179 -1.9124  0.0933
 7075SOL     OW33283   3.979   2.972   2.243  0.2877 -0.1051  0.0618
 7075SOL    HW133284   4.054   2.958   2.307 -0.5167 -1.3082  0.7480
 7075SOL    HW233285   3.927   2.887   2.233 -0.9279  0.6879 -0.4758
 7076SOL     OW33286   9.330   2.306   1.253  0.3030  0.5998 -0.6094
 7076SOL    HW133287   9.231   2.311   1.241  0.1201  1.3617  1.0834
 7076SOL    HW233288   9.355   2.218   1.294  0.2965  0.5630 -0.6841
 7077SOL     OW33289   9.379   2.894   1.995 -0.1258  0.2077  0.3309
 7077SOL    HW133290   9.470   2.890   1.954  0.6172 -1.0575  2.0199
 7077SOL    HW233291   9.327   2.969   1.955  0.8992 -0.3827 -2.1855
 7078SOL     OW33292   1.285   5.885   9.018  0.2551 -0.0501  0.4201
 7078SOL    HW133293   1.267   5.796   8.978 -0.4327 -1.1573  3.0911
 7078SOL    HW233294   1.211   5.948   8.994 -0.6724 -0.9858  0.8228
 7079SOL     OW33295   8.942   8.273   8.891 -0.2974 -0.1135  0.1345
 7079SOL    HW133296   8.962   8.197   8.953  0.8357 -0.2632 -0.4082
 7079SOL    HW233297   8.935   8.239   8.798 -1.0528  0.2589  0.0557
 7080SOL     OW33298   2.733   8.022   5.253  0.4257  0.4830 -0.1827
 7080SOL    HW133299   2.729   7.999   5.156 -2.3585  1.0907 -0.2477
 7080SOL    HW233300   2.669   7.964   5.303  1.8415  0.1762  1.3210
 7081SOL     OW33301   7.330   2.808   3.556  0.4962  0.3474 -0.2353
 7081SOL    HW133302   7.316   2.830   3.653 -1.0250 -0.9310 -0.1373
 7081SOL    HW233303   7.365   2.715   3.549  0.7448  0.4936 -0.9103
 7082SOL     OW33304   8.551   6.889   8.650  0.1187  0.0918  0.3519
 7082SOL    HW133305   8.548   6.966   8.714  0.6391 -0.2262  0.7623
 7082SOL    HW233306   8.636   6.893   8.598  0.1007 -0.1455  0.3030
 7083SOL     OW33307   9.903   4.041   9.892 -0.0674 -0.1502 -0.2815
 7083SOL    HW133308   9.935   4.115   9.832 -2.1642 -0.5431 -1.9382
 7083SOL    HW233309   9.835   3.986   9.844  1.6619 -3.4091  0.7970
 7084SOL     OW33310   9.761   6.772   6.004  0.1449 -0.2088 -0.2498
 7084SOL    HW133311   9.838   6.833   6.024 -1.1711  1.0138  1.1423
 7084SOL    HW233312   9.770   6.688   6.058 -1.1205  1.2613  2.3062
 7085SOL     OW33313   9.672   7.609   9.545  0.0685 -0.3001 -0.2705
 7085SOL    HW133314   9.717   7.522   9.524  1.9662  0.5929  0.0134
 7085SOL    HW233315   9.685   7.631   9.641 -0.8688  0.0326 -0.2198
 7086SOL     OW33316   1.127   0.743   1.672  0.5980  0.1106 -0.4263
 7086SOL    HW133317   1.101   0.717   1.765  2.2109  0.6597  0.1921
 7086SOL    HW233318   1.223   0.771   1.670  0.1018  1.8309 -1.9203
 7087SOL     OW33319   0.480   6.629   4.655 -0.3739  0.2847 -0.3015
 7087SOL    HW133320   0.506   6.705   4.715  0.4071 -0.6068  0.4959
 7087SOL    HW233321   0.422   6.664   4.581 -1.2135  1.4202  0.8623
 7088SOL     OW33322   7.803   6.944   7.064 -0.5966  0.1450 -0.2001
 7088SOL    HW133323   7.764   6.921   6.975 -0.9400 -1.8253  0.4449
 7088SOL    HW233324   7.757   6.891   7.135 -0.2134  1.5869  1.1430
 7089SOL     OW33325   2.784   4.859   7.603 -0.4639 -0.2718 -0.7553
 7089SOL    HW133326   2.697   4.902   7.580 -0.1880  0.6975 -0.0082
 7089SOL    HW233327   2.851   4.879   7.531 -0.0099  1.5339  0.1648
 7090SOL     OW33328   9.670   1.131   3.221  0.8448  0.0764  0.6003
 7090SOL    HW133329   9.636   1.113   3.313  0.4168 -0.7583  0.2809
 7090SOL    HW233330   9.736   1.060   3.195 -0.1248 -0.5051 -0.2885
 7091SOL     OW33331   8.111   1.891   8.823 -0.0009  0.8464 -0.0813
 7091SOL    HW133332   8.177   1.829   8.781 -1.3262  0.1754 -1.2342
 7091SOL    HW233333   8.148   1.927   8.908  1.3436 -0.4725 -0.0909
 7092SOL     OW33334   8.316   5.076   1.983  0.3659 -0.6784 -0.3447
 7092SOL    HW133335   8.252   5.130   1.929  1.1970  0.7357  0.0737
 7092SOL    HW233336   8.410   5.103   1.962  0.7238 -0.5576  1.2959
 7093SOL     OW33337   7.279   5.421   6.784 -0.3177  0.5279  0.6783
 7093SOL    HW133338   7.311   5.459   6.698  1.8985  3.0038  2.5190
 7093SOL    HW233339   7.191   5.461   6.808  0.0422  1.3968  0.5584
 7094SOL     OW33340   3.111   1.947   7.258  0.2201 -0.2520 -0.0926
 7094SOL    HW133341   3.176   2.022   7.265  0.5814 -0.6067  0.3797
 7094SOL    HW233342   3.067   1.949   7.169 -0.6208  1.2136  0.3500
 7095SOL     OW33343   9.890   2.788   6.338 -0.3659  0.1096 -0.0394
 7095SOL    HW133344   9.857   2.808   6.246 -0.1300  0.2266 -0.0998
 7095SOL    HW233345   9.964   2.851   6.361  0.5116 -0.8271 -0.3013
 7096SOL     OW33346   9.574   3.199   9.522 -0.0510  0.2843  0.4576
 7096SOL    HW133347   9.572   3.100   9.508 -0.5060  0.5179 -1.2410
 7096SOL    HW233348   9.665   3.234   9.501  0.4593  0.0867  2.2325
 7097SOL     OW33349   1.297   0.238   9.195 -0.3766 -0.0740  0.4614
 7097SOL    HW133350   1.263   0.183   9.272  0.3585 -1.7929 -0.4168
 7097SOL    HW233351   1.311   0.332   9.225 -1.9676 -0.2684  1.9171
 7098SOL     OW33352   1.977   4.470   7.472 -0.3729 -1.2756  0.3648
 7098SOL    HW133353   1.905   4.498   7.407  1.1760  2.4786  0.1348
 7098SOL    HW233354   2.065   4.467   7.425  0.9004  2.2095  2.3159
 7099SOL     OW33355   7.982   4.860   3.452  0.7437 -0.2101  0.3056
 7099SOL    HW133356   7.892   4.899   3.430 -0.3933 -2.9062  0.0720
 7099SOL    HW233357   8.048   4.888   3.382 -0.3289  0.2529 -0.5418
 7100SOL     OW33358   9.762   0.449   9.024  0.2959 -0.0410  0.0234
 7100SOL    HW133359   9.744   0.472   9.120 -2.3567 -1.6010 -0.0633
 7100SOL    HW233360   9.842   0.390   9.019 -0.1672 -0.7958  1.3796
 7101SOL     OW33361   0.182   4.775   7.045 -0.1159 -0.4466  0.4487
 7101SOL    HW133362   0.196   4.747   7.140  0.7192  1.1789  0.8232
 7101SOL    HW233363   0.088   4.755   7.018 -0.3427 -0.9774  1.5989
 7102SOL     OW33364   7.642   5.540   4.449  0.0206  0.0627 -0.1641
 7102SOL    HW133365   7.566   5.605   4.440  0.4940  0.5196 -0.9396
 7102SOL    HW233366   7.659   5.522   4.545 -2.6982 -1.9654  0.0005
 7103SOL     OW33367   8.628   9.148   2.181  0.5358  0.2939  0.3443
 7103SOL    HW133368   8.677   9.209   2.243 -1.4150  1.0273  1.2057
 7103SOL    HW233369   8.666   9.056   2.187  2.6351  1.1329  0.0233
 7104SOL     OW33370   8.462   4.993   3.088 -0.2329 -0.0121  0.4571
 7104SOL    HW133371   8.364   4.990   3.069 -0.0476 -3.3696 -0.1460
 7104SOL    HW233372   8.481   4.947   3.175  0.6781  1.9455  1.3355
 7105SOL     OW33373   5.041   9.195   3.183  0.2682 -0.2081  0.6314
 7105SOL    HW133374   5.010   9.278   3.136  0.1900  0.0041  1.0509
 7105SOL    HW233375   4.961   9.143   3.214  0.3188 -0.1944  0.7885
 7106SOL     OW33376   2.039   8.338   6.403  0.3772  0.3311  0.4772
 7106SOL    HW133377   2.005   8.381   6.320 -3.2723 -2.4038  0.4315
 7106SOL    HW233378   2.040   8.405   6.478 -2.6561  1.2271 -0.2058
 7107SOL     OW33379   3.668   2.281   3.062  0.4235 -0.2990  0.6464
 7107SOL    HW133380   3.757   2.316   3.094  0.5334 -0.5010  0.5632
 7107SOL    HW233381   3.595   2.323   3.116  0.4579  1.1215 -0.3757
 7108SOL     OW33382   7.507   2.146   4.894 -0.1769  0.2097 -0.0692
 7108SOL    HW133383   7.560   2.116   4.815 -0.6762  0.0008 -0.3260
 7108SOL    HW233384   7.447   2.072   4.924  0.2895  0.1483  0.7534
 7109SOL     OW33385   1.800   0.404   6.155 -0.2359  0.3878 -0.0266
 7109SOL    HW133386   1.754   0.331   6.104  1.1685 -0.7979  0.3732
 7109SOL    HW233387   1.898   0.398   6.140 -0.1457  2.6388 -0.5292
 7110SOL     OW33388   0.845   6.690   8.842  0.0016 -0.5333  0.1856
 7110SOL    HW133389   0.846   6.596   8.877  1.1248 -1.1818 -1.5413
 7110SOL    HW233390   0.932   6.734   8.865  0.7392 -0.9600 -1.7331
 7111SOL     OW33391   6.861   2.230   9.150 -0.3597  0.2379  0.4281
 7111SOL    HW133392   6.785   2.171   9.178 -0.8123  0.6342  0.0452
 7111SOL    HW233393   6.850   2.320   9.191  0.4876 -0.0253  1.2480
 7112SOL     OW33394   7.420   8.818   7.511 -0.4979 -0.3330  0.2494
 7112SOL    HW133395   7.393   8.833   7.416 -0.4437 -0.5421  0.2018
 7112SOL    HW233396   7.387   8.895   7.567  0.4600  0.3644 -0.1289
 7113SOL     OW33397   3.550   7.123   0.275  0.0520  0.9707  0.0407
 7113SOL    HW133398   3.491   7.193   0.315  0.0140  0.8757  0.1493
 7113SOL    HW233399   3.576   7.056   0.345  0.0057  0.8196 -0.0858
 7114SOL     OW33400   2.038   1.830   1.792 -0.1581  0.2896 -0.5174
 7114SOL    HW133401   1.960   1.885   1.824 -0.8936 -1.8481  1.5848
 7114SOL    HW233402   2.123   1.874   1.820 -0.7324  0.5815  0.8570
 7115SOL     OW33403   9.026   9.797   4.334 -0.1646  0.1576  0.0070
 7115SOL    HW133404   8.961   9.868   4.361  0.0984 -0.1171  1.3930
 7115SOL    HW233405   9.062   9.752   4.416  1.5184  0.0810 -0.7520
 7116SOL     OW33406   6.255   9.200   8.229 -0.6842 -0.0006  0.2974
 7116SOL    HW133407   6.313   9.122   8.255 -0.8483 -0.4572 -0.7009
 7116SOL    HW233408   6.184   9.169   8.166 -0.9693  0.8997  0.1769
 7117SOL     OW33409   1.600   9.382   3.580 -0.5690 -0.7893  0.3193
 7117SOL    HW133410   1.582   9.454   3.648 -1.6621 -0.5930 -0.1763
 7117SOL    HW233411   1.648   9.422   3.502 -0.9388 -0.6552  0.1620
 7118SOL     OW33412   7.449   2.240   1.622 -0.0502 -0.3554 -0.0027
 7118SOL    HW133413   7.406   2.257   1.711 -1.0504 -0.1139 -0.5182
 7118SOL    HW233414   7.537   2.286   1.618  1.1099 -2.3324  1.7520
 7119SOL     OW33415   4.581   4.617   8.333  0.2293  0.6452 -0.4341
 7119SOL    HW133416   4.591   4.672   8.249 -0.1875 -0.9528 -1.5494
 7119SOL    HW233417   4.658   4.554   8.340 -1.5536 -1.7034 -1.4987
 7120SOL     OW33418   2.759   5.470   4.535  1.0032  0.2481  0.1002
 7120SOL    HW133419   2.702   5.480   4.453  0.1411  1.1681  0.7983
 7120SOL    HW233420   2.756   5.376   4.566 -1.4890  0.6129  1.0803
 7121SOL     OW33421   3.822   8.431   2.898 -0.6087  0.2405  0.2113
 7121SOL    HW133422   3.871   8.442   2.985 -0.2704 -2.1270  0.3443
 7121SOL    HW233423   3.740   8.376   2.912 -1.0565  0.6356 -0.8135
 7122SOL     OW33424   7.426   0.733   2.691 -0.4388  0.0493 -0.0960
 7122SOL    HW133425   7.377   0.653   2.728 -1.5410  0.3279 -0.9164
 7122SOL    HW233426   7.461   0.788   2.767 -0.5469 -0.6733  0.4925
 7123SOL     OW33427   3.790   7.159   2.970  0.7297 -0.2941 -0.6625
 7123SOL    HW133428   3.747   7.201   3.050  0.4853 -0.5905 -0.6378
 7123SOL    HW233429   3.850   7.084   3.001  1.1436  0.0127 -0.7073
 7124SOL     OW33430   7.579   0.989   4.592  0.5180  0.2582  0.5641
 7124SOL    HW133431   7.501   0.990   4.530 -0.7947 -0.2510  2.1822
 7124SOL    HW233432   7.659   1.029   4.546 -0.4107 -0.1619 -1.4454
 7125SOL     OW33433   4.614   2.379   2.567  0.1953 -0.0136  0.3056
 7125SOL    HW133434   4.606   2.458   2.628  0.1748 -0.3997  0.7984
 7125SOL    HW233435   4.662   2.407   2.483  2.5432 -0.0903  1.5735
 7126SOL     OW33436   2.446   9.475   9.769  0.2067  0.6629  0.1502
 7126SOL    HW133437   2.419   9.551   9.828  1.5503  0.5760  0.9057
 7126SOL    HW233438   2.379   9.401   9.777 -1.7516  2.2019 -1.4969
 7127SOL     OW33439   9.943   3.911   3.853  0.3389 -0.0770 -0.2201
 7127SOL    HW133440   9.933   3.971   3.774 -0.9338  0.3075  0.2224
 7127SOL    HW233441   9.875   3.838   3.848  0.5356 -0.3018  0.2982
 7128SOL     OW33442   2.354   5.415   5.200 -0.1382  0.6014 -0.4845
 7128SOL    HW133443   2.451   5.436   5.217 -0.6462  1.7372  1.0331
 7128SOL    HW233444   2.324   5.463   5.117  0.5140  0.4978 -0.7835
 7129SOL     OW33445   0.306   2.316   0.446  0.0071 -0.3102 -0.2026
 7129SOL    HW133446   0.379   2.373   0.485 -1.3717  1.5960 -0.3580
 7129SOL    HW233447   0.219   2.364   0.452 -1.0624 -2.0975 -1.0558
 7130SOL     OW33448   8.287   2.228   8.147  0.1798  0.0981 -0.0435
 7130SOL    HW133449   8.285   2.253   8.050  0.8746 -0.2881 -0.1563
 7130SOL    HW233450   8.193   2.218   8.180 -0.0460 -0.7141 -0.9156
 7131SOL     OW33451   7.177   8.379   8.090 -0.4015  0.3551  0.9672
 7131SOL    HW133452   7.135   8.288   8.087 -0.3290  0.2409  2.7276
 7131SOL    HW233453   7.118   8.444   8.043  1.2813 -1.2261 -3.5112
 7132SOL     OW33454   2.844   2.376   1.153 -0.7491  0.5397 -0.3596
 7132SOL    HW133455   2.799   2.462   1.129 -2.2934  0.0038  0.4955
 7132SOL    HW233456   2.799   2.336   1.233 -0.3351 -1.2532 -0.9835
 7133SOL     OW33457   7.505   8.840   8.299  0.0538 -0.5206 -0.4401
 7133SOL    HW133458   7.586   8.810   8.249  0.8043 -0.2158  0.5556
 7133SOL    HW233459   7.490   8.778   8.377  0.5321  0.5870  0.5500
 7134SOL     OW33460   5.673   6.432   2.762 -0.3497 -0.2200  0.0281
 7134SOL    HW133461   5.683   6.428   2.861  1.1459  0.5704 -0.0789
 7134SOL    HW233462   5.753   6.390   2.719 -1.2432 -1.0350 -0.8363
 7135SOL     OW33463   8.877   6.669   8.991 -0.0366  0.0196  0.0963
 7135SOL    HW133464   8.859   6.763   8.962 -2.4009 -0.2610  0.5424
 7135SOL    HW233465   8.870   6.664   9.091  1.0469 -0.4478  0.1524
 7136SOL     OW33466   6.603   0.898   0.027 -0.1689 -0.4569  0.3275
 7136SOL    HW133467   6.657   0.821  -0.008  0.3102 -0.2901  0.6940
 7136SOL    HW233468   6.662   0.978   0.037 -0.3601 -0.4238  1.2433
 7137SOL     OW33469   7.945   8.525   3.930 -0.5990  0.5163 -0.0063
 7137SOL    HW133470   8.039   8.540   3.961 -0.2418  1.8557 -1.6757
 7137SOL    HW233471   7.882   8.537   4.006  0.3196  3.0522  0.3879
 7138SOL     OW33472   1.758   4.451   3.721 -0.4479 -0.1802  0.2161
 7138SOL    HW133473   1.806   4.368   3.693  0.6538  0.6869 -0.5050
 7138SOL    HW233474   1.824   4.521   3.749 -1.2485  1.0966 -0.9926
 7139SOL     OW33475   2.923   4.603   7.600  0.1998 -0.0558 -0.4009
 7139SOL    HW133476   2.987   4.620   7.675  1.6042  1.7420 -1.9579
 7139SOL    HW233477   2.861   4.681   7.591 -0.3525 -0.5296 -0.7260
 7140SOL     OW33478   1.183   0.106   3.031  0.2724 -0.1248 -0.1010
 7140SOL    HW133479   1.162   0.153   3.116  2.3990  1.3246 -0.3573
 7140SOL    HW233480   1.182   0.007   3.047 -0.3684  0.0998  1.3331
 7141SOL     OW33481   0.199   9.312   4.281  0.0194 -0.8316 -0.1816
 7141SOL    HW133482   0.224   9.320   4.184 -2.9948  1.1418 -0.8650
 7141SOL    HW233483   0.252   9.378   4.334  0.1554 -0.4147 -0.8227
 7142SOL     OW33484   7.121   4.202   0.257 -0.0366  0.5656 -0.0306
 7142SOL    HW133485   7.112   4.212   0.356 -0.0974 -0.3379  0.0644
 7142SOL    HW233486   7.215   4.221   0.229 -0.4188  2.5411 -0.0322
 7143SOL     OW33487   5.230   1.222   9.666 -0.0809 -0.1542 -0.5559
 7143SOL    HW133488   5.192   1.286   9.599 -0.1316 -0.4281 -0.7961
 7143SOL    HW233489   5.222   1.129   9.630  0.9363 -0.2067 -0.6560
 7144SOL     OW33490   1.127   9.601   0.742  0.1017  0.7296 -0.4231
 7144SOL    HW133491   1.166   9.554   0.663 -1.8842  2.0125 -2.2491
 7144SOL    HW233492   1.069   9.538   0.793  0.3397  0.2232 -0.7701
 7145SOL     OW33493   0.871   1.004   2.182  0.4396 -0.2561  0.0767
 7145SOL    HW133494   0.901   1.003   2.087  0.0524  3.3297 -0.1644
 7145SOL    HW233495   0.938   1.054   2.238 -1.1311  0.9366  0.9539
 7146SOL     OW33496   3.055   7.363   2.900 -0.1459  0.0410  0.0842
 7146SOL    HW133497   3.090   7.341   2.808 -0.6245  0.8868 -0.3015
 7146SOL    HW233498   3.127   7.404   2.954  0.2907 -0.9429  0.2676
 7147SOL     OW33499   9.664   0.290   8.286 -0.2395  0.0523 -0.1306
 7147SOL    HW133500   9.683   0.343   8.368  1.9258  1.6481 -1.6208
 7147SOL    HW233501   9.573   0.313   8.252 -1.0873 -0.4874  1.6585
 7148SOL     OW33502   1.353   4.722   7.163 -0.0108  0.7759  0.0886
 7148SOL    HW133503   1.387   4.811   7.132  0.9456  0.3285 -0.1730
 7148SOL    HW233504   1.260   4.732   7.197  0.3771  2.0386  0.8350
 7149SOL     OW33505   5.135   0.081   6.511 -0.5754 -0.1966 -0.0955
 7149SOL    HW133506   5.157   0.012   6.442  0.9341  0.4840 -0.3044
 7149SOL    HW233507   5.036   0.097   6.512 -0.8194 -1.6056 -0.7579
 7150SOL     OW33508   0.568   5.013   7.807 -0.2990  0.1518 -0.2273
 7150SOL    HW133509   0.644   4.987   7.866 -1.4796  0.5255  1.4740
 7150SOL    HW233510   0.574   5.111   7.787 -0.3488  0.1854 -0.0773
 7151SOL     OW33511   6.973   0.592   0.200 -0.2030  0.0016  0.7257
 7151SOL    HW133512   6.910   0.576   0.123  1.9000  0.2675 -1.1033
 7151SOL    HW233513   6.921   0.595   0.285 -2.3733 -2.1967 -0.4514
 7152SOL     OW33514   8.422   0.393   1.328 -0.0402  0.5747  0.2152
 7152SOL    HW133515   8.431   0.368   1.232 -0.8890  1.8742 -0.2232
 7152SOL    HW233516   8.467   0.325   1.385  2.6526  1.0886 -1.2142
 7153SOL     OW33517   0.335   5.746   6.314 -0.1388 -0.3778  0.2053
 7153SOL    HW133518   0.316   5.656   6.351  1.2089 -0.3182  1.0855
 7153SOL    HW233519   0.262   5.810   6.341  0.1713 -0.6339  1.6696
 7154SOL     OW33520   7.015   0.002   7.457  0.1253 -0.5179 -0.3757
 7154SOL    HW133521   7.088  -0.064   7.473  0.3455 -0.0682  0.4905
 7154SOL    HW233522   7.027   0.044   7.367 -0.4742 -2.2247 -1.2938
 7155SOL     OW33523   0.137   0.985   0.190  0.0055 -0.2252 -0.2321
 7155SOL    HW133524   0.174   0.896   0.216  1.4113  0.5697  0.6054
 7155SOL    HW233525   0.208   1.055   0.202 -1.5406  1.2378  0.6279
 7156SOL     OW33526   6.745   8.718   7.134  0.1048 -0.0677 -0.0432
 7156SOL    HW133527   6.794   8.790   7.184  0.8822 -1.8973  1.9178
 7156SOL    HW233528   6.647   8.725   7.152  0.2503  0.0981  0.6922
 7157SOL     OW33529   5.693   3.263   1.751  0.2594 -0.7111  0.9037
 7157SOL    HW133530   5.775   3.211   1.776 -0.0549  0.2733  4.2876
 7157SOL    HW233531   5.633   3.205   1.696  3.0574 -1.5337 -1.4035
 7158SOL     OW33532   2.530   5.907   9.533 -0.3258  0.1277  0.2981
 7158SOL    HW133533   2.509   5.832   9.471  0.3196  1.4977 -1.6416
 7158SOL    HW233534   2.624   5.937   9.517 -0.2951  0.7876  1.6602
 7159SOL     OW33535   6.730   9.858   8.461  0.5783 -0.0048 -0.2946
 7159SOL    HW133536   6.686   9.876   8.549  1.5868  0.9217  0.0388
 7159SOL    HW233537   6.820   9.819   8.477 -0.2198 -2.2035 -0.9795
 7160SOL     OW33538   9.754   7.538   8.465 -0.3144 -0.3886  0.0055
 7160SOL    HW133539   9.674   7.540   8.404 -0.1344 -0.3227 -0.2279
 7160SOL    HW233540   9.727   7.573   8.555  0.2286  2.7606 -0.9987
 7161SOL     OW33541   2.497   6.904   9.344  0.0002  0.1480 -0.3215
 7161SOL    HW133542   2.562   6.976   9.317  0.8681 -1.0029 -1.3712
 7161SOL    HW233543   2.536   6.815   9.322 -1.8914 -0.5750 -0.8328
 7162SOL     OW33544   6.632   0.707   1.091  0.3849 -0.3433  0.6503
 7162SOL    HW133545   6.681   0.783   1.134  0.7253 -0.2086  0.0365
 7162SOL    HW233546   6.691   0.664   1.023 -0.1660 -0.5158  0.2761
 7163SOL     OW33547   7.488   7.591   8.034 -0.3921 -0.2794 -0.1005
 7163SOL    HW133548   7.496   7.667   8.099  0.0319 -1.8005  1.6475
 7163SOL    HW233549   7.577   7.545   8.025 -0.5765 -0.3966 -1.3699
 7164SOL     OW33550   3.836   0.085   7.155  0.2838  0.2094 -0.4393
 7164SOL    HW133551   3.851   0.155   7.086  0.4584 -1.9061 -2.6362
 7164SOL    HW233552   3.826  -0.004   7.110  0.2277 -1.2063  2.2674
 7165SOL     OW33553   5.335   9.225   9.168  0.2554  0.2446  0.1022
 7165SOL    HW133554   5.256   9.274   9.132 -0.2155 -0.7030 -0.1953
 7165SOL    HW233555   5.333   9.130   9.134  2.5413  0.7135 -1.4513
 7166SOL     OW33556   6.912   6.069   7.383  0.0858 -0.0068  0.2451
 7166SOL    HW133557   6.843   6.142   7.376  0.0143 -0.0159  0.9036
 7166SOL    HW233558   6.889   5.996   7.318 -1.4181 -0.7456  1.5620
 7167SOL     OW33559   1.114   9.401   8.272 -0.3599  1.3678 -0.2536
 7167SOL    HW133560   1.107   9.390   8.173 -0.9970 -0.2194 -0.0503
 7167SOL    HW233561   1.201   9.363   8.303  0.2199  2.6379 -0.2979
 7168SOL     OW33562   6.361   5.897   0.220  0.0908 -0.2763  0.0370
 7168SOL    HW133563   6.284   5.859   0.270  0.4928 -1.9594 -0.6032
 7168SOL    HW233564   6.426   5.824   0.197  2.9343  1.3670  2.3771
 7169SOL     OW33565   7.312   7.052   6.441  0.4295 -0.7804 -0.8202
 7169SOL    HW133566   7.378   6.977   6.446  1.1399 -0.1564 -0.7789
 7169SOL    HW233567   7.268   7.064   6.530  0.4880 -0.9903 -0.7626
 7170SOL     OW33568   3.299   3.783   9.860 -0.2994  0.0802  0.2199
 7170SOL    HW133569   3.325   3.847   9.788  0.0619 -0.9502 -0.5868
 7170SOL    HW233570   3.381   3.757   9.912 -0.2485 -0.6168 -0.2023
 7171SOL     OW33571   0.425   6.613   6.636  0.3587 -0.0744  0.3711
 7171SOL    HW133572   0.503   6.673   6.650  0.6405 -0.2447 -0.4223
 7171SOL    HW233573   0.381   6.593   6.724  1.8232 -0.8061  0.9417
 7172SOL     OW33574   2.586   8.145   6.034 -0.4455  0.1811  0.3693
 7172SOL    HW133575   2.658   8.154   6.103 -1.6876 -0.4787  1.7818
 7172SOL    HW233576   2.498   8.165   6.076 -1.6072 -3.4833 -0.1928
 7173SOL     OW33577   6.276   9.215   9.000 -0.2121 -0.1498  0.4999
 7173SOL    HW133578   6.278   9.215   8.900  1.2593  1.5801  0.5129
 7173SOL    HW233579   6.369   9.226   9.036 -0.8307  0.2111  2.0387
 7174SOL     OW33580   5.607   4.750   0.606 -0.3272 -0.3901  0.5506
 7174SOL    HW133581   5.669   4.803   0.664 -0.0284 -1.2760  1.0538
 7174SOL    HW233582   5.552   4.689   0.663 -0.9268 -0.3540  0.0113
 7175SOL     OW33583   0.397   6.161   6.899  0.4429 -0.1344  0.3674
 7175SOL    HW133584   0.391   6.256   6.928  1.2880  0.3929 -1.1192
 7175SOL    HW233585   0.464   6.113   6.955  1.8767  0.8059 -0.5024
 7176SOL     OW33586   4.435   4.553   8.563  0.1799  0.3298  0.2116
 7176SOL    HW133587   4.485   4.555   8.476 -1.2722 -0.6825 -0.6826
 7176SOL    HW233588   4.498   4.534   8.638  1.2457 -0.1852 -0.8003
 7177SOL     OW33589   4.043   3.609   1.475 -0.0165 -0.0963 -0.0591
 7177SOL    HW133590   3.949   3.642   1.463 -0.4651 -0.7542  1.5652
 7177SOL    HW233591   4.092   3.671   1.537 -0.0094 -0.8963  0.7381
 7178SOL     OW33592   3.330   0.344   6.182 -0.3701 -0.3054  0.2311
 7178SOL    HW133593   3.380   0.420   6.140  3.0341 -1.5835  1.8565
 7178SOL    HW233594   3.301   0.370   6.274 -0.0270 -0.6378  0.4338
 7179SOL     OW33595   1.699   7.394   9.733 -0.1501 -0.3304 -0.2324
 7179SOL    HW133596   1.775   7.412   9.795 -0.2879 -2.6618  0.6483
 7179SOL    HW233597   1.651   7.480   9.714  0.2945  0.5518  2.3864
 7180SOL     OW33598   2.062   0.898   9.936 -0.0992 -0.4617  0.1342
 7180SOL    HW133599   2.120   0.842   9.995 -0.4442 -0.7498  0.2020
 7180SOL    HW233600   2.071   0.867   9.841 -1.1655 -1.3899  0.3252
 7181SOL     OW33601   5.110   9.506   7.194 -0.0888 -0.4732  0.0366
 7181SOL    HW133602   5.091   9.600   7.223 -0.5686 -0.5768  0.0647
 7181SOL    HW233603   5.187   9.506   7.130  0.2339 -0.1173  0.4159
 7182SOL     OW33604   2.085   9.029   7.886 -0.2142  0.1889  0.1745
 7182SOL    HW133605   2.146   8.952   7.870 -0.7715 -0.0038 -1.0447
 7182SOL    HW233606   2.134   9.115   7.868  0.6942  0.1911  2.4413
 7183SOL     OW33607   7.791   1.504   7.207 -0.1019  0.3704 -0.8442
 7183SOL    HW133608   7.797   1.586   7.150 -0.9923  1.9630  1.3079
 7183SOL    HW233609   7.785   1.530   7.303 -0.1452 -2.2402 -0.1050
 7184SOL     OW33610   3.566   3.444   9.069  0.0886  0.0778 -0.4528
 7184SOL    HW133611   3.659   3.479   9.082  0.9304 -2.2345 -0.0788
 7184SOL    HW233612   3.511   3.514   9.023  1.6805  1.9183  0.3499
 7185SOL     OW33613   8.150   0.124   9.119 -0.0553  0.0019 -0.6177
 7185SOL    HW133614   8.121   0.122   9.215  0.4243 -0.5054 -0.4781
 7185SOL    HW233615   8.103   0.198   9.071 -1.4791 -0.7298 -0.3777
 7186SOL     OW33616   2.770   0.759   8.988  0.3433 -0.9401  0.5288
 7186SOL    HW133617   2.775   0.808   8.901  2.7303 -1.4512  0.3433
 7186SOL    HW233618   2.846   0.789   9.047 -0.5070 -1.5308  1.9489
 7187SOL     OW33619   3.217   6.545   4.276 -0.3788 -0.4454  0.3402
 7187SOL    HW133620   3.249   6.584   4.363  0.7101 -0.2655 -0.1358
 7187SOL    HW233621   3.295   6.520   4.220 -1.0709  0.8451 -1.2342
 7188SOL     OW33622   5.479   4.090   9.903  0.5068  0.4825 -0.0458
 7188SOL    HW133623   5.500   4.022   9.833 -0.6764  0.1218 -0.0526
 7188SOL    HW233624   5.518   4.178   9.876  0.1358  0.3272 -1.1157
 7189SOL     OW33625   5.824   2.740   9.637 -0.5758  0.5913  0.1759
 7189SOL    HW133626   5.888   2.792   9.693 -0.7689 -0.2877  1.2331
 7189SOL    HW233627   5.859   2.647   9.623 -0.9126  0.5574 -0.4947
 7190SOL     OW33628   2.544   9.011  10.008  0.5481 -0.1890  0.6502
 7190SOL    HW133629   2.535   9.048  10.100  0.5752 -1.2933  1.1084
 7190SOL    HW233630   2.611   8.937  10.009 -0.4854 -1.1444  0.0261
 7191SOL     OW33631   9.865   8.790   3.440  0.0776  0.0705 -0.4898
 7191SOL    HW133632   9.858   8.821   3.535  0.1544  3.3717 -1.4935
 7191SOL    HW233633   9.774   8.766   3.406 -0.3583  1.6438 -0.4474
 7192SOL     OW33634   1.281   9.505   0.028  0.0079  0.3572  0.7879
 7192SOL    HW133635   1.234   9.498   0.117 -0.7254  1.4869  0.4981
 7192SOL    HW233636   1.234   9.571  -0.029  0.2456 -0.6705 -0.6112
 7193SOL     OW33637   9.128   7.938   0.321  0.9496  0.0061  0.3612
 7193SOL    HW133638   9.151   8.032   0.348  1.2035  0.0914 -0.1509
 7193SOL    HW233639   9.041   7.937   0.273  1.1860  0.0416 -0.0634
 7194SOL     OW33640   3.002   4.637   6.106 -0.5842 -0.0320  0.1181
 7194SOL    HW133641   3.034   4.544   6.124 -1.8391 -0.9361 -2.0997
 7194SOL    HW233642   3.079   4.693   6.075 -0.2631 -1.0234 -0.9358
 7195SOL     OW33643   9.320   6.912   8.554  0.2631 -0.1543 -0.7092
 7195SOL    HW133644   9.233   6.904   8.507 -0.4581  0.7901  0.4274
 7195SOL    HW233645   9.370   6.992   8.520  0.4193 -0.3497 -0.9398
 7196SOL     OW33646   2.769   9.223   1.598 -0.0476 -0.0852  0.3255
 7196SOL    HW133647   2.748   9.248   1.693  2.1603  3.9077 -0.1360
 7196SOL    HW233648   2.850   9.164   1.597  0.0975  0.0928  0.9438
 7197SOL     OW33649   8.144   2.061   5.406  0.1404 -0.6276 -0.2556
 7197SOL    HW133650   8.208   1.986   5.391  1.5398  0.1408  1.5550
 7197SOL    HW233651   8.098   2.048   5.494  0.3244  0.5700  0.0312
 7198SOL     OW33652   4.609   0.292   8.648 -0.1416  0.0666 -0.1372
 7198SOL    HW133653   4.658   0.265   8.565 -0.3198  1.0729 -0.5780
 7198SOL    HW233654   4.631   0.387   8.670 -0.5911  0.0019  0.6119
 7199SOL     OW33655   7.289   1.691   8.028 -0.5151 -0.1064  0.4864
 7199SOL    HW133656   7.330   1.695   8.120 -0.0253  1.6474  0.2011
 7199SOL    HW233657   7.355   1.723   7.961 -1.7615  1.1250 -0.1767
 7200SOL     OW33658   1.841   7.311   7.748 -0.0989 -0.2284  0.2356
 7200SOL    HW133659   1.834   7.215   7.722 -0.6162 -0.3627  0.8737
 7200SOL    HW233660   1.773   7.365   7.699 -1.0069 -0.4668  1.2036
 7201SOL     OW33661   8.984   1.020   5.802 -0.0639  0.2761 -0.0823
 7201SOL    HW133662   8.973   0.939   5.745 -3.2614  1.2010 -0.9171
 7201SOL    HW233663   8.948   1.001   5.894  3.0301 -0.5067  1.0321
 7202SOL     OW33664   1.366   0.219   5.554  0.1508  0.1829  0.4012
 7202SOL    HW133665   1.426   0.298   5.542 -0.8254  1.0393  1.0636
 7202SOL    HW233666   1.281   0.248   5.597 -0.1569 -1.2607  0.7970
 7203SOL     OW33667   0.917   1.640   8.157  0.2754 -0.4742  0.0270
 7203SOL    HW133668   0.954   1.562   8.208  3.2161  0.7378 -0.2034
 7203SOL    HW233669   0.927   1.723   8.211  2.1845  0.6127 -1.9242
 7204SOL     OW33670   2.208   9.343   9.667 -0.3589 -0.0378  0.2153
 7204SOL    HW133671   2.148   9.289   9.727  0.2782  1.2729  2.1021
 7204SOL    HW233672   2.266   9.281   9.614  0.3579 -1.2476  2.3141
 7205SOL     OW33673   8.239   3.666   2.417 -0.3192 -0.0824 -0.0037
 7205SOL    HW133674   8.201   3.626   2.500  2.3364  0.7737  1.6726
 7205SOL    HW233675   8.203   3.758   2.405 -2.0325 -0.8173 -0.7949
 7206SOL     OW33676   7.055   4.815   2.554 -0.2528  0.7195 -0.0412
 7206SOL    HW133677   7.084   4.911   2.559 -1.8114  1.1212  1.2766
 7206SOL    HW233678   7.116   4.759   2.610 -0.7966  1.2711  1.0960
 7207SOL     OW33679   8.734   1.793   9.491 -0.4338  0.0698  0.8451
 7207SOL    HW133680   8.667   1.841   9.548  2.0778  1.7739  2.4826
 7207SOL    HW233681   8.802   1.859   9.458 -0.2824 -1.3827 -1.8850
 7208SOL     OW33682   2.986   4.492   9.391 -0.5665  0.3577  0.2181
 7208SOL    HW133683   3.018   4.557   9.322 -2.3935  1.6828  0.5803
 7208SOL    HW233684   2.949   4.411   9.346 -0.4796  0.6096 -0.3065
 7209SOL     OW33685   8.728   3.464   6.814  0.0301  0.0330  0.0566
 7209SOL    HW133686   8.756   3.558   6.833 -0.0530  0.2973 -1.0659
 7209SOL    HW233687   8.809   3.407   6.802  0.0803 -0.0069  0.5662
 7210SOL     OW33688   9.065   1.869   6.395  0.3700  0.5701  0.3794
 7210SOL    HW133689   9.144   1.813   6.418  0.4805  1.0196  1.0851
 7210SOL    HW233690   9.085   1.965   6.413 -0.4623  0.6502  0.8922
 7211SOL     OW33691   6.678   6.286   0.374 -0.5182  0.2300 -0.4369
 7211SOL    HW133692   6.739   6.209   0.395  1.9897  2.5652  1.0280
 7211SOL    HW233693   6.590   6.250   0.344  0.7608 -3.2324 -0.2860
 7212SOL     OW33694   6.882   6.565   6.827 -0.5345  0.1264  0.4271
 7212SOL    HW133695   6.879   6.657   6.867  0.5252 -0.0535  0.9316
 7212SOL    HW233696   6.821   6.504   6.879  0.6159 -0.0380  1.6039
 7213SOL     OW33697   1.232   2.896   4.361 -0.2119  0.5625  0.0707
 7213SOL    HW133698   1.260   2.887   4.457  1.2497  1.0416 -0.2953
 7213SOL    HW233699   1.313   2.894   4.303 -1.2799 -3.1602 -1.4455
 7214SOL     OW33700   6.894   2.183   3.893 -0.4940  0.1055  0.0824
 7214SOL    HW133701   6.988   2.211   3.873 -1.1474  2.1081 -0.3297
 7214SOL    HW233702   6.891   2.084   3.909  2.2762  0.4817  3.6416
 7215SOL     OW33703   4.163   6.306   0.868 -0.3094 -0.0960 -0.5768
 7215SOL    HW133704   4.152   6.213   0.830  1.3984 -0.3168 -0.5500
 7215SOL    HW233705   4.147   6.373   0.795 -0.9136 -0.4219 -0.7507
 7216SOL     OW33706   0.368   5.973   3.614  0.2837  0.4930  0.6876
 7216SOL    HW133707   0.464   5.957   3.638  0.2857 -0.4388  0.0700
 7216SOL    HW233708   0.321   6.016   3.691  1.1747  0.8675  1.0250
 7217SOL     OW33709   5.951   3.618   1.919 -0.3553  0.3372  0.2986
 7217SOL    HW133710   5.928   3.572   1.834  0.8027 -1.3960  0.9027
 7217SOL    HW233711   6.009   3.698   1.900  0.1575 -0.2248 -0.4989
 7218SOL     OW33712   2.151   1.342   6.057  0.1926 -0.4164 -0.1016
 7218SOL    HW133713   2.238   1.388   6.073 -0.0421  0.9540 -2.6521
 7218SOL    HW233714   2.119   1.361   5.965 -1.6962 -2.7936  0.0093
 7219SOL     OW33715   9.161   1.725   1.150 -0.1934 -0.4939  0.4370
 7219SOL    HW133716   9.143   1.814   1.191  2.4939 -0.3785  1.4687
 7219SOL    HW233717   9.256   1.721   1.120 -0.3584 -2.9247  0.1617
 7220SOL     OW33718   4.058   2.862   9.756  0.0160  0.0499 -0.6597
 7220SOL    HW133719   4.124   2.868   9.832  0.2219 -1.9391 -0.6513
 7220SOL    HW233720   3.979   2.920   9.777  0.8922  0.9626  0.2211
 7221SOL     OW33721   0.722   8.857   4.569 -0.0716 -0.2786  0.1169
 7221SOL    HW133722   0.779   8.782   4.538 -0.1031  0.8859 -2.9687
 7221SOL    HW233723   0.718   8.858   4.669  2.1867 -2.6428  0.2648
 7222SOL     OW33724   3.064   3.846  10.019  0.4993 -0.5224 -0.2015
 7222SOL    HW133725   3.037   3.899  10.099  0.6228  0.9589 -1.1270
 7222SOL    HW233726   3.159   3.865   9.996  1.2469 -2.8691  0.7855
 7223SOL     OW33727   3.596   0.560   1.172  0.0487  0.1607 -1.0770
 7223SOL    HW133728   3.605   0.545   1.270 -0.3310 -0.5335 -1.1453
 7223SOL    HW233729   3.685   0.545   1.128  0.0713 -0.1862 -0.9190
 7224SOL     OW33730   3.652   4.088   5.474 -0.6128 -0.3288  0.3977
 7224SOL    HW133731   3.717   4.149   5.429  0.0902 -0.6130  1.0268
 7224SOL    HW233732   3.662   3.995   5.439 -2.0751  0.0082 -0.9760
 7225SOL     OW33733   8.811   3.793   4.936 -0.5968  0.0215  0.9912
 7225SOL    HW133734   8.753   3.751   4.866 -2.8043  1.0187  2.1559
 7225SOL    HW233735   8.867   3.864   4.895  0.3595 -1.4494 -0.2935
 7226SOL     OW33736   9.108   1.421   5.221  0.4799  0.0966  0.3167
 7226SOL    HW133737   9.206   1.420   5.201  0.5026 -0.5827  0.4393
 7226SOL    HW233738   9.059   1.368   5.152  0.2575  0.0223  0.5269
 7227SOL     OW33739   6.650   9.497   3.562  0.5345 -0.1432 -0.3037
 7227SOL    HW133740   6.647   9.480   3.463  3.4615 -0.9256 -0.3064
 7227SOL    HW233741   6.738   9.538   3.586 -0.0621 -0.1628  2.0207
 7228SOL     OW33742   4.871   1.898   7.868 -0.0651 -0.0012 -0.1852
 7228SOL    HW133743   4.917   1.966   7.925 -0.8177  1.6390 -1.4990
 7228SOL    HW233744   4.778   1.928   7.848 -0.1746 -1.0745 -1.3533
 7229SOL     OW33745   8.511   5.125   0.167  0.4686  0.0275  0.7750
 7229SOL    HW133746   8.445   5.064   0.210  1.6888 -0.9868  1.2450
 7229SOL    HW233747   8.579   5.072   0.117  1.1653  1.0300  0.6280
 7230SOL     OW33748   8.393   5.165   0.553  0.0998 -0.0968  0.3607
 7230SOL    HW133749   8.490   5.141   0.540  0.9217  2.1709  1.9851
 7230SOL    HW233750   8.370   5.241   0.493 -0.1062  0.7089  1.4541
 7231SOL     OW33751   5.439   9.908   2.969 -0.4463  0.2533 -0.0808
 7231SOL    HW133752   5.389   9.981   3.017  1.4643  1.2948  0.4069
 7231SOL    HW233753   5.531   9.941   2.945  0.1175 -1.6911 -0.6963
 7232SOL     OW33754   1.141   2.896   7.288 -0.0803 -0.4695  0.0097
 7232SOL    HW133755   1.168   2.928   7.197  2.3670 -1.6992  0.2732
 7232SOL    HW233756   1.151   2.970   7.354 -0.5302  0.0239 -0.4679
 7233SOL     OW33757   0.093   4.178   3.793  0.5654 -0.0674 -0.0726
 7233SOL    HW133758   0.111   4.185   3.891  0.7113  2.6557 -0.2502
 7233SOL    HW233759   0.150   4.106   3.753  0.8085 -0.9125  1.7554
 7234SOL     OW33760   2.976   4.723   8.691  0.1371 -0.1480  0.0731
 7234SOL    HW133761   2.898   4.762   8.642 -2.7533 -2.1052  2.9190
 7234SOL    HW233762   2.986   4.769   8.779  2.3447  0.1827 -0.3325
 7235SOL     OW33763   2.421   2.901   6.476  0.2324 -0.1536  0.2271
 7235SOL    HW133764   2.422   2.805   6.447  0.0774  0.6104 -2.4838
 7235SOL    HW233765   2.335   2.943   6.449  1.4873  1.5141 -1.3161
 7236SOL     OW33766   0.808   9.047   1.572  0.2327  0.1982  0.1040
 7236SOL    HW133767   0.744   9.115   1.536  0.9015  1.6016  1.5258
 7236SOL    HW233768   0.875   9.092   1.630  2.5400 -1.2559 -1.3481
 7237SOL     OW33769   6.526   0.446   4.445 -0.5538  0.3023 -0.1869
 7237SOL    HW133770   6.552   0.531   4.400  1.7968  1.0407  2.3939
 7237SOL    HW233771   6.587   0.372   4.416 -0.3741  0.3024  0.1852
 7238SOL     OW33772   1.053   6.747   8.427 -0.1081 -0.4062 -0.6045
 7238SOL    HW133773   0.967   6.797   8.419 -0.2615 -0.6040 -0.1939
 7238SOL    HW233774   1.043   6.655   8.389 -0.3143 -0.7108  0.1638
 7239SOL     OW33775   5.557   1.645   4.302  0.0331 -0.0766  0.7338
 7239SOL    HW133776   5.485   1.713   4.310  0.6634  0.4938  1.5577
 7239SOL    HW233777   5.520   1.562   4.259 -1.2256  0.0195  1.6187
 7240SOL     OW33778   8.471   0.989   5.814 -0.4465  0.3579 -0.5217
 7240SOL    HW133779   8.561   1.025   5.835 -0.5236 -0.0827  0.6219
 7240SOL    HW233780   8.478   0.891   5.795 -1.0504 -0.2870  2.3866
 7241SOL     OW33781   0.127   4.468   3.036 -0.2996 -0.1980  0.3924
 7241SOL    HW133782   0.163   4.559   3.053  0.8381 -0.7131  0.7861
 7241SOL    HW233783   0.027   4.469   3.043 -0.3667  1.2209 -0.5856
 7242SOL     OW33784   1.954   5.829   2.198 -0.7022 -0.1387 -0.3224
 7242SOL    HW133785   2.012   5.910   2.196  0.3062 -0.8475  0.0095
 7242SOL    HW233786   1.941   5.800   2.293 -0.7194 -0.6165 -0.4708
 7243SOL     OW33787   4.200   8.495   3.490  0.1830  0.3015  0.4642
 7243SOL    HW133788   4.224   8.398   3.491  0.2982  0.3333  0.8747
 7243SOL    HW233789   4.273   8.548   3.534  0.6137  0.6904 -0.6951
 7244SOL     OW33790   1.637   3.729   7.257  0.5247 -0.4451  0.4217
 7244SOL    HW133791   1.642   3.657   7.327 -0.7423 -1.8772 -0.9306
 7244SOL    HW233792   1.551   3.778   7.267  0.7818 -0.0037  0.4726
 7245SOL     OW33793   2.579   6.764   2.472  0.4964  0.1666  0.5894
 7245SOL    HW133794   2.567   6.822   2.553  1.1046 -0.4228  1.1005
 7245SOL    HW233795   2.516   6.686   2.477  2.8434 -1.6684  2.1334
 7246SOL     OW33796   7.763   1.919   7.756 -0.0722  0.3125  0.1303
 7246SOL    HW133797   7.739   1.936   7.661  0.7494  1.2097  0.0788
 7246SOL    HW233798   7.863   1.918   7.766 -0.1154  3.4220  1.5089
 7247SOL     OW33799   1.568   0.613   0.891  0.5099 -0.0922  0.6745
 7247SOL    HW133800   1.656   0.578   0.925  0.9160  1.5971  1.4166
 7247SOL    HW233801   1.579   0.708   0.863 -0.6595 -0.4327 -1.0033
 7248SOL     OW33802   2.431   3.212   8.641  0.5569 -0.3794 -0.2695
 7248SOL    HW133803   2.425   3.159   8.557  0.4147  4.3399 -3.4073
 7248SOL    HW233804   2.527   3.226   8.665  0.6580  0.1255 -0.9426
 7249SOL     OW33805   6.742   2.546   1.848  0.6048 -0.7170  0.7836
 7249SOL    HW133806   6.644   2.533   1.865  0.3715  1.0371  0.9358
 7249SOL    HW233807   6.767   2.502   1.762 -0.5400 -0.3752  0.2633
 7250SOL     OW33808   8.218   9.295   2.037 -0.0987  0.2456  0.0486
 7250SOL    HW133809   8.167   9.362   1.983  0.2560  0.1767 -0.3724
 7250SOL    HW233810   8.161   9.263   2.113 -1.5447 -1.5860 -1.7773
 7251SOL     OW33811   8.704   2.649   9.676 -0.7153  0.0491  0.5774
 7251SOL    HW133812   8.676   2.736   9.635  0.8516  0.7525  0.9514
 7251SOL    HW233813   8.804   2.645   9.681 -0.7760 -1.5807  1.0056
 7252SOL     OW33814   5.298   0.377   7.744 -0.0731  0.2063  0.7206
 7252SOL    HW133815   5.308   0.321   7.661  1.6588 -0.1878  1.1719
 7252SOL    HW233816   5.292   0.317   7.824  1.3979  0.6558  1.1691
 7253SOL     OW33817   9.511   4.216   5.906 -0.1199  0.4147  0.3332
 7253SOL    HW133818   9.528   4.194   5.810 -0.0961 -0.4272  0.5284
 7253SOL    HW233819   9.450   4.295   5.912 -1.4109 -0.5100 -0.3725
 7254SOL     OW33820   0.245   8.463   0.485  0.3739 -0.0387  0.2613
 7254SOL    HW133821   0.223   8.430   0.577 -1.5971 -1.3204 -0.6479
 7254SOL    HW233822   0.243   8.387   0.421 -2.1501  1.4809 -1.5160
 7255SOL     OW33823   6.101   7.855   8.356 -0.3126 -0.4844  0.1798
 7255SOL    HW133824   6.188   7.894   8.388 -0.2425 -1.0151  0.6518
 7255SOL    HW233825   6.076   7.896   8.268 -0.3357  0.7416  0.7506
 7256SOL     OW33826   2.174   7.779   6.449  0.0330 -0.0033 -0.2529
 7256SOL    HW133827   2.098   7.797   6.511  0.9297  0.3404  0.7665
 7256SOL    HW233828   2.259   7.773   6.502  0.5977 -1.1945 -1.2849
 7257SOL     OW33829   0.352   2.993   7.366  0.1157 -0.0026  0.1859
 7257SOL    HW133830   0.382   3.028   7.455  1.1960  0.7238 -0.4431
 7257SOL    HW233831   0.328   3.070   7.306 -0.9082 -0.4980 -0.0463
 7258SOL     OW33832   5.042   0.522   8.674  0.0902 -0.9180  0.5973
 7258SOL    HW133833   5.058   0.601   8.615  3.6715 -1.0194  1.3390
 7258SOL    HW233834   5.025   0.553   8.767  0.0925 -0.9792  0.6190
 7259SOL     OW33835   4.464   7.412   4.692  0.4495  0.2636 -0.2040
 7259SOL    HW133836   4.398   7.449   4.757  1.8884  2.1108  0.2806
 7259SOL    HW233837   4.426   7.417   4.600 -0.8394 -0.5197  0.2810
 7260SOL     OW33838   1.641   4.771   9.489  0.2545 -0.0074 -0.0088
 7260SOL    HW133839   1.678   4.729   9.571 -0.4172 -0.7028 -0.0629
 7260SOL    HW233840   1.629   4.869   9.504  0.3842 -0.0898  0.6283
 7261SOL     OW33841   7.402   3.159   1.985  0.4881 -0.5112  0.2362
 7261SOL    HW133842   7.357   3.173   2.074 -0.2154  0.2378 -0.2347
 7261SOL    HW233843   7.501   3.169   1.996  0.2198  2.0642  0.4658
 7262SOL     OW33844   6.710   5.625   2.141  0.5543 -0.7276 -0.8075
 7262SOL    HW133845   6.751   5.536   2.120  0.1696 -0.6186 -2.0207
 7262SOL    HW233846   6.712   5.683   2.061 -1.8747 -0.6858 -0.8910
 7263SOL     OW33847   1.070   6.588   1.004  0.2579  0.1969  0.3523
 7263SOL    HW133848   1.073   6.623   1.098 -1.6431  1.6810 -0.1010
 7263SOL    HW233849   0.984   6.538   0.990  0.8034 -0.5402 -0.4224
 7264SOL     OW33850   6.632   8.964   4.785  0.0198 -0.0201 -0.2674
 7264SOL    HW133851   6.646   9.049   4.834  1.4946  0.7919 -2.0130
 7264SOL    HW233852   6.655   8.887   4.844  2.1903  0.9526  0.1936
 7265SOL     OW33853   1.218   0.997   5.772  0.5881  0.2016 -0.5362
 7265SOL    HW133854   1.256   0.980   5.864 -1.4108 -1.9079 -0.0396
 7265SOL    HW233855   1.275   0.950   5.704 -0.5709 -2.3068  0.1354
 7266SOL     OW33856   2.820   4.847   1.003 -0.2421  0.7757 -0.1918
 7266SOL    HW133857   2.827   4.937   0.960 -0.4756 -0.1973 -2.3332
 7266SOL    HW233858   2.903   4.795   0.984 -0.8443 -0.1000 -0.4441
 7267SOL     OW33859   7.866   1.567   5.210 -0.0919  0.1280  0.2601
 7267SOL    HW133860   7.905   1.480   5.180 -1.2451  0.0897 -1.1591
 7267SOL    HW233861   7.931   1.641   5.190  0.3469 -0.2478  0.2835
 7268SOL     OW33862   6.937   3.971   9.186  0.2681 -0.2678  0.0715
 7268SOL    HW133863   6.924   4.037   9.113  2.2299  0.1709  0.1072
 7268SOL    HW233864   6.849   3.929   9.209 -0.6726  0.9796 -1.2088
 7269SOL     OW33865   9.226   7.063   2.351 -0.6466  0.1549  0.2452
 7269SOL    HW133866   9.147   7.073   2.291 -0.7000 -1.2690  0.0729
 7269SOL    HW233867   9.258   6.969   2.350  1.4126  0.8312 -0.1168
 7270SOL     OW33868   2.515   5.222   1.049 -0.3179 -0.1584 -0.1113
 7270SOL    HW133869   2.493   5.200   1.144  0.5867 -2.0059 -0.2908
 7270SOL    HW233870   2.613   5.240   1.041 -0.1995 -1.0878 -0.8634
 7271SOL     OW33871   3.023   0.334   4.382  0.0043  0.4244  0.6539
 7271SOL    HW133872   3.009   0.235   4.389 -1.2042  0.5479  0.0562
 7271SOL    HW233873   3.001   0.377   4.470 -1.6724  0.4171  0.2423
 7272SOL     OW33874   0.905   7.402   7.295  0.0822 -0.1831 -0.0400
 7272SOL    HW133875   0.843   7.325   7.310  1.5770 -1.7068 -1.5714
 7272SOL    HW233876   0.972   7.406   7.369 -1.7046  1.3914  1.5516
 7273SOL     OW33877   3.266   5.599   8.873  0.7386  0.2732  0.2077
 7273SOL    HW133878   3.212   5.516   8.888  1.2593  0.2375  1.9613
 7273SOL    HW233879   3.347   5.577   8.818  0.8574 -0.3637  0.6382
 7274SOL     OW33880   6.913   2.137   3.594  0.8965  0.2347  0.5359
 7274SOL    HW133881   6.843   2.191   3.641 -1.0707 -0.9412 -0.9630
 7274SOL    HW233882   6.969   2.088   3.662  0.7802  1.7844  1.7756
 7275SOL     OW33883   0.643   2.794   3.301  0.2736  0.0534 -0.4035
 7275SOL    HW133884   0.637   2.726   3.228  0.0032  1.2492 -1.5188
 7275SOL    HW233885   0.551   2.822   3.328  0.3601 -0.7483  0.7571
 7276SOL     OW33886   8.354   1.010   0.720 -0.0807  0.0071 -0.1277
 7276SOL    HW133887   8.304   1.012   0.634 -0.7628  1.0913  0.2799
 7276SOL    HW233888   8.408   1.094   0.729 -0.5196  0.1975  0.7850
 7277SOL     OW33889   0.333   9.759   3.257  0.8660  0.2012 -0.0880
 7277SOL    HW133890   0.273   9.772   3.336 -1.5293 -2.7276 -1.3072
 7277SOL    HW233891   0.308   9.823   3.185 -0.8508 -1.0100 -0.5885
 7278SOL     OW33892   5.192   9.209   6.596 -0.3349 -0.8053 -0.3336
 7278SOL    HW133893   5.270   9.271   6.596 -1.2246  0.3434 -0.5597
 7278SOL    HW233894   5.220   9.120   6.632  0.2008  0.6840  3.1899
 7279SOL     OW33895   1.502   7.609   3.999 -0.3685  0.1226 -0.0251
 7279SOL    HW133896   1.544   7.565   3.920  1.2536  1.3681  0.1147
 7279SOL    HW233897   1.402   7.604   3.991 -0.2220 -0.1446 -1.9326
 7280SOL     OW33898   4.449   5.583   4.248  0.6774 -0.4723  0.1735
 7280SOL    HW133899   4.543   5.566   4.276  0.9634 -0.8031 -0.9621
 7280SOL    HW233900   4.402   5.496   4.234  0.2627 -0.3091  0.5578
 7281SOL     OW33901   9.876   5.665   6.629 -0.1514  0.5843  0.3756
 7281SOL    HW133902   9.948   5.633   6.690  0.5392 -0.6829 -1.0416
 7281SOL    HW233903   9.883   5.764   6.618  0.2453  0.7090  1.6559
 7282SOL     OW33904   1.178   3.067   7.518 -0.5967 -0.1427 -0.1894
 7282SOL    HW133905   1.268   3.106   7.540 -0.0836  0.1132 -2.5259
 7282SOL    HW233906   1.129   3.045   7.602  2.5544 -2.3920  1.1705
 7283SOL     OW33907   2.360   0.326   9.393  0.2082 -0.2275  0.0896
 7283SOL    HW133908   2.293   0.384   9.347 -3.0360 -3.9691 -0.1940
 7283SOL    HW233909   2.438   0.309   9.331 -1.0994 -0.0852 -1.6359
 7284SOL     OW33910   5.331   9.517   6.321  0.3953  0.0955  0.2861
 7284SOL    HW133911   5.338   9.473   6.411 -0.3125  0.4820  0.5391
 7284SOL    HW233912   5.244   9.492   6.278  1.3947 -1.3222 -0.9786
 7285SOL     OW33913   7.844   0.981   6.891  0.2846  0.0108  0.0322
 7285SOL    HW133914   7.838   0.882   6.904 -3.2150  0.0041 -0.9876
 7285SOL    HW233915   7.864   1.001   6.795  1.3313  0.3039  0.3050
 7286SOL     OW33916   6.632   5.307   1.690 -0.7792  0.1005 -0.1572
 7286SOL    HW133917   6.700   5.367   1.734  0.5961  1.0521 -3.4125
 7286SOL    HW233918   6.549   5.305   1.744  0.7001  1.5391  2.2382
 7287SOL     OW33919   6.502   1.547   2.342 -0.7195 -0.3291 -0.1978
 7287SOL    HW133920   6.449   1.501   2.412 -0.5012  0.8731  0.7786
 7287SOL    HW233921   6.599   1.528   2.356 -0.1474  4.0197  3.0717
 7288SOL     OW33922   0.698   3.115   3.201 -0.0183  0.5724  0.4534
 7288SOL    HW133923   0.739   3.153   3.117  0.9130 -0.5970  0.3693
 7288SOL    HW233924   0.598   3.113   3.191 -0.0624  2.6398  0.3155
 7289SOL     OW33925   3.481   3.834   1.799  0.1375 -0.4939 -0.1568
 7289SOL    HW133926   3.437   3.922   1.783 -0.0000 -0.8359 -1.7760
 7289SOL    HW233927   3.573   3.848   1.836 -0.7417  0.2617  1.8014
 7290SOL     OW33928   1.006   6.349   6.720  0.0356 -0.4213 -0.2484
 7290SOL    HW133929   1.030   6.258   6.686  1.5642 -1.1237  2.5150
 7290SOL    HW233930   0.980   6.342   6.816  0.4586  2.1101  0.0635
 7291SOL     OW33931   6.099   5.343   7.329 -0.6166 -0.3669 -0.2276
 7291SOL    HW133932   6.171   5.411   7.312 -0.6054 -0.1841  0.5726
 7291SOL    HW233933   6.094   5.323   7.426 -0.0126 -2.1798 -0.5494
 7292SOL     OW33934   8.447   8.537   9.787 -0.3436  0.1290  0.2774
 7292SOL    HW133935   8.359   8.536   9.739 -0.5007 -1.3794  0.5603
 7292SOL    HW233936   8.518   8.574   9.728 -0.4652 -2.0211 -1.2589
 7293SOL     OW33937   1.216   4.111   1.692  0.0779 -0.1945  0.5496
 7293SOL    HW133938   1.295   4.095   1.753  1.5554  0.9147 -1.0260
 7293SOL    HW233939   1.196   4.209   1.689 -0.5689 -0.3479 -0.0383
 7294SOL     OW33940   3.560   8.352   3.800  0.0094  0.0503 -0.2358
 7294SOL    HW133941   3.657   8.327   3.799 -0.1170 -0.4469 -1.8030
 7294SOL    HW233942   3.551   8.448   3.773 -0.0671 -0.5054 -2.2767
 7295SOL     OW33943   3.296   3.966   4.099 -0.0520 -0.2021  0.1676
 7295SOL    HW133944   3.356   3.942   4.023  0.3900  1.2052  0.0700
 7295SOL    HW233945   3.244   3.885   4.127  0.5905 -0.9925 -0.9007
 7296SOL     OW33946   9.000   2.594   2.608 -0.0824  0.1784  0.0454
 7296SOL    HW133947   8.907   2.618   2.580  0.6492  0.1195 -2.5505
 7296SOL    HW233948   9.065   2.622   2.538  1.8316 -0.2528  1.5870
 7297SOL     OW33949   0.366   8.757   4.197 -0.4071 -0.7187 -0.1985
 7297SOL    HW133950   0.366   8.762   4.296 -2.0195  2.0428 -0.2924
 7297SOL    HW233951   0.431   8.686   4.167  2.1061  0.2623  2.7078
 7298SOL     OW33952   2.388   5.922   3.396  0.0963 -0.0323  0.6918
 7298SOL    HW133953   2.367   5.835   3.352 -2.1420  0.6279  0.3923
 7298SOL    HW233954   2.487   5.930   3.409  0.5746 -1.3163 -1.9405
 7299SOL     OW33955   7.655   9.245   4.309  0.7302  0.1495  0.7340
 7299SOL    HW133956   7.708   9.160   4.308  1.2075  0.4424  0.5932
 7299SOL    HW233957   7.706   9.315   4.360  1.2040  0.8836 -0.6920
 7300SOL     OW33958   6.340   2.306   9.689 -0.5401 -0.0182 -0.2440
 7300SOL    HW133959   6.327   2.395   9.646 -1.2291 -0.5049 -1.0574
 7300SOL    HW233960   6.423   2.264   9.655  1.1346  1.3491  1.9626
 7301SOL     OW33961   1.025   0.037   3.829  0.3691 -0.5638  0.2092
 7301SOL    HW133962   1.068   0.086   3.753 -2.3511 -0.9926 -1.6946
 7301SOL    HW233963   0.994   0.102   3.898  0.9795  0.0054 -0.0521
 7302SOL     OW33964   3.516   4.694   5.928 -0.3409  0.0702  0.1115
 7302SOL    HW133965   3.520   4.605   5.973 -1.2432  0.3755  0.8098
 7302SOL    HW233966   3.597   4.706   5.871  0.5200 -0.5774  1.1840
 7303SOL     OW33967   8.696   4.522   2.699  0.0820 -0.5665  0.4188
 7303SOL    HW133968   8.628   4.562   2.761  0.0964 -1.3439  0.9396
 7303SOL    HW233969   8.676   4.425   2.684 -1.5662  0.2257 -3.0467
 7304SOL     OW33970   7.666   6.402   0.923 -0.3747  0.4867 -0.5963
 7304SOL    HW133971   7.706   6.330   0.867  0.6073  0.0620  0.6328
 7304SOL    HW233972   7.567   6.388   0.931 -0.0401 -1.3378  0.5183
 7305SOL     OW33973   4.337   9.972   1.810 -0.2757 -0.3009  0.0780
 7305SOL    HW133974   4.337   9.940   1.905 -1.9325 -1.6318 -0.3445
 7305SOL    HW233975   4.325  10.072   1.809  2.6625  0.1210  1.3305
 7306SOL     OW33976   1.268   0.224   2.047 -0.1609  0.3147  0.0365
 7306SOL    HW133977   1.305   0.203   2.138  0.2676  0.8020 -0.0208
 7306SOL    HW233978   1.183   0.274   2.057  0.2642  1.0214  0.1771
 7307SOL     OW33979   5.995   1.079   1.558 -0.5560  0.2309 -0.1971
 7307SOL    HW133980   5.982   1.037   1.469 -0.2374 -0.5775  0.1343
 7307SOL    HW233981   5.966   1.175   1.554 -0.2834  0.2761 -1.2321
 7308SOL     OW33982   3.269   0.406   9.746 -0.1588 -0.3619  0.0955
 7308SOL    HW133983   3.340   0.462   9.702  0.6535 -1.4207  0.0522
 7308SOL    HW233984   3.287   0.400   9.844 -1.2304  0.8934  0.3851
 7309SOL     OW33985   1.853   0.485   0.958 -0.1424 -0.1963 -0.4888
 7309SOL    HW133986   1.839   0.485   1.057 -0.9430  1.7730 -0.5734
 7309SOL    HW233987   1.894   0.399   0.929  2.9917  0.3813  1.9692
 7310SOL     OW33988   1.914   2.853   8.296  0.0347 -0.0968 -0.1501
 7310SOL    HW133989   1.830   2.838   8.244 -1.8411 -0.1752  2.7866
 7310SOL    HW233990   1.952   2.765   8.325 -0.6721  0.0272  1.2225
 7311SOL     OW33991   8.859   4.615   1.337 -0.8163 -0.8002 -0.2301
 7311SOL    HW133992   8.929   4.546   1.317 -0.4946 -0.5400 -0.0074
 7311SOL    HW233993   8.772   4.585   1.299 -0.4465 -0.8252 -1.0796
 7312SOL     OW33994   5.027   6.874   3.426  0.3830 -0.1320 -0.1104
 7312SOL    HW133995   4.973   6.887   3.510  1.5971 -1.1577  0.8427
 7312SOL    HW233996   5.067   6.962   3.399 -0.6023  0.3525 -0.0381
 7313SOL     OW33997   8.157   7.816   4.655 -0.3275 -0.4043  0.2319
 7313SOL    HW133998   8.192   7.814   4.561 -0.9750 -1.3372 -0.0002
 7313SOL    HW233999   8.146   7.911   4.685 -0.5555 -0.0958 -0.8001
 7314SOL     OW34000   9.220   4.406   4.581 -0.1300  0.3170 -0.0130
 7314SOL    HW134001   9.128   4.403   4.621 -0.0249 -1.2873  0.1316
 7314SOL    HW234002   9.228   4.337   4.509  1.0324  0.2850  0.1297
 7315SOL     OW34003   3.562   1.821   4.688  0.0943  0.0016  0.0579
 7315SOL    HW134004   3.581   1.912   4.650  0.9637  0.6610  2.0004
 7315SOL    HW234005   3.622   1.754   4.646  1.4270  0.8066  0.6562
 7316SOL     OW34006   3.899   6.853   4.033 -0.0143  0.1118  0.2026
 7316SOL    HW134007   3.869   6.810   3.948  1.1693  1.0081 -0.6889
 7316SOL    HW234008   3.999   6.853   4.037 -0.0554  0.4501  1.4086
 7317SOL     OW34009   9.283   5.883   7.329 -0.6156 -0.0143 -0.8848
 7317SOL    HW134010   9.225   5.860   7.251  0.6261  0.6202 -2.0070
 7317SOL    HW234011   9.234   5.948   7.388 -2.0748 -1.5080 -0.4155
 7318SOL     OW34012   1.054   4.713   5.554  0.1298  0.0352  0.8533
 7318SOL    HW134013   0.996   4.741   5.631 -1.8709 -1.0471 -0.1993
 7318SOL    HW234014   1.109   4.791   5.524 -2.9410  1.9792  0.0427
 7319SOL     OW34015   9.163   6.047   7.903 -0.3022  0.1768  0.6949
 7319SOL    HW134016   9.117   6.048   7.991 -0.8404  1.0808  0.4134
 7319SOL    HW234017   9.210   6.135   7.889 -2.1097  0.9310 -0.8754
 7320SOL     OW34018   9.028   9.314   1.149 -0.3947 -0.0969  0.5254
 7320SOL    HW134019   9.058   9.407   1.169 -1.3383  0.0509  1.2228
 7320SOL    HW234020   9.100   9.250   1.175  0.6267  0.4819 -0.7756
 7321SOL     OW34021   7.780   1.446   5.657 -0.1748  0.1560 -0.3052
 7321SOL    HW134022   7.755   1.508   5.582 -0.6971  2.0255  1.3816
 7321SOL    HW234023   7.826   1.498   5.729  1.0240 -1.7659  0.3454
 7322SOL     OW34024   1.812   0.223   8.767  0.4951 -0.0628  0.2521
 7322SOL    HW134025   1.792   0.293   8.836  2.2418  0.8934 -0.1827
 7322SOL    HW234026   1.907   0.192   8.777  1.0287  0.6400 -2.1610
 7323SOL     OW34027   9.785   2.682   6.813 -0.0043 -0.3100  0.0587
 7323SOL    HW134028   9.737   2.595   6.806  0.5983 -0.6477  0.1235
 7323SOL    HW234029   9.725   2.756   6.780 -0.3624 -0.7949 -0.3804
 7324SOL     OW34030   9.496   6.149   4.226 -0.5766 -0.0990  0.0744
 7324SOL    HW134031   9.450   6.169   4.140 -0.8771 -0.3287  0.1766
 7324SOL    HW234032   9.448   6.074   4.272  0.9366 -1.5496 -0.6487
 7325SOL     OW34033   6.001   9.494   4.013 -0.5478 -0.7422 -0.5087
 7325SOL    HW134034   6.048   9.507   4.101 -0.8732 -1.9711 -0.1461
 7325SOL    HW234035   5.912   9.451   4.029 -1.8563  1.6105 -1.1822
 7326SOL     OW34036   5.935   1.251   9.874 -0.3583  0.2773  0.5060
 7326SOL    HW134037   5.889   1.286   9.955 -0.9322 -1.2367  0.8538
 7326SOL    HW234038   6.028   1.222   9.898 -0.9951 -1.4762  0.9673
 7327SOL     OW34039   0.411   7.588   8.944  0.4756 -0.0888 -0.1959
 7327SOL    HW134040   0.377   7.636   8.863  1.8581 -0.0663 -0.7777
 7327SOL    HW234041   0.343   7.521   8.974 -0.5817  0.7796 -0.6215
 7328SOL     OW34042   3.169   8.409   2.173 -0.3087 -0.1180  0.1309
 7328SOL    HW134043   3.206   8.499   2.197  0.6922 -0.1908 -1.0721
 7328SOL    HW234044   3.243   8.341   2.176 -1.0717 -0.9142  1.0793
 7329SOL     OW34045   6.215   0.888   1.336 -0.0747 -0.0144 -0.4178
 7329SOL    HW134046   6.167   0.920   1.418 -1.0267  1.1892 -1.4323
 7329SOL    HW234047   6.208   0.788   1.330  0.3709 -0.1536  1.1875
 7330SOL     OW34048   8.081   3.338   3.481  0.1008 -0.1986  0.1445
 7330SOL    HW134049   8.099   3.389   3.565 -1.8525  0.2518  0.3053
 7330SOL    HW234050   8.100   3.241   3.496  1.3030  0.1069  0.6159
 7331SOL     OW34051   8.216   3.468   5.829 -0.2567  0.4238  0.5081
 7331SOL    HW134052   8.228   3.445   5.733  3.0417  1.6745  0.5639
 7331SOL    HW234053   8.264   3.400   5.886  0.6314  1.5326  1.1074
 7332SOL     OW34054   7.755   2.649   2.383 -0.4728 -0.4814  0.2887
 7332SOL    HW134055   7.829   2.640   2.316  0.1566 -1.2480  1.0754
 7332SOL    HW234056   7.680   2.701   2.343  0.5818  0.4916 -0.4508
 7333SOL     OW34057   9.380   6.119   2.811 -0.2530 -0.2198 -0.4588
 7333SOL    HW134058   9.299   6.150   2.762 -0.2508  1.3795  0.5037
 7333SOL    HW234059   9.364   6.027   2.847 -1.1199 -0.4587 -1.4181
 7334SOL     OW34060   1.281   5.241   0.535 -0.1862 -0.7479  0.0953
 7334SOL    HW134061   1.277   5.201   0.444  0.0263  1.6066 -0.9933
 7334SOL    HW234062   1.188   5.261   0.566 -0.1788 -0.0807 -0.2979
 7335SOL     OW34063   2.945   7.550   9.486 -0.2162  0.4505 -0.9438
 7335SOL    HW134064   2.964   7.614   9.561  0.1294 -0.6505 -0.0823
 7335SOL    HW234065   2.862   7.579   9.438 -0.8477  0.7701  0.3101
 7336SOL     OW34066   0.149   9.149   7.188  0.2074  0.1102  1.0193
 7336SOL    HW134067   0.111   9.142   7.280  0.3837  1.3581  1.2047
 7336SOL    HW234068   0.176   9.244   7.171  0.2095 -0.1163 -0.3028
 7337SOL     OW34069   8.744   7.435   2.752 -0.4999 -0.3496 -0.5620
 7337SOL    HW134070   8.767   7.365   2.684 -0.0427  0.1564 -0.9285
 7337SOL    HW234071   8.738   7.524   2.708  2.3967  0.4119  0.4918
 7338SOL     OW34072   7.681   5.219   7.331 -0.2270  0.9390 -0.2872
 7338SOL    HW134073   7.769   5.241   7.290 -0.1799  2.5508  0.6468
 7338SOL    HW234074   7.615   5.291   7.309 -0.7700  0.7472  0.6925
 7339SOL     OW34075   3.818   7.123   0.180  0.4219 -0.5540  0.2162
 7339SOL    HW134076   3.828   7.110   0.082  0.8601 -0.4635  0.2480
 7339SOL    HW234077   3.722   7.116   0.205  0.5561 -3.0420  0.1463
 7340SOL     OW34078   4.149   7.622   2.486  0.6019  0.3961  0.1244
 7340SOL    HW134079   4.206   7.541   2.469  0.3937  0.3687 -0.4385
 7340SOL    HW234080   4.121   7.622   2.582  1.2111  0.1909  0.3095
 7341SOL     OW34081   1.105   7.448   0.757 -0.2374  0.0421 -0.7757
 7341SOL    HW134082   1.202   7.463   0.774 -0.4125  1.6155 -1.1132
 7341SOL    HW234083   1.093   7.361   0.710  0.9435 -0.4739 -0.1585
 7342SOL     OW34084   3.930   6.812   0.684  0.5963 -0.0176  0.0757
 7342SOL    HW134085   3.896   6.839   0.774 -0.1230  0.0996 -0.2314
 7342SOL    HW234086   4.012   6.865   0.663 -0.0554  0.9974  0.0466
 7343SOL     OW34087   2.187   4.103   8.587  0.4118  0.4323 -0.2084
 7343SOL    HW134088   2.091   4.096   8.559  0.1576 -1.1254  0.9829
 7343SOL    HW234089   2.197   4.069   8.680  1.8818  2.0284  0.2354
 7344SOL     OW34090   8.109   3.495   1.667  0.1173 -0.8625 -0.1813
 7344SOL    HW134091   8.013   3.470   1.671  0.3721 -2.5000 -3.0108
 7344SOL    HW234092   8.118   3.589   1.632 -0.5617  0.8714  4.0669
 7345SOL     OW34093   5.397   8.429   4.648 -0.2382 -0.0872 -0.1121
 7345SOL    HW134094   5.353   8.360   4.706  0.0288  0.1366  0.3611
 7345SOL    HW234095   5.469   8.474   4.700  1.4379 -1.3499 -1.3088
 7346SOL     OW34096   3.281   1.858   9.614 -0.0109  0.0746  0.6993
 7346SOL    HW134097   3.196   1.908   9.633 -0.7913 -0.8166 -0.3907
 7346SOL    HW234098   3.357   1.902   9.663 -1.0953  0.8556  1.7179
 7347SOL     OW34099   7.478   2.351   9.374 -0.7220  0.4757  0.1419
 7347SOL    HW134100   7.493   2.402   9.289  2.1815  0.2120  0.4376
 7347SOL    HW234101   7.539   2.387   9.445  0.3666 -2.4509  0.7474
 7348SOL     OW34102   5.086   5.904   0.784  0.4393  0.4441  0.2158
 7348SOL    HW134103   5.135   5.983   0.748  3.1557 -0.4547  1.7957
 7348SOL    HW234104   5.132   5.872   0.867 -0.6452 -2.7720 -0.3802
 7349SOL     OW34105   0.004   6.416   6.548 -0.0172 -0.4161  0.5625
 7349SOL    HW134106   0.066   6.493   6.529 -1.5522 -0.1006 -3.4530
 7349SOL    HW234107   0.013   6.390   6.644  1.9103  3.5607  1.5665
 7350SOL     OW34108   4.267   5.872   3.297  0.1370 -0.8422 -0.4856
 7350SOL    HW134109   4.348   5.928   3.284 -0.4945 -0.1725 -1.5178
 7350SOL    HW234110   4.291   5.776   3.284  0.9876 -0.7451  0.2707
 7351SOL     OW34111   1.311   9.330   0.864  0.2609  0.4880  0.4780
 7351SOL    HW134112   1.386   9.277   0.904  0.4396 -0.2709 -0.8109
 7351SOL    HW234113   1.335   9.427   0.862  1.6998  0.1288 -0.9315
 7352SOL     OW34114   5.837   4.327   2.396  0.3071 -0.7157  0.7302
 7352SOL    HW134115   5.746   4.327   2.437 -0.0458  0.1100 -0.0452
 7352SOL    HW234116   5.903   4.291   2.462 -0.5230 -0.9998  1.4162
 7353SOL     OW34117   9.356   2.534   5.222  0.2911  0.4025 -0.0364
 7353SOL    HW134118   9.298   2.584   5.286  0.1537 -1.4082  1.2931
 7353SOL    HW234119   9.451   2.564   5.233  0.1311  0.7704  0.3646
 7354SOL     OW34120   2.625   9.642   0.287 -0.2614  0.2456 -0.2295
 7354SOL    HW134121   2.687   9.712   0.255 -0.8632  1.5157  1.3095
 7354SOL    HW234122   2.579   9.599   0.209 -0.4869  2.1231 -1.1467
 7355SOL     OW34123   0.475   4.525   4.218  0.1922  0.1479 -0.2720
 7355SOL    HW134124   0.568   4.551   4.241  0.4640 -1.1944  0.1912
 7355SOL    HW234125   0.418   4.607   4.211  1.1913  0.9026  0.3795
 7356SOL     OW34126   8.442   9.668   0.238 -0.2082  0.0984 -0.4376
 7356SOL    HW134127   8.513   9.737   0.251 -1.2828  0.7102  2.5239
 7356SOL    HW234128   8.452   9.596   0.307 -3.0196  0.6973  0.6647
 7357SOL     OW34129   6.347   3.175   2.041 -0.2410 -0.9014  0.3849
 7357SOL    HW134130   6.276   3.238   2.009 -1.1362 -1.8778  0.4432
 7357SOL    HW234131   6.310   3.116   2.112  1.3213  0.2564  2.2307
 7358SOL     OW34132   2.886   0.630   2.432  0.0270 -0.3409 -0.1605
 7358SOL    HW134133   2.978   0.660   2.410  0.6063 -2.2919 -0.4662
 7358SOL    HW234134   2.852   0.568   2.361 -1.3972  0.0961  0.1055
 7359SOL     OW34135   9.605   2.143   7.824 -1.0824  0.2706 -0.1009
 7359SOL    HW134136   9.586   2.151   7.922 -0.6150 -0.9972  0.0984
 7359SOL    HW234137   9.522   2.110   7.777 -1.2399  0.6709 -0.0988
 7360SOL     OW34138   0.402   2.291   2.113  0.4489 -0.1167 -0.1677
 7360SOL    HW134139   0.375   2.214   2.054  2.0592 -0.5143 -0.3931
 7360SOL    HW234140   0.501   2.300   2.113  0.3360  1.2125  0.8310
 7361SOL     OW34141   7.229   4.447   8.832  0.5049 -0.2866  0.4052
 7361SOL    HW134142   7.306   4.506   8.857  1.4206 -0.9169 -0.8892
 7361SOL    HW234143   7.150   4.504   8.808  1.0092  0.3872  0.3302
 7362SOL     OW34144   9.837   3.513   3.496  0.4655  0.1973  0.0344
 7362SOL    HW134145   9.780   3.592   3.514  1.2329  0.4927  1.1860
 7362SOL    HW234146   9.931   3.542   3.481  0.9732 -0.5676  1.5877
 7363SOL     OW34147   5.502   1.423   9.648 -0.0173 -0.4994 -0.0874
 7363SOL    HW134148   5.547   1.377   9.724 -1.1418  1.2532  1.6799
 7363SOL    HW234149   5.407   1.393   9.642 -1.0577  2.3042  1.7440
 7364SOL     OW34150   1.029   8.798   2.660  0.2941 -0.3346  0.4967
 7364SOL    HW134151   0.959   8.751   2.606 -0.3874 -0.1844  1.2362
 7364SOL    HW234152   1.015   8.778   2.757  2.0859 -1.3875  0.5571
 7365SOL     OW34153   7.843   1.480   3.113 -0.1723  0.7503 -0.2352
 7365SOL    HW134154   7.833   1.497   3.015  0.4261  1.7840 -0.1232
 7365SOL    HW234155   7.756   1.445   3.149  0.3445 -2.0422 -1.5968
 7366SOL     OW34156   6.167   8.879   5.188  0.4596  0.3333 -0.8093
 7366SOL    HW134157   6.107   8.956   5.166 -0.5423 -0.6712 -1.6644
 7366SOL    HW234158   6.123   8.821   5.257  1.4855  0.8644  0.2910
 7367SOL     OW34159   3.942   2.106   7.228  0.0318  0.1754  0.1257
 7367SOL    HW134160   3.971   2.134   7.136 -0.7561  0.2801 -0.0941
 7367SOL    HW234161   4.019   2.117   7.292 -0.2590  3.0171  0.0777
 7368SOL     OW34162   0.913   3.712   5.006  0.1195 -0.2743 -0.1707
 7368SOL    HW134163   0.973   3.703   4.926  0.1877 -1.2300 -0.0238
 7368SOL    HW234164   0.910   3.625   5.054 -0.9212 -0.0557  0.1630
 7369SOL     OW34165   9.228   3.881   6.916  0.1743  0.4640 -0.1768
 7369SOL    HW134166   9.284   3.960   6.943  0.9255 -0.2071  0.2360
 7369SOL    HW234167   9.286   3.813   6.871 -0.5768  0.3861 -1.0286
 7370SOL     OW34168   1.785   2.703   9.463  0.1300 -0.2022 -0.6581
 7370SOL    HW134169   1.861   2.764   9.445  0.2612 -1.1623 -3.7651
 7370SOL    HW234170   1.819   2.613   9.489  0.0996 -0.8378 -2.7655
 7371SOL     OW34171   9.480   5.366   4.452  0.0879 -0.2138  0.7670
 7371SOL    HW134172   9.570   5.370   4.496  0.7446 -0.4046 -0.5538
 7371SOL    HW234173   9.467   5.276   4.412 -0.3580  0.0846  0.2441
 7372SOL     OW34174   3.668   3.860   7.739 -0.2036  0.4312 -0.1559
 7372SOL    HW134175   3.724   3.827   7.662 -0.0259  1.3382 -0.4292
 7372SOL    HW234176   3.718   3.932   7.787 -0.8223  0.7091  0.0692
 7373SOL     OW34177   5.114   8.056   7.722  0.6580 -0.4939 -0.3400
 7373SOL    HW134178   5.136   8.066   7.625  2.0182 -0.9616 -0.0913
 7373SOL    HW234179   5.197   8.033   7.773 -0.0472 -0.2724  0.9340
 7374SOL     OW34180   9.554   6.334   8.150 -0.3507 -0.3021  0.7544
 7374SOL    HW134181   9.557   6.316   8.248  1.9433  0.7121  0.9010
 7374SOL    HW234182   9.615   6.270   8.103 -1.0047 -0.4131  0.0432
 7375SOL     OW34183   2.456   4.647   3.566  0.6627  0.0555  0.2347
 7375SOL    HW134184   2.421   4.568   3.515 -0.7476  0.1699  1.0292
 7375SOL    HW234185   2.448   4.631   3.664 -0.3556  1.5035  0.4048
 7376SOL     OW34186   9.436   6.507   1.250 -0.0709  0.4535 -0.2240
 7376SOL    HW134187   9.392   6.593   1.222 -0.4760  0.2285 -0.2804
 7376SOL    HW234188   9.478   6.463   1.171  0.1912  0.6331 -0.1836
 7377SOL     OW34189   9.725   8.120   0.133  0.0724 -0.9736  0.2956
 7377SOL    HW134190   9.750   8.036   0.181 -1.5772 -1.1744  0.8417
 7377SOL    HW234191   9.634   8.110   0.094  0.3835  0.1114 -0.7282
 7378SOL     OW34192   8.611   0.972   3.282 -0.0478  0.0726  0.1173
 7378SOL    HW134193   8.554   0.980   3.200 -0.3087 -0.0980  0.2771
 7378SOL    HW234194   8.701   0.936   3.258  0.4306  1.5322 -0.3146
 7379SOL     OW34195   1.831   0.732   6.723  0.5169 -0.0859 -0.4126
 7379SOL    HW134196   1.854   0.829   6.715  0.4746 -0.0766 -0.4177
 7379SOL    HW234197   1.732   0.720   6.715  0.5035 -0.1103 -0.2288
 7380SOL     OW34198   3.667   3.949   3.346 -0.4683  0.2814  0.0899
 7380SOL    HW134199   3.595   4.016   3.329 -0.7424 -0.3234 -1.2661
 7380SOL    HW234200   3.648   3.867   3.291  0.0122 -0.7782  1.4962
 7381SOL     OW34201   2.544   5.947   8.442  0.0235  0.5136  0.3419
 7381SOL    HW134202   2.474   5.939   8.514 -0.7451  2.2158 -0.1928
 7381SOL    HW234203   2.561   5.857   8.402 -2.0095  0.1187  0.3363
 7382SOL     OW34204   2.915   1.265   6.195 -0.0345 -0.2060 -0.1389
 7382SOL    HW134205   3.005   1.305   6.175 -0.0002  0.2864  0.9437
 7382SOL    HW234206   2.846   1.311   6.139  0.0884  1.0193  0.6706
 7383SOL     OW34207   2.322   1.527   4.901 -0.0458 -0.1804  0.2219
 7383SOL    HW134208   2.280   1.617   4.886  1.2760  0.4972  0.5164
 7383SOL    HW234209   2.419   1.538   4.920 -0.4847 -1.4300  3.4879
 7384SOL     OW34210   5.246   2.179   8.887 -0.0540  0.7779  0.4090
 7384SOL    HW134211   5.278   2.263   8.844 -1.9253  0.9065 -0.7886
 7384SOL    HW234212   5.277   2.100   8.834 -0.2438  0.8311  0.2155
 7385SOL     OW34213   2.415   8.707   2.982 -0.4736  0.0170  0.1750
 7385SOL    HW134214   2.438   8.689   2.886  0.9010 -1.4603  0.7677
 7385SOL    HW234215   2.316   8.720   2.990 -0.3041  2.9320 -1.8530
 7386SOL     OW34216   4.698   8.237   7.828  0.0413 -0.3714 -0.0843
 7386SOL    HW134217   4.786   8.199   7.855 -1.0989 -1.2772  2.5395
 7386SOL    HW234218   4.654   8.280   7.908 -1.5240  0.7933 -1.5347
 7387SOL     OW34219   8.204   5.113   5.320 -0.3071 -0.2823 -0.2550
 7387SOL    HW134220   8.240   5.156   5.403 -1.4000 -0.0863  0.1305
 7387SOL    HW234221   8.240   5.020   5.312 -0.3511 -0.3762  0.5572
 7388SOL     OW34222   4.886   4.100   0.966 -0.1215  0.0862 -0.5721
 7388SOL    HW134223   4.981   4.131   0.962 -0.4465  1.5338  1.9541
 7388SOL    HW234224   4.828   4.176   0.994 -1.8524 -1.1426 -0.7934
 7389SOL     OW34225   4.534   7.312   5.778  0.6793 -0.2743  0.0610
 7389SOL    HW134226   4.541   7.376   5.701  1.5444  1.5389  1.6060
 7389SOL    HW234227   4.439   7.282   5.787  0.4165  0.0981 -1.2264
 7390SOL     OW34228   7.547   2.422   4.929 -0.3256  0.1622  0.1420
 7390SOL    HW134229   7.505   2.500   4.882  0.2543  0.6089  0.3532
 7390SOL    HW234230   7.516   2.337   4.887 -1.3394  0.4879  0.2192
 7391SOL     OW34231   0.460   6.603   9.170 -0.0274 -0.4185  0.0351
 7391SOL    HW134232   0.526   6.536   9.205  0.4248 -0.1931 -0.3778
 7391SOL    HW234233   0.422   6.656   9.246  2.0304  1.0592  0.0733
 7392SOL     OW34234   4.505   9.918   0.109 -0.5748 -0.1881  0.1409
 7392SOL    HW134235   4.436   9.990   0.125 -1.9915 -2.0796  2.9279
 7392SOL    HW234236   4.592   9.947   0.148 -0.6189  0.8403 -0.4971
 7393SOL     OW34237   7.940   2.822   1.910  1.3667  0.4181 -0.2329
 7393SOL    HW134238   7.990   2.736   1.918 -0.2600 -0.5198 -0.0147
 7393SOL    HW234239   7.843   2.807   1.929  0.9141  2.1376 -1.0278
 7394SOL     OW34240   9.627   6.505   3.511 -0.5353 -0.9240  0.1612
 7394SOL    HW134241   9.550   6.490   3.449  0.4147 -1.2029 -0.9834
 7394SOL    HW234242   9.703   6.544   3.459  0.4961 -1.7578  1.0323
 7395SOL     OW34243   9.454   0.764   7.729  0.8134  0.1362 -0.1700
 7395SOL    HW134244   9.427   0.676   7.767  0.3762  0.4360  0.2098
 7395SOL    HW234245   9.475   0.752   7.632 -2.6153  0.2592 -0.9831
 7396SOL     OW34246   0.412   4.259   9.574 -0.0407  0.3924 -0.4141
 7396SOL    HW134247   0.496   4.311   9.555 -0.8306  1.3460 -1.3148
 7396SOL    HW234248   0.421   4.167   9.537  0.8172  0.3222 -0.0429
 7397SOL     OW34249   9.637   1.342   3.874  0.0229  0.2076  0.4704
 7397SOL    HW134250   9.699   1.392   3.813  0.2888 -1.2192 -0.4544
 7397SOL    HW234251   9.551   1.392   3.883  1.0052  1.8267  1.1516
 7398SOL     OW34252   8.958   4.979   5.975 -0.4670  0.3093  0.5251
 7398SOL    HW134253   9.005   5.060   5.941  1.4363 -0.5777  1.0281
 7398SOL    HW234254   8.938   4.991   6.072 -1.3083  0.6819  0.3132
 7399SOL     OW34255   1.328   8.812   4.794 -0.1145 -0.0748  0.1043
 7399SOL    HW134256   1.285   8.901   4.803  1.5319  0.7351  0.1733
 7399SOL    HW234257   1.387   8.795   4.873  1.8777  0.0819 -1.3082
 7400SOL     OW34258   4.663   4.823   7.556 -0.4613 -0.1834 -0.3169
 7400SOL    HW134259   4.650   4.913   7.599  1.3208 -0.3001  0.5180
 7400SOL    HW234260   4.636   4.828   7.460 -0.3912  1.2331 -0.2828
 7401SOL     OW34261   8.016   6.075   5.921 -0.1706 -0.1792  0.0954
 7401SOL    HW134262   8.030   5.993   5.866 -2.4761 -0.7144  0.2270
 7401SOL    HW234263   7.928   6.116   5.897 -0.7276  0.1778  2.6156
 7402SOL     OW34264   7.846   3.593   7.332  0.1511 -0.5466  0.0738
 7402SOL    HW134265   7.749   3.593   7.357  0.0175 -0.0403 -0.4408
 7402SOL    HW234266   7.896   3.533   7.394 -0.7032 -1.8913 -0.5092
 7403SOL     OW34267   4.346   8.204   8.052 -0.2271  0.8169  0.2459
 7403SOL    HW134268   4.343   8.273   7.979 -0.2090  0.5434 -0.0138
 7403SOL    HW234269   4.442   8.182   8.072 -0.1701  2.1737  1.5645
 7404SOL     OW34270   2.992   5.871   3.459 -0.6695 -0.5366 -0.3388
 7404SOL    HW134271   3.088   5.868   3.485 -1.1311  1.7116  1.8161
 7404SOL    HW234272   2.980   5.934   3.382 -0.6728  0.7881  0.7325
 7405SOL     OW34273   8.508   4.683   7.402  0.1825 -0.3858  0.2884
 7405SOL    HW134274   8.478   4.677   7.307  0.1031 -0.3491  0.3107
 7405SOL    HW234275   8.428   4.682   7.462  0.2145 -0.0783  0.3386
 7406SOL     OW34276   7.159   7.623   8.822  0.2753  0.3820 -0.1009
 7406SOL    HW134277   7.148   7.707   8.769  0.2076  1.0102  0.8947
 7406SOL    HW234278   7.247   7.626   8.871  1.1230 -0.9347 -1.4849
 7407SOL     OW34279   7.046   6.296   9.957  0.0970 -0.0680  0.2816
 7407SOL    HW134280   7.126   6.305   9.898 -0.3572  3.1876  0.0977
 7407SOL    HW234281   7.075   6.268  10.048  1.1531 -1.5090 -0.4718
 7408SOL     OW34282   4.145   7.839   5.870 -0.1716  0.4115  0.0382
 7408SOL    HW134283   4.053   7.802   5.861  0.1251 -0.3036 -0.0346
 7408SOL    HW234284   4.206   7.769   5.906  0.5718  0.5708 -0.8979
 7409SOL     OW34285   1.234   6.561   7.667  0.4354  0.1067 -0.6150
 7409SOL    HW134286   1.280   6.643   7.700 -0.3944 -0.0568  1.0732
 7409SOL    HW234287   1.243   6.488   7.735 -0.8915 -0.4263 -0.9756
 7410SOL     OW34288   8.549   7.949   5.575  0.3832  0.1900 -0.0086
 7410SOL    HW134289   8.483   7.877   5.599 -1.0583  1.3927 -0.2703
 7410SOL    HW234290   8.525   8.033   5.623 -0.4294  1.6493 -2.8621
 7411SOL     OW34291   7.877   7.223   7.037  0.4564 -0.5900 -0.5274
 7411SOL    HW134292   7.856   7.127   7.058  0.1351 -0.6469 -1.1026
 7411SOL    HW234293   7.975   7.234   7.022  0.7988 -0.4254  1.6640
 7412SOL     OW34294   1.830   2.350   5.060 -0.0839 -0.2253  0.1695
 7412SOL    HW134295   1.818   2.299   4.974  2.8131 -0.9833  0.1392
 7412SOL    HW234296   1.820   2.287   5.137  0.7206 -0.2836  0.2342
 7413SOL     OW34297   8.076   7.639   9.368 -0.0668  0.0237 -0.3860
 7413SOL    HW134298   8.036   7.614   9.456 -0.4713  0.9062 -0.3145
 7413SOL    HW234299   8.123   7.727   9.376 -1.2013  0.7359 -1.3516
 7414SOL     OW34300   8.402   2.925   7.621 -0.7289 -0.2401 -0.2824
 7414SOL    HW134301   8.435   2.832   7.632  2.1354  0.9133  1.5870
 7414SOL    HW234302   8.357   2.955   7.706 -1.7734  0.0469 -0.9230
 7415SOL     OW34303   5.748   3.304   2.107 -0.3301  0.5247 -1.1170
 7415SOL    HW134304   5.845   3.324   2.094 -0.6791  1.6427 -2.0116
 7415SOL    HW234305   5.739   3.230   2.174  1.1139  0.7744 -0.6187
 7416SOL     OW34306   9.671   9.650   6.073 -0.5619  0.0856  0.4070
 7416SOL    HW134307   9.639   9.612   6.160  0.0077  0.0574  0.6099
 7416SOL    HW234308   9.766   9.621   6.058 -0.6273  0.1735 -0.1735
 7417SOL     OW34309   6.683   3.585   3.329  0.4221 -1.4093 -0.1059
 7417SOL    HW134310   6.707   3.502   3.277  1.2499 -0.5090 -1.1845
 7417SOL    HW234311   6.646   3.653   3.267  1.3032 -0.3709  0.4942
 7418SOL     OW34312   1.163   1.483   3.234  0.2717  0.5081 -0.4277
 7418SOL    HW134313   1.260   1.463   3.215  0.2641 -0.6358  0.6476
 7418SOL    HW234314   1.108   1.403   3.213 -0.1977  0.5026  0.7576
 7419SOL     OW34315   0.672   9.785   5.151  0.6922 -0.3473 -0.5523
 7419SOL    HW134316   0.622   9.751   5.071  0.3204 -0.4787 -0.2667
 7419SOL    HW234317   0.702   9.707   5.207 -1.3873 -0.1865  0.8489
 7420SOL     OW34318   3.738   1.933   7.284 -0.0395 -0.1773 -0.3344
 7420SOL    HW134319   3.819   1.993   7.283 -1.2332  1.5853  2.2191
 7420SOL    HW234320   3.666   1.974   7.228  0.1517 -0.7558 -1.0103
 7421SOL     OW34321   8.914   4.197   5.047 -0.4785  0.2191  0.3835
 7421SOL    HW134322   8.957   4.121   4.997 -1.1062 -0.5194  0.9449
 7421SOL    HW234323   8.971   4.278   5.039  0.4694 -0.4507  0.1904
 7422SOL     OW34324   8.307   0.731   9.245  0.5278 -0.5349 -0.6354
 7422SOL    HW134325   8.215   0.754   9.274  1.4112  3.0443 -0.4545
 7422SOL    HW234326   8.333   0.643   9.283 -1.7258 -0.2200  1.7648
 7423SOL     OW34327   9.047   5.007   9.821 -0.2915 -0.1898 -0.1024
 7423SOL    HW134328   9.129   5.050   9.783 -0.3730 -0.6001 -0.7519
 7423SOL    HW234329   8.990   4.972   9.746 -0.4696 -0.9738  0.3894
 7424SOL     OW34330   8.641   8.436   9.991  0.2797  0.0136  0.2224
 7424SOL    HW134331   8.670   8.341  10.000  1.2256  0.1694 -0.9643
 7424SOL    HW234332   8.569   8.442   9.921 -0.1166  0.1010  0.6402
 7425SOL     OW34333   4.312   4.425   2.290  0.6411 -0.6827 -0.2239
 7425SOL    HW134334   4.343   4.496   2.227  0.8092 -1.1079 -0.6173
 7425SOL    HW234335   4.353   4.441   2.380 -0.5414  0.6257  0.1087
 7426SOL     OW34336   6.720   7.733   5.743 -0.0253 -0.2143 -0.0300
 7426SOL    HW134337   6.768   7.654   5.706 -1.3278 -0.9367 -0.1777
 7426SOL    HW234338   6.753   7.816   5.697 -0.4833 -0.9317 -1.7057
 7427SOL     OW34339   0.629   0.082   0.613  0.3713  0.0929 -0.1005
 7427SOL    HW134340   0.595  -0.005   0.650 -1.0480  0.8724  0.4806
 7427SOL    HW234341   0.715   0.067   0.566 -0.4017 -1.8230 -0.9468
 7428SOL     OW34342   5.884   4.510   8.896  0.1695 -0.2330 -0.0356
 7428SOL    HW134343   5.929   4.596   8.919 -1.0113 -0.3638  3.0448
 7428SOL    HW234344   5.795   4.528   8.856 -1.3434  0.0887  3.2580
 7429SOL     OW34345   5.321   9.319   7.338  0.0220  0.3269  0.5803
 7429SOL    HW134346   5.420   9.321   7.356  0.2280 -2.1555 -0.0016
 7429SOL    HW234347   5.306   9.301   7.241 -1.0491  3.7083  0.0648
 7430SOL     OW34348   5.719   3.697   8.635  0.0335  0.1916 -0.0925
 7430SOL    HW134349   5.745   3.707   8.731 -1.6048  4.0567  0.0510
 7430SOL    HW234350   5.674   3.609   8.622  2.1927 -1.3340  2.1845
 7431SOL     OW34351   5.032   2.831   1.270 -0.7388 -0.4781  0.1513
 7431SOL    HW134352   5.088   2.749   1.275 -1.3323 -0.8252  1.4178
 7431SOL    HW234353   4.975   2.838   1.352 -0.8811  1.0671 -0.0479
 7432SOL     OW34354   3.552   2.333   0.902  0.0369 -0.0396 -0.1342
 7432SOL    HW134355   3.462   2.292   0.884  0.1029  0.4268 -1.6329
 7432SOL    HW234356   3.543   2.433   0.905  0.6959  0.0707 -1.5203
 7433SOL     OW34357   9.258   2.957   2.916  0.8329  0.4124 -0.4431
 7433SOL    HW134358   9.243   2.910   2.829  0.7991 -0.5735  0.0920
 7433SOL    HW234359   9.327   3.028   2.903  0.8200  0.2836 -1.2816
 7434SOL     OW34360   3.325   4.736   9.941 -0.0102  0.3692 -0.4416
 7434SOL    HW134361   3.262   4.805   9.906 -1.3875  0.1835  1.6148
 7434SOL    HW234362   3.288   4.645   9.922 -1.0135  0.2705  1.9034
 7435SOL     OW34363   6.919   8.987   8.069 -0.0496  0.6404  0.2685
 7435SOL    HW134364   6.959   8.939   8.147  0.2817  1.3882  0.5651
 7435SOL    HW234365   6.915   9.085   8.089 -0.0466  0.8240 -0.6170
 7436SOL     OW34366   3.884   7.551   9.181 -0.1199 -0.0560 -0.0274
 7436SOL    HW134367   3.966   7.558   9.237  1.5949 -1.3108 -2.3088
 7436SOL    HW234368   3.819   7.488   9.224  0.9492 -0.6117  0.7970
 7437SOL     OW34369   0.064   7.596   6.760  0.2464 -0.2807 -0.7147
 7437SOL    HW134370  -0.013   7.563   6.814  0.8096 -1.0396 -0.3678
 7437SOL    HW234371   0.093   7.686   6.793  0.0631 -0.3807 -0.2846
 7438SOL     OW34372   0.554   3.998   4.612 -0.5034 -0.5173  0.5800
 7438SOL    HW134373   0.491   4.007   4.535 -1.4017 -1.1713  1.2183
 7438SOL    HW234374   0.633   3.943   4.585 -0.3239  0.1106 -0.1634
 7439SOL     OW34375   0.085   3.780   1.664  0.2267  0.3074 -0.0530
 7439SOL    HW134376   0.089   3.685   1.634  0.4338  0.0997  0.6166
 7439SOL    HW234377   0.079   3.840   1.584 -0.1345 -0.2771 -0.4710
 7440SOL     OW34378   6.457   4.264   8.679  0.1020 -0.9039 -0.4071
 7440SOL    HW134379   6.496   4.177   8.710 -0.0163 -0.7599  0.1549
 7440SOL    HW234380   6.383   4.245   8.614 -0.8175 -1.2897  0.7149
 7441SOL     OW34381   2.230   0.641   2.082 -0.1066  0.4029 -0.0416
 7441SOL    HW134382   2.327   0.652   2.060 -0.6897  1.3117 -2.3389
 7441SOL    HW234383   2.187   0.583   2.013 -0.9677 -1.0080  1.6402
 7442SOL     OW34384   7.673   3.191   0.354 -0.1593 -0.5477  0.5079
 7442SOL    HW134385   7.620   3.146   0.282  1.2194 -1.7037  0.1977
 7442SOL    HW234386   7.749   3.241   0.313 -1.2912  1.5496  0.9096
 7443SOL     OW34387   3.420   9.821   2.545  0.0384  0.2577 -0.1857
 7443SOL    HW134388   3.359   9.879   2.599  1.2473  0.4212  1.0315
 7443SOL    HW234389   3.383   9.810   2.453 -2.5970 -0.8501  0.9527
 7444SOL     OW34390   0.952   7.963   0.632  0.2637  0.1435  0.2640
 7444SOL    HW134391   0.972   8.021   0.553 -2.4752 -0.5526 -0.9849
 7444SOL    HW234392   0.951   8.019   0.715 -0.5950  1.5677 -0.6909
 7445SOL     OW34393   5.522   8.451   6.449 -0.5121 -0.7481  0.3896
 7445SOL    HW134394   5.485   8.461   6.357  0.9631 -2.1771 -0.3820
 7445SOL    HW234395   5.514   8.355   6.478  0.8250 -0.7017  0.9485
 7446SOL     OW34396   7.490   5.164   0.250  0.1606 -0.1448 -0.1942
 7446SOL    HW134397   7.395   5.170   0.219  0.1074  1.9001  0.2828
 7446SOL    HW234398   7.493   5.166   0.349  0.8198  2.3707 -0.2322
 7447SOL     OW34399   9.572   1.456   5.833  0.3930 -0.4142 -0.7154
 7447SOL    HW134400   9.495   1.477   5.894  0.7567  0.6952 -0.6405
 7447SOL    HW234401   9.569   1.359   5.809 -0.7564 -0.4838 -0.3257
 7448SOL     OW34402   8.356   2.312   9.818  0.1364 -0.1620  0.0886
 7448SOL    HW134403   8.428   2.336   9.752  2.3336  0.1248  2.5027
 7448SOL    HW234404   8.279   2.374   9.807  1.0670  0.7995 -1.2256
 7449SOL     OW34405   1.919   3.981   8.273  0.0581 -0.0776  0.8497
 7449SOL    HW134406   1.976   3.899   8.265 -1.2122 -1.0883  2.0659
 7449SOL    HW234407   1.917   4.012   8.368  3.8093  3.7893 -0.1589
 7450SOL     OW34408   4.110   1.787   2.823 -0.8113  0.2034  0.0416
 7450SOL    HW134409   4.171   1.817   2.896 -1.1786  0.3221  0.3018
 7450SOL    HW234410   4.135   1.833   2.737  1.4410 -2.0780 -0.5666
 7451SOL     OW34411   4.765   9.837   2.056 -0.1750  0.2423 -0.3130
 7451SOL    HW134412   4.850   9.796   2.089 -0.1274 -0.4526 -1.2865
 7451SOL    HW234413   4.689   9.806   2.113 -0.2108 -1.6132 -1.3407
 7452SOL     OW34414   7.360   6.449   7.040  0.5635 -0.1496 -0.0562
 7452SOL    HW134415   7.283   6.423   7.099  1.3164 -2.0617  0.1226
 7452SOL    HW234416   7.418   6.515   7.087 -0.8207  1.1169 -0.0962
 7453SOL     OW34417   4.089   3.449   0.087  0.1399  0.5440 -0.0547
 7453SOL    HW134418   4.162   3.385   0.109  1.1003  1.1447 -1.4222
 7453SOL    HW234419   4.010   3.399   0.050  0.5737  0.0630 -0.3349
 7454SOL     OW34420   9.190   7.208   4.667 -0.3006  0.2797  0.0407
 7454SOL    HW134421   9.114   7.209   4.732  0.1654  1.2635  0.5841
 7454SOL    HW234422   9.155   7.196   4.574 -1.1094  0.7319  0.2867
 7455SOL     OW34423   3.301   0.447   1.275  0.2342  0.2170  0.5312
 7455SOL    HW134424   3.381   0.505   1.260 -1.0005  1.9628  0.5095
 7455SOL    HW234425   3.263   0.465   1.366  0.0320 -0.8331  0.6700
 7456SOL     OW34426   5.316   0.306   6.436  0.1879  0.5105  0.1455
 7456SOL    HW134427   5.331   0.357   6.521  2.3783 -0.4197  0.3448
 7456SOL    HW234428   5.275   0.218   6.458  2.4809 -0.5095  0.4516
 7457SOL     OW34429   4.849   6.013   0.676  0.1980  0.6198 -0.6827
 7457SOL    HW134430   4.935   5.972   0.708 -2.5169 -2.7660  2.8294
 7457SOL    HW234431   4.805   6.060   0.751 -1.9442  0.6214 -1.9042
 7458SOL     OW34432   5.089   1.614   1.706 -0.4446  0.3068 -0.6155
 7458SOL    HW134433   5.044   1.664   1.781 -0.4220  0.6992 -0.8599
 7458SOL    HW234434   5.081   1.516   1.722 -1.5577  0.3650 -0.7440
 7459SOL     OW34435   0.023   0.993   2.408 -0.1194 -0.5384  0.6298
 7459SOL    HW134436   0.022   1.005   2.309 -0.6668 -1.9347  0.4502
 7459SOL    HW234437  -0.042   1.056   2.451 -0.5245 -0.5540  0.0331
 7460SOL     OW34438   0.501   7.412   4.621  0.2328  0.5024  0.8341
 7460SOL    HW134439   0.516   7.351   4.543  2.0567  1.7251  0.1780
 7460SOL    HW234440   0.540   7.371   4.703  0.0511  0.0781  0.7104
 7461SOL     OW34441   4.560   8.726   2.362  0.1861 -0.5022 -0.2002
 7461SOL    HW134442   4.557   8.825   2.371  0.2853 -0.4163 -1.1222
 7461SOL    HW234443   4.646   8.692   2.402  0.3396 -0.1824 -0.2516
 7462SOL     OW34444   1.626   2.141   1.282  0.1966 -0.4698 -0.1335
 7462SOL    HW134445   1.724   2.161   1.283  0.8176 -3.2372 -0.2058
 7462SOL    HW234446   1.587   2.172   1.195  0.9076  1.0841  0.0909
 7463SOL     OW34447   7.932   8.867   3.730  0.3683 -0.3555 -0.1672
 7463SOL    HW134448   7.840   8.829   3.728 -0.0156  0.5383  0.1681
 7463SOL    HW234449   7.937   8.940   3.799  1.6432 -1.2021  0.6637
 7464SOL     OW34450   4.539   9.867   3.050 -0.5485 -0.2184 -0.0781
 7464SOL    HW134451   4.544   9.826   2.959 -1.0339 -1.1906  0.3228
 7464SOL    HW234452   4.621   9.841   3.102 -1.2508 -1.3934  0.4607
 7465SOL     OW34453   9.486   2.671   6.694 -0.6856  0.0069 -0.1832
 7465SOL    HW134454   9.521   2.736   6.626  2.1018  0.4669  1.5966
 7465SOL    HW234455   9.524   2.580   6.674  0.0343  0.1181  0.6701
 7466SOL     OW34456   9.307   8.277   2.155  0.4884 -0.1424  0.4573
 7466SOL    HW134457   9.286   8.309   2.063  1.0278 -1.8618 -0.2755
 7466SOL    HW234458   9.263   8.188   2.170 -0.0185  0.3502  2.0460
 7467SOL     OW34459   9.679   9.783   9.373 -0.4783 -0.5059  0.2512
 7467SOL    HW134460   9.671   9.853   9.444 -1.7632  0.6218 -0.9765
 7467SOL    HW234461   9.590   9.739   9.359  0.0487 -1.5660  0.1864
 7468SOL     OW34462   9.900   0.315   6.147  0.2786  0.6575  0.0205
 7468SOL    HW134463   9.865   0.327   6.055  1.3072 -0.3703 -0.5219
 7468SOL    HW234464   9.892   0.218   6.173  2.1349  0.4934  0.0948
 7469SOL     OW34465   0.702   5.258   4.513 -0.7533  0.2206 -0.0507
 7469SOL    HW134466   0.682   5.291   4.421 -1.0035  1.5114  0.4621
 7469SOL    HW234467   0.701   5.158   4.513  1.2557  0.1468 -1.9048
 7470SOL     OW34468   2.637   4.797   1.198 -0.1905  0.2435 -0.1042
 7470SOL    HW134469   2.695   4.818   1.120 -0.4069  0.6094 -0.1660
 7470SOL    HW234470   2.684   4.731   1.257 -0.3264 -0.5779 -0.9018
 7471SOL     OW34471   9.534   4.085   0.491  0.5222 -0.5382  0.0254
 7471SOL    HW134472   9.579   4.035   0.418 -0.0443  0.9657 -1.3830
 7471SOL    HW234473   9.578   4.063   0.579  2.2560 -1.1217 -0.9674
 7472SOL     OW34474   9.852   4.303   7.614  0.7181  0.4973  0.0218
 7472SOL    HW134475   9.839   4.385   7.669  0.3475  1.0494 -0.8657
 7472SOL    HW234476   9.772   4.243   7.624  0.3617  0.8975 -0.4181
 7473SOL     OW34477   7.053   2.197   9.458  0.5252 -0.1322  0.1923
 7473SOL    HW134478   7.097   2.218   9.370  1.0386 -1.0457  0.2299
 7473SOL    HW234479   7.111   2.137   9.512 -0.5605 -0.9997  0.4267
 7474SOL     OW34480   3.260   0.977   5.505  0.5283  0.1928  0.1931
 7474SOL    HW134481   3.225   1.063   5.542 -0.2636 -0.2703  0.5308
 7474SOL    HW234482   3.282   0.915   5.580  0.0819 -0.2949 -0.0789
 7475SOL     OW34483   3.804   2.244   5.337 -0.2458  0.4005 -0.4337
 7475SOL    HW134484   3.770   2.158   5.297  1.7780  0.1739 -1.7596
 7475SOL    HW234485   3.848   2.298   5.266  0.9802  1.2642  0.9683
 7476SOL     OW34486   4.524   5.235   7.970  0.2252 -0.4051 -0.2866
 7476SOL    HW134487   4.492   5.156   7.917  0.9480 -1.2080  0.4613
 7476SOL    HW234488   4.468   5.245   8.051  1.3884 -1.3867  0.6611
 7477SOL     OW34489   3.834   8.367   5.500  0.4922  0.1981 -0.1378
 7477SOL    HW134490   3.745   8.376   5.544  0.4679  1.4988 -0.4290
 7477SOL    HW234491   3.890   8.303   5.551 -0.3764 -0.1183  0.4261
 7478SOL     OW34492   1.300   1.336   0.084 -0.1799 -0.1581 -0.1696
 7478SOL    HW134493   1.225   1.374   0.030  1.3693  2.6727 -0.4294
 7478SOL    HW234494   1.378   1.317   0.024  0.4597  0.0067  0.6041
 7479SOL     OW34495   9.476   7.470   3.746 -0.0150  0.0643 -0.6905
 7479SOL    HW134496   9.472   7.551   3.804  0.3260 -0.6487  0.3438
 7479SOL    HW234497   9.501   7.496   3.653 -3.3221  1.5701 -1.2284
 7480SOL     OW34498   2.130   8.695   6.916  0.2544 -0.4657  0.2556
 7480SOL    HW134499   2.048   8.750   6.900  0.9800 -0.0492 -2.3291
 7480SOL    HW234500   2.106   8.614   6.969 -1.6285  0.1863  0.4373
 7481SOL     OW34501   2.412   5.287  10.040  0.3916  0.2352  0.0817
 7481SOL    HW134502   2.360   5.267   9.958  0.5259 -2.3722  0.5932
 7481SOL    HW234503   2.351   5.319  10.112  0.0343  0.7831 -0.4607
 7482SOL     OW34504   8.296   3.034   7.863  0.4842 -0.2184  0.3185
 7482SOL    HW134505   8.368   3.090   7.904 -0.7713  1.2158  0.6078
 7482SOL    HW234506   8.261   2.970   7.932 -0.8871  1.4666  1.2275
 7483SOL     OW34507   0.781   6.446   4.632 -0.4386 -0.1930 -0.1459
 7483SOL    HW134508   0.711   6.444   4.560 -0.7510  1.0705  0.1187
 7483SOL    HW234509   0.740   6.475   4.718  0.3198  0.1126  0.1156
 7484SOL     OW34510   3.102   8.120   0.216 -0.2843  0.3008 -0.5129
 7484SOL    HW134511   3.137   8.206   0.254  1.0554  0.3653 -1.8727
 7484SOL    HW234512   3.176   8.071   0.170 -1.5393 -0.4808 -1.7468
 7485SOL     OW34513   3.532   1.596   1.625  0.0413  0.4525 -0.0257
 7485SOL    HW134514   3.511   1.511   1.577  0.0482  0.2564  0.3195
 7485SOL    HW234515   3.502   1.589   1.720 -0.1079  0.8954 -0.0375
 7486SOL     OW34516   5.558   3.642   9.929 -0.3986  0.5557 -0.6355
 7486SOL    HW134517   5.529   3.639   9.833 -0.9650 -0.7645 -0.4398
 7486SOL    HW234518   5.583   3.549   9.958 -0.5739  0.8945  0.6006
 7487SOL     OW34519   9.581   8.354   0.254 -0.5633 -0.1728  0.1943
 7487SOL    HW134520   9.680   8.347   0.251 -0.3949  0.8561  2.3566
 7487SOL    HW234521   9.552   8.378   0.347 -2.8465 -0.6703 -0.3516
 7488SOL     OW34522   2.735   3.780   8.460 -0.0501 -0.6875  0.5920
 7488SOL    HW134523   2.802   3.711   8.436 -1.0107 -1.8999  1.3749
 7488SOL    HW234524   2.780   3.858   8.504  1.4522  0.5698 -2.9661
 7489SOL     OW34525   2.098   1.711   5.196 -0.9049 -0.1388  0.4149
 7489SOL    HW134526   2.014   1.735   5.148 -0.1230  1.0193 -0.3990
 7489SOL    HW234527   2.119   1.614   5.181 -2.4063 -0.5789  1.1244
 7490SOL     OW34528   8.649   1.274   6.142 -0.0208  0.3035  0.5617
 7490SOL    HW134529   8.576   1.303   6.080 -0.5367 -0.9280  0.5931
 7490SOL    HW234530   8.616   1.201   6.202  1.0046  0.2680  1.1006
 7491SOL     OW34531   3.652   2.811   3.442  0.5441  0.3213 -0.3115
 7491SOL    HW134532   3.579   2.795   3.509 -1.4250  1.7055 -2.0186
 7491SOL    HW234533   3.695   2.725   3.418  0.2972 -0.3726  1.6591
 7492SOL     OW34534   9.692   0.100   9.279  0.6738  0.1694  0.1354
 7492SOL    HW134535   9.697   0.130   9.184 -0.7403  2.5662  0.7753
 7492SOL    HW234536   9.767   0.036   9.298  0.4831 -0.9773 -2.7732
 7493SOL     OW34537   7.607   8.648   3.065 -0.3343 -0.0087  0.4531
 7493SOL    HW134538   7.579   8.621   2.973 -0.8122  1.4421  0.1552
 7493SOL    HW234539   7.702   8.620   3.082 -0.5809 -1.1858 -0.0946
 7494SOL     OW34540   3.572   8.000   9.363  0.3254  0.4099  0.0596
 7494SOL    HW134541   3.613   8.085   9.395 -0.4433  0.6983  0.2680
 7494SOL    HW234542   3.643   7.930   9.356  0.6128  0.5101  1.8033
 7495SOL     OW34543   4.490   2.732   6.265  0.1941 -0.0710 -0.0137
 7495SOL    HW134544   4.454   2.639   6.274 -0.2049 -0.1109 -1.8005
 7495SOL    HW234545   4.579   2.738   6.309 -1.3262 -0.3506  3.2586
 7496SOL     OW34546   1.024   0.354   9.983 -0.0707  0.2069  0.2445
 7496SOL    HW134547   0.930   0.348  10.018 -1.0123 -0.8666 -2.3229
 7496SOL    HW234548   1.078   0.278  10.019 -0.3007  0.5948  1.4180
 7497SOL     OW34549   4.054   6.378   1.484  0.3837 -0.0609  0.9299
 7497SOL    HW134550   4.118   6.330   1.545  0.2939 -1.5805 -0.1469
 7497SOL    HW234551   3.984   6.315   1.453  0.0082  0.8908 -0.1852
 7498SOL     OW34552   3.148   8.669   5.518  0.9626  0.3894  0.6791
 7498SOL    HW134553   3.102   8.588   5.482  0.8879  0.0965  1.4209
 7498SOL    HW234554   3.208   8.708   5.448  1.7257 -0.8594  0.6158
 7499SOL     OW34555   7.926   8.339   3.022  0.1533 -0.0717  0.1315
 7499SOL    HW134556   7.958   8.433   3.012 -0.6726  0.5081  2.5721
 7499SOL    HW234557   7.837   8.339   3.067 -0.0475 -2.0099 -0.2261
 7500SOL     OW34558   0.103   8.878   6.871  0.1092  0.3296 -0.3094
 7500SOL    HW134559   0.186   8.840   6.912 -0.2464 -0.5579 -0.4014
 7500SOL    HW234560   0.034   8.893   6.942  0.6133  1.7949 -0.1165
 7501SOL     OW34561   4.399   9.082   7.990 -0.0305  0.0928  0.6052
 7501SOL    HW134562   4.408   8.984   7.971 -0.4603  0.0577  0.5825
 7501SOL    HW234563   4.360   9.096   8.080  0.8345  0.2547  0.9669
 7502SOL     OW34564   2.893   7.881   7.987 -0.3001  0.1072  0.2411
 7502SOL    HW134565   2.966   7.940   8.023 -1.1918 -0.2010  2.7032
 7502SOL    HW234566   2.901   7.790   8.028 -2.4347  0.2719  1.1044
 7503SOL     OW34567   2.286   5.368   6.216  0.0072 -0.3826 -0.7085
 7503SOL    HW134568   2.227   5.333   6.288 -0.0965 -0.6220 -0.9106
 7503SOL    HW234569   2.256   5.460   6.190 -0.2985 -0.5190 -0.8369
 7504SOL     OW34570   1.877   3.323   4.493 -0.5841  0.2203 -0.4691
 7504SOL    HW134571   1.888   3.316   4.394  2.4158 -1.4806 -0.0777
 7504SOL    HW234572   1.933   3.398   4.529 -1.1155  0.3917  0.0167
 7505SOL     OW34573   4.238   7.436   6.456 -0.5789  0.3279 -0.0723
 7505SOL    HW134574   4.324   7.487   6.450  0.5486 -1.6926 -1.2286
 7505SOL    HW234575   4.168   7.495   6.497  1.7466  1.4760  2.4326
 7506SOL     OW34576   6.393   5.773   7.565  0.4725  0.0359  0.0414
 7506SOL    HW134577   6.353   5.817   7.645 -0.0551 -1.1367  0.4324
 7506SOL    HW234578   6.469   5.829   7.531  0.0813  1.0323  0.7668
 7507SOL     OW34579   6.793   6.462   5.492  0.0017  0.2550  0.0115
 7507SOL    HW134580   6.808   6.372   5.451 -0.0630  0.7565 -1.1245
 7507SOL    HW234581   6.877   6.515   5.485  0.3712 -0.0918  1.6535
 7508SOL     OW34582   9.938   4.568   0.580  0.3975 -0.5142 -0.2511
 7508SOL    HW134583   9.875   4.588   0.656 -2.5593 -1.1339 -2.4470
 7508SOL    HW234584   9.913   4.625   0.501  0.8489 -2.7690 -2.0485
 7509SOL     OW34585   0.378   0.867   9.277 -0.2283 -0.1064  0.3850
 7509SOL    HW134586   0.354   0.787   9.221 -1.1821 -0.4853  1.3144
 7509SOL    HW234587   0.421   0.936   9.220  0.0910 -1.0637 -0.5442
 7510SOL     OW34588   7.666   7.890   5.798 -0.0659  0.0173  0.0117
 7510SOL    HW134589   7.622   7.944   5.726 -1.7223 -0.3866  0.6795
 7510SOL    HW234590   7.763   7.911   5.802 -0.5731  2.5040 -0.1292
 7511SOL     OW34591   7.895   1.739   2.192 -0.1067  0.3289 -0.3979
 7511SOL    HW134592   7.900   1.640   2.190  0.5431  0.3682 -0.7294
 7511SOL    HW234593   7.980   1.776   2.231 -0.7181  0.7148  0.5934
 7512SOL     OW34594   5.544   7.521   4.099  0.4262  0.1677 -0.5895
 7512SOL    HW134595   5.444   7.524   4.092  0.3707 -0.3376 -0.0944
 7512SOL    HW234596   5.572   7.564   4.185  0.5563 -0.6541 -0.2138
 7513SOL     OW34597   8.810   4.498   3.136  0.2283  0.4003  0.1436
 7513SOL    HW134598   8.820   4.596   3.116 -1.0908  0.6549  0.7384
 7513SOL    HW234599   8.892   4.466   3.182  0.7910  1.1590 -0.3036
 7514SOL     OW34600   0.261   1.530   9.316  0.8381  0.2606 -0.1797
 7514SOL    HW134601   0.316   1.457   9.274  2.0416  1.1948 -0.2427
 7514SOL    HW234602   0.242   1.601   9.248  2.9507  1.8687  0.8544
 7515SOL     OW34603   9.728   1.318   4.682 -0.6890  0.1399 -0.1508
 7515SOL    HW134604   9.629   1.315   4.697 -0.7291  0.0269 -0.4355
 7515SOL    HW234605   9.776   1.294   4.767 -0.9201 -0.8690 -0.2936
 7516SOL     OW34606   0.859   2.521   1.816 -0.7640 -0.3864  0.4028
 7516SOL    HW134607   0.858   2.437   1.761  0.3053  1.6225 -2.8243
 7516SOL    HW234608   0.948   2.529   1.862 -0.2897 -0.2523 -0.5304
 7517SOL     OW34609   5.073   1.562   4.981 -0.1921  0.3246 -0.1823
 7517SOL    HW134610   5.135   1.641   4.981 -0.1037  0.2556 -0.3459
 7517SOL    HW234611   5.066   1.525   4.888 -0.0757  0.0184 -0.0697
 7518SOL     OW34612   6.450   7.895   5.537 -0.2173  0.4909 -0.4298
 7518SOL    HW134613   6.534   7.936   5.572  0.3540  0.5688 -1.8517
 7518SOL    HW234614   6.389   7.872   5.613  1.5421 -0.5683  0.6722
 7519SOL     OW34615   4.665   6.296   1.223  0.7612  0.2920 -0.0816
 7519SOL    HW134616   4.579   6.296   1.273  1.1781  0.4645  0.6439
 7519SOL    HW234617   4.739   6.267   1.284  1.0351 -1.0328 -1.0235
 7520SOL     OW34618   5.176   7.951   3.307  0.2041 -0.1546 -0.3973
 7520SOL    HW134619   5.147   7.930   3.400  2.0441 -3.2797 -0.4748
 7520SOL    HW234620   5.171   8.050   3.292 -4.0765  0.0409  1.6243
 7521SOL     OW34621   0.132   6.828   6.968  0.0196  0.1034 -0.4573
 7521SOL    HW134622   0.054   6.884   6.995 -0.4434 -0.5818 -0.3767
 7521SOL    HW234623   0.217   6.874   6.995 -0.2765  1.7016 -2.1065
 7522SOL     OW34624   1.048   0.174   0.680  0.1641  0.9886 -0.4326
 7522SOL    HW134625   0.997   0.091   0.657  3.6244 -1.2253 -0.5725
 7522SOL    HW234626   1.046   0.238   0.603 -0.5725 -0.0039 -1.2476
 7523SOL     OW34627   4.344   0.789   4.555 -0.0812  0.2125 -0.0810
 7523SOL    HW134628   4.365   0.786   4.458 -0.8128 -0.2334 -0.2340
 7523SOL    HW234629   4.277   0.862   4.573 -0.9686 -0.5729 -0.1292
 7524SOL     OW34630   5.220   1.681   6.358  0.0689 -0.3835  0.3094
 7524SOL    HW134631   5.318   1.667   6.343 -0.0508 -0.6949 -0.1996
 7524SOL    HW234632   5.189   1.621   6.431  0.4223  0.2967  1.0179
 7525SOL     OW34633   6.521   3.508   3.052 -0.1416 -0.2971  0.1277
 7525SOL    HW134634   6.606   3.507   3.001  0.2962 -1.1923  0.8669
 7525SOL    HW234635   6.518   3.590   3.110 -0.6916  0.7754 -1.3930
 7526SOL     OW34636   2.070   3.918   5.912 -0.4099 -0.4282  0.3975
 7526SOL    HW134637   2.014   4.000   5.922  0.4376  0.3187 -0.7875
 7526SOL    HW234638   2.147   3.921   5.976  1.4003  1.2560 -1.7632
 7527SOL     OW34639   9.520   6.024   3.206  0.1761  0.3847  0.3121
 7527SOL    HW134640   9.494   5.928   3.219 -1.0036  0.2003 -2.9274
 7527SOL    HW234641   9.616   6.035   3.229  0.2425 -1.5041  1.0881
 7528SOL     OW34642   1.730   5.601   4.608  0.3738  0.1525 -0.6547
 7528SOL    HW134643   1.669   5.631   4.534  0.1391 -0.5563 -0.7499
 7528SOL    HW234644   1.684   5.533   4.664  0.8936 -0.0010 -0.4106
 7529SOL     OW34645   8.485   8.359   2.682  0.4885  0.3388  0.3318
 7529SOL    HW134646   8.578   8.360   2.646 -0.2449 -1.7230 -1.7340
 7529SOL    HW234647   8.421   8.378   2.608 -0.8196  0.8042  1.5575
 7530SOL     OW34648   9.410   7.181   6.082  0.4307 -0.1509  0.0887
 7530SOL    HW134649   9.320   7.205   6.045  0.5253 -0.1629 -0.1468
 7530SOL    HW234650   9.470   7.261   6.078  0.6534 -0.3452 -0.4268
 7531SOL     OW34651   4.358   1.841   0.914  0.2544 -0.2013 -0.0169
 7531SOL    HW134652   4.262   1.828   0.892 -0.0777 -2.1395  2.4086
 7531SOL    HW234653   4.373   1.937   0.939 -1.1935 -0.0545  0.3450
 7532SOL     OW34654   6.782   4.698   9.509  0.1008 -0.3554 -0.1650
 7532SOL    HW134655   6.844   4.691   9.431  1.6248  0.3018  0.9615
 7532SOL    HW234656   6.697   4.741   9.480  0.2447 -1.0893 -1.6943
 7533SOL     OW34657   8.680   2.626   5.030  0.4321  0.1145  0.1192
 7533SOL    HW134658   8.763   2.572   5.013  0.1093 -0.5764  0.6870
 7533SOL    HW234659   8.701   2.723   5.021  1.6414  0.0233  1.6370
 7534SOL     OW34660   0.012   1.488   0.116 -0.4621 -0.0744 -0.0660
 7534SOL    HW134661   0.061   1.475   0.030 -0.5115 -0.8162  0.0157
 7534SOL    HW234662  -0.085   1.468   0.102 -0.3077 -1.1863  0.3959
 7535SOL     OW34663   1.951   0.538   9.714 -0.1887 -0.3680 -0.1826
 7535SOL    HW134664   1.970   0.629   9.750  2.6002 -0.9737  0.0059
 7535SOL    HW234665   2.015   0.518   9.639  0.3490 -2.7965  0.8687
 7536SOL     OW34666   2.842   5.564   9.600 -0.1694 -0.1354 -0.8722
 7536SOL    HW134667   2.773   5.626   9.637  0.4913  0.1683 -0.1390
 7536SOL    HW234668   2.806   5.518   9.519 -1.2598 -0.0331 -0.4458
 7537SOL     OW34669   3.580   8.379   5.596 -0.6444 -0.2581 -0.3882
 7537SOL    HW134670   3.547   8.464   5.554 -1.2747 -0.4631 -0.3201
 7537SOL    HW234671   3.549   8.374   5.691  0.6658  0.1356  0.0627
 7538SOL     OW34672   7.126   0.067   9.661 -0.3603  0.0437  0.7754
 7538SOL    HW134673   7.056   0.001   9.688 -0.8146 -0.0925 -0.7109
 7538SOL    HW234674   7.200   0.021   9.612 -0.7037  0.6293 -0.3145
 7539SOL     OW34675   0.520   7.788   7.379  0.6373  0.3706  0.3460
 7539SOL    HW134676   0.440   7.727   7.378  0.3942  0.6626  1.4088
 7539SOL    HW234677   0.589   7.752   7.317 -0.8746  0.8645 -1.6628
 7540SOL     OW34678   7.481   2.007   5.897 -0.2596 -0.9030  0.4054
 7540SOL    HW134679   7.466   2.026   5.800  1.0327 -1.8442  0.0003
 7540SOL    HW234680   7.567   2.049   5.926 -0.1917 -1.3893  0.9154
 7541SOL     OW34681   8.671   8.549   8.115 -0.3513  0.5727  0.6594
 7541SOL    HW134682   8.701   8.480   8.049  1.0178  0.8034  1.0350
 7541SOL    HW234683   8.723   8.538   8.200 -1.0866  1.2083  1.1979
 7542SOL     OW34684   0.395   0.431   6.628 -0.0907  0.0615 -0.2464
 7542SOL    HW134685   0.331   0.406   6.555 -0.7250 -0.5206  0.5060
 7542SOL    HW234686   0.486   0.444   6.589 -1.1046  3.3013 -1.7489
 7543SOL     OW34687   2.361   2.586   0.697 -0.4878  0.3468 -0.2574
 7543SOL    HW134688   2.333   2.553   0.787 -1.8111  0.8130 -0.4852
 7543SOL    HW234689   2.288   2.570   0.631  1.0805 -1.4089 -1.6042
 7544SOL     OW34690   4.218   8.773   1.986 -0.5066 -0.1982 -0.0631
 7544SOL    HW134691   4.193   8.832   1.910  0.8609 -0.8856 -1.0631
 7544SOL    HW234692   4.315   8.784   2.007 -1.1239  0.8882  2.3957
 7545SOL     OW34693   8.037   3.117   1.477 -0.6261 -0.6430  0.6168
 7545SOL    HW134694   8.122   3.123   1.531 -1.0889 -2.0217  1.5230
 7545SOL    HW234695   8.026   3.201   1.424  0.9292 -0.1333  1.0589
 7546SOL     OW34696   4.442   9.289   3.935 -0.3236  1.0514  0.2389
 7546SOL    HW134697   4.432   9.354   3.860 -0.4988 -0.1737 -0.8131
 7546SOL    HW234698   4.482   9.336   4.015  1.9684  1.8428 -1.3256
 7547SOL     OW34699   6.257   1.298   8.996 -0.0169 -0.2301 -0.0820
 7547SOL    HW134700   6.324   1.372   8.999 -1.4117  1.0322  0.3756
 7547SOL    HW234701   6.166   1.336   8.979 -0.6956 -1.8810 -0.2347
 7548SOL     OW34702   4.161   0.014   6.175 -0.0861 -0.0293 -0.1144
 7548SOL    HW134703   4.112  -0.006   6.090  0.8870  0.7062 -0.8485
 7548SOL    HW234704   4.095   0.047   6.243 -0.8764 -0.6679 -0.5494
 7549SOL     OW34705   7.972   7.877   5.539 -0.8267  0.7477  0.2694
 7549SOL    HW134706   8.017   7.794   5.571  0.1454  1.3489  0.4996
 7549SOL    HW234707   7.954   7.937   5.617 -1.6587  0.6890  0.1232
 7550SOL     OW34708   1.123   0.266   3.658 -0.0101 -0.1029  0.0609
 7550SOL    HW134709   1.064   0.205   3.605 -0.8907  0.0652  0.8162
 7550SOL    HW234710   1.188   0.312   3.597  0.4084 -1.4964 -0.5670
 7551SOL     OW34711   6.402   0.427   7.240 -0.3931 -0.1866 -0.1466
 7551SOL    HW134712   6.466   0.404   7.167 -0.4946 -0.7626 -0.0577
 7551SOL    HW234713   6.382   0.345   7.294  1.6395  0.7306  2.0707
 7552SOL     OW34714   6.476   3.205   2.683 -0.1084 -0.0777 -0.4847
 7552SOL    HW134715   6.514   3.218   2.591 -1.2395 -0.1019 -0.9619
 7552SOL    HW234716   6.463   3.294   2.727  0.2078 -0.0523 -0.4455
 7553SOL     OW34717   7.760   9.937   5.354  0.0896 -0.8127  0.5697
 7553SOL    HW134718   7.787   9.941   5.258  1.5324  3.3987  1.0916
 7553SOL    HW234719   7.689  10.005   5.372  0.0141 -1.3778  2.5492
 7554SOL     OW34720   7.876   7.604   0.108  0.6089 -0.5507 -0.3093
 7554SOL    HW134721   7.816   7.589   0.029 -0.6728 -1.2601  0.7608
 7554SOL    HW234722   7.911   7.516   0.139  1.0606 -0.2789 -0.0557
 7555SOL     OW34723   1.032   0.175   4.248  0.2723  0.2768  0.5914
 7555SOL    HW134724   0.986   0.146   4.332 -0.3542  0.1878  0.2224
 7555SOL    HW234725   0.978   0.247   4.204  0.8862  0.7194  0.5561
 7556SOL     OW34726   2.478   1.008   6.344 -0.0864  0.1445  0.2558
 7556SOL    HW134727   2.511   1.006   6.438  0.2329 -1.2160  0.1349
 7556SOL    HW234728   2.421   0.928   6.327 -2.6724  1.9494  0.1520
 7557SOL     OW34729   4.303   1.111   8.319  0.5091  0.2793 -0.3347
 7557SOL    HW134730   4.304   1.030   8.379  0.0818  0.6528  0.1834
 7557SOL    HW234731   4.390   1.159   8.327  0.4980  0.2635 -0.0942
 7558SOL     OW34732   7.201   0.221   4.244  0.0161  0.7506  0.5749
 7558SOL    HW134733   7.118   0.200   4.192 -0.0341  0.3834  0.8061
 7558SOL    HW234734   7.188   0.307   4.294 -0.9186 -0.2917  2.1337
 7559SOL     OW34735   4.106   4.102   8.192 -0.3695 -0.2200 -0.1825
 7559SOL    HW134736   4.174   4.041   8.152 -0.8089  0.2795 -1.7495
 7559SOL    HW234737   4.135   4.130   8.283  0.2407 -2.0784  0.2074
 7560SOL     OW34738   7.106   3.611   3.225  0.5648  0.1593  0.6059
 7560SOL    HW134739   7.038   3.677   3.256 -0.6619 -2.2620  3.3372
 7560SOL    HW234740   7.196   3.655   3.219 -0.8364  2.8971 -1.1317
 7561SOL     OW34741   8.702   2.953   2.260  0.4813  0.2013 -0.1683
 7561SOL    HW134742   8.659   2.990   2.343  0.9151  0.0167  0.1427
 7561SOL    HW234743   8.690   2.854   2.258 -0.7606  0.3571 -1.0472
 7562SOL     OW34744   2.136   3.553   8.077  0.0032  0.8613 -0.4429
 7562SOL    HW134745   2.158   3.477   8.138 -1.4690  1.5976  1.0498
 7562SOL    HW234746   2.075   3.522   8.005  0.6100  0.2986 -0.7142
 7563SOL     OW34747   5.473   7.044   4.820  0.0765  0.5128  0.2132
 7563SOL    HW134748   5.480   7.070   4.724 -1.3818 -1.4968 -0.4672
 7563SOL    HW234749   5.555   6.994   4.847  0.7582  1.6136  0.1888
 7564SOL     OW34750   4.788   1.705   5.735 -0.0025 -0.4353 -0.1192
 7564SOL    HW134751   4.818   1.790   5.780  0.3091 -0.1431 -0.8715
 7564SOL    HW234752   4.752   1.727   5.644  2.6718 -1.4184 -1.4547
 7565SOL     OW34753   6.581   0.404   2.908  0.0185 -0.0486  0.2602
 7565SOL    HW134754   6.611   0.362   2.822 -1.2759 -0.9044  0.2151
 7565SOL    HW234755   6.482   0.391   2.919 -0.0023  0.9674  1.3791
 7566SOL     OW34756   2.184   8.952   6.671  0.2867  0.4483  0.6668
 7566SOL    HW134757   2.263   8.910   6.715 -0.3705 -1.1332  0.3936
 7566SOL    HW234758   2.128   8.880   6.629  0.0959  1.7758 -1.4138
 7567SOL     OW34759   3.879   5.245   8.466  0.4202 -0.2856  0.0783
 7567SOL    HW134760   3.874   5.265   8.368  0.8436 -1.3858 -0.1763
 7567SOL    HW234761   3.870   5.330   8.518 -1.2361  0.1531 -0.8678
 7568SOL     OW34762   8.901   3.483   4.583  0.1213  0.0985 -0.5351
 7568SOL    HW134763   8.934   3.485   4.678 -0.3923  0.9598 -0.3696
 7568SOL    HW234764   8.847   3.400   4.569  0.3479 -0.1232 -0.1236
 7569SOL     OW34765   3.062   7.819   9.386 -0.6347 -0.3319 -0.0348
 7569SOL    HW134766   3.043   7.888   9.456 -1.2907 -0.5277 -0.0145
 7569SOL    HW234767   3.160   7.817   9.366 -0.7754  1.5402 -1.0128
 7570SOL     OW34768   2.239   7.942   9.426 -0.2407 -0.4032 -0.4743
 7570SOL    HW134769   2.265   7.894   9.342  0.4691  1.1001 -1.1320
 7570SOL    HW234770   2.154   7.992   9.411  0.3884  0.6432 -0.6087
 7571SOL     OW34771   9.802   2.078   6.614 -0.6026  0.4888 -0.1197
 7571SOL    HW134772   9.890   2.115   6.584 -0.6910 -0.0578 -1.0858
 7571SOL    HW234773   9.813   1.981   6.636  0.0027  1.3705  3.9629
 7572SOL     OW34774   0.028   5.550   8.719 -0.1691  0.4033  0.2496
 7572SOL    HW134775   0.115   5.502   8.710 -0.3127  0.0524  0.6827
 7572SOL    HW234776   0.010   5.603   8.637 -0.3007 -0.7764 -0.4908
 7573SOL     OW34777   3.347   4.378   9.880 -0.4609 -0.7637  0.3361
 7573SOL    HW134778   3.421   4.354   9.943  0.3642  0.7463 -0.0426
 7573SOL    HW234779   3.273   4.423   9.929 -0.1707 -0.3101  0.3536
 7574SOL     OW34780   3.946   4.449   5.050  0.1975 -0.0479 -0.0606
 7574SOL    HW134781   3.987   4.525   4.999 -2.0074  1.1537 -0.1054
 7574SOL    HW234782   3.851   4.438   5.022 -0.1794 -1.2966  1.6724
 7575SOL     OW34783   1.263   6.385   1.012 -0.0948 -0.1558  0.5690
 7575SOL    HW134784   1.344   6.444   1.008  0.1544 -0.2648  2.9944
 7575SOL    HW234785   1.182   6.442   1.022 -0.4228 -0.0146 -2.5070
 7576SOL     OW34786   3.550   6.381   8.453  0.3204 -0.2351  0.3605
 7576SOL    HW134787   3.616   6.451   8.426 -0.3005 -0.2087 -1.1852
 7576SOL    HW234788   3.466   6.424   8.484 -0.1686 -0.2671 -0.8690
 7577SOL     OW34789   5.267   7.583   4.478 -0.4556 -0.0053  0.1606
 7577SOL    HW134790   5.189   7.644   4.486 -0.2610  0.1561  0.8148
 7577SOL    HW234791   5.348   7.635   4.451 -0.2373  0.0649  0.9451
 7578SOL     OW34792   3.360   6.134   7.998  0.3664  0.3738  0.2402
 7578SOL    HW134793   3.265   6.138   8.029  0.2909  1.4669 -0.1074
 7578SOL    HW234794   3.420   6.166   8.071  0.7512 -3.1798  1.5696
 7579SOL     OW34795   7.928   9.515   5.275 -0.1956 -0.1881 -0.2757
 7579SOL    HW134796   7.901   9.457   5.352  0.8352 -0.7054 -0.3028
 7579SOL    HW234797   8.006   9.572   5.302 -1.1485  1.1466 -0.2732
 7580SOL     OW34798   0.531   2.225   0.902 -0.2219 -0.0325  0.1813
 7580SOL    HW134799   0.596   2.169   0.850 -2.3740 -1.1141 -1.4363
 7580SOL    HW234800   0.456   2.253   0.841 -1.1911  1.3032  1.9589
 7581SOL     OW34801   2.666   0.329   9.059  0.1616  0.4839  0.0542
 7581SOL    HW134802   2.586   0.389   9.065 -0.6373 -0.5534 -0.2284
 7581SOL    HW234803   2.658   0.257   9.128  0.9074  0.4423  0.0945
 7582SOL     OW34804   9.084   0.805   3.317 -0.6582  0.4614 -0.7346
 7582SOL    HW134805   9.173   0.851   3.322 -0.8848  1.1287 -2.3502
 7582SOL    HW234806   9.092   0.724   3.258 -1.0562  0.3938 -0.6944
 7583SOL     OW34807   4.367   3.019   3.456 -0.1241 -0.1498  0.0405
 7583SOL    HW134808   4.371   3.105   3.508 -1.0803  0.6034 -1.1103
 7583SOL    HW234809   4.425   3.026   3.376 -1.2236 -0.0881 -0.7608
 7584SOL     OW34810   2.940   0.424   9.339  0.1281 -0.1385 -0.4136
 7584SOL    HW134811   2.949   0.353   9.410  2.5289 -0.6427 -1.1601
 7584SOL    HW234812   2.846   0.424   9.304 -0.6051 -1.1486  1.4504
 7585SOL     OW34813   1.320   7.985   8.197  0.0293  0.3459 -0.3545
 7585SOL    HW134814   1.413   7.982   8.160 -0.8796  0.7659 -2.6901
 7585SOL    HW234815   1.259   7.928   8.142 -1.1211  0.0591  1.1682
 7586SOL     OW34816   9.361   8.337   2.895 -0.2391  0.5232  0.0236
 7586SOL    HW134817   9.277   8.369   2.851 -1.5592 -1.0157  1.3496
 7586SOL    HW234818   9.349   8.338   2.994  1.3805  0.4531  0.2274
 7587SOL     OW34819   3.363   7.472   3.279 -0.2890  0.2853 -0.3119
 7587SOL    HW134820   3.369   7.434   3.371 -0.1166  1.3910  0.1297
 7587SOL    HW234821   3.288   7.426   3.230 -0.5696 -0.1028  0.4672
 7588SOL     OW34822   9.165   6.693   7.711  0.1371 -0.6004 -0.2822
 7588SOL    HW134823   9.210   6.635   7.779 -1.9649 -0.1739  1.5066
 7588SOL    HW234824   9.233   6.727   7.646  1.9178 -2.3298  0.6269
 7589SOL     OW34825   8.852   8.357   9.547  0.4279 -0.2992 -0.4314
 7589SOL    HW134826   8.900   8.443   9.560 -0.0170  0.0313 -0.9424
 7589SOL    HW234827   8.766   8.358   9.598  0.6486 -0.6347 -0.0446
 7590SOL     OW34828   3.209   4.140   9.961  0.4752  0.3729  0.5703
 7590SOL    HW134829   3.267   4.219   9.939 -0.7051  0.9019 -0.7872
 7590SOL    HW234830   3.240   4.098  10.046  1.6953  1.7516  0.8323
 7591SOL     OW34831   4.456   5.804   2.056 -0.2124  0.3806 -0.1313
 7591SOL    HW134832   4.406   5.772   2.137  0.1075 -0.6353 -0.3285
 7591SOL    HW234833   4.539   5.851   2.086  1.2003 -2.1374  0.1296
 7592SOL     OW34834   2.384   8.840   7.042 -0.2424 -0.2566  0.4332
 7592SOL    HW134835   2.434   8.761   7.078 -0.1763  0.0452  1.0026
 7592SOL    HW234836   2.384   8.837   6.942  0.0986 -0.7683  0.4512
 7593SOL     OW34837   8.767   9.797   7.183  0.0714 -0.1824  0.0705
 7593SOL    HW134838   8.675   9.820   7.214  0.2542 -1.6308  1.7730
 7593SOL    HW234839   8.833   9.854   7.231  0.1402  0.0126 -0.2529
 7594SOL     OW34840   6.835   4.885   1.451  0.4349 -0.1633 -0.3231
 7594SOL    HW134841   6.898   4.936   1.509  2.3800 -1.5267 -1.1810
 7594SOL    HW234842   6.823   4.793   1.488 -0.6862 -0.0758 -0.4447
 7595SOL     OW34843   9.196   1.973   1.571 -0.1264  0.2227  0.0621
 7595SOL    HW134844   9.186   2.060   1.618  0.7776  0.8026 -0.8054
 7595SOL    HW234845   9.291   1.959   1.545 -0.5509 -0.2477 -1.2778
 7596SOL     OW34846   7.332   6.874   3.599  0.9077  0.2508  0.4248
 7596SOL    HW134847   7.289   6.827   3.523  0.0489  0.0958  1.0027
 7596SOL    HW234848   7.413   6.822   3.628 -0.0029 -0.8717  1.0279
 7597SOL     OW34849   9.976   3.150   7.308  0.1394  0.4590  0.1674
 7597SOL    HW134850   9.879   3.148   7.333 -0.3198  0.6228 -1.5761
 7597SOL    HW234851  10.011   3.056   7.306 -0.4557  0.2530 -0.9876
 7598SOL     OW34852   0.709   1.971   3.491  0.3480  0.3539 -0.1531
 7598SOL    HW134853   0.666   1.881   3.494 -0.2729  0.6296 -0.8189
 7598SOL    HW234854   0.756   1.983   3.403  0.0209  0.8658 -0.2602
 7599SOL     OW34855   1.990   0.947   9.356 -0.2505  0.2281  0.1450
 7599SOL    HW134856   1.922   0.926   9.427  1.5468 -0.8662  1.5756
 7599SOL    HW234857   2.065   0.998   9.397  0.0487  0.9847 -1.3275
 7600SOL     OW34858   1.348   5.615   7.626  0.0881  0.1206 -0.0055
 7600SOL    HW134859   1.366   5.568   7.712 -2.3182  0.0144  0.4935
 7600SOL    HW234860   1.253   5.598   7.598  0.1806  1.9162 -1.5567
 7601SOL     OW34861   3.418   5.386   7.945  0.1614  0.0541  0.3563
 7601SOL    HW134862   3.499   5.444   7.937 -0.3945  0.7643 -0.1621
 7601SOL    HW234863   3.396   5.346   7.857  0.2458 -0.5484  0.6062
 7602SOL     OW34864   4.176   5.245   8.492 -0.1077  0.2156 -0.0343
 7602SOL    HW134865   4.247   5.286   8.550 -0.3364  0.8526 -0.2038
 7602SOL    HW234866   4.097   5.306   8.488  0.6682  1.1512 -2.6244
 7603SOL     OW34867   8.924   6.199   7.789 -0.7897 -0.7677  0.0074
 7603SOL    HW134868   9.022   6.179   7.786 -0.9708 -1.5039 -1.5579
 7603SOL    HW234869   8.902   6.266   7.719 -1.2080  0.4383  1.2583
 7604SOL     OW34870   4.497   8.051   0.187  0.2717 -0.1613  0.1815
 7604SOL    HW134871   4.422   8.112   0.212  1.1947  0.5053  1.3872
 7604SOL    HW234872   4.552   8.094   0.115 -0.2449 -0.4589 -0.3942
 7605SOL     OW34873   2.638   9.639   8.978 -0.1403  0.3406 -0.5168
 7605SOL    HW134874   2.558   9.584   9.004  0.7314  0.2077  2.0419
 7605SOL    HW234875   2.709   9.579   8.943  0.1994 -0.0042  0.7289
 7606SOL     OW34876   9.063   2.879   1.191 -0.1265  0.0179  0.1584
 7606SOL    HW134877   8.983   2.905   1.244  0.3325  0.7444  0.5037
 7606SOL    HW234878   9.096   2.790   1.222 -1.5606 -0.8916 -0.8667
 7607SOL     OW34879   7.972   9.996   6.790  0.1005 -0.0395  0.0853
 7607SOL    HW134880   8.024  10.020   6.872 -0.6636  0.4029  0.4483
 7607SOL    HW234881   8.033   9.955   6.722  0.4753 -1.7533  1.4286
 7608SOL     OW34882   1.717   9.544   8.483 -0.3370 -0.1656 -0.1446
 7608SOL    HW134883   1.686   9.636   8.509  0.2939 -0.5219  2.0054
 7608SOL    HW234884   1.796   9.551   8.423 -0.4724  0.7170 -0.2228
 7609SOL     OW34885   4.950   6.248   3.815 -0.1822 -0.4884 -0.5465
 7609SOL    HW134886   4.931   6.150   3.816  2.2610 -1.0241 -1.7322
 7609SOL    HW234887   5.006   6.272   3.895  2.5685 -0.8461 -2.3014
 7610SOL     OW34888   1.602   5.640   2.425  0.0175  0.1987  0.1343
 7610SOL    HW134889   1.587   5.567   2.492  2.2206 -0.6348 -0.2399
 7610SOL    HW234890   1.637   5.721   2.472 -1.7925  0.8301  0.4522
 7611SOL     OW34891   5.432   0.405   3.676  0.2586 -0.0673 -0.5953
 7611SOL    HW134892   5.418   0.312   3.709  0.4290 -0.1536 -0.7609
 7611SOL    HW234893   5.520   0.439   3.708  0.2285  0.0099 -0.5952
 7612SOL     OW34894   2.012   2.294   2.833 -0.0406  0.2718 -0.2064
 7612SOL    HW134895   1.962   2.282   2.919 -0.9938 -0.5117 -0.8514
 7612SOL    HW234896   1.948   2.283   2.756  1.0370 -0.2331 -1.0373
 7613SOL     OW34897   5.088   9.907   3.958  0.1613  0.2537  0.3203
 7613SOL    HW134898   5.056   9.846   3.886  1.6580  0.7567 -0.7907
 7613SOL    HW234899   5.039   9.887   4.043 -0.9969 -0.9268 -0.6094
 7614SOL     OW34900   3.730   4.906   9.303  0.0923  0.1552  0.1499
 7614SOL    HW134901   3.723   4.927   9.400  1.4357  1.2800  0.0193
 7614SOL    HW234902   3.692   4.981   9.250 -0.2632 -0.2711 -0.1983
 7615SOL     OW34903   3.817   2.660   4.215 -0.0326 -0.2863  0.0804
 7615SOL    HW134904   3.875   2.714   4.276  1.0905 -1.9337  0.5106
 7615SOL    HW234905   3.861   2.652   4.126 -0.4686  0.0097 -0.1589
 7616SOL     OW34906   2.987   8.015   4.699  0.2778 -0.3316  0.4534
 7616SOL    HW134907   2.948   8.091   4.648  0.8652 -1.2222 -1.3375
 7616SOL    HW234908   3.087   8.015   4.689  0.3278 -1.0536  0.8572
 7617SOL     OW34909   7.032   1.668   1.361  0.3278 -0.0366 -0.2335
 7617SOL    HW134910   6.940   1.644   1.330  0.0760 -0.1730  0.5955
 7617SOL    HW234911   7.075   1.729   1.295  0.0488 -0.8250 -1.1660
 7618SOL     OW34912   6.298   1.967   2.743 -0.3181 -0.0672  0.0439
 7618SOL    HW134913   6.243   1.885   2.763 -0.6412 -0.0994 -0.9503
 7618SOL    HW234914   6.278   1.999   2.650  1.1586  0.0831 -0.2321
 7619SOL     OW34915   6.433   9.693   6.900  0.4543 -0.0007 -0.4333
 7619SOL    HW134916   6.496   9.747   6.955  0.9866 -0.8345 -0.2032
 7619SOL    HW234917   6.359   9.751   6.866  0.2107  0.5482  1.0148
 7620SOL     OW34918   8.058   8.871   2.735 -0.1102 -0.2385  0.2553
 7620SOL    HW134919   8.158   8.877   2.744  0.0073 -2.1553  0.4379
 7620SOL    HW234920   8.016   8.944   2.788  1.1961  0.7274  0.0012
 7621SOL     OW34921   5.294   9.145   8.216  0.0500  0.1193 -0.0550
 7621SOL    HW134922   5.293   9.149   8.116  1.6373 -1.7869 -0.1919
 7621SOL    HW234923   5.354   9.216   8.252  1.6865 -0.9644 -0.6140
 7622SOL     OW34924   0.235   9.546   9.983  0.0639 -0.5528 -0.3475
 7622SOL    HW134925   0.300   9.602   9.932  0.5993 -0.5903  0.2832
 7622SOL    HW234926   0.285   9.482  10.042 -0.5423 -0.7903 -0.0838
 7623SOL     OW34927   6.182   6.525   1.940 -0.3576  0.2243  0.1495
 7623SOL    HW134928   6.176   6.608   1.995  0.6089 -0.0428  0.6608
 7623SOL    HW234929   6.099   6.516   1.884 -0.8164  1.1093  0.6820
 7624SOL     OW34930   5.353   5.280   9.481 -0.0344  0.3450 -0.4117
 7624SOL    HW134931   5.327   5.228   9.399 -1.9431 -0.2816  0.5585
 7624SOL    HW234932   5.326   5.229   9.562 -0.4201  2.1234  0.5927
 7625SOL     OW34933   9.471   0.129   3.548  0.1184  0.3440 -0.5382
 7625SOL    HW134934   9.522   0.044   3.564 -1.3957 -0.3277  0.8765
 7625SOL    HW234935   9.390   0.109   3.493 -0.6116  0.7218  0.3810
 7626SOL     OW34936   0.018   7.213   4.084 -0.0844  0.0550  0.2425
 7626SOL    HW134937   0.100   7.270   4.094  1.0219 -1.6412  1.1172
 7626SOL    HW234938  -0.036   7.218   4.168  0.2442 -0.5400  0.4883
 7627SOL     OW34939   2.439   8.418   6.540 -0.2026  0.8062  0.0645
 7627SOL    HW134940   2.367   8.463   6.488 -0.4606  0.8229  0.4324
 7627SOL    HW234941   2.433   8.445   6.636  0.4170  0.9601  0.0633
 7628SOL     OW34942   4.835   8.990   8.615 -0.0295  0.0870 -0.3397
 7628SOL    HW134943   4.764   8.920   8.607 -0.1609  0.1418  0.2927
 7628SOL    HW234944   4.809   9.071   8.562 -0.8280  0.4061  0.5139
 7629SOL     OW34945   2.988   3.967   5.986 -0.1618  0.0674 -0.2168
 7629SOL    HW134946   2.946   4.056   6.005  0.6433  0.4344 -0.1339
 7629SOL    HW234947   2.988   3.950   5.888  1.1243  0.8753 -0.3604
 7630SOL     OW34948   1.277   2.395   3.838 -0.3117 -0.3839 -0.0888
 7630SOL    HW134949   1.234   2.472   3.791  1.1353  1.3323  1.3093
 7630SOL    HW234950   1.284   2.317   3.776 -1.5138  0.7193 -1.6301
 7631SOL     OW34951   8.350   1.802   0.410  0.1082 -0.4695 -0.3280
 7631SOL    HW134952   8.333   1.865   0.334 -0.2113  1.4687  1.2922
 7631SOL    HW234953   8.265   1.756   0.435 -0.6278  1.5431  1.0933
 7632SOL     OW34954   0.068   6.259   2.942  0.1503 -0.0173  0.2576
 7632SOL    HW134955   0.138   6.327   2.923  1.2043 -0.4775  2.3669
 7632SOL    HW234956   0.097   6.170   2.908  0.7581 -0.2658  1.3842
 7633SOL     OW34957   0.588   0.378   6.013 -0.7236  0.1059  0.1982
 7633SOL    HW134958   0.499   0.344   6.041 -0.1601 -0.4601  1.3016
 7633SOL    HW234959   0.588   0.478   6.016 -0.6826  0.0619  2.1882
 7634SOL     OW34960   2.753   4.424  10.053  0.1437 -0.6761 -0.4090
 7634SOL    HW134961   2.805   4.506  10.032 -1.9926  1.1094  0.9871
 7634SOL    HW234962   2.810   4.360  10.105  1.4133  0.4982 -0.3335
 7635SOL     OW34963   7.630   7.777   4.479  1.5597  0.4609 -0.1155
 7635SOL    HW134964   7.651   7.763   4.575  0.5049  0.2099  0.0775
 7635SOL    HW234965   7.669   7.701   4.425  1.7231  0.3481  0.1608
 7636SOL     OW34966   1.558   1.770   3.329 -0.1584  0.2328  0.5443
 7636SOL    HW134967   1.562   1.775   3.229 -1.8082 -1.4707  0.3404
 7636SOL    HW234968   1.617   1.840   3.369  1.2028  0.3694 -1.6173
 7637SOL     OW34969   3.060   2.327   1.532 -0.5534  0.5133 -0.2153
 7637SOL    HW134970   3.093   2.337   1.438  2.0489 -1.3602  0.4350
 7637SOL    HW234971   3.102   2.398   1.589 -2.1187  1.6378 -0.4423
 7638SOL     OW34972   0.771   1.341   7.785 -0.2008  0.5323 -0.5134
 7638SOL    HW134973   0.723   1.390   7.858 -0.3992  0.1535 -0.3926
 7638SOL    HW234974   0.844   1.399   7.749  0.5574  0.3235  0.6671
 7639SOL     OW34975   9.051   0.474   9.951  0.1384  0.0922  0.1335
 7639SOL    HW134976   9.103   0.475   9.865 -0.2152 -2.0256 -0.1183
 7639SOL    HW234977   8.975   0.539   9.944  1.2379  1.3575 -0.4173
 7640SOL     OW34978   6.245   0.754   4.450  0.0248  0.0601 -0.0542
 7640SOL    HW134979   6.215   0.836   4.500  0.9224  0.8997 -0.8758
 7640SOL    HW234980   6.251   0.677   4.514 -3.6256 -0.1057  0.1910
 7641SOL     OW34981   2.709   7.796  10.063 -0.1600  0.8703 -0.6289
 7641SOL    HW134982   2.677   7.791  10.158 -1.1809  0.9236 -0.9630
 7641SOL    HW234983   2.677   7.715  10.013 -0.7843  1.5117 -1.2736
 7642SOL     OW34984   1.361   5.491   7.014  0.1346 -0.0324  0.1582
 7642SOL    HW134985   1.342   5.585   7.041  0.4603  0.5993 -1.7221
 7642SOL    HW234986   1.274   5.441   7.003 -0.2144  0.9182 -1.7382
 7643SOL     OW34987   9.916   5.226   3.138  0.9520 -0.1510 -0.3142
 7643SOL    HW134988   9.899   5.238   3.040  0.9211  0.5144 -0.2271
 7643SOL    HW234989  10.008   5.188   3.152  0.3956 -1.6706 -0.6715
 7644SOL     OW34990   5.102   8.179   3.533  0.1830  0.2860 -0.5418
 7644SOL    HW134991   5.072   8.097   3.581  0.5096  0.7623  0.4813
 7644SOL    HW234992   5.044   8.256   3.559 -0.2048  0.3558 -1.5999
 7645SOL     OW34993   9.222   9.112   8.070 -0.1464  0.3351 -0.1224
 7645SOL    HW134994   9.207   9.208   8.092 -0.0729  0.8613 -2.2943
 7645SOL    HW234995   9.273   9.069   8.144  0.9000  2.2674  0.3214
 7646SOL     OW34996   8.609   4.104   3.973  0.3407  0.5992 -0.0070
 7646SOL    HW134997   8.520   4.149   3.975  0.2089  0.3356  0.0483
 7646SOL    HW234998   8.665   4.136   4.050  0.0068  0.1837  0.4146
 7647SOL     OW34999   3.306   6.795   6.336  0.6352  0.0593 -0.0199
 7647SOL    HW135000   3.249   6.756   6.408 -0.5230 -1.3738 -1.6857
 7647SOL    HW235001   3.394   6.823   6.375 -0.3447  0.2324  2.1296
 7648SOL     OW35002   9.113   3.107   6.981  0.0812  0.0474  0.3015
 7648SOL    HW135003   9.152   3.037   7.040  0.1254  0.5984  0.9262
 7648SOL    HW235004   9.176   3.127   6.906  0.6866  0.4199  0.9068
 7649SOL     OW35005   3.670   8.580   6.003 -0.5111  0.5993 -0.4896
 7649SOL    HW135006   3.730   8.619   5.932  1.7620  0.6980  1.4012
 7649SOL    HW235007   3.676   8.637   6.085 -1.2877 -0.8147  0.5561
 7650SOL     OW35008   6.390   8.737   4.367  0.0060 -0.4274 -0.2456
 7650SOL    HW135009   6.334   8.743   4.450 -1.8118  2.7682 -1.6270
 7650SOL    HW235010   6.470   8.796   4.376 -0.7158  0.7074 -1.1128
 7651SOL     OW35011   0.512   0.675   1.791  0.4827 -0.3911  0.0966
 7651SOL    HW135012   0.534   0.764   1.831  1.3788  0.9706 -3.2012
 7651SOL    HW235013   0.567   0.604   1.834  0.8456  0.8775  1.7481
 7652SOL     OW35014   9.272   4.181   0.559  0.2972 -0.4477 -0.0281
 7652SOL    HW135015   9.365   4.156   0.532 -0.2032 -0.3819 -1.9144
 7652SOL    HW235016   9.260   4.280   0.546 -0.2407 -0.5671 -0.4376
 7653SOL     OW35017   2.068   2.258   3.311 -0.4784 -0.0250 -0.0849
 7653SOL    HW135018   2.043   2.245   3.215  1.2194  0.5704 -0.6189
 7653SOL    HW235019   2.131   2.335   3.319 -0.9653  0.2175  1.5701
 7654SOL     OW35020   8.627   9.712   0.655 -0.4501 -0.0184  0.2767
 7654SOL    HW135021   8.605   9.763   0.738 -0.6827  0.8409 -0.3112
 7654SOL    HW235022   8.672   9.626   0.680  0.1097  0.5514  1.2721
 7655SOL     OW35023   2.717   1.268   5.144 -0.0530  0.3561 -0.0521
 7655SOL    HW135024   2.757   1.177   5.133 -3.2014 -1.3364  1.7138
 7655SOL    HW235025   2.630   1.272   5.095 -0.8199  1.7789  1.3900
 7656SOL     OW35026   2.952   1.475   8.184  0.4413  0.1285 -0.2087
 7656SOL    HW135027   2.863   1.458   8.140 -0.4616 -2.1808  2.3874
 7656SOL    HW235028   3.025   1.456   8.119 -0.8703 -1.9913 -1.1174
 7657SOL     OW35029   1.519   0.926   0.828  0.1541  0.0181  0.2788
 7657SOL    HW135030   1.594   0.939   0.762  1.4822 -0.2398  1.7152
 7657SOL    HW235031   1.527   0.994   0.901 -1.8069  0.8451 -0.2552
 7658SOL     OW35032   9.203   6.345   2.960  0.7270  0.4473  0.1091
 7658SOL    HW135033   9.301   6.365   2.960  0.5771  1.2900 -1.9380
 7658SOL    HW235034   9.184   6.268   2.900  0.2714 -0.5362  1.4880
 7659SOL     OW35035   0.145   5.724   0.444  0.3221  0.5647 -0.6477
 7659SOL    HW135036   0.211   5.761   0.378  0.9245  1.9409  0.6841
 7659SOL    HW235037   0.155   5.773   0.531 -0.5504 -1.1291  0.4206
 7660SOL     OW35038   3.542   8.911   5.858 -0.0523  1.1201  0.2902
 7660SOL    HW135039   3.487   8.842   5.904 -0.5708 -0.4634 -2.5957
 7660SOL    HW235040   3.639   8.893   5.875 -0.2542  1.0366  1.3961
 7661SOL     OW35041   0.604   8.983   4.873  0.5869  0.3574  0.1152
 7661SOL    HW135042   0.576   9.020   4.962  0.8306 -0.5242  0.5636
 7661SOL    HW235043   0.579   9.048   4.801 -0.8295  0.4756  0.6924
 7662SOL     OW35044   1.508   1.549   2.004  0.2158 -0.3564 -0.4256
 7662SOL    HW135045   1.468   1.563   1.914 -0.2054  0.4867 -0.1184
 7662SOL    HW235046   1.588   1.490   1.997  0.5083  0.1588 -1.4248
 7663SOL     OW35047   9.180   1.099   7.713 -0.7366  0.0533  0.1369
 7663SOL    HW135048   9.167   1.000   7.712  0.3437 -0.0919 -1.4792
 7663SOL    HW235049   9.122   1.140   7.642  2.5289  0.0485 -2.6471
 7664SOL     OW35050   3.050   1.266   4.184 -0.1929  0.3471 -0.3428
 7664SOL    HW135051   3.048   1.169   4.162  0.5850  0.2148  0.1747
 7664SOL    HW235052   3.046   1.319   4.099 -1.6911 -0.1192 -0.5765
 7665SOL     OW35053   9.158   1.078   3.479  0.4711 -0.1899  0.0796
 7665SOL    HW135054   9.163   1.174   3.452 -0.2393  0.0416  0.7363
 7665SOL    HW235055   9.067   1.059   3.518 -0.1745 -1.6748 -2.0806
 7666SOL     OW35056   0.257   6.441   2.016  0.4069  0.1553  0.7579
 7666SOL    HW135057   0.162   6.437   2.047  0.1864  0.6444  0.1567
 7666SOL    HW235058   0.299   6.525   2.051  1.0935 -0.8212  2.3401
 7667SOL     OW35059   2.700   3.214   8.659  0.0326 -0.1458  0.1794
 7667SOL    HW135060   2.746   3.299   8.635  0.5189 -0.9676 -1.9012
 7667SOL    HW235061   2.712   3.196   8.757  1.6101  1.1670  0.2463
 7668SOL     OW35062   8.240   4.189   6.794 -0.3946  0.5193  0.2906
 7668SOL    HW135063   8.334   4.181   6.828  0.2102  1.7103 -1.0643
 7668SOL    HW235064   8.208   4.099   6.766  0.4157  0.1347  0.5555
 7669SOL     OW35065   8.837   4.368   8.763  0.2665  0.0344 -0.0015
 7669SOL    HW135066   8.840   4.378   8.663  0.2591 -0.3880 -0.0447
 7669SOL    HW235067   8.928   4.383   8.801 -0.0369  1.7570  0.0817
 7670SOL     OW35068   1.194   1.872   5.710  0.2435 -0.0692  0.2715
 7670SOL    HW135069   1.245   1.867   5.796  1.6825 -1.4264 -0.6469
 7670SOL    HW235070   1.257   1.885   5.634 -0.9838  0.6459 -0.6352
 7671SOL     OW35071   0.450   4.713   2.377 -0.2235  0.2075 -0.0401
 7671SOL    HW135072   0.448   4.622   2.337 -0.6156 -0.2521  1.0039
 7671SOL    HW235073   0.424   4.781   2.307 -0.5664 -0.5399 -0.6441
 7672SOL     OW35074   1.359   8.747   3.587 -0.4811  0.4058  0.8169
 7672SOL    HW135075   1.438   8.706   3.541 -1.6534 -0.8994 -0.0833
 7672SOL    HW235076   1.390   8.821   3.646  1.4051 -0.0041  0.3897
 7673SOL     OW35077   2.423   0.078   6.049 -0.6356  0.4155 -0.3710
 7673SOL    HW135078   2.512   0.082   6.003  0.2567 -0.3606  1.2303
 7673SOL    HW235079   2.370   0.001   6.013 -0.3144  0.3645 -0.7357
 7674SOL     OW35080   2.784   5.978   9.424 -0.1272 -0.0976 -0.2087
 7674SOL    HW135081   2.842   5.897   9.426 -0.3414 -0.2253  1.2198
 7674SOL    HW235082   2.842   6.060   9.415  0.4492 -0.0823  3.1283
 7675SOL     OW35083   9.222   5.262   4.574  0.2584  0.1863 -0.1819
 7675SOL    HW135084   9.307   5.314   4.558  0.3717  0.1238  0.2012
 7675SOL    HW235085   9.242   5.183   4.631 -0.0028 -0.0121 -0.3624
 7676SOL     OW35086   1.811   1.215   6.568  0.2944  0.2133 -0.2164
 7676SOL    HW135087   1.870   1.295   6.563  1.6827 -0.6471  1.6836
 7676SOL    HW235088   1.780   1.190   6.476 -0.0541  2.8216 -0.8377
 7677SOL     OW35089   1.806   3.782   5.821 -0.4083  0.1899 -0.3525
 7677SOL    HW135090   1.781   3.859   5.761  0.8478 -0.4846 -1.7694
 7677SOL    HW235091   1.903   3.788   5.844 -0.4637 -0.5991  0.1010
 7678SOL     OW35092   5.768   3.823  10.020  0.3424 -0.0805 -0.2795
 7678SOL    HW135093   5.700   3.757   9.988 -0.0970 -0.8211  2.1192
 7678SOL    HW235094   5.775   3.898   9.953 -3.5653  0.5273 -0.1527
 7679SOL     OW35095   9.622   0.760   2.715  0.5701 -0.6881 -0.0424
 7679SOL    HW135096   9.691   0.831   2.697 -0.8561  0.8447  0.4021
 7679SOL    HW235097   9.556   0.794   2.782 -0.8020 -2.0094 -0.6867
 7680SOL     OW35098   1.019   5.894   1.134 -0.3297 -0.3782  0.7349
 7680SOL    HW135099   1.011   5.879   1.035 -0.2830 -0.7312  0.7837
 7680SOL    HW235100   1.002   5.990   1.155  0.4883 -0.1264  0.2815
 7681SOL     OW35101   1.804   3.996   3.765  0.0385  0.1153  1.0838
 7681SOL    HW135102   1.830   4.075   3.710  0.5610 -0.6304  0.2488
 7681SOL    HW235103   1.871   3.982   3.837 -0.2234  0.6148  1.4302
 7682SOL     OW35104   0.076   3.047   2.173 -0.0965  0.5790  0.4319
 7682SOL    HW135105   0.057   2.951   2.192 -1.0550  0.7716  0.4525
 7682SOL    HW235106  -0.010   3.098   2.168  0.3345  1.1884 -0.9022
 7683SOL     OW35107   0.727   8.293   9.774  0.2798 -0.2815  0.3046
 7683SOL    HW135108   0.642   8.320   9.820  0.2928  0.3461 -0.0332
 7683SOL    HW235109   0.716   8.202   9.735 -0.1584 -0.3012  0.4694
 7684SOL     OW35110   9.838   4.041   8.045  0.5851  0.0071  0.0714
 7684SOL    HW135111   9.792   4.063   8.131  0.3640  0.9807 -0.2985
 7684SOL    HW235112   9.931   4.010   8.064  0.2305 -0.6671  0.7244
 7685SOL     OW35113   7.749   0.572   8.038 -0.1308  0.0177  0.1506
 7685SOL    HW135114   7.679   0.531   8.097  2.3134 -0.3947  2.9011
 7685SOL    HW235115   7.817   0.502   8.013  1.0124  1.0818  0.1997
 7686SOL     OW35116   1.142   1.725   6.081  0.1404 -0.3168  0.3142
 7686SOL    HW135117   1.043   1.719   6.078  0.0535  0.6995  1.0558
 7686SOL    HW235118   1.171   1.771   6.165  1.2023  0.2871 -0.3642
 7687SOL     OW35119   6.201   2.349   2.552  0.3154 -0.4701  0.1693
 7687SOL    HW135120   6.196   2.299   2.638  1.3301  1.0827  1.1636
 7687SOL    HW235121   6.297   2.356   2.523  0.2060  1.0427  0.1506
 7688SOL     OW35122   7.322   2.332   4.684  0.2027  0.0198 -0.3928
 7688SOL    HW135123   7.235   2.350   4.730  1.8600  1.4296  2.2897
 7688SOL    HW235124   7.361   2.247   4.720  0.7694  0.3244 -0.2802
 7689SOL     OW35125   0.154   1.960   4.131 -0.2403 -0.2507 -0.0142
 7689SOL    HW135126   0.123   1.865   4.136  0.2564 -0.3647  0.8617
 7689SOL    HW235127   0.152   2.001   4.222 -2.3296  1.1820 -0.6528
 7690SOL     OW35128   2.125   7.671   9.888  0.0286 -0.3348  0.1569
 7690SOL    HW135129   2.116   7.731   9.968 -2.3923 -3.1059  2.0898
 7690SOL    HW235130   2.044   7.612   9.883  1.1926 -1.7064 -3.1189
 7691SOL     OW35131   1.625   5.313   6.006 -0.2984 -0.0852 -0.5192
 7691SOL    HW135132   1.603   5.246   5.934  0.5370  0.0502 -0.9074
 7691SOL    HW235133   1.702   5.280   6.060  0.0891  0.5401 -0.6818
 7692SOL     OW35134   6.060   3.621   8.973 -0.1911 -0.2436 -0.1612
 7692SOL    HW135135   6.063   3.659   9.066  0.7723 -2.0474  0.5694
 7692SOL    HW235136   6.023   3.528   8.976 -0.5632 -0.1530 -1.6483
 7693SOL     OW35137   1.707   4.055   5.053  0.5997 -0.2911 -0.4646
 7693SOL    HW135138   1.646   4.135   5.055 -0.4116 -1.0815  1.3052
 7693SOL    HW235139   1.798   4.083   5.082  0.3415  0.3074 -0.2113
 7694SOL     OW35140   9.142   6.578   8.530 -0.2658  0.3853 -0.1629
 7694SOL    HW135141   9.097   6.667   8.527 -0.5974  0.2449  0.5251
 7694SOL    HW235142   9.206   6.570   8.453 -1.2831  0.6579 -1.0614
 7695SOL     OW35143   2.943   5.813   2.610  0.0291 -0.3259  0.6274
 7695SOL    HW135144   2.886   5.773   2.539 -0.8299  1.1619  0.4589
 7695SOL    HW235145   3.020   5.862   2.568 -0.1500  0.0503  0.7288
 7696SOL     OW35146   9.548   9.933   4.892  0.3526 -0.3610  0.0087
 7696SOL    HW135147   9.632   9.920   4.945 -0.7475  0.0396  1.8893
 7696SOL    HW235148   9.571   9.939   4.795  2.4331 -0.8535  0.4408
 7697SOL     OW35149   1.835   2.321   0.517  0.0566 -0.2166  0.6197
 7697SOL    HW135150   1.737   2.310   0.530 -0.2021 -2.3094 -2.4292
 7697SOL    HW235151   1.884   2.260   0.580 -0.5760  0.8620  2.1759
 7698SOL     OW35152   1.838   3.296   8.147  0.0337 -0.5357  0.1340
 7698SOL    HW135153   1.753   3.271   8.101  0.5910  0.0936 -1.3069
 7698SOL    HW235154   1.915   3.284   8.083  0.9713 -0.7133  1.2820
 7699SOL     OW35155   6.154   2.307   1.783  0.1454 -0.0399 -0.0717
 7699SOL    HW135156   6.200   2.221   1.802 -0.7780 -0.3396  0.8330
 7699SOL    HW235157   6.151   2.362   1.867 -0.1474  0.4470 -0.4018
 7700SOL     OW35158   3.157   5.331   2.102 -0.0055 -0.1557  0.1078
 7700SOL    HW135159   3.065   5.333   2.063 -0.1438 -2.7490  0.2053
 7700SOL    HW235160   3.152   5.298   2.196  0.9355  0.6492  0.4435
 7701SOL     OW35161   5.568   7.402   5.408 -0.6020  0.0512  0.4603
 7701SOL    HW135162   5.667   7.397   5.418 -0.6362  0.1130  0.8625
 7701SOL    HW235163   5.545   7.428   5.314 -0.2286  0.3359  0.4458
 7702SOL     OW35164   7.192   3.014   5.056  0.2863  0.2868 -0.5431
 7702SOL    HW135165   7.162   2.930   5.101 -1.4820  1.0610 -0.2681
 7702SOL    HW235166   7.171   3.009   4.958  0.9247  0.0831 -0.6757
 7703SOL     OW35167   4.860   1.956   4.700  0.9517 -0.0137 -0.2569
 7703SOL    HW135168   4.910   1.929   4.782  0.1621 -0.4038  0.0932
 7703SOL    HW235169   4.822   2.047   4.712  0.6608 -0.1552 -0.1136
 7704SOL     OW35170   2.746   5.930   7.746  0.4717  0.1641  0.2868
 7704SOL    HW135171   2.828   5.918   7.803  0.6578  1.3504  0.2859
 7704SOL    HW235172   2.730   6.027   7.731 -0.7759 -0.0717  0.0325
 7705SOL     OW35173   4.598   3.531   8.175  0.5656 -0.3089 -0.2855
 7705SOL    HW135174   4.504   3.531   8.140  0.4846 -0.7250 -0.0699
 7705SOL    HW235175   4.612   3.612   8.233  0.2311 -0.4384 -0.0222
 7706SOL     OW35176   0.482   3.601   7.810 -0.3181  1.0357  0.1868
 7706SOL    HW135177   0.452   3.595   7.715 -0.4483  0.7845  0.2443
 7706SOL    HW235178   0.485   3.697   7.838 -0.9023  1.0717  0.1287
 7707SOL     OW35179   4.709   1.592   9.311  0.2568  0.2833  0.0303
 7707SOL    HW135180   4.636   1.527   9.331  1.2701 -1.3108 -1.3006
 7707SOL    HW235181   4.678   1.685   9.332 -1.1836 -0.6214  2.0361
 7708SOL     OW35182   3.007   9.583   0.327 -0.2580 -0.1359 -0.0149
 7708SOL    HW135183   3.102   9.561   0.349 -0.1792  0.4453  0.2196
 7708SOL    HW235184   2.949   9.566   0.407 -0.1298  0.9479  0.3078
 7709SOL     OW35185   6.960   0.368   8.538 -0.5155 -0.2232  0.3094
 7709SOL    HW135186   7.058   0.367   8.556 -0.1388 -0.7706 -1.6768
 7709SOL    HW235187   6.929   0.463   8.530 -0.2051 -0.0426  1.1311
 7710SOL     OW35188   1.025   7.860   4.558 -0.1615  0.5137 -0.5824
 7710SOL    HW135189   1.051   7.783   4.500  1.3441  0.9131 -0.4525
 7710SOL    HW235190   0.947   7.834   4.614 -0.2408 -0.6108 -1.1999
 7711SOL     OW35191   4.336   2.888   4.193 -0.5915  0.0534  0.2130
 7711SOL    HW135192   4.362   2.902   4.098  0.9452  0.6657  0.7183
 7711SOL    HW235193   4.312   2.975   4.235  1.1476  0.1382  1.0775
 7712SOL     OW35194   6.358   6.522   0.623 -0.7272 -0.0673 -0.1941
 7712SOL    HW135195   6.307   6.486   0.545  0.5990 -1.9254 -0.2239
 7712SOL    HW235196   6.454   6.495   0.616 -0.7779 -1.1576  2.5994
 7713SOL     OW35197   5.534   3.940   0.061  0.9182  0.0849  0.1835
 7713SOL    HW135198   5.522   4.000  -0.018 -1.1289 -1.2166 -0.5333
 7713SOL    HW235199   5.625   3.898   0.057  1.0125  0.3894 -1.2283
 7714SOL     OW35200   3.342   3.826   1.432  0.5324  0.0825 -0.4845
 7714SOL    HW135201   3.414   3.896   1.425 -0.8262  1.6209  0.5914
 7714SOL    HW235202   3.273   3.841   1.362 -0.1653  0.2772  0.2468
 7715SOL     OW35203   8.929   4.236   5.479 -0.5154 -0.1708  0.7614
 7715SOL    HW135204   8.895   4.166   5.416 -1.0357  1.4460 -0.7602
 7715SOL    HW235205   8.862   4.250   5.552 -0.3253 -1.3812  1.1812
 7716SOL     OW35206   0.939   7.892   0.029  0.2054 -0.0116  0.3363
 7716SOL    HW135207   0.925   7.973   0.086  1.8452  0.7882 -0.3850
 7716SOL    HW235208   0.968   7.816   0.086 -0.3828  0.1691  0.8820
 7717SOL     OW35209   5.300   2.941   9.777  0.6012 -0.3267  0.6038
 7717SOL    HW135210   5.280   2.978   9.867 -1.3241  1.5818 -0.5507
 7717SOL    HW235211   5.215   2.918   9.730  1.4431  0.7815 -1.5487
 7718SOL     OW35212   6.869   9.897   8.128 -0.2078 -0.2747 -0.0725
 7718SOL    HW135213   6.946   9.940   8.082 -0.1838 -0.4283 -0.1776
 7718SOL    HW235214   6.820   9.965   8.183 -1.5024  0.3680 -1.9739
 7719SOL     OW35215   8.177   3.787   4.822  0.4610 -0.2772 -0.3433
 7719SOL    HW135216   8.095   3.757   4.872  1.0456 -0.1803  0.6701
 7719SOL    HW235217   8.163   3.880   4.788 -0.6058 -0.9620 -1.8477
 7720SOL     OW35218   5.480   9.309   4.655  0.6341 -0.5147 -0.4595
 7720SOL    HW135219   5.570   9.276   4.627  0.9159 -0.7711  0.7566
 7720SOL    HW235220   5.490   9.369   4.734 -0.0485  1.1363 -1.5955
 7721SOL     OW35221   6.219   5.845   1.536 -0.3471 -0.5103 -0.1278
 7721SOL    HW135222   6.143   5.822   1.596 -0.0116  0.2994  0.6147
 7721SOL    HW235223   6.300   5.793   1.562 -0.5853 -1.2171 -0.7856
 7722SOL     OW35224   1.078   2.136   1.220  0.2304  0.4229  0.3418
 7722SOL    HW135225   1.088   2.058   1.158  0.4142  0.6017  0.1469
 7722SOL    HW235226   1.082   2.221   1.168 -1.6069  0.5257  0.3467
 7723SOL     OW35227   3.150   5.084   9.268  0.0447 -0.3957 -0.2021
 7723SOL    HW135228   3.240   5.055   9.300 -0.3235 -2.3408 -0.8824
 7723SOL    HW235229   3.161   5.154   9.196  1.0358 -1.3396 -0.9777
 7724SOL     OW35230   5.745   0.498   8.158  0.3833  0.1255 -0.2178
 7724SOL    HW135231   5.659   0.548   8.149 -0.6353 -1.5105  0.0961
 7724SOL    HW235232   5.760   0.474   8.254  0.7890 -0.2668 -0.3761
 7725SOL     OW35233   0.967   0.983   2.549 -0.4144 -0.2344 -0.4801
 7725SOL    HW135234   1.003   1.030   2.630 -1.8384  0.1333 -0.0491
 7725SOL    HW235235   1.028   1.000   2.472  0.5249  0.0838  0.3142
 7726SOL     OW35236   4.571   2.015   2.286 -0.0379  0.2054 -0.2152
 7726SOL    HW135237   4.639   2.083   2.259  1.1573 -0.8838  0.0303
 7726SOL    HW235238   4.591   1.928   2.242 -2.2954  0.3042 -1.5215
 7727SOL     OW35239   3.386   6.058   8.628 -0.5705 -0.4684 -0.5774
 7727SOL    HW135240   3.335   6.144   8.621 -0.0521  0.0139  1.3541
 7727SOL    HW235241   3.444   6.060   8.709  0.0557 -2.3361 -0.9522
 7728SOL     OW35242   4.612   7.516   6.819  0.2867  0.0753  0.8278
 7728SOL    HW135243   4.607   7.432   6.766  3.8560  0.6707 -0.5684
 7728SOL    HW235244   4.545   7.582   6.784  0.3680 -0.6922 -0.7692
 7729SOL     OW35245   7.944   9.313   9.209 -0.3675  0.2871 -0.0141
 7729SOL    HW135246   7.873   9.271   9.266  0.0215  1.5685  1.4452
 7729SOL    HW235247   7.902   9.381   9.149 -0.7039 -0.6785 -0.8821
 7730SOL     OW35248   0.406   7.243   6.547 -0.6188  0.4367 -0.1489
 7730SOL    HW135249   0.346   7.292   6.484 -0.2626  1.6096  0.4143
 7730SOL    HW235250   0.500   7.273   6.533 -0.4684  0.3108  0.5677
 7731SOL     OW35251   2.565   2.320   0.164 -0.0723  0.5091  0.2189
 7731SOL    HW135252   2.500   2.319   0.240 -2.4612 -1.8140 -1.7468
 7731SOL    HW235253   2.654   2.287   0.195 -0.1112  2.6231  2.6988
 7732SOL     OW35254   1.222   6.251   8.412 -0.2720  0.2346 -0.1900
 7732SOL    HW135255   1.198   6.175   8.353 -0.8610  1.1745 -1.1728
 7732SOL    HW235256   1.316   6.280   8.393  0.0348 -0.4087  0.3573
 7733SOL     OW35257   7.282   8.244   8.995  0.5613 -0.0253 -0.1162
 7733SOL    HW135258   7.299   8.309   8.921 -0.3727 -1.8899 -2.0047
 7733SOL    HW235259   7.278   8.151   8.959 -1.3810 -0.8416  2.0346
 7734SOL     OW35260   7.945   1.266   3.778 -0.3926  0.0351  0.5670
 7734SOL    HW135261   7.955   1.365   3.783 -0.6578  0.1032 -0.3025
 7734SOL    HW235262   7.965   1.226   3.868  2.4885  0.6412  0.2509
 7735SOL     OW35263   9.521   9.220   2.946 -0.3260 -0.1338 -1.0106
 7735SOL    HW135264   9.507   9.267   2.859  0.3524 -1.2439 -1.7377
 7735SOL    HW235265   9.548   9.125   2.929  1.0220 -0.0270  0.4097
 7736SOL     OW35266   7.872   4.928   5.475 -0.2640 -0.5592 -0.2963
 7736SOL    HW135267   7.958   4.974   5.494  0.5459 -1.8925 -0.6823
 7736SOL    HW235268   7.888   4.830   5.463 -1.7117 -0.6982 -1.2066
 7737SOL     OW35269   8.349   1.929   8.461  0.5551 -0.0358 -0.4970
 7737SOL    HW135270   8.279   1.992   8.427 -0.4394 -1.0527 -0.3584
 7737SOL    HW235271   8.316   1.835   8.453  0.6029 -0.3679  2.5404
 7738SOL     OW35272   1.392   9.281   5.834 -0.6595  0.7198 -0.3829
 7738SOL    HW135273   1.325   9.208   5.834 -1.1360  1.0898 -3.4967
 7738SOL    HW235274   1.348   9.368   5.856 -0.8219  0.6344 -0.3764
 7739SOL     OW35275   9.085   3.754   3.153  0.1442  0.3290  0.3733
 7739SOL    HW135276   8.999   3.804   3.157  0.2526  0.8012 -2.0346
 7739SOL    HW235277   9.068   3.659   3.126  0.1317 -0.4152  2.8824
 7740SOL     OW35278   7.236   3.507   4.637  0.3315 -0.1383  0.6134
 7740SOL    HW135279   7.324   3.459   4.638  0.3683 -0.0829 -0.1256
 7740SOL    HW235280   7.162   3.442   4.657  0.4107 -0.4530 -0.0971
 7741SOL     OW35281   1.597   2.025   6.448 -0.1535 -0.4931 -0.8274
 7741SOL    HW135282   1.613   2.095   6.517  0.0989 -2.4090  1.0847
 7741SOL    HW235283   1.598   2.067   6.357 -0.5317  2.0457  0.3242
 7742SOL     OW35284   8.801   2.052   4.933  0.0211  0.1469  0.0050
 7742SOL    HW135285   8.717   2.020   4.975  0.4641 -0.6274  0.3146
 7742SOL    HW235286   8.871   1.981   4.940 -0.3149 -0.5694 -3.3051
 7743SOL     OW35287   4.492   3.136   7.226  0.0487 -0.2425 -0.0781
 7743SOL    HW135288   4.443   3.163   7.143  0.0366 -2.5405 -0.8652
 7743SOL    HW235289   4.433   3.078   7.282  0.6294 -0.0720  0.7094
 7744SOL     OW35290   7.513   9.835   7.276 -0.4107  0.3968  0.1327
 7744SOL    HW135291   7.513   9.735   7.275  0.7446  0.3947 -0.3014
 7744SOL    HW235292   7.567   9.869   7.199 -0.7898  1.3548  0.2829
 7745SOL     OW35293   7.951   5.234   0.548 -0.0297  0.1745  0.0798
 7745SOL    HW135294   8.027   5.170   0.534 -0.8830 -1.1168  1.1936
 7745SOL    HW235295   7.865   5.183   0.549 -0.7185  1.3404  0.9756
 7746SOL     OW35296   6.288   0.536   3.844 -0.3242  0.4990  1.0689
 7746SOL    HW135297   6.215   0.473   3.816 -0.0191  0.1668  1.0131
 7746SOL    HW235298   6.342   0.494   3.917  1.1133 -0.1250 -0.3436
 7747SOL     OW35299   6.287   7.922   5.958 -0.3518 -0.1070  0.3970
 7747SOL    HW135300   6.379   7.882   5.962  1.3537  3.3685 -1.7876
 7747SOL    HW235301   6.274   7.982   6.037 -0.3790  0.1163  0.2231
 7748SOL     OW35302   8.020   5.601   9.748 -0.3499 -0.1763  0.1425
 7748SOL    HW135303   8.068   5.563   9.827  0.8755 -0.9655 -0.9521
 7748SOL    HW235304   8.020   5.701   9.754  0.4480 -0.2057  0.7328
 7749SOL     OW35305   8.107   1.005   3.489  0.3328 -0.6664 -0.2246
 7749SOL    HW135306   8.141   1.011   3.583  0.3502 -0.2376 -0.2567
 7749SOL    HW235307   8.111   0.910   3.459  1.2522 -0.6653 -0.1308
 7750SOL     OW35308   3.455   7.887   7.567 -0.3167  0.4637  0.0257
 7750SOL    HW135309   3.545   7.922   7.591  0.5055 -0.9740 -0.8525
 7750SOL    HW235310   3.436   7.905   7.470 -1.0344  0.8746  0.2356
 7751SOL     OW35311   1.777   5.744   7.605 -0.4700 -0.6409  0.1718
 7751SOL    HW135312   1.738   5.656   7.581 -0.6192 -0.3185 -0.7703
 7751SOL    HW235313   1.710   5.797   7.657 -1.3878  0.0106 -1.6546
 7752SOL     OW35314   6.693   0.742   2.094 -0.4180  0.2693  0.6521
 7752SOL    HW135315   6.791   0.731   2.110 -0.5195 -0.9618  0.5085
 7752SOL    HW235316   6.667   0.838   2.107  0.9234  0.7264  0.0204
 7753SOL     OW35317   4.649   9.551   8.988 -0.1160 -0.9001  0.0314
 7753SOL    HW135318   4.626   9.648   8.973  0.7349 -0.9516 -1.6674
 7753SOL    HW235319   4.616   9.497   8.911  0.3429 -1.8222  0.4764
 7754SOL     OW35320   5.276   0.137   6.748  0.0941  0.2241  0.2729
 7754SOL    HW135321   5.236   0.110   6.661 -0.7420  1.4348  0.2664
 7754SOL    HW235322   5.376   0.129   6.743  0.1659  1.7543 -1.3210
 7755SOL     OW35323   9.661   0.176   9.529  0.7153 -0.0430  0.3358
 7755SOL    HW135324   9.666   0.148   9.433  0.3859 -1.1683  0.6410
 7755SOL    HW235325   9.643   0.274   9.534  1.4713  0.1549 -0.7489
 7756SOL     OW35326   6.636   0.999   1.841  0.0841 -0.9485 -0.3362
 7756SOL    HW135327   6.643   0.959   1.932 -0.3712 -1.1434 -0.3866
 7756SOL    HW235328   6.547   0.977   1.802 -0.7559  1.3206  0.2213
 7757SOL     OW35329   0.055   4.826   8.276  0.1184 -0.5152  0.0789
 7757SOL    HW135330  -0.018   4.782   8.327  2.0842 -2.4126  1.3213
 7757SOL    HW235331   0.142   4.814   8.324  1.3152  1.4115 -1.5248
 7758SOL     OW35332   9.587   3.006   3.096  0.2296  0.0671  0.0405
 7758SOL    HW135333   9.684   3.032   3.095  0.6234 -1.3701 -0.1702
 7758SOL    HW235334   9.545   3.039   3.180  0.7470  1.2249 -0.1371
 7759SOL     OW35335   8.411   5.973   9.378 -0.5746 -0.2343  0.0113
 7759SOL    HW135336   8.368   5.890   9.412 -0.5107 -0.0715  0.5048
 7759SOL    HW235337   8.391   6.049   9.441 -2.3086  0.5777 -1.4635
 7760SOL     OW35338   4.092   4.897   7.731  0.5234 -0.1882 -0.0386
 7760SOL    HW135339   4.114   4.851   7.817  1.3523  1.0715  0.4327
 7760SOL    HW235340   4.084   4.995   7.747 -5.6639 -0.4904 -0.1380
 7761SOL     OW35341   2.782   4.049   5.080 -0.0577  0.2226  0.4539
 7761SOL    HW135342   2.700   4.050   5.022  0.4821  1.3611 -0.3325
 7761SOL    HW235343   2.846   4.118   5.045  0.5239  0.4994  2.0686
 7762SOL     OW35344   6.196   3.721   9.686 -0.6448  0.2423  0.4081
 7762SOL    HW135345   6.221   3.779   9.763  0.6422 -0.1616  0.3049
 7762SOL    HW235346   6.247   3.750   9.605 -0.7716 -0.3846  0.1036
 7763SOL     OW35347   0.591   6.950   4.373 -0.1713  0.2271 -0.1294
 7763SOL    HW135348   0.642   6.866   4.354 -0.3477 -0.5376  2.6476
 7763SOL    HW235349   0.652   7.028   4.365  0.9876 -0.5143  1.2088
 7764SOL     OW35350   9.909   7.385   9.175  0.5915  0.0468 -0.6720
 7764SOL    HW135351   9.843   7.430   9.115  2.4796  0.1532 -2.7632
 7764SOL    HW235352   9.927   7.444   9.254  0.3572  1.3457 -1.5581
 7765SOL     OW35353   9.085   1.500   9.857 -0.2023  0.2205  0.0678
 7765SOL    HW135354   9.047   1.467   9.770 -0.0184  0.8004 -0.2353
 7765SOL    HW235355   9.131   1.588   9.842  1.9036 -0.8149  0.2906
 7766SOL     OW35356   0.878   3.741   7.357  0.0258 -0.3898 -0.0405
 7766SOL    HW135357   0.818   3.696   7.424  0.4705  0.0344  0.6526
 7766SOL    HW235358   0.840   3.830   7.332 -1.1606 -1.3757 -1.8597
 7767SOL     OW35359   1.711   1.998   7.602  0.8113  0.1206  0.0505
 7767SOL    HW135360   1.698   2.058   7.523  0.0227  1.3406  1.0694
 7767SOL    HW235361   1.724   1.904   7.571 -0.7290  0.3830 -1.4727
 7768SOL     OW35362   2.015   6.259   4.625  0.3499  0.1027 -0.1131
 7768SOL    HW135363   2.081   6.286   4.695 -0.6729 -0.7828  1.2226
 7768SOL    HW235364   1.928   6.236   4.669  0.3801 -2.6916 -1.4425
 7769SOL     OW35365   9.762   7.220   5.817  0.2054  0.3959 -0.7127
 7769SOL    HW135366   9.690   7.237   5.884  0.9118  0.4818  0.0220
 7769SOL    HW235367   9.766   7.123   5.795 -0.8159  0.5266 -1.5261
 7770SOL     OW35368   8.584   7.708   0.182  0.3695  0.3790 -0.0709
 7770SOL    HW135369   8.643   7.634   0.150 -0.5333 -0.3791 -0.0214
 7770SOL    HW235370   8.610   7.734   0.275  1.1341  0.6011 -0.3417
 7771SOL     OW35371   0.796   0.136   2.569  0.5821  0.3112  0.3306
 7771SOL    HW135372   0.846   0.057   2.533 -1.9100 -0.9199 -0.5901
 7771SOL    HW235373   0.787   0.205   2.497  0.9234  0.5198  0.4871
 7772SOL     OW35374   8.968   4.251   4.623 -0.0992  0.5145 -0.0215
 7772SOL    HW135375   8.875   4.239   4.656 -0.0551 -0.8590 -0.3982
 7772SOL    HW235376   9.020   4.166   4.636  1.3115  1.4837  0.8565
 7773SOL     OW35377   3.588   7.286   0.025 -0.5113  0.1267 -0.5437
 7773SOL    HW135378   3.676   7.270  -0.020 -0.9600 -0.2043 -1.3076
 7773SOL    HW235379   3.577   7.221   0.101 -1.2447 -1.6146 -2.0970
 7774SOL     OW35380   3.396   0.763   7.425 -0.1093 -0.6057  0.1492
 7774SOL    HW135381   3.385   0.722   7.515  1.4004 -0.7308  0.2840
 7774SOL    HW235382   3.310   0.756   7.375 -1.3053  0.5088  1.9897
 7775SOL     OW35383   8.086   1.911   6.326 -0.3421 -0.5110 -0.2472
 7775SOL    HW135384   8.144   1.897   6.245  0.8858  0.2598  0.4801
 7775SOL    HW235385   7.996   1.872   6.310 -0.3329  0.2567 -2.2644
 7776SOL     OW35386   6.999   6.824   8.329 -0.7732  0.3358 -0.0568
 7776SOL    HW135387   7.070   6.756   8.345 -1.5311 -0.3862  0.2616
 7776SOL    HW235388   6.961   6.811   8.238 -0.7055  0.5329 -0.1127
 7777SOL     OW35389   6.032   2.921   8.514  0.6341  0.4743  0.2379
 7777SOL    HW135390   5.973   2.860   8.567  1.6965 -0.4073  0.4180
 7777SOL    HW235391   6.118   2.934   8.562  0.5886  1.7866 -0.0119
 7778SOL     OW35392   5.798   3.408   9.632 -0.1200 -0.1484  0.9378
 7778SOL    HW135393   5.870   3.458   9.680 -2.8343  2.1642  2.7356
 7778SOL    HW235394   5.779   3.322   9.679  1.9161 -1.1466  0.0166
 7779SOL     OW35395   1.328   9.387   1.727 -0.0277 -0.5536  0.5393
 7779SOL    HW135396   1.355   9.483   1.730  0.1559 -0.5895  0.1079
 7779SOL    HW235397   1.356   9.341   1.812  2.4188 -0.8947 -0.4191
 7780SOL     OW35398   3.316   6.162   7.292 -0.3787  0.1173 -0.1580
 7780SOL    HW135399   3.384   6.232   7.271 -1.0709  0.9897  0.4213
 7780SOL    HW235400   3.355   6.094   7.354  0.3282 -0.0608 -0.7979
 7781SOL     OW35401   8.249   7.053   0.402  0.0898  0.2373 -0.5829
 7781SOL    HW135402   8.150   7.048   0.385  0.4665 -1.1148 -2.4793
 7781SOL    HW235403   8.270   7.008   0.489 -0.8431 -0.3112 -0.6353
 7782SOL     OW35404   7.640   1.150   3.967  0.6565  0.1383  0.1965
 7782SOL    HW135405   7.656   1.243   4.000  1.7870  0.4267 -1.1415
 7782SOL    HW235406   7.701   1.131   3.890 -1.1203 -0.9344 -0.9764
 7783SOL     OW35407   6.268   2.410   0.162  0.2839 -0.0948 -0.8586
 7783SOL    HW135408   6.261   2.332   0.225 -0.8899  0.7408  0.0547
 7783SOL    HW235409   6.346   2.467   0.188 -0.9251  0.9308  0.6486
 7784SOL     OW35410   4.459   9.522   3.761 -0.0097  0.6012  0.3519
 7784SOL    HW135411   4.544   9.574   3.764  0.0040  0.6679 -0.8468
 7784SOL    HW235412   4.395   9.566   3.697 -0.6635  0.1385  0.6773
 7785SOL     OW35413   1.148   8.069   5.607 -0.3772 -0.1024  0.1234
 7785SOL    HW135414   1.163   8.168   5.596  1.2633 -0.4230 -0.7961
 7785SOL    HW235415   1.220   8.031   5.665 -0.1601 -0.9826 -0.7008
 7786SOL     OW35416   7.192   7.600   5.244  0.1052  1.1822  0.3778
 7786SOL    HW135417   7.149   7.567   5.328  0.6896 -0.3598  0.0860
 7786SOL    HW235418   7.265   7.664   5.268  1.9791 -1.1763  1.2227
 7787SOL     OW35419   0.196   3.260   0.222  0.0582 -0.7872 -0.1129
 7787SOL    HW135420   0.123   3.309   0.175 -0.1199  0.1745  1.1619
 7787SOL    HW235421   0.281   3.269   0.170 -0.2301 -0.0623 -0.4627
 7788SOL     OW35422   4.687   8.966   6.021 -0.1963 -0.2671  0.4338
 7788SOL    HW135423   4.650   8.978   6.113  0.6405 -1.2676  0.9186
 7788SOL    HW235424   4.689   8.869   5.998 -0.8542  0.0101 -0.8367
 7789SOL     OW35425   4.259   9.218   8.195 -0.0512 -0.1319 -0.3284
 7789SOL    HW135426   4.203   9.293   8.230 -0.5948 -1.2483  1.2851
 7789SOL    HW235427   4.354   9.231   8.225 -0.4662 -0.9452  1.3668
 7790SOL     OW35428   8.000   5.643   6.785  0.0045 -0.3478 -0.2817
 7790SOL    HW135429   7.970   5.649   6.880  2.3372  0.8840  0.4223
 7790SOL    HW235430   7.924   5.667   6.724 -1.5740 -1.3816  1.2431
 7791SOL     OW35431   4.053   8.596   9.774  0.5303 -0.1128 -0.0197
 7791SOL    HW135432   4.097   8.647   9.700  1.9198 -1.1585  0.0525
 7791SOL    HW235433   4.122   8.571   9.842  0.3250 -3.8484 -1.0594
 7792SOL     OW35434   5.032   9.541   5.956  0.2654  0.3815  0.2678
 7792SOL    HW135435   5.044   9.544   5.857  0.4409 -0.3750  0.2658
 7792SOL    HW235436   5.041   9.634   5.993  1.4322  0.5021 -0.2804
 7793SOL     OW35437   6.184   1.569   4.822 -0.8276 -0.4491  0.4349
 7793SOL    HW135438   6.123   1.648   4.818 -0.0099  0.2953  2.2138
 7793SOL    HW235439   6.279   1.599   4.809 -0.5871 -1.2613  0.2388
 7794SOL     OW35440   0.386   9.389   8.106 -0.0753 -0.0617 -0.2768
 7794SOL    HW135441   0.397   9.397   8.007 -1.6001  0.3073 -0.4349
 7794SOL    HW235442   0.311   9.449   8.136 -0.1066 -0.7195  0.9911
 7795SOL     OW35443   2.488   3.678   1.275  0.2996  0.3734  0.0117
 7795SOL    HW135444   2.586   3.674   1.255  0.3721  0.8136  0.2907
 7795SOL    HW235445   2.440   3.724   1.200  0.0980 -1.2021 -0.8666
 7796SOL     OW35446   1.942   6.944   6.027 -0.3738 -0.2589 -0.4271
 7796SOL    HW135447   1.858   6.914   6.072  0.1545  0.3125  0.9626
 7796SOL    HW235448   2.005   6.981   6.095  0.6502  0.1411 -1.5741
 7797SOL     OW35449   2.174   8.658   8.685 -0.4636 -0.1426  0.3004
 7797SOL    HW135450   2.092   8.643   8.630  0.6940 -1.7260 -1.0349
 7797SOL    HW235451   2.148   8.688   8.777 -2.5397 -0.6668 -0.1044
 7798SOL     OW35452   3.986   7.542   3.918 -0.5503 -0.3258  0.0497
 7798SOL    HW135453   3.921   7.563   3.845 -1.6533  1.3254  1.4963
 7798SOL    HW235454   4.060   7.609   3.917  0.2273 -1.1659 -0.4552
 7799SOL     OW35455   4.277   7.016   0.802 -0.2940 -0.0251  0.2183
 7799SOL    HW135456   4.217   7.029   0.881 -1.1826  3.5898 -0.9468
 7799SOL    HW235457   4.234   6.954   0.737 -0.9043 -0.6763  1.2394
 7800SOL     OW35458   8.757   7.067   4.836  0.2036 -0.4191  0.7116
 7800SOL    HW135459   8.687   7.005   4.873 -0.0692 -0.2597  0.4575
 7800SOL    HW235460   8.847   7.036   4.867  0.0610 -0.8820  0.6802
 7801SOL     OW35461   4.230   0.122   0.624 -0.0478 -0.3157  0.1829
 7801SOL    HW135462   4.217   0.150   0.719 -2.0863  1.9460 -0.6969
 7801SOL    HW235463   4.146   0.078   0.591  1.3211 -2.8782 -0.0257
 7802SOL     OW35464   1.406   2.858   0.264 -0.1874  0.5539  0.6016
 7802SOL    HW135465   1.491   2.811   0.240 -0.4962  0.2854  0.0185
 7802SOL    HW235466   1.425   2.932   0.328  0.7563  1.7767 -1.0679
 7803SOL     OW35467   5.191   1.941   5.581  0.1548  0.0236 -0.2083
 7803SOL    HW135468   5.120   2.006   5.554  0.8740  1.0896  0.4170
 7803SOL    HW235469   5.161   1.848   5.561 -1.0740  0.5203 -0.7026
 7804SOL     OW35470   4.348   9.751   7.107  0.1726  0.6838 -0.1779
 7804SOL    HW135471   4.249   9.737   7.106  0.0032  1.7682  0.6472
 7804SOL    HW235472   4.368   9.849   7.105  1.1985  0.5038  1.1045
 7805SOL     OW35473   7.324   0.028   6.003  0.0887 -0.3441  0.2773
 7805SOL    HW135474   7.325  -0.004   6.098  1.3587 -0.5241  0.2162
 7805SOL    HW235475   7.347  -0.048   5.942 -2.8064 -0.7464 -0.3606
 7806SOL     OW35476   3.116   3.824   1.254  0.6575 -0.0187  0.0329
 7806SOL    HW135477   3.153   3.773   1.176  0.4600  0.3245 -0.2875
 7806SOL    HW235478   3.039   3.774   1.293  0.1893  0.2495 -0.5509
 7807SOL     OW35479   0.203   7.878   7.192 -0.0816 -0.2911 -1.0703
 7807SOL    HW135480   0.283   7.914   7.144  0.9454 -0.1918  0.6375
 7807SOL    HW235481   0.155   7.953   7.237  0.3573 -0.6680  0.0402
 7808SOL     OW35482   9.390   8.976   6.053  0.6254  0.3486 -0.2796
 7808SOL    HW135483   9.352   8.916   6.123  0.3839 -0.3787 -1.0161
 7808SOL    HW235484   9.489   8.976   6.058  0.6190  0.0000 -0.1767
 7809SOL     OW35485   4.164   7.202   6.612  0.4881 -0.1011 -0.6390
 7809SOL    HW135486   4.167   7.290   6.565 -0.3935 -0.1042 -0.7038
 7809SOL    HW235487   4.150   7.128   6.546  1.0364 -0.2714 -0.5643
 7810SOL     OW35488   2.533   9.481   1.070 -0.3378  0.3284 -0.0260
 7810SOL    HW135489   2.583   9.415   1.126  1.9852  0.3859 -1.9495
 7810SOL    HW235490   2.461   9.434   1.020 -0.7882 -0.1734  1.0876
 7811SOL     OW35491   7.116   9.434   5.085 -0.0473  0.0698  0.1049
 7811SOL    HW135492   7.174   9.513   5.102 -1.0251  0.4719  1.6003
 7811SOL    HW235493   7.103   9.383   5.169 -0.6887 -0.8323 -0.5311
 7812SOL     OW35494   7.739   8.898   9.221 -0.4646  0.7715 -0.9693
 7812SOL    HW135495   7.677   8.924   9.295 -0.0755 -1.1346  0.0513
 7812SOL    HW235496   7.686   8.859   9.145 -0.6197  0.2653 -0.6017
 7813SOL     OW35497   1.021   1.034   6.879 -0.2595 -0.1967 -0.1938
 7813SOL    HW135498   0.982   1.059   6.790  1.0911  0.5208 -0.5910
 7813SOL    HW235499   1.021   0.935   6.888 -0.3905 -0.2799 -1.0023
 7814SOL     OW35500   0.375   5.160   9.185  0.0804  0.3385  0.4691
 7814SOL    HW135501   0.458   5.149   9.239  0.3302  1.0415  0.2409
 7814SOL    HW235502   0.329   5.072   9.175 -0.4895  0.3563  2.6607
 7815SOL     OW35503   2.100   6.296   2.711  0.3558 -0.7152 -0.5664
 7815SOL    HW135504   2.057   6.267   2.625  1.3644  0.4072 -1.4738
 7815SOL    HW235505   2.032   6.342   2.768 -0.6254 -2.5853 -0.2085
 7816SOL     OW35506   2.422   5.856   0.968  0.4366  0.3279  0.1104
 7816SOL    HW135507   2.436   5.757   0.968  0.5822  0.3255 -1.5305
 7816SOL    HW235508   2.335   5.877   1.012 -0.1020 -0.6164 -0.4750
 7817SOL     OW35509   5.440   5.043   2.567 -0.1085 -0.2253  0.0070
 7817SOL    HW135510   5.402   4.963   2.520 -0.8344  0.5000 -0.6590
 7817SOL    HW235511   5.488   5.013   2.650 -0.1922 -1.3668 -0.3439
 7818SOL     OW35512   3.365   6.386   0.164 -0.3150 -0.1326 -0.4616
 7818SOL    HW135513   3.416   6.300   0.159  0.7770  0.4698  0.0591
 7818SOL    HW235514   3.405   6.451   0.099 -2.1393 -0.5232 -2.0106
 7819SOL     OW35515   0.931   5.604   7.818 -0.1381  0.2006  0.5212
 7819SOL    HW135516   0.871   5.572   7.891 -1.1634  0.3122 -0.2484
 7819SOL    HW235517   1.002   5.536   7.801 -0.9837 -0.6683  0.3869
 7820SOL     OW35518   8.012   9.768   0.097  0.3259  0.0074  0.5227
 7820SOL    HW135519   7.966   9.811   0.174 -1.8100 -2.8814  0.9345
 7820SOL    HW235520   7.947   9.756   0.022  1.5533 -0.1262 -0.5340
 7821SOL     OW35521   7.535   4.777   5.878  0.0962 -0.0585 -0.1201
 7821SOL    HW135522   7.552   4.813   5.787  1.1658 -1.4316 -0.4769
 7821SOL    HW235523   7.578   4.837   5.946  0.4546  0.2259 -0.5962
 7822SOL     OW35524   1.108   8.474   5.135  0.1222 -0.8747 -0.0309
 7822SOL    HW135525   1.009   8.466   5.126  0.2788 -3.6355  0.4044
 7822SOL    HW235526   1.131   8.503   5.228 -0.2820  0.5185 -0.3502
 7823SOL     OW35527   3.153   7.767   5.026 -0.5207 -1.1903 -0.0709
 7823SOL    HW135528   3.167   7.861   5.054  1.0315 -0.1499 -4.0066
 7823SOL    HW235529   3.056   7.743   5.038 -1.3700  1.6114 -0.9871
 7824SOL     OW35530   7.061   6.839   4.550 -0.1003 -0.0679 -0.2753
 7824SOL    HW135531   7.101   6.786   4.476 -1.0739  0.8776 -1.5092
 7824SOL    HW235532   6.974   6.878   4.519 -1.4674 -1.2255  1.9900
 7825SOL     OW35533   2.996   4.039   2.775 -1.0976  0.5199  0.0988
 7825SOL    HW135534   3.067   4.098   2.815 -0.4993 -0.4833  0.5355
 7825SOL    HW235535   2.969   4.076   2.686  3.5707 -1.7423 -2.4501
 7826SOL     OW35536   2.478   6.021   3.782  0.3670 -0.3182 -0.2987
 7826SOL    HW135537   2.553   6.003   3.845  0.7588  0.8438 -0.4245
 7826SOL    HW235538   2.510   6.078   3.707 -1.1727  2.2630  0.9253
 7827SOL     OW35539   1.374   9.847   8.657 -0.3665 -0.1836 -0.3780
 7827SOL    HW135540   1.422   9.930   8.685 -1.1431  0.5347 -1.1395
 7827SOL    HW235541   1.308   9.822   8.727  0.4438 -0.6417  0.2358
 7828SOL     OW35542   9.300   6.113   0.039 -0.3416  0.3235  0.0850
 7828SOL    HW135543   9.391   6.099   0.077 -0.2344 -0.5619 -0.4835
 7828SOL    HW235544   9.304   6.183  -0.033 -0.2093  0.6518  0.4106
 7829SOL     OW35545   8.924   2.043   6.134 -0.3266 -0.0086 -0.3546
 7829SOL    HW135546   8.847   1.979   6.132 -0.6717  0.3828  0.4464
 7829SOL    HW235547   8.890   2.135   6.150  0.2190  0.3222 -1.0551
 7830SOL     OW35548   2.065   7.578   8.808  0.4343  0.0598  0.2266
 7830SOL    HW135549   2.123   7.645   8.761 -1.0066  2.2244  1.4153
 7830SOL    HW235550   1.987   7.554   8.749  1.4748 -1.3501 -0.5941
 7831SOL     OW35551   7.544   1.722   9.824  0.2455 -0.0750  0.0761
 7831SOL    HW135552   7.617   1.654   9.825  2.6356  2.3742 -1.8199
 7831SOL    HW235553   7.554   1.784   9.902 -1.6651 -1.5195  1.5425
 7832SOL     OW35554   1.052   4.484   9.139  0.2004 -0.0695  0.5135
 7832SOL    HW135555   1.099   4.569   9.115  0.8913 -0.6390 -0.1873
 7832SOL    HW235556   1.117   4.420   9.179  0.4308 -1.5002 -2.0217
 7833SOL     OW35557   8.579   6.932   6.768 -0.0314 -0.8614  0.1125
 7833SOL    HW135558   8.678   6.941   6.755 -0.1723 -1.4589 -1.5164
 7833SOL    HW235559   8.548   6.847   6.725 -1.8101  1.1582 -2.7410
 7834SOL     OW35560   2.916   5.079   0.628 -0.2628  0.1617  0.1581
 7834SOL    HW135561   2.860   4.998   0.641  0.4093  0.0084  2.2637
 7834SOL    HW235562   2.857   5.159   0.612 -1.0617 -0.1251  1.5976
 7835SOL     OW35563   0.749   5.718   2.962 -0.0293  0.3559 -0.2569
 7835SOL    HW135564   0.668   5.775   2.973 -1.6066 -1.7309 -0.7554
 7835SOL    HW235565   0.787   5.730   2.870 -0.5772  0.3454 -0.4868
 7836SOL     OW35566   8.163   8.286   9.789 -0.1149 -0.3326 -0.3670
 7836SOL    HW135567   8.259   8.273   9.811 -0.0931  0.5733  0.1341
 7836SOL    HW235568   8.152   8.371   9.738 -0.8464  0.5011  1.1378
 7837SOL     OW35569   1.557   2.312   2.862  0.5863  0.4149  0.4935
 7837SOL    HW135570   1.491   2.387   2.871  0.3197  0.3886 -1.0443
 7837SOL    HW235571   1.647   2.343   2.892  0.0089  0.6303  2.0555
 7838SOL     OW35572   2.527   0.026   7.313  0.0161  0.5955  0.0398
 7838SOL    HW135573   2.520   0.125   7.329  0.1924  0.4682  0.8996
 7838SOL    HW235574   2.439  -0.017   7.330  0.3753  0.3655  1.3561
 7839SOL     OW35575   2.940   6.247   4.688  0.8353 -0.1864  0.0761
 7839SOL    HW135576   3.039   6.235   4.697  0.9635 -0.1729 -1.2301
 7839SOL    HW235577   2.905   6.185   4.618 -0.2884 -1.0922  1.4181
 7840SOL     OW35578   2.778   4.634   9.063  0.1556 -0.7223  0.1112
 7840SOL    HW135579   2.816   4.671   9.148  1.9205 -0.1273 -0.9207
 7840SOL    HW235580   2.751   4.709   9.003 -0.1468 -1.1373 -0.2757
 7841SOL     OW35581   9.742   6.395   0.437 -0.3699 -0.4432  0.4740
 7841SOL    HW135582   9.750   6.372   0.534 -0.8414  1.1819  0.9142
 7841SOL    HW235583   9.738   6.494   0.427 -1.2082 -0.6299 -1.1491
 7842SOL     OW35584   3.298   2.055   1.804 -0.1338 -0.5201  0.6800
 7842SOL    HW135585   3.223   1.988   1.808  0.4046 -1.3576 -2.2665
 7842SOL    HW235586   3.385   2.006   1.798  0.1958  0.3792 -2.8299
 7843SOL     OW35587   2.889   5.352   2.012  0.4827 -0.9173 -0.5107
 7843SOL    HW135588   2.804   5.404   2.019  0.3080 -1.2815  0.0489
 7843SOL    HW235589   2.931   5.369   1.923  1.1082  1.2584  0.1544
 7844SOL     OW35590   0.168   8.890   4.628  0.2134 -0.3946  0.0807
 7844SOL    HW135591   0.155   8.892   4.727 -0.3195 -0.2080  0.0096
 7844SOL    HW235592   0.179   8.984   4.594  0.0119 -0.4290 -0.0821
 7845SOL     OW35593   3.791   8.564   0.526 -0.7644  0.4477 -0.8006
 7845SOL    HW135594   3.745   8.600   0.607  0.1725 -0.4982  0.1596
 7845SOL    HW235595   3.857   8.632   0.493  1.6272 -0.6744  1.5201
 7846SOL     OW35596   0.260   0.983   9.495 -0.0749 -0.1092 -0.1454
 7846SOL    HW135597   0.317   0.937   9.427  1.5940  1.1733  0.3526
 7846SOL    HW235598   0.269   0.939   9.584 -0.3989 -0.3235 -0.2178
 7847SOL     OW35599   3.251   7.046   2.612  0.2917  0.0391 -0.5519
 7847SOL    HW135600   3.288   7.128   2.569 -0.4368  0.6363 -0.0585
 7847SOL    HW235601   3.152   7.043   2.599  0.5242 -1.7604 -2.2465
 7848SOL     OW35602   8.151   9.705   9.665  0.1823  0.3428  0.3174
 7848SOL    HW135603   8.204   9.676   9.586 -1.6119  0.6274 -1.0339
 7848SOL    HW235604   8.149   9.632   9.733 -0.8616 -1.1432 -1.2674
 7849SOL     OW35605   9.793   5.465   2.489  0.3721 -0.7736  0.2018
 7849SOL    HW135606   9.891   5.460   2.472  0.1456 -3.6006 -0.4698
 7849SOL    HW235607   9.775   5.452   2.587  0.7210  0.9697  0.5130
 7850SOL     OW35608   1.309   9.828   2.780 -0.1780 -0.5261 -0.2155
 7850SOL    HW135609   1.265   9.899   2.724  0.9552  0.1610 -0.2493
 7850SOL    HW235610   1.241   9.759   2.805 -1.4567  0.8741  0.3061
 7851SOL     OW35611   9.420   9.104   6.350 -0.1526  0.3882  0.1816
 7851SOL    HW135612   9.445   9.064   6.261  0.5932 -0.0005  0.5551
 7851SOL    HW235613   9.327   9.139   6.346  0.1845  1.2157 -1.0488
 7852SOL     OW35614   6.081   5.966   1.132 -0.3125 -0.1254  0.4922
 7852SOL    HW135615   6.176   5.946   1.157 -0.3591  1.4992  2.1392
 7852SOL    HW235616   6.076   6.058   1.093 -0.9814 -0.8295 -1.0956
 7853SOL     OW35617   0.451   8.995   9.963 -0.0267 -0.3316 -0.6179
 7853SOL    HW135618   0.426   8.924   9.897 -0.0681 -0.5937 -0.3233
 7853SOL    HW235619   0.371   9.049   9.987 -0.2506 -0.9682  0.0857
 7854SOL     OW35620   1.415   3.714   4.754  0.2206  0.2907  0.0114
 7854SOL    HW135621   1.484   3.650   4.787 -0.9316 -0.3509  1.2605
 7854SOL    HW235622   1.418   3.797   4.810 -1.7489 -0.8039  1.7981
 7855SOL     OW35623   7.114   7.917   3.063 -0.3848  0.0390  0.2525
 7855SOL    HW135624   7.022   7.879   3.058 -0.1257 -0.6340  0.5399
 7855SOL    HW235625   7.159   7.908   2.975 -0.3181 -0.3445  0.3235
 7856SOL     OW35626   1.535   8.866   8.209 -0.6156  0.5996 -0.2427
 7856SOL    HW135627   1.621   8.917   8.219 -0.1540  0.1937 -1.9589
 7856SOL    HW235628   1.520   8.846   8.112 -1.2026 -1.8367  0.3322
 7857SOL     OW35629   8.213   2.312   7.031  0.2554  0.3740 -0.2743
 7857SOL    HW135630   8.312   2.297   7.027 -0.0703 -2.1198  0.2246
 7857SOL    HW235631   8.187   2.384   6.966  2.4758  1.5602  0.1157
 7858SOL     OW35632   8.230   8.423   8.696 -0.6706 -0.1653 -0.3544
 7858SOL    HW135633   8.249   8.520   8.676  2.0228 -0.7089 -0.6786
 7858SOL    HW235634   8.247   8.406   8.793 -1.4875 -0.2470 -0.2249
 7859SOL     OW35635   1.833   5.207   0.828  0.8503  0.4617 -0.4064
 7859SOL    HW135636   1.744   5.163   0.828  2.1019 -2.1746  0.1051
 7859SOL    HW235637   1.835   5.279   0.759 -0.8833 -1.0737 -2.0992
 7860SOL     OW35638   0.099   9.948   1.934  0.1465  0.1804  0.1015
 7860SOL    HW135639   0.016   9.900   1.961  1.1254 -1.5464  0.1316
 7860SOL    HW235640   0.093   9.973   1.837  0.1625 -1.2229 -0.2788
 7861SOL     OW35641   7.317   2.283   1.882 -0.2839 -0.7623  0.3610
 7861SOL    HW135642   7.391   2.243   1.935  0.2321 -0.7458 -0.3445
 7861SOL    HW235643   7.245   2.314   1.944  0.3032 -0.7614  1.0488
 7862SOL     OW35644   0.496   0.034   2.528  0.3887  0.0847 -0.0077
 7862SOL    HW135645   0.435   0.100   2.485  0.3003 -0.7112 -1.1089
 7862SOL    HW235646   0.579   0.081   2.560  0.5181  0.6639 -1.1712
 7863SOL     OW35647   4.167   7.757   4.605 -0.0490  0.0733  0.4275
 7863SOL    HW135648   4.239   7.823   4.585  0.9458 -0.8277  1.0216
 7863SOL    HW235649   4.143   7.707   4.522 -0.0056  0.3697  0.2334
 7864SOL     OW35650   3.099   1.871   3.927 -0.3801  0.2203  0.0400
 7864SOL    HW135651   3.090   1.791   3.868  1.8811 -0.4127  0.5041
 7864SOL    HW235652   3.066   1.848   4.019  1.0661 -0.4727  0.4011
 7865SOL     OW35653   9.445   2.925   0.015  1.1102 -0.0295  0.3332
 7865SOL    HW135654   9.375   2.944   0.084  0.7015 -2.8715  0.7680
 7865SOL    HW235655   9.512   3.000   0.015 -1.0196  1.9533  1.0197
 7866SOL     OW35656   4.105   7.120   9.501 -0.1135  0.3243  0.6475
 7866SOL    HW135657   4.100   7.052   9.428 -2.6018  0.1946  0.8812
 7866SOL    HW235658   4.116   7.211   9.461  1.7959 -0.0479  0.2776
 7867SOL     OW35659   4.173   8.917   2.468  0.0401  0.3057 -0.3218
 7867SOL    HW135660   4.199   8.900   2.563  0.3357 -0.0050 -0.4574
 7867SOL    HW235661   4.075   8.900   2.457  0.2137 -0.7577 -0.3195
 7868SOL     OW35662   8.443   8.205   0.610  0.5711 -0.4002  0.0816
 7868SOL    HW135663   8.491   8.247   0.533  2.2659  1.5457  2.1115
 7868SOL    HW235664   8.350   8.181   0.582  1.1433  0.2373 -2.5566
 7869SOL     OW35665   9.296   0.748   9.164 -0.4243  0.3341 -0.2615
 7869SOL    HW135666   9.284   0.820   9.096 -0.9066  0.8154  0.3314
 7869SOL    HW235667   9.328   0.789   9.250  1.0876 -0.3748 -0.4653
 7870SOL     OW35668   7.971   5.697   4.056  0.1637  0.1685  0.3544
 7870SOL    HW135669   7.889   5.657   4.014 -0.2322  1.3287  0.0054
 7870SOL    HW235670   7.947   5.786   4.096  0.7489 -0.4849  2.1891
 7871SOL     OW35671   5.198   9.205   2.303 -0.2669  0.9931  0.0859
 7871SOL    HW135672   5.216   9.297   2.268 -0.0733  0.9234 -0.0029
 7871SOL    HW235673   5.285   9.159   2.322 -0.2519 -0.1109 -2.3586
 7872SOL     OW35674   7.382   8.372   8.724 -0.4898 -0.1666 -0.1105
 7872SOL    HW135675   7.286   8.391   8.704 -0.7630 -0.8762  0.5200
 7872SOL    HW235676   7.438   8.450   8.694 -1.0561 -0.4649 -2.0585
 7873SOL     OW35677   6.096   1.721   9.202 -0.3004  0.0306  0.4041
 7873SOL    HW135678   6.147   1.802   9.227 -0.1351  0.1773 -0.4153
 7873SOL    HW235679   6.086   1.716   9.103  0.6261 -1.5115  0.3651
 7874SOL     OW35680   9.682   2.994   5.940  0.7198  0.2228  0.5951
 7874SOL    HW135681   9.616   2.991   6.014 -0.0339 -0.6446 -0.0900
 7874SOL    HW235682   9.655   2.928   5.869  1.6203  0.7740 -0.2731
 7875SOL     OW35683   5.627   4.479   1.887  0.3951 -0.3089  0.4170
 7875SOL    HW135684   5.670   4.451   1.972 -1.0379  2.0849  2.0086
 7875SOL    HW235685   5.645   4.577   1.872 -1.6445 -0.0558 -0.5697
 7876SOL     OW35686   1.288   5.686   7.264 -0.3235 -0.1846 -0.2373
 7876SOL    HW135687   1.293   5.730   7.175 -0.6930 -0.2300 -0.2821
 7876SOL    HW235688   1.289   5.755   7.336  0.7480 -0.1804 -0.2422
 7877SOL     OW35689   0.291   8.942   3.837 -0.9090  0.5743 -0.5121
 7877SOL    HW135690   0.335   8.959   3.925 -1.6326  0.9900 -0.2249
 7877SOL    HW235691   0.255   8.849   3.835  0.7692 -0.0786 -1.0950
 7878SOL     OW35692   7.195   4.813   7.546  0.4141  0.9528 -0.3987
 7878SOL    HW135693   7.278   4.767   7.578  0.7895  1.7332 -0.2353
 7878SOL    HW235694   7.125   4.809   7.617  0.3760  0.4484 -0.4670
 7879SOL     OW35695   8.383   1.941   8.138  0.3017  0.6080 -0.2470
 7879SOL    HW135696   8.481   1.924   8.123  0.3813 -0.6831  1.6801
 7879SOL    HW235697   8.366   2.039   8.130  1.7306  0.8432 -0.6809
 7880SOL     OW35698   4.708   4.102   8.503  0.6016  0.1849 -0.1368
 7880SOL    HW135699   4.651   4.115   8.584  0.3766 -1.7254  0.0399
 7880SOL    HW235700   4.669   4.153   8.426 -0.4127  0.2438  0.4100
 7881SOL     OW35701   9.610   6.464   2.509  0.3913  0.0523 -0.5372
 7881SOL    HW135702   9.533   6.433   2.565  0.4053  1.1672  0.1197
 7881SOL    HW235703   9.586   6.457   2.412 -1.5448  2.8371 -0.3144
 7882SOL     OW35704   2.563   5.320   2.740  0.5563 -0.0246 -0.2864
 7882SOL    HW135705   2.498   5.269   2.796 -0.0859 -1.8425 -2.5666
 7882SOL    HW235706   2.521   5.341   2.652  1.0738  3.9466  0.3523
 7883SOL     OW35707   4.369   2.047   8.436 -0.3482 -0.0417 -0.0886
 7883SOL    HW135708   4.314   2.016   8.513 -1.0477 -0.0615 -0.5893
 7883SOL    HW235709   4.338   2.001   8.352  0.5169 -0.1614 -0.3590
 7884SOL     OW35710   9.519   9.420   9.048 -0.3314 -0.4971  0.0337
 7884SOL    HW135711   9.600   9.479   9.045 -1.2695  0.7519 -1.7203
 7884SOL    HW235712   9.500   9.395   9.143  1.3438  0.2694  0.5940
 7885SOL     OW35713   9.305   9.733   2.975 -0.5585 -0.3941  0.0043
 7885SOL    HW135714   9.278   9.770   2.886 -1.5961 -1.0727  0.0182
 7885SOL    HW235715   9.323   9.635   2.966  1.9598  0.0484  0.0090
 7886SOL     OW35716   3.518   6.683   0.002 -0.2140 -0.1154  0.7241
 7886SOL    HW135717   3.608   6.721  -0.021 -0.7296 -0.2689 -1.7331
 7886SOL    HW235718   3.507   6.679   0.101  2.2246  0.5246  1.0402
 7887SOL     OW35719   9.527   9.602   3.299  0.0684 -0.1199 -0.1177
 7887SOL    HW135720   9.445   9.554   3.269  1.2497 -2.4913  0.3146
 7887SOL    HW235721   9.606   9.540   3.293  1.3005  1.1442  2.2930
 7888SOL     OW35722   1.959   0.864   7.063 -0.2416 -0.0944  0.5744
 7888SOL    HW135723   2.056   0.891   7.067 -0.1572 -0.6047  1.9416
 7888SOL    HW235724   1.952   0.771   7.027 -0.2467  0.0164  0.2835
 7889SOL     OW35725   2.937   4.719   4.581  0.4122  0.0021  0.4298
 7889SOL    HW135726   2.943   4.625   4.549 -2.2007  0.4472 -1.5022
 7889SOL    HW235727   3.015   4.771   4.546  1.0502 -1.0652  0.2423
 7890SOL     OW35728   3.972   9.468   3.092  0.2054 -0.6295  0.3467
 7890SOL    HW135729   3.927   9.463   3.003 -1.4917  0.0281  1.1518
 7890SOL    HW235730   3.906   9.446   3.164  1.0526  0.8062  1.5796
 7891SOL     OW35731   8.675   7.194   6.183 -0.1838  0.0617  0.1398
 7891SOL    HW135732   8.717   7.278   6.149  1.1681 -0.0234  1.5743
 7891SOL    HW235733   8.708   7.175   6.275  0.3041 -2.6002 -0.5491
 7892SOL     OW35734   8.506   7.141   9.401  0.1948  0.1407 -0.0815
 7892SOL    HW135735   8.431   7.151   9.465  0.5768  1.0522  0.2210
 7892SOL    HW235736   8.591   7.171   9.444  0.6272 -0.2822 -0.6362
 7893SOL     OW35737   0.456   1.901   5.590 -0.5441 -0.6182  0.3626
 7893SOL    HW135738   0.497   1.912   5.499 -0.8777  0.6253  0.3564
 7893SOL    HW235739   0.497   1.965   5.654 -1.8531  0.0499  0.5577
 7894SOL     OW35740   5.292   0.883   9.784  0.4233  0.2213 -0.2692
 7894SOL    HW135741   5.294   0.908   9.687  3.9149  1.0958 -0.0238
 7894SOL    HW235742   5.271   0.785   9.793  0.8047 -0.0242 -1.9449
 7895SOL     OW35743   9.897   2.245   0.848 -0.0756  0.7967  0.2413
 7895SOL    HW135744   9.968   2.223   0.915 -0.6410  0.3996  0.7191
 7895SOL    HW235745   9.904   2.341   0.822  0.6463  0.7578  0.2702
 7896SOL     OW35746   9.968   2.908   9.185 -0.1013  0.1373  0.5665
 7896SOL    HW135747  10.013   2.882   9.271  1.1951 -0.1787 -0.2050
 7896SOL    HW235748  10.024   2.975   9.137 -1.8523  1.9343  0.9713
 7897SOL     OW35749   3.682   3.376   8.605 -0.6478  0.0353  1.0272
 7897SOL    HW135750   3.745   3.372   8.682  1.1538 -0.7517 -0.4369
 7897SOL    HW235751   3.631   3.462   8.608  3.6935  2.8511 -0.0788
 7898SOL     OW35752   4.087   4.900   8.727  0.2544 -0.0700 -0.9642
 7898SOL    HW135753   4.083   4.865   8.821  1.6620 -0.0127 -0.8641
 7898SOL    HW235754   4.153   4.846   8.674  0.7100  0.9384 -1.4551
 7899SOL     OW35755   3.984   5.619   7.153  0.0881 -0.1573  0.3111
 7899SOL    HW135756   4.003   5.627   7.250 -1.0500 -0.8838  0.5955
 7899SOL    HW235757   3.885   5.616   7.138  0.1968  1.6878 -0.9976
 7900SOL     OW35758   4.795   5.938   2.346  0.4462 -0.0382  0.5665
 7900SOL    HW135759   4.867   5.999   2.379  0.4033  1.2325 -1.5870
 7900SOL    HW235760   4.833   5.846   2.331  1.1974  0.1881  1.0926
 7901SOL     OW35761   8.127   5.106   4.562 -0.2834 -0.1288 -0.2390
 7901SOL    HW135762   8.138   5.082   4.658 -1.8602  1.5032  0.3921
 7901SOL    HW235763   8.201   5.166   4.533 -0.3383  0.1616  0.2272
 7902SOL     OW35764   2.826   7.311   6.056 -0.3329  0.2027 -0.7646
 7902SOL    HW135765   2.924   7.329   6.050 -0.1399 -0.0525  1.2082
 7902SOL    HW235766   2.778   7.397   6.074 -0.2010 -0.0033  0.6935
 7903SOL     OW35767   9.294   9.197   2.668  0.3091  0.5349 -0.4415
 7903SOL    HW135768   9.280   9.275   2.608 -0.6200 -0.0479 -0.9863
 7903SOL    HW235769   9.325   9.118   2.614 -0.1102  0.1329 -0.0929
 7904SOL     OW35770   0.508   3.826   2.894  0.9451  0.1610  0.0161
 7904SOL    HW135771   0.492   3.911   2.944  2.2881  0.8202 -0.6397
 7904SOL    HW235772   0.606   3.815   2.878  0.6972 -1.0066 -0.7934
 7905SOL     OW35773   2.275   8.527   3.173  0.0408 -0.4752 -0.4981
 7905SOL    HW135774   2.297   8.528   3.271 -0.0631 -1.4021 -0.4608
 7905SOL    HW235775   2.225   8.610   3.149  0.0709 -0.2450  0.2337
 7906SOL     OW35776   1.242   5.060   5.688  0.3971  0.2006  0.3183
 7906SOL    HW135777   1.326   5.108   5.661 -0.2031 -0.5103 -3.1356
 7906SOL    HW235778   1.178   5.124   5.730  1.9900  1.1086  1.4002
 7907SOL     OW35779   2.697   1.030   6.188 -0.4047 -0.3223  0.0092
 7907SOL    HW135780   2.646   1.038   6.273  0.8661 -1.2760  0.8711
 7907SOL    HW235781   2.758   1.110   6.178  0.9585 -1.2225  1.0205
 7908SOL     OW35782   4.202   5.779   8.905  0.2777 -0.2623 -0.4345
 7908SOL    HW135783   4.276   5.713   8.917  1.5482  1.3742  1.1603
 7908SOL    HW235784   4.143   5.778   8.986  0.5709  0.8309 -0.1928
 7909SOL     OW35785   4.094   7.529   7.696  0.1636  0.2125 -0.2169
 7909SOL    HW135786   4.122   7.490   7.608 -3.0759 -0.9293 -0.8034
 7909SOL    HW235787   3.999   7.560   7.690  0.1625  0.8941  2.6414
 7910SOL     OW35788   9.832   7.514   3.815  0.2007  0.0404  0.1270
 7910SOL    HW135789   9.901   7.550   3.878  1.2244 -2.7810  0.6497
 7910SOL    HW235790   9.746   7.563   3.829  1.6597  2.5978  0.4692
 7911SOL     OW35791   2.155   2.698   5.302  0.4425 -0.2351 -0.0268
 7911SOL    HW135792   2.084   2.638   5.266  0.9784 -0.1779 -1.2030
 7911SOL    HW235793   2.236   2.643   5.324  0.8182  0.0019 -0.7948
 7912SOL     OW35794   9.766   4.672   1.550 -0.0910 -0.0089  1.3042
 7912SOL    HW135795   9.721   4.584   1.564  0.2381 -0.4314 -0.1994
 7912SOL    HW235796   9.805   4.676   1.457  0.9331  1.2534  1.7672
 7913SOL     OW35797   9.731   2.304   4.620 -0.2764  0.0260  0.5252
 7913SOL    HW135798   9.640   2.342   4.604 -0.8242 -0.0770  3.2565
 7913SOL    HW235799   9.736   2.212   4.582 -1.3499 -0.0093  0.4684
 7914SOL     OW35800   8.422   3.543   3.307 -0.0474 -0.6787  0.8933
 7914SOL    HW135801   8.513   3.527   3.267  0.2202 -2.1621  2.0726
 7914SOL    HW235802   8.417   3.637   3.341 -0.0461  0.4058 -1.9908
 7915SOL     OW35803   5.159   5.469   9.587 -0.1419  0.5353 -0.3884
 7915SOL    HW135804   5.080   5.477   9.526  0.5699  0.4212 -1.3377
 7915SOL    HW235805   5.225   5.405   9.548  0.1535  0.1649  0.6967
 7916SOL     OW35806   1.118   9.457   7.753  0.0078 -0.4003  0.7023
 7916SOL    HW135807   1.104   9.381   7.689  1.8428 -0.2710  0.1197
 7916SOL    HW235808   1.059   9.533   7.726  0.8577 -0.3025 -0.9219
 7917SOL     OW35809   5.417   5.517   0.730  0.3692  0.1762  0.5926
 7917SOL    HW135810   5.502   5.520   0.677  0.6463  0.0750  1.0227
 7917SOL    HW235811   5.436   5.477   0.820 -0.2559 -0.3744  0.4729
 7918SOL     OW35812   3.356   4.505   9.288 -0.1581  0.5637  0.0422
 7918SOL    HW135813   3.409   4.589   9.301 -0.1993  0.3119  1.9788
 7918SOL    HW235814   3.297   4.490   9.367 -0.5816 -0.9875 -0.5446
 7919SOL     OW35815   7.163   0.391   9.217  0.1004 -0.4716 -0.1578
 7919SOL    HW135816   7.200   0.359   9.130  1.5453 -0.2846  0.3730
 7919SOL    HW235817   7.129   0.313   9.269 -2.2565 -0.4257 -1.5353
 7920SOL     OW35818   4.791   7.042   3.006 -0.3310 -0.2837 -0.4199
 7920SOL    HW135819   4.695   7.069   2.998  0.1666  2.0910  1.0216
 7920SOL    HW235820   4.800   6.975   3.080 -1.1571 -2.2314 -2.0353
 7921SOL     OW35821   4.366   6.477   9.115  0.2064  0.3990  0.1739
 7921SOL    HW135822   4.464   6.484   9.134  0.4340  0.2967 -0.9030
 7921SOL    HW235823   4.315   6.536   9.178  0.8169 -0.7697  1.8071
 7922SOL     OW35824   6.885   8.584   8.669 -0.7961  0.0981 -0.1926
 7922SOL    HW135825   6.894   8.683   8.683 -2.9787  0.1433  1.1444
 7922SOL    HW235826   6.799   8.564   8.623 -1.4627 -1.3295  1.6069
 7923SOL     OW35827   8.348   9.393   7.554 -0.1203 -0.2312  0.1653
 7923SOL    HW135828   8.340   9.492   7.536  1.5152  0.1836  1.6406
 7923SOL    HW235829   8.435   9.374   7.599 -0.6999 -2.2820  0.4648
 7924SOL     OW35830   6.103   7.567   7.831  0.1518 -0.2943 -0.0259
 7924SOL    HW135831   6.015   7.566   7.878 -2.4274 -0.5247 -4.6369
 7924SOL    HW235832   6.127   7.661   7.807 -0.5496 -0.5501 -1.7801
 7925SOL     OW35833   8.211   7.947   0.652  0.0891  0.1514  0.0499
 7925SOL    HW135834   8.194   8.036   0.609 -0.6341 -0.8757 -1.8767
 7925SOL    HW235835   8.124   7.900   0.667  0.5249 -0.6889  0.0120
 7926SOL     OW35836   1.879   1.185   0.232 -0.2301 -0.3966  0.4004
 7926SOL    HW135837   1.955   1.130   0.197  0.6885  1.0543  0.0653
 7926SOL    HW235838   1.889   1.197   0.331  0.5295  0.5935  0.2171
 7927SOL     OW35839   6.930   2.725   1.940  0.3394 -0.1930  0.0110
 7927SOL    HW135840   7.018   2.686   1.914 -1.0812 -3.5607 -0.1264
 7927SOL    HW235841   6.858   2.685   1.883 -1.5625  0.4372  1.8904
 7928SOL     OW35842   6.099   9.186   4.105  0.6391 -0.1922 -0.2952
 7928SOL    HW135843   6.083   9.281   4.131  2.0595 -0.2240  0.7452
 7928SOL    HW235844   6.119   9.180   4.007  0.7596  0.6009 -0.3172
 7929SOL     OW35845   8.614   1.546   8.906  0.1624 -0.0262 -0.6274
 7929SOL    HW135846   8.563   1.586   8.981  0.3923 -0.3725 -0.2815
 7929SOL    HW235847   8.707   1.583   8.905  0.1114  0.0961 -0.8343
 7930SOL     OW35848   0.666   3.237   2.549 -0.1386 -0.3464 -0.4041
 7930SOL    HW135849   0.713   3.149   2.546 -0.2479 -0.3940 -0.6929
 7930SOL    HW235850   0.725   3.304   2.595 -0.4305 -0.7933  0.6356
 7931SOL     OW35851   0.187   3.551   6.135  0.4094 -0.3415  0.1624
 7931SOL    HW135852   0.113   3.492   6.102  1.0454 -1.0723  0.0308
 7931SOL    HW235853   0.162   3.587   6.226 -0.6575  0.4427 -0.4209
 7932SOL     OW35854   9.037   4.550   9.864 -0.5633 -0.0764  0.2562
 7932SOL    HW135855   9.092   4.483   9.815 -1.6675 -0.6759 -0.1832
 7932SOL    HW235856   8.954   4.570   9.811 -0.5574  1.1441  0.6956
 7933SOL     OW35857   2.855   9.738   4.074 -0.0739  0.4233 -0.0576
 7933SOL    HW135858   2.863   9.639   4.062  0.1728  0.5205 -0.7273
 7933SOL    HW235859   2.759   9.765   4.064 -0.0302  0.3513 -0.7152
 7934SOL     OW35860   9.726   2.976   6.683  0.0188 -0.1185  0.1047
 7934SOL    HW135861   9.762   2.935   6.599 -0.0031  0.6761 -0.2950
 7934SOL    HW235862   9.642   3.026   6.663  0.6614  1.0988  0.3679
 7935SOL     OW35863   4.097   6.375   4.687  0.3481  0.3884 -0.0598
 7935SOL    HW135864   4.007   6.411   4.712  0.1426  0.3024 -0.6689
 7935SOL    HW235865   4.129   6.313   4.758 -0.7393 -0.7476 -0.5339
 7936SOL     OW35866   8.956   3.266   6.784 -0.3901 -0.2072  0.2975
 7936SOL    HW135867   8.930   3.178   6.825  0.9803 -0.6869  0.1690
 7936SOL    HW235868   9.056   3.272   6.779 -0.4915  0.3199 -1.8918
 7937SOL     OW35869   6.308   1.419   0.716 -0.2719 -0.0704  0.8178
 7937SOL    HW135870   6.360   1.350   0.767 -1.5932 -1.3612  0.4332
 7937SOL    HW235871   6.215   1.424   0.751 -0.6292  0.4211 -0.1803
 7938SOL     OW35872   7.110   0.704   3.169 -0.7533 -0.1976  0.1260
 7938SOL    HW135873   7.208   0.724   3.170 -1.3239  2.6615  2.2969
 7938SOL    HW235874   7.092   0.623   3.226  0.3102 -0.7502 -0.3054
 7939SOL     OW35875   3.951   4.339   6.234  0.2746 -0.4467  0.2015
 7939SOL    HW135876   3.953   4.415   6.300 -0.5367 -1.7950  1.8119
 7939SOL    HW235877   3.950   4.252   6.283 -2.1860 -1.4509 -1.5434
 7940SOL     OW35878   9.140   8.521   3.278 -0.0111 -0.0653 -0.2098
 7940SOL    HW135879   9.163   8.573   3.361  0.8451 -3.0370  1.4883
 7940SOL    HW235880   9.042   8.499   3.278  0.3516 -1.7672  1.0600
 7941SOL     OW35881   4.295   0.299   7.418 -0.1085  0.2142 -0.2790
 7941SOL    HW135882   4.356   0.220   7.417 -0.2888  0.0819 -1.3083
 7941SOL    HW235883   4.345   0.380   7.390 -0.3002  0.1809 -0.7239
 7942SOL     OW35884   1.283   7.346   2.234 -0.1042  0.5124  0.1445
 7942SOL    HW135885   1.276   7.269   2.170 -1.4084  0.7437  0.0018
 7942SOL    HW235886   1.267   7.431   2.185  0.0117  0.7790  0.5711
 7943SOL     OW35887   7.579   9.323   9.704 -0.1074  0.0833 -0.8713
 7943SOL    HW135888   7.577   9.280   9.794 -0.4056 -0.0075 -0.9220
 7943SOL    HW235889   7.511   9.280   9.644 -1.3714  1.5257 -0.5075
 7944SOL     OW35890   1.897   1.711   1.583  0.3477 -0.0079  0.1677
 7944SOL    HW135891   1.944   1.665   1.507  1.1631  1.8232 -0.4731
 7944SOL    HW235892   1.965   1.741   1.650 -0.1530  0.4233  0.4833
 7945SOL     OW35893   2.646   7.069  10.026  0.6468 -0.5077  0.1442
 7945SOL    HW135894   2.702   7.000   9.981 -0.9616 -2.5610  1.2165
 7945SOL    HW235895   2.613   7.034  10.113 -0.6108  1.4396  0.4841
 7946SOL     OW35896   5.316   7.518   6.314 -0.4206 -0.1840  0.2142
 7946SOL    HW135897   5.238   7.580   6.299 -0.1426  0.1219  0.0285
 7946SOL    HW235898   5.400   7.564   6.286 -0.3610 -1.1611 -1.2816
 7947SOL     OW35899   8.357   3.131   4.346 -0.3284 -0.7332  0.0378
 7947SOL    HW135900   8.412   3.052   4.373  0.6480 -0.2204 -0.4386
 7947SOL    HW235901   8.411   3.192   4.288 -1.0031  0.3847  0.5515
 7948SOL     OW35902   5.606   2.552   9.258  0.6227 -0.4120  0.2448
 7948SOL    HW135903   5.552   2.550   9.175  0.7280 -1.6446  0.1996
 7948SOL    HW235904   5.636   2.459   9.281  0.7917 -0.0537  1.5210
 7949SOL     OW35905   2.728   4.794   0.458  0.0894  0.5768 -0.0676
 7949SOL    HW135906   2.641   4.823   0.420  0.4911  0.5094 -1.0450
 7949SOL    HW235907   2.748   4.848   0.540 -0.6833  0.8511 -0.0535
 7950SOL     OW35908   2.852   9.255   2.205  0.0382  0.5226 -0.2295
 7950SOL    HW135909   2.791   9.297   2.272  1.2660  0.8493  0.7055
 7950SOL    HW235910   2.820   9.163   2.184 -2.4223  1.6865 -1.9393
 7951SOL     OW35911   8.901   5.761   4.506  0.0535  0.0533 -0.3177
 7951SOL    HW135912   8.945   5.774   4.417 -0.3608 -1.7449 -0.8031
 7951SOL    HW235913   8.959   5.703   4.564 -0.6101 -0.4540 -0.1501
 7952SOL     OW35914   1.236   9.826   5.421  0.1089 -0.1213 -0.0931
 7952SOL    HW135915   1.198   9.880   5.346  0.1182 -0.6517 -0.4834
 7952SOL    HW235916   1.183   9.841   5.504 -0.7353 -0.5816 -0.5478
 7953SOL     OW35917   9.680   6.857   8.688  0.1744  0.0271 -0.1835
 7953SOL    HW135918   9.615   6.800   8.738  0.1104 -0.1242 -0.4431
 7953SOL    HW235919   9.686   6.827   8.593  0.1950  0.4039 -0.3028
 7954SOL     OW35920   9.605   6.086   9.922  0.7552  0.0446  0.1638
 7954SOL    HW135921   9.585   6.168   9.975 -0.5109 -0.0824 -0.1026
 7954SOL    HW235922   9.556   6.090   9.835  3.2174  0.5081 -1.2622
 7955SOL     OW35923   4.235   9.174   2.359 -0.2660  0.0322  0.3347
 7955SOL    HW135924   4.325   9.206   2.330 -0.9415  2.3547  0.7325
 7955SOL    HW235925   4.244   9.082   2.399  1.9508  0.3275  0.5763
 7956SOL     OW35926   0.082   8.147   0.542  0.8700 -0.3768  0.3577
 7956SOL    HW135927   0.073   8.198   0.627  0.1781  2.7203 -1.5045
 7956SOL    HW235928   0.179   8.130   0.523  1.0638 -0.3308  1.2992
 7957SOL     OW35929   2.445   7.787   1.063 -0.0605  0.2614 -0.1371
 7957SOL    HW135930   2.350   7.817   1.050 -0.5021 -1.1108 -0.1415
 7957SOL    HW235931   2.465   7.782   1.160 -0.4973 -1.0056 -0.1130
 7958SOL     OW35932   5.077   5.895   8.222 -0.2295 -0.1895  0.2961
 7958SOL    HW135933   4.999   5.848   8.180 -0.8496  1.7274 -0.7752
 7958SOL    HW235934   5.155   5.894   8.159  1.1466 -3.3254  1.9132
 7959SOL     OW35935   8.335   4.469   6.307  0.6307  0.5605 -0.2273
 7959SOL    HW135936   8.324   4.379   6.348 -0.2614  0.7844  0.0439
 7959SOL    HW235937   8.432   4.491   6.299  0.8240  0.2239  1.1303
 7960SOL     OW35938   8.347   5.116   5.750  0.1521 -0.1831 -0.2018
 7960SOL    HW135939   8.361   5.169   5.667  2.2909  0.5173  0.5705
 7960SOL    HW235940   8.282   5.164   5.809  0.8473  0.7907 -0.2100
 7961SOL     OW35941   3.997   1.368   5.505 -0.2837  0.3104 -0.1225
 7961SOL    HW135942   3.963   1.325   5.421  1.2530  1.3963 -1.3288
 7961SOL    HW235943   4.097   1.367   5.505 -0.2649  0.0842  1.8320
 7962SOL     OW35944   3.096   2.665   5.368  0.2612  0.3489  0.1921
 7962SOL    HW135945   3.118   2.674   5.465 -1.0017 -0.5436  0.5805
 7962SOL    HW235946   3.012   2.611   5.358  1.5163 -1.3370 -1.4872
 7963SOL     OW35947   5.807   1.910   4.719 -0.2576 -0.2372  0.2539
 7963SOL    HW135948   5.756   1.869   4.644 -3.1093 -1.4134  2.7086
 7963SOL    HW235949   5.743   1.950   4.785  2.0738 -0.3738  2.6943
 7964SOL     OW35950   9.934   0.998   5.118 -0.4213  0.8589 -0.3766
 7964SOL    HW135951   9.908   1.090   5.149 -0.7352  1.0231 -1.1199
 7964SOL    HW235952   9.915   0.989   5.021 -0.5253 -0.0496 -0.2742
 7965SOL     OW35953   6.605   5.427   0.105  0.0106  0.1830  0.0663
 7965SOL    HW135954   6.543   5.418   0.027  1.3883  2.2469 -1.3434
 7965SOL    HW235955   6.692   5.383   0.083  0.7901  1.7384 -0.0379
 7966SOL     OW35956   4.226   8.201   6.779 -0.1603  0.2148 -0.0766
 7966SOL    HW135957   4.144   8.153   6.748 -0.1362  0.4155 -0.4502
 7966SOL    HW235958   4.212   8.300   6.768 -0.1551  0.2875  0.5515
 7967SOL     OW35959   1.831   7.052   1.855 -0.4666  0.6980 -0.0475
 7967SOL    HW135960   1.758   7.074   1.790 -0.9158  1.0250  0.5648
 7967SOL    HW235961   1.811   7.094   1.943  0.6289  1.0549  0.0380
 7968SOL     OW35962   8.491   8.111   3.166 -0.3050 -0.2296 -0.4147
 7968SOL    HW135963   8.460   8.159   3.084  0.7243 -0.2769 -0.8419
 7968SOL    HW235964   8.451   8.019   3.168  0.0730 -0.4174 -1.1400
 7969SOL     OW35965   1.814   5.962   8.302  0.2569  0.6531 -0.4467
 7969SOL    HW135966   1.765   6.049   8.298  1.2071  1.2324  0.4974
 7969SOL    HW235967   1.751   5.888   8.278 -0.9775  1.4291  0.3612
 7970SOL     OW35968   9.515   9.350   3.955 -0.0579 -0.2575  0.9590
 7970SOL    HW135969   9.510   9.445   3.987  3.0572  0.1094  0.5004
 7970SOL    HW235970   9.482   9.346   3.860 -0.9075  0.2187  1.2253
 7971SOL     OW35971   0.402   9.610   0.246  0.5559 -0.0697 -0.7159
 7971SOL    HW135972   0.424   9.536   0.183  1.3953  0.7428 -1.4044
 7971SOL    HW235973   0.364   9.687   0.195 -1.1304 -0.3246  0.0957
 7972SOL     OW35974   5.246   9.768   4.719  0.1249  0.0683 -0.3520
 7972SOL    HW135975   5.261   9.731   4.627  1.5112 -1.2288  0.3767
 7972SOL    HW235976   5.334   9.781   4.764 -0.6330 -1.2469  1.5479
 7973SOL     OW35977   0.507   8.215   2.414  0.5123 -0.3154 -0.1523
 7973SOL    HW135978   0.471   8.188   2.325  0.3383  1.3855 -0.6206
 7973SOL    HW235979   0.592   8.267   2.401 -0.0574  0.8436  0.5885
 7974SOL     OW35980   0.156   2.899   9.401 -0.5543  0.1756  0.0639
 7974SOL    HW135981   0.168   2.815   9.454  0.9974  0.4160  0.1284
 7974SOL    HW235982   0.133   2.974   9.462  0.7175  0.3427  0.3573
 7975SOL     OW35983   0.073   8.611   4.822  0.0982  0.4731 -0.2253
 7975SOL    HW135984   0.119   8.538   4.773  0.7917  1.5076 -1.1426
 7975SOL    HW235985  -0.019   8.625   4.784 -0.0913 -0.0175  0.0528
 7976SOL     OW35986   3.011   8.744   1.494 -0.2755 -0.9828  0.0714
 7976SOL    HW135987   2.994   8.709   1.402 -0.5463 -2.6698  0.7418
 7976SOL    HW235988   3.105   8.778   1.500 -0.1108 -1.2957 -0.6968
 7977SOL     OW35989   2.847   4.008   0.126  0.6190 -0.6199 -0.0941
 7977SOL    HW135990   2.790   3.953   0.065 -0.7085  1.5553 -0.8481
 7977SOL    HW235991   2.824   3.985   0.221 -0.8067 -0.4730 -0.3947
 7978SOL     OW35992   1.289   1.610   7.947  0.5135 -0.4211 -0.1074
 7978SOL    HW135993   1.196   1.639   7.925 -0.1820 -2.4444  0.0801
 7978SOL    HW235994   1.349   1.690   7.954 -1.1233  0.8554 -0.6306
 7979SOL     OW35995   3.513   3.204   9.797  0.0013 -0.4169  0.6247
 7979SOL    HW135996   3.586   3.178   9.733  0.4276 -1.8311  1.6737
 7979SOL    HW235997   3.440   3.249   9.746  1.0153 -0.1539 -0.6379
 7980SOL     OW35998   0.121   4.668   1.142  0.3336 -0.5843  0.2028
 7980SOL    HW135999   0.141   4.705   1.051 -0.1915 -2.3030 -0.6317
 7980SOL    HW236000   0.116   4.569   1.138 -2.3819 -0.5667  1.5649
 7981SOL     OW36001   4.884   3.916   6.747  0.0290 -0.0049  0.1112
 7981SOL    HW136002   4.831   3.873   6.674 -0.6950  1.2899 -0.1391
 7981SOL    HW236003   4.930   3.998   6.711  0.6713 -0.0571  0.8034
 7982SOL     OW36004   8.415   4.295   7.216  0.0963  0.1483  0.2373
 7982SOL    HW136005   8.414   4.196   7.203 -0.4865  0.5062 -2.8706
 7982SOL    HW236006   8.333   4.324   7.266  0.1920 -0.9160  1.0086
 7983SOL     OW36007   0.510   3.428   4.667 -0.3536 -0.1392  0.4607
 7983SOL    HW136008   0.450   3.391   4.738  0.7437 -1.4583  0.7240
 7983SOL    HW236009   0.605   3.423   4.698  0.1841 -1.2006 -1.3104
 7984SOL     OW36010   4.323   0.473   7.154  0.0240  0.2233  0.4931
 7984SOL    HW136011   4.354   0.568   7.153  0.4429  0.0969  0.9813
 7984SOL    HW236012   4.229   0.468   7.121  0.2375  0.7176 -0.1951
 7985SOL     OW36013   8.469   7.767   4.266  0.5049  0.1589  0.5083
 7985SOL    HW136014   8.493   7.726   4.177  1.3251  1.4666  0.1129
 7985SOL    HW236015   8.539   7.834   4.291 -0.4642  0.8130  1.4756
 7986SOL     OW36016   6.597   9.547   8.940  0.1901 -0.8187 -0.0802
 7986SOL    HW136017   6.685   9.499   8.930  0.1332 -0.7929 -0.7403
 7986SOL    HW236018   6.572   9.551   9.037  0.7222 -1.1787  0.0764
 7987SOL     OW36019   3.560   9.960   5.805 -0.0662  0.0983 -0.3363
 7987SOL    HW136020   3.548   9.864   5.780 -0.7478 -0.0482  0.5559
 7987SOL    HW236021   3.624  10.003   5.741 -0.3570 -0.7506 -1.2058
 7988SOL     OW36022   5.294   1.213   0.106  0.7173  0.1608  0.1878
 7988SOL    HW136023   5.317   1.177   0.016 -0.6012 -0.8107  0.2273
 7988SOL    HW236024   5.372   1.265   0.142  1.3014  0.4400 -1.4385
 7989SOL     OW36025   2.099   5.816   7.959  0.2668  0.2794 -0.1463
 7989SOL    HW136026   2.056   5.740   8.009  0.6280  1.1516  1.5412
 7989SOL    HW236027   2.057   5.825   7.869  0.0497 -1.7616 -0.2699
 7990SOL     OW36028   2.159   5.673   3.812 -0.0414 -0.3045 -0.3986
 7990SOL    HW136029   2.063   5.667   3.839 -0.2804 -0.0851 -1.1661
 7990SOL    HW236030   2.199   5.757   3.849 -0.8976  0.9794 -2.2832
 7991SOL     OW36031   1.225   7.013   9.247 -0.4623  0.1035 -0.0467
 7991SOL    HW136032   1.190   7.098   9.288  0.0422  0.0001  0.6061
 7991SOL    HW236033   1.296   6.975   9.306 -0.1518 -0.3703 -0.7284
 7992SOL     OW36034   1.971   3.615   9.383 -0.1142  0.3235  0.3145
 7992SOL    HW136035   1.886   3.570   9.411  0.2169  0.0650  0.9128
 7992SOL    HW236036   1.984   3.698   9.437  0.8203 -0.4822  1.3387
 7993SOL     OW36037   1.362   1.973   0.712  0.0996 -0.1568  0.1669
 7993SOL    HW136038   1.285   1.929   0.666  0.1780  0.3356 -0.4296
 7993SOL    HW236039   1.438   1.908   0.721  0.0599 -0.2685 -0.3310
 7994SOL     OW36040   0.203   2.425   8.598 -0.0538 -0.4730  0.4572
 7994SOL    HW136041   0.210   2.443   8.696  0.1963  0.1752  0.3212
 7994SOL    HW236042   0.283   2.460   8.551  0.6248 -2.2652  0.2185
 7995SOL     OW36043   5.341   6.398   1.572  0.3445 -0.1121 -1.1404
 7995SOL    HW136044   5.283   6.317   1.560  0.3785 -0.0848 -1.4906
 7995SOL    HW236045   5.388   6.418   1.487 -0.9526  1.2681 -1.5601
 7996SOL     OW36046   0.530   2.901   9.675 -0.1502  0.1818  0.0703
 7996SOL    HW136047   0.599   2.877   9.742  1.2143  0.1107 -1.3281
 7996SOL    HW236048   0.510   2.998   9.681 -1.0629 -0.0730  1.4959
 7997SOL     OW36049   2.763   7.259   1.626  0.5473  0.0480 -0.0037
 7997SOL    HW136050   2.668   7.267   1.595  0.1229  0.5142  1.4037
 7997SOL    HW236051   2.816   7.336   1.591  0.0412  0.6419  0.5301
 7998SOL     OW36052   1.553   6.420   7.773  0.2254  0.0274 -0.4115
 7998SOL    HW136053   1.522   6.346   7.714 -0.0687  0.9774 -1.4691
 7998SOL    HW236054   1.644   6.398   7.808  1.2154  0.2858 -2.7313
 7999SOL     OW36055   6.129   0.185   8.655 -0.1613  0.0174 -0.0224
 7999SOL    HW136056   6.064   0.183   8.731  0.5687 -0.9022  0.5936
 7999SOL    HW236057   6.213   0.138   8.682  0.5643  0.7314 -0.9886
 8000SOL     OW36058   1.748   9.200   2.115  0.9601  0.3486  0.3839
 8000SOL    HW136059   1.654   9.203   2.149  0.6518  1.1653 -0.5248
 8000SOL    HW236060   1.776   9.104   2.103  0.5313  0.0882  1.4113
 8001SOL     OW36061   0.525   6.370   3.269  0.0428 -0.8316  0.1781
 8001SOL    HW136062   0.480   6.282   3.285  1.0823 -1.0970  1.8375
 8001SOL    HW236063   0.468   6.427   3.211 -1.3777 -2.0051  0.3961
 8002SOL     OW36064   8.713   2.327   4.734 -0.2359  0.4879  0.2967
 8002SOL    HW136065   8.678   2.335   4.828 -0.0218 -2.9888  0.7398
 8002SOL    HW236066   8.702   2.233   4.703  2.3057  0.9510 -2.1597
 8003SOL     OW36067   7.630   6.843   8.243 -0.2262 -0.3958  0.2515
 8003SOL    HW136068   7.625   6.918   8.178  0.5708 -0.3434  0.2424
 8003SOL    HW236069   7.721   6.800   8.238 -0.3378 -0.7309  0.9403
 8004SOL     OW36070   0.388   3.478   5.970 -0.3449  0.2086  0.1062
 8004SOL    HW136071   0.399   3.532   5.887 -1.4043  0.8503  0.3780
 8004SOL    HW236072   0.310   3.513   6.023 -0.9685 -1.5001  0.3419
 8005SOL     OW36073   6.105   9.193   3.728 -0.4219 -0.1856  0.3093
 8005SOL    HW136074   6.194   9.196   3.773  0.6924 -0.7352 -1.8029
 8005SOL    HW236075   6.060   9.282   3.736  0.8190  0.4403  0.3656
 8006SOL     OW36076   3.824   1.827   9.164  0.6220 -0.1091 -0.3273
 8006SOL    HW136077   3.916   1.838   9.201  0.5457  0.6657 -0.3414
 8006SOL    HW236078   3.829   1.825   9.064  0.5945  0.3110 -0.3405
 8007SOL     OW36079   6.698   1.413   9.019 -0.1772 -0.0238  0.3306
 8007SOL    HW136080   6.613   1.460   8.995 -1.0815 -2.2035 -0.8320
 8007SOL    HW236081   6.677   1.322   9.054  1.6074  0.1099  1.8258
 8008SOL     OW36082   2.271   2.464   3.216 -0.3447 -0.3848 -0.4296
 8008SOL    HW136083   2.354   2.431   3.172  0.2412  1.3567 -0.6924
 8008SOL    HW236084   2.214   2.513   3.149 -0.1442  1.0034  0.3851
 8009SOL     OW36085   1.754   8.392   5.028  0.6926  0.0359  0.1195
 8009SOL    HW136086   1.837   8.353   5.069  0.7783  0.3162  0.2187
 8009SOL    HW236087   1.693   8.318   5.000  0.8934 -0.1723  0.2204
 8010SOL     OW36088   5.918   1.196   4.492 -0.5351 -0.2035 -0.0565
 8010SOL    HW136089   5.874   1.187   4.581  0.4382 -1.4551  0.3045
 8010SOL    HW236090   5.873   1.268   4.440 -1.4325  0.1929  1.2526
 8011SOL     OW36091   1.734   2.583   2.791 -0.6775  0.4220 -0.5770
 8011SOL    HW136092   1.798   2.638   2.736  0.4746 -1.4383 -1.1632
 8011SOL    HW236093   1.653   2.562   2.736 -0.2776 -0.0100 -1.0186
 8012SOL     OW36094   9.332   7.334   2.825 -0.0700  0.2881  0.3527
 8012SOL    HW136095   9.331   7.418   2.880 -1.2585  1.4614 -1.3911
 8012SOL    HW236096   9.331   7.358   2.728 -0.1675 -1.7559 -0.1750
 8013SOL     OW36097   2.304   2.683   7.667 -0.6174 -0.2272  0.5669
 8013SOL    HW136098   2.368   2.617   7.627  0.8385  1.3255  0.2782
 8013SOL    HW236099   2.222   2.687   7.610  0.5415  0.3954 -1.1144
 8014SOL     OW36100   2.615   1.371   6.452  0.4755 -0.2566  0.0099
 8014SOL    HW136101   2.617   1.438   6.379 -1.6787 -2.3056 -2.0214
 8014SOL    HW236102   2.594   1.416   6.539  1.8783  2.0245 -0.7932
 8015SOL     OW36103   7.771   8.026   5.209 -0.2981 -0.2482 -0.8552
 8015SOL    HW136104   7.836   7.955   5.236  0.6436  1.2599  0.8673
 8015SOL    HW236105   7.801   8.115   5.243 -1.8037  0.9053 -2.4488
 8016SOL     OW36106   1.001   4.317   9.705  0.4799  0.4206 -0.4405
 8016SOL    HW136107   0.944   4.268   9.639 -1.9294  3.1175 -0.4520
 8016SOL    HW236108   1.011   4.261   9.788 -2.0936 -0.1613 -0.4834
 8017SOL     OW36109   7.459   6.155   1.621 -0.2649 -0.3005 -0.1975
 8017SOL    HW136110   7.360   6.166   1.635 -0.1103 -0.1853  0.8101
 8017SOL    HW236111   7.484   6.194   1.532 -0.5974  2.7295  0.9727
 8018SOL     OW36112   1.907   1.496   0.600 -0.1630 -0.3062 -0.5022
 8018SOL    HW136113   1.865   1.582   0.570  2.2141  1.2792  0.5230
 8018SOL    HW236114   1.959   1.456   0.524 -0.4492 -0.3028 -0.6994
 8019SOL     OW36115   7.622   4.889   0.407 -0.0900  0.4078 -0.3293
 8019SOL    HW136116   7.700   4.887   0.344 -1.8886  0.2076 -2.6271
 8019SOL    HW236117   7.573   4.976   0.397 -0.5207  0.2742  0.6093
 8020SOL     OW36118   6.755   6.480   6.604 -0.4005 -0.2800  0.2086
 8020SOL    HW136119   6.813   6.519   6.676  0.5156 -0.8053 -0.2443
 8020SOL    HW236120   6.811   6.458   6.524 -1.4667  0.6344 -0.8125
 8021SOL     OW36121   9.400   5.992   3.985  0.0047 -0.4840 -0.1908
 8021SOL    HW136122   9.320   5.946   4.025 -0.1293  1.3203  1.6919
 8021SOL    HW236123   9.379   6.088   3.968  1.4656 -0.2226 -0.6146
 8022SOL     OW36124   9.853   8.651   6.383 -0.1657 -0.4769 -0.1823
 8022SOL    HW136125   9.943   8.691   6.398 -0.0136 -1.2581  1.0224
 8022SOL    HW236126   9.794   8.718   6.338  0.7961  0.2739 -0.3469
 8023SOL     OW36127   5.287   9.616   3.469  0.2768 -0.1465 -0.2050
 8023SOL    HW136128   5.313   9.680   3.397  0.9756 -0.2149 -0.0090
 8023SOL    HW236129   5.187   9.609   3.472  0.1545  1.3706  0.1362
 8024SOL     OW36130   0.081   1.879   9.798 -0.3839  0.4322  0.4863
 8024SOL    HW136131   0.171   1.879   9.754 -0.8472  0.8667 -0.4869
 8024SOL    HW236132   0.027   1.802   9.763 -0.7933  0.8428  0.1977
 8025SOL     OW36133   4.097   5.486   3.856  0.1933 -0.1912  0.3026
 8025SOL    HW136134   4.008   5.490   3.902 -0.0423 -0.5127 -0.1110
 8025SOL    HW236135   4.128   5.578   3.835  0.4609 -0.0312  1.3990
 8026SOL     OW36136   3.879   4.251   3.792 -0.1655  0.2771  0.8375
 8026SOL    HW136137   3.839   4.340   3.810 -0.0915 -0.2211  3.6613
 8026SOL    HW236138   3.808   4.181   3.792 -0.2572  0.3200 -1.6032
 8027SOL     OW36139   1.652   3.037   0.107 -0.0389 -0.2051  0.0862
 8027SOL    HW136140   1.606   3.102   0.046  0.2943 -1.0255 -1.0669
 8027SOL    HW236141   1.700   2.969   0.052  1.7445  0.0579  1.2879
 8028SOL     OW36142   6.420   1.100   6.484 -0.3821 -0.1074 -0.0142
 8028SOL    HW136143   6.342   1.052   6.524  0.0051 -0.7919 -0.0800
 8028SOL    HW236144   6.389   1.155   6.406 -0.2452 -3.0733 -2.2170
 8029SOL     OW36145   1.855   1.055   0.921  0.2062 -0.1883 -0.2735
 8029SOL    HW136146   1.945   1.094   0.905  0.2226 -0.1770 -0.1575
 8029SOL    HW236147   1.785   1.120   0.892  0.2348 -0.1668 -0.2947
 8030SOL     OW36148   3.523   0.431   3.633 -0.0375 -0.0025 -0.1524
 8030SOL    HW136149   3.526   0.489   3.552  1.9520  1.1106  0.6743
 8030SOL    HW236150   3.534   0.488   3.715  0.1064 -1.3391  0.7782
 8031SOL     OW36151   5.530   7.607   7.591  0.5514 -0.1489  0.4762
 8031SOL    HW136152   5.587   7.659   7.654  2.5032  0.9366 -2.0905
 8031SOL    HW236153   5.561   7.512   7.589  1.3467  0.1098  0.1824
 8032SOL     OW36154   2.591   5.073   1.908  0.4629 -0.0073  0.0367
 8032SOL    HW136155   2.496   5.056   1.882 -0.1380  1.8264  0.9790
 8032SOL    HW236156   2.596   5.096   2.005  1.7632  0.7445 -0.1927
 8033SOL     OW36157   3.799   1.342   5.298 -0.7642 -0.2014 -0.5417
 8033SOL    HW136158   3.710   1.386   5.311  0.5272  2.5254 -0.3807
 8033SOL    HW236159   3.849   1.391   5.226  1.0086 -1.0363  0.0993
 8034SOL     OW36160   7.673   2.744   2.003 -0.1628 -0.4782 -0.4166
 8034SOL    HW136161   7.676   2.811   2.077 -0.7211  1.2165 -1.8685
 8034SOL    HW236162   7.632   2.659   2.036 -0.7818  0.3954  1.1132
 8035SOL     OW36163   3.517   2.532   6.272 -0.7508  0.5688  0.2793
 8035SOL    HW136164   3.579   2.472   6.323 -1.1001 -0.1836 -0.1861
 8035SOL    HW236165   3.448   2.569   6.334  0.6351  2.0568  0.9757
 8036SOL     OW36166   4.135   1.103   0.694 -0.7329  0.2441 -0.0489
 8036SOL    HW136167   4.174   1.117   0.603  0.5165  1.9545  0.7127
 8036SOL    HW236168   4.141   1.007   0.719  1.1697  0.1599 -0.7790
 8037SOL     OW36169   6.640   2.034   0.700  0.2904  0.3811 -0.2930
 8037SOL    HW136170   6.659   2.087   0.617  1.6745  1.0330  0.4305
 8037SOL    HW236171   6.575   2.083   0.757  1.6451  1.3819  0.4227
 8038SOL     OW36172   2.787   6.055   9.721 -0.3071  0.2878 -0.0629
 8038SOL    HW136173   2.873   6.106   9.725  0.3074 -0.8218  2.3682
 8038SOL    HW236174   2.718   6.109   9.674  1.8996  0.9050 -2.7086
 8039SOL     OW36175   3.851   3.167   7.435 -0.1381 -0.0545  0.4677
 8039SOL    HW136176   3.849   3.167   7.335 -0.4256  2.1660  0.4463
 8039SOL    HW236177   3.760   3.184   7.471  0.3778  1.5770  1.0563
 8040SOL     OW36178   7.739   7.762   4.195 -0.3693 -0.2165 -0.0679
 8040SOL    HW136179   7.673   7.785   4.124 -0.5282 -0.2948  0.0559
 8040SOL    HW236180   7.722   7.818   4.276 -1.1032 -1.1541  0.4336
 8041SOL     OW36181   0.122   7.146   7.185  0.2313  0.1393 -0.3619
 8041SOL    HW136182   0.141   7.068   7.245 -1.1994 -0.1713 -0.2818
 8041SOL    HW236183   0.119   7.230   7.240 -0.0628 -0.0047 -0.1537
 8042SOL     OW36184   1.423   2.978   0.975  0.2220  0.5269 -0.2552
 8042SOL    HW136185   1.409   2.945   1.068 -1.1764 -0.0501 -0.6639
 8042SOL    HW236186   1.357   2.935   0.914  1.2400  0.7747 -1.5443
 8043SOL     OW36187   0.899   2.832   9.521  0.0344  0.5944  0.3161
 8043SOL    HW136188   0.894   2.777   9.605 -1.0261 -1.9933 -1.3606
 8043SOL    HW236189   0.808   2.861   9.495  0.5234  2.6532  0.8180
 8044SOL     OW36190   0.781   6.016   9.290  0.4402  0.4742  0.0777
 8044SOL    HW136191   0.868   6.066   9.293  0.5833  0.3176 -1.0757
 8044SOL    HW236192   0.798   5.922   9.261 -0.3782  1.1012 -2.5500
 8045SOL     OW36193   9.124   0.509   7.576  0.1757 -0.1902 -0.1575
 8045SOL    HW136194   9.108   0.508   7.478 -0.1617 -0.5817 -0.1018
 8045SOL    HW236195   9.222   0.501   7.594  0.3164  0.7572 -0.4764
 8046SOL     OW36196   0.587   5.871   3.283  0.3423  0.1677 -0.6432
 8046SOL    HW136197   0.678   5.886   3.245  0.1423 -0.3584 -1.3299
 8046SOL    HW236198   0.522   5.858   3.209 -0.2673  0.3773 -0.1467
 8047SOL     OW36199   1.542   0.670   2.036  0.4377 -0.1131  0.4143
 8047SOL    HW136200   1.545   0.592   1.974  0.4831 -2.1116  2.8683
 8047SOL    HW236201   1.449   0.682   2.071  0.3293  1.2324 -0.2881
 8048SOL     OW36202   7.117   4.258   2.639  0.4667  0.0900  0.1632
 8048SOL    HW136203   7.171   4.232   2.560  0.3397  0.6666 -0.1115
 8048SOL    HW236204   7.177   4.292   2.711  0.5197  0.1864  0.0732
 8049SOL     OW36205   3.545   8.604   8.655  0.2767  0.4928  0.0113
 8049SOL    HW136206   3.530   8.523   8.711  1.2352  1.2819  1.4452
 8049SOL    HW236207   3.535   8.580   8.559 -2.7751 -0.5875  0.5512
 8050SOL     OW36208   1.266   4.784   4.031  0.1542  0.2934 -0.2404
 8050SOL    HW136209   1.222   4.748   4.113  0.8431  1.2198  0.5544
 8050SOL    HW236210   1.221   4.869   4.003  0.2417  0.2474 -0.5223
 8051SOL     OW36211   2.211   6.099   8.518 -0.1046 -0.2689 -0.1588
 8051SOL    HW136212   2.282   6.039   8.553  0.2632  0.2003 -0.0912
 8051SOL    HW236213   2.214   6.186   8.568 -0.4225 -0.0753 -0.4746
 8052SOL     OW36214   2.495   5.938   3.038  0.3185 -0.8648  0.1857
 8052SOL    HW136215   2.402   5.965   3.064  0.2578  0.1735 -1.0250
 8052SOL    HW236216   2.504   5.945   2.938  2.0090  0.0292  0.3921
 8053SOL     OW36217   4.806   1.099   6.893 -0.4580 -0.7384  0.0191
 8053SOL    HW136218   4.816   1.167   6.965  1.4248 -1.4173  0.4303
 8053SOL    HW236219   4.777   1.144   6.808 -0.0950  0.4314  0.5131
 8054SOL     OW36220   0.475   4.300   1.034  0.0971 -0.1396 -0.3320
 8054SOL    HW136221   0.449   4.233   1.104 -1.3691  0.2018 -0.5295
 8054SOL    HW236222   0.564   4.339   1.057  0.2050 -0.9508  0.6723
 8055SOL     OW36223   5.028   7.095   5.705 -0.0179 -0.3596  0.0406
 8055SOL    HW136224   5.081   7.103   5.789  1.4719  0.6676 -0.9693
 8055SOL    HW236225   4.943   7.146   5.714  0.3400  0.1155  0.7866
 8056SOL     OW36226   9.353   2.329   4.094 -0.4376 -0.2431 -0.7109
 8056SOL    HW136227   9.348   2.329   4.194  1.3225  1.8068 -0.5857
 8056SOL    HW236228   9.260   2.333   4.056 -1.1250 -1.1912  0.8121
 8057SOL     OW36229   2.430   7.941   2.072  0.4010 -0.2925  0.2288
 8057SOL    HW136230   2.385   8.030   2.085  1.3108  0.4451 -1.5229
 8057SOL    HW236231   2.378   7.887   2.006 -0.1351 -1.0617  1.2719
 8058SOL     OW36232   8.176   2.738   4.678  0.5476 -0.2102  0.6424
 8058SOL    HW136233   8.110   2.764   4.607  0.5522 -1.5575  0.1287
 8058SOL    HW236234   8.168   2.640   4.697 -0.3878  0.3706  3.4940
 8059SOL     OW36235   9.187   5.777   6.092  0.1124 -0.3249 -0.5197
 8059SOL    HW136236   9.282   5.801   6.069 -0.3234  1.2098 -0.8077
 8059SOL    HW236237   9.144   5.732   6.015  0.2881 -0.0483 -0.7805
 8060SOL     OW36238   3.845   2.573   6.233 -0.9656 -0.0467 -0.1335
 8060SOL    HW136239   3.851   2.474   6.228  0.1672 -0.0346  0.8212
 8060SOL    HW236240   3.841   2.612   6.141 -0.4211 -0.9116 -0.5193
 8061SOL     OW36241   2.644   7.577   3.243 -0.0873  0.1628 -0.0968
 8061SOL    HW136242   2.690   7.543   3.325  0.8177  2.0825  0.2069
 8061SOL    HW236243   2.565   7.632   3.269  0.1748  0.7383 -0.4930
 8062SOL     OW36244   4.048   3.983   1.142  0.2091  0.4172  0.0665
 8062SOL    HW136245   4.068   3.990   1.044  0.8226 -0.8338  0.0945
 8062SOL    HW236246   4.059   3.888   1.172 -0.3161  0.7276  1.2779
 8063SOL     OW36247   5.485   1.496   6.166 -0.1863  0.4820 -0.3675
 8063SOL    HW136248   5.515   1.576   6.217 -0.5964 -0.0976  0.7812
 8063SOL    HW236249   5.398   1.515   6.121  0.0623  0.9138 -0.6621
 8064SOL     OW36250   6.958   6.396   5.228  0.0070 -0.5972  0.2633
 8064SOL    HW136251   6.941   6.415   5.132  1.0441  1.2244  0.4208
 8064SOL    HW236252   7.000   6.476   5.271 -0.0044 -1.5593  2.1165
 8065SOL     OW36253   1.694   1.083   0.584  0.7947  0.8200 -0.3936
 8065SOL    HW136254   1.735   0.992   0.583  0.3755  0.6300 -1.4074
 8065SOL    HW236255   1.633   1.092   0.505 -0.1439  1.5362  0.4223
 8066SOL     OW36256   0.237   9.196   5.216  0.3221  0.3141 -0.8309
 8066SOL    HW136257   0.196   9.150   5.295  1.4597  1.1312  0.2399
 8066SOL    HW236258   0.211   9.147   5.133 -1.3274 -0.2562 -0.0210
 8067SOL     OW36259   2.044   7.689   9.355 -0.2820  0.6733 -0.1609
 8067SOL    HW136260   1.974   7.668   9.422  0.0915 -0.5765 -0.1420
 8067SOL    HW236261   2.119   7.623   9.364 -0.8078 -0.3192 -2.6316
 8068SOL     OW36262   1.425   2.230   2.637 -0.3239 -0.1848  0.2849
 8068SOL    HW136263   1.375   2.150   2.670 -1.1261  0.5354  0.7983
 8068SOL    HW236264   1.497   2.253   2.702 -0.4537 -0.1433  0.4136
 8069SOL     OW36265   2.024   1.472   9.569 -0.1214 -0.6494 -0.0587
 8069SOL    HW136266   1.932   1.476   9.608 -0.7734 -1.9624 -1.4010
 8069SOL    HW236267   2.057   1.565   9.552 -1.9847 -0.1724 -1.3283
 8070SOL     OW36268   7.571   7.836   2.689  0.6387  0.6491 -0.4224
 8070SOL    HW136269   7.585   7.847   2.787  1.0806  0.6380 -0.4858
 8070SOL    HW236270   7.594   7.922   2.642 -0.5140  0.9736 -0.4140
 8071SOL     OW36271   0.660   7.890   4.044 -0.0416  0.5217  0.2596
 8071SOL    HW136272   0.691   7.839   4.125  0.7585  2.2792  1.0983
 8071SOL    HW236273   0.651   7.987   4.068 -0.8183  0.8957 -1.4926
 8072SOL     OW36274   0.418   9.403   0.076  0.1726  0.3072  0.3621
 8072SOL    HW136275   0.466   9.359   0.001  2.3616  0.2016  1.7524
 8072SOL    HW236276   0.365   9.335   0.127 -0.4110  0.1788 -0.4149
 8073SOL     OW36277   9.835   0.508   2.702 -0.0382  0.0650  0.3773
 8073SOL    HW136278   9.745   0.518   2.661  1.0561  1.2350 -1.8872
 8073SOL    HW236279   9.842   0.420   2.747 -2.2919 -0.0454  0.5684
 8074SOL     OW36280   0.312   6.254   9.814  0.1589  0.1806 -0.2529
 8074SOL    HW136281   0.283   6.347   9.792 -0.6607 -0.4331 -1.8760
 8074SOL    HW236282   0.337   6.206   9.730  1.4601 -0.7861  0.6618
 8075SOL     OW36283   0.359   2.268   2.566 -0.0959  0.5560 -0.4776
 8075SOL    HW136284   0.367   2.248   2.664 -2.0754 -0.1347 -0.4371
 8075SOL    HW236285   0.428   2.336   2.540  0.0613  1.1833  1.5058
 8076SOL     OW36286   6.899   0.532   4.468  1.0048 -0.2785 -0.4975
 8076SOL    HW136287   6.883   0.617   4.416  2.2921  0.7366  0.7449
 8076SOL    HW236288   6.979   0.485   4.431 -0.1541 -1.3841 -1.6833
 8077SOL     OW36289   3.511   4.825   8.956  0.2089 -0.0555  0.0534
 8077SOL    HW136290   3.493   4.734   8.994  0.8656 -0.3876 -0.4196
 8077SOL    HW236291   3.597   4.823   8.905 -0.6750  0.3764 -1.4788
 8078SOL     OW36292   2.301   6.805   9.543 -0.0939 -0.0529 -0.2164
 8078SOL    HW136293   2.372   6.821   9.474  0.4589  1.0838  0.5917
 8078SOL    HW236294   2.337   6.744   9.613  0.1358  0.6016  0.2455
 8079SOL     OW36295   9.063   7.512   2.295 -0.5759  0.2577  0.4213
 8079SOL    HW136296   9.007   7.429   2.285 -0.2229  0.0126  0.4556
 8079SOL    HW236297   9.159   7.488   2.282 -0.5521  0.8224 -0.4321
 8080SOL     OW36298   2.066   7.036   2.757 -0.9140 -0.5036 -0.0861
 8080SOL    HW136299   2.021   7.125   2.751 -0.3138 -0.1306  0.7968
 8080SOL    HW236300   2.115   7.018   2.671 -0.8752  0.1150 -0.1978
 8081SOL     OW36301   0.471   5.092   0.379  0.3726 -0.1655 -0.0273
 8081SOL    HW136302   0.475   5.136   0.468  2.2380 -1.0367  0.3349
 8081SOL    HW236303   0.428   5.001   0.389 -1.7883  0.7645 -0.4735
 8082SOL     OW36304   7.067   9.180   9.476  0.0267  0.6314 -0.0773
 8082SOL    HW136305   7.107   9.161   9.565 -1.8825 -1.0092  0.4527
 8082SOL    HW236306   6.972   9.207   9.487 -0.2718  0.2561 -1.6471
 8083SOL     OW36307   8.475   7.441   6.838 -0.6719 -0.2013 -0.4213
 8083SOL    HW136308   8.398   7.429   6.776 -1.3256 -0.6017  0.4507
 8083SOL    HW236309   8.560   7.451   6.785 -1.1750 -0.8185 -1.3615
 8084SOL     OW36310   5.992   9.609   8.765  0.1613 -0.8572  0.0776
 8084SOL    HW136311   6.000   9.522   8.813 -1.9882 -1.7973 -1.2108
 8084SOL    HW236312   6.038   9.603   8.677  2.3055  0.1952  1.0984
 8085SOL     OW36313   2.778   6.980   1.249 -0.0119 -0.2493  0.0138
 8085SOL    HW136314   2.696   6.995   1.194 -0.8873 -2.3277  0.7013
 8085SOL    HW236315   2.851   7.041   1.218 -1.3809  0.6586 -1.5009
 8086SOL     OW36316   9.758   4.731   3.010  0.1451  0.4682  0.1312
 8086SOL    HW136317   9.686   4.790   2.976 -0.7730  0.2725  1.6775
 8086SOL    HW236318   9.782   4.758   3.104  2.0418  0.4978 -0.3291
 8087SOL     OW36319   1.721   4.260   0.316 -0.4265  0.3852  0.8431
 8087SOL    HW136320   1.810   4.246   0.271  0.0853  0.9819  1.6524
 8087SOL    HW236321   1.650   4.268   0.247 -0.4767 -4.1443  0.2565
 8088SOL     OW36322   4.330   8.392   7.860 -0.2682 -0.1111 -0.1764
 8088SOL    HW136323   4.280   8.439   7.787 -0.3327  0.6041  0.3175
 8088SOL    HW236324   4.363   8.459   7.926 -0.1780 -0.7472  0.4306
 8089SOL     OW36325   3.953   8.884   7.053 -0.0738  0.0253  0.0138
 8089SOL    HW136326   3.875   8.898   7.114  1.3196 -1.7249  2.3238
 8089SOL    HW236327   4.009   8.966   7.051 -1.2210  0.7965 -0.5167
 8090SOL     OW36328   2.464   5.574   3.853  0.0085  0.1342  0.1382
 8090SOL    HW136329   2.553   5.607   3.818  0.2989  0.1389  0.8810
 8090SOL    HW236330   2.414   5.531   3.778  0.0620  1.3368 -0.6081
 8091SOL     OW36331   0.042   8.273   7.941 -0.1863 -0.0306 -0.3335
 8091SOL    HW136332   0.120   8.333   7.959  0.1783 -0.6680  0.2297
 8091SOL    HW236333  -0.014   8.313   7.868 -0.6395  1.6270  0.8894
 8092SOL     OW36334   4.350   3.349   9.766  0.0211 -0.1261 -0.4043
 8092SOL    HW136335   4.381   3.286   9.838  0.8511 -0.4485 -1.0420
 8092SOL    HW236336   4.317   3.297   9.688 -0.2535  0.2336 -0.5291
 8093SOL     OW36337   2.081   6.395   1.412  0.2637 -0.3701 -0.0905
 8093SOL    HW136338   2.181   6.393   1.406  0.4266 -2.6690  2.4552
 8093SOL    HW236339   2.051   6.487   1.435  1.8519  0.1353 -0.0137
 8094SOL     OW36340   8.236   7.720   8.745  0.1582 -0.2581  0.2018
 8094SOL    HW136341   8.137   7.731   8.753  0.3661  0.3892  2.2839
 8094SOL    HW236342   8.278   7.808   8.728  0.5316 -0.1724  1.4778
 8095SOL     OW36343   9.915   9.949   9.271 -0.3954 -0.2821  0.2172
 8095SOL    HW136344   9.900   9.898   9.187  1.7562  0.0928 -0.4226
 8095SOL    HW236345   9.901   9.889   9.350  0.3790 -1.3984 -0.4822
 8096SOL     OW36346   7.105   4.884   0.502 -0.6355 -0.1503  0.5523
 8096SOL    HW136347   7.040   4.949   0.540  0.2773  0.5077  0.9978
 8096SOL    HW236348   7.197   4.906   0.534  0.0247 -0.1245 -1.2958
 8097SOL     OW36349   5.122   1.100   5.188  0.2994  0.1562 -0.1145
 8097SOL    HW136350   5.076   1.184   5.219  1.0709  0.9416 -1.0707
 8097SOL    HW236351   5.073   1.063   5.108 -0.3670 -0.6239  0.6433
 8098SOL     OW36352   3.112   2.331   6.113  0.2701 -0.2604 -0.0781
 8098SOL    HW136353   3.158   2.255   6.067  0.3624  0.0959 -0.5809
 8098SOL    HW236354   3.091   2.305   6.207  1.0573 -0.6118  0.0107
 8099SOL     OW36355   3.967   4.196   2.517 -0.3379  0.6332 -0.2811
 8099SOL    HW136356   3.892   4.216   2.580 -0.0984  2.7251 -0.6272
 8099SOL    HW236357   4.042   4.153   2.567 -0.5212  1.4353  0.7064
 8100SOL     OW36358   9.461   8.293   1.478  0.1604  0.1054  0.0455
 8100SOL    HW136359   9.486   8.240   1.396 -1.2002 -0.3635 -0.0804
 8100SOL    HW236360   9.544   8.322   1.525  0.9504 -0.8785 -0.7033
 8101SOL     OW36361   6.869   3.528   3.539 -0.1582  0.1328 -0.5045
 8101SOL    HW136362   6.908   3.620   3.535  1.5285 -0.5816 -0.8407
 8101SOL    HW236363   6.783   3.526   3.488  0.4879  1.1845 -1.6683
 8102SOL     OW36364   1.279   3.681   6.685  0.2303  0.1271 -0.5510
 8102SOL    HW136365   1.302   3.613   6.754 -2.3409 -1.6373 -1.3423
 8102SOL    HW236366   1.245   3.636   6.603  0.3419  2.2940 -1.8359
 8103SOL     OW36367   4.834   5.478   1.294  0.4020 -0.1188 -0.0681
 8103SOL    HW136368   4.860   5.418   1.218  1.4248 -0.3605  0.4758
 8103SOL    HW236369   4.817   5.423   1.376  0.4030  0.2468  0.1780
 8104SOL     OW36370   1.536   2.769   4.942  0.8193  0.6450 -0.0762
 8104SOL    HW136371   1.592   2.688   4.926  1.8941  1.2375  0.5837
 8104SOL    HW236372   1.570   2.844   4.884  1.9885  1.5650  1.7395
 8105SOL     OW36373   0.124   7.795   1.082  0.2213  0.1955 -0.1733
 8105SOL    HW136374   0.150   7.833   0.994 -1.2927  2.1733  0.2020
 8105SOL    HW236375   0.130   7.866   1.152 -1.5525 -0.5520  0.7546
 8106SOL     OW36376   7.587   8.401   8.387  0.2667 -0.4808 -0.1335
 8106SOL    HW136377   7.611   8.441   8.475 -1.4718  1.2872 -0.4516
 8106SOL    HW236378   7.608   8.303   8.389  1.8820 -0.1369  1.6181
 8107SOL     OW36379   7.702   2.577   0.118  0.9896 -0.0642 -0.0482
 8107SOL    HW136380   7.785   2.611   0.161  2.6252 -3.5808 -0.2780
 8107SOL    HW236381   7.710   2.585   0.019  0.9608 -0.1937 -0.0612
 8108SOL     OW36382   9.766   3.967   9.070 -0.4252 -0.4766 -0.1735
 8108SOL    HW136383   9.780   3.971   9.168 -2.2567 -0.1792  0.0971
 8108SOL    HW236384   9.802   3.881   9.034  0.6266 -0.3976  0.6832
 8109SOL     OW36385   7.102   9.022   2.759 -0.3488 -0.6960 -0.2041
 8109SOL    HW136386   7.006   8.995   2.752 -0.8796  0.0445  3.4500
 8109SOL    HW236387   7.159   8.940   2.764 -0.8288 -1.1344 -1.7035
 8110SOL     OW36388   7.057   8.787   5.347  0.2267  0.0187 -0.1984
 8110SOL    HW136389   6.957   8.785   5.345  0.2352  0.1232 -0.6995
 8110SOL    HW236390   7.089   8.751   5.435 -0.2895  1.3548  0.5546
 8111SOL     OW36391   0.560   3.411   3.425  0.1592 -0.1660 -0.1385
 8111SOL    HW136392   0.624   3.438   3.353  0.9987 -1.9968 -0.0921
 8111SOL    HW236393   0.498   3.340   3.391 -1.8705  1.5645 -0.1756
 8112SOL     OW36394   9.099   3.929   2.254 -0.4923 -0.7111  0.1586
 8112SOL    HW136395   9.155   4.008   2.277 -0.5811 -0.9744  1.3038
 8112SOL    HW236396   9.003   3.957   2.247 -0.8989 -1.1796  3.1923
 8113SOL     OW36397   7.162   1.742   8.440  0.2380 -0.1461 -0.4094
 8113SOL    HW136398   7.147   1.771   8.534 -0.6806  1.0364 -0.9028
 8113SOL    HW236399   7.073   1.724   8.396  0.6397 -0.2832 -1.1756
 8114SOL     OW36400   8.778   8.463   3.831 -0.1875  0.6757 -0.3960
 8114SOL    HW136401   8.780   8.449   3.930 -0.6719  0.5757 -0.3997
 8114SOL    HW236402   8.688   8.497   3.804  0.9148  3.8424 -0.3746
 8115SOL     OW36403   0.092   6.297   8.199  0.4076  0.1518 -0.8690
 8115SOL    HW136404   0.024   6.257   8.137  1.3303 -1.4408 -0.8537
 8115SOL    HW236405   0.046   6.332   8.280 -0.2777 -2.0657 -0.2698
 8116SOL     OW36406   1.824   6.451   9.202 -0.1776 -0.3228  0.4617
 8116SOL    HW136407   1.789   6.404   9.120 -1.5050  1.4618 -0.0197
 8116SOL    HW236408   1.749   6.498   9.248  0.4324 -1.9161  3.1548
 8117SOL     OW36409   9.962   4.649   2.435 -0.0137 -0.3122 -0.5580
 8117SOL    HW136410  10.013   4.694   2.509 -0.2622 -1.4124  0.3016
 8117SOL    HW236411   9.887   4.596   2.475 -0.0658 -1.0270 -1.6023
 8118SOL     OW36412   2.631   8.151   8.732 -0.3190 -0.3262 -0.0540
 8118SOL    HW136413   2.709   8.095   8.760 -0.8904 -0.0020  2.2753
 8118SOL    HW236414   2.655   8.203   8.650  2.5273  1.1328  1.6414
 8119SOL     OW36415   7.202   0.477   5.593  0.7400 -0.0932  0.5922
 8119SOL    HW136416   7.147   0.463   5.676 -0.6785  2.6937  0.1823
 8119SOL    HW236417   7.294   0.506   5.619  0.5701 -0.0906  1.2075
 8120SOL     OW36418   3.269   9.341   0.931  0.4471 -0.4266 -0.4383
 8120SOL    HW136419   3.245   9.432   0.896 -1.0512 -0.7731 -0.3372
 8120SOL    HW236420   3.283   9.278   0.855 -0.5370 -0.6128 -0.4683
 8121SOL     OW36421   0.102   1.426   3.914  0.4925 -0.0399  0.1552
 8121SOL    HW136422   0.106   1.513   3.865  1.0194 -0.4396 -0.5173
 8121SOL    HW236423   0.194   1.397   3.939  0.0842  1.5046  3.8145
 8122SOL     OW36424   4.616   5.089   2.129 -0.1990 -0.5586 -0.1370
 8122SOL    HW136425   4.709   5.089   2.091 -1.0664 -2.0552 -2.3160
 8122SOL    HW236426   4.559   5.026   2.078 -2.5241  0.5697  1.0003
 8123SOL     OW36427   3.500   4.729   7.822  0.1250  0.0317  0.4490
 8123SOL    HW136428   3.463   4.797   7.886 -1.0680  0.1724 -0.3672
 8123SOL    HW236429   3.590   4.758   7.791 -1.9927  3.4571 -3.0853
 8124SOL     OW36430   8.154   9.344   9.496  0.4260 -0.6147  0.1508
 8124SOL    HW136431   8.124   9.325   9.402  1.1804 -0.3975 -0.1403
 8124SOL    HW236432   8.075   9.344   9.557  0.3424 -4.2353  0.1031
 8125SOL     OW36433   4.976   9.872   7.681  0.2795  0.0991  0.0579
 8125SOL    HW136434   5.037   9.797   7.705  1.0946  1.2509  1.7166
 8125SOL    HW236435   4.903   9.839   7.621  0.8404 -1.9068  0.4604
 8126SOL     OW36436   4.663   7.233   4.897  0.0490 -0.5101  0.1938
 8126SOL    HW136437   4.608   7.195   4.822 -0.9907 -0.1605  0.7658
 8126SOL    HW236438   4.740   7.172   4.916 -0.2787 -1.1364 -0.4585
 8127SOL     OW36439   6.677   0.939   7.016  0.0449  0.6381 -0.0035
 8127SOL    HW136440   6.588   0.899   6.991  1.5177 -1.8974 -1.3701
 8127SOL    HW236441   6.727   0.875   7.074  0.9127  2.1569  0.9542
 8128SOL     OW36442   0.563   1.143   1.070 -0.1208 -0.0706 -0.1193
 8128SOL    HW136443   0.584   1.050   1.101 -0.6247 -0.1261  0.0658
 8128SOL    HW236444   0.637   1.177   1.012  0.9091  0.0789  1.2466
 8129SOL     OW36445   1.954   2.163   9.579  0.5819 -0.1175  0.1724
 8129SOL    HW136446   1.898   2.100   9.524  0.4699  0.6555 -0.6039
 8129SOL    HW236447   2.043   2.175   9.535  0.2823  0.9556 -0.1510
 8130SOL     OW36448   3.183   6.819   1.271 -0.0964 -0.2011  0.2031
 8130SOL    HW136449   3.245   6.898   1.278  0.4000 -0.5663 -0.1025
 8130SOL    HW236450   3.120   6.832   1.195 -0.6965  0.3775  0.7855
 8131SOL     OW36451   6.199   4.705   8.146 -0.2820  0.5845 -0.8041
 8131SOL    HW136452   6.257   4.633   8.109  1.6325  1.6443  0.1052
 8131SOL    HW236453   6.164   4.676   8.236 -0.2755  0.4054 -0.8573
 8132SOL     OW36454   1.181   6.823   4.406 -0.3712  0.1371 -0.1023
 8132SOL    HW136455   1.260   6.879   4.381  0.8821 -1.5302 -0.0245
 8132SOL    HW236456   1.141   6.857   4.490 -0.4387  1.6943 -0.7555
 8133SOL     OW36457   6.821   5.313   1.467  0.4561 -0.2870  0.1043
 8133SOL    HW136458   6.746   5.316   1.533  0.0653 -0.6290 -0.3301
 8133SOL    HW236459   6.878   5.395   1.479  0.3574 -0.3130  0.8260
 8134SOL     OW36460   8.098   6.443   2.620 -0.2508  0.9482  0.2495
 8134SOL    HW136461   8.055   6.408   2.537 -0.6917  1.1778  0.3803
 8134SOL    HW236462   8.194   6.417   2.621 -0.3538  0.5501 -0.1103
 8135SOL     OW36463   5.210   7.698   3.206  0.3008 -0.6456 -0.3137
 8135SOL    HW136464   5.257   7.641   3.273  0.5918 -0.5926 -0.4718
 8135SOL    HW236465   5.197   7.790   3.244 -1.7274 -1.2885  0.6204
 8136SOL     OW36466   5.181   1.883   5.882 -0.2403  0.4161  0.3361
 8136SOL    HW136467   5.127   1.893   5.799  0.2511 -0.6054 -0.1082
 8136SOL    HW236468   5.161   1.794   5.924  1.4870 -0.2126 -0.1280
 8137SOL     OW36469   0.887   7.932   9.485 -0.5246  0.1224 -0.5999
 8137SOL    HW136470   0.976   7.977   9.484 -0.2424 -0.4390 -1.0428
 8137SOL    HW236471   0.857   7.916   9.391 -0.7187 -0.4226 -0.4450
 8138SOL     OW36472   2.356   2.837   5.102  0.4287  0.4011  0.1888
 8138SOL    HW136473   2.455   2.849   5.102  0.4247  0.4412  0.7484
 8138SOL    HW236474   2.318   2.871   5.187 -0.1055  0.6674 -0.1521
 8139SOL     OW36475   2.812   1.131   0.864  0.0099 -0.1781 -0.2045
 8139SOL    HW136476   2.730   1.164   0.910  0.7717  0.4798  0.7029
 8139SOL    HW236477   2.860   1.209   0.822  1.7772 -0.1004  1.8713
 8140SOL     OW36478   5.422   6.828   1.703  0.0356  0.8374 -0.2224
 8140SOL    HW136479   5.501   6.789   1.749 -1.0934 -1.4228 -0.1187
 8140SOL    HW236480   5.449   6.864   1.614  1.0430 -0.7392 -0.5714
 8141SOL     OW36481   7.022   0.082   5.088  1.0832 -0.1631 -0.0708
 8141SOL    HW136482   6.956   0.080   5.012  0.5697  2.5413  0.2665
 8141SOL    HW236483   7.106   0.036   5.061  0.3610 -0.5140 -1.7583
 8142SOL     OW36484   3.164   2.816   1.422  0.1016 -0.0077 -0.2278
 8142SOL    HW136485   3.077   2.864   1.436  0.3266  0.4292 -0.3255
 8142SOL    HW236486   3.193   2.774   1.508 -0.8319 -1.2018 -0.4899
 8143SOL     OW36487   2.500   2.307   3.190 -0.3155 -0.1969 -0.2549
 8143SOL    HW136488   2.557   2.227   3.171 -0.9431 -0.6469 -0.2608
 8143SOL    HW236489   2.502   2.326   3.289 -0.6253 -0.5721 -0.1744
 8144SOL     OW36490   4.187   1.946   3.042  0.2287  0.3843 -0.3943
 8144SOL    HW136491   4.135   2.002   2.978 -0.1079 -0.0680 -0.5187
 8144SOL    HW236492   4.126   1.910   3.112  0.4887  0.3743 -0.1720
 8145SOL     OW36493   8.120   6.511   5.923 -0.1211  0.3982  0.5821
 8145SOL    HW136494   8.035   6.493   5.874 -0.1471 -2.7720  1.6846
 8145SOL    HW236495   8.189   6.443   5.898  0.9959  0.8643  2.2574
 8146SOL     OW36496   2.883   3.463   1.315  0.1337  0.1308 -0.3744
 8146SOL    HW136497   2.974   3.424   1.326 -0.6704 -1.5617  0.4025
 8146SOL    HW236498   2.826   3.400   1.262 -0.5829  1.1995 -0.8957
 8147SOL     OW36499   3.543   0.180   3.777 -0.9863 -1.0654  0.9022
 8147SOL    HW136500   3.544   0.250   3.706  0.3432 -1.4138  0.5562
 8147SOL    HW236501   3.548   0.223   3.867  1.6599 -0.7353  0.6488
 8148SOL     OW36502   1.228   1.826   6.677  0.4950 -0.8310  0.3813
 8148SOL    HW136503   1.287   1.806   6.598 -0.6805  2.4993 -1.4239
 8148SOL    HW236504   1.137   1.786   6.661 -0.3275  1.4675 -0.9020
 8149SOL     OW36505   7.177   7.886   3.745  0.6363 -0.4221  0.6785
 8149SOL    HW136506   7.104   7.947   3.776  0.7647  0.1138 -0.0665
 8149SOL    HW236507   7.261   7.939   3.732 -0.5874  0.3728 -5.2739
 8150SOL     OW36508   9.790   4.569   8.845 -0.6168  0.1613 -0.1101
 8150SOL    HW136509   9.797   4.664   8.877  1.2385  0.1491 -0.4596
 8150SOL    HW236510   9.871   4.518   8.874  0.2572 -0.3180 -3.2371
 8151SOL     OW36511   8.205   7.868   9.411  0.5580  0.0289  0.3424
 8151SOL    HW136512   8.144   7.947   9.412 -0.1961 -0.5293 -0.1611
 8151SOL    HW236513   8.288   7.888   9.463 -0.3051  0.6117  1.5090
 8152SOL     OW36514   4.936   0.207   8.096  0.0234 -0.0867  0.1561
 8152SOL    HW136515   4.902   0.287   8.046  3.5790  0.4084 -1.5822
 8152SOL    HW236516   4.938   0.227   8.194 -0.6201  1.3460 -0.1159
 8153SOL     OW36517   2.487   5.167   7.305 -1.1395  0.5479  0.0894
 8153SOL    HW136518   2.506   5.179   7.208 -2.5194  0.3230 -0.2111
 8153SOL    HW236519   2.401   5.212   7.329 -0.8762  0.4912  1.1749
 8154SOL     OW36520   9.973   8.911   7.110  0.7062 -0.1933 -0.1172
 8154SOL    HW136521  10.028   8.993   7.093 -1.1768  1.7488  2.8002
 8154SOL    HW236522   9.883   8.922   7.067  1.1582 -1.6942 -1.5174
 8155SOL     OW36523   7.485   1.399   1.772  0.2352 -0.3560 -0.0070
 8155SOL    HW136524   7.506   1.307   1.738 -0.9639 -0.6317 -0.0190
 8155SOL    HW236525   7.386   1.413   1.771  0.4771  1.5089 -1.5029
 8156SOL     OW36526   0.013   5.505   9.841  0.2291  0.1861 -0.0010
 8156SOL    HW136527   0.051   5.417   9.815 -1.8408 -0.5903 -0.5053
 8156SOL    HW236528  -0.058   5.492   9.911  1.5760  1.6913  1.7176
 8157SOL     OW36529   6.789   4.230   1.734  0.6370  0.0453 -0.3077
 8157SOL    HW136530   6.835   4.157   1.684  0.8729  0.2416 -0.3833
 8157SOL    HW236531   6.696   4.241   1.700  0.6533 -0.1159 -0.4043
 8158SOL     OW36532   9.827   7.546   1.392  0.1135  0.5389  0.8041
 8158SOL    HW136533   9.870   7.557   1.303 -0.8136  1.5432  0.4601
 8158SOL    HW236534   9.866   7.612   1.456  0.0378  0.5387  0.8511
 8159SOL     OW36535   1.940   2.706   7.121 -0.5010  0.2515 -0.1878
 8159SOL    HW136536   1.879   2.647   7.068 -1.4933 -0.3430  1.5735
 8159SOL    HW236537   2.023   2.656   7.143 -0.6012  0.0993 -0.1555
 8160SOL     OW36538   9.043   9.990   8.293 -0.1109  0.1841  0.2476
 8160SOL    HW136539   9.112   9.930   8.332 -0.1927  0.2409  0.4872
 8160SOL    HW236540   9.054   9.996   8.194  0.0786  0.0098  0.2592
 8161SOL     OW36541   8.120   1.326   3.074 -0.1222 -0.2835 -0.1767
 8161SOL    HW136542   8.218   1.345   3.070 -0.0417 -0.1279  1.7355
 8161SOL    HW236543   8.068   1.405   3.042  0.3475  0.4773  0.9266
 8162SOL     OW36544   5.442   0.917   4.690  0.1644  0.0456  0.2248
 8162SOL    HW136545   5.463   0.876   4.601  1.1998 -1.3750  1.0961
 8162SOL    HW236546   5.522   0.909   4.750 -0.4153  1.2797  1.1811
 8163SOL     OW36547   9.741   9.770   6.429 -0.1785  0.6674  0.1669
 8163SOL    HW136548   9.727   9.750   6.526  0.8732  1.0946  0.4058
 8163SOL    HW236549   9.790   9.856   6.419  0.2516  0.3256 -0.7246
 8164SOL     OW36550   4.809   4.534   9.382  0.1922  0.5748 -0.0540
 8164SOL    HW136551   4.791   4.623   9.424  1.3364 -0.7060  3.2596
 8164SOL    HW236552   4.779   4.461   9.443  1.2390 -1.3661 -1.7957
 8165SOL     OW36553   4.951   2.287   0.421  0.0942 -0.2018 -0.2387
 8165SOL    HW136554   4.983   2.263   0.513  1.6884 -1.5397 -1.1306
 8165SOL    HW236555   5.025   2.330   0.370 -0.8586  0.7614 -0.8410
 8166SOL     OW36556   7.248   5.088   4.115  0.0802  1.1937  0.0713
 8166SOL    HW136557   7.264   5.050   4.024  0.3556  0.0318  0.5937
 8166SOL    HW236558   7.164   5.142   4.114 -0.4221  0.4142 -0.6526
 8167SOL     OW36559   7.614   8.344   3.766 -0.7243 -0.3956 -0.0341
 8167SOL    HW136560   7.640   8.436   3.796 -1.0977 -0.7320  1.3783
 8167SOL    HW236561   7.679   8.277   3.802  0.1024 -0.6010 -1.8638
 8168SOL     OW36562   7.995   0.034   8.031  0.1559 -0.1213  0.5232
 8168SOL    HW136563   8.029   0.029   7.937  0.4878 -0.7148  0.6739
 8168SOL    HW236564   7.899   0.006   8.033 -0.1419  0.8357  0.2160
 8169SOL     OW36565   5.106   1.991   0.341  0.2512  0.5688  0.7195
 8169SOL    HW136566   5.153   2.061   0.288  1.4668  0.9250  2.2100
 8169SOL    HW236567   5.173   1.934   0.387 -0.7647  0.1540  1.7117
 8170SOL     OW36568   6.662   6.944   5.354  0.2503  0.3086  0.0042
 8170SOL    HW136569   6.583   6.939   5.416  0.9552 -0.2864  0.8754
 8170SOL    HW236570   6.681   6.853   5.317  0.3908  0.4936 -0.3815
 8171SOL     OW36571   0.549   4.054   1.677 -0.2093 -0.0346 -0.5892
 8171SOL    HW136572   0.623   4.118   1.661 -0.3380 -0.1196 -1.5557
 8171SOL    HW236573   0.575   3.990   1.749 -0.0254  1.0044  0.2871
 8172SOL     OW36574   4.881   6.714   1.018  0.8489  0.2147  0.5211
 8172SOL    HW136575   4.938   6.735   0.938 -0.2688 -0.7923 -0.5539
 8172SOL    HW236576   4.893   6.618   1.043 -2.1156 -0.6649 -1.1824
 8173SOL     OW36577   4.491   3.731   3.654 -0.3377  0.1681  0.2206
 8173SOL    HW136578   4.514   3.772   3.742  1.7168 -0.1031 -0.1750
 8173SOL    HW236579   4.541   3.777   3.581 -0.2338 -1.1265 -0.5429
 8174SOL     OW36580   8.405   2.660   0.357  0.3892  0.0768  0.5979
 8174SOL    HW136581   8.405   2.743   0.414 -0.7340  0.6588 -0.2260
 8174SOL    HW236582   8.489   2.658   0.302  1.3401 -0.3354  2.0162
 8175SOL     OW36583   5.676   1.818   9.480  0.1520 -0.5851 -0.2454
 8175SOL    HW136584   5.616   1.846   9.554  2.1780 -0.9743  1.6126
 8175SOL    HW236585   5.666   1.720   9.463 -0.0896 -0.5560 -0.2621
 8176SOL     OW36586   3.523   2.226   6.114  0.0279 -0.4545 -0.3796
 8176SOL    HW136587   3.586   2.157   6.080  0.2667 -0.0568 -0.7425
 8176SOL    HW236588   3.526   2.228   6.214  0.0508 -0.9364 -0.3718
 8177SOL     OW36589   1.510   6.694   9.850  0.1011 -0.1980 -0.1614
 8177SOL    HW136590   1.569   6.712   9.771 -0.5797  0.1387 -0.6025
 8177SOL    HW236591   1.420   6.734   9.833 -0.1970 -0.5554  0.5801
 8178SOL     OW36592   0.892   5.238   9.037  0.5777 -0.0614  0.0910
 8178SOL    HW136593   0.906   5.336   9.023 -0.5811  0.0276 -0.5549
 8178SOL    HW236594   0.813   5.223   9.097 -1.7521 -0.5954 -2.9137
 8179SOL     OW36595   4.228   7.757   9.980  0.7901 -0.6252 -0.2433
 8179SOL    HW136596   4.186   7.766  10.070  2.0212 -0.6683  0.3433
 8179SOL    HW236597   4.187   7.824   9.918  2.0389  1.4911  1.1434
 8180SOL     OW36598   9.855   2.713   3.826  0.6421 -0.7564 -0.1772
 8180SOL    HW136599   9.943   2.696   3.870 -0.1657 -1.0847  1.3530
 8180SOL    HW236600   9.870   2.749   3.734  2.3816 -0.1677  0.3139
 8181SOL     OW36601   5.687   7.915   7.802  0.2899 -0.3141  0.2929
 8181SOL    HW136602   5.720   7.821   7.799 -1.3000 -0.8975  0.3549
 8181SOL    HW236603   5.706   7.955   7.891 -0.2379 -1.0386  0.7325
 8182SOL     OW36604   9.287   5.922   1.945 -0.9474  0.6473 -0.2078
 8182SOL    HW136605   9.269   5.825   1.960  0.1812  0.5510  0.5587
 8182SOL    HW236606   9.293   5.940   1.847  0.8446 -0.4374 -0.3191
 8183SOL     OW36607   9.005   5.860   0.575 -0.2419  0.7551 -0.4720
 8183SOL    HW136608   8.945   5.824   0.646  0.6097  1.0292  0.3882
 8183SOL    HW236609   8.985   5.814   0.488 -0.3526 -0.5440  0.2392
 8184SOL     OW36610   1.122   4.747   5.101  0.3829  0.1084  0.1932
 8184SOL    HW136611   1.090   4.715   5.012  0.5289  0.0286  0.1696
 8184SOL    HW236612   1.119   4.672   5.167 -2.2431  0.8074  0.9301
 8185SOL     OW36613   1.801   6.334   8.387  0.0933  0.3664 -0.1407
 8185SOL    HW136614   1.842   6.335   8.478 -2.3516 -0.6335  1.0312
 8185SOL    HW236615   1.873   6.338   8.317  1.9235  3.2328  1.8031
 8186SOL     OW36616   7.895   1.876   9.739  0.4231  0.5835  0.0888
 8186SOL    HW136617   7.799   1.902   9.728  0.6460  1.5468  0.3615
 8186SOL    HW236618   7.920   1.884   9.836  0.8894  0.7456 -0.0447
 8187SOL     OW36619   9.712   5.941   1.660  0.1289 -0.4187  0.1044
 8187SOL    HW136620   9.776   5.979   1.594  1.4036 -1.4730  0.7124
 8187SOL    HW236621   9.759   5.873   1.717 -0.9810  0.3439  1.9778
 8188SOL     OW36622   1.543   3.909   3.815 -0.5541  0.2926  0.3914
 8188SOL    HW136623   1.514   3.837   3.752  0.4938  0.1139  0.0976
 8188SOL    HW236624   1.638   3.934   3.795 -0.7541  1.4176  0.8047
 8189SOL     OW36625   0.523   0.892   4.372 -0.6173 -0.1264 -0.0340
 8189SOL    HW136626   0.576   0.811   4.399 -0.1945  0.3136  0.4616
 8189SOL    HW236627   0.529   0.902   4.272 -0.1974 -0.3834 -0.0408
 8190SOL     OW36628   5.226   5.079   6.882  0.1998  0.4121 -0.2193
 8190SOL    HW136629   5.190   4.990   6.855  0.8391 -0.0032  0.2999
 8190SOL    HW236630   5.151   5.144   6.888 -0.3674 -0.2742  0.1458
 8191SOL     OW36631   5.543   8.736   3.710  0.2502 -0.1177  0.1641
 8191SOL    HW136632   5.448   8.731   3.743  0.5362 -0.3978  0.9594
 8191SOL    HW236633   5.605   8.705   3.782  0.9745  0.3582 -0.2508
 8192SOL     OW36634   1.357   9.129   7.158  0.1796  0.0041  0.2473
 8192SOL    HW136635   1.356   9.218   7.113  2.1415 -0.0325  0.0760
 8192SOL    HW236636   1.290   9.069   7.115 -1.5092  1.5452  0.6911
 8193SOL     OW36637   8.788   6.118   5.516  0.0341 -0.4382  0.0388
 8193SOL    HW136638   8.822   6.179   5.588 -0.9688  1.0097 -0.7006
 8193SOL    HW236639   8.837   6.136   5.431 -1.8072  0.9385 -0.7669
 8194SOL     OW36640   0.074   0.599   2.566  0.5970 -0.2699 -0.4990
 8194SOL    HW136641  -0.009   0.556   2.601  1.6358 -1.5402  0.4589
 8194SOL    HW236642   0.107   0.667   2.631  0.8711 -0.4943 -0.4019
 8195SOL     OW36643   2.435   4.128   0.049 -0.0414  0.2312 -0.0089
 8195SOL    HW136644   2.366   4.111  -0.022  0.0775  0.2436 -0.1276
 8195SOL    HW236645   2.455   4.226   0.052 -0.2622  0.2707  0.2437
 8196SOL     OW36646   0.474   9.436   1.001  0.0549 -0.0668  0.0769
 8196SOL    HW136647   0.395   9.432   1.063 -0.0532 -1.9459 -0.1519
 8196SOL    HW236648   0.539   9.504   1.035 -2.0119  2.1390 -0.1888
 8197SOL     OW36649   3.576   4.566   3.290  0.4131 -0.0700 -0.4508
 8197SOL    HW136650   3.488   4.604   3.318  0.4608  0.8923 -1.6017
 8197SOL    HW236651   3.610   4.505   3.362 -0.4182  0.8180  0.7040
 8198SOL     OW36652   0.851   3.756   8.199  0.2704  0.6243  0.2923
 8198SOL    HW136653   0.933   3.788   8.247 -0.6849  0.8295  1.8049
 8198SOL    HW236654   0.810   3.833   8.149  0.2313  0.8327  0.6441
 8199SOL     OW36655   9.999   0.883   6.815 -0.5588 -0.1784  0.5527
 8199SOL    HW136656  10.030   0.797   6.775 -1.8818 -0.5920  0.4044
 8199SOL    HW236657  10.043   0.896   6.904  2.8233  1.0064 -1.2017
 8200SOL     OW36658   5.083   1.143   7.884 -0.2463 -0.5439 -0.2444
 8200SOL    HW136659   5.076   1.045   7.867 -2.8250 -0.5798  0.6985
 8200SOL    HW236660   4.993   1.179   7.909  0.3127  2.3515 -2.0407
 8201SOL     OW36661   2.187   2.248   4.810 -0.3147  0.1241  0.4977
 8201SOL    HW136662   2.144   2.160   4.793 -0.2742  0.2197 -0.1094
 8201SOL    HW236663   2.203   2.259   4.908 -0.7274 -0.3493  0.6176
 8202SOL     OW36664   2.811   1.797   0.548  0.1219  0.5703  0.4654
 8202SOL    HW136665   2.815   1.844   0.460 -1.7434  0.0274  0.0538
 8202SOL    HW236666   2.832   1.861   0.621 -0.7795  1.6648 -0.2067
 8203SOL     OW36667   8.488   6.336   6.041 -0.7121 -0.1926  0.3194
 8203SOL    HW136668   8.450   6.247   6.016  0.3809 -0.4988 -0.2896
 8203SOL    HW236669   8.428   6.381   6.107  0.0995 -2.6145  2.8379
 8204SOL     OW36670   2.335   1.274   4.642  0.0487  0.0716  0.1091
 8204SOL    HW136671   2.392   1.204   4.685 -1.1328 -0.2130  1.2417
 8204SOL    HW236672   2.254   1.231   4.603  0.2124  0.5808 -0.7968
 8205SOL     OW36673   1.583   4.754   6.339 -0.6072  0.1994 -0.2264
 8205SOL    HW136674   1.499   4.795   6.302 -1.2444  1.2848  2.2464
 8205SOL    HW236675   1.562   4.665   6.379 -0.1854 -0.4047 -1.3548
 8206SOL     OW36676   3.423   3.808   6.171  0.5353 -0.1411  0.3606
 8206SOL    HW136677   3.420   3.777   6.266  0.0362 -1.3931 -0.0443
 8206SOL    HW236678   3.355   3.880   6.157  1.5820  1.0308  1.2839
 8207SOL     OW36679   2.135   8.576   2.173  0.5055 -0.7873  0.1622
 8207SOL    HW136680   2.065   8.578   2.244  0.6391 -0.2623  0.2810
 8207SOL    HW236681   2.094   8.599   2.085  0.7301  0.6708  0.4130
 8208SOL     OW36682   4.105   5.787   8.364  0.1692 -0.0382 -0.2841
 8208SOL    HW136683   4.182   5.849   8.378  0.8574 -1.0596  0.5674
 8208SOL    HW236684   4.024   5.824   8.409 -0.1617  1.6276 -2.1938
 8209SOL     OW36685   0.101   3.980   7.414  0.1980 -0.4694 -0.3724
 8209SOL    HW136686   0.113   4.071   7.375 -0.2094  0.1520  0.9446
 8209SOL    HW236687   0.044   3.925   7.353 -0.3328  0.4510 -0.7166
 8210SOL     OW36688   3.442   9.099   4.746  0.3646 -0.0680 -0.1097
 8210SOL    HW136689   3.363   9.041   4.768 -0.0384  0.1644 -0.9294
 8210SOL    HW236690   3.526   9.045   4.754  0.3152  0.1916  2.6975
 8211SOL     OW36691   5.939   8.262   6.370 -0.2202  0.0076 -0.2892
 8211SOL    HW136692   5.908   8.305   6.455 -0.2495  0.3037 -0.4484
 8211SOL    HW236693   5.975   8.332   6.308  0.5083 -0.2966 -0.2185
 8212SOL     OW36694   1.802   8.963   3.949 -0.2281  0.6781  0.3212
 8212SOL    HW136695   1.745   9.036   3.988 -0.2968  2.0259 -2.2364
 8212SOL    HW236696   1.856   8.999   3.873 -1.0228 -2.1405 -1.6639
 8213SOL     OW36697   8.024   7.423   1.095 -0.6964  0.2338  0.1648
 8213SOL    HW136698   8.048   7.519   1.107 -2.3968  0.4177  2.4164
 8213SOL    HW236699   7.985   7.410   1.004 -1.6934  1.9655  0.3235
 8214SOL     OW36700   0.516   2.646   6.746  0.5423  0.1308 -0.4499
 8214SOL    HW136701   0.593   2.690   6.700  0.7747 -0.7138 -0.8833
 8214SOL    HW236702   0.497   2.694   6.832  1.8104  0.1183 -0.1464
 8215SOL     OW36703   9.433   1.185   7.678 -0.6267 -0.2504 -0.5561
 8215SOL    HW136704   9.339   1.150   7.685 -0.6492 -0.3033 -1.0789
 8215SOL    HW236705   9.495   1.123   7.726 -1.0885  0.7841  1.4532
 8216SOL     OW36706   9.347   7.244   9.416 -0.6704 -0.5217 -0.3774
 8216SOL    HW136707   9.320   7.220   9.509 -2.1003 -1.1889 -0.9518
 8216SOL    HW236708   9.379   7.161   9.368 -0.1880 -0.2292 -0.5745
 8217SOL     OW36709   3.681   7.417   6.533  0.1013 -0.3570  0.3988
 8217SOL    HW136710   3.746   7.406   6.458 -0.4359  1.5980 -0.3618
 8217SOL    HW236711   3.651   7.326   6.564  2.2746 -1.2430 -0.0139
 8218SOL     OW36712   3.738   4.783   8.166 -0.2874  0.1811  0.2059
 8218SOL    HW136713   3.652   4.829   8.185 -0.2000  0.4541 -0.0614
 8218SOL    HW236714   3.729   4.685   8.186 -0.2233  0.4481  1.5931
 8219SOL     OW36715   2.095   3.944   4.681  0.3968 -0.1681 -0.0383
 8219SOL    HW136716   2.014   3.958   4.737  1.1902  1.4378  0.7436
 8219SOL    HW236717   2.074   3.963   4.585 -0.6335 -1.6624 -0.1255
 8220SOL     OW36718   1.335   0.022   6.297 -0.0224 -0.2454  0.0024
 8220SOL    HW136719   1.433   0.026   6.314  0.2086 -1.9568 -0.8436
 8220SOL    HW236720   1.307  -0.072   6.279 -2.0156  0.0490  1.3054
 8221SOL     OW36721   2.938   1.903   6.018  0.3589  0.3026 -0.3489
 8221SOL    HW136722   2.895   1.954   6.092 -0.7653 -1.9710  0.6211
 8221SOL    HW236723   2.925   1.953   5.932 -2.0733  0.9087  0.3160
 8222SOL     OW36724   4.223   2.218   3.397  0.5185  0.2714  0.0590
 8222SOL    HW136725   4.174   2.297   3.434 -0.2495  0.5875 -1.5765
 8222SOL    HW236726   4.164   2.138   3.398  0.8546  0.0268  0.4930
 8223SOL     OW36727   5.706   9.594   5.274 -0.1799 -0.1151 -0.0725
 8223SOL    HW136728   5.609   9.576   5.292 -1.1272  2.6803 -2.0295
 8223SOL    HW236729   5.731   9.556   5.186  0.4548 -0.5808  0.3025
 8224SOL     OW36730   9.184   4.709   1.755  0.3329  0.2730 -0.7766
 8224SOL    HW136731   9.113   4.679   1.819  1.0578  0.3105  0.0641
 8224SOL    HW236732   9.269   4.660   1.775  1.4171  2.5113  0.3097
 8225SOL     OW36733   2.325   0.742   8.118  0.4010  0.9214 -0.2338
 8225SOL    HW136734   2.279   0.654   8.108  0.4109  1.0626 -1.6317
 8225SOL    HW236735   2.421   0.727   8.142  0.4266  0.5435 -0.5691
 8226SOL     OW36736   6.933   4.389   0.713  0.6085 -1.1699  0.0572
 8226SOL    HW136737   6.919   4.465   0.650  1.0011  0.1072  1.5111
 8226SOL    HW236738   6.984   4.420   0.793 -1.7005 -2.2916  2.0092
 8227SOL     OW36739   1.737   7.839   1.331 -0.4285 -0.7284 -1.1318
 8227SOL    HW136740   1.810   7.770   1.340  0.5160  0.3373 -0.5127
 8227SOL    HW236741   1.776   7.930   1.345 -2.0863 -0.2183  0.2084
 8228SOL     OW36742   1.464   0.279   8.164 -0.3391  0.2676  0.9336
 8228SOL    HW136743   1.373   0.310   8.189 -0.4829  1.1500 -0.6203
 8228SOL    HW236744   1.462   0.180   8.146 -1.2096  0.4618 -0.0732
 8229SOL     OW36745   8.281   5.729   4.644  0.1063  0.3203  0.2208
 8229SOL    HW136746   8.308   5.634   4.626 -0.5246 -0.0132  0.9754
 8229SOL    HW236747   8.363   5.783   4.664  0.4878 -0.0217 -0.3833
 8230SOL     OW36748   3.133   0.274   6.427 -0.7647  0.5954  0.2681
 8230SOL    HW136749   3.167   0.244   6.516 -1.1762 -0.8775 -0.0645
 8230SOL    HW236750   3.129   0.196   6.364  1.7302  2.0318 -1.7680
 8231SOL     OW36751   8.900   7.632   4.071 -0.1992  0.1083 -0.3415
 8231SOL    HW136752   8.860   7.700   4.132  0.4573  1.1665 -1.0706
 8231SOL    HW236753   8.936   7.678   3.990 -0.6902 -1.2349 -1.3314
 8232SOL     OW36754   0.379   2.184   9.830  0.9371  0.1439 -0.2038
 8232SOL    HW136755   0.296   2.139   9.864  1.3396 -1.8128 -1.7288
 8232SOL    HW236756   0.358   2.230   9.744  1.0864  0.9400  0.1818
 8233SOL     OW36757   9.942   1.320   8.245  0.5535 -0.3083  0.4285
 8233SOL    HW136758   9.934   1.256   8.321 -0.1455  0.6920  1.2200
 8233SOL    HW236759   9.854   1.367   8.233  1.2216  0.8986  0.2218
 8234SOL     OW36760   4.714   2.639   8.373  0.1255  0.3328 -0.4987
 8234SOL    HW136761   4.799   2.673   8.413 -0.2928 -0.5856  1.2017
 8234SOL    HW236762   4.727   2.625   8.275  1.9275  0.2260 -0.2616
 8235SOL     OW36763   8.153   2.259   1.377  0.4751 -0.3184  0.3677
 8235SOL    HW136764   8.077   2.212   1.333  1.8038 -1.0976 -1.1481
 8235SOL    HW236765   8.124   2.350   1.405 -1.0760 -0.6850  0.0127
 8236SOL     OW36766   7.950   8.997   8.063 -0.0263  0.4605 -0.2253
 8236SOL    HW136767   7.872   8.946   8.026 -0.0427 -0.0250  0.4584
 8236SOL    HW236768   8.021   8.932   8.091  0.2566  0.8546 -0.0309
 8237SOL     OW36769   2.069   5.046   9.198 -0.4775 -0.0293 -0.1129
 8237SOL    HW136770   2.165   5.058   9.173 -0.7258 -0.2932 -1.2416
 8237SOL    HW236771   2.024   5.136   9.199 -0.4007  0.0155 -0.4028
 8238SOL     OW36772   0.686   3.930   4.875 -0.1589 -0.1275 -0.3188
 8238SOL    HW136773   0.624   3.967   4.807  0.0607  0.6570 -0.0932
 8238SOL    HW236774   0.779   3.963   4.858  0.2226 -1.4063 -0.7402
 8239SOL     OW36775   1.912   3.138   1.113 -0.0738  0.1324  0.0022
 8239SOL    HW136776   1.854   3.057   1.107  0.1410  0.0469 -1.0025
 8239SOL    HW236777   1.951   3.144   1.205 -1.7771  0.2672  0.7393
 8240SOL     OW36778   8.536   1.486   2.697  0.2999 -0.3222 -0.0975
 8240SOL    HW136779   8.556   1.558   2.764  1.4311  0.0639 -0.8267
 8240SOL    HW236780   8.613   1.422   2.694  0.1899 -0.4247 -0.8938
 8241SOL     OW36781   4.219   7.843   5.363  0.3021 -0.5672  0.6369
 8241SOL    HW136782   4.250   7.834   5.458 -1.3412 -0.7849  1.1532
 8241SOL    HW236783   4.216   7.752   5.321  4.1807 -0.2072 -0.6762
 8242SOL     OW36784   7.847   9.878   1.998 -0.0242 -0.2521 -0.0816
 8242SOL    HW136785   7.825   9.831   2.083 -1.1959  0.6133  0.1078
 8242SOL    HW236786   7.875   9.972   2.017  0.6397 -0.3487 -0.5740
 8243SOL     OW36787   6.590   2.939   2.202 -0.1677  0.4060  0.3007
 8243SOL    HW136788   6.591   3.012   2.135  1.1228 -0.4798 -0.6684
 8243SOL    HW236789   6.538   2.968   2.282 -0.4698  2.0185 -0.4632
 8244SOL     OW36790   7.582   3.956   6.262  0.3261 -0.1726 -0.7526
 8244SOL    HW136791   7.621   3.995   6.345 -0.9474 -0.6997  0.1052
 8244SOL    HW236792   7.545   3.865   6.281 -0.9938  0.1638 -1.6285
 8245SOL     OW36793   2.269   4.855   9.997 -0.0488 -0.2123  0.1092
 8245SOL    HW136794   2.250   4.819   9.906 -1.5940 -1.8784  1.0629
 8245SOL    HW236795   2.211   4.935  10.014  1.8197  1.4589 -1.1766
 8246SOL     OW36796   7.935   5.118   6.199  0.2392  0.1885 -0.6172
 8246SOL    HW136797   7.942   5.112   6.298  1.7134  2.5672 -0.5132
 8246SOL    HW236798   8.006   5.061   6.157 -0.6260 -1.1109 -0.3236
 8247SOL     OW36799   9.743   3.497   1.067 -0.3025  0.0652  0.0439
 8247SOL    HW136800   9.695   3.443   0.998  0.6799  2.5235 -2.6494
 8247SOL    HW236801   9.840   3.472   1.067 -0.1976  0.4802  0.1644
 8248SOL     OW36802   3.963   8.171   0.903  0.0804 -0.3489  0.5374
 8248SOL    HW136803   3.946   8.144   0.998 -0.4856  0.2639  0.6129
 8248SOL    HW236804   3.910   8.253   0.882 -0.1326 -0.7282 -0.4315
 8249SOL     OW36805   3.009   6.137   8.015  0.5470 -0.1193  0.1865
 8249SOL    HW136806   3.030   6.053   7.964 -0.2601 -0.5634  0.5663
 8249SOL    HW236807   3.053   6.133   8.105  0.4365 -0.1746  0.2374
 8250SOL     OW36808   8.170   5.419   1.634 -0.3636  0.2280 -0.4412
 8250SOL    HW136809   8.146   5.414   1.537  0.1408  1.3970 -0.6327
 8250SOL    HW236810   8.103   5.476   1.682 -1.7270 -1.9186  0.2799
 8251SOL     OW36811   7.418   4.689   3.083 -0.1689 -0.3016  0.5136
 8251SOL    HW136812   7.487   4.759   3.065 -0.3893  0.0271  0.9511
 8251SOL    HW236813   7.454   4.622   3.148 -0.0124 -0.5147  0.2088
 8252SOL     OW36814   9.353   5.836   6.525  0.1281  0.6110 -0.2766
 8252SOL    HW136815   9.259   5.806   6.511  0.2035  1.1591 -2.1620
 8252SOL    HW236816   9.405   5.763   6.570 -0.3949 -1.0061 -2.1872
 8253SOL     OW36817   3.443   1.698   6.694  0.0087 -0.1152  0.4341
 8253SOL    HW136818   3.458   1.718   6.791  1.1738 -0.1903  0.2754
 8253SOL    HW236819   3.521   1.648   6.658 -0.4086 -0.0598 -0.5609
 8254SOL     OW36820   7.770   3.206   5.711  0.2764  0.3320  0.6640
 8254SOL    HW136821   7.761   3.295   5.756  1.1073  0.7872 -0.0639
 8254SOL    HW236822   7.732   3.135   5.771 -2.0574  1.3773  0.4936
 8255SOL     OW36823   8.886   5.062   2.361  0.0186  0.6225  0.0513
 8255SOL    HW136824   8.829   5.095   2.285  0.6960  0.6893 -0.4346
 8255SOL    HW236825   8.854   5.102   2.447 -1.0977  0.1242 -0.1233
 8256SOL     OW36826   6.608   9.538   7.506  0.2680  0.0835 -0.5239
 8256SOL    HW136827   6.651   9.521   7.595 -0.8711  0.2774  0.0763
 8256SOL    HW236828   6.620   9.634   7.481 -1.4839  0.6005  0.5622
 8257SOL     OW36829   6.025   1.745   8.949 -0.1860 -0.5063 -0.5104
 8257SOL    HW136830   5.928   1.769   8.938 -1.1630 -2.9591  2.0309
 8257SOL    HW236831   6.040   1.652   8.914  1.2492 -0.1555 -0.8386
 8258SOL     OW36832   0.472   7.111   0.035 -0.2359  0.5729  0.4518
 8258SOL    HW136833   0.399   7.116  -0.033 -0.7171  0.0082  0.9245
 8258SOL    HW236834   0.539   7.183   0.018 -0.4238  0.5160 -0.5404
 8259SOL     OW36835   4.609   1.438   7.319 -0.1742 -0.2344 -0.1397
 8259SOL    HW136836   4.639   1.445   7.223 -0.4210 -0.2503 -0.2192
 8259SOL    HW236837   4.670   1.492   7.377  0.0913 -0.3794 -0.2830
 8260SOL     OW36838   4.633   4.439   1.433 -0.4262 -0.1298 -0.3893
 8260SOL    HW136839   4.715   4.440   1.376  0.0212  0.0271  0.2462
 8260SOL    HW236840   4.563   4.382   1.391 -0.9472  1.8612 -2.2815
 8261SOL     OW36841   1.264   6.397   3.477 -0.0685 -0.2625  0.0495
 8261SOL    HW136842   1.261   6.306   3.437 -1.6211 -0.9619  1.7347
 8261SOL    HW236843   1.237   6.465   3.408 -0.2271 -1.2022 -0.8160
 8262SOL     OW36844   3.123   6.836   4.144 -0.7639  0.2049  0.1422
 8262SOL    HW136845   3.197   6.774   4.120 -0.6857  0.4957 -0.3816
 8262SOL    HW236846   3.158   6.930   4.149 -0.8413  0.1846  1.1086
 8263SOL     OW36847   5.910   0.526   1.929 -0.2443  0.0198 -0.2829
 8263SOL    HW136848   5.894   0.511   2.027  0.8771 -0.4533 -0.1623
 8263SOL    HW236849   5.823   0.543   1.883 -0.8750 -0.6277  0.6554
 8264SOL     OW36850   9.954   9.905   8.170  0.0406 -0.5716 -0.5177
 8264SOL    HW136851  10.047   9.927   8.140 -0.2877  0.8166 -0.5269
 8264SOL    HW236852   9.954   9.888   8.268 -0.1079  1.8396 -0.0804
 8265SOL     OW36853   1.353   7.073   0.369 -0.8352 -0.2889  0.1151
 8265SOL    HW136854   1.399   6.986   0.356 -0.6763 -0.3003  0.7111
 8265SOL    HW236855   1.264   7.071   0.323 -1.0901 -0.9846  0.6179
 8266SOL     OW36856   0.228   5.692   7.640 -0.1282 -0.3246 -0.0019
 8266SOL    HW136857   0.250   5.688   7.737 -2.1026 -0.4102  0.4555
 8266SOL    HW236858   0.267   5.776   7.601  0.8269 -0.3804  0.8160
 8267SOL     OW36859   5.236   1.303   1.170  0.0281  0.4958  0.1427
 8267SOL    HW136860   5.203   1.365   1.241  0.3282  0.8533 -0.0223
 8267SOL    HW236861   5.178   1.222   1.165  1.3818 -0.6456  2.3834
 8268SOL     OW36862   9.936   5.820   4.582  0.2680  0.1262 -0.0838
 8268SOL    HW136863   9.887   5.900   4.548 -0.2758 -0.4292 -0.6260
 8268SOL    HW236864   9.997   5.785   4.511  0.1942 -0.1836  0.0027
 8269SOL     OW36865   3.481   9.156   0.346  0.5829 -0.2132  0.1482
 8269SOL    HW136866   3.452   9.149   0.250 -1.8707 -0.7106  0.8746
 8269SOL    HW236867   3.554   9.223   0.355 -0.5351  1.2865 -1.7953
 8270SOL     OW36868   9.630   0.456   8.531 -0.1457  0.3219 -0.1407
 8270SOL    HW136869   9.560   0.489   8.595 -0.5646  1.7334 -1.2981
 8270SOL    HW236870   9.720   0.465   8.572 -0.5230 -0.1782  0.8196
 8271SOL     OW36871   7.195   4.262   9.038  0.0698 -0.2276  0.4321
 8271SOL    HW136872   7.208   4.339   8.976  0.1516 -0.5277  0.0761
 8271SOL    HW236873   7.281   4.212   9.048  0.1678  0.0756  1.1257
 8272SOL     OW36874   0.380   3.963   7.948 -0.0339 -0.1643  0.2885
 8272SOL    HW136875   0.465   3.936   7.903 -0.2984  3.1563 -2.3806
 8272SOL    HW236876   0.396   3.971   8.047  3.1955  1.8975 -0.3199
 8273SOL     OW36877   3.031   5.380   3.080 -0.2914 -0.2371 -0.2455
 8273SOL    HW136878   3.030   5.348   2.986  1.7387 -0.7244 -0.1159
 8273SOL    HW236879   2.994   5.308   3.140 -3.6872  0.9011 -0.8700
 8274SOL     OW36880   7.609   5.483   5.956 -0.2294 -0.9052 -0.0903
 8274SOL    HW136881   7.556   5.546   5.898 -1.0595 -0.1276  1.4775
 8274SOL    HW236882   7.706   5.494   5.936 -0.3402  1.0521  0.2856
 8275SOL     OW36883   0.568   3.894   3.307  0.5562 -0.1947 -0.0657
 8275SOL    HW136884   0.541   3.922   3.215  0.5980  1.3011  0.3674
 8275SOL    HW236885   0.514   3.815   3.335 -1.6122  1.1731 -0.2105
 8276SOL     OW36886   3.492   6.800   9.064 -0.2632 -0.3037 -0.1373
 8276SOL    HW136887   3.516   6.734   8.993  0.1500  0.8022 -1.0402
 8276SOL    HW236888   3.407   6.773   9.109 -2.5347  0.8945 -3.5120
 8277SOL     OW36889   6.480   3.491   1.412 -0.0343  0.1588 -0.2123
 8277SOL    HW136890   6.543   3.419   1.442 -0.4244  0.0014  0.2418
 8277SOL    HW236891   6.484   3.568   1.476  0.2400  0.4565 -0.5912
 8278SOL     OW36892   2.813   8.177   9.847  0.1508  0.0029  0.2694
 8278SOL    HW136893   2.731   8.127   9.876 -0.2185 -0.3665 -1.3630
 8278SOL    HW236894   2.884   8.112   9.821  0.7402  0.3259  1.0633
 8279SOL     OW36895   9.513   9.681   1.423 -0.5981  0.0101 -0.8396
 8279SOL    HW136896   9.480   9.753   1.361 -1.2630  0.9204  0.5335
 8279SOL    HW236897   9.499   9.710   1.517  1.4182 -0.8821 -0.2327
 8280SOL     OW36898   1.175   7.573   7.957 -1.0214  0.6303  0.0398
 8280SOL    HW136899   1.087   7.552   7.998 -1.2187  0.5587 -0.4261
 8280SOL    HW236900   1.174   7.549   7.860 -1.1910  2.5569 -0.4645
 8281SOL     OW36901   9.749   1.555   6.562 -0.1394  0.0020  0.0771
 8281SOL    HW136902   9.705   1.563   6.652  2.1945  1.4589  1.1228
 8281SOL    HW236903   9.791   1.465   6.554 -2.0143 -0.8666 -0.3639
 8282SOL     OW36904   1.112   8.626   9.756 -0.2785  1.0949 -0.0797
 8282SOL    HW136905   1.111   8.554   9.826 -2.6449  0.5026 -0.6562
 8282SOL    HW236906   1.034   8.687   9.771  0.3521  2.1437 -1.0139
 8283SOL     OW36907   9.631   8.472   2.126 -0.0385  0.3733  0.0134
 8283SOL    HW136908   9.691   8.551   2.141 -0.7561  0.7768  0.8036
 8283SOL    HW236909   9.605   8.432   2.213 -0.6836  0.0275 -0.3308
 8284SOL     OW36910   8.445   4.588   7.913  0.0210 -0.4399  0.2040
 8284SOL    HW136911   8.362   4.642   7.896 -0.4816 -1.0126  0.8151
 8284SOL    HW236912   8.449   4.511   7.849 -0.8528 -1.4527  1.3453
 8285SOL     OW36913   7.870   9.419   4.095 -0.1697  0.0754  0.3225
 8285SOL    HW136914   7.865   9.480   4.016  2.1901  1.4073  1.1644
 8285SOL    HW236915   7.845   9.469   4.178  0.9320 -0.3137  0.9013
 8286SOL     OW36916   8.665   8.572   5.109 -0.7794  0.4389  0.1041
 8286SOL    HW136917   8.754   8.527   5.110 -1.0465 -0.0843  0.5381
 8286SOL    HW236918   8.670   8.655   5.054 -0.3121 -0.1865 -0.8002
 8287SOL     OW36919   7.098   5.241   0.113 -0.2140  0.6326 -0.7174
 8287SOL    HW136920   7.077   5.143   0.108 -0.7263  0.7032 -0.0030
 8287SOL    HW236921   7.141   5.270   0.027  0.6318 -0.3804 -0.6572
 8288SOL     OW36922   1.287   9.812   6.902 -0.1512  0.9288 -0.3985
 8288SOL    HW136923   1.279   9.743   6.830 -0.4718  0.5142  0.0298
 8288SOL    HW236924   1.374   9.800   6.951 -0.6024  0.2552  0.2546
 8289SOL     OW36925   9.337   5.303   4.872 -0.1108 -0.0502  0.2325
 8289SOL    HW136926   9.419   5.347   4.835 -0.1663 -0.7029 -0.6847
 8289SOL    HW236927   9.347   5.204   4.865 -0.4639 -0.1720  1.2559
 8290SOL     OW36928   0.240   2.763   8.193 -0.3785 -0.4951  0.5566
 8290SOL    HW136929   0.326   2.767   8.142 -0.7220 -1.8522 -0.1468
 8290SOL    HW236930   0.222   2.669   8.220 -1.8460 -0.2671  0.3696
 8291SOL     OW36931   4.461   8.324   4.246  0.1864  0.2650  0.5469
 8291SOL    HW136932   4.427   8.398   4.188 -0.9908 -0.3821  0.3990
 8291SOL    HW236933   4.533   8.359   4.307  1.7043  0.8833 -1.5331
 8292SOL     OW36934   1.037   7.253   4.669  0.3977  0.5626  0.0450
 8292SOL    HW136935   1.024   7.344   4.708  0.6912 -0.1766  1.9278
 8292SOL    HW236936   1.114   7.208   4.715 -0.8911 -1.3228  0.4409
 8293SOL     OW36937   7.228   3.579   1.947  0.7072  0.0955 -0.4610
 8293SOL    HW136938   7.289   3.528   1.886 -0.7086 -0.4561 -1.4514
 8293SOL    HW236939   7.167   3.516   1.994  0.0371  0.7307 -0.4662
 8294SOL     OW36940   4.276   6.011   8.332 -0.5834  0.6176 -0.1675
 8294SOL    HW136941   4.319   6.002   8.422 -0.2677  0.7870 -0.2991
 8294SOL    HW236942   4.346   5.998   8.260 -0.8811  0.2386 -0.3902
 8295SOL     OW36943   7.903   9.613   7.194  0.8174  0.3599 -0.3051
 8295SOL    HW136944   7.898   9.518   7.162  2.1720  0.0571  0.3410
 8295SOL    HW236945   7.813   9.655   7.187  0.1876 -0.9953 -0.5597
 8296SOL     OW36946   3.689   4.535   2.487 -0.0943  0.5009  0.0634
 8296SOL    HW136947   3.724   4.464   2.427  2.0987  2.3262 -0.9119
 8296SOL    HW236948   3.741   4.536   2.573  1.0509  1.9825 -0.6157
 8297SOL     OW36949   3.616   1.087   8.335 -0.2875 -0.4334  0.2232
 8297SOL    HW136950   3.641   0.995   8.307 -4.0615 -1.1490 -0.9625
 8297SOL    HW236951   3.588   1.086   8.431  1.4032 -0.1297  0.7451
 8298SOL     OW36952   2.798   2.198   7.368  0.2803  0.0433 -0.2700
 8298SOL    HW136953   2.813   2.293   7.341 -0.5360  0.7604  1.7431
 8298SOL    HW236954   2.703   2.186   7.396  0.4591 -1.3012 -0.2145
 8299SOL     OW36955   8.752   5.574   4.666  0.3000 -0.3577 -0.0994
 8299SOL    HW136956   8.702   5.509   4.610 -1.6579  1.3294 -0.3747
 8299SOL    HW236957   8.792   5.645   4.608 -2.2276  1.7284  0.5828
 8300SOL     OW36958   7.082   6.997   5.556 -0.9270  0.5876 -0.2294
 8300SOL    HW136959   7.074   7.053   5.474 -0.4844  0.3782 -0.4141
 8300SOL    HW236960   6.998   6.944   5.568 -0.5883 -0.1416 -1.0991
 8301SOL     OW36961   5.623   2.118   0.717 -0.3244  0.0446 -0.2288
 8301SOL    HW136962   5.552   2.134   0.786  0.6040  2.0316  0.3042
 8301SOL    HW236963   5.707   2.089   0.762  0.1654  0.9438 -0.5487
 8302SOL     OW36964   1.255   2.015   3.299  0.2883 -0.0108 -0.1426
 8302SOL    HW136965   1.165   2.051   3.274  0.0256 -1.8297 -1.8824
 8302SOL    HW236966   1.319   2.091   3.310 -1.0248  1.1837 -0.6016
 8303SOL     OW36967   7.409   2.751   8.850 -0.1977 -0.1069  0.1786
 8303SOL    HW136968   7.386   2.768   8.946 -0.7739 -0.1676  0.0508
 8303SOL    HW236969   7.389   2.833   8.796  1.1918  0.3271  0.2864
 8304SOL     OW36970   7.718   9.457   3.289 -0.1005 -1.0638 -0.2505
 8304SOL    HW136971   7.682   9.381   3.234 -1.4827 -2.4745  2.5224
 8304SOL    HW236972   7.691   9.445   3.384  2.0611  1.4659  0.7343
 8305SOL     OW36973   4.771   6.661   1.840  0.7132  0.0194  0.1722
 8305SOL    HW136974   4.688   6.683   1.891  1.4933 -1.2418  2.0299
 8305SOL    HW236975   4.850   6.701   1.886  1.1663  1.3868 -1.6921
 8306SOL     OW36976   0.512   2.789   5.964 -0.0334  0.3976 -0.1932
 8306SOL    HW136977   0.467   2.766   5.878 -0.2043 -0.7149  0.1849
 8306SOL    HW236978   0.574   2.715   5.990 -1.2355 -0.0476  1.4986
 8307SOL     OW36979   4.216   2.892   9.972  0.0382 -0.4896 -0.1660
 8307SOL    HW136980   4.176   2.950  10.042  0.5809  0.7730 -0.8941
 8307SOL    HW236981   4.249   2.807  10.014 -1.9647 -0.8881  0.6913
 8308SOL     OW36982   1.329   1.411   8.808  0.0162  0.4503  0.8466
 8308SOL    HW136983   1.403   1.356   8.769 -1.1284 -0.6080  0.1489
 8308SOL    HW236984   1.294   1.367   8.890 -0.2930  0.6037  0.7993
 8309SOL     OW36985   0.628   1.126   2.891 -0.7881 -0.0828  0.0874
 8309SOL    HW136986   0.531   1.150   2.886 -1.0959 -1.5620 -1.7889
 8309SOL    HW236987   0.640   1.031   2.864  1.1552 -0.0387  0.7227
 8310SOL     OW36988   9.938   4.128   4.768  0.3578 -0.5916 -0.1606
 8310SOL    HW136989   9.987   4.132   4.855  0.1670  0.1092 -0.0863
 8310SOL    HW236990   9.969   4.048   4.717  2.5956  0.5793 -0.7039
 8311SOL     OW36991   5.097   4.442   8.577 -0.0927  0.1567 -0.1999
 8311SOL    HW136992   5.050   4.530   8.570  1.2993  0.9027 -0.2779
 8311SOL    HW236993   5.177   4.451   8.636  0.2011 -1.0002 -0.4051
 8312SOL     OW36994   1.749   2.948   1.733  0.5295 -0.1268 -0.1589
 8312SOL    HW136995   1.787   2.911   1.647  0.6452  1.7599 -0.9546
 8312SOL    HW236996   1.821   2.951   1.802  0.6999 -0.7202 -0.3098
 8313SOL     OW36997   4.731   1.751   9.635 -0.3716 -0.3860 -0.5029
 8313SOL    HW136998   4.802   1.816   9.661 -1.1261 -0.0780  0.8303
 8313SOL    HW236999   4.768   1.658   9.638  0.0755 -0.1998 -0.1549
 8314SOL     OW37000   4.067   0.238   2.639 -0.1211 -0.0609 -0.2144
 8314SOL    HW137001   4.027   0.177   2.708 -1.7483  2.0060  0.7377
 8314SOL    HW237002   4.167   0.231   2.642 -0.2532 -1.8489  0.6150
 8315SOL     OW37003   0.500   3.258   1.214 -0.5215 -0.1724  0.1917
 8315SOL    HW137004   0.421   3.247   1.153 -0.2538 -1.8653  0.1197
 8315SOL    HW237005   0.497   3.187   1.284  0.6202  0.1257  0.5455
 8316SOL     OW37006   2.664   1.641   0.747  0.2571  0.0155  0.2010
 8316SOL    HW137007   2.606   1.712   0.788 -1.1130 -0.1888 -1.3374
 8316SOL    HW237008   2.734   1.684   0.690 -0.1203  0.1694 -0.1513
 8317SOL     OW37009   5.247   3.420   9.862  0.3193  0.4021  0.5221
 8317SOL    HW137010   5.317   3.488   9.841  1.0721 -0.5419 -0.0809
 8317SOL    HW237011   5.242   3.354   9.788  0.0031 -0.5374  1.3675
 8318SOL     OW37012   2.657   1.246   0.176 -0.2665 -0.0839 -0.4069
 8318SOL    HW137013   2.641   1.339   0.144 -2.1121 -0.0689  0.4803
 8318SOL    HW237014   2.718   1.199   0.112  1.4167  1.9808 -0.4160
 8319SOL     OW37015   5.845   8.873   8.426  0.2066 -0.4464 -0.7069
 8319SOL    HW137016   5.794   8.937   8.369 -2.5600  0.5813  2.7075
 8319SOL    HW237017   5.781   8.808   8.467  1.7490  0.1355  2.8052
 8320SOL     OW37018   6.402   9.824   6.106 -0.5737 -0.3199  0.2203
 8320SOL    HW137019   6.484   9.781   6.143 -1.0116 -0.2309  1.3250
 8320SOL    HW237020   6.353   9.758   6.049 -0.8722 -1.0732  1.3360
 8321SOL     OW37021   2.537   8.684   9.943 -0.1775  0.1637  0.0436
 8321SOL    HW137022   2.615   8.711   9.999  0.8434 -0.2966 -1.1355
 8321SOL    HW237023   2.568   8.661   9.851 -1.7446  0.2650 -0.5317
 8322SOL     OW37024   0.455   7.763   9.309 -0.0346  0.0853 -0.2100
 8322SOL    HW137025   0.390   7.688   9.296  0.2080 -0.0811 -0.4971
 8322SOL    HW237026   0.477   7.771   9.407 -0.0159 -0.2614 -0.1828
 8323SOL     OW37027   1.893   5.500   6.710  0.4676  0.1829 -0.0901
 8323SOL    HW137028   1.940   5.586   6.732 -2.0966  0.7519  3.5662
 8323SOL    HW237029   1.823   5.518   6.640  1.0958  0.6825 -0.6024
 8324SOL     OW37030   6.721   1.082   6.758  0.3491  0.3271 -0.2749
 8324SOL    HW137031   6.650   1.144   6.726  0.2182  0.1773 -0.2726
 8324SOL    HW237032   6.693   1.039   6.843 -0.9157 -2.1092 -1.8665
 8325SOL     OW37033   3.607   5.973   9.928 -0.2233 -0.0346  0.1688
 8325SOL    HW137034   3.534   5.916   9.891  1.1082 -1.8651  0.2853
 8325SOL    HW237035   3.606   5.967  10.028 -0.1397  0.2277  0.1861
 8326SOL     OW37036   8.593   8.415   7.683  0.2554 -0.2072 -0.1535
 8326SOL    HW137037   8.645   8.453   7.606 -0.6522 -0.2079 -0.7713
 8326SOL    HW237038   8.517   8.361   7.648 -0.1411 -0.2379  0.7516
 8327SOL     OW37039   0.596   1.834   1.583 -0.4400  0.2000 -0.0377
 8327SOL    HW137040   0.543   1.763   1.537 -0.6682 -0.2935  0.9686
 8327SOL    HW237041   0.689   1.800   1.600 -0.9880 -0.4592  1.8209
 8328SOL     OW37042   4.720   0.378   4.951  0.1741  0.1095  0.9212
 8328SOL    HW137043   4.817   0.355   4.941  0.0080 -0.5578  0.7988
 8328SOL    HW237044   4.682   0.327   5.028 -1.1530 -3.1534 -1.7352
 8329SOL     OW37045   9.837   6.140   5.751 -0.2777 -0.1426  0.1164
 8329SOL    HW137046   9.824   6.187   5.838  0.4215 -0.1179  0.2059
 8329SOL    HW237047   9.841   6.042   5.766  1.3111 -0.0632  0.2953
 8330SOL     OW37048   0.586   8.379   3.700  0.4198  0.6455 -0.2213
 8330SOL    HW137049   0.606   8.418   3.610 -0.1444  0.3540 -0.4747
 8330SOL    HW237050   0.645   8.300   3.716  0.5898  0.7572 -0.2934
 8331SOL     OW37051   9.036   3.198   8.730 -0.3651 -0.9742  0.6134
 8331SOL    HW137052   9.083   3.269   8.678 -0.9658 -1.9290 -1.2677
 8331SOL    HW237053   8.976   3.241   8.798 -0.1891  0.3074 -0.0245
 8332SOL     OW37054   1.492   2.377   5.049 -0.1518  0.8425 -0.0273
 8332SOL    HW137055   1.570   2.439   5.038  0.2692  0.0642 -1.4844
 8332SOL    HW237056   1.500   2.329   5.137 -0.8264  3.3041  1.4300
 8333SOL     OW37057   4.686   0.623   4.868 -0.7885 -0.6402 -0.1938
 8333SOL    HW137058   4.722   0.530   4.876  1.0441  0.0343 -0.2901
 8333SOL    HW237059   4.651   0.652   4.957 -0.9909 -1.2728 -0.0615
 8334SOL     OW37060   4.975   8.425   7.828  0.1576 -0.0558 -0.1367
 8334SOL    HW137061   4.895   8.468   7.787  0.3857 -0.1646 -0.7022
 8334SOL    HW237062   4.949   8.337   7.868  0.3148 -0.8588 -1.7725
 8335SOL     OW37063   9.734   6.469   7.085  0.3072  0.3775  0.1632
 8335SOL    HW137064   9.718   6.544   7.021  0.7159  0.2684 -0.0736
 8335SOL    HW237065   9.649   6.420   7.102  1.0390 -2.7722 -4.2866
 8336SOL     OW37066   3.725   0.117   4.046 -0.3933 -0.0812  0.2392
 8336SOL    HW137067   3.760   0.032   4.006 -0.3940 -0.6926  1.5075
 8336SOL    HW237068   3.652   0.095   4.110 -0.9407  0.9528 -0.0251
 8337SOL     OW37069   8.110   7.978   6.447  0.0782  0.6597  0.0618
 8337SOL    HW137070   8.178   7.979   6.374  2.3467 -1.3161  2.0565
 8337SOL    HW237071   8.038   7.912   6.425 -0.3352  1.5310 -1.2728
 8338SOL     OW37072   7.770   7.435   5.876 -0.1810 -0.6911 -0.1435
 8338SOL    HW137073   7.771   7.446   5.777 -0.0450  0.6739  0.0076
 8338SOL    HW237074   7.816   7.349   5.900  0.3129 -0.7362 -1.2169
 8339SOL     OW37075   4.562   2.935   1.745 -0.0337 -0.0769 -0.4579
 8339SOL    HW137076   4.605   3.021   1.771  1.7646 -1.6295  1.8962
 8339SOL    HW237077   4.617   2.888   1.676 -1.0465  0.6432 -1.7887
 8340SOL     OW37078   7.579   8.092   4.467  0.2392  0.0994 -0.2874
 8340SOL    HW137079   7.596   7.994   4.481  0.7967  0.3214  0.6445
 8340SOL    HW237080   7.665   8.142   4.477 -0.4237  0.9194  1.4708
 8341SOL     OW37081   6.091   5.198   2.383 -0.1595  0.0660 -0.4389
 8341SOL    HW137082   6.019   5.129   2.373  1.0407 -0.9205 -2.6397
 8341SOL    HW237083   6.050   5.289   2.373 -1.1356 -0.4807 -1.6950
 8342SOL     OW37084   3.866   4.403   3.244  0.4601  0.3228 -0.2323
 8342SOL    HW137085   3.867   4.441   3.336  2.7230  0.8440 -0.4556
 8342SOL    HW237086   3.892   4.307   3.248  0.7656  0.4016 -0.3661
 8343SOL     OW37087   3.084   9.758   7.753 -0.7247 -0.2568 -0.4032
 8343SOL    HW137088   3.115   9.682   7.810  0.7800  0.3090 -0.4359
 8343SOL    HW237089   3.034   9.824   7.810  1.8404  0.9168  0.5763
 8344SOL     OW37090   1.036   4.820   8.186  0.0780  0.8815  1.1393
 8344SOL    HW137091   1.088   4.879   8.248  1.0614 -0.4634  1.6355
 8344SOL    HW237092   1.017   4.733   8.232  0.4652  0.0219 -0.3093
 8345SOL     OW37093   4.769   8.791   7.250  0.1747 -0.8579 -0.6120
 8345SOL    HW137094   4.760   8.787   7.150 -0.5075 -2.8151 -0.5018
 8345SOL    HW237095   4.701   8.731   7.291  0.4484 -0.0523  1.0479
 8346SOL     OW37096   2.067   6.897   1.764  0.1465  0.7731  0.7700
 8346SOL    HW137097   1.980   6.934   1.797 -0.0480  0.9729  0.0291
 8346SOL    HW237098   2.069   6.798   1.783 -0.0844  0.8342  1.1259
 8347SOL     OW37099   6.674   5.536   9.833  0.0936 -0.4961 -0.0010
 8347SOL    HW137100   6.603   5.585   9.883 -0.4051  0.8601 -1.9897
 8347SOL    HW237101   6.670   5.438   9.856 -2.2783 -0.4106  0.0719
 8348SOL     OW37102   6.356   0.718   1.134 -0.1260 -0.4632 -0.0927
 8348SOL    HW137103   6.333   0.790   1.200  0.3888 -1.1077  0.7926
 8348SOL    HW237104   6.455   0.718   1.118 -0.2095 -0.5271 -0.6184
 8349SOL     OW37105   7.812   4.424   7.230  0.2715  0.0725  0.3321
 8349SOL    HW137106   7.736   4.372   7.192 -0.2332 -0.3863  1.9410
 8349SOL    HW237107   7.879   4.360   7.270  1.9320  0.4103 -1.8065
 8350SOL     OW37108   6.830   9.605   5.116  0.1515 -0.8405  0.3275
 8350SOL    HW137109   6.852   9.697   5.149  0.9534 -0.9882  0.2032
 8350SOL    HW237110   6.912   9.548   5.118 -0.0700 -1.2081 -0.7217
 8351SOL     OW37111   3.819   8.052   4.241 -0.3762 -0.0755  0.1565
 8351SOL    HW137112   3.906   8.070   4.195 -1.1070  0.1303 -1.1720
 8351SOL    HW237113   3.795   8.130   4.298  1.5898 -1.1993  2.6225
 8352SOL     OW37114   1.113   3.494   7.562 -0.0773 -0.6005 -0.1053
 8352SOL    HW137115   1.171   3.465   7.485  0.4867 -2.4136  0.9554
 8352SOL    HW237116   1.028   3.441   7.561 -0.9267  0.7433 -0.5780
 8353SOL     OW37117   2.767   2.151   6.901 -0.3681  0.4510 -0.6160
 8353SOL    HW137118   2.835   2.094   6.947 -1.1243 -0.6431 -0.8317
 8353SOL    HW237119   2.788   2.157   6.804 -0.6514  0.0135 -0.7035
 8354SOL     OW37120   6.308   2.632   0.358 -0.6766  0.1756  0.5505
 8354SOL    HW137121   6.366   2.610   0.436 -0.1284 -1.4294 -0.2768
 8354SOL    HW237122   6.337   2.719   0.317  0.3224  0.0061  0.9084
 8355SOL     OW37123   8.144   8.989   9.425 -0.1236 -0.0057  0.3686
 8355SOL    HW137124   8.209   8.936   9.479 -0.0646 -1.5934 -1.2277
 8355SOL    HW237125   8.193   9.058   9.372  0.3493 -1.5049 -1.1880
 8356SOL     OW37126   9.592   6.727   2.373  0.2467  0.1567 -0.2661
 8356SOL    HW137127   9.607   6.656   2.441 -1.5832 -1.0698 -1.0796
 8356SOL    HW237128   9.679   6.766   2.344  1.0777  0.0932  2.1234
 8357SOL     OW37129   1.579   0.058   0.770  0.2902  0.1459  0.1549
 8357SOL    HW137130   1.620  -0.001   0.701  0.1174  0.6922 -0.4169
 8357SOL    HW237131   1.488   0.088   0.740 -0.9710 -1.8125  1.8203
 8358SOL     OW37132   0.457   5.335   5.056  0.1892 -0.6761 -0.0617
 8358SOL    HW137133   0.431   5.343   4.959 -0.1962  0.1954  0.1068
 8358SOL    HW237134   0.553   5.310   5.063  0.2542 -0.6094 -0.6679
 8359SOL     OW37135   8.856   2.606   5.792 -0.3211  0.4196 -0.4563
 8359SOL    HW137136   8.875   2.702   5.810 -1.2581  0.7879 -1.3774
 8359SOL    HW237137   8.759   2.593   5.775 -0.2376 -0.7326 -0.1203
 8360SOL     OW37138   9.726   4.952   6.607  0.1791 -0.2040 -0.2404
 8360SOL    HW137139   9.816   4.984   6.580  0.0373  0.9384  0.6059
 8360SOL    HW237140   9.656   4.995   6.550  0.0694  0.1167  0.1310
 8361SOL     OW37141   3.526   1.690   7.471  0.3940 -0.1666 -0.6182
 8361SOL    HW137142   3.435   1.652   7.459 -0.1916  1.5322 -1.7156
 8361SOL    HW237143   3.530   1.740   7.558  0.1517  0.0880 -0.7516
 8362SOL     OW37144   3.684   0.184   0.914 -0.8202  0.0957  0.0402
 8362SOL    HW137145   3.689   0.090   0.948 -0.2471  0.0282 -0.2090
 8362SOL    HW237146   3.614   0.235   0.964 -1.3544 -0.5525 -0.0434
 8363SOL     OW37147   4.578   6.004   4.367 -0.0909  0.1741 -0.3128
 8363SOL    HW137148   4.505   5.937   4.357 -0.6840  0.6055  1.0904
 8363SOL    HW237149   4.543   6.085   4.414  0.5792  1.5482 -2.1245
 8364SOL     OW37150   8.647   1.760   0.285 -0.1767  0.2901  0.2538
 8364SOL    HW137151   8.578   1.759   0.357 -0.3520 -0.9962  0.0745
 8364SOL    HW237152   8.629   1.838   0.223 -1.0388  0.3830  0.6082
 8365SOL     OW37153   7.433   9.016   5.357  0.4547  0.1207 -0.0417
 8365SOL    HW137154   7.505   8.955   5.322 -0.1026 -0.9690  0.6833
 8365SOL    HW237155   7.472   9.106   5.375  1.6900 -0.5215  0.5520
 8366SOL     OW37156   3.697   2.267   7.335 -0.1396  0.0981 -0.6340
 8366SOL    HW137157   3.785   2.274   7.289  0.0781 -1.2263 -0.4328
 8366SOL    HW237158   3.631   2.221   7.275 -1.2057  2.6381 -1.4765
 8367SOL     OW37159   3.987   9.141   4.790  0.2050  0.0172 -0.4244
 8367SOL    HW137160   4.035   9.061   4.753  0.6854  0.2922 -0.4013
 8367SOL    HW237161   3.950   9.196   4.715  0.5227  0.1704 -0.4684
 8368SOL     OW37162   9.281   6.395   2.551 -0.3971  0.1186  0.0808
 8368SOL    HW137163   9.198   6.451   2.540 -2.2235 -2.6212 -0.7972
 8368SOL    HW237164   9.279   6.321   2.484  2.4423 -0.4291  0.5590
 8369SOL     OW37165   1.085   4.546   7.912  0.3025 -0.1789 -0.2309
 8369SOL    HW137166   1.080   4.547   7.812  0.7809  0.3125 -0.2537
 8369SOL    HW237167   1.161   4.605   7.942  0.2132 -0.3913  0.4154
 8370SOL     OW37168   2.528   7.289   1.008  0.0364 -0.0340  0.3508
 8370SOL    HW137169   2.432   7.316   1.005 -0.0721 -0.4757 -0.5096
 8370SOL    HW237170   2.542   7.222   1.081 -0.5703 -0.9178 -0.3294
 8371SOL     OW37171   6.774   1.998   0.330  0.0226 -0.2475 -0.4217
 8371SOL    HW137172   6.711   1.920   0.324  0.1506 -0.4124  0.4089
 8371SOL    HW237173   6.727   2.076   0.370 -0.0549  0.0638 -1.0977
 8372SOL     OW37174   5.435   8.330   5.695 -0.4292 -0.5786 -0.1813
 8372SOL    HW137175   5.527   8.349   5.662 -0.0489  0.8088  1.5937
 8372SOL    HW237176   5.371   8.397   5.656  0.1043  1.3837  2.2077
 8373SOL     OW37177   3.647   4.463   5.263  0.2664  0.4018 -0.0983
 8373SOL    HW137178   3.656   4.470   5.164  0.3625  0.3024 -0.0968
 8373SOL    HW237179   3.550   4.460   5.287  0.2199 -2.3310 -0.4074
 8374SOL     OW37180   0.798   6.417   8.987  1.0670 -0.1657  0.1099
 8374SOL    HW137181   0.772   6.337   9.041 -0.0158  0.5521  0.6690
 8374SOL    HW237182   0.841   6.387   8.902  1.4873 -1.3277  0.7229
 8375SOL     OW37183   3.621   0.317   2.820  0.3035 -0.4389 -0.4628
 8375SOL    HW137184   3.634   0.317   2.920  1.0819 -0.9225 -0.5618
 8375SOL    HW237185   3.529   0.351   2.799 -0.1654 -1.1030  0.4625
 8376SOL     OW37186   9.648   2.600   4.804 -0.0965  0.2002 -0.3536
 8376SOL    HW137187   9.651   2.669   4.732  2.0827  2.8847  2.1815
 8376SOL    HW237188   9.735   2.551   4.807 -0.4605 -0.4246 -0.0527
 8377SOL     OW37189   3.990   8.436   1.510 -0.0451 -0.1530  0.1486
 8377SOL    HW137190   3.926   8.486   1.569 -0.8683 -0.4458 -0.4829
 8377SOL    HW237191   3.959   8.341   1.501 -0.6256  0.1900 -1.7430
 8378SOL     OW37192   2.395   0.330   1.902  0.0414 -0.1527 -0.4346
 8378SOL    HW137193   2.450   0.273   1.962 -0.8452 -0.6477 -0.0988
 8378SOL    HW237194   2.449   0.353   1.820  1.7071  1.5731  1.0962
 8379SOL     OW37195   9.245   3.918   9.846 -0.0563 -0.0285  0.6062
 8379SOL    HW137196   9.328   3.965   9.818  0.1886 -0.1977  1.0373
 8379SOL    HW237197   9.179   3.985   9.881  0.1213  0.0423  0.8058
 8380SOL     OW37198   1.710   3.227   7.753  0.4192 -0.0340  0.1165
 8380SOL    HW137199   1.734   3.149   7.812 -0.2062 -0.3717 -0.0675
 8380SOL    HW237200   1.661   3.296   7.807 -2.1041 -1.3054 -0.4332
 8381SOL     OW37201   0.431   4.426   6.017  0.6168  0.2936 -0.3691
 8381SOL    HW137202   0.412   4.524   6.008  0.9726  0.2343 -1.8341
 8381SOL    HW237203   0.507   4.401   5.956 -0.4846 -1.1839 -1.1514
 8382SOL     OW37204   5.017   6.414   1.509  0.1277  0.3945 -0.8698
 8382SOL    HW137205   5.080   6.465   1.450 -0.9426  2.4535 -0.2908
 8382SOL    HW237206   4.933   6.468   1.522 -0.1092 -0.5152  1.6280
 8383SOL     OW37207   5.340   4.885   9.101  0.0901  0.1355 -0.0410
 8383SOL    HW137208   5.243   4.860   9.109  0.0821  0.0957 -0.2739
 8383SOL    HW237209   5.356   4.928   9.013  0.2614  0.2516  0.0457
 8384SOL     OW37210   4.520   0.585   9.580 -0.0324 -0.1203 -0.3937
 8384SOL    HW137211   4.445   0.648   9.597  0.6538 -0.0002  2.4579
 8384SOL    HW237212   4.559   0.555   9.667  2.4364 -1.1385 -1.7922
 8385SOL     OW37213   1.123   8.748   0.791  0.2591 -0.2206 -0.2144
 8385SOL    HW137214   1.200   8.716   0.847  0.7847 -0.0088 -0.8192
 8385SOL    HW237215   1.157   8.790   0.708 -0.5367 -0.7247 -0.8048
 8386SOL     OW37216   1.931   1.275   1.723  0.0171 -0.3038 -0.4437
 8386SOL    HW137217   1.967   1.323   1.643  1.1608 -1.1338 -0.4321
 8386SOL    HW237218   1.999   1.277   1.797 -1.1354  0.7019  0.6132
 8387SOL     OW37219   9.600   9.049   9.377  0.7161 -0.3175 -0.0510
 8387SOL    HW137220   9.569   9.079   9.467  1.5059 -0.4253  0.2521
 8387SOL    HW237221   9.698   9.063   9.369  0.8656 -1.5635 -0.4136
 8388SOL     OW37222   4.279   2.517   8.135  0.2666  0.5910  0.2915
 8388SOL    HW137223   4.351   2.586   8.125 -0.5106  1.5216  1.0124
 8388SOL    HW237224   4.321   2.428   8.154  1.2255  1.1720  0.9644
 8389SOL     OW37225   3.991   7.276   1.575  0.1666 -0.1136  0.2465
 8389SOL    HW137226   4.020   7.188   1.537  0.5974  1.0008 -2.0766
 8389SOL    HW237227   4.071   7.325   1.609  0.0649 -0.1471  0.5341
 8390SOL     OW37228   3.381   7.255   9.846 -0.2427  0.3012 -0.4317
 8390SOL    HW137229   3.360   7.213   9.758  0.5048 -0.4154 -0.2736
 8390SOL    HW237230   3.387   7.185   9.917 -3.3041  1.1029  0.7086
 8391SOL     OW37231   1.500   3.688   3.644  0.2908 -0.1907  0.5992
 8391SOL    HW137232   1.425   3.624   3.659  0.5543 -0.9843 -1.3434
 8391SOL    HW237233   1.526   3.688   3.547  1.9448  1.0164  1.0090
 8392SOL     OW37234   4.204   1.553   2.678  0.1143 -0.3931 -0.2088
 8392SOL    HW137235   4.131   1.535   2.612 -0.0367 -0.2293 -0.0884
 8392SOL    HW237236   4.166   1.603   2.756  0.9576  2.3394 -1.5092
 8393SOL     OW37237   2.794   2.340   1.426  0.8226 -0.1448 -0.3579
 8393SOL    HW137238   2.762   2.399   1.500  0.0456 -0.7971 -0.1647
 8393SOL    HW237239   2.891   2.319   1.441  1.4366  2.0512 -1.0935
 8394SOL     OW37240   9.863   7.176   4.695  0.2508  0.1852  0.1252
 8394SOL    HW137241   9.841   7.161   4.791  0.3617  0.3955  0.1827
 8394SOL    HW237242   9.838   7.094   4.642  1.8614 -0.6374  0.5945
 8395SOL     OW37243   0.965   3.429   4.903  0.4792 -0.3020 -0.1523
 8395SOL    HW137244   1.061   3.451   4.887  0.5820 -0.9189 -0.3929
 8395SOL    HW237245   0.949   3.416   5.000 -0.1685  3.5676  0.3419
 8396SOL     OW37246   9.773   3.089   8.716 -0.5911  0.4521  0.0732
 8396SOL    HW137247   9.727   3.032   8.648 -1.8010  1.8871 -0.3544
 8396SOL    HW237248   9.758   3.052   8.807  0.2903 -0.9958 -0.3636
 8397SOL     OW37249   8.565   6.467   8.273 -0.0941 -0.4895  0.1596
 8397SOL    HW137250   8.619   6.445   8.354  1.0561  2.9442  0.4151
 8397SOL    HW237251   8.468   6.467   8.296  0.2398  0.6546  1.6208
 8398SOL     OW37252   5.769   2.947   0.979  0.3015  0.4232 -0.4874
 8398SOL    HW137253   5.810   2.895   0.903 -0.3000 -1.2112  0.2877
 8398SOL    HW237254   5.839   2.969   1.046  0.1658 -1.2523  0.2141
 8399SOL     OW37255   5.107   1.427   4.434  0.2806 -0.1399  0.2321
 8399SOL    HW137256   5.101   1.508   4.377 -0.1538 -0.5789 -0.3420
 8399SOL    HW237257   5.022   1.374   4.428  0.9447 -1.1770 -0.2055
 8400SOL     OW37258   0.959   0.335   4.887 -0.3853 -0.1464  0.2025
 8400SOL    HW137259   1.057   0.315   4.881 -0.4115  0.0834 -1.3390
 8400SOL    HW237260   0.946   0.421   4.935  0.1505 -0.3473  0.7166
 8401SOL     OW37261   3.980   5.718   3.054 -0.1687  0.5697  0.2752
 8401SOL    HW137262   4.002   5.793   3.117  0.3380  0.2047  0.5437
 8401SOL    HW237263   4.048   5.715   2.980 -0.0964  0.2839  0.3501
 8402SOL     OW37264   9.805   9.359   6.262 -0.1254  0.1641 -0.4840
 8402SOL    HW137265   9.832   9.398   6.174 -1.7778  0.0102 -1.0781
 8402SOL    HW237266   9.717   9.397   6.290  1.0330  1.2533  1.8043
 8403SOL     OW37267   3.753   9.654   8.802 -0.2146  0.0836  0.4310
 8403SOL    HW137268   3.764   9.680   8.898 -0.2478 -0.0099  0.4604
 8403SOL    HW237269   3.656   9.655   8.778 -0.5137 -2.9161  1.2593
 8404SOL     OW37270   0.602   1.067   7.446 -0.8767 -0.5346  0.1484
 8404SOL    HW137271   0.654   0.989   7.410 -2.8901 -1.8123 -0.0779
 8404SOL    HW237272   0.607   1.067   7.546  1.0273  0.4101  0.0705
 8405SOL     OW37273   3.071   2.038   8.319 -0.1687 -0.4509  0.0262
 8405SOL    HW137274   3.163   2.075   8.310 -0.5726  0.7142  0.6953
 8405SOL    HW237275   3.009   2.086   8.258 -0.5146 -0.6418  0.2220
 8406SOL     OW37276   3.410   0.220   8.130  0.1512  0.3568 -0.6163
 8406SOL    HW137277   3.407   0.318   8.113  0.1994  0.6385  0.9091
 8406SOL    HW237278   3.322   0.179   8.105 -0.0921  0.8892 -0.6316
 8407SOL     OW37279   1.820   5.872   3.134  0.2587 -0.6643 -0.6088
 8407SOL    HW137280   1.793   5.849   3.227 -0.3279  0.5956 -0.4574
 8407SOL    HW237281   1.760   5.826   3.069  0.8350 -1.7563 -0.3826
 8408SOL     OW37282   4.459   0.449   7.957  0.4393  0.8863  0.1628
 8408SOL    HW137283   4.489   0.529   8.008  0.1053  0.5582  0.8851
 8408SOL    HW237284   4.435   0.376   8.021 -1.3217  0.9433 -0.4093
 8409SOL     OW37285   7.888   6.529   6.413 -0.6073 -0.7825  0.2679
 8409SOL    HW137286   7.917   6.508   6.320 -2.3897 -2.4616  0.0498
 8409SOL    HW237287   7.928   6.463   6.477 -2.8977 -2.3747  0.1108
 8410SOL     OW37288   9.082   1.487   1.925 -0.9096  0.2254  0.1840
 8410SOL    HW137289   9.124   1.556   1.985 -1.0490  0.9909 -0.5878
 8410SOL    HW237290   9.062   1.405   1.978  0.5853  0.2409  0.8032
 8411SOL     OW37291   2.581   7.526   8.904 -0.4078  0.3838 -0.3761
 8411SOL    HW137292   2.509   7.567   8.960  0.3695  1.0020  0.1816
 8411SOL    HW237293   2.660   7.505   8.961 -0.4430 -1.0448 -0.8314
 8412SOL     OW37294   6.505   8.932   3.044 -0.4344  0.1211 -0.1122
 8412SOL    HW137295   6.451   8.885   3.113 -1.6179  1.1333 -0.3141
 8412SOL    HW237296   6.474   9.027   3.037 -0.4280 -0.0018 -2.1051
 8413SOL     OW37297   9.551   9.888   2.730  0.9488 -0.2717  0.0032
 8413SOL    HW137298   9.524   9.839   2.646  2.3070 -0.2875 -0.4400
 8413SOL    HW237299   9.473   9.890   2.793  0.2236 -1.1758 -0.8269
 8414SOL     OW37300   2.359   5.666   3.274 -0.3074 -0.5504  0.0823
 8414SOL    HW137301   2.354   5.570   3.247 -1.7992 -0.7947  1.2212
 8414SOL    HW237302   2.434   5.710   3.224 -0.5636 -1.9302 -1.5741
 8415SOL     OW37303   8.805   6.880   8.561  0.1256  0.3488  0.2490
 8415SOL    HW137304   8.888   6.857   8.511  0.2934  0.7551  0.3364
 8415SOL    HW237305   8.796   6.980   8.566 -0.4724  0.3089  0.0568
 8416SOL     OW37306   6.871   1.965   5.382 -0.1816 -0.3004  0.3508
 8416SOL    HW137307   6.957   1.962   5.331 -1.0216  0.7334 -1.1987
 8416SOL    HW237308   6.816   2.042   5.348 -1.9990 -1.3641  0.8275
 8417SOL     OW37309   6.507   1.373   1.016 -0.5400 -0.4269  0.4739
 8417SOL    HW137310   6.449   1.301   0.979  1.3468 -1.0769 -1.2757
 8417SOL    HW237311   6.563   1.412   0.943  0.6648  0.7216  1.9798
 8418SOL     OW37312   3.671   9.069   1.724 -0.3338 -0.6531 -0.5453
 8418SOL    HW137313   3.756   9.103   1.763 -0.0110 -0.9559 -0.9812
 8418SOL    HW237314   3.635   9.135   1.658  0.0482 -0.9430 -1.0453
 8419SOL     OW37315   1.805   1.929   0.585 -0.3891  0.2212 -0.4643
 8419SOL    HW137316   1.731   1.987   0.620  0.1615  0.5467  0.1723
 8419SOL    HW237317   1.893   1.969   0.610  0.0011 -0.9701  0.1076
 8420SOL     OW37318   6.199   1.062   0.983 -0.4104 -0.4445 -0.0736
 8420SOL    HW137319   6.231   0.973   1.014 -0.5282 -0.5917 -0.3761
 8420SOL    HW237320   6.103   1.056   0.957 -0.4071 -0.2405 -0.1333
 8421SOL     OW37321   0.601   1.967   4.633  0.1699 -0.1639 -0.2718
 8421SOL    HW137322   0.538   1.893   4.610 -0.2516 -0.6532  2.3169
 8421SOL    HW237323   0.630   1.958   4.728 -0.2874  3.2767  0.2592
 8422SOL     OW37324   1.009   8.393   4.713  0.6528 -0.5399  0.2465
 8422SOL    HW137325   1.063   8.379   4.796  1.5661  0.6363 -0.1427
 8422SOL    HW237326   1.036   8.478   4.669 -0.7600 -0.4870 -0.5557
 8423SOL     OW37327   7.196   6.780   5.723  0.3095  0.4045  0.4558
 8423SOL    HW137328   7.281   6.754   5.768  1.2309 -0.7157 -1.8716
 8423SOL    HW237329   7.206   6.868   5.678  0.2888  0.2017  0.0500
 8424SOL     OW37330   1.694   3.876   8.089 -0.2903  0.3663 -0.9424
 8424SOL    HW137331   1.696   3.893   7.991  3.1373  0.4700 -0.9295
 8424SOL    HW237332   1.739   3.789   8.109  1.0503  1.3873  0.6696
 8425SOL     OW37333   4.542   5.098   9.798  0.3175  0.1638  0.2257
 8425SOL    HW137334   4.457   5.046   9.794  0.0884  0.6341 -1.6292
 8425SOL    HW237335   4.620   5.036   9.797  0.0377 -0.1764 -1.4567
 8426SOL     OW37336   3.352   8.426   8.828 -0.4687  0.3295  0.3397
 8426SOL    HW137337   3.399   8.360   8.770  1.5668  1.7048  0.3788
 8426SOL    HW237338   3.254   8.406   8.828 -0.2735 -0.8366 -2.0573
 8427SOL     OW37339   5.163   3.099   8.487  0.4543 -0.4197 -0.1233
 8427SOL    HW137340   5.219   3.093   8.569 -0.0959 -0.3030  0.2645
 8427SOL    HW237341   5.158   3.194   8.457 -0.1910 -0.3147  0.3055
 8428SOL     OW37342   4.403   1.026   9.437  0.0194  0.0015  0.1048
 8428SOL    HW137343   4.368   0.938   9.467 -1.8681  0.6039 -0.2538
 8428SOL    HW237344   4.454   1.014   9.351 -1.2865 -0.5678 -0.6056
 8429SOL     OW37345   7.417   4.274   9.955  0.1846 -0.9571  0.4388
 8429SOL    HW137346   7.422   4.305  10.050  0.1822  2.9174 -0.7211
 8429SOL    HW237347   7.321   4.259   9.930  0.1062 -1.0607  0.8008
 8430SOL     OW37348   4.254   1.369   7.259  0.4556  0.2604 -0.3217
 8430SOL    HW137349   4.292   1.403   7.172  1.2430  2.9390  1.0182
 8430SOL    HW237350   4.328   1.356   7.324 -0.4337  1.0644  0.8623
 8431SOL     OW37351   8.112   0.358   8.259  0.5133 -0.1689 -0.3776
 8431SOL    HW137352   8.165   0.295   8.202  0.1551  0.5709 -1.5380
 8431SOL    HW237353   8.110   0.448   8.217  0.5027  0.4717  0.9767
 8432SOL     OW37354   9.609   3.342   3.484 -0.4253 -0.0474 -0.2563
 8432SOL    HW137355   9.706   3.358   3.467 -0.3691 -2.2251 -2.3723
 8432SOL    HW237356   9.597   3.251   3.525 -1.4276  1.0823  2.0240
 8433SOL     OW37357   4.449   9.082   6.381 -0.8039 -0.2786  0.3656
 8433SOL    HW137358   4.529   9.117   6.332 -0.8565  1.3465  1.4023
 8433SOL    HW237359   4.377   9.060   6.316 -0.0929 -0.2155 -0.4504
 8434SOL     OW37360   0.437   3.248   0.071 -0.2187 -0.6604  0.2919
 8434SOL    HW137361   0.534   3.230   0.057  0.0639  0.0375  1.2737
 8434SOL    HW237362   0.400   3.295  -0.008  0.0595 -1.6166 -0.4181
 8435SOL     OW37363   9.770   1.075   7.409  0.1463 -0.2225  0.1570
 8435SOL    HW137364   9.709   1.148   7.381 -1.4310 -1.2893  0.7104
 8435SOL    HW237365   9.781   1.076   7.509 -0.0565 -0.8604  0.1903
 8436SOL     OW37366   9.759   8.547   8.168  0.2976  0.1421 -0.1505
 8436SOL    HW137367   9.787   8.452   8.184 -1.0783  0.0118  1.5264
 8436SOL    HW237368   9.838   8.607   8.183  0.6401 -0.5472  0.8473
 8437SOL     OW37369   4.721   3.962   9.194  0.1742 -0.1036  0.0998
 8437SOL    HW137370   4.800   3.913   9.157 -0.2080  0.9690 -2.2398
 8437SOL    HW237371   4.648   3.897   9.216  0.5674 -0.8226 -0.6935
 8438SOL     OW37372   7.655   0.393   5.686 -0.3467  0.1094 -0.1417
 8438SOL    HW137373   7.733   0.421   5.741 -1.0699  1.0911  0.4125
 8438SOL    HW237374   7.607   0.319   5.732  0.7922 -1.1391 -0.9454
 8439SOL     OW37375   1.297   7.458   4.199  0.5432 -0.9697 -0.5247
 8439SOL    HW137376   1.260   7.508   4.120  2.4187 -0.9916 -1.4489
 8439SOL    HW237377   1.382   7.502   4.230  1.0104 -2.2583  0.0747
 8440SOL     OW37378   5.388   8.243   5.109  0.6957 -0.3701 -0.2511
 8440SOL    HW137379   5.321   8.212   5.176  0.1710 -0.0955 -0.6427
 8440SOL    HW237380   5.348   8.317   5.054  1.7973  0.7581  0.4456
 8441SOL     OW37381   9.646   1.026   2.161  0.1629 -0.3848 -0.4670
 8441SOL    HW137382   9.691   1.108   2.197 -0.4071  0.0375 -0.7060
 8441SOL    HW237383   9.556   1.051   2.126 -0.4822 -1.3185  0.4967
 8442SOL     OW37384   3.428   2.514   1.863 -0.4729 -0.1792  0.3592
 8442SOL    HW137385   3.375   2.566   1.930 -2.5784 -1.7351 -0.0388
 8442SOL    HW237386   3.522   2.547   1.862 -0.9251  1.2921  2.5569
 8443SOL     OW37387   7.314   8.652   4.581 -0.0723  0.3429 -0.1149
 8443SOL    HW137388   7.301   8.576   4.517 -1.8284  0.9653 -0.5288
 8443SOL    HW237389   7.227   8.671   4.628  0.6369  1.3699  0.7862
 8444SOL     OW37390   0.839   6.813   7.850 -0.1967 -0.5715  0.1316
 8444SOL    HW137391   0.829   6.778   7.943 -1.0029 -1.4426 -0.2732
 8444SOL    HW237392   0.896   6.750   7.796 -0.7954 -0.7357 -0.3156
 8445SOL     OW37393   1.601   6.276   5.777 -0.3560  0.1388 -0.1094
 8445SOL    HW137394   1.678   6.305   5.721 -2.2749  2.8294 -1.4640
 8445SOL    HW237395   1.550   6.203   5.731  0.8653 -1.0635  0.4132
 8446SOL     OW37396   3.582   2.106   2.052 -0.2046 -0.7141 -0.0225
 8446SOL    HW137397   3.640   2.046   2.107 -1.1187 -1.9960 -0.4364
 8446SOL    HW237398   3.490   2.109   2.091  0.0659  1.1355  0.5071
 8447SOL     OW37399   8.237   6.253   5.878 -0.0515 -0.3911 -0.6188
 8447SOL    HW137400   8.275   6.225   5.790  0.1146 -3.2093  0.3049
 8447SOL    HW237401   8.175   6.182   5.912  1.3683 -0.2616  2.4336
 8448SOL     OW37402   8.659   5.015  10.037  0.2759  0.1829  0.5278
 8448SOL    HW137403   8.674   5.091   9.974 -0.2939  1.6396  2.1050
 8448SOL    HW237404   8.746   4.986  10.076  0.4105  0.4505  0.4281
 8449SOL     OW37405   4.671   9.260   4.451  0.4020  0.3577  0.5834
 8449SOL    HW137406   4.644   9.185   4.390 -0.7234 -0.4578  2.0656
 8449SOL    HW237407   4.683   9.225   4.544  0.5803  1.8914  1.1502
 8450SOL     OW37408   0.393   1.697   8.984 -0.2342  0.8849 -0.3942
 8450SOL    HW137409   0.395   1.765   8.910 -0.6197  1.7899  0.4177
 8450SOL    HW237410   0.299   1.683   9.014 -0.0300  0.8699  0.2424
 8451SOL     OW37411   5.294   6.845   2.776  0.4100 -0.3650  0.1826
 8451SOL    HW137412   5.237   6.840   2.858 -0.2869 -0.8841 -0.3365
 8451SOL    HW237413   5.342   6.933   2.774 -0.4623  0.1201  0.5431
 8452SOL     OW37414   0.314   5.987   7.606  0.2462 -0.1710 -0.0735
 8452SOL    HW137415   0.330   6.011   7.510  1.4352 -2.8231 -0.5645
 8452SOL    HW237416   0.372   6.044   7.665  1.6487 -0.5167 -1.1015
 8453SOL     OW37417   5.027   3.039   0.373 -0.4561  0.1284 -0.1913
 8453SOL    HW137418   5.073   3.004   0.455  0.1814  2.3488  0.4171
 8453SOL    HW237419   5.072   3.002   0.292  0.3780 -0.2367  0.4253
 8454SOL     OW37420   5.481   7.572   3.327  0.2282 -0.2002  0.1291
 8454SOL    HW137421   5.503   7.604   3.235 -0.9733  1.5701  0.4349
 8454SOL    HW237422   5.516   7.636   3.394 -2.2858  0.5784  0.7540
 8455SOL     OW37423   3.720   5.799   3.436  0.0440 -0.1286  0.3197
 8455SOL    HW137424   3.791   5.729   3.435 -1.7152 -1.9340  0.5563
 8455SOL    HW237425   3.649   5.776   3.369 -0.9739  0.9717  0.9979
 8456SOL     OW37426   8.024   0.993   3.056 -0.0860 -0.0712 -0.2638
 8456SOL    HW137427   8.115   1.016   3.021 -0.5033  0.2445 -1.1654
 8456SOL    HW237428   8.031   0.913   3.115  0.8502  0.2374  0.0678
 8457SOL     OW37429   3.172   2.513   3.175 -0.2333  0.4729  0.0663
 8457SOL    HW137430   3.190   2.606   3.143 -1.6918  1.6856  2.5994
 8457SOL    HW237431   3.209   2.501   3.267 -0.1290 -1.4427 -0.2000
 8458SOL     OW37432   5.192   8.330   8.163  0.4009  0.3362  0.2505
 8458SOL    HW137433   5.192   8.345   8.064  2.6725  0.1496  0.2059
 8458SOL    HW237434   5.280   8.357   8.201 -0.4208  0.3141  2.2244
 8459SOL     OW37435   2.291   5.138   9.806  0.5649 -0.3563  0.0234
 8459SOL    HW137436   2.349   5.058   9.793  0.0583 -0.5828 -0.9156
 8459SOL    HW237437   2.203   5.110   9.843  0.0378 -0.3602 -1.1990
 8460SOL     OW37438   6.343   1.143   4.156  0.2328  0.3712  0.2959
 8460SOL    HW137439   6.278   1.172   4.227  1.5275  4.2242  0.0646
 8460SOL    HW237440   6.436   1.144   4.194  0.5992 -0.6885 -0.5724
 8461SOL     OW37441   4.580   9.401   4.147 -0.1256 -0.3217 -0.0793
 8461SOL    HW137442   4.647   9.345   4.098  0.7419  0.8464 -0.2531
 8461SOL    HW237443   4.623   9.440   4.228 -0.8153 -0.1541  0.2082
 8462SOL     OW37444   0.896   1.789   3.808 -0.5786  0.2293 -0.0219
 8462SOL    HW137445   0.950   1.835   3.737  0.0339 -0.7583 -0.2029
 8462SOL    HW237446   0.818   1.846   3.832  1.0461  2.1185  0.8939
 8463SOL     OW37447   4.262   7.150   3.079 -0.1760  0.4460  0.1558
 8463SOL    HW137448   4.312   7.147   3.165  0.9397  0.7963 -0.4596
 8463SOL    HW237449   4.198   7.074   3.074  0.6412 -0.2947  0.7668
 8464SOL     OW37450   4.733   3.879   7.566 -0.3212 -0.0649  0.0075
 8464SOL    HW137451   4.717   3.947   7.494 -0.0918  1.5194  1.4204
 8464SOL    HW237452   4.766   3.794   7.525  0.7016  1.1089 -1.6630
 8465SOL     OW37453   5.931   5.269   0.786  0.8136  0.3484  0.1233
 8465SOL    HW137454   5.932   5.200   0.714  1.1458 -1.6041  1.9446
 8465SOL    HW237455   5.853   5.255   0.846  0.3267  2.1871 -0.0267
 8466SOL     OW37456   1.539   1.208   9.561  0.0429 -0.0670  0.6472
 8466SOL    HW137457   1.594   1.174   9.638 -0.5648 -1.9179  0.3057
 8466SOL    HW237458   1.597   1.260   9.499  0.9866 -0.3410  1.2842
 8467SOL     OW37459   3.352   8.191   2.856  0.1663 -0.3254  0.2710
 8467SOL    HW137460   3.339   8.092   2.866 -0.2157 -0.2680  0.3298
 8467SOL    HW237461   3.362   8.232   2.947  1.2560 -0.4398  0.2048
 8468SOL     OW37462   8.542   1.872   7.901  0.7382 -1.0263 -0.3480
 8468SOL    HW137463   8.593   1.788   7.916 -0.9059 -2.0215 -0.2438
 8468SOL    HW237464   8.478   1.860   7.825  0.5216  0.1256 -0.3586
 8469SOL     OW37465   2.362   3.876   9.034  0.3467  0.0623  0.3917
 8469SOL    HW137466   2.444   3.897   8.981  0.0372 -0.1097 -0.1573
 8469SOL    HW237467   2.373   3.788   9.080  1.3051  0.9966  2.0087
 8470SOL     OW37468   3.746   4.080   2.999  0.2505  0.1506  0.3409
 8470SOL    HW137469   3.658   4.122   3.020  1.5262  3.7320 -1.1931
 8470SOL    HW237470   3.816   4.115   3.061  1.3827  0.4126 -1.0615
 8471SOL     OW37471   4.078   6.754   9.611 -0.4814  0.0358 -0.7618
 8471SOL    HW137472   4.056   6.772   9.515 -1.1873  0.6316 -0.4986
 8471SOL    HW237473   4.141   6.824   9.645 -0.2071 -0.1929 -0.8015
 8472SOL     OW37474   9.413   9.475   7.574  0.4594  0.0437  0.0571
 8472SOL    HW137475   9.399   9.487   7.672 -3.1208  0.8141 -0.4751
 8472SOL    HW237476   9.447   9.383   7.556  0.2989 -0.3935  1.9207
 8473SOL     OW37477   4.629   1.770   5.451 -0.4449  0.6438 -0.0205
 8473SOL    HW137478   4.550   1.778   5.512  1.4025 -0.9482  2.6568
 8473SOL    HW237479   4.630   1.679   5.409  0.0770  0.5950  0.0952
 8474SOL     OW37480   5.600   5.377   1.536  0.2826  0.2800 -0.3227
 8474SOL    HW137481   5.640   5.365   1.627 -0.8433 -1.2096 -0.0158
 8474SOL    HW237482   5.541   5.300   1.515  0.1353  0.8631 -2.1273
 8475SOL     OW37483   9.279   3.180   6.492 -0.1591 -0.0080 -0.2277
 8475SOL    HW137484   9.290   3.192   6.394  4.2151  0.1881  0.2129
 8475SOL    HW237485   9.306   3.264   6.539  1.5471 -1.3615  1.2964
 8476SOL     OW37486   2.857   1.207   5.731 -0.3924 -0.2523  0.3716
 8476SOL    HW137487   2.905   1.251   5.656 -1.8238  0.1199 -0.3330
 8476SOL    HW237488   2.837   1.274   5.802  0.7107 -0.5457  0.9681
 8477SOL     OW37489   5.328   3.941   1.410  0.5939  0.1651 -0.3175
 8477SOL    HW137490   5.335   3.988   1.498  1.2846 -0.5962  0.0346
 8477SOL    HW237491   5.264   3.865   1.418  1.6178 -0.6855 -0.1273
 8478SOL     OW37492   9.487   0.569   8.086  0.0847  0.2357  0.4492
 8478SOL    HW137493   9.469   0.493   8.147 -0.3505  0.1270  0.1836
 8478SOL    HW237494   9.450   0.549   7.995 -0.9620  1.2070  0.6531
 8479SOL     OW37495   7.394   1.497   6.491 -0.2387  0.2078 -0.0810
 8479SOL    HW137496   7.325   1.551   6.444 -0.5011  1.2107  1.4265
 8479SOL    HW237497   7.436   1.433   6.426 -0.4652  1.6544 -1.7020
 8480SOL     OW37498   1.912   2.587   0.574 -0.0827 -0.0440  0.4537
 8480SOL    HW137499   1.861   2.503   0.557  0.2509 -0.1720  0.0654
 8480SOL    HW237500   1.935   2.631   0.486 -0.3013  0.4785  0.6553
 8481SOL     OW37501   3.563   0.522   7.614  0.3016  0.4347 -0.3011
 8481SOL    HW137502   3.634   0.460   7.646 -0.9880 -0.3394  1.1613
 8481SOL    HW237503   3.535   0.496   7.522  0.5229 -0.5114 -0.1106
 8482SOL     OW37504   9.802   0.650   7.870  0.2945  0.4409  0.3665
 8482SOL    HW137505   9.733   0.701   7.922 -0.3830 -0.4616  0.3649
 8482SOL    HW237506   9.767   0.629   7.779  0.7433  0.3594  0.2100
 8483SOL     OW37507   3.598   3.389   9.945  0.0625  0.1266 -0.0831
 8483SOL    HW137508   3.569   3.328   9.871  1.6712 -0.8380  0.0307
 8483SOL    HW237509   3.547   3.367  10.028 -0.0199 -0.4493 -0.2827
 8484SOL     OW37510   4.577   7.934   3.913 -0.4226 -0.4854  0.1921
 8484SOL    HW137511   4.632   7.870   3.859 -0.8833 -1.3097  0.6954
 8484SOL    HW237512   4.637   8.004   3.952  0.4444 -1.9804  1.6032
 8485SOL     OW37513   8.811   7.588   2.173 -0.3075 -0.4176  0.1338
 8485SOL    HW137514   8.855   7.639   2.246  1.1697 -0.5190 -0.6554
 8485SOL    HW237515   8.722   7.629   2.152  0.3904  1.1785  0.2297
 8486SOL     OW37516   8.740   2.584   1.475  0.8106 -0.5260  0.7315
 8486SOL    HW137517   8.806   2.570   1.401 -1.7284 -0.5697 -1.6244
 8486SOL    HW237518   8.732   2.682   1.493  0.7572 -0.4501  0.3018
 8487SOL     OW37519   7.050   0.131   2.455 -0.4453 -0.2039  0.4796
 8487SOL    HW137520   7.109   0.064   2.499  0.0517 -0.4032 -0.4667
 8487SOL    HW237521   7.001   0.087   2.380 -2.7266 -0.3394  1.9963
 8488SOL     OW37522   8.423   7.482   3.754  0.1595 -0.0917 -0.3819
 8488SOL    HW137523   8.505   7.426   3.762 -0.0939 -0.7525 -2.1262
 8488SOL    HW237524   8.350   7.428   3.712 -0.5518  1.0754 -0.6683
 8489SOL     OW37525   3.281   7.853   2.390  0.2347 -0.5734 -0.0521
 8489SOL    HW137526   3.377   7.824   2.395  0.3123 -0.5808 -1.3201
 8489SOL    HW237527   3.251   7.851   2.295 -1.5353 -2.1712  0.5107
 8490SOL     OW37528   7.777   9.631   9.161 -0.1693 -0.1181 -0.6486
 8490SOL    HW137529   7.863   9.677   9.137  0.2249  0.2866  1.3987
 8490SOL    HW237530   7.706   9.657   9.096  0.8497  0.8523 -1.3976
 8491SOL     OW37531   4.004   4.560   5.757  0.0857 -0.1422  0.2422
 8491SOL    HW137532   4.037   4.494   5.689 -1.9945 -0.7544 -0.2149
 8491SOL    HW237533   3.959   4.636   5.710 -0.8847 -0.3020  0.9012
 8492SOL     OW37534   5.699   7.531   6.068  0.0840  0.1805 -0.2472
 8492SOL    HW137535   5.766   7.472   6.114 -0.2977  0.6446  0.9308
 8492SOL    HW237536   5.730   7.550   5.975  1.5934  0.3879  0.2753
 8493SOL     OW37537   9.653   9.618   5.310 -0.5191  0.1342 -0.2348
 8493SOL    HW137538   9.707   9.586   5.232 -2.4825  0.5217 -1.7755
 8493SOL    HW237539   9.568   9.659   5.278 -1.0815  0.8789  2.0863
 8494SOL     OW37540   9.524   9.757   8.562  0.2697 -0.7769 -0.2777
 8494SOL    HW137541   9.574   9.803   8.489 -1.5339  4.0843  1.3710
 8494SOL    HW237542   9.429   9.743   8.534 -0.0934 -0.0954  0.5752
 8495SOL     OW37543   7.487   0.303   7.546  0.5573  0.2600 -0.1694
 8495SOL    HW137544   7.392   0.273   7.562  0.1188  2.1573  1.0049
 8495SOL    HW237545   7.513   0.282   7.452 -0.7208 -1.1093 -0.2406
 8496SOL     OW37546   3.069   6.955   4.641  0.5302 -0.6271  0.1344
 8496SOL    HW137547   3.153   7.000   4.671  0.1775 -0.2399  0.5610
 8496SOL    HW237548   3.081   6.856   4.646 -0.1752 -0.6326  3.5808
 8497SOL     OW37549   2.935   0.939   2.920  0.4067  0.3910 -0.1044
 8497SOL    HW137550   2.987   1.022   2.943 -1.3212  1.1151  1.2870
 8497SOL    HW237551   2.837   0.960   2.921 -0.1002 -1.9699  1.4916
 8498SOL     OW37552   4.641   5.184  10.032  0.4848 -0.3382 -0.2210
 8498SOL    HW137553   4.595   5.154   9.948 -0.0105  1.7088 -0.7147
 8498SOL    HW237554   4.709   5.117  10.059  0.3082 -1.2503 -2.0053
 8499SOL     OW37555   0.294   9.532   8.449  0.3963 -0.2653  0.6394
 8499SOL    HW137556   0.385   9.572   8.443  0.2924  0.3870  2.9552
 8499SOL    HW237557   0.278   9.498   8.542 -2.9085  2.5767  1.2193
 8500SOL     OW37558   3.142   8.467   7.053  0.2655 -0.2466 -0.1555
 8500SOL    HW137559   3.080   8.503   7.123 -0.8252  0.6338 -1.5316
 8500SOL    HW237560   3.229   8.443   7.095 -0.8904 -1.2103  1.7791
 8501SOL     OW37561   9.272   9.611   6.279  0.4545  0.2618 -0.3575
 8501SOL    HW137562   9.209   9.689   6.289 -0.9995 -0.9522  0.1934
 8501SOL    HW237563   9.306   9.608   6.185 -1.3637  0.1653 -1.0358
 8502SOL     OW37564   0.252   6.099   0.252  0.4865 -0.4578 -0.3673
 8502SOL    HW137565   0.160   6.086   0.216  0.5920  2.1655 -1.7254
 8502SOL    HW237566   0.317   6.044   0.199 -0.0632 -0.8910 -0.5980
 8503SOL     OW37567   8.035   0.942   4.853  0.1787 -0.0701  0.7028
 8503SOL    HW137568   8.091   1.023   4.874  0.8960 -0.1087 -1.0032
 8503SOL    HW237569   8.012   0.941   4.755 -3.6496  0.4627  1.5008
 8504SOL     OW37570   3.320   1.572   4.237  0.0013  0.1255 -0.2322
 8504SOL    HW137571   3.266   1.554   4.319  1.4270  1.4282  1.0391
 8504SOL    HW237572   3.402   1.516   4.237 -0.3103 -0.3462 -1.1114
 8505SOL     OW37573   2.993   2.819   2.327  0.0631 -0.2614  0.1298
 8505SOL    HW137574   3.061   2.890   2.347 -2.3529  2.6462 -1.5452
 8505SOL    HW237575   2.919   2.825   2.394  0.5911 -2.2805  0.9107
 8506SOL     OW37576   4.860   7.583   1.628 -0.0487  0.3615 -0.1583
 8506SOL    HW137577   4.835   7.594   1.531  1.4020 -0.8619 -0.6787
 8506SOL    HW237578   4.951   7.543   1.635 -0.1689  0.3772  1.7306
 8507SOL     OW37579   1.906   0.058   6.305  0.4745  0.0168  0.1021
 8507SOL    HW137580   1.991   0.070   6.254 -0.1449 -0.3424 -1.0390
 8507SOL    HW237581   1.919   0.089   6.399  1.7819  0.2247 -0.1344
 8508SOL     OW37582   2.415   4.749   0.693 -0.0279  0.1160  0.1580
 8508SOL    HW137583   2.488   4.730   0.759  1.1526  3.2926 -0.1295
 8508SOL    HW237584   2.437   4.705   0.606  1.1858  0.4758  0.2781
 8509SOL     OW37585   7.818   2.596   3.539 -0.0356  0.2031 -0.3629
 8509SOL    HW137586   7.839   2.606   3.441  0.0609  0.3248 -0.3289
 8509SOL    HW237587   7.777   2.680   3.573  0.6687  0.4464 -0.1099
 8510SOL     OW37588   6.454   3.282   8.518  0.2960 -0.1756 -0.3315
 8510SOL    HW137589   6.449   3.242   8.610 -0.3760 -0.6013 -0.5479
 8510SOL    HW237590   6.378   3.345   8.505 -0.1448 -0.8241 -0.9248
 8511SOL     OW37591   4.540   9.613   7.225  0.1054  0.0366  0.6781
 8511SOL    HW137592   4.465   9.660   7.178 -1.3989 -1.2050  1.7836
 8511SOL    HW237593   4.580   9.674   7.293  0.4315  0.8740 -0.2483
 8512SOL     OW37594   6.789   0.958   7.629 -0.1321 -1.2138  0.7680
 8512SOL    HW137595   6.848   1.021   7.681 -0.8156 -1.4540  1.8556
 8512SOL    HW237596   6.732   0.906   7.693 -1.0617 -1.4495 -0.2505
 8513SOL     OW37597   2.973   0.475   6.742 -0.9582  0.0992 -0.5473
 8513SOL    HW137598   3.009   0.507   6.655 -0.8538  0.0078 -0.5377
 8513SOL    HW237599   2.918   0.393   6.727 -0.3481 -0.3291 -0.4337
 8514SOL     OW37600   1.021   1.689   7.922  0.1368  0.6122 -0.2155
 8514SOL    HW137601   0.987   1.664   8.012  0.1358  0.5064 -0.2459
 8514SOL    HW237602   0.982   1.777   7.894 -3.6255 -1.5721 -2.1622
 8515SOL     OW37603   3.462   2.111   8.355  0.0326  0.2775  0.2934
 8515SOL    HW137604   3.544   2.126   8.299 -0.0423  0.0187  0.1141
 8515SOL    HW237605   3.385   2.160   8.315 -0.2686 -0.7417 -0.4261
 8516SOL     OW37606   4.067   0.379   4.921  0.1305  0.0683 -0.2616
 8516SOL    HW137607   4.145   0.433   4.952  0.2562  0.5553 -1.3935
 8516SOL    HW237608   3.982   0.428   4.940  0.0876 -0.5272  1.1029
 8517SOL     OW37609   5.715   8.184   5.999  0.1025 -0.2911  0.3904
 8517SOL    HW137610   5.762   8.250   5.941 -2.9948  1.4247 -0.2900
 8517SOL    HW237611   5.699   8.100   5.946 -0.8909  0.5121 -0.6277
 8518SOL     OW37612   3.799   3.708   1.384 -0.6630 -0.1683 -0.0426
 8518SOL    HW137613   3.749   3.756   1.456 -1.0226 -0.5097 -0.0636
 8518SOL    HW237614   3.739   3.693   1.305  0.0011  1.0268 -0.7799
 8519SOL     OW37615   4.421   6.209   8.145  0.1895  0.4255  0.1589
 8519SOL    HW137616   4.501   6.266   8.163 -0.2739  1.6629 -1.5211
 8519SOL    HW237617   4.340   6.253   8.185  0.1800 -0.2858  0.9354
 8520SOL     OW37618   6.328   5.842   1.966  0.1114  0.2991  0.3401
 8520SOL    HW137619   6.352   5.791   2.049  0.7489 -1.5347 -0.9505
 8520SOL    HW237620   6.234   5.876   1.974  0.2521  0.3585  1.9089
 8521SOL     OW37621   7.808   9.210   6.566 -0.0795 -0.1441 -0.4652
 8521SOL    HW137622   7.902   9.241   6.585 -0.1110 -0.5931  0.4971
 8521SOL    HW237623   7.809   9.113   6.543 -0.2565 -0.0431 -0.8955
 8522SOL     OW37624   9.584   6.363   8.761 -0.2656 -0.4831 -0.5432
 8522SOL    HW137625   9.666   6.367   8.818 -0.0893  2.2319 -0.9156
 8522SOL    HW237626   9.552   6.268   8.754  0.8782 -1.1250  2.3811
 8523SOL     OW37627   7.659   5.680   3.240 -0.3803  0.0889 -0.5313
 8523SOL    HW137628   7.632   5.742   3.314 -1.4037 -1.7214  0.6277
 8523SOL    HW237629   7.716   5.731   3.174 -1.0722  2.2187  0.4553
 8524SOL     OW37630   8.233   3.697   0.500  0.3320  0.1067  0.2511
 8524SOL    HW137631   8.262   3.656   0.587 -0.3851  0.4275  0.6476
 8524SOL    HW237632   8.135   3.684   0.488  0.3017  0.7008 -0.1660
 8525SOL     OW37633   0.592   6.453   4.443  0.0357  0.5629 -0.8148
 8525SOL    HW137634   0.502   6.438   4.484  0.9345  0.3093  1.1172
 8525SOL    HW237635   0.611   6.551   4.438  0.2816  0.5730  0.2093
 8526SOL     OW37636   8.513   0.828   0.027  0.1408 -0.5168  0.3171
 8526SOL    HW137637   8.555   0.900  -0.027 -2.0632  1.2986  0.9598
 8526SOL    HW237638   8.508   0.744  -0.027  0.2683  0.5602 -1.4024
 8527SOL     OW37639   9.202   0.161   4.649 -0.2038  0.2266  0.1526
 8527SOL    HW137640   9.197   0.168   4.549 -2.3995 -0.8664  0.1700
 8527SOL    HW237641   9.220   0.066   4.674  0.5793  0.5454  0.8028
 8528SOL     OW37642   8.351   5.773   6.177  0.2064  0.4713  0.3306
 8528SOL    HW137643   8.398   5.728   6.253  0.5399  1.6827  0.8452
 8528SOL    HW237644   8.283   5.837   6.213  1.5234  2.2993 -0.3524
 8529SOL     OW37645   8.680   8.286   8.812 -0.8070 -0.3295  0.5698
 8529SOL    HW137646   8.778   8.283   8.835 -0.5651 -0.4341 -0.4615
 8529SOL    HW237647   8.634   8.350   8.874 -0.2780 -1.0799  1.7513
 8530SOL     OW37648   6.375   3.062   1.390  0.0260  0.2377  0.6891
 8530SOL    HW137649   6.415   2.988   1.444  0.5313  0.8695  1.1958
 8530SOL    HW237650   6.365   3.143   1.447 -2.1356  0.0542  0.6137
 8531SOL     OW37651   7.846   6.588  10.039 -0.5494 -0.8845  0.3295
 8531SOL    HW137652   7.886   6.624  10.124  1.9231 -0.5062 -0.9334
 8531SOL    HW237653   7.854   6.488  10.038 -1.3762 -0.9616  0.9108
 8532SOL     OW37654   2.395   3.864   2.130  0.2490  0.0063  0.1550
 8532SOL    HW137655   2.479   3.910   2.100 -1.1945  1.4705 -1.7853
 8532SOL    HW237656   2.372   3.791   2.065 -0.4883  0.2562  0.1271
 8533SOL     OW37657   5.604   1.321   3.932 -0.6184  0.1504 -0.3767
 8533SOL    HW137658   5.667   1.385   3.888 -0.5942  1.3200  1.3007
 8533SOL    HW237659   5.571   1.361   4.018 -2.8338 -0.9062 -0.7237
 8534SOL     OW37660   1.822   5.481   5.674  0.3838 -0.2093  0.1290
 8534SOL    HW137661   1.847   5.391   5.639  2.8171  1.4263 -2.5624
 8534SOL    HW237662   1.886   5.507   5.747  1.3209  0.4191 -0.9058
 8535SOL     OW37663   4.946   0.615   9.355  0.1921  0.2486  0.0900
 8535SOL    HW137664   5.032   0.661   9.331 -0.5041  0.1765 -2.6663
 8535SOL    HW237665   4.878   0.684   9.381  0.4066  0.4704  0.0674
 8536SOL     OW37666   6.312   0.829   2.922  0.1969 -0.4224  0.0924
 8536SOL    HW137667   6.309   0.909   2.983 -0.2686 -1.0169  0.8582
 8536SOL    HW237668   6.407   0.811   2.895  0.3430  0.1808  0.1909
 8537SOL     OW37669   0.404   6.053   8.573 -0.2822  0.1378  0.3796
 8537SOL    HW137670   0.330   6.119   8.587  0.0764  0.4500  0.8337
 8537SOL    HW237671   0.377   5.964   8.611 -0.1799  0.4118  1.1022
 8538SOL     OW37672   2.198   1.939   4.908 -0.1993  0.2295 -0.4835
 8538SOL    HW137673   2.288   1.910   4.876  0.3118  1.2008  0.0643
 8538SOL    HW237674   2.202   1.959   5.006 -1.0001  0.3142 -0.4649
 8539SOL     OW37675   8.056   9.300   8.732 -0.0814 -0.8276 -0.1386
 8539SOL    HW137676   8.046   9.293   8.633  3.2050  0.5865 -0.6289
 8539SOL    HW237677   8.080   9.210   8.769  0.1598 -1.0595 -0.8460
 8540SOL     OW37678   9.778   7.737   4.216 -0.0740  0.0393 -0.3183
 8540SOL    HW137679   9.736   7.707   4.130  0.6895 -0.4671 -0.5124
 8540SOL    HW237680   9.735   7.688   4.292 -2.1905  1.9514 -0.1931
 8541SOL     OW37681   2.746   9.019   0.390 -0.4721 -0.1476  0.3262
 8541SOL    HW137682   2.736   8.960   0.470  1.2893  0.0691  0.7226
 8541SOL    HW237683   2.836   9.062   0.391 -0.1409 -0.6979 -2.1685
 8542SOL     OW37684   2.652   7.862   5.006 -0.2070 -0.2028  0.4669
 8542SOL    HW137685   2.569   7.825   5.047 -1.0815  1.5721  0.3005
 8542SOL    HW237686   2.633   7.895   4.914  0.5494  0.7200  0.6315
 8543SOL     OW37687   4.084   4.266   2.286  0.0705  0.0397  0.5845
 8543SOL    HW137688   4.052   4.259   2.381  0.9388  0.7733  0.9366
 8543SOL    HW237689   4.175   4.307   2.284 -0.4269  1.1316 -0.6493
 8544SOL     OW37690   4.379   6.192   9.030  0.1252  0.0291  0.5586
 8544SOL    HW137691   4.379   6.290   9.013 -0.2784  0.0868  0.8836
 8544SOL    HW237692   4.306   6.169   9.095  0.5198 -0.4167  0.8518
 8545SOL     OW37693   0.462   8.916   2.084 -0.6889 -0.0092 -0.2749
 8545SOL    HW137694   0.514   8.830   2.082  1.3403  1.1718  0.6576
 8545SOL    HW237695   0.438   8.942   1.990  1.4893  0.0663 -0.8235
 8546SOL     OW37696   8.485   3.097   1.457  0.8281 -0.4096  0.2545
 8546SOL    HW137697   8.397   3.068   1.492  0.7917 -1.2389 -0.5271
 8546SOL    HW237698   8.512   3.182   1.502 -0.4492 -0.0513  0.3701
 8547SOL     OW37699   6.884   1.290   9.859 -0.1297  0.3147  0.2965
 8547SOL    HW137700   6.949   1.276   9.933  1.1710 -0.1255 -0.9168
 8547SOL    HW237701   6.791   1.278   9.894  0.3672  1.8659  2.2589
 8548SOL     OW37702   1.879   2.054   8.694  0.3875 -0.7138  1.1549
 8548SOL    HW137703   1.975   2.034   8.717  0.7832  0.0947  0.2347
 8548SOL    HW237704   1.871   2.071   8.596 -0.5119  0.3177  1.3982
 8549SOL     OW37705   0.391   3.850   7.573 -0.1670 -0.2450  0.3596
 8549SOL    HW137706   0.398   3.750   7.569 -0.5132 -0.3451  1.9027
 8549SOL    HW237707   0.303   3.876   7.613 -0.4017  0.6958 -0.7409
 8550SOL     OW37708   3.289   2.723   3.872 -0.0146 -0.1212  0.1257
 8550SOL    HW137709   3.257   2.658   3.941 -0.3765  1.5123  1.5396
 8550SOL    HW237710   3.353   2.787   3.914  2.7873 -1.4631 -1.9865
 8551SOL     OW37711   7.575   4.690   3.412 -0.8389  0.0375 -0.2534
 8551SOL    HW137712   7.573   4.607   3.357  0.7650  0.4060 -0.8904
 8551SOL    HW237713   7.651   4.686   3.476 -0.9008  0.9160 -0.1154
 8552SOL     OW37714   5.279   9.113   7.943 -0.5029 -0.0585 -0.0344
 8552SOL    HW137715   5.265   9.201   7.897 -2.1949  0.3058  1.1388
 8552SOL    HW237716   5.273   9.039   7.876  0.5574  0.6876 -0.9641
 8553SOL     OW37717   2.689   8.735   1.271 -0.6434 -0.2802 -0.5248
 8553SOL    HW137718   2.758   8.794   1.313 -0.6202 -1.8922  1.7901
 8553SOL    HW237719   2.601   8.749   1.317 -1.4595  0.4396 -2.2582
 8554SOL     OW37720   9.449   6.249   0.411  0.7186 -0.2824 -0.1147
 8554SOL    HW137721   9.531   6.300   0.438  0.8350 -1.1742  1.2792
 8554SOL    HW237722   9.395   6.227   0.492 -0.4947 -0.3939 -0.9454
 8555SOL     OW37723   1.150   7.855   2.407  0.0633 -0.0493  0.1885
 8555SOL    HW137724   1.094   7.919   2.461  2.8185  0.9036  2.0092
 8555SOL    HW237725   1.137   7.762   2.442  0.1245  0.2588  1.0336
 8556SOL     OW37726   7.503   8.685   8.517  0.2772 -0.1809 -1.1509
 8556SOL    HW137727   7.597   8.704   8.546  0.5191 -2.9088  0.0029
 8556SOL    HW237728   7.441   8.700   8.595 -0.0966  0.3115 -1.5371
 8557SOL     OW37729   0.056   4.503   8.208 -0.1729  0.3452 -0.3591
 8557SOL    HW137730   0.085   4.542   8.120  0.9117  1.6299  0.5464
 8557SOL    HW237731   0.108   4.419   8.226 -0.2554  0.1853 -0.8498
 8558SOL     OW37732   3.034   5.610   2.191  0.2676  0.6232  0.3121
 8558SOL    HW137733   3.097   5.582   2.118 -2.6922 -0.7752 -1.8446
 8558SOL    HW237734   3.033   5.541   2.263 -0.0660 -0.2458 -0.5092
 8559SOL     OW37735   6.087   1.601   5.151  0.8037  0.0601  0.0734
 8559SOL    HW137736   6.018   1.618   5.081  1.5507 -0.0812 -0.7059
 8559SOL    HW237737   6.155   1.536   5.117  1.8591  0.9274  0.4748
 8560SOL     OW37738   0.315   6.265   0.017  0.0823  0.1292 -0.7448
 8560SOL    HW137739   0.323   6.252  -0.082  0.8697 -0.1126 -0.6518
 8560SOL    HW237740   0.236   6.323   0.036  0.0653  0.3768 -1.5332
 8561SOL     OW37741   8.429   2.620   7.216  0.6123 -0.0330  0.1110
 8561SOL    HW137742   8.401   2.525   7.232  0.0296  0.0070 -0.6053
 8561SOL    HW237743   8.478   2.626   7.129 -1.8958  0.7826 -1.2886
 8562SOL     OW37744   1.439   8.241   4.730  0.2751  0.1213 -0.8258
 8562SOL    HW137745   1.509   8.302   4.693  0.3417  0.6494  0.1421
 8562SOL    HW237746   1.458   8.223   4.826 -1.8139  1.6051 -0.1043
 8563SOL     OW37747   9.846   3.412   9.903 -0.1101 -0.0863 -0.2478
 8563SOL    HW137748   9.850   3.315   9.928 -0.5346  0.2956  1.3643
 8563SOL    HW237749   9.894   3.427   9.817  0.0228 -1.7188 -0.4629
 8564SOL     OW37750   8.932   0.983   3.569 -0.4329 -0.1269 -0.5216
 8564SOL    HW137751   8.953   0.891   3.601 -1.4857 -0.0923  0.2841
 8564SOL    HW237752   8.834   0.991   3.551 -0.6881  1.4145  1.3974
 8565SOL     OW37753   5.310   4.981   9.893 -0.3466  0.2457 -0.4931
 8565SOL    HW137754   5.406   4.965   9.867 -0.7546 -1.1205 -1.2276
 8565SOL    HW237755   5.292   4.942   9.983  0.6634  3.6028  1.2595
 8566SOL     OW37756   9.332   3.407   2.518  0.5183 -0.2888  0.6194
 8566SOL    HW137757   9.324   3.470   2.595 -0.8867 -0.3332  0.5085
 8566SOL    HW237758   9.345   3.459   2.434  1.9338 -0.2375  0.8409
 8567SOL     OW37759   2.815   0.186   5.419 -0.0610 -0.3143 -0.1248
 8567SOL    HW137760   2.786   0.275   5.384 -0.3864 -0.8106 -1.1348
 8567SOL    HW237761   2.807   0.117   5.347 -1.5534 -1.5249  1.1502
 8568SOL     OW37762   9.655   2.757   6.482 -0.0299  0.3897 -0.1341
 8568SOL    HW137763   9.746   2.743   6.445 -0.2181  1.3993 -1.0164
 8568SOL    HW237764   9.587   2.733   6.412 -0.4663 -1.3105  0.8518
 8569SOL     OW37765   4.285   0.375   8.446 -0.8520 -0.6131 -0.4154
 8569SOL    HW137766   4.337   0.396   8.529  0.0336 -1.1027 -0.8388
 8569SOL    HW237767   4.188   0.392   8.462 -0.4616  1.2099  0.0872
 8570SOL     OW37768   5.813   8.782   5.877  0.3671 -0.4982 -0.6370
 8570SOL    HW137769   5.742   8.794   5.808 -0.1532 -0.3819 -0.0910
 8570SOL    HW237770   5.893   8.739   5.836 -0.2291 -1.1382 -1.1457
 8571SOL     OW37771   2.244   8.639   1.417  0.2429 -0.4445 -0.5436
 8571SOL    HW137772   2.210   8.665   1.327 -3.3704 -0.5852  0.7141
 8571SOL    HW237773   2.184   8.570   1.457  1.3530  0.1277  2.2549
 8572SOL     OW37774   0.447   5.000   1.537  0.0055 -0.4311 -0.5166
 8572SOL    HW137775   0.427   4.963   1.447  0.1480  0.3489 -0.8781
 8572SOL    HW237776   0.514   5.074   1.528  0.2099 -0.5207  0.2556
 8573SOL     OW37777   3.298   5.722   4.166  1.0115  0.4689 -0.0688
 8573SOL    HW137778   3.331   5.791   4.101  0.5977 -0.3150 -1.1352
 8573SOL    HW237779   3.344   5.636   4.148 -1.2158 -0.5257 -1.2744
 8574SOL     OW37780   0.292   7.927   6.111 -0.2697 -0.2292 -0.5797
 8574SOL    HW137781   0.271   7.879   6.197 -1.0411  1.3976  0.1645
 8574SOL    HW237782   0.244   7.882   6.036 -0.1519 -1.2486 -0.0596
 8575SOL     OW37783   8.373   1.038   7.086 -0.1678 -0.1147  0.1276
 8575SOL    HW137784   8.423   1.043   7.173 -1.1350  0.3216  0.6602
 8575SOL    HW237785   8.281   1.001   7.102 -0.5534  0.5044 -0.6192
 8576SOL     OW37786   1.878   4.939   2.751 -0.1228 -0.2487 -0.0407
 8576SOL    HW137787   1.781   4.962   2.753 -0.0987 -0.0490 -1.0223
 8576SOL    HW237788   1.916   4.949   2.843 -0.9128  0.1788  0.2440
 8577SOL     OW37789   1.795   3.637   1.703  0.1765  0.1563  0.3668
 8577SOL    HW137790   1.885   3.631   1.747 -0.1484 -1.9022  0.8067
 8577SOL    HW237791   1.730   3.581   1.753 -1.4831  1.9594  0.2912
 8578SOL     OW37792   3.113   3.125   5.837 -0.1431  0.4180  0.4617
 8578SOL    HW137793   3.064   3.073   5.907  0.7935  1.0260  1.5933
 8578SOL    HW237794   3.197   3.164   5.877  0.9668 -0.1228 -1.2674
 8579SOL     OW37795   4.904   0.067   6.664  0.5932  0.2923 -0.3208
 8579SOL    HW137796   4.854  -0.009   6.622  1.1335 -0.3937  0.2768
 8579SOL    HW237797   4.961   0.033   6.738  0.3307  1.3802  0.3911
 8580SOL     OW37798   4.947   0.616   6.678 -0.0999  0.1493 -0.5248
 8580SOL    HW137799   4.868   0.591   6.734 -1.2409 -0.0968 -2.1938
 8580SOL    HW237800   5.027   0.565   6.708 -0.9064 -0.6459  0.2948
 8581SOL     OW37801   2.065   8.754   1.098  0.7187  0.2827 -0.2656
 8581SOL    HW137802   2.071   8.656   1.116 -0.3843  0.4944  1.3486
 8581SOL    HW237803   1.974   8.776   1.062  1.1950  0.6204 -1.2792
 8582SOL     OW37804   0.872   7.064   8.895 -0.3533  0.2122  0.1174
 8582SOL    HW137805   0.938   7.135   8.870 -0.0576 -0.0866  0.0466
 8582SOL    HW237806   0.822   7.034   8.814  1.0040 -1.1621 -0.2406
 8583SOL     OW37807   3.547   2.318   6.773 -0.0015  0.5356 -0.8341
 8583SOL    HW137808   3.560   2.233   6.723  1.1718  0.2316 -0.0408
 8583SOL    HW237809   3.451   2.327   6.799  0.1615 -1.3613  0.5193
 8584SOL     OW37810   8.346   8.927   0.827  0.2118 -0.0805 -0.2198
 8584SOL    HW137811   8.427   8.921   0.885  0.8690  0.1505 -1.1010
 8584SOL    HW237812   8.322   8.835   0.794  0.7372 -0.0176 -0.7903
 8585SOL     OW37813   5.335   4.773   1.951 -0.1017 -0.0751  0.4209
 8585SOL    HW137814   5.280   4.852   1.978 -0.7105 -0.4459  0.2805
 8585SOL    HW237815   5.335   4.705   2.025  0.0425 -0.1450  0.3582
 8586SOL     OW37816   7.037   8.532   7.381 -0.3572  0.9992  0.0949
 8586SOL    HW137817   7.095   8.556   7.458 -0.4317 -0.7378  0.7050
 8586SOL    HW237818   7.079   8.563   7.296  0.8659  0.8197  0.6352
 8587SOL     OW37819   4.097   0.466   9.851 -0.0748  0.0732 -0.8319
 8587SOL    HW137820   4.191   0.433   9.862 -0.0769 -0.1426 -1.4401
 8587SOL    HW237821   4.080   0.484   9.754 -0.8511 -0.4556 -0.7949
 8588SOL     OW37822   4.388   7.913   3.714  0.2982 -0.3653  0.5580
 8588SOL    HW137823   4.446   7.944   3.790 -0.8188  0.8631  0.9129
 8588SOL    HW237824   4.327   7.841   3.746  0.6966 -0.7212  0.5168
 8589SOL     OW37825   8.285   5.224   5.021  0.0863  0.3387  0.2021
 8589SOL    HW137826   8.233   5.157   5.075  0.8821 -1.9059 -1.7750
 8589SOL    HW237827   8.228   5.305   5.006 -1.9587 -1.0811  0.1303
 8590SOL     OW37828   2.297   7.708   1.941 -0.0243 -0.1617 -0.0395
 8590SOL    HW137829   2.276   7.640   2.010  0.6460 -2.8766 -2.4212
 8590SOL    HW237830   2.212   7.741   1.900 -0.2877 -0.4910  0.2438
 8591SOL     OW37831   8.592   3.426   0.700 -0.4011  0.2146 -0.4907
 8591SOL    HW137832   8.600   3.471   0.788  1.1154  2.6093 -1.7930
 8591SOL    HW237833   8.510   3.368   0.699 -1.0316  1.0148  2.0747
 8592SOL     OW37834   4.588   2.608   2.718  0.0977 -0.4036  0.0126
 8592SOL    HW137835   4.634   2.687   2.759  0.3726 -1.2838  1.4794
 8592SOL    HW237836   4.518   2.639   2.654 -0.2903  1.0485  1.1068
 8593SOL     OW37837   2.463   7.786   2.268  0.0269  0.1403 -0.5890
 8593SOL    HW137838   2.529   7.838   2.322  1.0798 -1.2313 -0.5191
 8593SOL    HW237839   2.442   7.835   2.184  2.0479  0.0467 -1.1612
 8594SOL     OW37840   9.157   6.297   4.218  0.2269  0.2475  0.3358
 8594SOL    HW137841   9.173   6.393   4.241 -0.7762  0.2063  1.2022
 8594SOL    HW237842   9.083   6.290   4.152 -0.2360  0.0106  0.8815
 8595SOL     OW37843   3.060   6.919   3.637 -0.1755  0.0592 -0.2971
 8595SOL    HW137844   3.129   6.984   3.606 -0.8041  0.9136  0.0762
 8595SOL    HW237845   3.101   6.855   3.702  0.3451  0.3538 -0.3362
 8596SOL     OW37846   6.359   5.936   1.244  0.4354 -0.0637  0.0270
 8596SOL    HW137847   6.389   5.843   1.263 -0.3170 -0.4366 -0.5520
 8596SOL    HW237848   6.433   6.000   1.264  0.9739 -0.7874  0.3816
 8597SOL     OW37849   4.253   3.506   0.852  0.0473  0.1879  0.3447
 8597SOL    HW137850   4.343   3.537   0.880  0.4441 -0.1839 -0.5085
 8597SOL    HW237851   4.183   3.562   0.896  0.7111  1.0342  0.3244
 8598SOL     OW37852   7.807   1.804   3.905  0.2831 -0.0472 -0.1309
 8598SOL    HW137853   7.800   1.904   3.898  2.7135  0.0955 -0.8780
 8598SOL    HW237854   7.787   1.776   3.999 -0.9692  1.0709 -0.0355
 8599SOL     OW37855   8.242   2.859   0.698 -0.0690  0.5386 -0.2339
 8599SOL    HW137856   8.157   2.839   0.649  0.9083 -1.2267 -1.2719
 8599SOL    HW237857   8.260   2.786   0.764  0.7397  0.7718 -0.1862
 8600SOL     OW37858   9.378   5.077   4.031 -0.1206  0.2017  0.0131
 8600SOL    HW137859   9.337   5.038   4.113  0.8921  0.5821  0.6999
 8600SOL    HW237860   9.333   5.038   3.950 -0.3824 -0.9887  0.7183
 8601SOL     OW37861   8.325   9.180   9.282 -0.0102 -0.6634  0.0990
 8601SOL    HW137862   8.382   9.125   9.221 -1.5420 -0.9659 -1.0853
 8601SOL    HW237863   8.299   9.265   9.236 -4.1504 -2.4647 -1.1558
 8602SOL     OW37864   0.284   5.637   5.619 -0.0614  0.3220  0.3581
 8602SOL    HW137865   0.305   5.611   5.525  1.7383  0.4851  0.6851
 8602SOL    HW237866   0.320   5.729   5.637 -0.4728  0.3315  1.1655
 8603SOL     OW37867   0.948   8.023   3.654 -0.6887 -0.2689 -0.3332
 8603SOL    HW137868   0.994   7.954   3.709  2.9337  2.5911  0.4236
 8603SOL    HW237869   0.856   8.040   3.691 -0.5237 -2.5676  1.1890
 8604SOL     OW37870   0.768   1.506   9.505  0.2001  0.0207 -0.4140
 8604SOL    HW137871   0.731   1.591   9.541  1.0765  0.3775 -0.3528
 8604SOL    HW237872   0.694   1.440   9.492 -0.3882  0.5715  0.1452
 8605SOL     OW37873   1.371   3.103   8.641  0.2487  0.0758 -0.8591
 8605SOL    HW137874   1.393   3.200   8.634  1.7459 -0.0953  1.2891
 8605SOL    HW237875   1.455   3.050   8.648 -0.6584 -1.0710  1.6879
 8606SOL     OW37876   7.607   2.197   4.254  0.5207  0.8298 -0.0848
 8606SOL    HW137877   7.672   2.269   4.278  0.9197 -0.0808  1.6915
 8606SOL    HW237878   7.554   2.225   4.174  2.2146  2.1264 -0.7924
 8607SOL     OW37879   3.327   7.839   9.440 -0.0842 -0.0702 -0.4540
 8607SOL    HW137880   3.375   7.918   9.402 -2.4085  1.3330 -0.5940
 8607SOL    HW237881   3.326   7.846   9.540 -0.8985  0.4491 -0.4976
 8608SOL     OW37882   8.802   3.429   9.950 -0.1574  0.0736  0.5130
 8608SOL    HW137883   8.776   3.340   9.988 -3.1253 -0.0134 -1.5173
 8608SOL    HW237884   8.854   3.415   9.866 -0.9475  0.2324 -0.0093
 8609SOL     OW37885   6.956   0.184   3.653  0.3239 -0.2856 -0.4505
 8609SOL    HW137886   6.953   0.130   3.569  1.6010 -1.4122  0.2022
 8609SOL    HW237887   7.051   0.203   3.678  0.0853 -1.8157  1.8598
 8610SOL     OW37888   0.646   5.548   3.165 -0.5344  0.3438  0.1368
 8610SOL    HW137889   0.711   5.606   3.116  0.1264 -0.9366 -0.5228
 8610SOL    HW237890   0.562   5.600   3.183  0.8945  2.2401  1.6088
 8611SOL     OW37891   3.925   8.978   8.064 -0.5146 -0.2119  1.2048
 8611SOL    HW137892   3.985   8.904   8.033 -0.6504 -0.4989  1.6246
 8611SOL    HW237893   3.836   8.940   8.089 -0.9673  0.2507  0.3205
 8612SOL     OW37894   0.807   0.800   1.813  0.2411  0.4869  0.5693
 8612SOL    HW137895   0.772   0.775   1.903  0.4823  1.1321  0.8521
 8612SOL    HW237896   0.731   0.825   1.753  0.1150  0.5051  0.7377
 8613SOL     OW37897   0.956   1.843   2.266 -0.0126  0.0868 -0.0293
 8613SOL    HW137898   0.929   1.865   2.172 -2.7831 -0.1955  0.6576
 8613SOL    HW237899   0.903   1.765   2.298  0.2651  0.7481  2.0991
 8614SOL     OW37900   3.050   8.078   1.872 -0.0022 -0.0368 -0.1483
 8614SOL    HW137901   2.990   8.029   1.936  2.3910  0.1731  2.3243
 8614SOL    HW237902   3.020   8.173   1.865  0.4660  0.2557  1.6591
 8615SOL     OW37903   8.591   8.930   2.583 -0.1273  0.2357  0.0390
 8615SOL    HW137904   8.584   9.022   2.621 -0.5838 -0.1162  0.8246
 8615SOL    HW237905   8.551   8.929   2.491  0.5708  0.9860 -0.2846
 8616SOL     OW37906   3.857   5.405   5.349  0.1591 -0.2247 -0.1721
 8616SOL    HW137907   3.904   5.381   5.264 -0.6663  1.3896 -1.1121
 8616SOL    HW237908   3.796   5.331   5.376  2.8168 -2.1320  0.7939
 8617SOL     OW37909   4.760   0.188   2.299  0.2647 -0.2194 -0.2231
 8617SOL    HW137910   4.696   0.112   2.291  0.4756 -0.3899 -0.2891
 8617SOL    HW237911   4.819   0.173   2.379 -1.2804  1.0576  1.1830
 8618SOL     OW37912   1.313   7.094   8.531 -0.6905  0.0749 -0.2210
 8618SOL    HW137913   1.365   7.179   8.516 -2.1397  0.8125 -1.1384
 8618SOL    HW237914   1.364   7.017   8.493 -0.2331  0.7812 -1.0533
 8619SOL     OW37915   5.885   8.888   4.084  0.0609 -0.2309 -0.6321
 8619SOL    HW137916   5.818   8.926   4.148  1.8575  1.6317  0.2093
 8619SOL    HW237917   5.868   8.925   3.993 -0.4923 -0.3171 -0.5625
 8620SOL     OW37918   1.889   0.254   3.797 -0.3006 -0.1230 -0.9089
 8620SOL    HW137919   1.934   0.298   3.720  1.0186  1.0624  0.4868
 8620SOL    HW237920   1.871   0.323   3.868 -2.9325 -0.8821 -0.8146
 8621SOL     OW37921   2.940   8.013   7.126  0.4273  0.5917 -0.0132
 8621SOL    HW137922   2.956   7.935   7.065  1.1250  2.1624 -1.8696
 8621SOL    HW237923   2.900   7.980   7.211 -0.4557 -1.6748 -1.2539
 8622SOL     OW37924   5.036   8.321   7.303  0.7043 -0.1044  0.1035
 8622SOL    HW137925   5.105   8.289   7.238 -1.0114  1.3373 -2.5248
 8622SOL    HW237926   5.061   8.412   7.336  0.6583 -0.0890  0.0920
 8623SOL     OW37927   3.004   8.572   3.963 -0.8137  0.2872 -0.2376
 8623SOL    HW137928   3.097   8.598   3.991 -0.9358  0.4611  0.0044
 8623SOL    HW237929   2.976   8.628   3.885  0.0004 -1.0345 -1.5060
 8624SOL     OW37930   2.278   0.408   3.218  0.3315  0.8778 -0.0329
 8624SOL    HW137931   2.234   0.376   3.135  1.2792 -1.7310  0.4333
 8624SOL    HW237932   2.364   0.358   3.233  1.3775  2.9400  1.2696
 8625SOL     OW37933   9.390   8.620   5.651 -0.0329 -0.2347 -0.1732
 8625SOL    HW137934   9.337   8.660   5.576 -0.3289 -0.5450 -0.1314
 8625SOL    HW237935   9.336   8.626   5.735  0.7134  1.0597  0.2346
 8626SOL     OW37936   4.062   2.803   2.857  0.0707  0.0711 -0.3759
 8626SOL    HW137937   3.968   2.772   2.845 -0.0561  0.6493 -0.8795
 8626SOL    HW237938   4.078   2.822   2.954 -0.5164  0.5442 -0.3657
 8627SOL     OW37939   5.756   9.253   6.959 -0.0960 -0.0409  0.2024
 8627SOL    HW137940   5.756   9.298   6.870 -0.8283  2.0446  1.2216
 8627SOL    HW237941   5.829   9.291   7.015  0.1984 -1.1623  0.5855
 8628SOL     OW37942   4.215   9.433   8.508 -0.3293 -0.1982  0.2196
 8628SOL    HW137943   4.263   9.511   8.548  1.7395 -0.5889 -1.3669
 8628SOL    HW237944   4.247   9.348   8.550  0.7000 -0.4905 -1.0970
 8629SOL     OW37945   0.684   2.019   0.086 -0.7335 -0.1325 -0.7966
 8629SOL    HW137946   0.610   1.998   0.149  0.2002 -1.7123 -0.1927
 8629SOL    HW237947   0.772   2.011   0.133 -0.1420  1.3796 -1.5892
 8630SOL     OW37948   0.968   1.385   9.205 -0.2011 -0.1933 -0.1786
 8630SOL    HW137949   0.982   1.482   9.184  2.9774 -0.3063  1.1430
 8630SOL    HW237950   0.911   1.377   9.287  0.9858  0.6264  0.7524
 8631SOL     OW37951   0.186   8.044   9.374 -0.1461  0.5831 -0.1928
 8631SOL    HW137952   0.191   8.128   9.319 -1.3314  0.1092 -1.0557
 8631SOL    HW237953   0.218   7.966   9.319 -1.8974  0.0131 -0.4440
 8632SOL     OW37954   0.146   1.211   8.103 -0.3195 -0.2094 -1.0512
 8632SOL    HW137955   0.071   1.269   8.136 -1.6120 -2.6357  0.4022
 8632SOL    HW237956   0.132   1.190   8.006 -0.9793  0.1906 -1.0470
 8633SOL     OW37957   1.230   5.937   9.372  0.5259 -0.3142  0.4243
 8633SOL    HW137958   1.253   5.842   9.355  0.0703 -0.1540 -1.1065
 8633SOL    HW237959   1.315   5.991   9.379  0.7285 -0.4705 -0.8023
 8634SOL     OW37960   9.488   8.007   5.196 -0.1244  0.6388  0.3799
 8634SOL    HW137961   9.397   7.989   5.158  0.0238  1.8961 -0.6049
 8634SOL    HW237962   9.486   8.093   5.247 -0.5348 -1.4074  4.0329
 8635SOL     OW37963   9.313   1.442   0.034  0.3942  0.3282 -0.4456
 8635SOL    HW137964   9.362   1.529   0.025 -0.9856  1.0276 -1.3771
 8635SOL    HW237965   9.248   1.433  -0.041 -2.6776  0.5562  2.1270
 8636SOL     OW37966   8.003   8.159   9.982  0.4110  0.0114  0.5165
 8636SOL    HW137967   8.049   8.230   9.929 -3.2286 -0.2712 -3.2876
 8636SOL    HW237968   8.037   8.069   9.955 -0.8679 -0.0894 -0.8046
 8637SOL     OW37969   4.893   8.353   8.190 -0.3987  0.0562  0.0236
 8637SOL    HW137970   4.993   8.348   8.185 -0.1054  0.9426  3.6550
 8637SOL    HW237971   4.861   8.427   8.130  1.2133  0.3348 -0.5223
 8638SOL     OW37972   0.603   7.832   0.303 -0.3499  0.1802  0.3404
 8638SOL    HW137973   0.695   7.805   0.329 -0.2140  1.8128  1.6083
 8638SOL    HW237974   0.607   7.908   0.238 -0.7994  1.3600  1.6659
 8639SOL     OW37975   3.116   4.758   2.215  0.2864  0.0992  0.0358
 8639SOL    HW137976   3.186   4.828   2.204  0.8782 -0.4741  0.1425
 8639SOL    HW237977   3.084   4.728   2.125  1.4558 -0.9088 -0.0600
 8640SOL     OW37978   7.844   8.513   5.427  0.0575  0.3434 -0.6015
 8640SOL    HW137979   7.917   8.570   5.390 -0.1974  0.8109 -0.3922
 8640SOL    HW237980   7.777   8.571   5.473  0.5319 -0.2419  0.8740
 8641SOL     OW37981   7.265   9.806   3.329  0.7071 -0.2523 -0.1448
 8641SOL    HW137982   7.334   9.868   3.367  0.4725 -0.9026  1.3901
 8641SOL    HW237983   7.296   9.712   3.340 -0.6136 -0.5778  0.9834
 8642SOL     OW37984   5.113   2.112   8.267 -0.0796  0.2983  0.3375
 8642SOL    HW137985   5.049   2.170   8.317 -1.7286 -2.2461  1.3086
 8642SOL    HW237986   5.160   2.052   8.332  0.1823 -0.7590 -0.8218
 8643SOL     OW37987   2.686   6.962   6.448 -0.3514 -0.3953 -0.5273
 8643SOL    HW137988   2.737   6.933   6.529  1.8289  1.0330 -1.3252
 8643SOL    HW237989   2.733   7.039   6.405 -1.9986 -0.4976 -2.6087
 8644SOL     OW37990   6.897   3.787   3.243  0.1019 -0.1488  0.3866
 8644SOL    HW137991   6.809   3.752   3.274 -0.0529  0.5590  0.7568
 8644SOL    HW237992   6.884   3.875   3.197  0.4582 -0.6716 -0.7487
 8645SOL     OW37993   1.894   0.692   0.232  0.1855  0.4961  0.1287
 8645SOL    HW137994   1.966   0.753   0.265  0.5850 -1.1727  2.5456
 8645SOL    HW237995   1.935   0.605   0.205 -0.8842 -0.4233  1.3993
 8646SOL     OW37996   4.539   7.130   3.004 -0.0047  0.1113 -0.1638
 8646SOL    HW137997   4.515   7.226   3.016  0.4531  0.3973 -1.5534
 8646SOL    HW237998   4.460   7.073   3.029 -0.6352  0.8804 -0.3804
 8647SOL     OW37999   3.560   6.489   3.919  0.0513 -0.1703  0.1723
 8647SOL    HW138000   3.536   6.441   3.835  0.2675  0.2690 -0.1422
 8647SOL    HW238001   3.554   6.426   3.997 -0.4821 -0.4878 -0.1255
 8648SOL     OW38002   2.092   7.777   2.504 -0.0075  0.6417  0.2031
 8648SOL    HW138003   2.182   7.733   2.508 -1.4679 -2.4276  0.5528
 8648SOL    HW238004   2.067   7.810   2.595 -0.7136 -1.6899  0.9020
 8649SOL     OW38005   9.927   9.088   2.258  0.2081  0.0768  0.1441
 8649SOL    HW138006   9.988   9.124   2.329  1.0818  0.2677 -0.6876
 8649SOL    HW238007   9.903   9.162   2.196 -1.8645  0.2778  1.1452
 8650SOL     OW38008   0.793   6.382   8.266 -0.7359  0.1816  0.3905
 8650SOL    HW138009   0.710   6.401   8.214 -0.1831 -0.9824 -0.9361
 8650SOL    HW238010   0.805   6.283   8.276 -0.3106  0.3756  1.8812
 8651SOL     OW38011   8.846   0.645   1.720  0.1105  0.2020  0.0183
 8651SOL    HW138012   8.901   0.568   1.750  0.8637  0.8934  0.4419
 8651SOL    HW238013   8.784   0.616   1.647  1.4610 -0.4548 -0.8941
 8652SOL     OW38014   6.651   1.252   9.976  0.4839  0.1317 -0.1629
 8652SOL    HW138015   6.701   1.188  10.034  0.0098 -0.4819 -0.4173
 8652SOL    HW238016   6.560   1.267  10.014 -0.0508 -0.7524 -1.0624
 8653SOL     OW38017   0.605   5.434   6.447 -0.0490 -0.1493 -0.5105
 8653SOL    HW138018   0.567   5.492   6.518  1.8810  2.3491 -1.4476
 8653SOL    HW238019   0.588   5.473   6.357  0.3518 -1.5834 -1.2410
 8654SOL     OW38020   5.056   7.662   6.293  0.3695 -0.3796 -0.5565
 8654SOL    HW138021   5.009   7.586   6.338  0.4813 -0.1914 -0.1251
 8654SOL    HW238022   5.079   7.732   6.360  1.1958 -0.4321 -0.7870
 8655SOL     OW38023   2.299   3.482   6.432 -0.3297  0.1610 -0.3512
 8655SOL    HW138024   2.391   3.460   6.400 -0.4442  0.7006 -1.0792
 8655SOL    HW238025   2.240   3.500   6.353 -0.8203  0.7462  0.1398
 8656SOL     OW38026   9.805   2.505   3.451  0.2706  0.0421  0.0396
 8656SOL    HW138027   9.810   2.520   3.353  1.6089  0.4308  0.1548
 8656SOL    HW238028   9.804   2.406   3.469 -1.4175 -0.0404 -0.4077
 8657SOL     OW38029   7.583   9.670   4.223  0.2706 -0.0140  0.5063
 8657SOL    HW138030   7.523   9.602   4.182  1.7628 -1.5500  0.7821
 8657SOL    HW238031   7.549   9.761   4.204 -1.2462 -0.8162 -0.7098
 8658SOL     OW38032   4.337   6.015   4.146 -0.3737 -0.1813 -0.0762
 8658SOL    HW138033   4.401   6.092   4.146 -1.6879  0.9405  0.3730
 8658SOL    HW238034   4.243   6.050   4.150 -0.9657 -1.8254  0.8774
 8659SOL     OW38035   0.399   1.696   5.227 -0.4915 -0.8301  0.0871
 8659SOL    HW138036   0.320   1.749   5.258  0.4530  0.8664 -0.3574
 8659SOL    HW238037   0.409   1.615   5.285 -0.6001  0.6581  2.2480
 8660SOL     OW38038   1.426   1.387   3.185  0.2662 -0.0256  0.1765
 8660SOL    HW138039   1.472   1.428   3.264  1.5787  0.9305 -1.0631
 8660SOL    HW238040   1.492   1.332   3.133 -0.9348 -1.8822  0.5438
 8661SOL     OW38041   3.445   3.197   7.812  0.1315 -0.0035  0.5628
 8661SOL    HW138042   3.403   3.188   7.902  0.8001 -1.3328  0.7527
 8661SOL    HW238043   3.406   3.276   7.765  0.7519  1.5492  2.5591
 8662SOL     OW38044   0.304   6.996   6.000 -0.2382 -0.7136 -0.2004
 8662SOL    HW138045   0.332   7.092   6.005 -0.8600 -0.5797  0.9148
 8662SOL    HW238046   0.385   6.938   6.005  0.1507 -0.2516 -0.9779
 8663SOL     OW38047   8.532   7.865   3.859  0.6698 -0.5124 -0.3501
 8663SOL    HW138048   8.505   7.808   3.937  0.8561 -0.1690 -0.0341
 8663SOL    HW238049   8.483   7.952   3.863  1.3365 -0.1402 -0.1237
 8664SOL     OW38050   7.358   8.031   2.349  0.5331  0.4122 -0.1036
 8664SOL    HW138051   7.380   7.934   2.365  1.2282  0.2666 -1.8307
 8664SOL    HW238052   7.276   8.055   2.400  1.0448 -0.7702  1.3092
 8665SOL     OW38053   2.902   9.261   9.451 -0.6308  0.0509 -0.7877
 8665SOL    HW138054   2.862   9.169   9.458 -1.8813  0.6078 -0.4332
 8665SOL    HW238055   2.835   9.323   9.409  0.4354  0.6679 -1.6057
 8666SOL     OW38056   3.128   4.671   4.283  0.3420 -0.0059  0.7120
 8666SOL    HW138057   3.101   4.745   4.344  0.5456  1.1252 -0.5423
 8666SOL    HW238058   3.188   4.607   4.332  2.4109  2.1399  1.0636
 8667SOL     OW38059   0.235   5.150   0.120 -0.1302 -0.3345  0.0371
 8667SOL    HW138060   0.308   5.207   0.158 -0.6110  1.3568 -1.4702
 8667SOL    HW238061   0.220   5.070   0.179  1.4836  0.4000  1.4828
 8668SOL     OW38062   7.766   5.754   1.649  0.1379 -0.1737  0.6097
 8668SOL    HW138063   7.854   5.762   1.602  0.2532  0.3940  0.9129
 8668SOL    HW238064   7.724   5.845   1.657 -0.1036 -0.3306  1.1632
 8669SOL     OW38065   9.355   8.856   3.337  0.3704  0.4151 -0.7463
 8669SOL    HW138066   9.347   8.955   3.330 -2.7663  0.0510 -3.1702
 8669SOL    HW238067   9.281   8.820   3.393  1.1262 -0.6208 -0.3961
 8670SOL     OW38068   1.798   3.359   6.602  0.2374  0.1254  0.3519
 8670SOL    HW138069   1.851   3.401   6.676 -0.9124 -0.2452  1.3912
 8670SOL    HW238070   1.822   3.263   6.594  0.0281  0.0558  0.5502
 8671SOL     OW38071   4.712   3.875   0.568 -0.2205  0.2277  0.2717
 8671SOL    HW138072   4.792   3.819   0.548 -0.5288 -0.5322  1.1384
 8671SOL    HW238073   4.682   3.920   0.484 -0.5961 -1.7164 -0.6713
 8672SOL     OW38074   4.999   1.087   4.194 -0.3816 -0.3681  0.1219
 8672SOL    HW138075   5.001   1.131   4.104  0.9044  1.8212  1.1644
 8672SOL    HW238076   4.976   1.155   4.264  0.7508 -1.5444  1.6838
 8673SOL     OW38077   3.531   1.398   7.213 -0.2455  0.0868 -0.0976
 8673SOL    HW138078   3.528   1.411   7.114 -0.0592 -1.7369 -0.3543
 8673SOL    HW238079   3.439   1.406   7.251 -0.3956  0.2385 -0.4903
 8674SOL     OW38080   7.012   9.319   5.648 -0.2466 -0.4244  0.2688
 8674SOL    HW138081   6.973   9.374   5.574  1.2050 -0.7181 -0.7470
 8674SOL    HW238082   7.093   9.365   5.684  0.0083 -1.0954  0.5593
 8675SOL     OW38083   5.527   7.022   2.051 -0.4152 -0.2997 -0.3514
 8675SOL    HW138084   5.538   6.994   2.147 -1.9026 -1.5821 -0.5392
 8675SOL    HW238085   5.430   7.031   2.030 -0.1618 -1.6735 -2.1956
 8676SOL     OW38086   4.054   3.703   3.695 -0.3996 -0.5176  0.2534
 8676SOL    HW138087   4.123   3.644   3.735  0.1099  0.0230  0.1753
 8676SOL    HW238088   4.012   3.658   3.616  0.5386 -0.4430 -0.2835
 8677SOL     OW38089   0.630   6.760   3.138  0.2979  0.3753 -0.3454
 8677SOL    HW138090   0.604   6.670   3.102 -0.4996  0.2034  0.6537
 8677SOL    HW238091   0.728   6.761   3.155  0.2836 -0.3777 -0.1749
 8678SOL     OW38092   8.090   7.102   8.574  0.0748  0.1672 -0.0404
 8678SOL    HW138093   8.011   7.057   8.533  1.1797 -1.0268 -0.9273
 8678SOL    HW238094   8.158   7.033   8.599  0.3260  1.0660  1.8613
 8679SOL     OW38095   2.730   1.798   4.669  0.2854 -0.1007 -0.5165
 8679SOL    HW138096   2.762   1.708   4.698 -2.2833 -0.6309  0.8815
 8679SOL    HW238097   2.638   1.789   4.631  0.1578  1.8832 -0.7359
 8680SOL     OW38098   4.883   2.771   5.618 -0.4414 -0.5433 -0.7310
 8680SOL    HW138099   4.870   2.773   5.518 -1.3746  1.6650 -0.6134
 8680SOL    HW238100   4.899   2.864   5.650  0.5969 -1.3468  1.1055
 8681SOL     OW38101   1.511   4.600   1.262  0.8153 -0.3139  0.2647
 8681SOL    HW138102   1.578   4.620   1.334  0.7170 -0.7208  0.4704
 8681SOL    HW238103   1.504   4.502   1.249 -0.6098 -0.3429  1.0959
 8682SOL     OW38104   2.317   4.666   9.353  0.3837 -0.6240  0.0214
 8682SOL    HW138105   2.220   4.672   9.375  0.1037 -0.3425 -1.3018
 8682SOL    HW238106   2.365   4.742   9.396 -0.4139  0.8502 -1.6430
 8683SOL     OW38107   2.155   9.644   2.221 -0.7809 -0.1510  0.5129
 8683SOL    HW138108   2.219   9.630   2.145 -1.8638 -1.2659 -0.2093
 8683SOL    HW238109   2.069   9.681   2.186 -0.4053  1.7458  1.5366
 8684SOL     OW38110   1.229   7.449   9.674 -0.6503 -0.7038 -0.0122
 8684SOL    HW138111   1.320   7.412   9.652 -0.6127 -0.9125  0.4905
 8684SOL    HW238112   1.160   7.378   9.660 -0.6552 -0.7593  0.2839
 8685SOL     OW38113   7.165   0.936   3.736 -0.4052  0.2180  0.1359
 8685SOL    HW138114   7.219   0.922   3.819 -2.0470 -1.4669  0.9603
 8685SOL    HW238115   7.155   0.849   3.688 -1.2660  0.7654 -0.6941
 8686SOL     OW38116   6.930   2.040   1.987 -0.3607  0.0095 -0.2253
 8686SOL    HW138117   6.976   2.077   2.068 -0.8238  1.4780 -0.5986
 8686SOL    HW238118   6.990   2.049   1.908 -0.4212 -0.1599 -0.2891
 8687SOL     OW38119   5.348   2.997   1.013  0.1034 -0.7086 -0.2883
 8687SOL    HW138120   5.306   3.009   1.102  1.8126  1.6909  0.2558
 8687SOL    HW238121   5.428   2.938   1.021 -0.0785 -0.9587 -0.3268
 8688SOL     OW38122   2.691   1.834   1.660  0.2385  0.1778  0.5552
 8688SOL    HW138123   2.675   1.918   1.713 -1.6827  0.6536 -0.7327
 8688SOL    HW238124   2.770   1.786   1.697  0.6564  1.9664  2.0537
 8689SOL     OW38125   7.430   3.855   4.394 -0.0161 -0.7317  0.7071
 8689SOL    HW138126   7.521   3.821   4.369 -0.3030 -1.3566  0.4845
 8689SOL    HW238127   7.392   3.905   4.316 -0.0567 -0.8832  0.6283
 8690SOL     OW38128   1.092   3.213   6.661  0.1556 -0.2621 -0.0197
 8690SOL    HW138129   1.066   3.126   6.703 -0.8523 -0.1643 -0.4489
 8690SOL    HW238130   1.023   3.241   6.594  0.2144  1.1101  0.4647
 8691SOL     OW38131   0.135   4.874   7.473  0.1865 -0.4517 -0.1807
 8691SOL    HW138132   0.057   4.864   7.534 -0.8781  0.7523 -1.2983
 8691SOL    HW238133   0.152   4.972   7.457  1.6081 -0.7135 -0.3475
 8692SOL     OW38134   0.848   8.242   2.174 -0.5647  0.4961 -0.5096
 8692SOL    HW138135   0.895   8.179   2.112 -1.5076 -0.1987 -0.5358
 8692SOL    HW238136   0.749   8.227   2.167 -0.8147  2.1615 -0.7039
 8693SOL     OW38137   2.294   5.435   8.996  0.2115  0.2317 -0.4518
 8693SOL    HW138138   2.273   5.413   8.901  1.0332  0.6260 -0.7302
 8693SOL    HW238139   2.341   5.523   9.000 -0.0804  0.3522  0.3472
 8694SOL     OW38140   2.066   9.152   9.794  0.2653 -0.4676 -0.1039
 8694SOL    HW138141   2.152   9.110   9.822  0.4402  0.1058  0.2087
 8694SOL    HW238142   1.997   9.080   9.783  0.4938 -0.8174  0.6809
 8695SOL     OW38143   9.511   8.926   5.081 -0.6428  0.4338  0.0501
 8695SOL    HW138144   9.545   8.898   4.991  2.5647 -0.4509  1.4616
 8695SOL    HW238145   9.484   9.022   5.078 -1.6015  0.1338 -2.1115
 8696SOL     OW38146   3.061   8.528   5.188 -0.6358 -0.1728  0.7400
 8696SOL    HW138147   3.013   8.474   5.119  1.8909 -1.6035  0.0718
 8696SOL    HW238148   3.022   8.509   5.278 -2.4268 -0.0133  0.0333
 8697SOL     OW38149   1.849   2.558   9.915  0.2452  0.0245  0.5137
 8697SOL    HW138150   1.822   2.551  10.011 -0.8536  2.1193  0.3911
 8697SOL    HW238151   1.885   2.470   9.884  1.1546 -0.5250  2.9922
 8698SOL     OW38152   7.067   5.504   8.425 -0.1759  0.3920 -0.4217
 8698SOL    HW138153   7.049   5.546   8.336  3.2222  1.1378 -0.8055
 8698SOL    HW238154   7.113   5.569   8.484 -1.7456 -0.3499  1.6956
 8699SOL     OW38155   1.373   5.930   7.414  0.0408 -0.0753 -0.0978
 8699SOL    HW138156   1.448   5.881   7.459  0.0079 -0.1887 -0.1668
 8699SOL    HW238157   1.306   5.957   7.483 -0.7918 -1.6400 -0.2879
 8700SOL     OW38158   8.015   8.417   7.809  0.5618  0.1146  0.0440
 8700SOL    HW138159   8.025   8.320   7.789  0.3112  0.6085 -2.5875
 8700SOL    HW238160   7.918   8.440   7.811  0.6138  0.2825  0.8961
 8701SOL     OW38161   9.054   1.564   2.929  0.3671 -0.0997  0.6745
 8701SOL    HW138162   8.993   1.638   2.900  0.6127  0.0107  0.4461
 8701SOL    HW238163   9.131   1.603   2.979  1.9387  0.0396 -1.7979
 8702SOL     OW38164   9.201   6.281   2.150 -0.1397  0.3587  0.2098
 8702SOL    HW138165   9.120   6.337   2.166 -0.0129  0.4131  0.6738
 8702SOL    HW238166   9.271   6.335   2.104 -0.2871  0.3683 -0.0098
 8703SOL     OW38167   8.023   4.058   7.758  0.7133  0.2291 -0.4475
 8703SOL    HW138168   8.107   4.089   7.804  0.8287  0.8482 -1.0662
 8703SOL    HW238169   7.967   4.137   7.735 -0.5778 -0.2460  0.9559
 8704SOL     OW38170   0.098   0.514   9.880  0.0766  0.2184 -0.4112
 8704SOL    HW138171   0.160   0.541   9.807  0.3864  1.9360  0.4699
 8704SOL    HW238172   0.016   0.471   9.841  1.2714 -1.0189 -1.6337
 8705SOL     OW38173   4.615   5.664   1.322  0.0958  0.2467  0.3472
 8705SOL    HW138174   4.683   5.602   1.282  0.3270  1.0168 -0.4713
 8705SOL    HW238175   4.570   5.715   1.249 -1.3202 -0.1999  0.8944
 8706SOL     OW38176   0.015   8.539   6.053 -0.1025 -0.1618 -0.4513
 8706SOL    HW138177   0.013   8.627   6.101  1.5735 -0.2796 -0.1298
 8706SOL    HW238178   0.031   8.555   5.955  1.3290 -0.1347 -0.2314
 8707SOL     OW38179   1.836   7.738   0.511  0.1959 -0.2084 -0.0258
 8707SOL    HW138180   1.875   7.798   0.442  0.1411 -0.6609 -0.4479
 8707SOL    HW238181   1.751   7.778   0.546 -0.4862 -0.6380 -1.1814
 8708SOL     OW38182   8.974   9.581   8.326  0.0598  0.0031 -1.0486
 8708SOL    HW138183   8.901   9.528   8.369 -2.6546  4.0032 -0.3954
 8708SOL    HW238184   8.966   9.573   8.226 -1.2699  0.3709 -0.9799
 8709SOL     OW38185   9.399   1.527   5.349  0.4745 -0.9780 -0.5731
 8709SOL    HW138186   9.325   1.592   5.364  0.9962 -0.4094 -0.4725
 8709SOL    HW238187   9.390   1.451   5.414  0.5142 -0.4473  0.0580
 8710SOL     OW38188   6.148   6.060   2.265 -0.6755  0.0793  0.1261
 8710SOL    HW138189   6.165   6.147   2.219 -1.3282  0.2822  0.2620
 8710SOL    HW238190   6.235   6.015   2.285 -0.3818  0.0412 -1.2048
 8711SOL     OW38191   9.077   5.875   9.345  0.4546 -0.2336  0.1696
 8711SOL    HW138192   9.086   5.968   9.382 -0.5993 -0.5768  1.2980
 8711SOL    HW238193   9.129   5.811   9.402  0.6773 -0.4324 -0.2550
 8712SOL     OW38194   9.182   1.966   8.634  0.0202 -0.0869 -0.5254
 8712SOL    HW138195   9.183   1.951   8.732 -3.3273 -2.6681 -0.8211
 8712SOL    HW238196   9.135   2.053   8.613  0.5388  0.3492  0.1150
 8713SOL     OW38197   7.412   4.262   0.199  0.6061 -0.1643  1.1994
 8713SOL    HW138198   7.432   4.357   0.222 -0.1418  0.2371  0.2069
 8713SOL    HW238199   7.439   4.203   0.276 -1.3897  1.0897  2.8959
 8714SOL     OW38200   7.983   3.506   8.226 -0.1882 -0.5509 -0.3114
 8714SOL    HW138201   7.916   3.558   8.173 -1.1855 -0.6016  0.8991
 8714SOL    HW238202   8.075   3.531   8.195 -0.6453  1.7034  0.0260
 8715SOL     OW38203   8.486   5.743   2.960  0.2671  0.1731  0.1386
 8715SOL    HW138204   8.425   5.745   2.881  0.5655  0.1060 -0.0964
 8715SOL    HW238205   8.440   5.699   3.037  0.3731 -0.7802 -0.3318
 8716SOL     OW38206   0.145   0.198   9.777  0.7529 -0.2711  0.4337
 8716SOL    HW138207   0.062   0.187   9.831  0.5565 -1.3165 -0.0524
 8716SOL    HW238208   0.133   0.272   9.711  0.8604  0.7635  1.5563
 8717SOL     OW38209   2.215   9.434   6.584 -0.3537 -0.4672 -0.4785
 8717SOL    HW138210   2.227   9.532   6.570 -0.8800 -0.6124 -2.0237
 8717SOL    HW238211   2.185   9.417   6.678  0.8209  0.7580  0.1206
 8718SOL     OW38212   2.942   8.391   3.422 -0.1584 -0.1779 -0.0313
 8718SOL    HW138213   3.022   8.358   3.472 -1.3198  0.6617  2.4594
 8718SOL    HW238214   2.948   8.363   3.326  2.0959 -1.8903  0.5876
 8719SOL     OW38215   7.795   0.893   3.616  0.3244 -0.5487  0.0605
 8719SOL    HW138216   7.801   0.818   3.550 -0.9061 -0.2898 -0.3570
 8719SOL    HW238217   7.844   0.867   3.700  1.5990 -1.0197 -0.8083
 8720SOL     OW38218   8.504   9.799   9.503 -0.0742  0.0947 -0.5336
 8720SOL    HW138219   8.441   9.725   9.524  0.7066 -0.3468  0.2498
 8720SOL    HW238220   8.455   9.871   9.452 -1.1486 -0.3279 -0.1088
 8721SOL     OW38221   4.136   5.920   3.553  0.4295 -0.5400  0.2086
 8721SOL    HW138222   4.202   5.891   3.623  1.0518 -1.5507 -0.7683
 8721SOL    HW238223   4.174   5.901   3.463 -0.0774  1.4000 -0.4273
 8722SOL     OW38224   1.724   5.133   2.459 -0.1451 -0.6906  0.0614
 8722SOL    HW138225   1.770   5.047   2.479  0.4293 -0.4449 -0.1871
 8722SOL    HW238226   1.738   5.197   2.535 -0.3779 -0.7371  0.1441
 8723SOL     OW38227   5.248   5.770   0.625  0.2557  0.0502  0.3548
 8723SOL    HW138228   5.183   5.817   0.685 -1.9386 -1.0515 -1.1086
 8723SOL    HW238229   5.280   5.686   0.669 -0.4713 -0.1772  0.4502
 8724SOL     OW38230   6.248   1.979   0.870 -0.3666 -0.1948  0.4267
 8724SOL    HW138231   6.255   1.935   0.781  0.8720  2.3200 -0.7662
 8724SOL    HW238232   6.318   2.050   0.878 -1.3351  0.5364  2.8793
 8725SOL     OW38233   4.242   4.852   0.906  0.7139  0.2409 -0.3729
 8725SOL    HW138234   4.316   4.854   0.839 -0.1677 -1.0866 -1.3944
 8725SOL    HW238235   4.235   4.761   0.947  1.8546  1.2636  2.2496
 8726SOL     OW38236   9.888   4.234   9.144  0.1352  0.2047  0.1972
 8726SOL    HW138237   9.880   4.333   9.148 -1.0002  0.2329 -1.9826
 8726SOL    HW238238   9.801   4.192   9.168  0.7768 -0.2963  1.6973
 8727SOL     OW38239   3.654   1.602   9.212  0.4888  0.4330  0.1610
 8727SOL    HW138240   3.702   1.676   9.164  0.2035  0.2446 -0.4248
 8727SOL    HW238241   3.694   1.515   9.186  0.8037  0.3746  0.8274
 8728SOL     OW38242   7.698   3.737   1.490 -0.2970 -0.3578  0.3252
 8728SOL    HW138243   7.679   3.747   1.392 -0.3537 -0.0409  0.3668
 8728SOL    HW238244   7.625   3.685   1.533  0.0653 -1.0839  0.0765
 8729SOL     OW38245   4.591   9.266   3.644 -0.3802  0.1058 -0.5317
 8729SOL    HW138246   4.566   9.348   3.695  0.4941 -0.8552  1.4716
 8729SOL    HW238247   4.679   9.232   3.676 -0.6465 -1.5112 -1.4661
 8730SOL     OW38248   0.707   2.205   2.142  0.6472  0.3360 -0.0656
 8730SOL    HW138249   0.713   2.155   2.229 -1.2182  1.1272  0.5464
 8730SOL    HW238250   0.786   2.183   2.085  2.2377  0.3405  2.1112
 8731SOL     OW38251   9.366   1.329   0.276 -0.0565  0.2905  0.3833
 8731SOL    HW138252   9.358   1.390   0.355 -1.3719  0.6354 -0.0014
 8731SOL    HW238253   9.356   1.382   0.191  1.1060 -0.1154 -0.0213
 8732SOL     OW38254   5.108   0.815   7.217 -0.0190  0.1919  0.5574
 8732SOL    HW138255   5.097   0.791   7.121 -1.6227  0.6927  0.5987
 8732SOL    HW238256   5.019   0.818   7.261  0.6121  0.9660  1.8203
 8733SOL     OW38257   6.689   8.259   5.742  0.0121 -0.2011  0.4798
 8733SOL    HW138258   6.722   8.309   5.662  0.6787 -0.5970  0.5039
 8733SOL    HW238259   6.590   8.245   5.734  0.0819 -0.2765 -0.2982
 8734SOL     OW38260   0.953   8.058   1.988  0.1582 -0.4151  0.0921
 8734SOL    HW138261   1.052   8.049   2.001  0.0670 -2.9356 -0.5811
 8734SOL    HW238262   0.932   8.052   1.891 -0.7091 -0.5374  0.2863
 8735SOL     OW38263   9.980   9.003   2.554  0.6150 -0.0413 -0.4831
 8735SOL    HW138264   9.940   9.061   2.625  0.5311 -0.4172 -0.2186
 8735SOL    HW238265  10.064   9.045   2.520 -0.1692  0.9100 -1.2684
 8736SOL     OW38266   9.407   7.020   9.221 -0.6424 -0.1088  0.3683
 8736SOL    HW138267   9.332   6.972   9.267  0.2547 -0.7667  1.1578
 8736SOL    HW238268   9.413   6.988   9.127 -1.1079 -0.3402  0.4120
 8737SOL     OW38269   9.523   5.104   6.869 -0.4711  0.6832  0.0888
 8737SOL    HW138270   9.591   5.086   6.940  0.0223  1.1170 -0.2752
 8737SOL    HW238271   9.546   5.188   6.821  1.1381 -1.3768 -2.9138
 8738SOL     OW38272   5.372   9.888   3.925 -0.3727  0.6137  0.4147
 8738SOL    HW138273   5.279   9.903   3.959 -0.7290 -2.5421  0.9776
 8738SOL    HW238274   5.370   9.821   3.850  1.2919  1.6497 -0.5761
 8739SOL     OW38275   9.618   5.650   6.537  0.0295  0.2557  0.0642
 8739SOL    HW138276   9.600   5.671   6.441 -0.2218  0.9029  0.2537
 8739SOL    HW238277   9.715   5.662   6.557  0.0651  0.2038 -0.0858
 8740SOL     OW38278   7.501   5.701   6.931 -0.1337  0.0039 -0.1284
 8740SOL    HW138279   7.548   5.734   7.013 -2.2876 -1.9491  2.0087
 8740SOL    HW238280   7.501   5.601   6.930  0.6807 -0.0068 -3.0533
 8741SOL     OW38281   1.872   8.100   6.448  0.1388  0.7726 -0.0669
 8741SOL    HW138282   1.813   8.091   6.367 -0.1896 -0.1684  0.2742
 8741SOL    HW238283   1.918   8.189   6.445 -1.2544  1.5009 -0.3649
 8742SOL     OW38284   3.546   1.849   5.290 -0.2559  0.3264 -0.7223
 8742SOL    HW138285   3.552   1.798   5.376  0.6771  2.0909  0.2863
 8742SOL    HW238286   3.461   1.902   5.289  0.1345  0.9669 -0.4948
 8743SOL     OW38287   0.294   2.492   2.313 -0.2000 -0.0266  0.6362
 8743SOL    HW138288   0.305   2.435   2.231 -1.3149  0.5864  0.0478
 8743SOL    HW238289   0.197   2.497   2.336 -0.0589  1.2512  0.9650
 8744SOL     OW38290   0.981   2.627   9.314 -0.0270  0.4263 -0.4053
 8744SOL    HW138291   1.075   2.617   9.284 -0.4172  1.4447 -2.0496
 8744SOL    HW238292   0.976   2.697   9.385  0.3982  0.6870 -0.6320
 8745SOL     OW38293   4.893   8.192   3.107 -0.2721 -0.2204  0.0922
 8745SOL    HW138294   4.805   8.173   3.150  0.4217 -2.6368  0.4934
 8745SOL    HW238295   4.903   8.134   3.026  0.7357  0.4428 -0.2580
 8746SOL     OW38296   0.485   8.540   2.730 -0.0776 -0.0092  0.3723
 8746SOL    HW138297   0.447   8.465   2.785 -1.5454 -0.0311 -0.6508
 8746SOL    HW238298   0.584   8.526   2.720  0.2655  0.1465  3.2040
 8747SOL     OW38299   4.762   5.590   4.290 -0.0314  0.6274  0.4191
 8747SOL    HW138300   4.737   5.583   4.387 -2.4077  0.6080 -0.1470
 8747SOL    HW238301   4.861   5.586   4.280  0.2276  0.4231  2.8336
 8748SOL     OW38302   2.796   9.039   1.110 -0.2388 -0.1434  0.1566
 8748SOL    HW138303   2.828   9.001   1.196  0.2696  1.1118  0.5403
 8748SOL    HW238304   2.758   9.130   1.127  0.8542  0.5604 -1.1014
 8749SOL     OW38305   4.804   9.130   3.746  0.3022  0.2048 -0.5040
 8749SOL    HW138306   4.723   9.075   3.726  0.7781 -0.6157 -0.2110
 8749SOL    HW238307   4.873   9.114   3.676  1.0648 -0.8451  0.4676
 8750SOL     OW38308   0.951   6.712   6.059 -0.3790  0.2311  0.1555
 8750SOL    HW138309   0.861   6.705   6.100 -0.7916  0.7459 -0.6436
 8750SOL    HW238310   1.021   6.699   6.129 -1.0702 -1.3131  0.5789
 8751SOL     OW38311   8.979   7.757   2.310 -0.4380  0.3990 -0.3138
 8751SOL    HW138312   9.038   7.676   2.304 -1.4584 -0.4450  0.6886
 8751SOL    HW238313   8.988   7.798   2.401 -1.9500 -0.1935  0.1184
 8752SOL     OW38314   9.998   7.448   0.821  0.4395 -0.2415  0.4161
 8752SOL    HW138315   9.998   7.362   0.872  1.9851 -1.1734 -1.0949
 8752SOL    HW238316  10.069   7.508   0.856  0.5019 -0.2835  0.3646
 8753SOL     OW38317   8.585   2.839   1.445 -0.2076 -0.1383  0.2488
 8753SOL    HW138318   8.526   2.772   1.400 -0.6871  0.2298  0.3205
 8753SOL    HW238319   8.542   2.929   1.441 -0.2871 -0.1067  1.4775
 8754SOL     OW38320   5.264   9.576   7.467 -0.2460  0.3898  0.0558
 8754SOL    HW138321   5.298   9.491   7.428  0.9541  1.0049 -0.2728
 8754SOL    HW238322   5.164   9.573   7.474 -0.4229 -0.0551 -2.2985
 8755SOL     OW38323   5.089   4.265   1.867 -0.0896  0.2297  0.3776
 8755SOL    HW138324   5.069   4.167   1.868  1.1911 -0.0487  0.6823
 8755SOL    HW238325   5.189   4.278   1.863 -0.3114  1.4898 -3.3146
 8756SOL     OW38326   7.134   5.279   9.709  0.1813 -0.3283 -0.0329
 8756SOL    HW138327   7.170   5.283   9.616  0.3538  0.7624  0.0721
 8756SOL    HW238328   7.036   5.300   9.708  0.5634  1.5438  0.2334
 8757SOL     OW38329   3.393   3.481   6.817  0.5144  0.1234  0.4642
 8757SOL    HW138330   3.402   3.428   6.732 -0.8158 -1.4112  1.2542
 8757SOL    HW238331   3.299   3.516   6.824  0.4531 -0.2413  1.5667
 8758SOL     OW38332   0.616   5.159   0.806 -0.0046 -0.0078 -0.1825
 8758SOL    HW138333   0.671   5.218   0.748 -0.0928  0.2514 -0.0037
 8758SOL    HW238334   0.671   5.081   0.835  0.5770  0.7476  0.7926
 8759SOL     OW38335   9.996   7.244   2.712  0.0798  0.5090 -0.3671
 8759SOL    HW138336  10.054   7.286   2.642  1.2868 -0.6147 -0.0622
 8759SOL    HW238337  10.052   7.186   2.771 -1.0780  0.7445  0.9959
 8760SOL     OW38338   3.780   8.487   9.797 -0.3208  0.3939  0.9817
 8760SOL    HW138339   3.737   8.522   9.880  3.3995 -0.9194  3.5988
 8760SOL    HW238340   3.869   8.529   9.785 -1.5033  1.9282 -3.4614
 8761SOL     OW38341   8.920   4.445   6.039 -0.1101 -0.1392  0.0158
 8761SOL    HW138342   8.870   4.517   5.993  1.1003  1.0733  0.5723
 8761SOL    HW238343   8.931   4.469   6.136  1.4605 -0.4193 -0.0815
 8762SOL     OW38344   8.818   3.833   3.261 -0.1704  0.3029 -0.1060
 8762SOL    HW138345   8.793   3.749   3.214  2.9411  0.7637 -2.7516
 8762SOL    HW238346   8.747   3.901   3.249 -1.3618 -0.9850 -0.4708
 8763SOL     OW38347   8.249   3.360   7.978 -0.2875  0.1636  0.7569
 8763SOL    HW138348   8.264   3.420   8.056  3.2326 -0.3128  0.5007
 8763SOL    HW238349   8.326   3.297   7.968 -1.3608 -0.7791 -2.2421
 8764SOL     OW38350   3.931   2.798   6.710 -0.0756  0.7759  0.3751
 8764SOL    HW138351   3.892   2.728   6.650 -0.6334  1.2976  0.1220
 8764SOL    HW238352   4.002   2.848   6.661  0.5510  0.1664  0.6646
 8765SOL     OW38353   1.387   7.741   7.794 -0.3503  0.0499  0.3201
 8765SOL    HW138354   1.443   7.824   7.794 -2.2109  1.3505  1.2928
 8765SOL    HW238355   1.380   7.705   7.887  1.2580 -1.7794 -0.2555
 8766SOL     OW38356   1.714   1.201   6.808 -0.2049  0.0375  0.1412
 8766SOL    HW138357   1.796   1.175   6.859 -0.0521 -0.9697 -0.5957
 8766SOL    HW238358   1.737   1.214   6.712 -0.9166 -0.3579 -0.0922
 8767SOL     OW38359   0.187   8.030   8.772  0.1619 -0.4910  0.3044
 8767SOL    HW138360   0.226   8.068   8.688 -0.9134 -0.6862 -0.2794
 8767SOL    HW238361   0.093   8.003   8.756  0.6093 -2.5089  0.9835
 8768SOL     OW38362   1.593   1.671   1.343  0.5414 -0.2596 -0.0239
 8768SOL    HW138363   1.586   1.572   1.331 -1.2491 -0.1900  0.3578
 8768SOL    HW238364   1.594   1.693   1.441  1.9411  0.0444 -0.0939
 8769SOL     OW38365   8.190   1.304   5.329 -0.0421 -0.1962  0.1421
 8769SOL    HW138366   8.257   1.276   5.398  1.0679 -1.0608 -1.2703
 8769SOL    HW238367   8.236   1.357   5.258 -1.1131  0.3248 -0.1761
 8770SOL     OW38368   2.246   1.504   5.388  0.6554 -0.4054 -0.3245
 8770SOL    HW138369   2.271   1.438   5.316  0.4763 -1.4923  0.5931
 8770SOL    HW238370   2.277   1.595   5.362  0.6655 -0.8024 -1.7470
 8771SOL     OW38371   8.977   8.046   5.254  0.2617  0.4678 -0.4592
 8771SOL    HW138372   9.063   8.062   5.301 -0.8413  1.6315  1.1842
 8771SOL    HW238373   8.901   8.051   5.319 -1.2909  2.2027 -2.3447
 8772SOL     OW38374   2.417   4.259   8.887 -0.1097 -0.1647  0.1496
 8772SOL    HW138375   2.438   4.241   8.791 -0.0109 -4.2127  0.8552
 8772SOL    HW238376   2.470   4.338   8.918 -0.1531  1.2028 -3.0816
 8773SOL     OW38377   0.009   0.541   0.174 -0.1528 -0.2102  0.0240
 8773SOL    HW138378  -0.023   0.586   0.091 -0.0344 -0.6204 -0.2465
 8773SOL    HW238379  -0.070   0.500   0.221 -0.3100  0.5773  0.4573
 8774SOL     OW38380   5.250   4.780   0.405  0.0227 -0.3707 -0.5790
 8774SOL    HW138381   5.244   4.775   0.504  1.6066 -0.3600 -0.4755
 8774SOL    HW238382   5.194   4.708   0.364 -2.1998  0.8457  0.2661
 8775SOL     OW38383   9.685   4.057   1.030  0.1313  0.5492 -0.2599
 8775SOL    HW138384   9.765   4.088   1.081 -0.2869 -0.2042  0.8610
 8775SOL    HW238385   9.691   3.958   1.015 -1.1412  0.2972  0.8213
 8776SOL     OW38386   2.707   9.404   6.913 -0.1722  0.8312  0.9030
 8776SOL    HW138387   2.694   9.502   6.925 -1.2674  0.6270  1.4373
 8776SOL    HW238388   2.805   9.383   6.914  0.1220  2.0529 -0.3544
 8777SOL     OW38389   9.193   8.606   6.141 -0.0298 -0.2528  0.5886
 8777SOL    HW138390   9.097   8.588   6.164 -0.2070  0.8336  0.7054
 8777SOL    HW238391   9.226   8.682   6.196  1.0980 -1.0323  1.0055
 8778SOL     OW38392   3.418   9.189   8.095  0.0683 -0.1617  0.2944
 8778SOL    HW138393   3.474   9.151   8.168 -2.2312 -1.9888  1.1539
 8778SOL    HW238394   3.475   9.246   8.036  1.7628  2.2737  4.0799
 8779SOL     OW38395   2.792   5.369   5.091  0.0088 -0.3283 -0.2132
 8779SOL    HW138396   2.833   5.320   5.168  0.8015  0.2385 -0.2682
 8779SOL    HW238397   2.720   5.313   5.051 -0.0838 -0.8282  0.6418
 8780SOL     OW38398   9.514   8.140   9.290  0.2500 -0.2277 -0.2788
 8780SOL    HW138399   9.609   8.110   9.301 -0.3724 -2.1453  0.0343
 8780SOL    HW238400   9.474   8.096   9.210 -0.4468  0.4143 -0.2923
 8781SOL     OW38401   2.792   4.737   6.246 -0.1412  0.7894  0.5654
 8781SOL    HW138402   2.838   4.747   6.334 -1.1104 -0.8301  1.2920
 8781SOL    HW238403   2.855   4.696   6.180  0.0414  0.3249  1.0257
 8782SOL     OW38404   0.131   3.843   5.342  0.1500 -0.1598  0.0621
 8782SOL    HW138405   0.031   3.847   5.340  0.0068 -1.1911  2.8230
 8782SOL    HW238406   0.162   3.750   5.325  0.7099  0.3787 -1.9433
 8783SOL     OW38407   7.370   2.493   4.447 -0.4789 -0.2461  0.3697
 8783SOL    HW138408   7.291   2.505   4.387  1.5503 -0.3259 -2.4341
 8783SOL    HW238409   7.340   2.459   4.536 -3.6552  0.5051 -0.3535
 8784SOL     OW38410   4.838   2.779   8.576 -0.1364 -0.1893 -0.2647
 8784SOL    HW138411   4.926   2.787   8.623  0.3420 -2.5160 -0.6554
 8784SOL    HW238412   4.819   2.863   8.525  2.2674  0.0631 -0.8163
 8785SOL     OW38413   9.428   7.254   1.035  0.3055 -0.3711  0.4988
 8785SOL    HW138414   9.404   7.247   1.131 -0.3063 -2.2936  0.2366
 8785SOL    HW238415   9.345   7.254   0.980  0.6256  1.2849 -0.0250
 8786SOL     OW38416   6.155   3.060   9.976 -1.2351  0.3163 -0.3763
 8786SOL    HW138417   6.234   3.000   9.991 -1.4005  0.1091 -0.3306
 8786SOL    HW238418   6.137   3.114  10.057 -0.4086  1.2291 -0.7933
 8787SOL     OW38419   2.049   1.027   0.125  0.0105  0.1618 -0.3527
 8787SOL    HW138420   2.085   0.963   0.194 -1.1813 -0.5092 -0.3382
 8787SOL    HW238421   2.076   0.996   0.034 -0.6446 -0.4195 -0.3512
 8788SOL     OW38422   2.268   8.885   9.119  0.0116 -0.0993  0.0704
 8788SOL    HW138423   2.253   8.869   9.217  0.5721  0.5094  0.2582
 8788SOL    HW238424   2.188   8.932   9.081  0.3340  0.8296  0.5218
 8789SOL     OW38425   4.687   0.885   0.350 -0.3571  0.1689  0.0096
 8789SOL    HW138426   4.615   0.883   0.281 -0.9897 -0.5861  0.6877
 8789SOL    HW238427   4.676   0.808   0.413  0.5030  0.5655  0.6642
 8790SOL     OW38428   7.570   1.681   6.443  0.0087  0.1225  0.5964
 8790SOL    HW138429   7.510   1.760   6.426  0.3128  0.4550  1.0766
 8790SOL    HW238430   7.513   1.599   6.456 -0.2589 -0.0994 -1.7015
 8791SOL     OW38431   1.555   2.109   4.803 -0.2339  0.2857 -0.0158
 8791SOL    HW138432   1.532   2.012   4.810 -0.9601  0.5371  1.2454
 8791SOL    HW238433   1.475   2.161   4.775  0.0957  0.5471 -0.4714
 8792SOL     OW38434   3.347   3.335   0.730  0.0713  0.0560  0.1345
 8792SOL    HW138435   3.295   3.275   0.669 -0.8267  0.3787  0.5675
 8792SOL    HW238436   3.408   3.281   0.787 -1.8855 -0.6074  1.6342
 8793SOL     OW38437   6.779   8.668   3.125  0.5411  0.0408 -0.0188
 8793SOL    HW138438   6.752   8.679   3.029  1.4954  0.1881 -0.2773
 8793SOL    HW238439   6.702   8.692   3.184  0.0189  0.1778 -0.7431
 8794SOL     OW38440   2.188   9.942   2.354 -0.2400  0.2108  0.2424
 8794SOL    HW138441   2.223   9.855   2.390  0.7206  1.0914  1.4758
 8794SOL    HW238442   2.206  10.015   2.420 -2.5127  1.0711 -0.0520
 8795SOL     OW38443   4.574   6.387   4.499 -0.1601  0.0397  0.7914
 8795SOL    HW138444   4.538   6.299   4.529 -1.0995  0.1992  0.1423
 8795SOL    HW238445   4.632   6.374   4.418 -0.5393  0.0575  0.5179
 8796SOL     OW38446   9.611   0.888   4.152  0.2020  0.7081  0.3518
 8796SOL    HW138447   9.616   0.969   4.095 -1.2552  0.6620  0.1564
 8796SOL    HW238448   9.527   0.837   4.132  1.7582 -1.6097 -0.5657
 8797SOL     OW38449   5.973   5.672   8.978  0.5095  0.2825  0.5081
 8797SOL    HW138450   5.961   5.586   9.028 -2.3760  0.3627  0.0366
 8797SOL    HW238451   6.024   5.655   8.894  0.4320 -0.8625  0.6857
 8798SOL     OW38452   8.266   2.152   6.276 -0.0589  0.4028 -0.0942
 8798SOL    HW138453   8.219   2.128   6.361  0.4613  0.9085  0.3400
 8798SOL    HW238454   8.317   2.237   6.289  1.6066 -0.5371 -0.3022
 8799SOL     OW38455   4.640   8.477   8.826 -0.4803 -0.5461  0.1200
 8799SOL    HW138456   4.732   8.440   8.839  1.5659  3.1798 -2.5308
 8799SOL    HW238457   4.633   8.566   8.871 -2.4212 -0.3245 -0.5663
 8800SOL     OW38458   2.734   1.977   7.195  0.2865 -0.4719 -0.9119
 8800SOL    HW138459   2.774   2.048   7.253  0.4589 -1.3230  0.0254
 8800SOL    HW238460   2.640   1.959   7.223  0.0258 -0.1728 -1.5655
 8801SOL     OW38461   7.144   1.557   2.580  0.1132  0.0718  0.1053
 8801SOL    HW138462   7.090   1.474   2.593 -0.7185  0.5296 -0.4063
 8801SOL    HW238463   7.086   1.637   2.594  0.5096  0.5737 -1.0922
 8802SOL     OW38464   9.855   6.340   8.895  0.1252  0.5997  0.0608
 8802SOL    HW138465   9.870   6.333   8.994  1.7482  2.1411 -0.0477
 8802SOL    HW238466   9.882   6.431   8.864 -0.8645  0.3053 -1.7348
 8803SOL     OW38467   1.611   8.169   9.295 -0.7755  0.2926 -0.7896
 8803SOL    HW138468   1.671   8.239   9.332 -1.4197  0.7202 -0.5328
 8803SOL    HW238469   1.645   8.078   9.320  0.3664  0.4965 -1.5932
 8804SOL     OW38470   8.237   2.149   0.410 -0.1819  0.1047  0.2511
 8804SOL    HW138471   8.149   2.101   0.415  0.1765 -0.7371 -1.4271
 8804SOL    HW238472   8.308   2.094   0.454  0.0764 -0.5584 -0.9870
 8805SOL     OW38473   2.280   7.026   8.105  0.0361 -0.6053  0.3469
 8805SOL    HW138474   2.209   7.082   8.146  1.0094  0.9189 -0.0409
 8805SOL    HW238475   2.352   7.008   8.171  1.5820  1.8135 -0.6082
 8806SOL     OW38476   2.437   8.838   0.424 -0.7423 -0.4959 -0.0688
 8806SOL    HW138477   2.504   8.843   0.499 -0.7665  0.6053 -0.1027
 8806SOL    HW238478   2.478   8.793   0.345  0.4157  1.3042 -0.5338
 8807SOL     OW38479   0.703   5.100   9.698 -0.2606 -0.3052  0.4822
 8807SOL    HW138480   0.723   5.018   9.645 -1.0306 -0.5080  0.5056
 8807SOL    HW238481   0.604   5.112   9.706 -0.1524 -0.1975  1.7400
 8808SOL     OW38482   9.810   5.401   1.133 -0.4818  0.1034  0.2170
 8808SOL    HW138483   9.768   5.336   1.070 -0.7724 -0.8038  1.3253
 8808SOL    HW238484   9.739   5.463   1.168 -0.5877 -0.2853  0.7075
 8809SOL     OW38485   4.385   5.418   7.562  0.4441 -0.4025  0.5018
 8809SOL    HW138486   4.325   5.359   7.507 -0.1086 -0.1449  0.8279
 8809SOL    HW238487   4.458   5.454   7.504 -0.2038 -0.0338 -0.1032
 8810SOL     OW38488   3.121   7.775   3.740  0.4491 -0.2435  0.1272
 8810SOL    HW138489   3.108   7.871   3.716  0.9016 -0.3233 -0.4449
 8810SOL    HW238490   3.045   7.745   3.799 -1.7413 -0.5779 -2.7599
 8811SOL     OW38491   8.955   9.853   7.673 -0.2692 -0.5211 -0.0089
 8811SOL    HW138492   8.895   9.912   7.620  1.0141  0.9235  0.1220
 8811SOL    HW238493   8.918   9.841   7.765 -0.7278 -0.2453 -0.1552
 8812SOL     OW38494   1.076   3.911   1.226 -0.4621  0.1455  0.1600
 8812SOL    HW138495   1.097   3.839   1.291 -0.8033 -1.0792 -1.0482
 8812SOL    HW238496   1.138   3.988   1.239  0.4713 -0.7256  0.8944
 8813SOL     OW38497   3.900   7.331   4.049  0.1198 -0.3272 -0.7490
 8813SOL    HW138498   3.802   7.317   4.037 -0.6437  1.8012  2.3264
 8813SOL    HW238499   3.926   7.420   4.013  0.9570 -0.9056 -1.5983
 8814SOL     OW38500   4.699   0.788   0.972  0.1736  0.0911  0.5242
 8814SOL    HW138501   4.752   0.726   1.030 -0.1113 -0.1461  0.5352
 8814SOL    HW238502   4.744   0.798   0.883 -0.3272 -0.9775  0.1357
 8815SOL     OW38503   4.730   3.078   1.371  0.0250  0.5190 -0.0960
 8815SOL    HW138504   4.665   3.123   1.434 -1.6304  0.4410 -1.7055
 8815SOL    HW238505   4.792   3.146   1.333 -2.0547  1.4160 -2.0190
 8816SOL     OW38506   9.865   6.960   6.496 -0.2188  0.2925 -0.1190
 8816SOL    HW138507   9.956   6.947   6.456  0.6334  0.6828  1.6780
 8816SOL    HW238508   9.867   7.034   6.563 -2.0161  0.7306 -0.4973
 8817SOL     OW38509   3.623   8.849   4.138 -0.0361 -0.2346  0.0817
 8817SOL    HW138510   3.589   8.880   4.049 -1.3030 -1.2719  0.1850
 8817SOL    HW238511   3.707   8.797   4.125 -0.7115 -1.1690 -0.6056
 8818SOL     OW38512   8.675   0.777   8.751  0.2444  0.3911 -0.0063
 8818SOL    HW138513   8.718   0.710   8.691 -2.3672 -0.5962 -0.8787
 8818SOL    HW238514   8.667   0.741   8.843  0.1745  0.0747 -0.1374
 8819SOL     OW38515   9.911   2.745   3.542  0.0415 -0.1474  0.3817
 8819SOL    HW138516   9.883   2.655   3.509  1.3555 -0.1003 -0.9145
 8819SOL    HW238517   9.861   2.815   3.492 -1.0447 -0.1584  1.4515
 8820SOL     OW38518   3.670   4.029   9.394 -0.0579  0.2810  0.1256
 8820SOL    HW138519   3.591   4.062   9.343  0.5830 -0.0520 -1.0799
 8820SOL    HW238520   3.708   4.104   9.449 -1.1046  0.4777  0.5932
 8821SOL     OW38521   2.528   2.113   0.550 -0.5834  0.3930 -0.7741
 8821SOL    HW138522   2.627   2.125   0.541 -0.3665 -0.3331  0.5916
 8821SOL    HW238523   2.481   2.191   0.508  0.5927  1.2600 -0.4952
 8822SOL     OW38524   1.812   4.760   1.929 -0.3330  0.2385 -0.0465
 8822SOL    HW138525   1.776   4.703   1.855 -1.0347  1.4032 -0.6205
 8822SOL    HW238526   1.796   4.857   1.907 -0.4779  0.5991  1.5902
 8823SOL     OW38527   3.583   2.112  10.041  0.2884  0.2445  0.2291
 8823SOL    HW138528   3.513   2.044  10.018 -0.6271  1.0368  0.6100
 8823SOL    HW238529   3.630   2.085  10.125  0.7272 -0.5009 -0.2516
 8824SOL     OW38530   8.766   1.860   2.538 -0.6087  0.2823 -0.1817
 8824SOL    HW138531   8.812   1.773   2.520 -1.6041 -0.3031  0.0989
 8824SOL    HW238532   8.708   1.884   2.461 -1.3430  0.0486  0.2970
 8825SOL     OW38533   3.462   7.781   2.863  0.2938 -0.7561  0.1937
 8825SOL    HW138534   3.475   7.765   2.961 -0.1656  0.8096  0.5122
 8825SOL    HW238535   3.375   7.827   2.847  0.3973 -0.9405 -0.9482
 8826SOL     OW38536   1.989   7.519   3.930 -0.2553  0.4636 -0.0557
 8826SOL    HW138537   2.038   7.526   4.017  0.7383  0.7760 -0.6333
 8826SOL    HW238538   2.054   7.526   3.854 -1.0121 -0.5612 -0.8245
 8827SOL     OW38539   3.763   6.122   1.902  0.3066 -0.3498 -0.2944
 8827SOL    HW138540   3.845   6.100   1.955  0.6467 -0.7412 -0.9884
 8827SOL    HW238541   3.699   6.173   1.960  0.4698 -1.2129  0.6510
 8828SOL     OW38542   2.201   4.735   6.098  0.4879 -0.2580  0.4593
 8828SOL    HW138543   2.163   4.644   6.117 -1.3248  0.4653  0.3694
 8828SOL    HW238544   2.253   4.731   6.013 -0.1741 -1.0587  0.0765
 8829SOL     OW38545   2.956   4.480   6.811  0.8402  0.3458  0.1918
 8829SOL    HW138546   3.011   4.411   6.764  1.0330  0.5470  0.1249
 8829SOL    HW238547   3.001   4.504   6.898  1.7173  1.7218 -0.6221
 8830SOL     OW38548   9.442   2.871   9.549  0.1723  0.1281 -0.4586
 8830SOL    HW138549   9.466   2.892   9.454 -0.2655 -1.1803 -0.8700
 8830SOL    HW238550   9.502   2.799   9.583  1.4556  1.7591  0.8294
 8831SOL     OW38551   2.277   1.122   2.816  0.1501 -0.0104 -0.1759
 8831SOL    HW138552   2.311   1.040   2.861  0.3672 -1.2384 -2.5204
 8831SOL    HW238553   2.177   1.125   2.821  0.1487 -0.3464 -0.0086
 8832SOL     OW38554   4.274   4.530   3.615 -0.0736  0.0280 -0.2803
 8832SOL    HW138555   4.292   4.511   3.711  1.3762  0.7868 -0.3788
 8832SOL    HW238556   4.183   4.498   3.590 -0.5805  0.1335  1.4252
 8833SOL     OW38557   3.924   8.811   8.305  0.1832  0.6763 -0.1950
 8833SOL    HW138558   3.841   8.830   8.356 -0.8334  0.4981 -1.7454
 8833SOL    HW238559   3.994   8.880   8.327 -0.3868  0.8530  1.0624
 8834SOL     OW38560   2.062   4.670   7.190  0.3457  0.4336  0.0955
 8834SOL    HW138561   2.071   4.593   7.126  0.5684  0.8403 -0.3635
 8834SOL    HW238562   2.093   4.641   7.281 -0.6167 -0.3524  0.1884
 8835SOL     OW38563   9.622   0.322   4.832  0.2685 -0.2691 -0.5052
 8835SOL    HW138564   9.704   0.317   4.775 -0.4953 -1.9398 -1.4781
 8835SOL    HW238565   9.541   0.308   4.775 -0.6311  0.2028  0.6425
 8836SOL     OW38566   8.811   7.998   8.530  0.1972 -0.0796  0.3747
 8836SOL    HW138567   8.794   7.982   8.432  1.0235 -0.3663  0.2744
 8836SOL    HW238568   8.727   8.030   8.573  0.1117  1.1306 -0.6565
 8837SOL     OW38569   1.658   4.660   5.392  0.5139 -0.0296  0.7820
 8837SOL    HW138570   1.691   4.569   5.366 -0.2724 -0.2280  0.4702
 8837SOL    HW238571   1.577   4.652   5.450 -0.7212  0.4795 -0.8280
 8838SOL     OW38572   8.818   8.171   1.351  1.0549  0.0012  0.0795
 8838SOL    HW138573   8.738   8.153   1.408  0.7975 -0.9284 -0.5665
 8838SOL    HW238574   8.900   8.135   1.397  1.2108  1.5612  1.0593
 8839SOL     OW38575   2.269   2.689   7.950 -0.3391 -0.1135  0.2331
 8839SOL    HW138576   2.342   2.649   8.005 -1.0873  2.0689  2.8868
 8839SOL    HW238577   2.298   2.693   7.854  2.4497 -0.5354  1.0240
 8840SOL     OW38578   3.369   9.523   1.786  0.2224 -0.0699  0.3287
 8840SOL    HW138579   3.321   9.586   1.725 -1.9276 -2.4448 -0.5310
 8840SOL    HW238580   3.398   9.571   1.868 -2.4795  1.7662  0.2713
 8841SOL     OW38581   0.681   4.905   2.842  0.0993  0.2815  0.5292
 8841SOL    HW138582   0.617   4.978   2.866 -1.3034 -0.8324  0.2458
 8841SOL    HW238583   0.704   4.912   2.745 -1.0784 -0.4362  0.1898
 8842SOL     OW38584   9.137   9.150   8.747 -0.0370 -0.1286 -0.3884
 8842SOL    HW138585   9.220   9.178   8.794  0.4352 -0.4826 -1.0102
 8842SOL    HW238586   9.075   9.228   8.739 -0.9321 -0.4734  2.4715
 8843SOL     OW38587   8.790   6.478   4.014 -0.3925  0.5364 -0.4477
 8843SOL    HW138588   8.725   6.471   3.938  0.8656 -1.0031 -1.4067
 8843SOL    HW238589   8.826   6.571   4.019 -1.5399  1.0060 -0.8458
 8844SOL     OW38590   3.950   3.040   3.554 -0.0136  0.0973  0.0711
 8844SOL    HW138591   3.933   2.993   3.467 -1.7613  1.4213 -0.3434
 8844SOL    HW238592   3.862   3.060   3.598  0.8456 -0.3514  2.0456
 8845SOL     OW38593   2.589   5.463   3.067  0.0927 -0.1267  0.2527
 8845SOL    HW138594   2.667   5.486   3.009  0.2756 -0.7551  0.2454
 8845SOL    HW238595   2.506   5.504   3.029  0.4056  0.4688  0.2152
 8846SOL     OW38596   8.879   9.333   2.678  0.1140  0.5159 -0.0173
 8846SOL    HW138597   8.879   9.432   2.673  1.8777  0.5284  0.1186
 8846SOL    HW238598   8.943   9.303   2.749  1.1635 -0.7799 -1.4821
 8847SOL     OW38599   9.334   1.602   4.690 -0.1612 -0.0695  0.0440
 8847SOL    HW138600   9.352   1.656   4.608 -0.1825 -0.6153 -0.3229
 8847SOL    HW238601   9.373   1.511   4.679 -0.6411 -0.3226  0.4151
 8848SOL     OW38602   6.990   4.880   9.163 -0.5368  0.2372  0.1282
 8848SOL    HW138603   6.920   4.899   9.096  0.9879 -0.1250 -1.6128
 8848SOL    HW238604   7.019   4.965   9.207 -0.7310  0.6373 -0.5110
 8849SOL     OW38605   9.375   2.071   8.121 -0.6035 -0.4275  0.2822
 8849SOL    HW138606   9.346   2.110   8.209 -1.2126 -1.0322  0.3498
 8849SOL    HW238607   9.302   2.084   8.053 -0.6255 -1.0502  0.1880
 8850SOL     OW38608   3.454   2.188   5.488 -0.4108  0.1578 -0.2243
 8850SOL    HW138609   3.474   2.236   5.402  0.2153  1.2531  0.5127
 8850SOL    HW238610   3.420   2.254   5.555 -0.7741 -0.6702  0.4046
 8851SOL     OW38611   7.616   9.450   4.588 -0.0569  0.0767  0.2153
 8851SOL    HW138612   7.609   9.537   4.539 -1.3014  0.5311  1.1598
 8851SOL    HW238613   7.526   9.423   4.621  0.6837 -0.3924  1.9161
 8852SOL     OW38614   9.397   9.240   8.888 -0.9858 -0.0100  0.0887
 8852SOL    HW138615   9.383   9.178   8.965  1.0101 -1.0577 -0.3624
 8852SOL    HW238616   9.464   9.309   8.912  0.2998 -0.8587 -0.9650
 8853SOL     OW38617   0.273   5.901   8.330  0.4358  0.3046  0.1480
 8853SOL    HW138618   0.298   5.957   8.410 -0.1377  1.2046 -0.2906
 8853SOL    HW238619   0.174   5.889   8.327  0.5615 -0.8347  0.2868
 8854SOL     OW38620   3.823   9.200   0.658 -0.3128 -0.2686 -0.6206
 8854SOL    HW138621   3.899   9.161   0.711 -0.8617 -0.0011  0.3685
 8854SOL    HW238622   3.781   9.274   0.709 -1.1006 -0.2542 -1.2713
 8855SOL     OW38623   5.098   2.090   9.130  0.1694 -0.4890 -0.1425
 8855SOL    HW138624   5.146   2.126   9.050 -1.5083 -0.6995 -1.2531
 8855SOL    HW238625   5.046   2.009   9.104 -2.0020  0.6044  0.7117
 8856SOL     OW38626   7.627   1.023   5.334 -0.0348 -0.5777  0.0192
 8856SOL    HW138627   7.538   1.002   5.293 -0.3047  0.6904 -0.0472
 8856SOL    HW238628   7.629   1.119   5.361  1.0191 -0.8171  0.7781
 8857SOL     OW38629   0.482   7.262   7.742 -0.0197  0.4985  0.1504
 8857SOL    HW138630   0.527   7.225   7.661  2.1386  2.1521  0.5469
 8857SOL    HW238631   0.542   7.251   7.822 -0.7253  1.8464  0.8903
 8858SOL     OW38632   0.835   6.842   2.917  0.6084 -0.1146 -0.2320
 8858SOL    HW138633   0.884   6.898   2.850  0.1031 -0.2595 -0.7258
 8858SOL    HW238634   0.816   6.752   2.879  1.2229 -0.5537  0.4853
 8859SOL     OW38635   9.508   0.783   8.341 -0.1433 -0.0141  0.5447
 8859SOL    HW138636   9.462   0.748   8.260 -1.2579  0.0289  1.1424
 8859SOL    HW238637   9.596   0.737   8.352 -1.3174 -2.2287  1.0047
 8860SOL     OW38638   2.046   6.872   1.103  0.3481 -0.0394 -0.1390
 8860SOL    HW138639   1.995   6.941   1.051  2.2838  2.1978  0.8853
 8860SOL    HW238640   2.072   6.798   1.042 -2.5539 -0.3679 -1.0630
 8861SOL     OW38641   8.684   3.595   8.512 -0.0988  0.2603 -0.1841
 8861SOL    HW138642   8.599   3.612   8.562  0.5571  0.0263  1.0208
 8861SOL    HW238643   8.747   3.671   8.525  0.5639 -0.3778  0.3945
 8862SOL     OW38644   8.575   1.352   9.221 -0.2784  0.2052 -0.0490
 8862SOL    HW138645   8.512   1.428   9.205 -1.8977 -1.1616 -0.2267
 8862SOL    HW238646   8.645   1.381   9.286 -1.5211  1.4942  0.7540
 8863SOL     OW38647   1.808   7.869   3.429 -0.6761 -0.1832  0.1705
 8863SOL    HW138648   1.899   7.858   3.469 -0.5012 -1.4747 -0.5578
 8863SOL    HW238649   1.779   7.965   3.436  0.9039  0.3045  0.0165
 8864SOL     OW38650   6.700   0.821   9.587  0.2184 -0.1754 -0.0764
 8864SOL    HW138651   6.621   0.882   9.582 -0.1244 -0.6007  0.1631
 8864SOL    HW238652   6.744   0.816   9.497  0.1037  0.2371 -0.1533
 8865SOL     OW38653   3.384   8.070   2.112 -0.2572 -0.2468 -0.5242
 8865SOL    HW138654   3.389   8.143   2.180  1.1166 -0.3156 -0.5395
 8865SOL    HW238655   3.320   8.000   2.143  0.1651 -0.1527  0.5803
 8866SOL     OW38656   1.929   5.926   4.113  0.1773  0.5943  0.2410
 8866SOL    HW138657   2.003   5.898   4.175 -0.3780 -0.5368  0.4009
 8866SOL    HW238658   1.967   5.983   4.040  0.7985  2.1613  1.7537
 8867SOL     OW38659   0.157   9.897   9.813 -0.0608  0.0137 -0.4235
 8867SOL    HW138660   0.109   9.891   9.900  1.1658  0.4507  0.2921
 8867SOL    HW238661   0.153   9.991   9.780 -0.6721 -0.1855 -0.9388
 8868SOL     OW38662   5.440   0.639   4.853  0.2917 -0.1237  0.5972
 8868SOL    HW138663   5.522   0.690   4.825 -0.5107  0.4572 -0.6849
 8868SOL    HW238664   5.373   0.702   4.890  0.0900 -0.5161  0.9113
 8869SOL     OW38665   8.716   0.252   8.110  0.1292  0.5471 -0.3548
 8869SOL    HW138666   8.636   0.192   8.112  1.1148 -0.7614  0.7726
 8869SOL    HW238667   8.780   0.220   8.041 -1.0987  2.6589 -2.5317
 8870SOL     OW38668   8.585   4.392   7.025  0.0351 -0.8329  0.1466
 8870SOL    HW138669   8.509   4.386   7.090 -0.0390 -0.1933  0.1237
 8870SOL    HW238670   8.664   4.343   7.061 -0.7389 -2.4507 -0.3330
 8871SOL     OW38671   7.468   0.414   2.483 -0.3677  0.3343 -0.0220
 8871SOL    HW138672   7.486   0.505   2.446 -2.2225 -0.2770 -2.6142
 8871SOL    HW238673   7.374   0.388   2.461 -0.1004 -1.9003  1.3594
 8872SOL     OW38674   2.354   4.123   6.394 -0.2972  0.2916  0.3277
 8872SOL    HW138675   2.277   4.121   6.331  0.3286 -0.3695 -0.4419
 8872SOL    HW238676   2.411   4.203   6.376 -0.0151  0.0027 -0.0885
 8873SOL     OW38677   1.019   4.547   0.475 -0.2613  0.0684  0.8438
 8873SOL    HW138678   1.099   4.538   0.534 -0.0801 -0.8910  0.4614
 8873SOL    HW238679   0.966   4.462   0.478 -1.4119  0.7803  1.2939
 8874SOL     OW38680   6.820   9.869   5.298  0.2621 -0.4905 -0.0060
 8874SOL    HW138681   6.869   9.939   5.246 -1.1938 -1.2982 -2.5455
 8874SOL    HW238682   6.734   9.905   5.332  1.3632  0.1414  2.2353
 8875SOL     OW38683   8.027   7.713   3.119  0.2356 -0.5064  0.3793
 8875SOL    HW138684   8.109   7.676   3.075  0.1045 -1.0592  0.5838
 8875SOL    HW238685   7.993   7.647   3.186 -0.4804 -0.3669  0.1658
 8876SOL     OW38686   1.645   6.128   3.259  0.1025  0.1444 -0.5113
 8876SOL    HW138687   1.724   6.187   3.275 -0.3440  0.3163  1.1167
 8876SOL    HW238688   1.673   6.032   3.267  0.0228  0.2152  0.7425
 8877SOL     OW38689   6.489   0.347   3.350  0.1118  0.2876 -0.6979
 8877SOL    HW138690   6.474   0.364   3.448  0.4005 -0.1630 -0.5744
 8877SOL    HW238691   6.468   0.430   3.299 -1.8516  0.0008 -0.4305
 8878SOL     OW38692   2.046   9.618   9.026 -0.4608  0.3485  0.5479
 8878SOL    HW138693   2.089   9.554   9.090  1.3831 -0.6512 -1.6236
 8878SOL    HW238694   2.117   9.663   8.972 -2.0146  0.7605 -1.1678
 8879SOL     OW38695   2.776   9.667   6.989 -0.4457  0.6885  0.2223
 8879SOL    HW138696   2.797   9.691   7.084  0.1225  0.9445  0.0298
 8879SOL    HW238697   2.783   9.749   6.932 -0.5126  0.4746 -0.0893
 8880SOL     OW38698   2.101   4.451   4.703  0.3406 -0.4255  0.1902
 8880SOL    HW138699   2.118   4.356   4.729  1.0865 -0.3042  0.1422
 8880SOL    HW238700   2.005   4.461   4.677  0.9554 -1.9407 -3.0480
 8881SOL     OW38701   2.419   3.222   2.873  0.3830  0.2959 -1.0447
 8881SOL    HW138702   2.430   3.298   2.810 -1.0143 -0.5028 -2.2779
 8881SOL    HW238703   2.418   3.136   2.823  2.1999 -0.5725  0.3606
 8882SOL     OW38704   1.346   8.269   3.391  0.3026 -0.3638 -0.5962
 8882SOL    HW138705   1.269   8.261   3.455 -0.2319  0.9431 -1.0685
 8882SOL    HW238706   1.312   8.288   3.299  1.0801 -2.1745 -1.2751
 8883SOL     OW38707   7.556   9.422   2.877 -0.4503  0.1626 -0.5272
 8883SOL    HW138708   7.476   9.437   2.819 -1.1447  0.2905  0.4447
 8883SOL    HW238709   7.573   9.505   2.931 -0.8966 -0.5722  0.7521
 8884SOL     OW38710   3.166   9.586   2.697  0.6806 -0.3499  0.1463
 8884SOL    HW138711   3.090   9.650   2.708 -0.3253 -1.4335 -0.4464
 8884SOL    HW238712   3.208   9.568   2.786 -0.5731 -0.7573  0.6611
 8885SOL     OW38713   9.614   9.408   6.957 -0.0959 -0.2841 -0.7646
 8885SOL    HW138714   9.618   9.409   6.857 -1.3822  0.3436 -0.8110
 8885SOL    HW238715   9.533   9.358   6.987 -1.0376  1.6184 -0.0731
 8886SOL     OW38716   0.013   4.219   8.291  0.0445  0.0551  0.5451
 8886SOL    HW138717   0.065   4.139   8.262 -0.2357  0.3988 -0.9578
 8886SOL    HW238718  -0.083   4.193   8.305 -0.0050  0.0734  0.2591
 8887SOL     OW38719   3.148   9.044   7.770  0.2624  0.0550 -0.4546
 8887SOL    HW138720   3.144   9.131   7.721  2.6033  1.3140  1.4239
 8887SOL    HW238721   3.057   9.020   7.804 -0.5699  1.3174 -1.7462
 8888SOL     OW38722   4.859   7.778   4.070  0.2032  0.0023 -0.1831
 8888SOL    HW138723   4.832   7.860   4.120 -1.4091 -0.3359 -0.4662
 8888SOL    HW238724   4.798   7.766   3.991 -0.5770 -2.3080  0.7198
 8889SOL     OW38725   3.815   3.363   2.019  0.3387  0.7076 -0.1410
 8889SOL    HW138726   3.903   3.388   1.978  0.4137  1.6536  0.5702
 8889SOL    HW238727   3.754   3.442   2.016  0.4650  0.9020  1.8717
 8890SOL     OW38728   6.312   3.243   0.545  0.2171  1.2726  0.2993
 8890SOL    HW138729   6.360   3.207   0.624  1.7559  1.4972 -0.5165
 8890SOL    HW238730   6.366   3.317   0.504 -1.6324  2.7057  0.3937
 8891SOL     OW38731   0.948   1.016   0.082  0.2505  0.2094  0.3930
 8891SOL    HW138732   0.949   1.066  -0.005 -1.5669 -0.3030  0.0406
 8891SOL    HW238733   0.869   0.955   0.083  1.2351 -1.0590  1.7072
 8892SOL     OW38734   3.402   6.526   7.063 -0.6377 -0.1993 -0.3036
 8892SOL    HW138735   3.428   6.487   7.151 -2.8940 -0.5239  0.2464
 8892SOL    HW238736   3.369   6.620   7.076 -1.8959 -0.5830 -0.6478
 8893SOL     OW38737   0.411   0.720   6.721  0.2127 -0.3941 -0.3836
 8893SOL    HW138738   0.428   0.743   6.817  0.5657  0.2842 -0.6025
 8893SOL    HW238739   0.410   0.621   6.711 -1.3284 -0.4951  0.5798
 8894SOL     OW38740   0.559   9.734  10.048 -0.3063  0.3540  0.1670
 8894SOL    HW138741   0.556   9.804  10.119 -0.0279  1.5202 -0.9510
 8894SOL    HW238742   0.473   9.733   9.998 -0.2694 -0.0184  0.1094
 8895SOL     OW38743   1.232   3.400   3.408  0.1476 -0.4837  0.4950
 8895SOL    HW138744   1.142   3.382   3.367  0.4214 -0.7716  0.0218
 8895SOL    HW238745   1.280   3.314   3.422  1.0513 -0.1919 -0.8465
 8896SOL     OW38746   0.358   8.487   6.463  0.3096  0.3230 -0.0429
 8896SOL    HW138747   0.337   8.505   6.559 -0.5614  0.9262 -0.3406
 8896SOL    HW238748   0.313   8.556   6.406 -1.8814 -1.9369 -1.1196
 8897SOL     OW38749   0.073   3.635   3.972 -0.0849 -0.3178  0.1013
 8897SOL    HW138750   0.152   3.621   3.912 -0.9832  0.7644 -1.3748
 8897SOL    HW238751   0.081   3.723   4.018 -1.7070  1.0426 -2.1238
 8898SOL     OW38752   8.270   0.571   7.623 -0.7850  0.0000 -0.2772
 8898SOL    HW138753   8.251   0.478   7.592  0.6121 -0.6766  0.8397
 8898SOL    HW238754   8.219   0.588   7.708  0.1976 -0.3017  0.3751
 8899SOL     OW38755   4.210   4.901   7.471  0.2842  0.0708 -0.0423
 8899SOL    HW138756   4.285   4.835   7.467 -0.7503 -1.1153 -0.2095
 8899SOL    HW238757   4.181   4.912   7.566  0.2878  0.0759 -0.0418
 8900SOL     OW38758   5.694   4.417   8.643 -0.1010  0.4842 -0.1310
 8900SOL    HW138759   5.785   4.453   8.621 -0.4101  0.0678 -2.1217
 8900SOL    HW238760   5.694   4.318   8.631 -0.9134  0.5286 -0.4697
 8901SOL     OW38761   3.505   9.962   1.011 -0.1289  0.3725  0.0005
 8901SOL    HW138762   3.460  10.000   1.092  0.1909  2.0379 -0.5806
 8901SOL    HW238763   3.448   9.890   0.972 -1.2695  0.9838  0.5178
 8902SOL     OW38764   4.021   8.432   0.735 -0.2214  0.0036  0.3200
 8902SOL    HW138765   3.961   8.473   0.667 -1.6501  0.3305  1.7503
 8902SOL    HW238766   4.059   8.504   0.794  1.4287 -0.2210 -0.4327
 8903SOL     OW38767   0.489   8.349   9.933  0.2304 -0.5225 -0.8291
 8903SOL    HW138768   0.407   8.406   9.924  0.8669  0.3663 -1.0081
 8903SOL    HW238769   0.461   8.255   9.953 -0.9269 -0.6193 -2.7058
 8904SOL     OW38770   6.378   3.136   1.725 -0.4851  0.2069 -0.1421
 8904SOL    HW138771   6.351   3.063   1.787  0.1083  0.4233  0.3686
 8904SOL    HW238772   6.476   3.150   1.731 -0.6473  1.2833  0.0112
 8905SOL     OW38773   1.943   3.658   8.909  0.4174 -0.2919  0.3691
 8905SOL    HW138774   1.908   3.575   8.865 -2.5228  1.5227 -0.8622
 8905SOL    HW238775   2.035   3.677   8.876  0.4093 -2.0443 -0.7211
 8906SOL     OW38776   4.383   9.010   9.704  0.2812  0.3527  0.3997
 8906SOL    HW138777   4.401   9.056   9.617  0.2840  0.6639  0.5634
 8906SOL    HW238778   4.426   9.061   9.778 -0.1460  0.3672  0.6423
 8907SOL     OW38779   8.873   1.897   8.610  0.0000 -0.1299 -1.2090
 8907SOL    HW138780   8.822   1.903   8.695 -2.3393  2.4558 -2.7018
 8907SOL    HW238781   8.891   1.801   8.589  0.2363 -0.8128  1.9492
 8908SOL     OW38782   3.681   2.771   0.486 -0.0782 -0.2055 -0.1120
 8908SOL    HW138783   3.633   2.684   0.481 -0.0656 -0.2107 -0.1455
 8908SOL    HW238784   3.617   2.843   0.512 -0.0310 -0.2706  0.1844
 8909SOL     OW38785   0.346   9.131   8.680  0.4009 -0.2444 -0.2694
 8909SOL    HW138786   0.308   9.084   8.759 -0.2325 -0.3782 -0.6493
 8909SOL    HW238787   0.282   9.200   8.647  0.6168 -0.2567 -0.7255
 8910SOL     OW38788   5.967   4.498   1.202  0.2369 -0.0815 -0.2759
 8910SOL    HW138789   6.052   4.543   1.176  0.4208 -1.3577 -2.0197
 8910SOL    HW238790   5.971   4.401   1.174 -1.4777 -0.3360  0.2860
 8911SOL     OW38791   6.426   1.529   9.033  0.4433  0.0067 -0.2931
 8911SOL    HW138792   6.366   1.605   9.008  2.6371  1.4953 -1.1284
 8911SOL    HW238793   6.442   1.531   9.132 -0.1425  0.1426 -0.1985
 8912SOL     OW38794   1.208   9.329   4.811 -0.2830  0.0527  0.1670
 8912SOL    HW138795   1.165   9.420   4.816 -0.2663  0.0183  1.1198
 8912SOL    HW238796   1.308   9.340   4.810 -0.2622  0.0237  1.1372
 8913SOL     OW38797   7.269   3.348   2.510  0.0814 -0.4778 -0.3585
 8913SOL    HW138798   7.277   3.423   2.575 -0.6300 -0.1059 -0.7034
 8913SOL    HW238799   7.222   3.271   2.554 -1.5192  0.2294 -0.8228
 8914SOL     OW38800   3.715   7.716   8.367 -0.0120  0.1056  0.3711
 8914SOL    HW138801   3.717   7.709   8.267 -2.0637 -0.0957  0.3295
 8914SOL    HW238802   3.722   7.624   8.406 -2.1051 -0.0758  0.3422
 8915SOL     OW38803   7.991   8.106   4.346 -0.3209  0.7937 -0.3437
 8915SOL    HW138804   7.918   8.172   4.365  0.3962  1.9385 -1.5212
 8915SOL    HW238805   8.068   8.124   4.408 -0.1423  1.0384 -0.6373
 8916SOL     OW38806   0.389   2.084   1.873  0.4606  0.6444  0.4161
 8916SOL    HW138807   0.402   1.990   1.903  1.0489  0.7178  0.3938
 8916SOL    HW238808   0.436   2.099   1.786 -0.0469  0.8247  0.1702
 8917SOL     OW38809   7.612   4.311   9.257 -0.1893 -0.3493  0.2195
 8917SOL    HW138810   7.672   4.238   9.224 -1.4592 -0.8124 -1.1377
 8917SOL    HW238811   7.517   4.289   9.234 -0.8884  0.3838  2.2942
 8918SOL     OW38812   2.351   5.946   9.741  0.7038  0.2875 -0.3967
 8918SOL    HW138813   2.264   5.941   9.692 -0.2668 -2.8877  1.4852
 8918SOL    HW238814   2.423   5.905   9.685  0.5654  0.9376 -1.0619
 8919SOL     OW38815   1.993   5.528   5.414 -0.3113  0.0900 -0.2157
 8919SOL    HW138816   2.043   5.597   5.362  0.8847  0.3957  1.2799
 8919SOL    HW238817   1.940   5.572   5.486  0.2870 -0.5236  0.6142
 8920SOL     OW38818   7.710   4.164   3.960  0.0779  0.3438 -0.2927
 8920SOL    HW138819   7.693   4.076   4.005  3.0983  0.8291  1.9195
 8920SOL    HW238820   7.689   4.239   4.024  3.2205  1.0691 -0.0393
 8921SOL     OW38821   3.094   3.846   0.277 -0.3534 -0.3394  0.2976
 8921SOL    HW138822   3.071   3.774   0.212  1.7554  0.5717 -1.5384
 8921SOL    HW238823   3.014   3.870   0.331 -1.6177 -2.5346 -0.5768
 8922SOL     OW38824   1.220   1.556   7.457  0.4411 -0.3814 -0.2783
 8922SOL    HW138825   1.217   1.509   7.545 -0.2496 -0.8309 -0.5339
 8922SOL    HW238826   1.179   1.647   7.466  0.1679 -0.5137 -0.1865
 8923SOL     OW38827   3.611   8.840   2.172 -0.4793  0.0822 -0.3177
 8923SOL    HW138828   3.682   8.792   2.224  1.5909 -0.9061 -3.8466
 8923SOL    HW238829   3.641   8.934   2.154  0.4048 -0.6267 -2.6339
 8924SOL     OW38830   7.146   9.250   2.625 -0.0552 -0.1995 -0.4598
 8924SOL    HW138831   7.154   9.157   2.661  0.4696  0.7179  1.9649
 8924SOL    HW238832   7.051   9.280   2.630 -0.1463 -0.4420 -0.7705
 8925SOL     OW38833   7.228   1.814   1.700 -0.1330 -0.1112  0.0463
 8925SOL    HW138834   7.227   1.908   1.666 -0.8299  0.1603  0.8092
 8925SOL    HW238835   7.134   1.780   1.710  0.0173  0.0086  2.2021
 8926SOL     OW38836   4.774   2.875   2.735  0.3423  0.0676 -0.0079
 8926SOL    HW138837   4.790   2.820   2.653  1.0448  0.4410 -0.1284
 8926SOL    HW238838   4.700   2.940   2.719  0.4994  0.1589 -0.3565
 8927SOL     OW38839   2.171   5.229   3.066  0.5057  0.5929  0.6761
 8927SOL    HW138840   2.147   5.138   3.100 -2.6940  0.8383 -0.7735
 8927SOL    HW238841   2.095   5.291   3.081  0.4722  1.6439 -3.3461
 8928SOL     OW38842   8.539   9.035   7.026 -0.4149  0.0734  0.4020
 8928SOL    HW138843   8.460   9.068   7.077  0.1292  1.2046  0.5123
 8928SOL    HW238844   8.622   9.073   7.065  0.0375  0.5841 -1.0459
 8929SOL     OW38845   9.091   9.605   1.844 -0.1917 -0.1329 -0.3740
 8929SOL    HW138846   9.134   9.673   1.902  1.3917 -1.7519  0.3888
 8929SOL    HW238847   9.101   9.514   1.885 -2.3010 -0.8339 -1.3457
 8930SOL     OW38848   2.698   2.735   8.215  0.3550 -0.6021  0.5789
 8930SOL    HW138849   2.768   2.666   8.233  1.8366  0.9771  0.9848
 8930SOL    HW238850   2.734   2.803   8.152 -1.7097 -1.1451 -1.2520
 8931SOL     OW38851   1.517   7.241   2.668 -0.4175  0.2676 -0.1317
 8931SOL    HW138852   1.463   7.303   2.612  0.6954  0.3267 -1.1572
 8931SOL    HW238853   1.547   7.289   2.751 -1.2581  0.4692  0.0589
 8932SOL     OW38854   3.157   6.368   7.909  0.1283 -0.1312  0.3392
 8932SOL    HW138855   3.214   6.427   7.967  1.3975 -1.3464  0.3418
 8932SOL    HW238856   3.100   6.310   7.968  0.9188 -0.8791  0.3781
 8933SOL     OW38857   7.065   5.731   6.765 -0.1474  0.6600  0.5330
 8933SOL    HW138858   7.033   5.825   6.774 -2.9012 -0.1736 -0.0965
 8933SOL    HW238859   6.988   5.671   6.743  1.9433 -1.3931 -1.5399
 8934SOL     OW38860   0.810   8.898   6.043  0.1575 -0.3767 -0.8262
 8934SOL    HW138861   0.885   8.961   6.061 -0.1845 -0.0996 -0.3707
 8934SOL    HW238862   0.788   8.848   6.127 -1.5746  1.0572 -0.4231
 8935SOL     OW38863   3.608   1.516   9.707 -0.1867  0.6963  0.3437
 8935SOL    HW138864   3.673   1.460   9.655  1.8598  1.3325  2.1441
 8935SOL    HW238865   3.648   1.606   9.724 -1.0151  0.6566  2.5703
 8936SOL     OW38866   4.486   9.350   0.590  0.3877  0.3179  1.0841
 8936SOL    HW138867   4.454   9.428   0.535 -0.6562 -0.9005 -0.0812
 8936SOL    HW238868   4.408   9.308   0.636  0.5347 -1.6992 -0.4693
 8937SOL     OW38869   1.046   0.303   6.651  0.1154 -0.1765 -0.3461
 8937SOL    HW138870   1.067   0.283   6.556  1.3561  1.0009 -0.3426
 8937SOL    HW238871   1.099   0.383   6.681  0.1026 -0.8123  1.4599
 8938SOL     OW38872   4.098   4.457   0.084 -0.1039  0.2504  0.3587
 8938SOL    HW138873   4.018   4.508   0.112  0.5419  0.7239  1.3587
 8938SOL    HW238874   4.171   4.469   0.151  1.3046  1.0238 -1.2423
 8939SOL     OW38875   7.500   5.073   8.508 -0.2278  0.2133 -0.1911
 8939SOL    HW138876   7.544   4.984   8.501  0.0877  0.3532 -0.0301
 8939SOL    HW238877   7.466   5.101   8.418  0.7104  0.4484 -0.4763
 8940SOL     OW38878   7.700   1.212   1.484  0.4085  0.4700  0.1265
 8940SOL    HW138879   7.770   1.282   1.492  0.1183  0.5766  2.0353
 8940SOL    HW238880   7.644   1.212   1.567  1.0282 -2.6793  0.6107
 8941SOL     OW38881   9.925   2.822   5.800  0.2462  0.2370  0.3421
 8941SOL    HW138882   9.935   2.733   5.755  3.0836  0.4732  0.4125
 8941SOL    HW238883   9.832   2.855   5.788 -0.3429 -1.8963 -1.2680
 8942SOL     OW38884   8.252   9.392   0.687  0.1039 -0.7152 -0.2020
 8942SOL    HW138885   8.295   9.315   0.639  0.1427 -0.5790 -0.3895
 8942SOL    HW238886   8.176   9.427   0.632  0.1991 -0.5051 -0.1990
 8943SOL     OW38887   4.970   8.829   8.002 -0.1438 -0.3720 -0.4582
 8943SOL    HW138888   4.953   8.916   8.049 -0.6426  0.5497 -2.2864
 8943SOL    HW238889   5.069   8.814   7.995 -0.0702 -0.4286  0.7262
 8944SOL     OW38890   2.210   4.807   7.776 -0.3120  0.3162 -0.3212
 8944SOL    HW138891   2.245   4.770   7.690 -0.3415  1.8210 -1.0081
 8944SOL    HW238892   2.131   4.754   7.805  0.7869 -1.3413 -0.2500
 8945SOL     OW38893   8.038   9.481   5.909 -0.2271 -0.0347  0.1608
 8945SOL    HW138894   8.018   9.551   5.841 -0.5759 -1.5342 -1.3394
 8945SOL    HW238895   8.111   9.513   5.970  0.6585  1.0473 -1.4174
 8946SOL     OW38896   8.179   4.559   7.094 -0.6596 -0.2444  0.0458
 8946SOL    HW138897   8.105   4.572   7.160  0.5351 -0.7664  1.5318
 8946SOL    HW238898   8.154   4.486   7.030 -1.2027 -0.7968  0.8820
 8947SOL     OW38899   9.491   0.474   2.961 -0.6020  0.9256 -0.4557
 8947SOL    HW138900   9.439   0.437   3.038 -0.2695 -0.2545 -0.7890
 8947SOL    HW238901   9.437   0.546   2.916 -2.6064 -1.2226 -1.6410
 8948SOL     OW38902   1.947   3.214   0.259 -0.5800 -0.2489 -0.0332
 8948SOL    HW138903   2.038   3.186   0.227 -0.6253 -0.4602  0.0179
 8948SOL    HW238904   1.886   3.134   0.258 -1.1889  0.2193 -1.5490
 8949SOL     OW38905   1.136   9.057   7.810  0.1544 -0.2467  0.1897
 8949SOL    HW138906   1.049   9.065   7.763  0.1377 -0.3929  0.1955
 8949SOL    HW238907   1.197   9.130   7.780 -0.0559  0.0073  0.3731
 8950SOL     OW38908   4.810   3.972   6.203 -0.0569 -0.1702  0.1120
 8950SOL    HW138909   4.782   4.068   6.196  0.1760  0.0376  1.8267
 8950SOL    HW238910   4.747   3.915   6.151 -1.6611  0.6660  1.1115
 8951SOL     OW38911   6.890   2.752   0.056  0.4955 -0.6104  0.2802
 8951SOL    HW138912   6.936   2.793  -0.023 -1.0106  0.7787  0.1072
 8951SOL    HW238913   6.891   2.652   0.047  1.3063 -0.5079 -0.9261
 8952SOL     OW38914   4.612   7.956   2.317  0.4371  0.5356 -0.0632
 8952SOL    HW138915   4.595   8.042   2.268 -0.2454  1.0508  1.0627
 8952SOL    HW238916   4.708   7.929   2.304  0.6077  1.3699 -0.5723
 8953SOL     OW38917   0.121   4.517   9.840 -0.3813 -0.2202 -0.2207
 8953SOL    HW138918   0.099   4.585   9.909 -0.7787  1.5217 -2.0252
 8953SOL    HW238919   0.173   4.560   9.766 -2.2066 -1.4224 -2.2782
 8954SOL     OW38920   7.345   9.006   9.103 -0.1846  0.0286 -0.5561
 8954SOL    HW138921   7.424   9.029   9.046 -0.4252  1.5445 -0.2933
 8954SOL    HW238922   7.283   9.084   9.108  0.4751  0.3931  2.8796
 8955SOL     OW38923   4.020   8.201   4.571 -0.1802  0.1847  0.1791
 8955SOL    HW138924   4.062   8.202   4.662  0.6204  2.4040 -0.1868
 8955SOL    HW238925   4.091   8.211   4.501 -0.8096 -1.3158 -0.6914
 8956SOL     OW38926   1.959   2.039   5.016  0.2645 -0.1105  0.0076
 8956SOL    HW138927   2.015   1.964   4.983  0.9195  0.5724 -0.4206
 8956SOL    HW238928   1.901   2.073   4.942  0.8193  0.5825 -0.1113
 8957SOL     OW38929   9.790   4.566   9.716 -0.3402 -0.0986  0.2487
 8957SOL    HW138930   9.743   4.649   9.747  1.3786  0.4217  1.5269
 8957SOL    HW238931   9.816   4.511   9.795  0.3283 -0.8547 -0.4988
 8958SOL     OW38932   4.223   2.930   5.906 -0.0953  0.0823 -0.2213
 8958SOL    HW138933   4.296   2.998   5.893  1.0156 -1.3798 -1.7071
 8958SOL    HW238934   4.135   2.972   5.885  0.3598  1.6423  0.8254
 8959SOL     OW38935   3.876   5.503   8.608  0.5512 -0.4649 -0.2525
 8959SOL    HW138936   3.816   5.555   8.546 -0.5558 -0.6473  0.6447
 8959SOL    HW238937   3.967   5.543   8.607  0.3181  0.0684 -1.3488
 8960SOL     OW38938   3.873   0.561   8.863  0.4837 -0.1797 -0.0770
 8960SOL    HW138939   3.786   0.521   8.889 -0.3943  1.0449 -1.0793
 8960SOL    HW238940   3.870   0.589   8.767  1.4158  1.3398  0.3172
 8961SOL     OW38941   8.880   7.615   0.197  0.9247  0.6838 -0.3587
 8961SOL    HW138942   8.958   7.586   0.141  2.4125  1.8171  1.0594
 8961SOL    HW238943   8.911   7.683   0.263 -0.7949 -0.5342  1.7537
 8962SOL     OW38944   2.230   2.023   2.863  0.3372  0.4483  0.5137
 8962SOL    HW138945   2.174   2.087   2.915 -0.7677 -0.4114  0.3985
 8962SOL    HW238946   2.186   2.003   2.775  0.7074 -0.4112  0.5120
 8963SOL     OW38947   0.522   1.362   7.658  0.1657 -0.3648  0.0418
 8963SOL    HW138948   0.609   1.370   7.707  0.6816  1.3487 -1.1231
 8963SOL    HW238949   0.534   1.389   7.562 -1.5080 -0.7462 -0.3042
 8964SOL     OW38950   9.696   6.235   0.753  0.0440 -0.2617 -0.0778
 8964SOL    HW138951   9.636   6.305   0.713 -0.6815 -1.0895 -0.4476
 8964SOL    HW238952   9.787   6.274   0.769  0.1259  0.3035 -1.8155
 8965SOL     OW38953   7.317   3.587   3.568  0.1478  0.7247 -0.2420
 8965SOL    HW138954   7.394   3.571   3.506  0.0455  0.0064 -0.1864
 8965SOL    HW238955   7.235   3.544   3.532  0.2691 -0.3841  0.7881
 8966SOL     OW38956   5.012   5.398   9.816  0.5163 -0.7694 -0.0402
 8966SOL    HW138957   5.084   5.450   9.771  0.2824 -0.5952 -0.2157
 8966SOL    HW238958   4.930   5.398   9.758  0.3034 -0.7745  0.2607
 8967SOL     OW38959   3.044   2.932   5.648 -0.3317 -0.9358 -0.3662
 8967SOL    HW138960   3.118   2.906   5.586  0.9993  2.1935 -0.2205
 8967SOL    HW238961   3.080   2.995   5.718 -3.4062  2.0818 -1.3578
 8968SOL     OW38962   9.674   3.766   2.461  0.1998  0.1583 -0.3586
 8968SOL    HW138963   9.754   3.812   2.423  1.0751 -1.2107 -0.2269
 8968SOL    HW238964   9.669   3.673   2.424 -0.9810  0.0237  0.1180
 8969SOL     OW38965   2.490   6.416   8.234  0.0086 -0.3767 -0.0759
 8969SOL    HW138966   2.534   6.327   8.238  0.7753 -0.1389 -2.6671
 8969SOL    HW238967   2.416   6.415   8.166  0.1328  0.9885 -0.2547
 8970SOL     OW38968   4.205   2.308   5.666  0.7971 -0.1020 -0.1969
 8970SOL    HW138969   4.225   2.253   5.585  0.1184 -0.6967  0.0389
 8970SOL    HW238970   4.132   2.264   5.719  0.6653  0.7162  0.2994
 8971SOL     OW38971   3.358   9.126   0.099  0.5559  0.3593  0.5563
 8971SOL    HW138972   3.362   9.157   0.004 -0.4374  0.3641  0.5092
 8971SOL    HW238973   3.386   9.030   0.104  0.0235  0.1810  0.1681
 8972SOL     OW38974   6.166   1.793   5.453 -0.2227  0.0280  0.5246
 8972SOL    HW138975   6.206   1.833   5.536  0.6863 -1.2254  0.7218
 8972SOL    HW238976   6.187   1.851   5.375  1.1881 -0.1104  0.7833
 8973SOL     OW38977   9.568   2.402   6.639  0.3486  0.1432 -0.3096
 8973SOL    HW138978   9.597   2.338   6.710  1.3528  0.6318 -0.2823
 8973SOL    HW238979   9.636   2.403   6.566 -0.2047  0.3737 -0.8209
 8974SOL     OW38980   7.988   6.097   6.934  0.0054 -0.3141  0.2178
 8974SOL    HW138981   8.021   6.017   6.883  1.3865  0.3596  0.0490
 8974SOL    HW238982   8.044   6.176   6.911 -1.2086  0.6554  0.5773
 8975SOL     OW38983   2.947   4.383   8.376  0.2739  0.3268  0.0041
 8975SOL    HW138984   2.956   4.393   8.475 -0.0281 -0.6648  0.1423
 8975SOL    HW238985   2.936   4.286   8.354 -1.8590  0.7366 -0.8076
 8976SOL     OW38986   3.603   2.646   5.734  0.6873  0.3559  0.8244
 8976SOL    HW138987   3.589   2.594   5.818  1.3623  0.9712  1.3177
 8976SOL    HW238988   3.562   2.596   5.657 -1.1576  0.4671  1.7108
 8977SOL     OW38989   2.420   3.857   6.479  0.6514 -0.1905  0.5071
 8977SOL    HW138990   2.406   3.956   6.473  0.1563 -0.1983  1.3174
 8977SOL    HW238991   2.337   3.814   6.516  1.2230 -0.7905  1.1108
 8978SOL     OW38992   9.989   4.276   9.752 -0.1627  0.0208 -0.2975
 8978SOL    HW138993  10.019   4.364   9.789  1.1422 -1.3825  2.1175
 8978SOL    HW238994  10.027   4.263   9.661  0.0197  1.7422 -0.4803
 8979SOL     OW38995   7.925   8.390   8.096  0.3065 -0.0150 -0.2596
 8979SOL    HW138996   7.985   8.409   8.173 -0.1450  0.1973  0.0479
 8979SOL    HW238997   7.957   8.439   8.015  1.6404 -1.4169 -0.6055
 8980SOL     OW38998   2.276   5.410   1.751  0.0162  0.1408 -0.0191
 8980SOL    HW138999   2.268   5.440   1.846  0.0810 -3.5167  1.2375
 8980SOL    HW239000   2.342   5.335   1.745 -1.4062 -0.9759 -2.6271
 8981SOL     OW39001   7.619   9.807   5.941  0.0901 -0.1728  0.1844
 8981SOL    HW139002   7.641   9.715   5.909  1.1734  0.3283 -0.5632
 8981SOL    HW239003   7.697   9.868   5.925 -0.2275  0.6488  1.6022
 8982SOL     OW39004   9.856   4.093   4.091 -0.1189 -0.0974  0.0077
 8982SOL    HW139005   9.787   4.057   4.153 -0.4334  0.3781 -0.0668
 8982SOL    HW239006   9.895   4.018   4.037 -0.8184 -0.3197 -0.1983
 8983SOL     OW39007   1.625   3.655   0.630  0.4488  0.3275 -0.3379
 8983SOL    HW139008   1.667   3.698   0.711  1.8308 -0.0902 -0.8126
 8983SOL    HW239009   1.675   3.682   0.548  1.5329 -2.3720 -0.6182
 8984SOL     OW39010   9.058   3.686   8.144 -0.1734  0.5037 -0.2274
 8984SOL    HW139011   9.109   3.624   8.084 -0.9481  0.4420 -0.8294
 8984SOL    HW239012   8.968   3.647   8.164 -0.0803  0.7183  0.6496
 8985SOL     OW39013   8.006   0.174   9.896  0.1577 -0.0450  0.0017
 8985SOL    HW139014   7.919   0.129   9.875 -0.5452  1.5777 -0.6684
 8985SOL    HW239015   7.996   0.273   9.885  2.0475  0.1825  0.1008
 8986SOL     OW39016   7.740   2.574   1.459  0.1410 -0.7220  0.4228
 8986SOL    HW139017   7.696   2.577   1.549 -1.2585 -0.8707 -0.2395
 8986SOL    HW239018   7.702   2.498   1.406  0.7328 -0.4482 -0.4088
 8987SOL     OW39019   1.287   0.400   8.985  0.2849  0.0010  0.4076
 8987SOL    HW139020   1.305   0.329   9.053 -1.4502 -0.2913  0.5787
 8987SOL    HW239021   1.239   0.476   9.029 -2.8935 -1.1738 -0.9168
 8988SOL     OW39022   4.239   7.872   4.855  0.5255 -0.4102 -0.1826
 8988SOL    HW139023   4.192   7.852   4.769 -0.5861  2.0348 -0.1940
 8988SOL    HW239024   4.282   7.963   4.848 -0.8248  0.4594  2.3420
 8989SOL     OW39025   7.607   2.523   9.216 -0.7250  0.7121 -0.4195
 8989SOL    HW139026   7.697   2.549   9.182 -0.9747  0.7525 -1.0486
 8989SOL    HW239027   7.568   2.600   9.267  0.5070 -0.0361  1.7513
 8990SOL     OW39028   4.167   3.766   1.664 -0.0682  0.1567  0.1332
 8990SOL    HW139029   4.150   3.864   1.657  0.0125  0.0664 -1.4141
 8990SOL    HW239030   4.162   3.738   1.760  0.9771  1.8659  0.6998
 8991SOL     OW39031   4.399   3.531   3.466 -0.0362 -0.1467  0.5409
 8991SOL    HW139032   4.420   3.602   3.534 -0.0460 -1.8375  2.3702
 8991SOL    HW239033   4.448   3.447   3.491 -1.2943 -1.2428 -0.6858
 8992SOL     OW39034   7.265   9.026   7.967 -0.0029 -0.1374 -0.3149
 8992SOL    HW139035   7.250   8.961   8.042  1.0770  0.1569  0.1573
 8992SOL    HW239036   7.227   9.115   7.993 -0.2404 -0.2105 -0.4016
 8993SOL     OW39037   3.833   2.718   3.826 -0.1648 -0.6157  0.6713
 8993SOL    HW139038   3.795   2.647   3.768  0.9614 -1.3382  0.8000
 8993SOL    HW239039   3.759   2.764   3.876 -1.1028 -0.2479 -1.0111
 8994SOL     OW39040   3.121   3.045   2.403  0.0183  0.0417 -0.2183
 8994SOL    HW139041   3.175   3.068   2.484 -0.1721  0.5091 -0.2176
 8994SOL    HW239042   3.044   3.109   2.396 -0.3077 -0.3785 -0.4323
 8995SOL     OW39043   5.381   9.807   8.098 -0.4526  0.2274  0.0346
 8995SOL    HW139044   5.392   9.798   8.197  0.3558 -1.3554 -0.1912
 8995SOL    HW239045   5.305   9.749   8.067 -0.6982  0.7093 -0.2714
 8996SOL     OW39046   1.348   1.076   2.649  0.4357 -0.2590 -0.8751
 8996SOL    HW139047   1.351   0.976   2.649  0.7329 -0.2948  1.8402
 8996SOL    HW239048   1.257   1.107   2.675  0.3250  0.1869 -1.7739
 8997SOL     OW39049   0.518   7.691   5.941 -0.2974 -0.2996 -0.4083
 8997SOL    HW139050   0.535   7.751   5.863 -0.3868  1.4037  0.8538
 8997SOL    HW239051   0.551   7.734   6.024 -1.1633 -1.6323  0.6572
 8998SOL     OW39052   1.660   9.266   2.604  0.7207 -0.3733  0.8334
 8998SOL    HW139053   1.751   9.234   2.629  0.9537  0.2152  0.7333
 8998SOL    HW239054   1.647   9.360   2.637  0.2061 -0.4048  0.7221
 8999SOL     OW39055   2.488   0.531   9.554 -0.5307  0.5908  0.2970
 8999SOL    HW139056   2.457   0.456   9.495  0.4712  0.5819 -0.2419
 8999SOL    HW239057   2.587   0.523   9.568 -0.1502  2.6322 -0.9987
 9000SOL     OW39058   4.700   3.643   7.064  0.3907 -0.3783 -0.3695
 9000SOL    HW139059   4.749   3.571   7.113  0.6322 -0.1261 -0.2337
 9000SOL    HW239060   4.743   3.732   7.085  1.3899 -0.4226 -2.1642
 9001SOL     OW39061   2.413   7.879   2.707  0.5128 -0.4297  0.1022
 9001SOL    HW139062   2.477   7.824   2.759 -0.6820 -1.6275  0.3300
 9001SOL    HW239063   2.330   7.826   2.689 -0.6164  1.2443  0.2406
 9002SOL     OW39064   3.663   7.823   3.279  0.0288 -0.3843 -0.7604
 9002SOL    HW139065   3.602   7.833   3.357  0.7817 -2.7825  0.1559
 9002SOL    HW239066   3.627   7.753   3.217  1.7987 -1.7680 -0.2444
 9003SOL     OW39067   7.242   5.392   0.530 -0.0910 -0.4335  0.2848
 9003SOL    HW139068   7.161   5.395   0.588 -1.5651  0.3766 -1.7582
 9003SOL    HW239069   7.222   5.340   0.447  1.5586 -0.4279 -0.1475
 9004SOL     OW39070   9.631   3.798   2.033 -0.1903 -0.2146 -0.3136
 9004SOL    HW139071   9.646   3.699   2.043 -1.4231 -0.3809  0.0391
 9004SOL    HW239072   9.591   3.817   1.943 -1.3416 -0.2175  0.1858
 9005SOL     OW39073   4.615   9.915   6.083  0.5555  0.2337  0.6961
 9005SOL    HW139074   4.523   9.902   6.119  0.3336 -0.3567 -0.0549
 9005SOL    HW239075   4.631  10.012   6.064 -0.6634  0.1057 -1.1076
 9006SOL     OW39076   9.795   6.892   2.261 -0.1624  0.0193  0.2707
 9006SOL    HW139077   9.718   6.937   2.216 -0.0388  0.2607  0.2988
 9006SOL    HW239078   9.880   6.941   2.240 -0.1480  0.3358  1.0366
 9007SOL     OW39079   8.165   7.340   3.234  0.2537 -0.2844 -0.0611
 9007SOL    HW139080   8.172   7.333   3.135  2.5925  2.2344 -0.1418
 9007SOL    HW239081   8.078   7.382   3.259  0.5927  1.0987 -1.1743
 9008SOL     OW39082   7.250   7.413   8.167  0.6746  0.3557  0.4854
 9008SOL    HW139083   7.256   7.313   8.172 -0.4211  0.1980 -1.1503
 9008SOL    HW239084   7.325   7.448   8.110  0.5842  0.4071  0.3986
 9009SOL     OW39085   0.632   6.463   9.679  0.2515 -0.3352  0.3056
 9009SOL    HW139086   0.625   6.455   9.580  0.5945  0.6616  0.1968
 9009SOL    HW239087   0.573   6.537   9.711  1.8728  0.8758  0.5741
 9010SOL     OW39088   2.714   6.631   0.588 -0.2978  0.0896  0.0218
 9010SOL    HW139089   2.793   6.692   0.580 -1.6623  1.9671  0.4141
 9010SOL    HW239090   2.636   6.672   0.540 -1.1315 -1.5531 -0.0475
 9011SOL     OW39091   1.033   1.936   1.402  0.1437  0.3995  0.2790
 9011SOL    HW139092   1.081   2.004   1.348  0.3734 -0.0840 -0.1203
 9011SOL    HW239093   0.938   1.928   1.370  0.5797 -0.6806 -0.7864
 9012SOL     OW39094   0.836   0.843   0.701 -0.4987  0.1017 -0.6942
 9012SOL    HW139095   0.900   0.783   0.653  0.5155  0.7870 -0.2193
 9012SOL    HW239096   0.759   0.864   0.640 -1.6067 -2.8048 -0.3713
 9013SOL     OW39097   3.850   2.029   2.760  0.2744  0.6734  0.0593
 9013SOL    HW139098   3.929   2.058   2.815  0.0264 -0.3620  0.9671
 9013SOL    HW239099   3.785   1.981   2.818 -0.6180  0.7420 -0.8768
 9014SOL     OW39100   9.945   0.503   6.833 -0.0436  0.1984 -0.7419
 9014SOL    HW139101  10.022   0.439   6.832 -0.2410 -0.0759  0.4462
 9014SOL    HW239102   9.956   0.568   6.908 -0.8970  0.2387 -0.6368
 9015SOL     OW39103   1.591   4.603   0.982 -0.1935  0.5110  0.3008
 9015SOL    HW139104   1.612   4.596   1.080  0.3103  1.0950  0.2339
 9015SOL    HW239105   1.633   4.685   0.944  0.2137 -0.0972 -0.5707
 9016SOL     OW39106   8.310   4.019   9.383 -0.2656  0.3467 -0.0360
 9016SOL    HW139107   8.228   3.986   9.336  1.3051 -1.6064 -1.5114
 9016SOL    HW239108   8.385   3.953   9.369  1.4326  1.8842  1.6189
 9017SOL     OW39109   4.422   8.509   5.351  0.0870  0.0761 -0.3043
 9017SOL    HW139110   4.335   8.553   5.372  0.0434 -0.0984 -0.1113
 9017SOL    HW239111   4.421   8.474   5.257 -0.3672 -0.6682 -0.0281
 9018SOL     OW39112   9.572   9.100   4.485  0.1777  0.2697 -0.0343
 9018SOL    HW139113   9.587   9.041   4.565 -0.1220  0.0532 -0.1382
 9018SOL    HW239114   9.625   9.184   4.496 -0.5773  0.6462  0.8327
 9019SOL     OW39115   8.460   2.397   9.578 -0.1712 -0.0692  0.9165
 9019SOL    HW139116   8.557   2.374   9.569 -0.5829 -0.9555 -1.6938
 9019SOL    HW239117   8.442   2.484   9.533 -0.5596  0.1484  1.4937
 9020SOL     OW39118   1.300   0.435   6.039 -0.8932 -0.9530 -0.0788
 9020SOL    HW139119   1.232   0.455   5.969 -0.6501 -1.4090 -0.4507
 9020SOL    HW239120   1.257   0.385   6.114 -1.4183  0.6026  0.6770
 9021SOL     OW39121   8.352   5.932   7.749  0.4184 -0.3436 -0.1813
 9021SOL    HW139122   8.298   5.883   7.680  0.7864 -1.4177  0.2934
 9021SOL    HW239123   8.448   5.930   7.723  0.6871 -1.6581  0.9050
 9022SOL     OW39124   2.144   8.355   5.973  0.5252  0.6409  0.3290
 9022SOL    HW139125   2.091   8.279   5.935 -1.7917  1.9130  0.9008
 9022SOL    HW239126   2.195   8.401   5.901 -1.2668  1.0265 -0.7217
 9023SOL     OW39127   4.253   1.021   4.662  0.2584  0.3269 -0.1068
 9023SOL    HW139128   4.166   1.014   4.612 -0.7039  2.4508  1.1956
 9023SOL    HW239129   4.272   1.117   4.681  1.5306 -0.3376  2.0293
 9024SOL     OW39130   1.217   6.698   8.122 -0.4709 -0.0076  0.2072
 9024SOL    HW139131   1.274   6.744   8.053 -0.2757  0.6348  0.7917
 9024SOL    HW239132   1.233   6.740   8.211  0.7360 -2.1211  1.0059
 9025SOL     OW39133   8.425   7.952   7.720 -0.3519  0.1224 -0.1611
 9025SOL    HW139134   8.492   7.977   7.790 -0.3487  1.3599 -0.5819
 9025SOL    HW239135   8.467   7.892   7.652  0.3516  0.9336 -0.4487
 9026SOL     OW39136   2.360   6.449   0.445  0.1327  0.6722  0.3282
 9026SOL    HW139137   2.434   6.482   0.388 -0.0094  1.2414  0.4670
 9026SOL    HW239138   2.358   6.349   0.444  0.0766  0.6799 -0.7232
 9027SOL     OW39139   8.842   8.139   1.079  0.5613 -0.3783 -0.2604
 9027SOL    HW139140   8.809   8.165   1.170  0.3583  0.2695 -0.5217
 9027SOL    HW239141   8.931   8.180   1.062  1.0497 -1.2922  0.0306
 9028SOL     OW39142   7.225   2.820   9.520 -0.0359  0.0281 -0.8744
 9028SOL    HW139143   7.159   2.877   9.569  1.3166  3.0041 -2.3525
 9028SOL    HW239144   7.190   2.800   9.428  0.2967  0.0030 -0.9962
 9029SOL     OW39145   5.926   3.138   1.909 -0.4958 -0.0908  0.0626
 9029SOL    HW139146   5.989   3.117   1.834  1.0357 -0.3129  1.3852
 9029SOL    HW239147   5.959   3.217   1.960 -2.1229  0.7527 -0.1482
 9030SOL     OW39148   9.241   1.277   1.782  0.0563  0.1054  0.2326
 9030SOL    HW139149   9.200   1.209   1.722  0.6347  0.6936 -0.8579
 9030SOL    HW239150   9.169   1.334   1.823 -0.3714 -0.6378  0.5135
 9031SOL     OW39151   2.129   7.433   1.238 -0.1282 -0.0909  0.1945
 9031SOL    HW139152   2.133   7.432   1.338 -0.1727 -0.0044  0.1976
 9031SOL    HW239153   2.057   7.371   1.207 -1.8276  1.7484  0.3141
 9032SOL     OW39154   8.375   4.177   2.140 -0.4021 -0.2540  0.3522
 9032SOL    HW139155   8.364   4.155   2.044  0.7558  0.2848  0.0800
 9032SOL    HW239156   8.378   4.276   2.152 -2.8776 -0.2582  1.2336
 9033SOL     OW39157   9.735   0.674   0.613  0.1609  0.1988  0.0660
 9033SOL    HW139158   9.653   0.664   0.556  0.2676 -2.7756  0.3424
 9033SOL    HW239159   9.816   0.663   0.556  0.3340  0.8541  0.1834
 9034SOL     OW39160   5.225   5.441   2.964 -0.3484 -0.1596  0.2699
 9034SOL    HW139161   5.284   5.483   3.033 -0.8927  0.8687  0.1258
 9034SOL    HW239162   5.235   5.490   2.877 -0.5274 -0.7271 -0.0774
 9035SOL     OW39163   0.223   5.364   9.253 -0.3684 -0.4871  0.0470
 9035SOL    HW139164   0.286   5.288   9.235 -0.0961  0.1371 -1.7357
 9035SOL    HW239165   0.168   5.382   9.172 -2.8757 -1.0091  1.5784
 9036SOL     OW39166   4.223   2.570   1.195  0.5243  0.0925  0.1470
 9036SOL    HW139167   4.217   2.572   1.095  2.1177 -0.9581  0.0128
 9036SOL    HW239168   4.211   2.663   1.230 -0.2143  0.4508 -1.0024
 9037SOL     OW39169   8.082   2.934   8.175 -0.0916 -0.0020 -0.2400
 9037SOL    HW139170   8.079   3.000   8.250  1.7834  1.7313 -1.6230
 9037SOL    HW239171   8.164   2.878   8.183 -0.7972 -1.0027 -0.0214
 9038SOL     OW39172   8.796   1.577   2.486  0.4562  0.0626 -0.0454
 9038SOL    HW139173   8.720   1.612   2.541 -1.5900 -1.4032 -1.8755
 9038SOL    HW239174   8.781   1.480   2.466  2.4571 -0.0707 -1.0075
 9039SOL     OW39175   4.117   4.526   9.660 -0.2983  0.3666 -0.3345
 9039SOL    HW139176   4.044   4.584   9.625 -0.3600  1.2730  1.2345
 9039SOL    HW239177   4.092   4.430   9.649 -1.0386  0.6565 -1.2055
 9040SOL     OW39178   7.349   7.362   7.448  0.1451  0.0149  0.6115
 9040SOL    HW139179   7.276   7.370   7.516 -1.1230 -1.4289 -0.5221
 9040SOL    HW239180   7.332   7.426   7.373  0.0215 -0.3162  0.3506
 9041SOL     OW39181   2.165   4.884   8.866 -0.1243  0.5991 -0.1524
 9041SOL    HW139182   2.236   4.841   8.922  1.4126  1.9877 -0.9692
 9041SOL    HW239183   2.108   4.813   8.825  0.6438 -0.5439  0.7063
 9042SOL     OW39184   2.714   6.147   4.222 -0.2034  0.3102  0.5647
 9042SOL    HW139185   2.693   6.051   4.240  0.8023 -0.0418 -0.1329
 9042SOL    HW239186   2.750   6.157   4.130 -2.2973  1.6709 -0.1548
 9043SOL     OW39187   0.765   3.155   5.538 -0.1553  0.4096 -0.0221
 9043SOL    HW139188   0.748   3.250   5.510 -0.5219  0.1527 -0.6920
 9043SOL    HW239189   0.852   3.125   5.499 -0.2401  0.3357 -0.1540
 9044SOL     OW39190   9.489   2.546   0.126 -0.1595 -0.3180 -0.3403
 9044SOL    HW139191   9.466   2.587   0.038  0.2150 -2.9041 -1.6883
 9044SOL    HW239192   9.408   2.544   0.184 -1.4085 -1.9605 -2.0429
 9045SOL     OW39193   0.988   0.531   7.576 -0.5307 -0.1726 -0.3583
 9045SOL    HW139194   0.942   0.553   7.663  1.2345 -0.1196  0.5786
 9045SOL    HW239195   0.920   0.499   7.510 -2.0349  0.6561  0.7447
 9046SOL     OW39196   4.299   3.842   2.136 -0.5224 -0.0177 -0.3852
 9046SOL    HW139197   4.319   3.768   2.201 -2.3918 -0.9423 -0.8277
 9046SOL    HW239198   4.328   3.929   2.174  2.0655 -1.0112  0.0038
 9047SOL     OW39199   5.882   1.635   1.377 -0.1440  0.3011  0.2827
 9047SOL    HW139200   5.864   1.692   1.297 -0.5975 -0.7963 -0.4095
 9047SOL    HW239201   5.958   1.573   1.357 -0.6830 -0.4191  0.4809
 9048SOL     OW39202   4.963   7.531   3.118 -0.3539  0.1965  1.0690
 9048SOL    HW139203   4.906   7.474   3.060 -1.5456 -0.2187  2.6131
 9048SOL    HW239204   5.057   7.496   3.119 -0.2719  0.3489 -0.7594
 9049SOL     OW39205   5.383   3.214   2.282  0.0104  0.2315  0.1881
 9049SOL    HW139206   5.400   3.155   2.360 -0.5384  0.7734  0.7253
 9049SOL    HW239207   5.405   3.309   2.306 -2.2008  0.7187  0.4029
 9050SOL     OW39208   2.848   8.985   1.373 -0.7100 -0.4818 -0.0679
 9050SOL    HW139209   2.777   8.993   1.443  0.1435  0.1976  0.7452
 9050SOL    HW239210   2.931   9.031   1.405  0.1416 -1.3840 -0.9451
 9051SOL     OW39211   6.420   4.018   8.317 -0.2007 -0.5292  0.0278
 9051SOL    HW139212   6.385   3.926   8.331  3.8112 -2.2245 -0.2802
 9051SOL    HW239213   6.500   4.032   8.376  0.8893  1.7485 -1.8854
 9052SOL     OW39214   2.686   5.938   0.956 -0.3771  0.2290  0.1628
 9052SOL    HW139215   2.590   5.914   0.943 -0.5156  0.5667  0.5636
 9052SOL    HW239216   2.743   5.859   0.936 -0.7340  0.0483 -0.1489
 9053SOL     OW39217   1.828   8.615   4.212  0.6009  0.5068 -0.2610
 9053SOL    HW139218   1.731   8.636   4.199  0.3191 -0.3885  0.3753
 9053SOL    HW239219   1.882   8.698   4.198 -0.2792  1.0749 -0.3134
 9054SOL     OW39220   6.231   5.680   9.416  0.1735  0.0796  0.8418
 9054SOL    HW139221   6.295   5.670   9.492  0.0752  0.6776  1.0068
 9054SOL    HW239222   6.281   5.691   9.331  0.2856  0.6877  0.9894
 9055SOL     OW39223   0.525   5.398   1.758 -0.2354  0.2711  0.1598
 9055SOL    HW139224   0.429   5.410   1.731  0.0754  0.8011 -0.7216
 9055SOL    HW239225   0.530   5.332   1.833 -1.1066 -1.3650 -1.1914
 9056SOL     OW39226   2.682   1.693   2.391  0.1384  0.2221 -0.8713
 9056SOL    HW139227   2.676   1.745   2.476 -3.4276 -0.7409 -0.4813
 9056SOL    HW239228   2.774   1.655   2.382  0.9629  1.4611  1.8725
 9057SOL     OW39229   6.195   4.205   8.549  0.0675  0.5224 -0.0598
 9057SOL    HW139230   6.153   4.260   8.476 -0.1550  1.4439  0.7487
 9057SOL    HW239231   6.190   4.108   8.524  1.5194  0.9206 -2.0627
 9058SOL     OW39232   0.619   7.729   6.784 -0.8047  0.1938 -0.0952
 9058SOL    HW139233   0.559   7.773   6.717 -0.0947 -0.9166 -1.4906
 9058SOL    HW239234   0.575   7.729   6.873 -1.2143  2.8913 -0.2535
 9059SOL     OW39235   8.297   3.925   2.777 -0.0794 -0.0941 -0.3769
 9059SOL    HW139236   8.268   4.016   2.805 -0.3385 -0.3919  0.3471
 9059SOL    HW239237   8.263   3.905   2.686 -1.5360 -0.1478  0.1677
 9060SOL     OW39238   3.168   2.670   1.838  0.4021  0.4555  0.1520
 9060SOL    HW139239   3.148   2.650   1.742  0.6797  1.5775 -0.1419
 9060SOL    HW239240   3.099   2.626   1.896 -0.3556  0.6236 -0.6182
 9061SOL     OW39241   9.752   0.520   3.419 -0.5908  0.5500  0.1073
 9061SOL    HW139242   9.671   0.521   3.479 -0.9318 -0.1346 -0.3387
 9061SOL    HW239243   9.748   0.441   3.359  1.2961 -0.4498  1.2693
 9062SOL     OW39244   5.980   2.157   9.960 -0.2626 -0.4560  0.2423
 9062SOL    HW139245   5.942   2.089   9.898 -0.0015  0.4682 -0.9498
 9062SOL    HW239246   5.963   2.129  10.055  0.2324 -2.3894 -0.2132
 9063SOL     OW39247   7.097   8.742   4.690  0.3296  0.3286 -0.1247
 9063SOL    HW139248   7.075   8.714   4.784  0.0085 -0.7160 -0.5023
 9063SOL    HW239249   7.012   8.767   4.643  0.5165  1.0741 -0.0687
 9064SOL     OW39250   2.275   9.027   3.947  0.1379 -0.0690 -0.1418
 9064SOL    HW139251   2.223   9.061   4.026  1.0140 -1.0971  0.8926
 9064SOL    HW239252   2.373   9.036   3.965  0.3513 -0.8663 -0.8575
 9065SOL     OW39253   1.778   1.720   2.326 -0.1974 -0.6417  0.9259
 9065SOL    HW139254   1.740   1.767   2.406  0.1056  1.1427  0.0500
 9065SOL    HW239255   1.704   1.686   2.269 -0.4415 -0.4303  1.1129
 9066SOL     OW39256   5.087   1.143   0.481 -0.1720  0.3998  0.1460
 9066SOL    HW139257   5.144   1.117   0.559 -0.2548  2.0379  0.7721
 9066SOL    HW239258   5.118   1.094   0.399 -0.1950 -1.4823  1.2167
 9067SOL     OW39259   3.733   4.806   7.634 -0.2796 -0.2194  0.5507
 9067SOL    HW139260   3.703   4.850   7.549  1.7120  0.5019  0.1987
 9067SOL    HW239261   3.720   4.707   7.626 -1.6493 -0.0183  0.0543
 9068SOL     OW39262   2.770   2.645   1.070  0.0650 -0.2294  0.4413
 9068SOL    HW139263   2.689   2.683   1.114  0.4987  1.7340 -0.4268
 9068SOL    HW239264   2.845   2.710   1.076  1.4362 -1.8311  0.7941
 9069SOL     OW39265   1.978   8.219   7.604  1.2078  0.3316  0.2117
 9069SOL    HW139266   1.926   8.181   7.528  1.0954 -0.3995  0.6575
 9069SOL    HW239267   1.925   8.292   7.648  0.3567 -0.7357  0.9678
 9070SOL     OW39268   8.773   8.902   2.215  0.6358 -0.0444 -0.0406
 9070SOL    HW139269   8.732   8.820   2.254 -0.0800  0.1053 -0.4578
 9070SOL    HW239270   8.826   8.950   2.285  0.2441 -0.3450  0.4611
 9071SOL     OW39271   2.174   8.870   7.244  0.3085 -0.2425 -0.7222
 9071SOL    HW139272   2.147   8.775   7.259  2.2162 -0.5095  1.1624
 9071SOL    HW239273   2.238   8.875   7.168 -0.7345 -0.2777 -1.6267
 9072SOL     OW39274   0.914   0.778   6.473 -0.0695 -0.1600 -0.0452
 9072SOL    HW139275   0.951   0.865   6.441 -0.2531 -0.0684 -0.0106
 9072SOL    HW239276   0.972   0.703   6.440  0.5356  0.0257  0.5858
 9073SOL     OW39277   4.994   6.650   3.257 -0.1134  0.1012 -0.7851
 9073SOL    HW139278   5.011   6.723   3.324 -0.4236 -0.4435 -0.1101
 9073SOL    HW239279   5.079   6.630   3.208  0.5606 -0.7049  0.6662
 9074SOL     OW39280   7.850   6.830   3.225 -0.2077 -0.2319 -0.0690
 9074SOL    HW139281   7.826   6.917   3.182  1.1167 -0.6832 -1.7498
 9074SOL    HW239282   7.948   6.826   3.243 -0.5158 -0.6611  1.6661
 9075SOL     OW39283   8.867   5.917   0.915  0.3095  0.4140 -0.1669
 9075SOL    HW139284   8.915   5.991   0.962 -1.5390  1.5286  0.0318
 9075SOL    HW239285   8.809   5.955   0.842  0.6191 -0.9925 -1.1851
 9076SOL     OW39286   7.938   5.161   8.224 -0.1060  0.1314  0.3960
 9076SOL    HW139287   8.008   5.184   8.156  0.3762  0.6033  1.0372
 9076SOL    HW239288   7.884   5.242   8.245 -1.3216 -0.3947 -0.6112
 9077SOL     OW39289   0.975   7.625   4.911  0.5213  0.3975 -0.4138
 9077SOL    HW139290   0.883   7.598   4.938  0.0497  1.4883 -0.9133
 9077SOL    HW239291   0.979   7.724   4.899  1.1817  0.1296 -2.5688
 9078SOL     OW39292   7.816   7.160   4.406 -0.0254 -0.2928 -0.1472
 9078SOL    HW139293   7.794   7.199   4.317  0.7122  0.0066 -0.2030
 9078SOL    HW239294   7.817   7.061   4.400 -1.6259 -0.3278 -0.0763
 9079SOL     OW39295   2.073   8.476   4.945  0.0053  0.5112 -0.2138
 9079SOL    HW139296   2.170   8.451   4.940  0.2499  1.2955  0.5350
 9079SOL    HW239297   2.026   8.415   5.009  0.4072  1.3707  0.9007
 9080SOL     OW39298   8.999   6.949   9.135 -0.0961  0.3734  0.2893
 9080SOL    HW139299   9.059   6.936   9.213  1.3692  0.4452 -0.8040
 9080SOL    HW239300   9.053   6.963   9.053 -1.5747 -1.3968 -1.0592
 9081SOL     OW39301   3.497   1.806   5.964  0.1229 -0.2653 -0.0138
 9081SOL    HW139302   3.537   1.774   6.049 -0.0934 -0.8236 -0.1198
 9081SOL    HW239303   3.401   1.831   5.979  0.1760 -0.0553 -0.0216
 9082SOL     OW39304   3.645   5.494   2.341  0.0211 -0.3668  0.5827
 9082SOL    HW139305   3.578   5.435   2.297 -0.0936 -1.1703  1.8196
 9082SOL    HW239306   3.735   5.449   2.339 -0.6475 -2.0235  4.2574
 9083SOL     OW39307   0.764   1.128   4.524 -0.2813 -0.5789 -0.0145
 9083SOL    HW139308   0.788   1.031   4.519 -0.8684 -0.6569 -1.6732
 9083SOL    HW239309   0.710   1.153   4.443  1.4812  1.5729 -0.5640
 9084SOL     OW39310   0.777   7.896   8.905  0.0563 -0.1117 -0.4511
 9084SOL    HW139311   0.802   7.984   8.947 -0.8414  0.6966 -1.6014
 9084SOL    HW239312   0.729   7.840   8.973  2.3627 -0.5463  0.9075
 9085SOL     OW39313   4.322   8.400   3.962  0.1808 -0.0474 -0.1391
 9085SOL    HW139314   4.418   8.427   3.964 -0.0153  0.6371  0.4591
 9085SOL    HW239315   4.312   8.315   3.910  0.9722  0.3950 -1.0231
 9086SOL     OW39316   2.768   7.301   7.968 -0.0724  0.8248 -0.0478
 9086SOL    HW139317   2.804   7.357   7.894 -0.8857  0.1861 -0.9238
 9086SOL    HW239318   2.772   7.353   8.054  1.5503  1.2990 -0.3947
 9087SOL     OW39319   8.076   4.337   6.991  0.8373 -0.7398  0.0820
 9087SOL    HW139320   8.126   4.270   6.936  0.2606 -1.0025 -0.1207
 9087SOL    HW239321   7.982   4.344   6.958  0.4783 -0.9278  1.0577
 9088SOL     OW39322   1.989   3.889   0.049  0.6508  0.1154  0.1377
 9088SOL    HW139323   2.020   3.803   0.088  0.3353 -0.2299 -0.3689
 9088SOL    HW239324   1.931   3.871  -0.031  1.9883  0.8392 -1.0063
 9089SOL     OW39325   4.212   6.888   2.509  0.3903  0.2670 -0.4565
 9089SOL    HW139326   4.177   6.798   2.485  1.5213 -0.1498 -0.5640
 9089SOL    HW239327   4.171   6.957   2.449 -1.4077 -0.0059  0.4282
 9090SOL     OW39328   4.142   3.314   1.365  0.1637 -0.3197 -0.1505
 9090SOL    HW139329   4.131   3.410   1.340 -0.0592 -0.1877  0.4573
 9090SOL    HW239330   4.224   3.277   1.321  0.2089  0.1283 -0.4407
 9091SOL     OW39331   7.115   8.276   4.091  0.5870 -0.3304  0.0298
 9091SOL    HW139332   7.207   8.259   4.057  0.1254 -0.5244 -1.1259
 9091SOL    HW239333   7.054   8.201   4.066  0.4384 -0.9501  2.1061
 9092SOL     OW39334   8.230   5.539   9.279 -0.3673  0.4478  0.4177
 9092SOL    HW139335   8.153   5.549   9.343 -2.4842  2.7438 -2.2943
 9092SOL    HW239336   8.217   5.457   9.223 -0.3758  0.3173  0.6145
 9093SOL     OW39337   7.837   8.696   6.107  0.5284  0.8114  0.1270
 9093SOL    HW139338   7.892   8.613   6.103  1.3272  1.3444 -0.1018
 9093SOL    HW239339   7.829   8.726   6.202 -0.6899 -0.1266  0.3377
 9094SOL     OW39340   9.914   7.194   4.334 -0.2958  0.7887 -0.1690
 9094SOL    HW139341   9.973   7.274   4.324  1.7410 -0.9975 -3.4608
 9094SOL    HW239342   9.962   7.123   4.385 -1.3359  0.9280  1.0179
 9095SOL     OW39343   8.164   8.046   0.996 -0.1824 -0.1827 -0.4825
 9095SOL    HW139344   8.202   8.030   0.905  1.9931  0.2084  0.3343
 9095SOL    HW239345   8.213   7.990   1.062  0.3624  1.9067  0.9028
 9096SOL     OW39346   2.390   6.248   4.036  0.4071  0.0388 -0.1818
 9096SOL    HW139347   2.385   6.214   3.943  2.1759  3.2746 -1.5306
 9096SOL    HW239348   2.320   6.317   4.051  1.3748  0.9542  0.2419
 9097SOL     OW39349   5.306   0.817   4.994 -0.1730 -0.2124  0.9007
 9097SOL    HW139350   5.220   0.869   4.986  0.2953  1.2444  4.2004
 9097SOL    HW239351   5.367   0.864   5.058  2.0841 -2.5810  0.5766
 9098SOL     OW39352   4.931   8.153   7.907 -0.0037 -0.1368 -0.0879
 9098SOL    HW139353   4.995   8.121   7.837  0.2458 -1.3889  0.6978
 9098SOL    HW239354   4.969   8.134   7.998 -0.0800  1.9335  0.4181
 9099SOL     OW39355   3.166   1.355   4.789  0.0200  0.0341 -0.1098
 9099SOL    HW139356   3.096   1.321   4.851 -0.3370 -0.5005 -0.8029
 9099SOL    HW239357   3.256   1.346   4.833 -0.2731  0.0750  0.5037
 9100SOL     OW39358   2.704   9.415   4.209  0.6238 -0.4693 -0.0163
 9100SOL    HW139359   2.794   9.457   4.210 -0.2179  1.4012 -0.2591
 9100SOL    HW239360   2.707   9.326   4.255  2.3940 -0.0621  0.6609
 9101SOL     OW39361   0.109   5.912   7.984  0.2136 -0.1684  0.0775
 9101SOL    HW139362   0.052   5.864   8.050 -1.2559  1.4150 -0.0290
 9101SOL    HW239363   0.205   5.904   8.011 -0.2047 -1.2402  1.2826
 9102SOL     OW39364   2.757   0.323   3.557  0.3803 -0.0574  0.1733
 9102SOL    HW139365   2.696   0.344   3.634  0.0969  0.6708 -0.2392
 9102SOL    HW239366   2.766   0.405   3.499  0.8525 -0.5028 -0.3853
 9103SOL     OW39367   8.250   5.454   8.785 -0.1259  0.3108  0.0508
 9103SOL    HW139368   8.283   5.543   8.814 -0.2022  0.5159 -0.4757
 9103SOL    HW239369   8.326   5.389   8.781 -0.4532 -0.3288  2.8590
 9104SOL     OW39370   2.385   2.939   7.752  0.6548  0.3493  0.2318
 9104SOL    HW139371   2.469   2.898   7.789  0.4364  0.7161  1.1617
 9104SOL    HW239372   2.334   2.870   7.701  0.6522 -0.3509  1.1628
 9105SOL     OW39373   8.003   5.615   1.781  0.2231 -0.6941  0.3569
 9105SOL    HW139374   7.910   5.618   1.816  0.3654 -0.2978  0.7113
 9105SOL    HW239375   8.008   5.665   1.694  0.3238  0.1897  0.8653
 9106SOL     OW39376   4.863   0.277   8.792  0.9516 -0.3377  0.2296
 9106SOL    HW139377   4.911   0.362   8.813  0.9810 -0.3131  0.0636
 9106SOL    HW239378   4.787   0.264   8.856  2.3519 -1.3453  1.7358
 9107SOL     OW39379   8.037   0.749   2.373 -0.4145  0.1385 -0.2414
 9107SOL    HW139380   7.996   0.659   2.378 -0.6672  0.2634 -0.0354
 9107SOL    HW239381   8.016   0.791   2.285  0.7140 -0.4834 -0.8179
 9108SOL     OW39382   9.016   2.065   0.462  0.4332 -0.3601 -0.1699
 9108SOL    HW139383   9.089   2.046   0.397 -0.5954 -0.3564 -1.3489
 9108SOL    HW239384   8.957   1.985   0.470  1.0094 -0.6438  1.3787
 9109SOL     OW39385   0.672   3.347   4.150  0.0726  0.8371  0.3687
 9109SOL    HW139386   0.694   3.251   4.138 -0.7122  0.8340 -1.0777
 9109SOL    HW239387   0.630   3.360   4.241 -0.9901 -0.3967  0.0768
 9110SOL     OW39388   5.989   0.914   2.589 -0.6213 -0.0467  0.1323
 9110SOL    HW139389   5.906   0.878   2.631 -0.5896  0.8543  0.9890
 9110SOL    HW239390   6.060   0.923   2.658  0.3938 -1.3669 -0.7089
 9111SOL     OW39391   8.741   4.050   7.653 -0.1179 -0.0214  0.3160
 9111SOL    HW139392   8.818   4.100   7.613  0.5958 -0.9516  0.5133
 9111SOL    HW239393   8.684   4.114   7.705  1.4265  0.3836  1.5534
 9112SOL     OW39394   8.798   1.508   6.082  1.0587 -0.2196  0.0517
 9112SOL    HW139395   8.776   1.422   6.128  1.0981 -0.0915  0.3099
 9112SOL    HW239396   8.885   1.543   6.117 -0.1090  1.1343  1.6458
 9113SOL     OW39397   4.772   8.356   8.442  0.7425 -0.0649 -0.5830
 9113SOL    HW139398   4.789   8.360   8.344  2.9499  0.7287 -0.2039
 9113SOL    HW239399   4.715   8.277   8.463  0.3054 -0.2801 -2.4866
 9114SOL     OW39400   9.954   5.406   7.343 -0.0993 -0.4126  0.0702
 9114SOL    HW139401   9.948   5.376   7.439  0.3437 -0.1013  0.2004
 9114SOL    HW239402   9.983   5.502   7.341  2.6833 -1.2177 -0.4371
 9115SOL     OW39403   4.668   9.289   4.763 -0.6878  0.5780  0.2484
 9115SOL    HW139404   4.594   9.255   4.822 -0.5940 -0.9948 -0.5345
 9115SOL    HW239405   4.752   9.296   4.817 -0.3865 -1.7025  0.1196
 9116SOL     OW39406   7.615   6.635   6.437  0.0065 -0.0963  0.1970
 9116SOL    HW139407   7.534   6.599   6.483 -0.6671 -1.1417 -1.7403
 9116SOL    HW239408   7.683   6.562   6.428  0.3020  0.2114 -0.0873
 9117SOL     OW39409   6.329   5.577   8.115  0.9221  0.2820  0.0030
 9117SOL    HW139410   6.375   5.594   8.027  1.4262  0.6526  0.3332
 9117SOL    HW239411   6.231   5.564   8.099  1.0764 -0.1021 -0.6635
 9118SOL     OW39412   9.333   5.424   1.423  0.0210 -0.1304  0.5392
 9118SOL    HW139413   9.245   5.428   1.470 -0.0166 -0.7929  0.5299
 9118SOL    HW239414   9.352   5.512   1.379 -0.1441  0.3456  1.4186
 9119SOL     OW39415   2.312   9.853   5.382  0.0803 -0.2452  0.0811
 9119SOL    HW139416   2.400   9.881   5.420  0.1341 -0.7864  0.3645
 9119SOL    HW239417   2.254   9.934   5.367 -0.0576 -0.0414  1.6022
 9120SOL     OW39418   1.519   6.610   1.094 -0.1879  0.1518  0.5210
 9120SOL    HW139419   1.582   6.545   1.052 -1.9864 -1.0759 -0.3546
 9120SOL    HW239420   1.528   6.699   1.049 -0.5089 -0.5567 -0.9535
 9121SOL     OW39421   7.443   5.778   2.036  1.2519  0.6817 -0.3380
 9121SOL    HW139422   7.504   5.775   2.115 -0.2111 -0.0838  0.7866
 9121SOL    HW239423   7.424   5.685   2.006 -0.2407  0.8633  0.0217
 9122SOL     OW39424   4.685   6.527   0.710  0.2864  0.4595  0.8454
 9122SOL    HW139425   4.641   6.489   0.792  1.7640  0.1159  1.4928
 9122SOL    HW239426   4.718   6.452   0.653  2.0713  0.7454  1.4960
 9123SOL     OW39427   9.426   6.527   6.805  0.1236  0.2967 -0.1435
 9123SOL    HW139428   9.417   6.512   6.707  0.4801  0.6274 -0.2298
 9123SOL    HW239429   9.504   6.588   6.822  1.9422 -2.1151  0.5425
 9124SOL     OW39430   1.495   6.344   8.351  0.3665 -0.3691  0.1531
 9124SOL    HW139431   1.580   6.295   8.374  0.1225 -1.4224 -1.1044
 9124SOL    HW239432   1.497   6.370   8.254 -0.4842  0.1284  0.2646
 9125SOL     OW39433   3.436   0.136   1.217 -0.1838  0.2099 -0.1684
 9125SOL    HW139434   3.421   0.152   1.314  2.5801 -2.0443  0.7191
 9125SOL    HW239435   3.397   0.211   1.164 -0.4860  2.1874  2.7356
 9126SOL     OW39436   1.959   5.834   9.286  0.1639  0.2521 -0.2310
 9126SOL    HW139437   2.030   5.902   9.269 -0.0081 -0.0163 -2.0949
 9126SOL    HW239438   1.918   5.851   9.375  0.3918  2.3675 -0.5018
 9127SOL     OW39439   3.731   3.498   0.498 -0.2664 -0.3139  0.2259
 9127SOL    HW139440   3.752   3.467   0.591  0.7248 -0.5388 -0.0749
 9127SOL    HW239441   3.764   3.431   0.432 -0.7007 -0.0072 -0.3067
 9128SOL     OW39442   3.231   8.346   5.574 -1.0187  0.0449 -0.0403
 9128SOL    HW139443   3.279   8.264   5.542  0.0996  0.4032  0.7155
 9128SOL    HW239444   3.251   8.423   5.514  1.5608  0.8663  1.8013
 9129SOL     OW39445   8.077   1.032   1.927  0.4112  0.5230 -0.4589
 9129SOL    HW139446   8.116   1.035   1.836 -2.3418  1.5340 -1.6739
 9129SOL    HW239447   8.067   1.125   1.963  1.1341  0.1563  0.7139
 9130SOL     OW39448   8.596   5.579   5.576 -0.1983 -0.1723 -0.3407
 9130SOL    HW139449   8.639   5.665   5.549  1.3227 -0.6402  0.5432
 9130SOL    HW239450   8.545   5.593   5.662  1.2542 -0.4882  0.5845
 9131SOL     OW39451   1.600   1.432   9.891 -0.1455 -0.1918 -0.0361
 9131SOL    HW139452   1.598   1.357   9.956 -1.7951  0.1739  0.3585
 9131SOL    HW239453   1.639   1.513   9.934  1.2835 -0.7054 -0.3479
 9132SOL     OW39454   5.879   7.351   6.630 -0.2617 -0.3533  0.2953
 9132SOL    HW139455   5.874   7.253   6.648 -2.1471 -0.1315  1.0546
 9132SOL    HW239456   5.843   7.402   6.708 -1.4181  0.8861 -1.0133
 9133SOL     OW39457   2.517   3.543   3.899 -0.4970  0.1996 -0.5018
 9133SOL    HW139458   2.490   3.586   3.985  0.7971  1.7420 -0.8401
 9133SOL    HW239459   2.495   3.605   3.823  1.8620  0.5226 -0.9609
 9134SOL     OW39460   4.450   6.842   3.898 -0.0118  0.0572  0.2865
 9134SOL    HW139461   4.487   6.844   3.991  0.3870  0.3589  0.1260
 9134SOL    HW239462   4.434   6.747   3.870 -0.3928 -0.0185  0.7625
 9135SOL     OW39463   5.518   3.658   0.935  0.2496  0.2119  0.0165
 9135SOL    HW139464   5.461   3.710   0.998  0.9749  3.1206 -1.5830
 9135SOL    HW239465   5.466   3.636   0.853  0.3110 -0.4719  0.1616
 9136SOL     OW39466   2.602   9.862   3.064 -0.2603  0.2340 -0.1596
 9136SOL    HW139467   2.526   9.803   3.035 -2.1963  1.6231  1.8996
 9136SOL    HW239468   2.635   9.914   2.986  0.1994 -2.1293 -1.5979
 9137SOL     OW39469   2.893   5.223   5.290  0.1739 -0.4070 -0.0262
 9137SOL    HW139470   2.945   5.137   5.289  0.8399 -0.1151  3.3819
 9137SOL    HW239471   2.807   5.208   5.340  0.2388  0.8608  0.4786
 9138SOL     OW39472   4.101   8.412   5.831 -0.6860 -0.1136 -0.3998
 9138SOL    HW139473   4.097   8.313   5.815 -1.6531  0.1851 -2.0377
 9138SOL    HW239474   4.148   8.429   5.918 -0.0349 -1.9831 -0.3585
 9139SOL     OW39475   7.823   1.741   0.111 -0.6542 -0.1228  0.3175
 9139SOL    HW139476   7.867   1.654   0.088  0.7234  0.6304  0.0293
 9139SOL    HW239477   7.866   1.815   0.058 -1.9322  0.7080  0.4255
 9140SOL     OW39478   9.607   2.770   3.924  0.3507 -0.6873 -0.3053
 9140SOL    HW139479   9.699   2.738   3.903 -0.1967 -2.5524  0.0695
 9140SOL    HW239480   9.590   2.763   4.022 -0.5621 -1.4170 -0.5004
 9141SOL     OW39481   0.490   9.963   0.187  0.1872 -0.2127  0.0368
 9141SOL    HW139482   0.429   9.957   0.265  0.4383  1.7001  0.3950
 9141SOL    HW239483   0.583   9.982   0.218  0.8499 -2.3521 -0.5552
 9142SOL     OW39484   0.763   1.661   8.416 -0.0173  0.0125  0.0541
 9142SOL    HW139485   0.860   1.640   8.408  0.0384  0.3250 -0.1155
 9142SOL    HW239486   0.722   1.606   8.488  0.1387 -0.6224 -0.3435
 9143SOL     OW39487   3.718   3.361   3.691 -0.1966 -0.3725  0.1846
 9143SOL    HW139488   3.813   3.368   3.722  0.2897 -0.5441 -1.1944
 9143SOL    HW239489   3.707   3.414   3.607 -1.9451  1.6581  1.6647
 9144SOL     OW39490   8.003   1.084   1.396  0.0750 -0.4948  0.9190
 9144SOL    HW139491   7.932   1.014   1.396  0.2828 -0.7139 -0.6189
 9144SOL    HW239492   8.050   1.085   1.308 -0.8010  2.4669  0.4144
 9145SOL     OW39493   2.158   2.001   5.986 -0.1464  0.0548 -0.1160
 9145SOL    HW139494   2.090   1.929   5.974 -1.0122  0.7768  0.3805
 9145SOL    HW239495   2.205   2.018   5.900 -1.0500 -0.0110 -0.6212
 9146SOL     OW39496   1.628   5.306   1.329 -0.2876 -0.6007 -0.8033
 9146SOL    HW139497   1.596   5.401   1.334 -0.0337 -0.5664  0.4291
 9146SOL    HW239498   1.552   5.248   1.300 -1.6278 -0.5368  2.2571
 9147SOL     OW39499   4.187   5.278   3.028 -0.2978 -0.0177 -0.6724
 9147SOL    HW139500   4.263   5.283   3.093 -1.1261  0.8675  0.2410
 9147SOL    HW239501   4.218   5.311   2.938  0.4408  0.1826 -0.3483
 9148SOL     OW39502   4.334   8.914   4.267 -0.0575 -0.3692 -0.4731
 9148SOL    HW139503   4.365   8.821   4.285  1.3967  0.0157 -0.9378
 9148SOL    HW239504   4.336   8.932   4.168  0.6061  0.4698 -0.3151
 9149SOL     OW39505   8.539   9.662   5.571  0.2349  0.0033  0.1865
 9149SOL    HW139506   8.465   9.729   5.559  0.6209  0.4267  0.1635
 9149SOL    HW239507   8.561   9.621   5.483 -0.5067 -0.6938  0.3196
 9150SOL     OW39508   4.521   0.330   5.770  0.1181 -0.8845  0.1694
 9150SOL    HW139509   4.594   0.281   5.722 -0.3652 -1.7285  0.2915
 9150SOL    HW239510   4.513   0.422   5.732  1.2266 -0.7965  0.1325
 9151SOL     OW39511   0.587   1.566   2.562  0.1079 -0.0822 -0.3207
 9151SOL    HW139512   0.585   1.666   2.559  2.5173 -0.0236 -0.9168
 9151SOL    HW239513   0.611   1.536   2.655 -1.4660 -0.1379  0.0755
 9152SOL     OW39514   0.423   4.935   9.586 -0.2825 -0.4037  0.0070
 9152SOL    HW139515   0.357   4.866   9.556 -0.3658 -0.4792  0.3580
 9152SOL    HW239516   0.510   4.890   9.607  0.4548 -0.0716 -2.2223
 9153SOL     OW39517   3.186   6.405   8.276 -0.1963  0.1220 -0.3217
 9153SOL    HW139518   3.260   6.445   8.222 -1.1423  0.2388 -1.5512
 9153SOL    HW239519   3.098   6.443   8.246 -0.7976 -0.3311  0.8295
 9154SOL     OW39520   3.019   6.171   4.096 -0.6702  0.0353  0.1505
 9154SOL    HW139521   3.008   6.220   4.010 -0.1758 -0.0246  0.0518
 9154SOL    HW239522   3.005   6.073   4.081  0.6230 -0.1144 -0.1017
 9155SOL     OW39523   2.284   4.277   2.417 -0.3014 -0.4936  0.3483
 9155SOL    HW139524   2.272   4.242   2.510  0.8109 -0.5622  0.4726
 9155SOL    HW239525   2.358   4.227   2.372  0.5475  0.9368  0.1337
 9156SOL     OW39526   1.237   0.283   5.163  0.2196  0.1656 -0.3617
 9156SOL    HW139527   1.162   0.347   5.182 -1.2521 -2.5488  3.6445
 9156SOL    HW239528   1.316   0.308   5.219 -0.2415 -1.2211  0.9529
 9157SOL     OW39529   9.687   5.518   2.800  0.1690  0.1660 -0.0761
 9157SOL    HW139530   9.739   5.599   2.825 -1.1001  0.6337  1.1261
 9157SOL    HW239531   9.594   5.544   2.776 -0.0837 -0.8729 -0.2419
 9158SOL     OW39532   3.460   4.042   4.775  0.1090 -0.5270 -0.1261
 9158SOL    HW139533   3.424   4.036   4.682  0.8274 -2.8371 -0.3001
 9158SOL    HW239534   3.385   4.055   4.840 -0.4700  0.2729 -0.9526
 9159SOL     OW39535   7.498   1.827   6.734 -0.0728  0.5515 -0.1516
 9159SOL    HW139536   7.516   1.733   6.704  0.1459  0.4260  0.3604
 9159SOL    HW239537   7.403   1.836   6.762 -0.1505  0.5378 -0.4208
 9160SOL     OW39538   7.523   7.155   7.450  0.2568  0.1552  0.4316
 9160SOL    HW139539   7.618   7.185   7.454 -0.0078  0.9893  0.4052
 9160SOL    HW239540   7.462   7.230   7.474 -0.3837 -0.4854  0.8556
 9161SOL     OW39541   6.120   4.690   0.939  0.2767 -0.3545 -0.0743
 9161SOL    HW139542   6.086   4.604   0.901 -2.6744 -0.4208  2.5384
 9161SOL    HW239543   6.203   4.672   0.993  0.5911 -1.2682 -0.8400
 9162SOL     OW39544   2.225   1.221   1.398  0.1695 -0.2294  0.4813
 9162SOL    HW139545   2.179   1.132   1.393 -0.4695  0.1435 -0.2758
 9162SOL    HW239546   2.169   1.284   1.453 -1.1273  0.7598 -1.9112
 9163SOL     OW39547   2.534   3.787   9.268 -0.1891  0.1222 -0.2177
 9163SOL    HW139548   2.573   3.872   9.232  0.3257  0.8339  1.9699
 9163SOL    HW239549   2.568   3.772   9.361 -1.5918 -1.6210  0.0239
 9164SOL     OW39550   6.941   0.163   9.000 -0.2916  0.0578 -0.2186
 9164SOL    HW139551   6.921   0.095   8.930  1.8187 -0.9586  0.1249
 9164SOL    HW239552   6.977   0.246   8.957  1.2741 -0.6713 -0.3441
 9165SOL     OW39553   5.212   7.146   5.514 -0.0293 -0.4524  0.0782
 9165SOL    HW139554   5.288   7.198   5.553 -0.2962 -1.2279  1.6762
 9165SOL    HW239555   5.144   7.128   5.585 -1.2360 -0.6337 -1.1000
 9166SOL     OW39556   8.449   0.716   2.101  0.0055  0.4409 -0.1411
 9166SOL    HW139557   8.506   0.798   2.113 -0.8767  1.3219 -1.7189
 9166SOL    HW239558   8.495   0.652   2.040 -0.7896  1.3310 -1.7498
 9167SOL     OW39559   5.765   9.081   2.955 -0.2920  0.2117 -0.1495
 9167SOL    HW139560   5.734   9.175   2.942  0.3902  0.3332 -0.9958
 9167SOL    HW239561   5.809   9.072   3.044  3.2456  1.7310 -1.6395
 9168SOL     OW39562   2.264   6.559   9.898  0.0645  0.4970 -0.1802
 9168SOL    HW139563   2.314   6.537   9.982 -1.7729 -1.0721  0.5530
 9168SOL    HW239564   2.322   6.612   9.837  2.7932 -1.6580  0.4406
 9169SOL     OW39565   2.256   0.498   0.058  0.0201 -0.3153  0.4054
 9169SOL    HW139566   2.312   0.419   0.034 -0.4225 -0.9623  1.4635
 9169SOL    HW239567   2.171   0.467   0.101 -0.5243  0.7066  0.0870
 9170SOL     OW39568   5.380   0.785   7.060  0.0322  0.6097  0.5489
 9170SOL    HW139569   5.425   0.822   6.979  2.4368  0.8218  1.9362
 9170SOL    HW239570   5.281   0.799   7.052  0.3881  2.2977 -1.4917
 9171SOL     OW39571   8.440   9.572   9.913 -0.3790 -1.1368  0.3118
 9171SOL    HW139572   8.374   9.598   9.984 -1.8942 -1.2214 -1.0271
 9171SOL    HW239573   8.516   9.637   9.912 -2.8844  1.9414 -1.3402
 9172SOL     OW39574   3.848   1.844   1.370  0.2121  1.0849  0.0814
 9172SOL    HW139575   3.830   1.790   1.452 -1.5043  1.7187  0.1475
 9172SOL    HW239576   3.904   1.791   1.307 -0.0288 -0.1267  0.8638
 9173SOL     OW39577   0.135   6.019   9.951 -0.4829 -0.3368  0.1906
 9173SOL    HW139578   0.057   6.023   9.889  0.2810 -1.2645 -0.8362
 9173SOL    HW239579   0.216   6.055   9.906  0.1908 -1.4644  0.4656
 9174SOL     OW39580   4.493   4.395   7.474 -0.2137 -0.0488  0.2495
 9174SOL    HW139581   4.564   4.430   7.535 -1.2256  1.7582  0.4029
 9174SOL    HW239582   4.453   4.312   7.513 -0.6156  0.8978  1.8727
 9175SOL     OW39583   8.355   9.647   1.064  0.5535  0.1409  0.7466
 9175SOL    HW139584   8.437   9.629   1.009 -0.3335  0.3727 -0.6708
 9175SOL    HW239585   8.352   9.581   1.140  1.2304 -0.8918 -0.0938
 9176SOL     OW39586   2.980   9.938   7.960 -0.7074  0.3031  0.0748
 9176SOL    HW139587   3.017  10.017   7.910 -0.2912  0.0723  0.0170
 9176SOL    HW239588   3.017   9.937   8.053  1.0590 -1.0808 -0.6146
 9177SOL     OW39589   0.867   6.840   1.840  0.1584 -0.1456 -0.0258
 9177SOL    HW139590   0.883   6.774   1.914  0.5248 -0.5124 -0.4326
 9177SOL    HW239591   0.850   6.930   1.880  1.4711 -0.1021  0.4860
 9178SOL     OW39592   8.785   0.841   1.011 -0.1941  0.2286  0.2318
 9178SOL    HW139593   8.836   0.835   0.925 -2.7628 -0.6584 -1.2977
 9178SOL    HW239594   8.782   0.751   1.055 -2.8077 -0.4352 -1.1716
 9179SOL     OW39595   0.854   2.254   9.524 -0.2080 -0.3366 -0.4738
 9179SOL    HW139596   0.875   2.176   9.584  1.4066  2.1558  2.3068
 9179SOL    HW239597   0.756   2.275   9.530 -0.2365 -0.7157  0.5465
 9180SOL     OW39598   3.266   5.608   3.489 -0.2176  0.5015  0.4942
 9180SOL    HW139599   3.280   5.705   3.472  0.4749  0.2744 -0.2124
 9180SOL    HW239600   3.292   5.555   3.409 -1.6612 -0.1890  0.4681
 9181SOL     OW39601   0.387   4.006   2.690 -0.1167 -0.3683 -1.2413
 9181SOL    HW139602   0.325   4.073   2.651  1.6068  0.7855 -2.0642
 9181SOL    HW239603   0.400   4.025   2.787 -0.2185  0.0220 -1.3039
 9182SOL     OW39604   4.606   2.532   0.172  0.0965  0.3035 -0.2982
 9182SOL    HW139605   4.649   2.494   0.253 -1.1091 -2.0406 -0.7261
 9182SOL    HW239606   4.673   2.536   0.097  0.3438 -0.6180 -0.1341
 9183SOL     OW39607   9.537   2.093   8.448 -0.5437  0.4309  0.1433
 9183SOL    HW139608   9.596   2.157   8.399 -1.4987  1.1116 -0.1205
 9183SOL    HW239609   9.444   2.128   8.450 -1.0705 -0.9234  0.0442
 9184SOL     OW39610   8.007   6.016   3.563  0.6884 -0.1494  0.1928
 9184SOL    HW139611   7.947   6.072   3.621 -0.7123 -0.4807 -0.8818
 9184SOL    HW239612   8.046   6.073   3.491 -0.5128 -0.4740 -0.7320
 9185SOL     OW39613   2.470   5.048   4.751  0.1610 -0.1033  0.1218
 9185SOL    HW139614   2.378   5.081   4.770 -0.4773 -2.3805  1.1757
 9185SOL    HW239615   2.483   4.958   4.794  2.5305 -0.2619 -0.8406
 9186SOL     OW39616   5.240   5.139   9.243  0.9179 -0.1057  0.1194
 9186SOL    HW139617   5.301   5.062   9.225 -0.8334 -1.2651 -1.1118
 9186SOL    HW239618   5.231   5.195   9.161 -0.5232 -0.5972 -0.0770
 9187SOL     OW39619   9.254   0.523   2.405 -0.2075 -0.1665  0.2963
 9187SOL    HW139620   9.343   0.568   2.404 -0.0837 -0.3844  1.1369
 9187SOL    HW239621   9.204   0.545   2.321  1.1066 -0.9928 -0.7097
 9188SOL     OW39622   8.233   0.730   7.401 -0.1082 -0.1773 -0.2757
 9188SOL    HW139623   8.234   0.683   7.312  0.2681 -0.3205 -0.1928
 9188SOL    HW239624   8.256   0.665   7.473  1.8040  0.4471 -0.3035
 9189SOL     OW39625   2.352   8.107   7.282 -0.5953 -0.1881 -0.8855
 9189SOL    HW139626   2.305   8.175   7.339  0.1326  0.3062 -0.8568
 9189SOL    HW239627   2.287   8.063   7.221 -1.0492  0.6822 -1.0394
 9190SOL     OW39628   2.076   4.140   9.434 -0.2699  0.4677  0.1429
 9190SOL    HW139629   2.092   4.071   9.363 -1.1312  0.1921  0.2134
 9190SOL    HW239630   2.153   4.204   9.435  1.2899 -1.3705  1.1141
 9191SOL     OW39631   3.341   5.535   3.962  0.0447 -0.1021 -0.1857
 9191SOL    HW139632   3.338   5.602   3.889  1.0707  0.4032  0.2283
 9191SOL    HW239633   3.434   5.496   3.969  0.0829  0.1892  1.1341
 9192SOL     OW39634   2.035   5.851   1.631  0.1973 -0.2522 -0.2421
 9192SOL    HW139635   2.055   5.754   1.616 -4.1759 -1.3829  0.5015
 9192SOL    HW239636   2.079   5.882   1.716  3.3918 -0.9452 -1.6032
 9193SOL     OW39637   5.162   9.635   8.021  0.0277  0.2882  0.0917
 9193SOL    HW139638   5.076   9.632   8.072  0.9849 -3.8062  1.6516
 9193SOL    HW239639   5.142   9.646   7.924 -2.1598  1.0679  0.5915
 9194SOL     OW39640   9.761   2.334   6.475  0.1103 -0.3720 -0.7617
 9194SOL    HW139641   9.842   2.389   6.494 -0.1916  0.4476 -1.7713
 9194SOL    HW239642   9.771   2.244   6.517  0.9089  0.2153  0.3434
 9195SOL     OW39643   8.873   7.125   2.892 -0.1930 -0.1414  0.2040
 9195SOL    HW139644   8.970   7.138   2.913 -0.4009  1.2093  0.3563
 9195SOL    HW239645   8.835   7.210   2.855 -0.6700 -1.4399 -2.4217
 9196SOL     OW39646   9.854   0.651   3.630 -0.6574  0.4589  0.2885
 9196SOL    HW139647   9.924   0.716   3.602 -2.3755  2.7008  1.0036
 9196SOL    HW239648   9.824   0.597   3.552  1.6631 -0.3383 -0.0659
 9197SOL     OW39649   3.694   8.992   4.829  0.5393  0.2696  0.2058
 9197SOL    HW139650   3.772   8.930   4.835  3.0061  2.9885 -2.1767
 9197SOL    HW239651   3.692   9.051   4.910 -0.6559 -1.5533  1.5336
 9198SOL     OW39652   5.555   0.390   4.972  0.6840  0.1902 -0.5610
 9198SOL    HW139653   5.520   0.413   5.063 -0.4801 -1.7223 -0.4893
 9198SOL    HW239654   5.526   0.460   4.907 -0.6328  0.2725  0.0865
 9199SOL     OW39655   6.163   2.971   2.341  0.6399  0.2201  0.7090
 9199SOL    HW139656   6.164   2.888   2.398 -1.0231  0.6249  1.3551
 9199SOL    HW239657   6.089   2.965   2.274  1.0669  0.7982  0.1852
 9200SOL     OW39658   4.807   9.359   5.862 -0.7106  0.1151 -0.1556
 9200SOL    HW139659   4.877   9.417   5.904 -0.4755  0.3223 -0.8241
 9200SOL    HW239660   4.721   9.370   5.912  0.0731 -1.2067  1.5317
 9201SOL     OW39661   0.988   8.915   5.270 -0.0457  1.1408 -0.0068
 9201SOL    HW139662   0.969   9.001   5.318  1.2422  0.7249  1.2829
 9201SOL    HW239663   0.943   8.840   5.318 -0.6452  1.0036 -0.7731
 9202SOL     OW39664   4.354   3.802   0.623  0.2774  0.2255 -0.4176
 9202SOL    HW139665   4.258   3.775   0.610 -0.1016  1.5271 -0.4040
 9202SOL    HW239666   4.358   3.899   0.644  1.6346  0.2556 -0.7905
 9203SOL     OW39667   2.096   1.742   3.906 -0.1382 -0.2469  0.4545
 9203SOL    HW139668   2.000   1.720   3.892 -0.0320 -0.4477  0.0503
 9203SOL    HW239669   2.105   1.840   3.924 -0.7300 -0.6686  3.3426
 9204SOL     OW39670   8.479   2.395   0.208 -0.8033  0.2670  0.2009
 9204SOL    HW139671   8.536   2.376   0.128 -0.3883 -0.4082  0.6644
 9204SOL    HW239672   8.536   2.414   0.287 -1.2182  0.8523  0.3671
 9205SOL     OW39673   6.931   4.635   0.533  0.1450 -0.1872  0.0943
 9205SOL    HW139674   7.014   4.586   0.504  0.4567  0.2370  0.2639
 9205SOL    HW239675   6.950   4.733   0.535 -1.0720  0.1269 -2.2192
 9206SOL     OW39676   3.524   0.762   5.320 -0.6520  0.2369  0.2308
 9206SOL    HW139677   3.515   0.756   5.420 -3.2158  1.1118  0.0800
 9206SOL    HW239678   3.470   0.838   5.286  0.2119 -0.0540 -1.8647
 9207SOL     OW39679   1.258   7.215   8.063 -0.9153 -0.0706 -0.0243
 9207SOL    HW139680   1.232   7.246   8.155  0.2803  0.1439  0.2450
 9207SOL    HW239681   1.175   7.201   8.009 -1.5900  0.8860  0.7331
 9208SOL     OW39682   0.670   1.516   8.690  0.1567  0.3967 -0.0416
 9208SOL    HW139683   0.638   1.421   8.691  0.2648  0.3593 -0.0862
 9208SOL    HW239684   0.712   1.538   8.778  0.8372  0.1588 -0.2993
 9209SOL     OW39685   2.181   6.700   2.179 -0.8586  0.3145  0.0002
 9209SOL    HW139686   2.081   6.700   2.190 -0.8799 -1.0783 -0.0553
 9209SOL    HW239687   2.211   6.609   2.149  0.2874  1.1330 -1.3902
 9210SOL     OW39688   0.999   9.644   6.239  0.4704 -0.4007  0.2485
 9210SOL    HW139689   1.032   9.707   6.168 -1.1636 -0.0274 -0.1938
 9210SOL    HW239690   0.899   9.638   6.234  0.2844  0.0538  2.8488
 9211SOL     OW39691   5.371   5.037   8.875 -0.0087 -0.7317  0.0933
 9211SOL    HW139692   5.320   5.123   8.885 -1.3795 -1.4604 -0.5769
 9211SOL    HW239693   5.463   5.058   8.841 -1.1105  0.3182 -2.4015
 9212SOL     OW39694   6.066   0.474   6.688 -0.2169 -0.6657  0.6089
 9212SOL    HW139695   6.127   0.438   6.617 -0.4719  1.2135 -0.5873
 9212SOL    HW239696   6.105   0.454   6.778  0.8260 -1.8297 -0.0795
 9213SOL     OW39697   1.459   3.760   1.479 -0.1552  0.1534  0.5813
 9213SOL    HW139698   1.447   3.661   1.469  1.1933  0.1196 -1.1181
 9213SOL    HW239699   1.375   3.807   1.453 -0.2268 -0.4888 -0.3842
 9214SOL     OW39700   9.877   8.196   0.934 -0.0454  0.2383 -0.3108
 9214SOL    HW139701   9.871   8.133   1.012  0.4168  1.5707  0.8225
 9214SOL    HW239702   9.806   8.266   0.942 -1.7513 -1.1912 -2.5524
 9215SOL     OW39703   2.602   1.097   0.388 -0.4202  0.3291 -0.0060
 9215SOL    HW139704   2.661   1.018   0.377 -0.0892  0.4672  0.8103
 9215SOL    HW239705   2.571   1.128   0.297 -1.4846 -1.4221 -0.2620
 9216SOL     OW39706   4.645   2.004   0.837 -0.1076 -0.1304 -0.1785
 9216SOL    HW139707   4.564   2.063   0.841 -1.1330 -1.4493 -0.9507
 9216SOL    HW239708   4.619   1.910   0.860  0.7787 -0.9643 -2.4532
 9217SOL     OW39709   7.064   0.835   6.712  0.1356 -0.2657  0.4922
 9217SOL    HW139710   6.986   0.882   6.672  1.6788  0.2925 -1.9611
 9217SOL    HW239711   7.082   0.871   6.804 -0.4362  1.9335 -0.2421
 9218SOL     OW39712   1.051   1.070   4.805 -0.2404 -0.2416  0.3248
 9218SOL    HW139713   1.109   1.045   4.728 -1.4040 -3.8612  0.5079
 9218SOL    HW239714   1.100   1.052   4.891  0.1118  1.3630  0.4834
 9219SOL     OW39715   5.907   5.715   8.714 -0.0913  0.1069 -0.0701
 9219SOL    HW139716   5.904   5.712   8.814 -0.3926 -2.6091 -0.1038
 9219SOL    HW239717   5.936   5.805   8.684 -0.6547  1.1708  2.4530
 9220SOL     OW39718   3.651   4.560   0.108 -0.1472 -0.2406  0.1171
 9220SOL    HW139719   3.747   4.565   0.136 -0.4833  0.9860  1.0885
 9220SOL    HW239720   3.626   4.465   0.091  1.4791 -0.4811 -0.9847
 9221SOL     OW39721   2.370   2.261   4.612 -0.3200  0.1760  0.0808
 9221SOL    HW139722   2.326   2.238   4.525 -3.2384  2.6198  0.8112
 9221SOL    HW239723   2.300   2.272   4.683  1.8001  0.6458  2.1722
 9222SOL     OW39724   1.872   1.400   7.938 -0.4729 -0.3987  0.0818
 9222SOL    HW139725   1.905   1.484   7.983 -1.2279 -0.3428  0.5467
 9222SOL    HW239726   1.774   1.408   7.921  0.0453  0.1040 -2.7921
 9223SOL     OW39727   2.625   0.094   2.804 -0.4449  0.2469  0.2627
 9223SOL    HW139728   2.578   0.047   2.729 -1.3176  1.3012  0.1374
 9223SOL    HW239729   2.558   0.139   2.863  0.4057  1.7416  0.1113
 9224SOL     OW39730   1.316   8.239   1.231 -0.0003 -0.4864  0.2824
 9224SOL    HW139731   1.310   8.185   1.315 -2.3742 -2.1708 -0.9187
 9224SOL    HW239732   1.365   8.187   1.162 -0.1355 -0.0732 -0.1266
 9225SOL     OW39733   2.275   1.532   0.572  0.2309 -0.1758 -0.5340
 9225SOL    HW139734   2.266   1.631   0.588 -0.7228  0.0661 -2.4816
 9225SOL    HW239735   2.371   1.506   0.579  0.4696  0.8427  0.2036
 9226SOL     OW39736   9.265   8.454   0.945  0.3734 -0.2215 -0.1766
 9226SOL    HW139737   9.267   8.401   0.861 -0.2198 -0.0816 -0.2847
 9226SOL    HW239738   9.347   8.511   0.951  1.5350 -1.9290  0.4620
 9227SOL     OW39739   8.769   3.940   6.937 -0.0111  0.3078 -0.2409
 9227SOL    HW139740   8.691   4.000   6.950 -0.6774 -0.7820  0.9267
 9227SOL    HW239741   8.845   3.971   6.994 -0.8796 -0.8464  1.6087
 9228SOL     OW39742   6.717   5.736   8.239  0.4503 -0.0783 -0.0796
 9228SOL    HW139743   6.735   5.822   8.287  0.4438 -1.3399  2.2404
 9228SOL    HW239744   6.787   5.669   8.262 -1.4478 -1.7888  0.9568
 9229SOL     OW39745   8.304   7.319   7.362 -1.0565  0.0873 -0.2094
 9229SOL    HW139746   8.239   7.337   7.436 -0.2719  0.6680  0.3509
 9229SOL    HW239747   8.361   7.241   7.386  0.0764  1.0891  0.3895
 9230SOL     OW39748   8.999   6.300   5.632 -0.2054  0.1780 -0.4377
 9230SOL    HW139749   9.060   6.265   5.561  0.0060 -0.9786  0.2974
 9230SOL    HW239750   9.037   6.279   5.722 -0.9092  0.8471  0.0264
 9231SOL     OW39751   9.360   4.473   5.888 -0.1330  0.4045  0.4320
 9231SOL    HW139752   9.285   4.505   5.831  1.0874  1.3132 -0.6975
 9231SOL    HW239753   9.380   4.542   5.958 -0.2473  0.2212  0.6483
 9232SOL     OW39754   5.100   4.636   0.624 -0.2604  0.0070 -0.6770
 9232SOL    HW139755   5.065   4.622   0.531  1.8658 -3.1743 -1.0717
 9232SOL    HW239756   5.186   4.586   0.635  0.4808  1.8483  2.4612
 9233SOL     OW39757   3.813   0.894   0.826 -0.0101  0.1311 -0.1938
 9233SOL    HW139758   3.787   0.924   0.734 -0.6837  2.7549  0.8065
 9233SOL    HW239759   3.903   0.851   0.823 -0.3649 -0.5312 -2.1904
 9234SOL     OW39760   0.173   0.119   6.635  0.3570  0.2249 -0.3076
 9234SOL    HW139761   0.148   0.121   6.538 -1.8277  1.4918  0.2625
 9234SOL    HW239762   0.271   0.137   6.644  0.5482  0.3093 -2.2479
 9235SOL     OW39763   7.157   3.018   3.780  0.0586 -0.4381  0.5162
 9235SOL    HW139764   7.117   3.101   3.740  0.7392 -0.4869 -0.2561
 9235SOL    HW239765   7.084   2.954   3.804 -0.3110 -0.6722 -1.2015
 9236SOL     OW39766   3.299   0.382   5.349 -0.0130  0.1036  0.0372
 9236SOL    HW139767   3.307   0.472   5.393 -1.5497 -0.9442  2.5572
 9236SOL    HW239768   3.269   0.315   5.416 -2.5974 -1.5468 -2.6583
 9237SOL     OW39769   1.301   5.853   4.774  0.2751  0.0230  0.3012
 9237SOL    HW139770   1.396   5.880   4.788  0.7523 -1.7401  0.6153
 9237SOL    HW239771   1.254   5.922   4.719  1.7493  0.8502  0.0563
 9238SOL     OW39772   4.428   1.456   1.775  1.2641  0.5957  0.2705
 9238SOL    HW139773   4.443   1.484   1.870  2.8131  2.2897 -0.4654
 9238SOL    HW239774   4.514   1.426   1.735  0.4965 -0.7234 -0.4285
 9239SOL     OW39775   7.838   0.369   6.203 -0.1754  0.0863 -0.2975
 9239SOL    HW139776   7.931   0.378   6.239  0.1738  0.5070 -1.3041
 9239SOL    HW239777   7.774   0.357   6.280  0.9449 -2.3472  0.2975
 9240SOL     OW39778   1.315   3.905   1.016  0.2128  0.1156  0.2763
 9240SOL    HW139779   1.339   3.902   0.918  1.2118  0.9418  0.4869
 9240SOL    HW239780   1.318   3.812   1.053 -0.4582 -0.2465 -0.5393
 9241SOL     OW39781   7.690   4.035   3.704 -0.9867 -0.4213 -0.1176
 9241SOL    HW139782   7.708   4.110   3.768 -0.8249 -2.3375  2.1371
 9241SOL    HW239783   7.592   4.019   3.699 -0.8992 -1.3172  0.9015
 9242SOL     OW39784   4.759   8.720   4.141  0.3737  0.2580  0.3767
 9242SOL    HW139785   4.714   8.761   4.061 -0.7896  1.8155  1.7780
 9242SOL    HW239786   4.842   8.772   4.162  1.3342 -0.8870 -0.5165
 9243SOL     OW39787   7.316   8.153   3.960  0.1703 -0.0293  0.1906
 9243SOL    HW139788   7.399   8.128   4.010  0.4568  1.4819  0.4952
 9243SOL    HW239789   7.331   8.140   3.862 -0.1409 -2.2890  0.4303
 9244SOL     OW39790   4.556   4.743   9.440  0.1388  0.4529  0.2786
 9244SOL    HW139791   4.472   4.759   9.493  0.4192 -0.6568  1.0561
 9244SOL    HW239792   4.535   4.752   9.342 -1.2683 -1.4541  0.3851
 9245SOL     OW39793   0.750   5.464   0.614 -0.6659  0.0234 -0.0457
 9245SOL    HW139794   0.686   5.453   0.538 -0.4531  0.6104 -0.3163
 9245SOL    HW239795   0.717   5.536   0.675  0.6338  1.5953 -1.1515
 9246SOL     OW39796   1.298   6.004   6.524 -0.1740 -0.0054 -0.1245
 9246SOL    HW139797   1.316   6.070   6.597 -0.0734  0.1865 -0.3228
 9246SOL    HW239798   1.374   5.940   6.517 -0.2728 -0.1453  0.0688
 9247SOL     OW39799   5.085   8.885   3.155 -0.0649  0.0900 -0.0385
 9247SOL    HW139800   5.146   8.950   3.109  0.7922 -1.0745 -0.6059
 9247SOL    HW239801   5.139   8.808   3.189 -0.9808 -0.0366  1.1410
 9248SOL     OW39802   8.177   8.615   4.543  0.0768  0.1169  0.2599
 9248SOL    HW139803   8.129   8.586   4.460  0.6239  2.6518 -0.9800
 9248SOL    HW239804   8.118   8.676   4.597  1.6390  2.8210 -1.0070
 9249SOL     OW39805   3.483   6.415   9.124 -0.0713 -0.0653 -0.1394
 9249SOL    HW139806   3.460   6.467   9.042  1.5518  0.8078 -0.0676
 9249SOL    HW239807   3.401   6.373   9.162 -1.3644  2.2489 -0.3355
 9250SOL     OW39808   4.331   3.800   1.228  0.2960  0.2700 -0.1107
 9250SOL    HW139809   4.382   3.713   1.230 -0.7814 -0.3903 -0.6593
 9250SOL    HW239810   4.233   3.781   1.226  0.0581  1.5033 -0.6042
 9251SOL     OW39811   1.647   4.697   4.951  0.2479  0.8108 -0.0025
 9251SOL    HW139812   1.713   4.698   5.027  0.1265  2.0069  0.1042
 9251SOL    HW239813   1.668   4.773   4.890  0.7154 -0.5062 -1.5009
 9252SOL     OW39814   4.218   0.947   4.289 -0.1516  0.3254  0.2639
 9252SOL    HW139815   4.172   1.028   4.253  1.6541  0.3616 -2.0722
 9252SOL    HW239816   4.156   0.869   4.284 -0.2694  0.5257 -2.1717
 9253SOL     OW39817   6.145   9.924   7.514 -0.3514  0.5649 -0.5805
 9253SOL    HW139818   6.129   9.906   7.611 -0.3974  1.0796 -0.4951
 9253SOL    HW239819   6.079   9.992   7.481 -0.1441  0.6090 -0.9061
 9254SOL     OW39820   0.047   4.221   7.253 -0.4006 -0.4310 -0.0389
 9254SOL    HW139821   0.083   4.195   7.163 -2.1775 -0.7295 -0.6996
 9254SOL    HW239822   0.076   4.314   7.276 -0.1896 -0.2411 -1.0697
 9255SOL     OW39823   3.886   7.561   0.739 -0.5244 -0.0781  0.1009
 9255SOL    HW139824   3.935   7.630   0.686  1.0592 -1.5210 -0.3806
 9255SOL    HW239825   3.934   7.544   0.825 -0.1969 -1.4542 -0.3387
 9256SOL     OW39826   3.777   1.847   7.535  0.0636 -0.4555  0.0193
 9256SOL    HW139827   3.825   1.760   7.528  0.3595 -0.2340 -0.7312
 9256SOL    HW239828   3.758   1.882   7.443  0.5681  0.6094  0.3154
 9257SOL     OW39829   4.252   2.317   1.310  0.2296  0.9090  0.2287
 9257SOL    HW139830   4.222   2.410   1.289  1.0119  1.1337  0.0837
 9257SOL    HW239831   4.347   2.318   1.341  0.5517  0.0735 -0.6554
 9258SOL     OW39832   4.659   7.548   7.342  0.6848 -0.2496  0.6591
 9258SOL    HW139833   4.650   7.492   7.259  1.5558  1.1447 -0.3810
 9258SOL    HW239834   4.645   7.644   7.320  1.1139  0.1610  2.1039
 9259SOL     OW39835   9.905   4.940   6.168 -0.2496 -0.5747 -0.3965
 9259SOL    HW139836   9.916   4.902   6.260  1.7422 -0.6279 -0.6225
 9259SOL    HW239837   9.992   4.932   6.119 -0.4732  2.0498 -1.2920
 9260SOL     OW39838   5.710   3.288   9.136 -0.1367  0.3133 -0.9578
 9260SOL    HW139839   5.635   3.228   9.108 -1.4514  0.1079  2.7394
 9260SOL    HW239840   5.743   3.259   9.226  0.7016  3.8000 -0.0949
 9261SOL     OW39841   7.861   6.289   7.575 -0.1872 -0.3511 -0.0692
 9261SOL    HW139842   7.799   6.333   7.641 -0.8740 -3.5897  1.5538
 9261SOL    HW239843   7.807   6.250   7.501  0.3830  1.0044 -1.2327
 9262SOL     OW39844   1.967   3.580   6.118 -0.0874 -0.2276 -0.5944
 9262SOL    HW139845   1.935   3.662   6.166 -0.8998 -1.1040  0.3781
 9262SOL    HW239846   1.902   3.556   6.045 -0.4078 -0.6179 -0.1836
 9263SOL     OW39847   1.444   5.565   8.366  0.4742 -0.2458 -0.6041
 9263SOL    HW139848   1.446   5.622   8.448  0.7406  0.2206 -0.9342
 9263SOL    HW239849   1.370   5.597   8.306 -0.9032 -1.7258  0.2680
 9264SOL     OW39850   9.807   7.858   8.298  0.1216 -0.0099 -0.1767
 9264SOL    HW139851   9.870   7.801   8.351  1.6424 -0.4740 -2.4004
 9264SOL    HW239852   9.797   7.947   8.342  1.6970 -0.2295  0.6697
 9265SOL     OW39853   0.634   1.254   5.892 -0.3072  0.2013  0.2599
 9265SOL    HW139854   0.696   1.240   5.814 -0.3237 -0.2421  0.3249
 9265SOL    HW239855   0.563   1.320   5.867  0.8211  1.5381  0.5408
 9266SOL     OW39856   0.082   8.786   6.495  0.5712 -0.2772  0.1644
 9266SOL    HW139857   0.130   8.822   6.575  1.5700  0.8098 -0.8981
 9266SOL    HW239858   0.149   8.746   6.431 -0.1573 -0.6796 -0.3529
 9267SOL     OW39859   8.613   9.970   4.445  0.0267 -0.1316 -0.1623
 9267SOL    HW139860   8.634   9.878   4.412 -0.1281 -0.7049  1.2899
 9267SOL    HW239861   8.559   9.964   4.529 -0.6733  1.2948 -0.4948
 9268SOL     OW39862   0.395   8.640   0.085  0.3192  0.4591  0.2369
 9268SOL    HW139863   0.492   8.625   0.065  0.1995  1.8241 -1.4238
 9268SOL    HW239864   0.339   8.611   0.007 -0.4660  1.6532  0.3433
 9269SOL     OW39865   4.265   9.660   4.330 -0.1304  0.6642 -0.3038
 9269SOL    HW139866   4.341   9.724   4.345  0.7018 -0.2440 -0.6470
 9269SOL    HW239867   4.197   9.702   4.269  0.3823  1.2401 -0.4808
 9270SOL     OW39868   3.659   4.061   3.790 -0.1348  0.5364 -0.0252
 9270SOL    HW139869   3.577   4.022   3.833  0.9489 -0.7272  0.9598
 9270SOL    HW239870   3.729   3.989   3.782  0.2234  1.1480 -2.5367
 9271SOL     OW39871   2.954   6.292   6.986 -0.4197 -0.2425 -0.4166
 9271SOL    HW139872   3.043   6.302   6.941  0.2496 -0.6902  0.7695
 9271SOL    HW239873   2.897   6.228   6.934  0.0740 -0.2064 -1.0085
 9272SOL     OW39874   3.068   1.820   0.200 -0.7372 -0.3462  0.1570
 9272SOL    HW139875   3.055   1.817   0.101  0.2442  1.7115 -0.0546
 9272SOL    HW239876   3.132   1.749   0.227 -1.9764 -1.7538 -0.4962
 9273SOL     OW39877   0.894   0.409   7.281  0.5618 -0.4255  0.1879
 9273SOL    HW139878   0.805   0.412   7.235  0.2451 -0.7303  0.7688
 9273SOL    HW239879   0.895   0.332   7.346  1.3510 -0.6016 -0.0288
 9274SOL     OW39880   6.432   2.844   0.213  0.4225  0.3155 -0.1823
 9274SOL    HW139881   6.482   2.925   0.243 -0.9071  0.1148  2.7680
 9274SOL    HW239882   6.496   2.780   0.170  2.4011  0.8909  1.7706
 9275SOL     OW39883   7.381   7.299   2.529 -0.2403  0.5250  1.0918
 9275SOL    HW139884   7.342   7.208   2.537  1.0137 -0.0116  1.0782
 9275SOL    HW239885   7.436   7.320   2.610  0.4602  0.7971  0.5533
 9276SOL     OW39886   7.423   5.360   3.034  0.1439 -0.4766 -0.0677
 9276SOL    HW139887   7.420   5.337   2.936 -2.0504 -0.1307 -0.1104
 9276SOL    HW239888   7.340   5.410   3.059  0.4922 -0.9179  2.0792
 9277SOL     OW39889   3.992   6.111   7.313  0.0755 -0.5124 -0.5528
 9277SOL    HW139890   3.928   6.086   7.241 -3.6963 -0.6485  2.6820
 9277SOL    HW239891   4.033   6.028   7.351  3.2736 -0.3758 -3.3880
 9278SOL     OW39892   8.823   3.060   6.528 -0.0296  0.0414  0.3150
 9278SOL    HW139893   8.920   3.053   6.551 -0.1993 -1.5771  0.5833
 9278SOL    HW239894   8.774   3.107   6.602  0.8308  2.5702 -0.6624
 9279SOL     OW39895   6.906   4.209   1.443  0.2941 -0.3722 -0.4955
 9279SOL    HW139896   6.866   4.277   1.506  1.7963  0.7366 -0.7197
 9279SOL    HW239897   6.924   4.124   1.493  0.0112 -0.0297  0.1958
 9280SOL     OW39898   0.113   3.128   4.418 -0.0194  0.4810  0.4411
 9280SOL    HW139899   0.177   3.140   4.342 -1.3527 -1.0168 -0.9428
 9280SOL    HW239900   0.156   3.161   4.502  2.7576 -0.8642 -0.3726
 9281SOL     OW39901   3.662   3.221   2.351 -0.6928 -0.4291  0.3741
 9281SOL    HW139902   3.753   3.206   2.311  0.5497  1.3136  2.4482
 9281SOL    HW239903   3.592   3.192   2.285  1.3110  0.2213 -2.1255
 9282SOL     OW39904   8.404   2.647   4.997  0.1159 -0.0549  0.1748
 9282SOL    HW139905   8.500   2.628   5.016 -0.1693 -2.9567 -0.9525
 9282SOL    HW239906   8.349   2.566   5.019 -1.7336  0.6490 -1.6557
 9283SOL     OW39907   1.590   5.104   0.758  0.0338  0.3475 -0.0834
 9283SOL    HW139908   1.553   5.197   0.757  2.1706  1.2407  0.3023
 9283SOL    HW239909   1.648   5.090   0.678 -0.4921 -0.7540 -0.2809
 9284SOL     OW39910   4.568   0.831   4.723  0.4105  0.1825 -0.3387
 9284SOL    HW139911   4.480   0.808   4.681 -0.4836  1.6607  0.6935
 9284SOL    HW239912   4.595   0.757   4.785 -1.2009  0.7034  1.0325
 9285SOL     OW39913   4.006   0.366   8.513  0.3505  0.0226 -0.0377
 9285SOL    HW139914   4.016   0.352   8.611  0.4417  3.1779  0.4413
 9285SOL    HW239915   3.908   0.367   8.490  0.3474 -2.3874 -0.2881
 9286SOL     OW39916   0.440   9.078   2.462 -0.3138 -0.7233  0.0913
 9286SOL    HW139917   0.494   9.033   2.391 -0.7397  0.1531 -0.8064
 9286SOL    HW239918   0.501   9.112   2.534  0.4401  0.8232 -1.2269
 9287SOL     OW39919   9.437   2.534   1.371 -0.1592 -0.1334 -0.3582
 9287SOL    HW139920   9.391   2.452   1.339 -0.5107 -0.1150  0.0983
 9287SOL    HW239921   9.426   2.608   1.304 -1.6585  0.1757  0.2192
 9288SOL     OW39922   2.486   5.036   0.873  0.2306  0.5026 -0.1204
 9288SOL    HW139923   2.508   5.106   0.941  1.5889  0.7222 -0.7662
 9288SOL    HW239924   2.452   4.954   0.919 -2.8117  2.0524  0.5774
 9289SOL     OW39925   0.203   5.988   5.772 -0.0069 -0.2726  0.0096
 9289SOL    HW139926   0.170   6.013   5.863  0.7113 -1.9118  0.7362
 9289SOL    HW239927   0.125   5.973   5.711 -0.5172 -0.4371  0.6943
 9290SOL     OW39928   3.204   5.027   5.521  0.3984 -0.3607  0.1969
 9290SOL    HW139929   3.255   4.953   5.564 -0.3175 -0.6976  0.4582
 9290SOL    HW239930   3.108   5.023   5.549  0.2532  0.3570 -0.1878
 9291SOL     OW39931   1.123   2.261   7.771 -0.2013  0.5310 -0.1330
 9291SOL    HW139932   1.073   2.269   7.684  0.2707  1.1840 -0.3437
 9291SOL    HW239933   1.070   2.205   7.834  0.2220 -1.3637 -1.4182
 9292SOL     OW39934   2.063   0.617   6.597 -0.0488  0.2043  0.1860
 9292SOL    HW139935   1.977   0.657   6.631  0.7657  0.9815  1.3481
 9292SOL    HW239936   2.138   0.645   6.656  0.8172 -1.5597 -0.0615
 9293SOL     OW39937   1.982   7.348   2.767 -0.1054  0.0713  0.8339
 9293SOL    HW139938   1.941   7.417   2.706  1.2515 -0.4813 -0.7352
 9293SOL    HW239939   2.081   7.349   2.757 -0.1316 -2.9888 -0.1962
 9294SOL     OW39940   9.912   9.402   4.807 -0.0834 -0.2431  0.1759
 9294SOL    HW139941  10.007   9.386   4.781 -0.5102 -3.6159  0.4259
 9294SOL    HW239942   9.852   9.357   4.740 -1.5090  1.3191  0.3664
 9295SOL     OW39943   1.681   9.555   7.893 -0.5787  0.1915 -0.1022
 9295SOL    HW139944   1.724   9.486   7.835 -2.7046 -0.2514 -1.2004
 9295SOL    HW239945   1.616   9.609   7.838  1.1463  3.1943  0.6728
 9296SOL     OW39946   6.617   2.865   1.423 -0.0798 -1.1673  0.6407
 9296SOL    HW139947   6.687   2.936   1.425 -1.5297  0.2672  2.0497
 9296SOL    HW239948   6.636   2.801   1.348  0.3748  1.6440 -1.7330
 9297SOL     OW39949   4.809   0.214   0.364 -0.2198  0.2011 -0.1013
 9297SOL    HW139950   4.725   0.267   0.369  0.3033  1.0951 -0.5506
 9297SOL    HW239951   4.866   0.235   0.443 -0.3284 -0.2355  0.0896
 9298SOL     OW39952   2.607   6.925   4.424 -0.1805  0.1017 -0.1046
 9298SOL    HW139953   2.683   6.988   4.411 -1.4812  1.7654  0.1404
 9298SOL    HW239954   2.596   6.868   4.343  2.0739 -1.0093  0.3319
 9299SOL     OW39955   0.789   9.352   7.780  0.7647 -0.0471 -0.1235
 9299SOL    HW139956   0.794   9.329   7.877 -0.0199  0.0335 -0.0654
 9299SOL    HW239957   0.799   9.450   7.768 -1.0164  0.1554  0.0222
 9300SOL     OW39958   9.340   5.072   8.567  0.4293 -0.5829  0.4839
 9300SOL    HW139959   9.258   5.017   8.583  1.2435 -1.9496  0.0428
 9300SOL    HW239960   9.396   5.074   8.650  0.6680 -0.8924  0.3335
 9301SOL     OW39961   2.559   3.661   7.794  0.7871 -0.6041 -0.3680
 9301SOL    HW139962   2.522   3.591   7.855  0.5934 -0.8642 -0.7764
 9301SOL    HW239963   2.500   3.669   7.713 -0.6574  1.8616  0.8655
 9302SOL     OW39964   7.850   5.466   5.573 -0.2857  0.5393 -0.1215
 9302SOL    HW139965   7.916   5.406   5.526  0.4437  2.4814 -1.6629
 9302SOL    HW239966   7.759   5.451   5.536 -0.5582 -1.3478  1.2274
 9303SOL     OW39967   0.311   8.495   1.335  0.0639  0.0839 -0.0514
 9303SOL    HW139968   0.381   8.482   1.266 -0.6675 -0.3716 -0.7115
 9303SOL    HW239969   0.354   8.502   1.425  0.8598 -1.4793 -0.2967
 9304SOL     OW39970   2.190   3.704   8.809  0.1425  0.1328 -0.0821
 9304SOL    HW139971   2.197   3.789   8.757  1.2780  0.5090  0.6875
 9304SOL    HW239972   2.279   3.660   8.814 -0.4486 -1.1517 -0.5341
 9305SOL     OW39973   0.314   4.554   9.667 -0.0738 -0.4678 -0.1766
 9305SOL    HW139974   0.397   4.510   9.633  0.2309 -0.6829  0.8422
 9305SOL    HW239975   0.291   4.632   9.608  0.8144 -0.4428 -0.4983
 9306SOL     OW39976   5.714   6.192   1.006  0.8704 -0.0697  0.4429
 9306SOL    HW139977   5.645   6.226   0.943 -0.0102 -1.9495  0.3697
 9306SOL    HW239978   5.749   6.268   1.061  0.4490  1.2959 -1.1321
 9307SOL     OW39979   9.708   9.779   4.483 -0.0367  0.2323  0.0457
 9307SOL    HW139980   9.678   9.684   4.496 -1.9562  0.9751  1.3777
 9307SOL    HW239981   9.747   9.790   4.392  0.5079 -1.9052 -0.0077
 9308SOL     OW39982   4.291   4.346   7.869 -0.2310  0.1781  0.1345
 9308SOL    HW139983   4.217   4.285   7.840 -0.8884  0.0431  1.9937
 9308SOL    HW239984   4.254   4.421   7.924  0.8879  0.7274  0.1675
 9309SOL     OW39985   0.396   6.129   9.600  0.0826 -0.1586  0.3708
 9309SOL    HW139986   0.486   6.142   9.557 -0.8530 -0.0212 -1.5905
 9309SOL    HW239987   0.388   6.034   9.631  0.5587 -0.4355 -0.3272
 9310SOL     OW39988   4.530   4.928   6.874 -0.1808 -0.9163 -0.7723
 9310SOL    HW139989   4.627   4.952   6.885 -0.1308 -1.3350 -0.3058
 9310SOL    HW239990   4.482   4.943   6.960 -0.9196  1.0405 -1.5005
 9311SOL     OW39991   9.986   2.660   1.568 -0.1252 -0.2428  0.1020
 9311SOL    HW139992   9.982   2.560   1.560 -0.3389 -0.3612  1.6391
 9311SOL    HW239993   9.893   2.697   1.557 -0.3342 -0.3654  1.3719
 9312SOL     OW39994   7.026   0.781   2.158 -0.2656 -0.1024 -0.0134
 9312SOL    HW139995   7.115   0.733   2.158  0.4002  1.0971 -1.6318
 9312SOL    HW239996   7.020   0.838   2.239 -0.0048 -0.9936  0.6483
 9313SOL     OW39997   4.076   0.107   4.986 -0.5589  0.0718 -0.2975
 9313SOL    HW139998   4.090   0.121   5.084 -0.0817  0.2826 -0.3923
 9313SOL    HW239999   4.044   0.193   4.945  2.2345  0.9091 -0.8595
 9314SOL     OW40000   6.201   1.467   9.811 -0.7603  0.4020  0.4159
 9314SOL    HW140001   6.248   1.445   9.726  0.2656 -2.5458  1.6809
 9314SOL    HW240002   6.106   1.491   9.792 -0.3515  0.4563 -1.6116
 9315SOL     OW40003   7.536   6.900   6.522  0.0379 -0.0168  0.0711
 9315SOL    HW140004   7.558   6.819   6.468 -0.1769 -0.0948  0.0975
 9315SOL    HW240005   7.618   6.955   6.537  0.3207 -0.5858  0.6445
 9316SOL     OW40006   4.082   7.406   8.523  0.7328 -0.2238  0.0584
 9316SOL    HW140007   3.998   7.409   8.577 -0.0241 -0.3685 -1.1119
 9316SOL    HW240008   4.140   7.484   8.547  0.0220  0.1812  0.4529
 9317SOL     OW40009   0.860   8.142   3.387  0.2099  0.1718 -0.2833
 9317SOL    HW140010   0.919   8.072   3.428  0.8284  0.3223 -0.9055
 9317SOL    HW240011   0.917   8.208   3.338 -0.4458  0.5976 -0.4689
 9318SOL     OW40012   7.333   2.623   2.624  0.4757 -0.0231 -0.4760
 9318SOL    HW140013   7.353   2.527   2.643  1.6571  0.4520  0.7468
 9318SOL    HW240014   7.418   2.672   2.606 -0.1049  0.8294 -0.9495
 9319SOL     OW40015   7.457   5.272   3.917 -0.0538  0.2640 -0.1421
 9319SOL    HW140016   7.403   5.188   3.907  0.0680  0.2689 -0.9211
 9319SOL    HW240017   7.541   5.264   3.862 -0.2255  1.0409 -0.5261
 9320SOL     OW40018   4.741   2.336   1.852 -0.1857 -0.1040  0.3252
 9320SOL    HW140019   4.693   2.351   1.765  1.3073  1.6777 -0.2056
 9320SOL    HW240020   4.834   2.304   1.834  0.0632  0.0851  1.2654
 9321SOL     OW40021   6.538   5.963   1.865  0.1387 -0.1077  0.8142
 9321SOL    HW140022   6.455   5.910   1.885  0.1800 -0.1790  0.7971
 9321SOL    HW240023   6.550   6.034   1.934 -0.1175  0.1140  0.6331
 9322SOL     OW40024   3.097   4.137   2.354  0.2898 -0.1174 -0.9075
 9322SOL    HW140025   3.176   4.196   2.337 -0.3143  0.3352 -2.3102
 9322SOL    HW240026   3.116   4.045   2.321  0.2993 -0.0517 -1.0865
 9323SOL     OW40027   1.100   8.824   4.381 -1.0926  0.4090  0.8527
 9323SOL    HW140028   1.132   8.738   4.340 -2.0468  0.6218 -0.3648
 9323SOL    HW240029   1.176   8.869   4.428  0.0321  0.1867 -0.7232
 9324SOL     OW40030   9.432   0.456   8.722 -0.1914  0.2378  0.3672
 9324SOL    HW140031   9.358   0.499   8.670 -1.7311 -0.3965  1.9788
 9324SOL    HW240032   9.473   0.525   8.782  0.1503  0.4583 -0.1193
 9325SOL     OW40033   9.210   2.625   4.704 -0.9211  0.1702 -0.0900
 9325SOL    HW140034   9.279   2.620   4.632 -0.9462 -0.2212 -0.0898
 9325SOL    HW240035   9.247   2.585   4.788 -0.9097  0.5774  0.0967
 9326SOL     OW40036   1.112   4.127   3.513 -0.0920 -0.2033 -0.0413
 9326SOL    HW140037   1.079   4.209   3.559 -1.1254 -0.9226  0.5218
 9326SOL    HW240038   1.135   4.149   3.418 -1.0959  0.5633 -0.1107
 9327SOL     OW40039   3.108   2.912   0.489 -0.0349  0.5748 -0.0494
 9327SOL    HW140040   3.126   2.829   0.542 -1.1216  0.5513  0.3024
 9327SOL    HW240041   3.014   2.909   0.455 -0.2271  1.8692  0.3514
 9328SOL     OW40042   4.029   1.455   9.735  0.2910 -0.0344  0.0976
 9328SOL    HW140043   3.976   1.505   9.804 -1.0725  0.4104 -1.2525
 9328SOL    HW240044   4.097   1.517   9.695 -0.1633  0.2284 -0.2706
 9329SOL     OW40045   7.429   0.725   0.233  0.3580  0.6006  0.7999
 9329SOL    HW140046   7.473   0.762   0.315  0.9579  1.1328  0.2374
 9329SOL    HW240047   7.385   0.638   0.256  1.4199  0.2180  1.4487
 9330SOL     OW40048   3.629   6.051   5.255 -0.5963 -0.2627 -0.2087
 9330SOL    HW140049   3.630   5.965   5.308 -1.1549 -0.6648 -0.8439
 9330SOL    HW240050   3.711   6.104   5.277 -0.0496 -1.1326 -0.0922
 9331SOL     OW40051   0.134   7.875   6.826  0.4896  0.1854 -0.1651
 9331SOL    HW140052   0.221   7.903   6.866 -0.3632  0.7191  1.3493
 9331SOL    HW240053   0.062   7.878   6.895 -0.4587 -1.7345 -1.0003
 9332SOL     OW40054   3.308   9.785   2.295 -0.3098 -0.2463  0.2252
 9332SOL    HW140055   3.216   9.826   2.293  0.2961  1.1469 -0.0058
 9332SOL    HW240056   3.364   9.828   2.224  0.1394 -2.0382 -0.5192
 9333SOL     OW40057   0.422   0.855   2.252  0.2900  0.0332 -0.2266
 9333SOL    HW140058   0.518   0.850   2.282  0.2536  1.1795  0.0984
 9333SOL    HW240059   0.394   0.765   2.218  1.7805 -0.0746 -1.2492
 9334SOL     OW40060   8.848   7.768   2.991  0.2147  0.1229 -0.1742
 9334SOL    HW140061   8.868   7.850   2.939  0.5870  1.0676  1.4364
 9334SOL    HW240062   8.933   7.723   3.017  0.0769  0.4175  0.8051
 9335SOL     OW40063   0.089   2.181   6.232 -0.1578  0.6660 -0.0677
 9335SOL    HW140064   0.101   2.086   6.263  1.7260  1.4183  1.6592
 9335SOL    HW240065   0.030   2.183   6.152  2.5810 -2.3111 -2.2677
 9336SOL     OW40066   4.433   8.414   0.044 -0.5759  0.3326  0.3010
 9336SOL    HW140067   4.394   8.370   0.125 -0.0053  0.6465  0.7459
 9336SOL    HW240068   4.499   8.353   0.001  0.5468  0.9214  1.1724
 9337SOL     OW40069   7.822   3.956   7.542  0.3547  0.6243 -0.4468
 9337SOL    HW140070   7.883   3.879   7.561 -1.5300 -0.8548 -0.3237
 9337SOL    HW240071   7.867   4.041   7.570  1.4170 -0.6514  1.9035
 9338SOL     OW40072   2.743   8.298   4.138  0.5770  0.0107  0.3676
 9338SOL    HW140073   2.814   8.229   4.153  0.6921 -0.0665 -0.5320
 9338SOL    HW240074   2.739   8.321   4.041 -0.7013 -0.0611  0.3919
 9339SOL     OW40075   0.079   4.059   9.036  0.1147 -0.1793 -0.1920
 9339SOL    HW140076   0.066   4.052   8.938 -0.7957 -1.3973 -0.0036
 9339SOL    HW240077   0.016   4.126   9.074 -1.0913 -1.3004 -0.1638
 9340SOL     OW40078   5.200   8.746   5.451  0.2742  0.2905  0.6897
 9340SOL    HW140079   5.110   8.767   5.488  0.3186  0.5545  0.6443
 9340SOL    HW240080   5.190   8.702   5.361  0.1906  0.3196  0.6849
 9341SOL     OW40081   7.956   5.867   9.841 -0.2136  0.6624  0.6587
 9341SOL    HW140082   7.883   5.852   9.775 -0.2024  2.4269  0.2405
 9341SOL    HW240083   7.919   5.914   9.922 -0.0780 -0.8200  1.6060
 9342SOL     OW40084   2.285   6.632   9.066  0.6357 -0.2492 -0.0976
 9342SOL    HW140085   2.247   6.691   9.138  5.1261 -0.9288  3.0489
 9342SOL    HW240086   2.306   6.687   8.985  1.8395  1.9028  1.6333
 9343SOL     OW40087   8.092   8.189   3.171  0.0136  0.2339  0.4970
 9343SOL    HW140088   8.104   8.113   3.108  1.6661  0.3537  0.6506
 9343SOL    HW240089   8.023   8.252   3.135  1.3148  0.5693 -1.4695
 9344SOL     OW40090   5.899   4.937   8.609 -0.0720  0.3092 -0.1465
 9344SOL    HW140091   5.835   4.910   8.537  0.6755 -2.5565  0.2308
 9344SOL    HW240092   5.875   4.890   8.694  2.5841 -0.8563 -0.0104
 9345SOL     OW40093   3.138   6.047   0.815 -0.0689 -0.0215 -0.3705
 9345SOL    HW140094   3.193   6.088   0.742  0.5192 -1.9455 -1.0576
 9345SOL    HW240095   3.149   5.947   0.812 -0.0420 -0.1330  2.3371
 9346SOL     OW40096   1.020   3.218   9.332  0.1410  0.1666 -0.4643
 9346SOL    HW140097   1.030   3.300   9.388  0.0972  0.6561 -1.1593
 9346SOL    HW240098   1.020   3.245   9.235 -1.9063 -0.4432 -0.6415
 9347SOL     OW40099   5.104   1.243   0.840 -0.0797 -0.0047  0.1936
 9347SOL    HW140100   5.135   1.159   0.883  0.9942 -0.4115 -1.3281
 9347SOL    HW240101   5.063   1.303   0.909  0.5199 -1.1308  1.5513
 9348SOL     OW40102   9.527   7.361   2.176  0.3252  0.5387 -0.1327
 9348SOL    HW140103   9.500   7.386   2.083  2.3600  1.4441 -0.5080
 9348SOL    HW240104   9.619   7.396   2.195  0.3525 -0.5199  1.8697
 9349SOL     OW40105   6.858   0.684   3.555  0.2767 -0.3540 -0.0279
 9349SOL    HW140106   6.771   0.733   3.554  0.1603 -0.5700 -0.6603
 9349SOL    HW240107   6.854   0.607   3.492  1.1239 -0.0177 -0.5057
 9350SOL     OW40108   2.606   8.866   7.590 -0.2781  0.2904 -0.2497
 9350SOL    HW140109   2.541   8.849   7.516 -1.7233 -0.9447  1.2652
 9350SOL    HW240110   2.657   8.782   7.608 -1.5386 -0.0854  1.6571
 9351SOL     OW40111   2.706   4.774   3.550  0.0046  0.2918  0.2056
 9351SOL    HW140112   2.611   4.746   3.562 -0.2552  0.7775 -0.6739
 9351SOL    HW240113   2.710   4.849   3.483  1.2041 -0.9676 -1.1470
 9352SOL     OW40114   6.744   4.400   2.744 -0.6134  0.3809  0.5569
 9352SOL    HW140115   6.648   4.378   2.758 -1.1920  3.5251  1.9696
 9352SOL    HW240116   6.752   4.481   2.686  1.1097  1.0881  1.7226
 9353SOL     OW40117   2.110   4.361   3.930 -0.2778  0.1850  0.5938
 9353SOL    HW140118   2.120   4.266   3.960 -1.1830  0.6035  2.2792
 9353SOL    HW240119   2.054   4.411   3.995 -0.3701  1.7270 -0.6315
 9354SOL     OW40120   7.547   8.134   2.187  0.6351 -0.0087 -0.1773
 9354SOL    HW140121   7.474   8.103   2.247  2.0933 -1.1215  1.0670
 9354SOL    HW240122   7.512   8.146   2.094 -1.3376  0.4458  0.6180
 9355SOL     OW40123   0.527   9.494   6.713  0.2601  0.0780 -0.0726
 9355SOL    HW140124   0.571   9.548   6.784  0.3460 -1.6011  1.2041
 9355SOL    HW240125   0.428   9.495   6.727  0.3221 -0.7963  0.4997
 9356SOL     OW40126   1.683   7.037   2.571  0.0568  0.1826 -0.0978
 9356SOL    HW140127   1.770   7.086   2.558 -0.0733 -0.1458 -2.5320
 9356SOL    HW240128   1.615   7.100   2.607  0.5991  1.1344 -0.7103
 9357SOL     OW40129   7.440   4.844   6.251  0.4228 -0.0573  0.5837
 9357SOL    HW140130   7.509   4.880   6.189  1.6944 -2.8274  0.2970
 9357SOL    HW240131   7.353   4.836   6.203  0.5316  1.0242  0.1867
 9358SOL     OW40132   3.171   8.563   7.495  0.2781  0.2147 -0.4141
 9358SOL    HW140133   3.266   8.550   7.468 -0.0267 -1.6002 -0.6634
 9358SOL    HW240134   3.156   8.523   7.585 -0.2659  0.4423 -0.4015
 9359SOL     OW40135   2.223   4.652   0.478 -0.2885 -0.4030 -0.0671
 9359SOL    HW140136   2.222   4.749   0.503  1.9691  0.2928 -2.4066
 9359SOL    HW240137   2.168   4.637   0.397 -0.7712 -1.1248  0.3847
 9360SOL     OW40138   4.536   0.130   3.077  0.0020  0.4155 -0.2705
 9360SOL    HW140139   4.563   0.042   3.039  1.1089  1.6221 -2.4129
 9360SOL    HW240140   4.519   0.194   3.002 -2.5270  1.5312  1.2097
 9361SOL     OW40141   5.994   7.524   7.391  0.1226  0.2720  0.0434
 9361SOL    HW140142   5.953   7.593   7.451 -0.0533  0.2479 -0.0515
 9361SOL    HW240143   5.927   7.453   7.370  0.5810 -0.4164  0.8942
 9362SOL     OW40144   2.881   6.638   9.625 -0.6886  0.1091 -0.0798
 9362SOL    HW140145   2.814   6.708   9.599  1.8517  2.4985 -0.3686
 9362SOL    HW240146   2.963   6.649   9.569  0.2498 -2.2987  0.7909
 9363SOL     OW40147   3.265   9.810   0.401 -0.5257  0.1963  0.2307
 9363SOL    HW140148   3.285   9.908   0.394 -0.5128  0.2002  0.3236
 9363SOL    HW240149   3.346   9.762   0.433  0.2772 -0.1943 -2.2908
 9364SOL     OW40150   3.446   1.179   0.906 -0.0551  0.3995  0.1506
 9364SOL    HW140151   3.520   1.132   0.954  0.3263  0.8946  0.0579
 9364SOL    HW240152   3.443   1.150   0.811 -0.5873 -0.3221  0.3793
 9365SOL     OW40153   1.432   5.331   3.642 -0.3637 -0.4925  0.2761
 9365SOL    HW140154   1.380   5.279   3.710  2.3599 -1.2162  1.8489
 9365SOL    HW240155   1.406   5.301   3.551 -2.1350 -1.4001  1.0493
 9366SOL     OW40156   4.308   0.418   1.034  0.2037  0.3937  0.7246
 9366SOL    HW140157   4.358   0.474   0.968 -2.1216  1.6964 -0.0042
 9366SOL    HW240158   4.260   0.344   0.985 -0.0334  0.2387  1.1847
 9367SOL     OW40159   1.782   3.312   6.159 -0.6216 -0.5395  0.0656
 9367SOL    HW140160   1.785   3.363   6.246 -1.7074  1.7082 -1.1737
 9367SOL    HW240161   1.837   3.360   6.091 -0.0452 -2.1292 -0.5986
 9368SOL     OW40162   8.961   5.378   6.030  0.0059  0.3860  0.0658
 9368SOL    HW140163   9.007   5.313   5.970 -0.5890 -0.6305  0.6947
 9368SOL    HW240164   8.866   5.349   6.044  0.6769 -0.5202  3.1205
 9369SOL     OW40165   6.152   9.742   7.150 -0.9091  0.1526  0.2371
 9369SOL    HW140166   6.242   9.700   7.161 -0.8980  0.6898  2.4535
 9369SOL    HW240167   6.081   9.671   7.148 -0.4833 -0.2432 -1.0490
 9370SOL     OW40168   8.652   3.956   7.416 -0.1405  0.2487  0.4984
 9370SOL    HW140169   8.589   3.887   7.451  1.0754 -1.4341 -0.5850
 9370SOL    HW240170   8.707   3.992   7.492 -2.0189  1.4096  1.3793
 9371SOL     OW40171   7.041   3.307   8.463 -0.2669 -0.1045 -0.3019
 9371SOL    HW140172   6.986   3.302   8.547  0.1510 -2.3383 -0.1172
 9371SOL    HW240173   7.112   3.237   8.466 -0.0852 -0.0503 -2.4230
 9372SOL     OW40174   3.839   3.760   5.053  0.5539  0.5754 -0.1308
 9372SOL    HW140175   3.811   3.740   4.960  0.5784  2.2034 -0.5122
 9372SOL    HW240176   3.888   3.848   5.055 -1.9235  1.9757  1.8316
 9373SOL     OW40177   1.009   8.248   4.468  0.1221 -0.2894  0.2077
 9373SOL    HW140178   1.081   8.179   4.479  1.0539  0.5057 -0.8996
 9373SOL    HW240179   0.998   8.298   4.554  1.5608  0.2378  0.0961
 9374SOL     OW40180   1.909   2.553   5.677 -0.6579  0.2594  0.1998
 9374SOL    HW140181   1.960   2.542   5.762 -0.1896 -1.5124 -0.2784
 9374SOL    HW240182   1.912   2.649   5.648  1.3223  0.4072  0.8387
 9375SOL     OW40183   7.015   1.316   2.618  0.3111 -0.0351 -0.3104
 9375SOL    HW140184   7.021   1.258   2.700 -0.8175  1.2454  0.6998
 9375SOL    HW240185   6.926   1.304   2.575  0.7541 -0.3993 -1.1284
 9376SOL     OW40186   2.923   8.740   3.760 -0.1136  0.3151  0.4063
 9376SOL    HW140187   2.967   8.717   3.673  1.5672 -1.1690  1.6320
 9376SOL    HW240188   2.952   8.832   3.788  0.7622  0.0737  0.2967
 9377SOL     OW40189   6.887   1.264   5.469 -0.9374  0.0422  0.5078
 9377SOL    HW140190   6.962   1.208   5.503 -3.1636 -1.7439  2.7330
 9377SOL    HW240191   6.871   1.245   5.372  1.0135 -0.0540  0.1928
 9378SOL     OW40192   0.122   5.432   8.993  0.0366 -0.0577  0.3528
 9378SOL    HW140193   0.140   5.428   8.895  0.2138  2.2734  0.2628
 9378SOL    HW240194   0.026   5.411   9.011 -0.5052  1.6447 -0.5275
 9379SOL     OW40195   0.315   7.446   1.692 -0.0433 -0.0825 -0.2284
 9379SOL    HW140196   0.253   7.369   1.704 -0.8385  0.6435  0.3737
 9379SOL    HW240197   0.299   7.513   1.764  0.7823  0.5592 -0.6314
 9380SOL     OW40198   1.920   0.577   1.844  0.5374 -0.2479 -0.1842
 9380SOL    HW140199   1.981   0.498   1.856 -0.3373 -0.8256  0.5235
 9380SOL    HW240200   1.873   0.569   1.755  1.6847  0.3375 -0.8492
 9381SOL     OW40201   2.034   6.038   0.431  0.4633 -0.2079 -0.5329
 9381SOL    HW140202   2.006   6.042   0.335 -0.2532  0.0704 -0.3191
 9381SOL    HW240203   1.973   6.096   0.485  0.8260 -0.4174  0.0987
 9382SOL     OW40204   8.263   6.281   4.824 -0.2998 -0.1868 -0.1140
 9382SOL    HW140205   8.226   6.189   4.835  2.5693 -1.4495 -0.6794
 9382SOL    HW240206   8.267   6.304   4.727  0.0997  0.0544 -0.0424
 9383SOL     OW40207   8.089   3.000   4.429 -0.3240 -0.7104 -0.0191
 9383SOL    HW140208   8.067   2.902   4.431  1.1333 -1.0670 -1.0331
 9383SOL    HW240209   8.182   3.013   4.395 -0.6172  1.0564 -0.1911
 9384SOL     OW40210   7.481   6.881   2.706  0.4130 -0.1113  0.4097
 9384SOL    HW140211   7.541   6.935   2.767  2.5102 -3.6906  1.6653
 9384SOL    HW240212   7.532   6.856   2.624 -1.0652  1.0917 -0.9031
 9385SOL     OW40213   1.440   9.026   8.870 -0.1705 -0.2518 -0.1290
 9385SOL    HW140214   1.497   9.028   8.788  1.0494  3.6007  0.7285
 9385SOL    HW240215   1.496   9.004   8.949 -0.9172 -1.6907  0.0149
 9386SOL     OW40216   0.096   1.591   7.249 -0.3485 -0.2419 -0.8226
 9386SOL    HW140217   0.066   1.686   7.263  1.6723  0.1560  1.2093
 9386SOL    HW240218   0.166   1.588   7.177  0.9881  0.1420  0.4238
 9387SOL     OW40219   0.436   7.442   7.440  0.1190 -0.3846 -0.2342
 9387SOL    HW140220   0.406   7.362   7.390 -1.0160  1.0630 -1.9363
 9387SOL    HW240221   0.378   7.520   7.418  1.8155  1.1719  0.5755
 9388SOL     OW40222   9.804   8.561   1.209  0.2350 -0.0054  0.8943
 9388SOL    HW140223   9.891   8.577   1.164  0.1537 -0.3415  0.6178
 9388SOL    HW240224   9.745   8.641   1.197 -0.1101 -0.4377 -0.3507
 9389SOL     OW40225   3.145   6.359   2.076  0.4019  0.3166 -0.3972
 9389SOL    HW140226   3.203   6.378   1.996 -1.0648 -0.9538 -1.7835
 9389SOL    HW240227   3.049   6.358   2.048 -0.3401  2.4268  1.8907
 9390SOL     OW40228   5.280   2.127   9.676 -0.1689 -0.3829  0.4570
 9390SOL    HW140229   5.315   2.215   9.707  0.5320 -1.0159  1.5142
 9390SOL    HW240230   5.205   2.098   9.737 -0.2763 -0.5989  0.2225
 9391SOL     OW40231   1.695   4.744   9.237 -0.1209  0.0531 -0.8466
 9391SOL    HW140232   1.682   4.740   9.336  0.7208 -2.4794 -0.8030
 9391SOL    HW240233   1.610   4.717   9.191  0.0593 -0.5962 -0.7956
 9392SOL     OW40234   5.550   1.615   1.947 -0.1599  0.4905  0.3361
 9392SOL    HW140235   5.612   1.691   1.929  0.9659 -0.4947  0.0005
 9392SOL    HW240236   5.464   1.631   1.899  0.2813  1.2716 -0.2056
 9393SOL     OW40237   0.738   9.871   8.458 -0.4563  0.8559  0.2285
 9393SOL    HW140238   0.685   9.951   8.432 -1.4045  1.1141  2.7822
 9393SOL    HW240239   0.827   9.874   8.414 -1.3564  2.0771 -1.5785
 9394SOL     OW40240   4.607   6.002   8.288  0.0693  0.1184 -0.3288
 9394SOL    HW140241   4.681   6.042   8.234  1.1183 -2.3184 -0.7671
 9394SOL    HW240242   4.550   5.945   8.229 -1.2073  0.6631  0.3434
 9395SOL     OW40243   8.157   5.451   0.523 -0.1071 -0.1585  0.3022
 9395SOL    HW140244   8.093   5.378   0.499 -1.9261  1.1428  1.0491
 9395SOL    HW240245   8.241   5.441   0.469 -0.7680 -2.1231 -0.4161
 9396SOL     OW40246   7.992   6.979   3.654 -0.0100 -0.2539  0.6938
 9396SOL    HW140247   7.982   6.898   3.712 -0.5405 -1.0375 -0.4796
 9396SOL    HW240248   7.914   6.986   3.592  0.9517  0.1071 -0.4899
 9397SOL     OW40249   3.801   1.472   1.405 -0.4315 -0.2038  0.3023
 9397SOL    HW140250   3.797   1.535   1.482  0.1642 -0.0583  0.2202
 9397SOL    HW240251   3.875   1.499   1.344  0.1265 -1.2393  0.5012
 9398SOL     OW40252   5.019   1.969   9.378 -0.4506  0.3911  0.0880
 9398SOL    HW140253   5.045   2.033   9.306  0.3458  0.5414  0.4969
 9398SOL    HW240254   4.936   2.002   9.423 -1.9767 -0.6337 -1.9099
 9399SOL     OW40255   5.112   5.936   1.287 -0.0343  0.3295  0.6665
 9399SOL    HW140256   5.027   5.981   1.316 -0.1127 -1.2853  3.1195
 9399SOL    HW240257   5.186   5.962   1.349  0.8145  0.1546 -0.2659
 9400SOL     OW40258   9.708   0.384   0.242 -0.0458 -0.3068  0.0338
 9400SOL    HW140259   9.705   0.482   0.257 -1.8024 -0.2201 -0.6599
 9400SOL    HW240260   9.643   0.359   0.169  0.1040 -2.0002  0.4395
 9401SOL     OW40261   8.841   5.103   6.595  0.2350 -0.2860 -0.2525
 9401SOL    HW140262   8.919   5.064   6.546  0.4358 -0.1118 -0.0718
 9401SOL    HW240263   8.808   5.036   6.662  0.3123 -0.3133 -0.2404
 9402SOL     OW40264   9.516   9.486   6.676  0.0986  0.4534  0.0765
 9402SOL    HW140265   9.468   9.399   6.671 -0.3306  0.6927  0.0586
 9402SOL    HW240266   9.464   9.556   6.627  1.6497  0.1780 -2.0346
 9403SOL     OW40267   1.286   0.232   8.527 -0.0520 -0.0181 -0.0779
 9403SOL    HW140268   1.302   0.303   8.596 -0.1240 -0.1079  0.0312
 9403SOL    HW240269   1.208   0.176   8.554  0.1366 -0.2707 -0.0625
 9404SOL     OW40270   8.047   4.162   8.833 -0.5401 -0.3094 -0.4938
 9404SOL    HW140271   8.015   4.090   8.771 -1.1720 -0.7227  0.3020
 9404SOL    HW240272   8.129   4.131   8.881 -0.0954 -0.0197 -1.0563
 9405SOL     OW40273   1.077   7.195   6.007 -0.1659 -0.0014 -0.0605
 9405SOL    HW140274   1.130   7.237   5.933 -1.0601 -0.6034 -1.0459
 9405SOL    HW240275   0.997   7.149   5.970  0.3761 -1.9523  1.0802
 9406SOL     OW40276   8.547   3.081   2.440  0.0798 -0.1759 -0.1038
 9406SOL    HW140277   8.562   3.027   2.523 -2.9139 -2.6031 -1.0592
 9406SOL    HW240278   8.464   3.135   2.450  0.6297  0.8487 -0.9054
 9407SOL     OW40279   8.132   5.243   0.994 -0.4779 -0.1503 -0.2102
 9407SOL    HW140280   8.123   5.166   1.057  1.5295 -0.0376  0.2501
 9407SOL    HW240281   8.181   5.214   0.912 -0.1422  0.5100 -0.2504
 9408SOL     OW40282   3.508   9.615   0.157  0.0158  0.2570  0.1362
 9408SOL    HW140283   3.552   9.699   0.191  0.8427 -0.5685  1.1149
 9408SOL    HW240284   3.542   9.536   0.208 -2.1952 -0.4724  0.5175
 9409SOL     OW40285   4.140   8.052   1.851 -0.3420  0.3798 -0.3162
 9409SOL    HW140286   4.098   7.966   1.877  0.1832 -0.0890 -1.0025
 9409SOL    HW240287   4.166   8.049   1.754  2.4981  0.1336  0.4101
 9410SOL     OW40288   0.024   7.134   0.959 -0.2405 -0.0275 -0.5813
 9410SOL    HW140289  -0.019   7.145   1.048 -0.5344  0.0909 -0.7394
 9410SOL    HW240290   0.123   7.143   0.969 -0.1754 -1.1683 -0.0745
 9411SOL     OW40291   4.331   8.029   3.126  0.1087 -0.2049 -0.0902
 9411SOL    HW140292   4.345   8.126   3.141 -2.1840 -0.0761  1.6293
 9411SOL    HW240293   4.389   7.976   3.188 -1.1407  0.1482  1.4035
 9412SOL     OW40294   8.067   2.972   2.153  0.1882 -0.0215 -0.0245
 9412SOL    HW140295   8.061   2.993   2.055  1.7597 -1.3101 -0.4085
 9412SOL    HW240296   8.157   3.001   2.188  0.8907 -2.5250  0.3049
 9413SOL     OW40297   4.421   5.418   1.175  0.3858 -0.5996  0.2951
 9413SOL    HW140298   4.429   5.432   1.274 -1.1151 -0.5576  0.4261
 9413SOL    HW240299   4.335   5.370   1.156  0.7210 -0.6943 -0.9818
 9414SOL     OW40300   3.052   5.019   6.985  0.0267 -0.1966  0.0043
 9414SOL    HW140301   3.040   5.001   6.887  0.3915 -0.8351  0.0744
 9414SOL    HW240302   2.999   5.100   7.011 -1.9526 -1.3778 -0.2460
 9415SOL     OW40303   1.281   9.566   8.713  0.2669  0.4676 -0.3958
 9415SOL    HW140304   1.293   9.504   8.635 -0.0719 -1.8906  1.3917
 9415SOL    HW240305   1.349   9.544   8.783  0.8026  2.8183 -0.1424
 9416SOL     OW40306   4.845   4.636   1.855  0.5782  0.2745 -0.3880
 9416SOL    HW140307   4.817   4.558   1.799 -0.2314  0.1710  0.1585
 9416SOL    HW240308   4.942   4.625   1.880  0.3605 -0.7730  0.0282
 9417SOL     OW40309   3.717   8.804   8.475  0.7533  0.1887  0.0841
 9417SOL    HW140310   3.620   8.780   8.479  0.2035  2.3134  0.4560
 9417SOL    HW240311   3.763   8.772   8.558  0.1953 -0.1794  0.2555
 9418SOL     OW40312   9.839   8.960   5.667 -0.0866  0.3120  0.4603
 9418SOL    HW140313   9.751   9.008   5.676  0.2164  1.4207 -1.9639
 9418SOL    HW240314   9.824   8.862   5.678 -1.3704  0.6109  1.5974
 9419SOL     OW40315   0.725   6.921   1.159 -0.1284 -0.3532  0.2768
 9419SOL    HW140316   0.766   7.010   1.179  1.4370 -0.9076 -0.3871
 9419SOL    HW240317   0.737   6.860   1.237 -0.1565 -0.3565  0.2785
 9420SOL     OW40318   7.903   1.982  10.029 -0.4132 -0.1150 -0.2016
 9420SOL    HW140319   7.996   1.985  10.067 -0.6620  1.1008  0.3381
 9420SOL    HW240320   7.874   2.075  10.006 -1.0581 -0.6272 -1.4453
 9421SOL     OW40321   0.557   4.790   0.705  0.3571 -0.0491 -0.3055
 9421SOL    HW140322   0.499   4.804   0.625 -2.5091 -2.4708  1.2575
 9421SOL    HW240323   0.617   4.712   0.690 -0.9389 -1.1765  0.2741
 9422SOL     OW40324   8.813   9.521   4.748  0.5926  0.3030 -0.1551
 9422SOL    HW140325   8.795   9.455   4.675 -0.0968  0.1809  0.1249
 9422SOL    HW240326   8.788   9.613   4.715 -1.1314  0.0636  0.4321
 9423SOL     OW40327   2.271   8.710   2.653 -0.5946  0.3842 -0.0946
 9423SOL    HW140328   2.191   8.763   2.679  0.2447  1.1394  0.9985
 9423SOL    HW240329   2.249   8.653   2.574 -1.8531  1.4718 -0.5448
 9424SOL     OW40330   7.106   2.852   4.232 -0.4541  0.0378  0.0675
 9424SOL    HW140331   7.040   2.922   4.203 -1.5498 -2.0033 -2.5639
 9424SOL    HW240332   7.063   2.792   4.299 -0.4973  0.0603  0.0604
 9425SOL     OW40333   8.495   9.933   4.677  0.1397  0.1920 -0.3113
 9425SOL    HW140334   8.405   9.898   4.652  0.4031 -1.5970  1.1407
 9425SOL    HW240335   8.497   9.956   4.774  1.4574 -0.4951 -0.1565
 9426SOL     OW40336   9.421   2.039   2.282  0.3990  0.4893  0.5740
 9426SOL    HW140337   9.483   1.977   2.329  2.0925  1.8401  0.1574
 9426SOL    HW240338   9.412   2.010   2.186  0.3444  0.2690  0.6451
 9427SOL     OW40339   1.650   6.184   4.534 -0.8750 -0.2207  0.4613
 9427SOL    HW140340   1.644   6.096   4.487 -0.8941 -0.1792  0.3854
 9427SOL    HW240341   1.666   6.257   4.466  0.0911 -0.2784  0.6134
 9428SOL     OW40342   2.866   0.178   9.455 -0.2805 -0.1002  0.3076
 9428SOL    HW140343   2.841   0.109   9.388 -1.3106 -0.9868  1.5688
 9428SOL    HW240344   2.965   0.172   9.473  0.2294  0.9961 -2.0264
 9429SOL     OW40345   9.068   1.822   0.159  0.0630 -0.2171 -0.1543
 9429SOL    HW140346   9.047   1.728   0.186 -0.6791 -0.0878 -0.2455
 9429SOL    HW240347   8.984   1.877   0.165  0.5383  0.4830  0.0897
 9430SOL     OW40348   4.575   5.640   4.920 -0.0822  0.1483  0.0991
 9430SOL    HW140349   4.600   5.544   4.903  0.5242  0.4260 -0.6321
 9430SOL    HW240350   4.546   5.682   4.835 -1.7507  0.2283  0.6945
 9431SOL     OW40351   3.722   0.508   8.190  0.7367  0.4337  0.7126
 9431SOL    HW140352   3.729   0.438   8.260  1.3494  0.4150  0.6348
 9431SOL    HW240353   3.631   0.550   8.193 -0.7271 -2.4511 -1.2313
 9432SOL     OW40354   1.096   2.090   4.099 -0.2224  0.6264  0.2437
 9432SOL    HW140355   1.112   2.188   4.100  0.0669  0.5727  1.2350
 9432SOL    HW240356   1.020   2.068   4.160 -0.8756  0.3305 -0.6653
 9433SOL     OW40357   0.797   8.074   4.501 -0.1530 -0.4000 -0.6306
 9433SOL    HW140358   0.803   8.041   4.595 -0.1132  0.0805 -0.4629
 9433SOL    HW240359   0.875   8.134   4.481 -0.7467  0.3861 -0.6122
 9434SOL     OW40360   5.589   8.477   3.203 -0.3785  0.1518  0.5106
 9434SOL    HW140361   5.572   8.541   3.278 -0.4697  0.4062  0.2766
 9434SOL    HW240362   5.529   8.398   3.212  1.2428 -0.9615  2.0252
 9435SOL     OW40363   8.181   9.263   7.060 -0.3643  0.3936  0.1973
 9435SOL    HW140364   8.162   9.227   7.152  1.5179 -0.0555  0.4254
 9435SOL    HW240365   8.216   9.357   7.068  0.5054  0.0910 -0.0040
 9436SOL     OW40366   4.695   6.405   9.441  0.4506 -0.5916  0.4501
 9436SOL    HW140367   4.758   6.420   9.364 -1.9350 -1.1926 -1.6830
 9436SOL    HW240368   4.623   6.342   9.413 -0.6772 -0.5441  3.1069
 9437SOL     OW40369   4.280   2.636   3.256 -0.5677 -1.0038 -0.0029
 9437SOL    HW140370   4.326   2.547   3.257 -0.2269 -0.8429  1.8498
 9437SOL    HW240371   4.296   2.681   3.344 -1.7049  0.3870 -0.5084
 9438SOL     OW40372   1.681   4.360   3.010 -0.4096  0.0559  0.4258
 9438SOL    HW140373   1.760   4.396   3.060  0.4466 -0.6450 -0.3947
 9438SOL    HW240374   1.681   4.260   3.017 -2.5313  0.1624  2.3515
 9439SOL     OW40375   5.465   3.517   8.428 -0.1931  0.1262 -0.5857
 9439SOL    HW140376   5.497   3.501   8.522 -0.9700 -0.8178 -0.4714
 9439SOL    HW240377   5.462   3.615   8.410 -2.7564  0.4729  1.3721
 9440SOL     OW40378   8.369   9.351   5.669 -0.4955  0.8500  0.0703
 9440SOL    HW140379   8.374   9.421   5.740 -2.8606  0.3526  0.7579
 9440SOL    HW240380   8.277   9.312   5.666 -0.2539  0.3824 -2.8192
 9441SOL     OW40381   8.907   5.133   7.110  0.0447 -0.4184 -0.1823
 9441SOL    HW140382   8.964   5.198   7.162  0.9083  0.1034 -1.7474
 9441SOL    HW240383   8.817   5.174   7.094 -0.4354 -0.8305  1.4238
 9442SOL     OW40384   0.697   6.045   0.089 -0.1526  0.2222 -0.2081
 9442SOL    HW140385   0.762   6.120   0.079  0.9466 -0.3878  2.0620
 9442SOL    HW240386   0.709   6.003   0.178 -2.3208 -1.1998 -0.5674
 9443SOL     OW40387   6.272   9.513   6.297  0.5060  0.3192  0.1763
 9443SOL    HW140388   6.345   9.462   6.253 -0.2854 -0.6482 -0.0336
 9443SOL    HW240389   6.204   9.539   6.228  1.0309  1.9085  0.2248
 9444SOL     OW40390   3.687   9.421   0.001 -0.3151  0.4129 -0.5306
 9444SOL    HW140391   3.758   9.487  -0.021 -0.4368  1.4757  2.1115
 9444SOL    HW240392   3.597   9.466  -0.001 -0.4082  0.3320  1.1681
 9445SOL     OW40393   9.625   6.292   9.439  0.9746 -0.1683  0.2885
 9445SOL    HW140394   9.702   6.278   9.502  1.2741 -1.1240 -0.2857
 9445SOL    HW240395   9.650   6.259   9.348 -0.5530 -1.6495  0.3922
 9446SOL     OW40396   1.384   0.425   1.224  0.2019  0.6131  0.1939
 9446SOL    HW140397   1.386   0.391   1.130 -0.3595 -0.5386  0.5876
 9446SOL    HW240398   1.318   0.500   1.231 -1.8305 -1.1541  0.2570
 9447SOL     OW40399   1.204   8.275   7.466  0.3627 -0.7169 -0.2914
 9447SOL    HW140400   1.262   8.347   7.504  1.8963 -2.0032 -0.1373
 9447SOL    HW240401   1.184   8.296   7.370 -1.0770  1.0430  0.3754
 9448SOL     OW40402   6.220   8.719   7.279  0.1523  0.5204  0.5262
 9448SOL    HW140403   6.226   8.657   7.357  2.1235  0.1061  0.0697
 9448SOL    HW240404   6.179   8.672   7.201 -0.4330  0.4787  0.8605
 9449SOL     OW40405   7.899   8.089   6.020  0.2020 -0.1809  0.0227
 9449SOL    HW140406   7.831   8.148   6.065  0.0958 -0.7172  0.5754
 9449SOL    HW240407   7.991   8.117   6.049  0.1255 -0.6371  0.7241
 9450SOL     OW40408   2.044   4.058   0.799 -0.0258  0.4998 -0.3522
 9450SOL    HW140409   2.008   4.106   0.718 -0.2798 -0.3428 -0.7391
 9450SOL    HW240410   2.143   4.071   0.804  0.1585 -0.3983 -1.4453
 9451SOL     OW40411   5.044   7.474   6.505 -0.0493  0.3547 -0.2036
 9451SOL    HW140412   4.974   7.523   6.557 -0.8396  0.5502 -1.4071
 9451SOL    HW240413   5.134   7.501   6.537 -0.5139  0.9461  0.6309
 9452SOL     OW40414   4.591   1.942   7.856 -0.6705  0.0273  0.5720
 9452SOL    HW140415   4.573   1.844   7.846  0.1548 -0.0104 -0.6198
 9452SOL    HW240416   4.526   1.993   7.799  0.5445  0.0540 -0.8047
 9453SOL     OW40417   1.689   4.082   3.015  0.1734  0.1609 -0.2620
 9453SOL    HW140418   1.721   4.088   3.109  4.0434  0.5945 -1.5157
 9453SOL    HW240419   1.671   3.986   2.992  0.9380 -0.1403  0.3834
 9454SOL     OW40420   0.878   3.804   5.249  0.1143 -0.2469 -0.0211
 9454SOL    HW140421   0.897   3.769   5.157  2.2302 -1.5993  0.8853
 9454SOL    HW240422   0.827   3.736   5.301 -0.7731  0.3742 -0.0694
 9455SOL     OW40423   8.339   3.106   6.414  0.4495 -0.1205 -0.5344
 9455SOL    HW140424   8.324   3.067   6.505 -1.2887 -2.1475 -1.6611
 9455SOL    HW240425   8.432   3.143   6.409 -0.0270  1.6936  2.6401
 9456SOL     OW40426   1.777   2.681   4.486  0.1646 -0.0059  0.0696
 9456SOL    HW140427   1.812   2.745   4.554  0.3359  1.2584 -1.1803
 9456SOL    HW240428   1.688   2.645   4.515  0.0359  0.8573  0.7443
 9457SOL     OW40429   0.651   8.372   9.278 -0.0679 -0.0596  0.0151
 9457SOL    HW140430   0.614   8.303   9.216  1.0146 -0.3527 -0.3126
 9457SOL    HW240431   0.701   8.440   9.225 -0.4020  0.5152  0.4263
 9458SOL     OW40432   3.509   4.529   2.287 -0.0571 -0.0041 -0.3845
 9458SOL    HW140433   3.595   4.540   2.336  0.6744 -0.3142 -1.5846
 9458SOL    HW240434   3.512   4.582   2.202 -1.7249  1.4087  0.4106
 9459SOL     OW40435   3.253   2.186   8.153  0.2169 -0.3927 -0.2108
 9459SOL    HW140436   3.171   2.146   8.112  0.0924 -0.8332  0.4594
 9459SOL    HW240437   3.306   2.232   8.083 -0.7236  0.0940 -0.6137
 9460SOL     OW40438   3.429   0.817   5.920  0.4586  0.0163  0.7794
 9460SOL    HW140439   3.486   0.888   5.878  1.5283 -0.4866  1.3515
 9460SOL    HW240440   3.431   0.827   6.019 -1.7000  0.9278  0.7490
 9461SOL     OW40441   3.963   8.910   3.781  0.2091 -0.0415 -0.4474
 9461SOL    HW140442   4.000   8.912   3.688 -0.7934  0.9559 -0.8447
 9461SOL    HW240443   4.004   8.984   3.835 -0.4252  0.4227 -0.5912
 9462SOL     OW40444   5.042   9.349   4.460 -0.1830  0.1860 -0.2710
 9462SOL    HW140445   5.021   9.312   4.369 -0.1633 -0.2130 -0.1107
 9462SOL    HW240446   5.124   9.406   4.454  0.0747 -0.2006 -0.4161
 9463SOL     OW40447   0.306   5.197   5.567  0.3044  0.2364  0.1408
 9463SOL    HW140448   0.404   5.212   5.583  0.0292  0.2030  1.9083
 9463SOL    HW240449   0.291   5.179   5.469  2.0271  0.4802 -0.1862
 9464SOL     OW40450   7.716   7.191   2.596 -0.1613  0.0240  0.3158
 9464SOL    HW140451   7.738   7.194   2.499 -0.7957 -1.0949  0.1330
 9464SOL    HW240452   7.791   7.148   2.646  0.5107  1.3123  0.4304
 9465SOL     OW40453   5.142   9.178   5.380 -0.5549 -0.1924  0.2189
 9465SOL    HW140454   5.071   9.182   5.451 -0.8371  0.0989 -0.0805
 9465SOL    HW240455   5.114   9.115   5.308 -0.7968  0.3957 -0.2097
 9466SOL     OW40456   2.414   7.650   7.327 -0.2826 -0.1585  0.1125
 9466SOL    HW140457   2.395   7.639   7.425  0.8867  2.5190  0.6906
 9466SOL    HW240458   2.505   7.614   7.307 -0.8876 -1.5445 -0.1874
 9467SOL     OW40459   9.753   1.226   1.587  0.1797  0.5825  0.1501
 9467SOL    HW140460   9.688   1.200   1.659 -0.0156  1.1370  0.1740
 9467SOL    HW240461   9.829   1.161   1.586 -0.2287  0.1036  0.3156
 9468SOL     OW40462   2.175   8.465   4.373 -0.2854  0.2335 -0.0809
 9468SOL    HW140463   2.244   8.440   4.306  1.3569 -1.1092  2.0427
 9468SOL    HW240464   2.088   8.424   4.348  0.0390  0.6148 -1.9143
 9469SOL     OW40465   4.930   0.138   5.157 -0.0672  0.0062 -0.4360
 9469SOL    HW140466   4.846   0.192   5.155  0.7853  1.4053  0.4364
 9469SOL    HW240467   4.969   0.133   5.065  0.3211  1.6639 -0.3759
 9470SOL     OW40468   3.528   9.725   5.071  0.4279  0.3511  0.2479
 9470SOL    HW140469   3.558   9.813   5.035  0.5351  0.6719  1.0967
 9470SOL    HW240470   3.551   9.652   5.006  1.2983  0.8234  0.0204
 9471SOL     OW40471   8.508   3.183   3.458 -0.0263  0.2184 -0.6787
 9471SOL    HW140472   8.423   3.184   3.405 -0.6709  3.2349  0.3339
 9471SOL    HW240473   8.490   3.213   3.552  1.7754 -1.3069  0.1851
 9472SOL     OW40474   9.575   3.267   8.122  0.3568  0.1125 -0.1004
 9472SOL    HW140475   9.628   3.194   8.165  1.1393  0.1289 -1.0218
 9472SOL    HW240476   9.555   3.243   8.027 -1.4803  0.0152  0.2819
 9473SOL     OW40477   2.746   4.940   4.547 -0.0623 -0.3016  0.1270
 9473SOL    HW140478   2.668   4.877   4.557 -0.2523 -0.3367 -1.5728
 9473SOL    HW240479   2.830   4.891   4.567 -0.3434 -0.6599  0.4593
 9474SOL     OW40480   4.348   2.953   2.886 -0.0778 -0.2027  0.0437
 9474SOL    HW140481   4.412   2.890   2.931  0.7116 -0.8056 -1.8977
 9474SOL    HW240482   4.281   2.901   2.833  0.3693  0.5660 -1.2955
 9475SOL     OW40483   8.750   0.011   1.115  0.0801 -0.3735 -1.0200
 9475SOL    HW140484   8.820  -0.053   1.084 -1.1117 -1.7331 -0.9117
 9475SOL    HW240485   8.768   0.036   1.210  1.1315  0.2664 -1.3783
 9476SOL     OW40486   7.762   4.212   2.329 -0.6751 -0.3811  0.1787
 9476SOL    HW140487   7.844   4.240   2.279 -1.2197  0.2233 -0.3711
 9476SOL    HW240488   7.757   4.261   2.416 -0.6850 -0.1017  0.0189
 9477SOL     OW40489   6.538   3.867   0.414  0.1278 -0.6617 -0.0677
 9477SOL    HW140490   6.457   3.838   0.465 -0.3829  1.1250  0.1749
 9477SOL    HW240491   6.619   3.826   0.454 -0.4651 -0.8630  0.9412
 9478SOL     OW40492   1.594   6.015   5.209 -0.1075  0.2801  0.3185
 9478SOL    HW140493   1.651   5.946   5.163  1.6384  1.5419  0.5404
 9478SOL    HW240494   1.637   6.042   5.295 -1.1698  1.0967  0.6049
 9479SOL     OW40495   8.101   4.358   4.614  0.3828 -0.1568 -0.2972
 9479SOL    HW140496   8.129   4.420   4.541  0.5888  1.6251  1.2560
 9479SOL    HW240497   8.006   4.330   4.599  0.3099  0.4666 -1.0627
 9480SOL     OW40498   4.635   4.572   7.631  0.5350  0.4311  0.2064
 9480SOL    HW140499   4.638   4.547   7.728 -0.1665  1.1303  0.4153
 9480SOL    HW240500   4.621   4.671   7.623  1.5318  0.5172 -0.6069
 9481SOL     OW40501   9.664   6.698   5.227  0.3790 -0.2145 -0.0513
 9481SOL    HW140502   9.571   6.680   5.261  0.0991 -0.4964 -0.9694
 9481SOL    HW240503   9.703   6.614   5.190  0.0099  0.4654 -2.0477
 9482SOL     OW40504   9.891   1.793   4.469  0.1099 -0.1038  0.3364
 9482SOL    HW140505   9.842   1.721   4.419  2.3840 -1.4010 -0.0985
 9482SOL    HW240506   9.934   1.753   4.550  1.6114  0.6971 -0.0584
 9483SOL     OW40507   5.470   3.182   9.126  0.5212  0.8778  0.5951
 9483SOL    HW140508   5.476   3.156   9.029  0.1817  1.4053  0.4309
 9483SOL    HW240509   5.417   3.114   9.176  1.9824 -0.2078  0.7114
 9484SOL     OW40510   1.663   7.523   0.865 -0.3911  0.2196 -0.2109
 9484SOL    HW140511   1.594   7.527   0.793 -0.4831  0.8346 -0.0885
 9484SOL    HW240512   1.739   7.583   0.842  1.6365 -2.8563 -1.9174
 9485SOL     OW40513   2.041   0.135   9.129 -0.0532 -0.1182  0.1880
 9485SOL    HW140514   2.051   0.126   9.030 -2.9778  0.2392 -0.1872
 9485SOL    HW240515   2.034   0.232   9.152  0.3657 -0.2149  0.7281
 9486SOL     OW40516   7.364   6.537   1.731 -0.8755  0.3480  0.2302
 9486SOL    HW140517   7.412   6.618   1.696 -2.5438  0.8994 -0.8310
 9486SOL    HW240518   7.323   6.558   1.820 -1.0319  0.5806  0.1048
 9487SOL     OW40519   8.618   5.333   4.236 -0.7246 -0.5033  0.6586
 9487SOL    HW140520   8.679   5.294   4.305  1.9746 -0.3516 -1.5523
 9487SOL    HW240521   8.643   5.428   4.218  0.2313 -1.2549 -2.2617
 9488SOL     OW40522   0.264   5.535   3.046  0.3758  0.1846 -0.1550
 9488SOL    HW140523   0.203   5.529   3.125 -0.8339 -0.1781 -1.1098
 9488SOL    HW240524   0.313   5.449   3.034 -0.6311 -0.3020 -0.7574
 9489SOL     OW40525   7.213   8.747   9.332  0.4389  0.4468 -0.5129
 9489SOL    HW140526   7.231   8.837   9.294  0.7802  0.3402 -0.6084
 9489SOL    HW240527   7.228   8.677   9.262 -0.0417  0.3323 -0.5025
 9490SOL     OW40528   6.501   7.454   6.282  0.1615 -0.0759 -0.1774
 9490SOL    HW140529   6.500   7.537   6.226  0.1328 -0.1819 -0.3331
 9490SOL    HW240530   6.570   7.391   6.247  0.7005  0.1903  0.3889
 9491SOL     OW40531   2.450   8.351   7.178  0.2491 -0.2130  0.6394
 9491SOL    HW140532   2.385   8.397   7.117 -1.4278 -1.5133  1.3959
 9491SOL    HW240533   2.405   8.273   7.222  1.9102 -0.2707  2.3056
 9492SOL     OW40534   2.912   0.605   0.942 -0.3531 -0.1016 -0.0659
 9492SOL    HW140535   2.901   0.705   0.938 -0.8352 -0.1524  0.0348
 9492SOL    HW240536   3.009   0.584   0.957 -0.2530  0.3535 -0.0423
 9493SOL     OW40537   5.479   2.633  10.012  0.3462 -0.1271 -0.1496
 9493SOL    HW140538   5.526   2.686   9.942 -0.4712  1.8328  0.7520
 9493SOL    HW240539   5.546   2.590  10.072  1.0165 -0.0101 -0.8050
 9494SOL     OW40540   5.767   0.172   5.159  0.3190 -0.2045 -0.0237
 9494SOL    HW140541   5.680   0.160   5.207  0.3235 -0.3860 -0.0619
 9494SOL    HW240542   5.757   0.141   5.064  1.2352 -2.9201  0.7312
 9495SOL     OW40543   1.877   2.887   4.945  0.2177 -0.3813 -0.0694
 9495SOL    HW140544   1.977   2.886   4.945  0.2162 -2.1118  0.5091
 9495SOL    HW240545   1.843   2.868   5.038 -0.6560 -0.1609 -0.3339
 9496SOL     OW40546   1.537   4.380   1.668  0.3897 -0.2667  0.0627
 9496SOL    HW140547   1.616   4.377   1.607  0.2605 -1.3297 -0.0578
 9496SOL    HW240548   1.490   4.292   1.666  0.4112 -0.3226  1.7333
 9497SOL     OW40549   1.774   0.923   9.163  0.3121  0.6779 -0.4485
 9497SOL    HW140550   1.849   0.975   9.203  1.3679  0.4229 -2.0894
 9497SOL    HW240551   1.695   0.983   9.151  0.7718  1.3421 -0.1904
 9498SOL     OW40552   1.302   8.775   2.745 -0.3984  0.5875  0.5910
 9498SOL    HW140553   1.216   8.765   2.694  0.0221  1.6513 -0.3687
 9498SOL    HW240554   1.302   8.863   2.793  0.7760  1.2867 -0.6566
 9499SOL     OW40555   4.282   9.130   7.603  0.6243  0.0633  0.0429
 9499SOL    HW140556   4.326   9.050   7.562  0.3104  0.4454 -1.0397
 9499SOL    HW240557   4.214   9.100   7.670  1.2638 -0.5537  0.4248
 9500SOL     OW40558   0.302   3.602   3.818  0.2545 -0.1311 -0.1482
 9500SOL    HW140559   0.324   3.505   3.816  1.6381  0.1870 -1.5965
 9500SOL    HW240560   0.376   3.654   3.775 -0.9060  1.4801 -0.2640
 9501SOL     OW40561   7.171   2.535   3.747  0.0635 -0.3276  0.6596
 9501SOL    HW140562   7.255   2.580   3.777  0.1822  1.0401 -1.6281
 9501SOL    HW240563   7.105   2.604   3.718 -0.9584 -1.5076  0.1211
 9502SOL     OW40564   2.043   4.911   8.565 -0.4039 -0.1281 -0.1361
 9502SOL    HW140565   2.054   4.825   8.613 -1.3846  0.3672  0.9920
 9502SOL    HW240566   2.066   4.987   8.626  0.8278  0.4058 -1.2344
 9503SOL     OW40567   3.812   6.825   1.145 -0.3881  0.3884 -0.3083
 9503SOL    HW140568   3.803   6.896   1.214 -2.4863  1.6161 -1.7587
 9503SOL    HW240569   3.778   6.738   1.181  2.2291  0.0656  1.4866
 9504SOL     OW40570   3.441   4.961   7.964  0.0150  0.1191 -0.4940
 9504SOL    HW140571   3.526   5.001   7.930 -0.6874  0.4016 -1.9805
 9504SOL    HW240572   3.363   5.017   7.935 -0.6416  0.2656  1.4738
 9505SOL     OW40573   2.658   7.715   0.517 -0.2266  0.3130 -0.6594
 9505SOL    HW140574   2.610   7.763   0.590 -0.5952 -0.0864 -0.6368
 9505SOL    HW240575   2.751   7.749   0.510 -0.8599  1.9260 -1.4706
 9506SOL     OW40576   7.704   4.180   7.931 -0.5554 -0.0856 -0.3760
 9506SOL    HW140577   7.610   4.154   7.910 -0.2495 -2.6648  1.1555
 9506SOL    HW240578   7.741   4.234   7.856 -2.1130 -2.0973 -2.6876
 9507SOL     OW40579   5.660   1.091   6.496 -0.5014  0.2591  0.3427
 9507SOL    HW140580   5.702   1.004   6.522  1.3306  0.9374 -0.2384
 9507SOL    HW240581   5.679   1.159   6.567 -0.2984  0.6674 -0.1036
 9508SOL     OW40582   0.633   7.952   6.402 -0.2283  0.3506 -0.1611
 9508SOL    HW140583   0.597   8.002   6.324  1.2186  1.8816  0.1335
 9508SOL    HW240584   0.733   7.950   6.398 -0.1310  0.4343  1.6332
 9509SOL     OW40585   9.274   9.612   3.655  0.1061  0.2917 -0.0980
 9509SOL    HW140586   9.175   9.614   3.651  0.0660  0.2409  0.7936
 9509SOL    HW240587   9.310   9.705   3.649  0.0600  0.2296 -1.5148
 9510SOL     OW40588   2.272   5.906   3.900 -0.3203 -0.0173 -0.6063
 9510SOL    HW140589   2.359   5.928   3.856  0.2318 -0.3226  0.3158
 9510SOL    HW240590   2.215   5.988   3.906  0.5314  0.5162  0.1703
 9511SOL     OW40591   9.089   1.604   1.458 -0.0057 -0.0124 -0.3987
 9511SOL    HW140592   9.056   1.678   1.517  1.9393  0.3833  0.2280
 9511SOL    HW240593   9.088   1.634   1.363  0.6219  0.7867 -0.1606
 9512SOL     OW40594   1.700   7.648   4.873  0.4247 -0.0195 -0.2689
 9512SOL    HW140595   1.756   7.586   4.818 -0.5938 -0.3062 -0.9954
 9512SOL    HW240596   1.628   7.687   4.817 -1.1492 -0.9560  1.0528
 9513SOL     OW40597   9.150   9.756   9.712  0.1147  0.0980  0.1293
 9513SOL    HW140598   9.179   9.693   9.784 -1.7870 -0.9375  0.0372
 9513SOL    HW240599   9.126   9.704   9.630  0.3674  1.1050 -0.5901
 9514SOL     OW40600   7.786   2.029   1.793 -0.6152 -0.0752 -0.5154
 9514SOL    HW140601   7.801   1.964   1.867 -0.0058 -1.9585 -2.2601
 9514SOL    HW240602   7.698   2.010   1.748  0.5649 -1.1228 -2.4343
 9515SOL     OW40603   3.764   8.055   4.934  0.6286 -0.3981 -0.3510
 9515SOL    HW140604   3.857   8.017   4.935  0.3184 -1.2542 -1.8137
 9515SOL    HW240605   3.698   7.979   4.936 -0.0232  0.1690 -0.3557
 9516SOL     OW40606   2.132   7.507   5.608 -0.1409 -0.1820 -0.8666
 9516SOL    HW140607   2.159   7.413   5.586 -0.9861 -0.5276 -0.4346
 9516SOL    HW240608   2.108   7.513   5.704  0.3146  0.5828 -0.7939
 9517SOL     OW40609   6.469   3.621   8.987  0.6036 -0.7619 -0.4595
 9517SOL    HW140610   6.395   3.679   8.951  1.0410 -0.1667 -0.4044
 9517SOL    HW240611   6.549   3.629   8.928  0.2942 -2.1982 -1.0896
 9518SOL     OW40612   2.188   4.427   9.663 -0.1881  0.2217  0.0909
 9518SOL    HW140613   2.283   4.454   9.650  0.1603 -0.4203  1.2665
 9518SOL    HW240614   2.142   4.421   9.574  0.6298  1.3832 -0.4134
 9519SOL     OW40615   2.940   3.280   2.407 -0.9150 -0.2050  0.6651
 9519SOL    HW140616   2.852   3.310   2.443 -1.8649  0.0487 -1.7897
 9519SOL    HW240617   3.005   3.356   2.410 -1.6967  0.5222 -0.3811
 9520SOL     OW40618   3.274   2.143   5.076  0.4034  0.1794 -0.0395
 9520SOL    HW140619   3.182   2.182   5.082  0.8974  1.0243  3.0125
 9520SOL    HW240620   3.304   2.143   4.981 -3.0817 -0.9431 -1.2029
 9521SOL     OW40621   6.360   5.473   0.894 -0.4085  0.6407 -0.1109
 9521SOL    HW140622   6.325   5.424   0.814 -2.0808  1.3579  0.1761
 9521SOL    HW240623   6.380   5.567   0.868 -0.0924  0.6324  0.1027
 9522SOL     OW40624   2.029   4.697   6.837 -0.0745 -0.0384  0.0856
 9522SOL    HW140625   2.122   4.733   6.828  0.3240 -1.1940 -0.5937
 9522SOL    HW240626   2.024   4.638   6.917 -0.7665  1.6345  1.2852
 9523SOL     OW40627   2.618   4.160   5.292  0.3041  0.1841 -1.1845
 9523SOL    HW140628   2.677   4.240   5.283  0.3244  0.2778 -0.1849
 9523SOL    HW240629   2.661   4.082   5.245  0.8198  0.4671 -1.1887
 9524SOL     OW40630   9.911   2.180   6.010 -0.4646  0.1545 -0.4259
 9524SOL    HW140631   9.865   2.095   6.037 -2.2164  1.5153  0.9712
 9524SOL    HW240632   9.940   2.174   5.915  0.2332 -2.3523 -0.0927
 9525SOL     OW40633   9.734   4.475   8.446  0.2821  0.2102  0.6485
 9525SOL    HW140634   9.680   4.515   8.520 -0.3555  1.7056 -0.6047
 9525SOL    HW240635   9.680   4.405   8.400 -0.3478  1.2263 -0.1671
 9526SOL     OW40636   4.325   2.978   0.324 -0.5999  0.3527  0.4367
 9526SOL    HW140637   4.339   2.954   0.420  1.1371 -0.5485 -0.0121
 9526SOL    HW240638   4.407   3.024   0.289 -1.3300  0.9441 -0.5390
 9527SOL     OW40639   7.216   8.459   9.145 -0.1036 -0.0979  0.4932
 9527SOL    HW140640   7.228   8.371   9.101 -0.3600  0.2504 -0.2850
 9527SOL    HW240641   7.205   8.446   9.244 -2.1533 -1.1098  0.1539
 9528SOL     OW40642   9.592   6.749   6.599  0.0404  0.1786  0.0314
 9528SOL    HW140643   9.616   6.841   6.631 -1.0853 -0.1614  1.9049
 9528SOL    HW240644   9.674   6.703   6.565  0.5740  1.9403 -1.1380
 9529SOL     OW40645   1.967   5.879   5.192 -0.2848  1.0692  0.1412
 9529SOL    HW140646   1.991   5.953   5.129 -2.4909  2.1978  0.5744
 9529SOL    HW240647   1.972   5.914   5.286 -0.0209  0.2784  0.4221
 9530SOL     OW40648   2.959   6.495   8.169 -0.2109  0.1502  0.1521
 9530SOL    HW140649   2.906   6.413   8.148 -1.6307  1.3434 -0.9984
 9530SOL    HW240650   2.942   6.565   8.100  2.4723  0.7529  0.0392
 9531SOL     OW40651   5.080   5.333   2.549  0.1876 -0.0026 -0.8327
 9531SOL    HW140652   5.053   5.300   2.458  0.0977  3.1057 -2.0084
 9531SOL    HW240653   5.174   5.365   2.546  0.3584 -0.3760  0.3303
 9532SOL     OW40654   8.491   8.035   4.423  0.2219  0.0720 -0.5341
 9532SOL    HW140655   8.500   7.962   4.491 -1.3411  1.5218  1.2780
 9532SOL    HW240656   8.573   8.093   4.425 -0.5874  1.1979  1.4742
 9533SOL     OW40657   9.431   3.943   4.709 -0.6687 -0.0566 -0.3886
 9533SOL    HW140658   9.462   3.995   4.629 -0.8056 -0.4737 -0.7145
 9533SOL    HW240659   9.412   3.849   4.682 -2.1973  0.1789 -0.1877
 9534SOL     OW40660   4.580   4.229   5.774  0.9369  0.0711  0.3027
 9534SOL    HW140661   4.574   4.311   5.831 -0.2889 -0.2657  0.6798
 9534SOL    HW240662   4.490   4.208   5.737  0.7942 -2.2839  1.8672
 9535SOL     OW40663   5.188   6.882   3.048  0.3538 -0.0056  0.3024
 9535SOL    HW140664   5.182   6.782   3.055  0.5998  0.0602  1.4257
 9535SOL    HW240665   5.247   6.918   3.120  0.8422  0.8952 -0.5341
 9536SOL     OW40666   3.604   0.546   6.852  0.1283 -0.1453  0.0626
 9536SOL    HW140667   3.525   0.590   6.810 -2.9266 -0.2261  5.2954
 9536SOL    HW240668   3.678   0.612   6.862 -2.3866  2.4019  2.7252
 9537SOL     OW40669   5.358   8.608   3.092 -0.1717  0.0006 -0.0088
 9537SOL    HW140670   5.292   8.590   3.165  0.2135  0.8497  0.5653
 9537SOL    HW240671   5.390   8.522   3.053 -1.3650 -0.4228 -0.0612
 9538SOL     OW40672   2.588   8.446   5.465  0.0772 -0.0185  0.3232
 9538SOL    HW140673   2.544   8.522   5.416 -0.4608 -0.0148  0.8141
 9538SOL    HW240674   2.592   8.467   5.562  1.1285 -0.0412  0.2939
 9539SOL     OW40675   9.239   5.009   1.744  0.6690 -0.3695  0.4846
 9539SOL    HW140676   9.236   4.917   1.705  0.2157 -0.4956  0.8192
 9539SOL    HW240677   9.194   5.009   1.833  0.2541  0.2801  0.2755
 9540SOL     OW40678   6.695   8.663   7.740 -0.2086  0.3521  0.0632
 9540SOL    HW140679   6.735   8.596   7.678  0.8141 -0.5512  1.6688
 9540SOL    HW240680   6.679   8.749   7.691  0.2075 -0.4584 -1.5336
 9541SOL     OW40681   9.902   9.062   7.546  0.3942  0.1885  0.2420
 9541SOL    HW140682   9.902   9.124   7.467 -2.7668 -0.8482 -0.6574
 9541SOL    HW240683   9.836   9.096   7.614  0.2311 -1.0105  0.6836
 9542SOL     OW40684   3.079   4.349   7.993 -0.2114 -0.1375 -0.5823
 9542SOL    HW140685   2.979   4.351   7.997 -0.2901  2.7521 -2.2528
 9542SOL    HW240686   3.116   4.391   8.076 -0.4296  0.5395 -0.8260
 9543SOL     OW40687   0.859   9.046   7.571  0.3586 -0.5759  0.0561
 9543SOL    HW140688   0.901   8.959   7.545 -0.8525 -1.5935  1.3885
 9543SOL    HW240689   0.772   9.028   7.617  1.0415  1.2563  2.1375
 9544SOL     OW40690   3.091   8.376   8.787  0.8844 -0.1973 -0.2604
 9544SOL    HW140691   3.015   8.396   8.850  0.2989 -0.3875 -0.9015
 9544SOL    HW240692   3.108   8.455   8.729  0.4637 -0.5389 -0.8492
 9545SOL     OW40693   8.885   8.969   0.719  0.4529 -0.4043 -0.3961
 9545SOL    HW140694   8.844   8.881   0.696  1.6329 -0.8408 -0.8548
 9545SOL    HW240695   8.909   9.018   0.635  0.2384  0.1457 -0.1376
 9546SOL     OW40696   4.749   1.904   1.621 -0.2926 -0.0753  0.7360
 9546SOL    HW140697   4.739   1.918   1.719  0.6891 -0.7412  0.9441
 9546SOL    HW240698   4.766   1.992   1.576 -0.7412  0.2277  1.1660
 9547SOL     OW40699   7.525   1.415   9.992 -0.2156  0.4127 -0.2070
 9547SOL    HW140700   7.465   1.495   9.989 -0.1008  0.4623 -1.4963
 9547SOL    HW240701   7.538   1.387  10.087 -1.3144  1.1236  0.1660
 9548SOL     OW40702   6.823   3.185   8.645 -0.0316  0.5968 -0.5361
 9548SOL    HW140703   6.812   3.242   8.726  1.0837 -0.5686  0.4532
 9548SOL    HW240704   6.821   3.088   8.672 -1.2076  0.1632 -2.0974
 9549SOL     OW40705   4.049   3.453   1.883 -0.0485 -0.0078 -0.1334
 9549SOL    HW140706   4.108   3.533   1.876 -0.0352 -0.0817 -0.8182
 9549SOL    HW240707   4.042   3.408   1.794 -0.9404 -0.1393  0.0016
 9550SOL     OW40708   8.574   9.277   6.088  0.3307 -0.5318  0.2092
 9550SOL    HW140709   8.664   9.302   6.052  0.1918 -0.8353 -0.3681
 9550SOL    HW240710   8.584   9.236   6.178  0.4913  2.3626  1.5740
 9551SOL     OW40711   9.274   1.533   0.458 -0.0927  0.2002  0.0992
 9551SOL    HW140712   9.198   1.511   0.397  0.0809  2.2017 -0.8701
 9551SOL    HW240713   9.245   1.528   0.553 -1.5269  1.3226 -0.2782
 9552SOL     OW40714   2.706   9.984   5.235  0.9167 -0.5619  0.0514
 9552SOL    HW140715   2.662  10.066   5.199  0.4186 -0.0245  1.8525
 9552SOL    HW240716   2.716   9.917   5.161  1.0110  0.9640 -1.3580
 9553SOL     OW40717   9.530   7.896   2.134  0.1089  0.4361  0.0063
 9553SOL    HW140718   9.629   7.908   2.124  0.3898 -1.2054  0.6678
 9553SOL    HW240719   9.503   7.924   2.226  0.3519 -1.3523  0.6449
 9554SOL     OW40720   8.005   0.467   3.271  0.0734  0.1244  0.0286
 9554SOL    HW140721   8.050   0.472   3.182  0.2104 -2.5784 -0.0950
 9554SOL    HW240722   8.069   0.431   3.339 -0.5527  0.5239  0.8440
 9555SOL     OW40723   0.654   2.175   5.503  0.4055 -0.0691  0.5198
 9555SOL    HW140724   0.605   2.157   5.589  0.3774  0.8141  0.6924
 9555SOL    HW240725   0.594   2.155   5.426  0.1345 -0.0439  0.7205
 9556SOL     OW40726   3.729   0.944   0.568 -0.2177 -0.0686 -0.1371
 9556SOL    HW140727   3.714   0.996   0.484  0.5993 -0.2376 -0.3981
 9556SOL    HW240728   3.805   0.880   0.554  2.4364  2.5350  1.9297
 9557SOL     OW40729   3.747   3.486   0.763  0.1533 -0.2031 -0.1594
 9557SOL    HW140730   3.729   3.391   0.788  2.3076 -0.5212  0.2004
 9557SOL    HW240731   3.823   3.521   0.816 -0.6309  1.7537 -0.2865
 9558SOL     OW40732   4.249   3.195   3.234  0.0924  0.3813  0.0666
 9558SOL    HW140733   4.200   3.166   3.152 -1.6058  1.9269  0.4964
 9558SOL    HW240734   4.292   3.116   3.277 -2.5657 -1.1435  0.0340
 9559SOL     OW40735   1.803   0.841   0.537 -0.0948  0.3375 -0.1684
 9559SOL    HW140736   1.871   0.802   0.599 -0.2276 -0.0635 -0.2772
 9559SOL    HW240737   1.792   0.782   0.457 -2.2427 -0.8390  0.9280
 9560SOL     OW40738   2.960   5.680   5.182 -0.4420  0.0741  0.4909
 9560SOL    HW140739   2.882   5.740   5.162  0.4745  0.7099 -1.2306
 9560SOL    HW240740   3.024   5.682   5.106  0.0953 -2.3600  0.8540
 9561SOL     OW40741   1.215   6.803   8.642 -0.2390 -0.4622  0.8895
 9561SOL    HW140742   1.151   6.872   8.677  0.2713  0.5602 -0.1520
 9561SOL    HW240743   1.164   6.738   8.585 -0.2075  1.0624 -0.9584
 9562SOL     OW40744   8.241   4.649   5.329  0.2895  0.2542  0.3899
 9562SOL    HW140745   8.285   4.738   5.316  0.5815  0.1467  0.6200
 9562SOL    HW240746   8.265   4.588   5.254 -2.0767  1.2070 -1.1867
 9563SOL     OW40747   2.168   1.455   7.182 -0.1228 -0.2346  0.0356
 9563SOL    HW140748   2.097   1.385   7.195 -1.7648  0.8016 -2.7303
 9563SOL    HW240749   2.141   1.539   7.230 -0.6440  0.0629 -0.7657
 9564SOL     OW40750   7.481   3.487   2.940 -0.0901  0.1448 -0.1679
 9564SOL    HW140751   7.382   3.501   2.932  0.1041  0.5958 -2.0798
 9564SOL    HW240752   7.521   3.484   2.848  1.6044 -0.5278  0.5844
 9565SOL     OW40753   0.601   6.929   0.607  0.2052 -0.3548  0.3266
 9565SOL    HW140754   0.644   6.866   0.671 -0.0910 -0.7299  0.1602
 9565SOL    HW240755   0.559   6.877   0.532  0.2948  0.0622 -0.0139
 9566SOL     OW40756   7.815   3.385   6.804  0.0631 -0.1641  0.2843
 9566SOL    HW140757   7.860   3.382   6.893  1.6004  1.3054 -0.4097
 9566SOL    HW240758   7.797   3.481   6.779 -0.6159 -0.5804 -0.8465
 9567SOL     OW40759   5.784   1.208   9.641 -0.0721  0.1606 -0.2103
 9567SOL    HW140760   5.797   1.109   9.633 -1.1383 -0.1393  1.5410
 9567SOL    HW240761   5.828   1.241   9.724  0.9101  1.2968 -1.1607
 9568SOL     OW40762   8.267   0.889   6.813 -0.1549 -0.4606 -0.6767
 9568SOL    HW140763   8.363   0.879   6.838 -0.8208 -1.1064  1.8398
 9568SOL    HW240764   8.249   0.982   6.782  1.6233 -0.8166 -2.8617
 9569SOL     OW40765   8.582   3.967   3.724 -0.4875  0.4593  0.2230
 9569SOL    HW140766   8.558   3.998   3.816 -0.4342  0.1564  0.3363
 9569SOL    HW240767   8.612   3.872   3.727  0.5690  0.7777  0.0560
 9570SOL     OW40768   2.781   4.509   3.025  0.0011  0.1848  0.0370
 9570SOL    HW140769   2.774   4.483   3.121 -0.1480  1.1101  0.2788
 9570SOL    HW240770   2.816   4.602   3.018 -1.5083  0.7062 -0.7507
 9571SOL     OW40771   8.627   8.229   7.083  0.1328  0.0316  0.3795
 9571SOL    HW140772   8.590   8.319   7.108 -0.2236  0.0834 -0.3304
 9571SOL    HW240773   8.727   8.233   7.086  0.2413  1.4957 -3.0828
 9572SOL     OW40774   8.892   4.221   2.943 -0.1905  0.2497  0.0178
 9572SOL    HW140775   8.796   4.239   2.965 -0.0281 -0.6568  1.5134
 9572SOL    HW240776   8.899   4.135   2.892  0.1600 -1.8220  3.3903
 9573SOL     OW40777   6.112   0.710   3.109  0.1957  0.4208 -0.6815
 9573SOL    HW140778   6.165   0.767   3.046  1.3448  0.2366  0.1048
 9573SOL    HW240779   6.081   0.766   3.185 -1.0511  0.6053 -1.3176
 9574SOL     OW40780   8.130   9.170   1.119  0.0561  0.5431 -0.1287
 9574SOL    HW140781   8.227   9.193   1.112 -0.0968  0.6769 -1.9572
 9574SOL    HW240782   8.075   9.250   1.092 -0.5292 -0.1055 -0.8848
 9575SOL     OW40783   3.285   7.985   4.613 -0.2234  0.2227 -0.2169
 9575SOL    HW140784   3.322   7.929   4.539  0.5415  1.1908 -0.5851
 9575SOL    HW240785   3.353   8.053   4.641 -1.4874  1.6336 -0.4861
 9576SOL     OW40786   7.321   9.981   7.783  0.3988  0.2340  0.1285
 9576SOL    HW140787   7.333  10.062   7.725  0.0705  0.7304  0.7525
 9576SOL    HW240788   7.230   9.983   7.824  0.8640  0.2081  1.1626
 9577SOL     OW40789   8.397   2.456   0.731  0.1525 -0.1292  0.7252
 9577SOL    HW140790   8.472   2.422   0.788  0.2053 -0.2824  0.5643
 9577SOL    HW240791   8.411   2.426   0.637 -0.4497 -0.6999  0.8180
 9578SOL     OW40792   7.471   2.823   5.680  0.3375 -0.4434 -0.2959
 9578SOL    HW140793   7.505   2.874   5.760 -0.5202  0.9711 -0.8001
 9578SOL    HW240794   7.373   2.804   5.693  0.0194  0.4372 -1.3190
 9579SOL     OW40795   1.169   4.793   6.447  0.5137  0.3155  1.2697
 9579SOL    HW140796   1.256   4.839   6.427  0.5686  0.0493  0.8820
 9579SOL    HW240797   1.183   4.694   6.447  0.0787  0.2505  0.5529
 9580SOL     OW40798   6.656   1.969   9.406  0.4514  0.4800 -0.2181
 9580SOL    HW140799   6.697   1.895   9.352  0.8249 -0.2812  1.0888
 9580SOL    HW240800   6.722   2.044   9.415  1.9815 -1.0982  2.6154
 9581SOL     OW40801   7.665   7.187   3.235  0.5244  0.3694  0.2603
 9581SOL    HW140802   7.641   7.263   3.175 -1.1080 -0.4348 -0.1300
 9581SOL    HW240803   7.642   7.211   3.329 -0.0457  0.3283  0.1296
 9582SOL     OW40804   0.133   8.772   5.219 -0.3104  0.1960 -0.2562
 9582SOL    HW140805   0.155   8.786   5.123 -1.1191  1.6963 -0.2369
 9582SOL    HW240806   0.216   8.746   5.269  0.5266  1.4064 -0.9909
 9583SOL     OW40807   8.088   2.618   3.856  0.1157 -0.0932 -0.2476
 9583SOL    HW140808   8.023   2.556   3.811 -1.1192  1.8557 -1.2197
 9583SOL    HW240809   8.154   2.651   3.789  0.3301  0.2164  0.1158
 9584SOL     OW40810   9.480   5.171   2.699 -0.2515 -0.3577 -1.1723
 9584SOL    HW140811   9.536   5.155   2.780 -0.3822  0.6049 -0.8782
 9584SOL    HW240812   9.395   5.119   2.705 -1.1049  1.1682  0.2087
 9585SOL     OW40813   0.034   9.431   5.220  0.0008  0.3803 -0.4462
 9585SOL    HW140814  -0.053   9.383   5.205  0.0273 -0.0468  0.6816
 9585SOL    HW240815   0.107   9.363   5.235 -0.2713  0.7188  2.8882
 9586SOL     OW40816   3.804   6.197   1.655 -0.2752  0.2233  0.4703
 9586SOL    HW140817   3.770   6.139   1.729 -0.6727  1.2143  1.0780
 9586SOL    HW240818   3.728   6.243   1.611  0.0692  0.5884  0.2521
 9587SOL     OW40819   9.597   0.588   1.936  0.2609 -0.4060 -0.1003
 9587SOL    HW140820   9.694   0.600   1.957 -0.1339 -1.2359  2.5282
 9587SOL    HW240821   9.559   0.519   1.999 -2.1306  0.2749 -0.7686
 9588SOL     OW40822   1.790   4.918   3.830 -0.0470  0.3401  0.3567
 9588SOL    HW140823   1.842   4.941   3.912  0.3205  0.9100 -0.0272
 9588SOL    HW240824   1.735   4.836   3.847  2.0483 -1.1153  0.3114
 9589SOL     OW40825   3.743   8.419   2.457 -0.8239  0.2062  0.1421
 9589SOL    HW140826   3.718   8.327   2.426  0.0306 -0.1756  0.5523
 9589SOL    HW240827   3.836   8.417   2.494 -0.9358  1.1651  0.4855
 9590SOL     OW40828   0.585   2.651   6.367 -0.6388 -0.0140  0.2417
 9590SOL    HW140829   0.656   2.715   6.336 -0.7312 -0.0433 -0.0319
 9590SOL    HW240830   0.625   2.583   6.428 -0.5729  0.4147  0.6771
 9591SOL     OW40831   7.556   5.636   8.282  0.2688 -0.1145 -0.2366
 9591SOL    HW140832   7.491   5.683   8.342  0.4344  0.0607 -0.1915
 9591SOL    HW240833   7.647   5.638   8.324  0.4334  0.2193 -0.5997
 9592SOL     OW40834   0.265   5.407   2.747  0.2059  1.0220 -0.5610
 9592SOL    HW140835   0.323   5.333   2.713 -0.4625  0.1601  0.1456
 9592SOL    HW240836   0.313   5.454   2.822  0.3878  0.9179 -0.6110
 9593SOL     OW40837   4.772   8.497   5.084  0.0193  0.2837 -0.0225
 9593SOL    HW140838   4.694   8.559   5.077  0.1736  0.2733 -2.1137
 9593SOL    HW240839   4.741   8.403   5.068  0.4345  0.2688 -0.7596
 9594SOL     OW40840   4.026   1.524   2.485 -0.4404  0.2560 -0.0285
 9594SOL    HW140841   3.986   1.612   2.509 -0.6806  0.3117 -0.6301
 9594SOL    HW240842   4.012   1.506   2.388  1.3086  0.4390 -0.3279
 9595SOL     OW40843   1.790   7.331   4.008 -0.2380 -0.6690 -0.1360
 9595SOL    HW140844   1.838   7.245   4.026 -1.4434 -1.0843  1.2011
 9595SOL    HW240845   1.857   7.404   3.997  0.7665 -1.5630 -0.1111
 9596SOL     OW40846   9.826   0.318   5.871 -0.1225  0.9170  0.5712
 9596SOL    HW140847   9.770   0.268   5.805  0.8465  1.3633 -0.6107
 9596SOL    HW240848   9.907   0.355   5.825  2.5556 -1.9677  2.7603
 9597SOL     OW40849   4.242   5.851   7.895  0.1912  0.0192 -0.1373
 9597SOL    HW140850   4.293   5.923   7.940  0.4013 -0.1555 -0.0946
 9597SOL    HW240851   4.305   5.782   7.860  0.0404  0.2459 -0.8594
 9598SOL     OW40852   8.974   2.133   9.707 -0.0992  0.3396  0.0973
 9598SOL    HW140853   8.962   2.227   9.736 -1.9383 -0.0590  0.6821
 9598SOL    HW240854   8.930   2.071   9.772  1.5534 -0.9718  0.0261
 9599SOL     OW40855   9.102   7.424   9.007 -0.0432 -0.2620 -0.0295
 9599SOL    HW140856   9.041   7.503   9.006 -0.8105 -0.8494 -2.1091
 9599SOL    HW240857   9.088   7.372   9.091 -1.6504  0.2097  0.0015
 9600SOL     OW40858   1.724   2.526   8.472 -0.1787 -0.2822  0.1738
 9600SOL    HW140859   1.823   2.539   8.459 -0.0214 -2.2299 -0.8317
 9600SOL    HW240860   1.675   2.590   8.414  0.4436  2.2207  2.3080
 9601SOL     OW40861   0.523   0.013   5.096 -0.0180  0.4717 -0.1917
 9601SOL    HW140862   0.439   0.007   5.150 -1.2993  0.7271 -2.1338
 9601SOL    HW240863   0.578  -0.069   5.112 -1.8387 -0.9025 -0.8657
 9602SOL     OW40864   7.253   3.770   2.848  0.2773  0.4112 -0.4739
 9602SOL    HW140865   7.347   3.787   2.819  0.5820 -0.7731 -0.2000
 9602SOL    HW240866   7.190   3.815   2.784  1.0240  1.4049 -0.5248
 9603SOL     OW40867   7.886   3.825   1.706  0.2967  0.6102 -0.3356
 9603SOL    HW140868   7.833   3.778   1.777 -1.4409  3.2192  0.1391
 9603SOL    HW240869   7.828   3.841   1.626  0.6984  2.4893 -0.2552
 9604SOL     OW40870   9.954   6.272   0.724  0.1363 -0.2246 -0.0192
 9604SOL    HW140871  10.000   6.359   0.708  2.3641 -1.2783  0.4167
 9604SOL    HW240872   9.969   6.212   0.645 -0.0300 -0.7627  0.3536
 9605SOL     OW40873   9.467   3.403   8.607  0.1468  0.8594 -0.0085
 9605SOL    HW140874   9.560   3.372   8.591 -0.5871 -2.0027  0.8691
 9605SOL    HW240875   9.455   3.426   8.704 -0.3517  0.0353  0.1358
 9606SOL     OW40876   7.300   4.038   1.286  0.5484  0.0975 -0.5965
 9606SOL    HW140877   7.227   4.104   1.269  0.6771  0.4829  0.3243
 9606SOL    HW240878   7.328   3.997   1.200  0.0072  0.7580 -1.0944
 9607SOL     OW40879   4.230   1.976   9.611  0.3596  0.4872  0.3398
 9607SOL    HW140880   4.262   2.068   9.636  2.0529  0.2963 -1.0063
 9607SOL    HW240881   4.303   1.910   9.629  0.6963  0.0041 -2.5874
 9608SOL     OW40882   0.884   3.338   7.538 -0.0870  0.2811  0.0212
 9608SOL    HW140883   0.876   3.260   7.601  1.5412  0.7438  0.8289
 9608SOL    HW240884   0.796   3.352   7.492 -0.7191 -1.3480  0.6681
 9609SOL     OW40885   0.565   8.969   6.736 -0.4912 -0.0872 -0.1456
 9609SOL    HW140886   0.563   8.926   6.826  0.2497  1.4806  0.6315
 9609SOL    HW240887   0.592   9.065   6.745 -1.4840  0.3796 -1.9276
 9610SOL     OW40888   4.236   4.898   6.816 -0.0676  0.1477 -0.1265
 9610SOL    HW140889   4.216   4.972   6.881 -0.1964  0.6042 -0.6808
 9610SOL    HW240890   4.333   4.897   6.795  0.0869 -0.4209  0.5697
 9611SOL     OW40891   3.600   9.024   3.639  0.1348  0.2139  0.0296
 9611SOL    HW140892   3.650   9.101   3.600  0.6204 -0.1690 -0.1235
 9611SOL    HW240893   3.502   9.039   3.629  0.2425  0.4685 -0.6689
 9612SOL     OW40894   2.366   6.463   1.223  0.2229  0.2801  0.0735
 9612SOL    HW140895   2.293   6.425   1.166 -0.3793  1.2502  0.1855
 9612SOL    HW240896   2.438   6.502   1.166 -0.5480  1.5698 -0.0362
 9613SOL     OW40897   0.787   3.055   7.140  0.3161 -0.9324  0.3000
 9613SOL    HW140898   0.824   3.059   7.047 -0.1440  1.2776  0.1988
 9613SOL    HW240899   0.690   3.079   7.139  0.2202 -1.2389  1.3110
 9614SOL     OW40900   7.196   1.822   0.677 -0.0787  0.0684 -0.4086
 9614SOL    HW140901   7.105   1.850   0.645  0.5522  1.4166 -1.0675
 9614SOL    HW240902   7.266   1.874   0.628  1.0874 -1.6659 -0.6098
 9615SOL     OW40903   4.306   9.991   4.940 -0.2748  0.8280  0.2241
 9615SOL    HW140904   4.214  10.024   4.960  0.1612  1.5897  0.9938
 9615SOL    HW240905   4.355  10.057   4.884  0.3032  1.1055  1.0448
 9616SOL     OW40906   1.470   2.033   2.019  0.4018  0.1755  0.2204
 9616SOL    HW140907   1.454   2.123   1.978 -0.7846 -0.6801 -1.2572
 9616SOL    HW240908   1.393   2.008   2.078 -0.0518 -0.5391 -0.6475
 9617SOL     OW40909   3.476   8.280   8.634  0.1873  0.0456  0.6552
 9617SOL    HW140910   3.469   8.182   8.614  2.0381  0.0367 -0.0723
 9617SOL    HW240911   3.565   8.313   8.604 -1.1974  2.4106 -1.0665
 9618SOL     OW40912   3.478   5.441   6.913 -0.1301  0.0487 -0.9914
 9618SOL    HW140913   3.401   5.504   6.913 -0.6473 -0.5655 -0.0234
 9618SOL    HW240914   3.521   5.441   6.823  0.2071  2.1664 -0.8642
 9619SOL     OW40915   1.095   1.773   8.597 -0.0597  0.4801  0.8185
 9619SOL    HW140916   1.053   1.729   8.677  1.4253 -1.8701  0.3547
 9619SOL    HW240917   1.193   1.757   8.598  0.1019  1.2844 -0.9574
 9620SOL     OW40918   0.467   0.685   4.670  0.4657  0.3254 -0.6432
 9620SOL    HW140919   0.496   0.774   4.704 -0.4776 -0.0586  1.2201
 9620SOL    HW240920   0.372   0.691   4.637  0.2809 -0.0613 -0.1886
 9621SOL     OW40921   4.803   7.371   2.997 -0.2611 -0.0776 -0.3146
 9621SOL    HW140922   4.855   7.285   2.994 -0.7185 -0.3604 -0.1664
 9621SOL    HW240923   4.709   7.354   2.967 -1.1017 -0.1699  2.2392
 9622SOL     OW40924   1.967   5.044   1.642  0.1324  0.4584  0.4524
 9622SOL    HW140925   2.020   4.961   1.657  0.7344  0.9065  0.8274
 9622SOL    HW240926   1.996   5.087   1.557 -2.5949 -1.5536 -1.5847
 9623SOL     OW40927   0.292   5.837   8.669 -0.8364  0.1059  0.5319
 9623SOL    HW140928   0.271   5.739   8.673  1.4531 -0.5266 -1.5847
 9623SOL    HW240929   0.253   5.882   8.749  0.2329 -2.9864  2.9152
 9624SOL     OW40930   1.626   7.732   9.370  0.1457  0.0169  0.1125
 9624SOL    HW140931   1.605   7.698   9.278 -1.0744 -0.0839  0.4249
 9624SOL    HW240932   1.549   7.716   9.430  0.9994 -0.0447  1.2061
 9625SOL     OW40933   9.404   3.468   9.209  0.3037  0.1350  0.2861
 9625SOL    HW140934   9.385   3.543   9.145 -0.5331 -0.9808 -0.8001
 9625SOL    HW240935   9.472   3.407   9.169 -1.6407 -1.6243 -0.4053
 9626SOL     OW40936   1.100   7.294   1.651 -0.7036 -0.1616  0.3997
 9626SOL    HW140937   1.041   7.215   1.662  0.1316 -0.6459  1.5197
 9626SOL    HW240938   1.087   7.333   1.560 -0.9530 -1.7152 -0.2479
 9627SOL     OW40939   2.042   8.018   6.793  0.2821  0.3543 -0.3798
 9627SOL    HW140940   1.963   7.988   6.847 -1.7466  1.6945 -2.4640
 9627SOL    HW240941   2.037   7.976   6.702 -0.2118  3.4134 -1.8489
 9628SOL     OW40942   1.441   8.674   0.676  0.1840 -1.0284 -0.0415
 9628SOL    HW140943   1.399   8.692   0.766  0.2961 -0.7890 -0.0374
 9628SOL    HW240944   1.505   8.598   0.684  2.5185  0.9517  0.7751
 9629SOL     OW40945   3.351   0.633   6.792  0.4802  0.0246  0.0056
 9629SOL    HW140946   3.279   0.672   6.734  0.4195 -0.0376  0.0385
 9629SOL    HW240947   3.350   0.533   6.782  1.7140  0.1224 -1.3446
 9630SOL     OW40948   0.918   6.919   4.305  0.1964  0.0765 -0.0641
 9630SOL    HW140949   1.008   6.915   4.350  0.4630  0.4707 -0.5567
 9630SOL    HW240950   0.930   6.945   4.209 -0.5097  0.9873  0.0793
 9631SOL     OW40951   7.853   3.254   1.053 -0.3992 -0.0200 -0.1719
 9631SOL    HW140952   7.796   3.316   0.999 -0.5925 -0.0275  0.0217
 9631SOL    HW240953   7.860   3.288   1.147  2.7148  1.8309 -0.9987
 9632SOL     OW40954   3.373   9.466   7.728 -0.0571  0.0560 -0.1215
 9632SOL    HW140955   3.395   9.399   7.657 -1.7086 -0.3465 -0.2675
 9632SOL    HW240956   3.340   9.550   7.685  0.9841  0.5843  0.1004
 9633SOL     OW40957   4.439   8.173   5.044 -0.4465  0.2174 -0.1488
 9633SOL    HW140958   4.398   8.264   5.043  0.8655  0.8309 -1.7663
 9633SOL    HW240959   4.414   8.125   5.128 -1.2281  2.0365  0.6746
 9634SOL     OW40960   2.149   8.663   8.993  0.1571 -0.2410  0.9426
 9634SOL    HW140961   2.205   8.744   9.008 -0.1793 -0.1562  1.7946
 9634SOL    HW240962   2.076   8.660   9.062 -1.1070 -0.1561 -0.3633
 9635SOL     OW40963   4.628   4.522   7.919  0.0662 -0.1538  0.2333
 9635SOL    HW140964   4.691   4.569   7.981 -0.6120  1.1422 -0.0593
 9635SOL    HW240965   4.629   4.424   7.940  0.0026  0.2339  2.1766
 9636SOL     OW40966   0.150   3.959   2.470  0.4277 -0.3570 -0.9555
 9636SOL    HW140967   0.160   3.860   2.472 -0.0384 -0.3907  1.4533
 9636SOL    HW240968   0.238   4.001   2.450  1.5987 -1.1531  2.2975
 9637SOL     OW40969   8.135   9.937   7.803 -0.4280  0.0017  0.1075
 9637SOL    HW140970   8.112   9.851   7.848  0.9717 -0.7474 -0.5596
 9637SOL    HW240971   8.096   9.938   7.711 -0.7369  0.2330  0.2409
 9638SOL     OW40972   6.674   1.929   4.070  0.7566 -0.2073 -0.6380
 9638SOL    HW140973   6.741   1.863   4.105 -0.0577 -0.9986 -0.5315
 9638SOL    HW240974   6.667   2.006   4.132  1.0911 -0.4410 -0.3095
 9639SOL     OW40975   7.378   3.940   9.190 -0.2483  0.6305 -0.0030
 9639SOL    HW140976   7.414   4.005   9.122 -0.2072 -2.1928 -2.8461
 9639SOL    HW240977   7.439   3.937   9.269  1.3539  1.9096 -1.1572
 9640SOL     OW40978   2.608   9.883   4.067  0.1427 -0.9005  0.0415
 9640SOL    HW140979   2.534   9.866   4.132  0.0736 -0.2314  0.1454
 9640SOL    HW240980   2.622   9.982   4.059  0.3588 -0.9969 -0.7300
 9641SOL     OW40981   0.847   8.624   4.504 -0.0506 -0.2563  0.1094
 9641SOL    HW140982   0.884   8.604   4.413 -0.7213 -2.0924  0.2088
 9641SOL    HW240983   0.921   8.653   4.565  0.6163 -0.3240 -0.6581
 9642SOL     OW40984   2.834   6.877   3.489 -0.2971 -1.2219 -0.8359
 9642SOL    HW140985   2.799   6.791   3.525 -2.5915  0.4567  1.0165
 9642SOL    HW240986   2.917   6.902   3.538 -0.7855 -1.3206  0.0428
 9643SOL     OW40987   0.111   8.630   1.648  0.3029  0.7395  0.2590
 9643SOL    HW140988   0.098   8.609   1.551  0.8732  0.1946  0.2969
 9643SOL    HW240989   0.059   8.712   1.672 -1.6363 -0.3841  0.0099
 9644SOL     OW40990   5.658   9.793   3.700  0.1422 -0.4516 -0.2031
 9644SOL    HW140991   5.710   9.759   3.779  1.3896 -1.2278 -1.3395
 9644SOL    HW240992   5.721   9.812   3.624 -0.8430  1.7908 -0.5244
 9645SOL     OW40993   4.877   5.612   8.423  0.4306 -0.1582 -0.4118
 9645SOL    HW140994   4.802   5.595   8.359 -0.1036 -1.5907  0.5719
 9645SOL    HW240995   4.964   5.588   8.381 -0.1739 -4.1228  0.4322
 9646SOL     OW40996   2.943   9.677   2.268 -0.4339  0.4117 -0.7892
 9646SOL    HW140997   3.012   9.621   2.315 -1.3148  1.0871  1.3747
 9646SOL    HW240998   2.980   9.769   2.254 -1.9651  1.7708  3.3396
 9647SOL     OW40999   7.477   6.724   6.842  0.1988 -0.5312 -0.2858
 9647SOL    HW141000   7.459   6.764   6.752  0.8961 -2.7583 -1.4480
 9647SOL    HW241001   7.415   6.647   6.857 -1.3435  1.1085  2.0570
 9648SOL     OW41002   9.394   3.132   4.770 -0.5341  0.2317  0.6111
 9648SOL    HW141003   9.399   3.177   4.681  0.6836  0.7601  0.9364
 9648SOL    HW241004   9.364   3.037   4.758 -0.1568  0.2318 -0.3867
 9649SOL     OW41005   8.435   2.637   7.731  0.1319 -0.1627  0.2781
 9649SOL    HW141006   8.476   2.553   7.766  2.6797  0.6788 -0.5529
 9649SOL    HW241007   8.389   2.618   7.644  1.3720 -0.5735 -0.3024
 9650SOL     OW41008   4.413   5.969   1.819 -0.2976  0.3328  0.1529
 9650SOL    HW141009   4.493   5.960   1.759  0.1003  2.5847  0.2919
 9650SOL    HW241010   4.429   5.918   1.904 -0.4725 -2.0843 -1.2140
 9651SOL     OW41011   4.837   7.527   5.555 -0.0035  0.5127  0.6257
 9651SOL    HW141012   4.900   7.483   5.490  1.1283  3.9847 -0.7512
 9651SOL    HW241013   4.890   7.582   5.620 -1.4706  1.0403  1.3922
 9652SOL     OW41014   7.506   3.205   3.664  0.2624 -0.2603 -0.7261
 9652SOL    HW141015   7.470   3.277   3.723 -1.3601 -1.3769 -0.3070
 9652SOL    HW241016   7.570   3.244   3.598  2.7133  0.8962  2.2487
 9653SOL     OW41017   6.418   5.719   8.592 -0.1588  0.5392 -0.5755
 9653SOL    HW141018   6.402   5.652   8.519 -1.1734 -1.1768  1.1574
 9653SOL    HW241019   6.494   5.687   8.650 -0.1623  1.2518 -0.1761
 9654SOL     OW41020   8.927   6.642   4.269  0.8371  0.1765 -0.3858
 9654SOL    HW141021   8.895   6.723   4.319  2.0269  0.4086  0.0119
 9654SOL    HW241022   8.921   6.660   4.170 -0.8732 -0.0369 -0.3437
 9655SOL     OW41023   6.374   2.923   1.162  0.3585  0.1594  0.6422
 9655SOL    HW141024   6.389   2.970   1.249  0.6451  0.7185  0.2913
 9655SOL    HW241025   6.303   2.970   1.110  0.3176 -0.0683  0.4914
 9656SOL     OW41026   1.748   3.474   6.374  0.6711 -0.1918 -0.3591
 9656SOL    HW141027   1.768   3.412   6.450 -0.4131 -1.4391 -1.0706
 9656SOL    HW241028   1.650   3.495   6.372  0.5150 -0.9802 -2.0070
 9657SOL     OW41029   3.081   5.691   5.768 -0.4683  0.2381  0.3156
 9657SOL    HW141030   3.069   5.727   5.676  0.5556 -0.2633 -0.0245
 9657SOL    HW241031   3.028   5.746   5.833 -1.8822  0.0658 -0.6784
 9658SOL     OW41032   0.979   2.048   2.457 -0.1878 -0.4164  0.4924
 9658SOL    HW141033   1.005   1.966   2.406  2.3820  0.6806 -0.0618
 9658SOL    HW241034   0.975   2.027   2.555  3.1513 -0.6300  0.6299
 9659SOL     OW41035   3.224   8.642   2.279 -0.4808 -0.1426 -0.1440
 9659SOL    HW141036   3.161   8.720   2.276  0.2208  0.3964 -1.5639
 9659SOL    HW241037   3.315   8.675   2.306 -1.1602 -1.1894  3.7265
 9660SOL     OW41038   1.187   4.350   8.257 -0.0475 -0.0398  0.3069
 9660SOL    HW141039   1.142   4.289   8.322  0.2255 -1.0778 -0.4718
 9660SOL    HW241040   1.285   4.333   8.257 -0.0042  0.2021 -0.1206
 9661SOL     OW41041   9.424   6.047   9.278  0.1946 -0.0533  0.8654
 9661SOL    HW141042   9.331   6.063   9.244  0.2068 -0.0401  0.8400
 9661SOL    HW241043   9.490   6.095   9.220  0.2722 -0.6671  0.4396
 9662SOL     OW41044   9.783   5.186   8.428 -0.3281  0.0541  0.6094
 9662SOL    HW141045   9.874   5.157   8.457 -0.6422 -0.0931  1.4609
 9662SOL    HW241046   9.729   5.212   8.508 -0.9873  0.2849  0.0972
 9663SOL     OW41047   0.228   6.505   4.383 -0.3277 -0.6473  0.1404
 9663SOL    HW141048   0.279   6.589   4.402 -1.4199 -0.2456  1.3566
 9663SOL    HW241049   0.181   6.515   4.295 -0.1432 -0.1230  0.0973
 9664SOL     OW41050   6.085   7.281   5.438  0.5049 -0.1385 -0.0662
 9664SOL    HW141051   6.085   7.236   5.528 -3.1487 -1.3445 -0.5638
 9664SOL    HW241052   6.098   7.379   5.450  0.1582 -0.2961  1.7964
 9665SOL     OW41053   0.113   8.399   0.089  0.4614 -0.2166  0.1247
 9665SOL    HW141054   0.193   8.406   0.030  0.1439 -0.9073 -0.3991
 9665SOL    HW241055   0.138   8.350   0.173  0.6940 -0.0350  0.1621
 9666SOL     OW41056   2.729   4.286   9.832  0.2238 -0.0020  0.0006
 9666SOL    HW141057   2.634   4.265   9.810  0.1026  0.3601  0.1692
 9666SOL    HW241058   2.734   4.325   9.924  0.5850 -0.4032  0.1517
 9667SOL     OW41059   9.054   7.940   3.563  0.5166  0.1336  0.0967
 9667SOL    HW141060   9.056   8.021   3.621  1.3072 -0.6004  1.1111
 9667SOL    HW241061   9.146   7.903   3.554  0.5782  0.7900 -2.4313
 9668SOL     OW41062   6.073   7.101   5.232  0.3404 -0.1770  0.6983
 9668SOL    HW141063   6.080   7.173   5.301  1.5815  0.3155  0.0768
 9668SOL    HW241064   6.135   7.026   5.256  2.5384  1.0219 -1.0770
 9669SOL     OW41065   3.236   3.093   1.299  0.4938  0.4360 -0.3079
 9669SOL    HW141066   3.171   3.019   1.317  1.1530 -0.4845 -1.6228
 9669SOL    HW241067   3.311   3.088   1.365  0.1390  0.3982  0.0929
 9670SOL     OW41068   7.666   8.332   3.086 -0.3832 -0.1429 -0.2048
 9670SOL    HW141069   7.650   8.251   3.029  0.6772 -0.6281  0.1769
 9670SOL    HW241070   7.580   8.383   3.095 -0.8109 -0.6355 -1.3409
 9671SOL     OW41071   8.277   5.134   1.326 -0.7321  0.0412 -0.3334
 9671SOL    HW141072   8.338   5.137   1.247 -2.1928  0.6146 -1.4814
 9671SOL    HW241073   8.299   5.207   1.390  0.8301 -0.7761  0.0837
 9672SOL     OW41074   0.973   3.999   2.938 -0.2664 -0.2050  0.3848
 9672SOL    HW141075   1.002   4.080   2.988 -0.1090 -1.3770  2.2352
 9672SOL    HW241076   1.003   3.917   2.987 -0.7161 -1.3871 -1.2742
 9673SOL     OW41077   0.525   2.266   2.953 -0.4241  0.1623 -0.0593
 9673SOL    HW141078   0.432   2.252   2.986 -0.5230 -0.1838 -0.4845
 9673SOL    HW241079   0.527   2.345   2.892 -0.3227  0.5386  0.4252
 9674SOL     OW41080   0.883   3.268   6.483  0.1330  0.1438 -0.3294
 9674SOL    HW141081   0.816   3.337   6.508 -0.5044  0.3688 -2.5452
 9674SOL    HW241082   0.904   3.275   6.385  0.4986 -2.4077 -0.4750
 9675SOL     OW41083   1.798   3.367   2.035  0.3274  0.1236  0.0173
 9675SOL    HW141084   1.841   3.453   2.062 -1.8872  1.0636  0.6963
 9675SOL    HW241085   1.753   3.326   2.115 -0.8230 -0.3379 -0.8556
 9676SOL     OW41086   3.524   5.139   3.096 -0.8315 -0.6859 -0.0798
 9676SOL    HW141087   3.598   5.072   3.102 -0.5212 -0.1985  2.0448
 9676SOL    HW241088   3.471   5.137   3.181 -2.1361  0.2457 -0.8644
 9677SOL     OW41089   7.049   0.956   6.972 -0.2581  0.6567  0.5774
 9677SOL    HW141090   7.022   1.041   6.927 -1.6403 -0.4896 -0.8261
 9677SOL    HW241091   7.036   0.965   7.071 -0.0583  2.1840  0.4764
 9678SOL     OW41092   7.269   7.136   3.920 -1.2779  0.0690 -0.5730
 9678SOL    HW141093   7.240   7.124   4.014  0.5931 -0.5302 -0.0431
 9678SOL    HW241094   7.344   7.073   3.900 -0.8685  1.0017 -2.0993
 9679SOL     OW41095   5.758   0.774   2.679  0.5923 -0.1455 -0.6166
 9679SOL    HW141096   5.775   0.728   2.592  3.3539 -1.8430  0.7034
 9679SOL    HW241097   5.682   0.729   2.726  0.3959 -0.5217 -1.2914
 9680SOL     OW41098   1.366   4.250   4.444 -0.7688  0.0785 -0.2865
 9680SOL    HW141099   1.280   4.208   4.414  0.1810 -2.0993 -0.0557
 9680SOL    HW241100   1.416   4.285   4.364 -1.6356  0.9075 -0.4678
 9681SOL     OW41101   8.547   0.173   1.450  0.5845 -0.2545 -0.0050
 9681SOL    HW141102   8.611   0.246   1.424 -1.8039  1.0687 -2.4310
 9681SOL    HW241103   8.533   0.111   1.374 -0.8724 -0.6157  0.5221
 9682SOL     OW41104   9.072   0.475   4.445 -0.1068  0.5552 -0.1844
 9682SOL    HW141105   9.125   0.391   4.454  1.2326  0.9490 -3.6281
 9682SOL    HW241106   9.091   0.535   4.523 -0.0349 -1.7062  1.6156
 9683SOL     OW41107   0.065   3.929   9.325  0.0647 -0.3968  0.0563
 9683SOL    HW141108   0.064   3.829   9.321 -4.6577 -0.4582 -0.4285
 9683SOL    HW241109   0.050   3.966   9.234 -1.2204  0.6639  0.6911
 9684SOL     OW41110   4.774   4.294   5.617  0.3027 -0.2053 -0.4193
 9684SOL    HW141111   4.714   4.241   5.678  0.4761  0.7116  0.5702
 9684SOL    HW241112   4.728   4.379   5.592  2.4791  2.0839  3.0560
 9685SOL     OW41113   3.731   6.149   0.902 -0.1292 -0.0414  0.0681
 9685SOL    HW141114   3.811   6.124   0.849 -0.2908  0.3057 -0.3398
 9685SOL    HW241115   3.758   6.169   0.996  0.2912  0.3132 -0.1307
 9686SOL     OW41116   9.535   9.954   5.731 -0.2680  1.0130 -0.1940
 9686SOL    HW141117   9.459   9.944   5.666 -0.0758  2.7120 -0.7049
 9686SOL    HW241118   9.616   9.985   5.682  0.7764 -0.7981  0.3601
 9687SOL     OW41119   5.261   9.783   6.594 -0.5273 -0.3322  0.1571
 9687SOL    HW141120   5.228   9.816   6.506  1.1285  1.3091  0.1222
 9687SOL    HW241121   5.340   9.724   6.580 -0.9551 -0.9981  0.4905
 9688SOL     OW41122   9.084   0.553   2.618  0.1165 -0.7637 -0.2153
 9688SOL    HW141123   8.988   0.555   2.590 -0.3630  1.4946  1.4613
 9688SOL    HW241124   9.142   0.548   2.536 -1.3514  1.6829 -1.4780
 9689SOL     OW41125   0.780   3.992   7.252 -0.0670  0.3039 -0.4553
 9689SOL    HW141126   0.715   4.008   7.326 -2.2861  0.4371 -2.3746
 9689SOL    HW241127   0.829   4.077   7.230 -0.0390  0.4712  0.2685
 9690SOL     OW41128   2.552   5.922   8.785 -0.5327 -0.2903 -0.0431
 9690SOL    HW141129   2.645   5.913   8.820 -0.6735  0.4891  0.5351
 9690SOL    HW241130   2.503   5.991   8.837 -0.7845  0.8052 -1.6748
 9691SOL     OW41131   3.938   6.520   8.169 -0.1660 -0.1951 -0.2056
 9691SOL    HW141132   4.015   6.575   8.136 -0.7734  1.1181  0.5526
 9691SOL    HW241133   3.947   6.427   8.133  1.9317 -0.1382  0.1063
 9692SOL     OW41134   6.892   1.090   1.747  1.0448  0.5454  0.1066
 9692SOL    HW141135   6.800   1.086   1.787  0.7004 -1.0060 -0.7923
 9692SOL    HW241136   6.948   1.017   1.787  1.2573  0.1605 -0.8974
 9693SOL     OW41137   7.326   6.703   8.280 -0.4023 -0.0873  0.4245
 9693SOL    HW141138   7.315   6.612   8.321 -1.5927 -0.7846 -1.3673
 9693SOL    HW241139   7.385   6.759   8.338  0.3165 -1.9910  1.5777
 9694SOL     OW41140   9.968   9.142   4.309  0.0193  0.2993 -0.3743
 9694SOL    HW141141   9.963   9.043   4.321 -0.6395  0.4383  0.5636
 9694SOL    HW241142  10.064   9.171   4.307  0.1970 -0.1299  1.3662
 9695SOL     OW41143   3.080   5.996   4.826 -0.0824 -0.1846 -0.1406
 9695SOL    HW141144   2.996   5.969   4.778 -0.1193 -0.7255  0.2308
 9695SOL    HW241145   3.131   6.061   4.769  0.3817 -1.6129 -1.3864
 9696SOL     OW41146   0.231   9.829   6.072 -0.5236  0.0789  0.5690
 9696SOL    HW141147   0.163   9.874   6.014  1.0964  0.1610 -1.3128
 9696SOL    HW241148   0.196   9.740   6.101 -1.9437  0.6582  0.6983
 9697SOL     OW41149   9.771   0.522   6.310 -0.2063  0.2324  0.4073
 9697SOL    HW141150   9.785   0.491   6.404  1.9404 -0.2955 -0.0636
 9697SOL    HW241151   9.795   0.448   6.247 -0.3175  1.0495 -0.5959
 9698SOL     OW41152   2.615   3.791   8.837  0.1165  0.3315  0.6383
 9698SOL    HW141153   2.602   3.729   8.759  0.7399 -1.1155  1.6456
 9698SOL    HW241154   2.648   3.879   8.804  0.4715 -0.2924 -0.7388
 9699SOL     OW41155   7.021   8.491   7.872  0.0208 -0.1791  0.0438
 9699SOL    HW141156   7.035   8.411   7.814  1.4647 -0.4936  0.7834
 9699SOL    HW241157   7.063   8.571   7.828 -0.5889 -0.0128 -0.2465
 9700SOL     OW41158   7.719   5.845   6.598 -0.1963  0.0688 -0.1939
 9700SOL    HW141159   7.735   5.892   6.685  0.7312 -0.0254 -0.3111
 9700SOL    HW241160   7.678   5.909   6.533  3.2115  1.3914 -1.1032
 9701SOL     OW41161   7.176   3.522   8.707 -0.3293 -0.4660  0.7247
 9701SOL    HW141162   7.214   3.441   8.662 -0.9105  0.0400 -0.7154
 9701SOL    HW241163   7.217   3.533   8.797  2.3923 -0.3503 -0.4836
 9702SOL     OW41164   7.175   0.632   8.708 -0.3437  0.1524  0.1175
 9702SOL    HW141165   7.172   0.670   8.616  0.9395 -1.1785 -0.5082
 9702SOL    HW241166   7.246   0.678   8.762 -0.0283 -0.1142 -0.0656
 9703SOL     OW41167   8.806   0.303   8.649  0.2342 -0.0773 -0.6277
 9703SOL    HW141168   8.829   0.368   8.722  0.6173 -0.4068 -0.4473
 9703SOL    HW241169   8.835   0.341   8.561 -0.1220  0.2717 -0.5926
 9704SOL     OW41170   5.256   8.792   5.916  0.0158 -0.4579 -0.2703
 9704SOL    HW141171   5.211   8.785   5.827 -2.7239 -1.1590  1.1106
 9704SOL    HW241172   5.216   8.868   5.968 -0.3765 -1.7930  1.4149
 9705SOL     OW41173   6.270   7.841   6.759  0.7085  0.4799 -0.2657
 9705SOL    HW141174   6.217   7.776   6.704  1.0744 -0.2595  0.2391
 9705SOL    HW241175   6.208   7.899   6.811  0.3941 -0.5432  0.5150
 9706SOL     OW41176   4.315   9.048   5.077  0.2507  0.0626  0.3096
 9706SOL    HW141177   4.313   9.031   5.175 -1.4388  0.1955  0.3047
 9706SOL    HW241178   4.334   8.963   5.029 -2.0374 -0.6525  0.6090
 9707SOL     OW41179   9.868   7.298   0.093  0.0529 -0.5326 -0.4173
 9707SOL    HW141180   9.957   7.290   0.139  0.3548 -0.9529 -1.0684
 9707SOL    HW241181   9.797   7.315   0.161  0.8034  1.0819 -0.0223
 9708SOL     OW41182   2.246   7.074   1.112  0.1641  0.4234  0.4842
 9708SOL    HW141183   2.234   7.164   1.071 -0.8284 -0.3362 -0.9157
 9708SOL    HW241184   2.164   7.019   1.099  0.5863 -0.5445  1.7249
 9709SOL     OW41185   8.508   8.298   6.110  0.4512  0.6077  0.0022
 9709SOL    HW141186   8.472   8.225   6.168  2.2082 -2.8229 -3.0645
 9709SOL    HW241187   8.451   8.308   6.029  1.9544  0.5467 -1.0735
 9710SOL     OW41188   6.501   2.693   1.209 -0.0335  0.1891  0.2296
 9710SOL    HW141189   6.455   2.608   1.235  0.7886 -1.0594 -2.3016
 9710SOL    HW241190   6.435   2.768   1.208 -1.1830 -0.8090  0.5337
 9711SOL     OW41191   3.658   1.701   7.219  0.3081  0.6586  0.2053
 9711SOL    HW141192   3.590   1.705   7.292  0.9585 -0.1589  0.8647
 9711SOL    HW241193   3.729   1.769   7.236 -0.0952  1.2042 -0.2465
 9712SOL     OW41194   4.338   9.673   3.074 -0.8809 -0.4667 -0.7175
 9712SOL    HW141195   4.410   9.740   3.058 -1.2537 -0.1008 -0.8484
 9712SOL    HW241196   4.348   9.598   3.008 -1.5817  0.3648 -1.7642
 9713SOL     OW41197   0.456   2.481   8.051  0.6692 -0.1247  0.1277
 9713SOL    HW141198   0.522   2.492   8.125 -1.1197 -0.0571  1.7408
 9713SOL    HW241199   0.364   2.493   8.086 -0.2772 -1.1689 -1.9056
 9714SOL     OW41200   2.453   0.028   9.957 -0.1010  0.1254  0.3378
 9714SOL    HW141201   2.412   0.104   9.906 -0.1578  0.3381  0.6989
 9714SOL    HW241202   2.407  -0.057   9.932  0.9574 -0.0186 -1.2023
 9715SOL     OW41203   4.885   7.546   2.443 -0.2690 -0.0617  0.1114
 9715SOL    HW141204   4.918   7.585   2.529  0.6073  0.4511 -0.4559
 9715SOL    HW241205   4.944   7.471   2.415 -0.2221  0.1389 -0.3334
 9716SOL     OW41206   1.221   3.530   6.035 -0.4440 -0.1676  0.4356
 9716SOL    HW141207   1.277   3.612   6.026  0.8418 -1.0578  0.2322
 9716SOL    HW241208   1.160   3.523   5.956  1.5595 -0.9876 -1.0547
 9717SOL     OW41209   7.232   1.190   1.498 -0.0418 -0.1626 -0.0185
 9717SOL    HW141210   7.202   1.107   1.451 -2.6195  0.4308  0.5211
 9717SOL    HW241211   7.295   1.240   1.440  1.2526 -2.2857 -0.5115
 9718SOL     OW41212   8.722   7.471   3.983 -0.4119  0.4756  0.1537
 9718SOL    HW141213   8.795   7.535   4.007 -0.6467  0.5843  0.5885
 9718SOL    HW241214   8.756   7.404   3.917  0.7635 -0.9090  2.1159
 9719SOL     OW41215   2.513   0.687   2.502 -0.9079  0.1643 -0.3145
 9719SOL    HW141216   2.460   0.606   2.475 -1.3951  0.5699 -0.5855
 9719SOL    HW241217   2.544   0.735   2.420  1.4066 -1.0516 -0.1755
 9720SOL     OW41218   0.927   6.113   2.770 -0.0800 -0.1900 -0.2801
 9720SOL    HW141219   0.904   6.196   2.719  0.0559 -0.5753 -0.9715
 9720SOL    HW241220   0.884   6.117   2.860  1.5466  1.5301  0.4532
 9721SOL     OW41221   1.193   8.258   2.334  0.3148  0.2607  0.1055
 9721SOL    HW141222   1.149   8.347   2.336  1.1516  0.6606  2.1501
 9721SOL    HW241223   1.141   8.194   2.392  1.2268  0.1689  0.8337
 9722SOL     OW41224   8.568   1.148   8.263  0.2192  0.9536  0.3006
 9722SOL    HW141225   8.506   1.221   8.234  0.3807  1.3915  1.0446
 9722SOL    HW241226   8.659   1.163   8.223  0.2203  1.0867  0.3549
 9723SOL     OW41227   1.410   6.332   7.555 -0.8405 -0.5518  0.2581
 9723SOL    HW141228   1.487   6.327   7.491  0.2974  2.4500  1.3215
 9723SOL    HW241229   1.346   6.403   7.524 -1.3887 -0.5925  1.2900
 9724SOL     OW41230   2.134   1.890   4.282 -0.1099 -0.1789  0.2087
 9724SOL    HW141231   2.075   1.950   4.227 -1.5173 -2.2649 -0.6202
 9724SOL    HW241232   2.203   1.848   4.223 -0.7312 -1.3277  0.2888
 9725SOL     OW41233   7.599   4.915   3.064 -0.0891 -0.2263  0.3962
 9725SOL    HW141234   7.696   4.924   3.087 -0.6677 -0.5741  3.1313
 9725SOL    HW241235   7.550   4.994   3.100 -1.0101 -0.6299  0.0309
 9726SOL     OW41236   9.472   2.305   1.720  0.2384  0.4990  0.0244
 9726SOL    HW141237   9.513   2.313   1.811 -1.1536 -0.4112  0.7642
 9726SOL    HW241238   9.534   2.342   1.651  2.4093 -1.1133  1.0504
 9727SOL     OW41239   7.732   0.058   6.497  0.0310  0.0719 -0.0107
 9727SOL    HW141240   7.828   0.082   6.509  0.1679  1.1054 -2.7004
 9727SOL    HW241241   7.714  -0.030   6.541  2.3497 -0.4081  0.0622
 9728SOL     OW41242   9.485   0.769   2.943 -0.2602 -0.0564  0.1044
 9728SOL    HW141243   9.434   0.838   2.996  1.7183  0.6943  1.0661
 9728SOL    HW241244   9.577   0.759   2.981 -0.0303 -2.1886 -0.9496
 9729SOL     OW41245   2.486   7.692   9.112  0.9869  0.2030 -0.4590
 9729SOL    HW141246   2.542   7.774   9.102  0.4259  0.7505  0.7141
 9729SOL    HW241247   2.389   7.717   9.102  0.7616 -0.1538  0.6988
 9730SOL     OW41248   8.781   7.286   8.289  0.1803  0.5618  1.0210
 9730SOL    HW141249   8.734   7.205   8.254  1.5100 -0.2859  1.1922
 9730SOL    HW241250   8.773   7.289   8.389  0.6907  0.2892  1.0714
 9731SOL     OW41251   9.620   5.029   9.737  0.3605  0.1761  0.7070
 9731SOL    HW141252   9.679   5.075   9.804  0.3050  3.0053 -1.0916
 9731SOL    HW241253   9.645   5.059   9.645 -1.6622 -1.2050 -0.3266
 9732SOL     OW41254   6.800   1.779   8.744  0.3081  0.4404 -0.2463
 9732SOL    HW141255   6.799   1.736   8.653  1.2588  0.5948 -0.3445
 9732SOL    HW241256   6.712   1.822   8.762 -0.6545 -1.5660 -0.1350
 9733SOL     OW41257   2.077   6.275   4.348  0.1852 -0.5052  0.4045
 9733SOL    HW141258   2.165   6.317   4.327  0.4426 -1.1720  0.1240
 9733SOL    HW241259   2.062   6.276   4.447  0.0487  0.5043  0.3850
 9734SOL     OW41260   0.960   1.494   9.856  0.0037 -0.1202 -0.2547
 9734SOL    HW141261   0.906   1.440   9.920 -0.6908 -0.2017 -0.9029
 9734SOL    HW241262   0.988   1.436   9.779  1.2388 -0.1481  0.1992
 9735SOL     OW41263   7.349   7.963   8.480 -0.5241  0.3503 -0.1308
 9735SOL    HW141264   7.318   8.020   8.404  0.2269 -2.4012 -2.6141
 9735SOL    HW241265   7.418   8.012   8.533  1.2698  1.1981 -3.1337
 9736SOL     OW41266   4.697   1.896   8.277  0.1070 -0.4656 -0.2577
 9736SOL    HW141267   4.789   1.864   8.254  0.0135 -0.7098 -0.2960
 9736SOL    HW241268   4.639   1.818   8.300 -0.2667 -0.3775 -0.8690
 9737SOL     OW41269   5.205   0.872   0.548  0.0376 -0.1387 -0.3470
 9737SOL    HW141270   5.246   0.832   0.465 -1.3361 -3.3448  0.4443
 9737SOL    HW241271   5.114   0.906   0.527 -0.4068 -1.1708 -0.1302
 9738SOL     OW41272   5.997   1.251   9.465  0.7618 -0.0607  0.1604
 9738SOL    HW141273   6.039   1.339   9.488 -0.6444  0.1904  1.9189
 9738SOL    HW241274   5.913   1.240   9.519  0.8687 -2.4353 -0.1255
 9739SOL     OW41275   3.747   4.697   3.806  0.2271 -0.2444  0.4799
 9739SOL    HW141276   3.815   4.755   3.759  1.0621 -0.6580  1.1708
 9739SOL    HW241277   3.657   4.712   3.765  1.0217 -0.9488 -1.5965
 9740SOL     OW41278   3.595   4.470   1.049 -0.5627  0.2194  0.0422
 9740SOL    HW141279   3.687   4.459   1.012 -1.0057  0.9443 -1.3503
 9740SOL    HW241280   3.597   4.463   1.148  0.7404 -1.3850 -0.0871
 9741SOL     OW41281   9.656   7.480   9.042  0.1929 -0.2299  0.5601
 9741SOL    HW141282   9.566   7.449   9.012  0.3828 -0.7128  0.4849
 9741SOL    HW241283   9.675   7.570   9.003 -0.0111 -0.3835  0.1022
 9742SOL     OW41284   4.617   5.721   9.843  0.7056  0.0441  0.0434
 9742SOL    HW141285   4.622   5.630   9.884 -0.3179 -0.6414 -1.3035
 9742SOL    HW241286   4.546   5.722   9.772  0.1693  2.0949  0.5466
 9743SOL     OW41287   7.604   8.036   3.903 -0.2338  0.4236  0.2708
 9743SOL    HW141288   7.668   8.093   3.956 -0.7874  0.5084  0.8616
 9743SOL    HW241289   7.655   7.974   3.844  0.4014  0.4482  0.7863
 9744SOL     OW41290   3.060   8.170   7.635 -0.0224 -0.0083 -0.3092
 9744SOL    HW141291   2.990   8.135   7.698  0.5979 -1.4927 -0.4277
 9744SOL    HW241292   3.018   8.191   7.547 -0.5036  0.0437 -0.0709
 9745SOL     OW41293   0.823   9.250   5.388 -0.0340  0.4147  0.0520
 9745SOL    HW141294   0.851   9.315   5.459 -1.3796  1.9336 -0.7844
 9745SOL    HW241295   0.780   9.170   5.430 -0.1325  0.9596  0.9827
 9746SOL     OW41296   9.060   9.420   2.947  0.1084 -0.1731 -0.2947
 9746SOL    HW141297   9.095   9.328   2.958  1.0749  0.0574 -1.3374
 9746SOL    HW241298   9.136   9.483   2.927 -0.8340  0.3781 -2.2669
 9747SOL     OW41299   4.283   8.646   9.381 -0.3362  0.3644 -0.3029
 9747SOL    HW141300   4.219   8.670   9.309  0.2941  0.9140 -0.6811
 9747SOL    HW241301   4.259   8.696   9.465 -1.0307 -0.2290 -0.1518
 9748SOL     OW41302   8.402   5.232   4.415  0.3800 -0.1286 -0.0292
 9748SOL    HW141303   8.426   5.298   4.344 -1.3722 -0.3971 -0.8949
 9748SOL    HW241304   8.459   5.248   4.496  3.1924 -0.5326 -1.8472
 9749SOL     OW41305   5.773   4.122   1.936  0.8127  0.5101  0.1689
 9749SOL    HW141306   5.769   4.186   1.860  0.8017  1.5695  1.0497
 9749SOL    HW241307   5.829   4.160   2.009 -0.3132  0.1168  1.2565
 9750SOL     OW41308   9.901   3.763   8.979 -0.3630  0.1976  0.0065
 9750SOL    HW141309   9.937   3.671   8.994 -1.3960 -0.5788 -2.0949
 9750SOL    HW241310   9.964   3.830   9.018  0.2080 -1.3837  1.9195
 9751SOL     OW41311   8.283   9.274   5.282 -0.0595  0.3427  0.1414
 9751SOL    HW141312   8.207   9.269   5.216 -2.0317 -1.3504  2.4647
 9751SOL    HW241313   8.317   9.182   5.300  2.4416  1.0712 -0.6748
 9752SOL     OW41314   0.300   2.963   1.827 -0.1667  0.2899  0.1486
 9752SOL    HW141315   0.391   2.941   1.861 -0.5671 -0.2318  0.9165
 9752SOL    HW241316   0.236   2.892   1.856 -0.5580 -0.1061 -1.6138
 9753SOL     OW41317   9.667   3.773   1.029 -0.4749  0.3741  0.6285
 9753SOL    HW141318   9.670   3.676   1.056 -0.9212  0.4185  0.8487
 9753SOL    HW241319   9.684   3.780   0.931 -1.3221 -0.0119  0.4493
 9754SOL     OW41320   0.143   1.082   4.700 -0.1340 -0.2026  0.6126
 9754SOL    HW141321   0.137   1.004   4.763  0.8181 -0.6255  0.1972
 9754SOL    HW241322   0.200   1.056   4.622 -2.4584 -0.1511 -1.1409
 9755SOL     OW41323   1.095   4.422   3.206  0.7745 -0.2514 -0.2092
 9755SOL    HW141324   1.182   4.439   3.252  0.5546  0.0369  0.1060
 9755SOL    HW241325   1.086   4.483   3.127  1.1814 -0.7929 -0.6811
 9756SOL     OW41326   0.166   3.617   9.978 -0.0011 -0.0001 -0.0260
 9756SOL    HW141327   0.154   3.715   9.994  1.2555  0.1710 -0.1005
 9756SOL    HW241328   0.166   3.569  10.066  3.4532  0.5514  0.3513
 9757SOL     OW41329   2.381   0.979   5.025  0.3640 -0.0308 -0.6815
 9757SOL    HW141330   2.312   0.982   4.953  1.5485  0.2735 -1.8147
 9757SOL    HW241331   2.451   0.912   5.001  0.8816  0.2245  0.0940
 9758SOL     OW41332   1.382   1.157   8.548  0.2079  0.4281 -0.4256
 9758SOL    HW141333   1.304   1.154   8.486  0.7908  0.8612 -1.1901
 9758SOL    HW241334   1.351   1.137   8.641 -0.6120 -0.5559 -0.9035
 9759SOL     OW41335   1.265   2.496   4.645 -0.8376  0.1030  0.6210
 9759SOL    HW141336   1.167   2.477   4.647 -0.8937  0.3245  0.2590
 9759SOL    HW241337   1.317   2.411   4.654 -1.0709 -0.0994  0.0565
 9760SOL     OW41338   2.658   7.149   5.868 -0.8460 -0.0684 -0.2834
 9760SOL    HW141339   2.716   7.221   5.908  2.2533 -2.0311 -1.0283
 9760SOL    HW241340   2.621   7.092   5.941 -0.6278  0.3354  0.1476
 9761SOL     OW41341   8.680   8.957   9.310 -0.2029 -0.1747 -0.3151
 9761SOL    HW141342   8.597   8.922   9.266 -1.9398  0.1498  2.5399
 9761SOL    HW241343   8.704   9.046   9.269 -2.0310  0.3495 -0.3030
 9762SOL     OW41344   7.796   1.822   1.953  0.0227 -0.3363  0.2475
 9762SOL    HW141345   7.832   1.793   2.042  1.7928 -1.1547 -0.7025
 9762SOL    HW241346   7.726   1.757   1.924 -0.0547 -0.4653  0.7059
 9763SOL     OW41347   5.839   0.518   2.194 -0.0899 -0.0088  0.5283
 9763SOL    HW141348   5.914   0.529   2.259 -0.0075  1.9416  0.1184
 9763SOL    HW241349   5.754   0.501   2.244  0.5503 -2.0074  1.0003
 9764SOL     OW41350   2.914   2.059   5.385  0.1900 -0.1939 -0.0334
 9764SOL    HW141351   2.979   2.084   5.314 -0.2462 -0.4700 -0.5332
 9764SOL    HW241352   2.961   2.005   5.455  0.9956  1.4658  0.7442
 9765SOL     OW41353   2.765   9.362   2.781  0.2090  0.1641  0.0291
 9765SOL    HW141354   2.751   9.445   2.727 -0.1781  0.2453  0.2538
 9765SOL    HW241355   2.710   9.368   2.865  1.9052  0.6891  1.1290
 9766SOL     OW41356   9.348   4.942   3.514  0.2808 -0.3924  0.7630
 9766SOL    HW141357   9.260   4.977   3.480 -0.5637 -1.5748  1.6851
 9766SOL    HW241358   9.382   4.873   3.450  1.2958  1.1195 -0.3689
 9767SOL     OW41359   2.662   4.483   4.163  0.2970 -0.5383  0.2046
 9767SOL    HW141360   2.587   4.547   4.177  0.0773 -1.4152  3.4857
 9767SOL    HW241361   2.749   4.530   4.172  0.1671  0.0120 -1.2525
 9768SOL     OW41362   5.192   9.998   3.367 -0.1531  0.1066 -0.0979
 9768SOL    HW141363   5.249   9.918   3.350 -0.3670  0.0106 -0.3733
 9768SOL    HW241364   5.095   9.972   3.359 -0.1994  0.7139 -1.7075
 9769SOL     OW41365   5.348   5.003   1.310  0.3551 -0.2070 -0.6168
 9769SOL    HW141366   5.253   5.006   1.280 -0.8369  1.2014  3.0741
 9769SOL    HW241367   5.390   4.918   1.279 -2.5152 -1.5292 -1.0043
 9770SOL     OW41368   2.057   3.558   4.564 -0.2165 -0.3969 -0.3458
 9770SOL    HW141369   2.133   3.612   4.600 -0.0754 -0.3576 -0.6991
 9770SOL    HW241370   1.985   3.619   4.532  0.7062 -0.3594 -2.4161
 9771SOL     OW41371   6.047   1.789   4.812  0.2003 -0.0491  0.7761
 9771SOL    HW141372   6.079   1.839   4.893  0.8363  2.3891 -0.9217
 9771SOL    HW241373   5.958   1.825   4.784 -1.2586 -2.6559  1.8702
 9772SOL     OW41374   0.974   3.930   0.917  0.2008 -0.0221  0.0584
 9772SOL    HW141375   1.012   4.004   0.973 -0.8521 -0.4588  1.3697
 9772SOL    HW241376   0.921   3.868   0.975 -1.9084  0.1688 -1.6093
 9773SOL     OW41377   2.931   2.652   6.200  0.1441 -0.0756 -0.3457
 9773SOL    HW141378   2.831   2.648   6.206  0.0819 -0.2871 -1.4803
 9773SOL    HW241379   2.969   2.662   6.292 -0.9882  1.9244 -0.0715
 9774SOL     OW41380   2.519   2.253   6.690  0.6926 -1.0553  0.5255
 9774SOL    HW141381   2.451   2.180   6.695 -0.9995  0.5464  1.7532
 9774SOL    HW241382   2.480   2.337   6.729  2.8134  0.3290 -0.2650
 9775SOL     OW41383   1.362   1.069   9.159 -0.1748  0.0299  0.2526
 9775SOL    HW141384   1.297   1.144   9.170 -1.4383 -1.0033 -0.0593
 9775SOL    HW241385   1.341   1.018   9.075 -0.5577 -1.8286  1.4278
 9776SOL     OW41386   0.025   7.394   7.301  0.4580 -0.1925 -0.0737
 9776SOL    HW141387   0.046   7.392   7.399 -0.2457  0.8493  0.1114
 9776SOL    HW241388  -0.072   7.414   7.288  0.3859 -1.1107 -0.9752
 9777SOL     OW41389   6.802   7.271   7.177  0.7369  0.0614  0.7053
 9777SOL    HW141390   6.843   7.346   7.229  0.4297  0.6025  0.1708
 9777SOL    HW241391   6.835   7.274   7.083  0.2000 -0.0660  0.5103
 9778SOL     OW41392   3.261   9.625   1.530  0.4619  0.1855 -0.0589
 9778SOL    HW141393   3.226   9.708   1.486  0.1948 -0.2721 -0.7282
 9778SOL    HW241394   3.354   9.607   1.498  0.2938 -0.1081 -0.3842
 9779SOL     OW41395   3.224   2.040   5.725 -0.0501 -0.2274 -0.1036
 9779SOL    HW141396   3.226   2.032   5.824 -1.9180 -0.4163 -0.0700
 9779SOL    HW241397   3.291   2.109   5.696  0.2046  0.1341  1.3018
 9780SOL     OW41398   9.511   3.482   1.244  0.0199  0.5635 -0.1125
 9780SOL    HW141399   9.594   3.481   1.187 -0.6247 -0.3292 -1.0604
 9780SOL    HW241400   9.526   3.540   1.324  1.8230 -0.1718  0.1074
 9781SOL     OW41401   0.852   6.796   0.466 -0.5165  0.2542  0.4409
 9781SOL    HW141402   0.829   6.781   0.370  0.3494  0.7993  0.1329
 9781SOL    HW241403   0.795   6.739   0.524 -1.0177 -0.1112 -0.4048
 9782SOL     OW41404   4.794   2.593   6.115 -0.1276 -0.9443 -0.3250
 9782SOL    HW141405   4.826   2.611   6.022  1.3049 -2.0784 -0.0662
 9782SOL    HW241406   4.719   2.527   6.112 -1.3635  0.4731 -0.8128
 9783SOL     OW41407   0.276   2.272   9.584 -0.2225 -0.4057 -0.4619
 9783SOL    HW141408   0.190   2.323   9.581  0.3138  0.5547  0.1738
 9783SOL    HW241409   0.257   2.174   9.573 -1.4551 -0.2649  0.3099
 9784SOL     OW41410   2.936   8.299   3.162  0.8386  0.2442  0.3601
 9784SOL    HW141411   2.874   8.221   3.151 -0.0578  0.9214  0.4952
 9784SOL    HW241412   2.982   8.318   3.076 -0.8618  1.1499 -0.3679
 9785SOL     OW41413   4.382   1.149   6.385  0.5679  0.3542 -0.1281
 9785SOL    HW141414   4.471   1.103   6.379  0.7833  1.0407 -3.2495
 9785SOL    HW241415   4.315   1.097   6.331 -0.6766  0.4791  1.2555
 9786SOL     OW41416   6.612   2.484   9.502  0.4006 -0.4745  0.3959
 9786SOL    HW141417   6.666   2.568   9.506  1.6217 -1.2606  0.8303
 9786SOL    HW241418   6.674   2.405   9.506 -0.7524 -1.3918  0.2978
 9787SOL     OW41419   7.765   4.006   0.143 -0.1138  0.1007  0.5170
 9787SOL    HW141420   7.789   4.100   0.119 -2.8006  1.0132  1.1760
 9787SOL    HW241421   7.839   3.945   0.116  2.0793  2.4952  0.8869
 9788SOL     OW41422   2.602   4.168   5.608 -0.8828  0.1701  0.4915
 9788SOL    HW141423   2.618   4.079   5.566  0.2907  0.4237  0.3663
 9788SOL    HW241424   2.551   4.156   5.693 -1.5373 -0.5298  0.0018
 9789SOL     OW41425   0.652   3.349   5.164  0.0334  0.6389 -0.2029
 9789SOL    HW141426   0.570   3.406   5.163 -0.8336 -0.5274  1.2721
 9789SOL    HW241427   0.631   3.261   5.207  1.8088 -0.0780 -0.7374
 9790SOL     OW41428   9.024   4.123   7.520  0.2318  0.4276  0.3166
 9790SOL    HW141429   9.110   4.099   7.474 -0.0573 -0.7554  0.3708
 9790SOL    HW241430   8.963   4.167   7.454 -0.1188 -1.1085 -0.4300
 9791SOL     OW41431   4.304   5.726   3.735 -0.1527 -0.0843  0.2098
 9791SOL    HW141432   4.305   5.627   3.720 -0.0575 -0.0562  0.0334
 9791SOL    HW241433   4.331   5.745   3.830 -0.1495 -0.2259  0.2383
 9792SOL     OW41434   6.570   7.496   8.434 -0.0556 -0.4061 -0.2347
 9792SOL    HW141435   6.541   7.403   8.455  0.3236 -0.2445  1.0163
 9792SOL    HW241436   6.627   7.531   8.508  0.6419  0.4635 -1.1663
 9793SOL     OW41437   3.445   3.150   1.504 -0.4423  0.1641  0.0264
 9793SOL    HW141438   3.527   3.125   1.555 -0.1264 -0.2380 -0.6762
 9793SOL    HW241439   3.460   3.237   1.457 -0.4590  0.1437 -0.0163
 9794SOL     OW41440   7.206   5.951   4.625 -0.0944  0.1320  0.5003
 9794SOL    HW141441   7.206   6.044   4.588  0.7630 -0.5463 -1.2580
 9794SOL    HW241442   7.234   5.954   4.721  0.7287  1.6239  0.2358
 9795SOL     OW41443   9.814   9.135   5.437 -0.2876 -0.5759 -0.5638
 9795SOL    HW141444   9.744   9.064   5.428  1.1211 -2.4111  2.0556
 9795SOL    HW241445   9.888   9.100   5.495  1.4585  2.3188 -0.9840
 9796SOL     OW41446   6.988   5.798   1.483 -0.0826  0.1079 -0.0845
 9796SOL    HW141447   6.953   5.878   1.532 -0.2932  0.2442 -0.4534
 9796SOL    HW241448   6.931   5.781   1.402  1.2970  0.9224 -1.2461
 9797SOL     OW41449   3.510   7.421   4.204  0.0535 -0.1623 -0.1397
 9797SOL    HW141450   3.457   7.356   4.260 -1.5105  2.0442  0.9972
 9797SOL    HW241451   3.596   7.442   4.251 -0.2670  0.0021  0.3812
 9798SOL     OW41452   4.072   9.132   0.770 -0.1462  0.2635  0.2284
 9798SOL    HW141453   4.042   9.045   0.731 -1.2837  1.1287 -0.8951
 9798SOL    HW241454   4.046   9.137   0.866 -0.2936 -0.5297  0.2319
 9799SOL     OW41455   0.807   4.542   7.894 -0.4234 -0.7435  0.1274
 9799SOL    HW141456   0.907   4.550   7.902 -0.4667 -0.7357  0.6829
 9799SOL    HW241457   0.779   4.453   7.928 -0.6262 -0.6763  0.1326
 9800SOL     OW41458   1.278   7.356   6.584 -0.8193  0.1306 -0.6888
 9800SOL    HW141459   1.259   7.348   6.682 -1.3855 -0.2003 -0.8246
 9800SOL    HW241460   1.207   7.410   6.540  0.0085  1.1921 -0.7424
 9801SOL     OW41461   3.286   1.736   6.948  0.2214 -0.0422 -0.2633
 9801SOL    HW141462   3.271   1.697   7.039 -2.4179  0.3202 -0.5270
 9801SOL    HW241463   3.251   1.674   6.878 -1.9909  1.7501 -0.7934
 9802SOL     OW41464   4.402   2.533   0.625 -0.2825 -0.4536 -0.4410
 9802SOL    HW141465   4.341   2.610   0.607  2.0144  2.0174  1.9861
 9802SOL    HW241466   4.407   2.474   0.544 -0.0337  3.3656 -3.3090
 9803SOL     OW41467   3.580   0.917   7.085  0.8460  0.3919  0.6080
 9803SOL    HW141468   3.516   0.841   7.082 -0.5614  1.4817  2.1550
 9803SOL    HW241469   3.660   0.891   7.140  0.4127  0.0019  1.0562
 9804SOL     OW41470   8.539   8.573   0.724  0.8914 -0.5627  0.1954
 9804SOL    HW141471   8.520   8.610   0.634  0.6282 -1.6647 -0.2097
 9804SOL    HW241472   8.463   8.595   0.786 -0.0565 -1.8645 -0.4841
 9805SOL     OW41473   7.427   8.441   4.175  0.4841  0.2582  0.3403
 9805SOL    HW141474   7.401   8.472   4.083 -0.9026  1.9457  1.2702
 9805SOL    HW241475   7.411   8.343   4.183 -0.1157  0.2327 -0.9650
 9806SOL     OW41476   8.461   1.842   8.906 -0.3010  0.1162 -0.0424
 9806SOL    HW141477   8.389   1.899   8.945  0.6750  1.3854 -0.0736
 9806SOL    HW241478   8.425   1.795   8.825 -0.3858  2.7172 -1.5536
 9807SOL     OW41479   0.647   9.301   2.283  0.1161  0.2603 -0.4206
 9807SOL    HW141480   0.639   9.303   2.382 -0.4679  0.7834 -0.4758
 9807SOL    HW241481   0.635   9.207   2.250 -0.5763  0.2206 -0.0648
 9808SOL     OW41482   7.112   7.328   3.083  0.1216  0.3769 -0.3138
 9808SOL    HW141483   7.177   7.314   3.158  0.1865  0.5516 -0.3383
 9808SOL    HW241484   7.019   7.319   3.117  0.1669 -0.3619 -0.3731
 9809SOL     OW41485   1.149   8.983  10.044  0.0415 -0.3975 -0.3045
 9809SOL    HW141486   1.166   9.074  10.081  0.1396 -0.3873 -0.3727
 9809SOL    HW241487   1.231   8.951   9.997 -0.3813 -0.0173 -1.3289
 9810SOL     OW41488   4.034   8.828   6.070  1.2190 -0.1543  0.2773
 9810SOL    HW141489   3.975   8.902   6.041  1.5965 -0.4170 -1.1718
 9810SOL    HW241490   4.071   8.848   6.161 -1.1401 -0.0294  1.2399
 9811SOL     OW41491   7.367   3.403   3.795 -0.0004  0.3479 -0.7426
 9811SOL    HW141492   7.379   3.454   3.880  1.1866  1.0730 -1.3329
 9811SOL    HW241493   7.365   3.466   3.718 -1.3328 -0.2832 -1.2391
 9812SOL     OW41494   2.052   9.432   8.657 -0.2658  0.1123 -0.5422
 9812SOL    HW141495   1.984   9.480   8.712  0.8539  0.4060  0.6134
 9812SOL    HW241496   2.108   9.374   8.716 -0.2648 -1.0303 -1.6371
 9813SOL     OW41497   6.185   0.484   3.466  0.4032  0.5906 -0.5006
 9813SOL    HW141498   6.127   0.551   3.513  1.6263  0.2087  1.6244
 9813SOL    HW241499   6.203   0.407   3.528  0.6455 -0.7507 -2.2261
 9814SOL     OW41500   8.715   3.229   3.308 -0.4672 -1.2014  0.0187
 9814SOL    HW141501   8.793   3.169   3.322  2.2673  2.7017  2.4150
 9814SOL    HW241502   8.651   3.219   3.385  1.4453  0.9509  1.9724
 9815SOL     OW41503   6.613   5.484   8.316  0.3046 -0.2404  0.1508
 9815SOL    HW141504   6.516   5.485   8.341  0.1769  1.1586 -0.3316
 9815SOL    HW241505   6.645   5.579   8.307  1.7104 -0.6990  0.2954
 9816SOL     OW41506   8.424   4.185   8.902 -0.0082 -0.0901  0.0641
 9816SOL    HW141507   8.484   4.139   8.967  1.9722  0.9103 -1.0424
 9816SOL    HW241508   8.390   4.270   8.942  2.0518  1.0615 -0.5439
 9817SOL     OW41509   2.851   1.596   4.839 -0.0381  0.0703  0.0124
 9817SOL    HW141510   2.856   1.540   4.922  0.6829 -0.1774 -0.1921
 9817SOL    HW241511   2.934   1.651   4.832  0.4471 -0.8024 -1.1752
 9818SOL     OW41512   4.454   3.596  10.049  0.3697  0.0303 -0.2020
 9818SOL    HW141513   4.505   3.516  10.081 -0.1561 -0.1308  0.2421
 9818SOL    HW241514   4.369   3.604  10.100 -0.0473  0.3046 -0.9347
 9819SOL     OW41515   3.866   9.787   8.592  0.0225 -0.2391 -1.3252
 9819SOL    HW141516   3.964   9.796   8.608 -0.1560  0.9746 -0.8819
 9819SOL    HW241517   3.829   9.713   8.648  0.0021  1.7853  1.4286
 9820SOL     OW41518   2.363   6.185   2.082 -0.2918 -0.2005 -0.1438
 9820SOL    HW141519   2.432   6.142   2.140 -0.8304  0.8698  1.3108
 9820SOL    HW241520   2.400   6.197   1.990  0.6793 -1.6233  0.0539
 9821SOL     OW41521   1.787   9.021   6.476 -0.0549  0.2434 -0.1122
 9821SOL    HW141522   1.710   8.980   6.426  0.3449  0.3642 -0.8333
 9821SOL    HW241523   1.862   9.040   6.413  0.9131 -0.6892  0.7312
 9822SOL     OW41524   1.532   1.601   6.330  0.3564  0.8362 -0.4252
 9822SOL    HW141525   1.496   1.602   6.236 -0.4699  1.7953 -0.1043
 9822SOL    HW241526   1.626   1.636   6.330  0.6168  0.1424 -0.9998
 9823SOL     OW41527   0.790   7.658   5.214  0.3625 -0.3229 -0.2044
 9823SOL    HW141528   0.751   7.680   5.124  0.3644  0.9936  0.1048
 9823SOL    HW241529   0.849   7.578   5.206 -3.3749 -3.1909 -0.4679
 9824SOL     OW41530   3.501   1.335   6.956 -0.6972  0.4276 -0.4022
 9824SOL    HW141531   3.548   1.384   6.882  0.1738 -1.4692 -1.1355
 9824SOL    HW241532   3.542   1.245   6.968 -1.2216  0.4721  2.0248
 9825SOL     OW41533   7.015   6.456   0.956  0.1373  0.1408 -0.1056
 9825SOL    HW141534   6.935   6.399   0.932 -0.3307  0.8424 -0.2217
 9825SOL    HW241535   7.045   6.432   1.048 -0.3538  0.0288  0.0313
 9826SOL     OW41536   3.082   3.166   3.073 -0.2587  0.3490  0.2608
 9826SOL    HW141537   3.050   3.144   2.981  0.6950 -0.3202  0.0827
 9826SOL    HW241538   3.022   3.122   3.140 -0.5026  0.2065 -0.0476
 9827SOL     OW41539   6.845   1.536   6.435  0.1517  0.6383  0.3621
 9827SOL    HW141540   6.921   1.481   6.471 -0.6268 -0.0949  0.8841
 9827SOL    HW241541   6.880   1.626   6.407  1.3054  0.1303  0.1364
 9828SOL     OW41542   4.551   0.772   7.797  0.0571  0.4990 -0.0963
 9828SOL    HW141543   4.466   0.720   7.790  0.3772  0.0239 -0.4320
 9828SOL    HW241544   4.541   0.857   7.745 -0.3525  0.6356  0.1971
 9829SOL     OW41545   0.668   0.483   6.589  0.3661  0.4166 -0.1357
 9829SOL    HW141546   0.672   0.553   6.660  0.1933  0.0495  0.2397
 9829SOL    HW241547   0.711   0.399   6.623 -0.7000 -0.1072 -0.0510
 9830SOL     OW41548   8.216   5.743   3.933  0.4171  0.4733  0.2680
 9830SOL    HW141549   8.148   5.731   4.005  0.2080 -0.3497 -0.0554
 9830SOL    HW241550   8.187   5.817   3.872  0.5348  1.0909  0.9499
 9831SOL     OW41551   6.172   8.747   4.612 -0.3710 -0.0906  0.1919
 9831SOL    HW141552   6.136   8.711   4.698  1.4472 -1.5960  0.3533
 9831SOL    HW241553   6.240   8.818   4.631  0.4613 -0.8367  0.0257
 9832SOL     OW41554   7.725   1.033   7.804 -0.3538  0.3456 -0.3251
 9832SOL    HW141555   7.687   1.074   7.721 -0.4959 -0.0203 -0.4401
 9832SOL    HW241556   7.687   0.942   7.818 -1.4099  0.9633  0.9230
 9833SOL     OW41557   5.367   5.288   2.441 -0.0118  0.4113  0.1463
 9833SOL    HW141558   5.414   5.364   2.487  1.3917 -0.3423 -0.0179
 9833SOL    HW241559   5.403   5.201   2.474 -1.8083 -0.1935  0.5209
 9834SOL     OW41560   8.843   4.818   8.166  0.4559  0.4334 -0.0588
 9834SOL    HW141561   8.845   4.884   8.091 -2.5322  0.9017  0.2158
 9834SOL    HW241562   8.806   4.731   8.134 -1.7441  0.9318  1.0562
 9835SOL     OW41563   9.676   8.374   1.621 -0.1424 -0.7124  0.1185
 9835SOL    HW141564   9.723   8.300   1.671 -0.1343 -1.9059 -1.6126
 9835SOL    HW241565   9.647   8.445   1.686  0.8465 -1.6944  1.6698
 9836SOL     OW41566   3.556   8.278   1.793 -0.0113 -0.0959  0.6887
 9836SOL    HW141567   3.643   8.325   1.783  0.5690 -1.4655 -0.7883
 9836SOL    HW241568   3.571   8.187   1.832 -0.5403 -1.1289 -1.4493
 9837SOL     OW41569   7.465   3.290   3.153  0.8600 -0.3199  0.1272
 9837SOL    HW141570   7.555   3.247   3.163  2.0428  1.8923 -0.5535
 9837SOL    HW241571   7.453   3.320   3.058 -0.0157  0.6314  0.5263
 9838SOL     OW41572   9.824   8.215   5.932 -0.1533  0.1602  1.0074
 9838SOL    HW141573   9.896   8.188   5.869 -1.3641 -1.3750  0.2703
 9838SOL    HW241574   9.865   8.262   6.011  1.5047  0.6124 -0.1030
 9839SOL     OW41575   0.065   8.311   3.006 -0.0936  0.0038 -0.6093
 9839SOL    HW141576   0.057   8.245   3.081 -0.4646  0.1210 -0.5418
 9839SOL    HW241577   0.025   8.398   3.034  1.1487  0.5161 -0.4079
 9840SOL     OW41578   0.155   1.840   2.889  0.6689 -0.5308  0.1045
 9840SOL    HW141579   0.112   1.758   2.926 -0.0978 -0.1780  0.0002
 9840SOL    HW241580   0.090   1.916   2.889  1.7684  0.4405  1.4279
 9841SOL     OW41581   4.918   7.973   1.023  0.3307 -0.6413  0.1599
 9841SOL    HW141582   4.915   7.966   0.923 -2.5141 -0.3058  0.1869
 9841SOL    HW241583   4.958   8.061   1.048 -0.3934 -0.0390 -0.7368
 9842SOL     OW41584   0.846   5.133   2.413  0.4041 -0.3184  0.6213
 9842SOL    HW141585   0.858   5.162   2.508  0.5954 -0.1277  0.5400
 9842SOL    HW241586   0.793   5.049   2.411  0.8948 -0.6414  0.9364
 9843SOL     OW41587   8.031   6.982   2.948  0.3975 -0.1886 -0.1706
 9843SOL    HW141588   8.101   6.940   3.005 -0.0226  0.5857  0.9366
 9843SOL    HW241589   7.948   6.997   3.002 -0.6911 -1.2515 -1.5177
 9844SOL     OW41590   4.764   8.187   5.392  0.0139  0.6753  0.1636
 9844SOL    HW141591   4.726   8.103   5.432  0.5378  0.6348  0.5864
 9844SOL    HW241592   4.776   8.256   5.464  3.4878 -0.3143  0.6302
 9845SOL     OW41593   4.977   2.287   1.727  0.3840  0.4374 -0.1561
 9845SOL    HW141594   5.039   2.223   1.771 -0.4557 -0.1795  0.1498
 9845SOL    HW241595   5.028   2.344   1.663  1.2887  0.0624  0.2238
 9846SOL     OW41596   9.367   2.345   3.207 -0.3259  0.2139  0.0252
 9846SOL    HW141597   9.316   2.376   3.126 -0.4867  1.8712  0.7306
 9846SOL    HW241598   9.361   2.415   3.278 -0.6895 -1.5048  1.6990
 9847SOL     OW41599   1.107   1.893   7.006 -0.0725 -0.6325  0.3949
 9847SOL    HW141600   1.043   1.957   6.965  1.0790  0.8403  0.8601
 9847SOL    HW241601   1.147   1.835   6.935 -0.6453 -0.4075 -0.1127
 9848SOL     OW41602   8.144   4.341   6.582  0.4224 -0.4054  0.5468
 9848SOL    HW141603   8.055   4.381   6.603  1.4192  1.3675  1.5069
 9848SOL    HW241604   8.176   4.286   6.659 -0.0498 -1.4870 -0.0050
 9849SOL     OW41605   2.891   4.190   6.087 -0.2693  0.4577  0.2203
 9849SOL    HW141606   2.965   4.224   6.145 -0.4224  0.4980  0.3914
 9849SOL    HW241607   2.803   4.210   6.130 -0.3504 -0.5281  0.5410
 9850SOL     OW41608   6.919   7.752   7.462  0.4831  0.5008 -0.2486
 9850SOL    HW141609   6.878   7.686   7.525  1.7995 -1.3653 -1.2999
 9850SOL    HW241610   7.006   7.784   7.499  0.0472  1.3411  0.0608
 9851SOL     OW41611   3.463   0.877   7.981  0.9685  0.4801 -0.0232
 9851SOL    HW141612   3.479   0.863   8.079  0.7847  0.0456 -0.0547
 9851SOL    HW241613   3.490   0.796   7.930 -1.7921 -0.5073 -0.0219
 9852SOL     OW41614   4.472   5.684   2.978  0.0540  0.2318 -0.1092
 9852SOL    HW141615   4.508   5.615   2.916 -1.3368 -1.2983  0.7597
 9852SOL    HW241616   4.540   5.704   3.050  1.5192  1.7517 -1.8655
 9853SOL     OW41617   1.289   9.406   3.378  0.2897 -0.7189 -0.1149
 9853SOL    HW141618   1.213   9.400   3.314 -0.1585  0.3808  0.3069
 9853SOL    HW241619   1.256   9.439   3.467  1.1689 -0.7276  0.2202
 9854SOL     OW41620   2.413   9.826   4.255  0.0951  0.1711  0.3663
 9854SOL    HW141621   2.437   9.730   4.272  0.7348 -0.0227 -1.5398
 9854SOL    HW241622   2.403   9.874   4.343  3.9120 -0.6044  1.2888
 9855SOL     OW41623   4.334   9.284   6.523 -0.2116  0.0167 -0.3252
 9855SOL    HW141624   4.345   9.361   6.460  2.4012 -0.5662 -0.6183
 9855SOL    HW241625   4.362   9.199   6.478 -0.8861 -0.7999  0.7644
 9856SOL     OW41626   7.397   7.247   6.702  0.1332  0.2074  0.3689
 9856SOL    HW141627   7.437   7.194   6.776  1.2576 -0.0719 -0.4107
 9856SOL    HW241628   7.307   7.211   6.678 -0.9560  1.3243  2.6793
 9857SOL     OW41629   7.653   9.012   3.088 -0.4381 -0.1531  0.6181
 9857SOL    HW141630   7.599   8.941   3.132 -0.8495 -0.7492 -0.8243
 9857SOL    HW241631   7.674   8.985   2.994  1.8957  0.3024  0.9593
 9858SOL     OW41632   0.756   7.524   5.864 -0.0935  0.0775 -0.1323
 9858SOL    HW141633   0.730   7.607   5.913 -0.9697 -0.9384  1.1414
 9858SOL    HW241634   0.708   7.521   5.776  0.1334  1.0371 -0.2905
 9859SOL     OW41635   7.068   9.225   5.265  0.0112  0.1603 -0.0439
 9859SOL    HW141636   6.991   9.182   5.310 -0.4948  0.6725 -0.4065
 9859SOL    HW241637   7.133   9.156   5.235 -0.4463 -0.2933  0.0126
 9860SOL     OW41638   2.724   3.434   0.600  0.1081  0.0945 -0.2365
 9860SOL    HW141639   2.788   3.432   0.677  0.3658  0.9845 -0.4183
 9860SOL    HW241640   2.662   3.356   0.606  1.0327 -0.6300  0.0911
 9861SOL     OW41641   4.156   3.752   8.620  0.0112  0.1957 -0.1243
 9861SOL    HW141642   4.228   3.766   8.688  0.7596  1.4611 -1.1638
 9861SOL    HW241643   4.183   3.793   8.533 -1.2848 -0.7062 -0.9726
 9862SOL     OW41644   7.743   0.804   5.229  0.1985 -0.2224  0.2582
 9862SOL    HW141645   7.692   0.884   5.261  0.9270  1.0387 -1.5950
 9862SOL    HW241646   7.836   0.832   5.205  0.3627 -1.5608 -0.6906
 9863SOL     OW41647   8.955   6.197   2.411  0.4295  0.5673 -0.0698
 9863SOL    HW141648   8.995   6.106   2.423  1.7093  1.0690 -0.3539
 9863SOL    HW241649   8.956   6.246   2.498 -1.3802 -0.1216  0.3484
 9864SOL     OW41650   8.912   9.242   0.887 -0.5605 -0.2122 -0.0800
 9864SOL    HW141651   8.930   9.252   0.985 -0.1000  0.8327 -0.2697
 9864SOL    HW241652   8.882   9.148   0.868 -1.1718 -0.2646  1.1324
 9865SOL     OW41653   8.809   0.587   5.302 -0.0102 -0.1041 -0.0075
 9865SOL    HW141654   8.861   0.563   5.220  0.0492 -0.2960  0.0868
 9865SOL    HW241655   8.786   0.684   5.299  1.8169  0.3717  0.7631
 9866SOL     OW41656   4.505   3.905   2.756 -0.3202 -0.0680  0.6159
 9866SOL    HW141657   4.540   3.840   2.824  0.0274  0.6177  1.0987
 9866SOL    HW241658   4.538   3.997   2.778 -0.1319  0.1481 -0.5313
 9867SOL     OW41659   1.963   8.770   8.353  0.1144  0.1550 -0.2997
 9867SOL    HW141660   1.914   8.683   8.346 -1.0932  0.9162 -1.6428
 9867SOL    HW241661   2.027   8.766   8.430  0.5226 -2.1140 -0.7180
 9868SOL     OW41662   3.440   1.189   6.637  0.0691  0.1942  0.1889
 9868SOL    HW141663   3.466   1.120   6.705  2.5644  1.2217  0.3281
 9868SOL    HW241664   3.421   1.276   6.684 -1.9185 -0.0584 -0.0984
 9869SOL     OW41665   3.575   7.362   7.373 -0.2385  0.7354 -0.2462
 9869SOL    HW141666   3.499   7.415   7.413 -0.3744 -0.0534  0.5428
 9869SOL    HW241667   3.618   7.307   7.444  1.4835  1.6391 -0.5676
 9870SOL     OW41668   9.297   4.494   8.137  0.0815  0.3842  0.1429
 9870SOL    HW141669   9.211   4.444   8.148  0.3199 -0.1821 -0.5380
 9870SOL    HW241670   9.304   4.565   8.207  1.1020 -2.4448  3.0210
 9871SOL     OW41671   5.711   8.632   2.996  0.3847  0.2298 -0.0166
 9871SOL    HW141672   5.715   8.608   2.899 -0.6825  1.1767 -0.3073
 9871SOL    HW241673   5.663   8.560   3.046  1.2875 -0.4515 -0.1248
 9872SOL     OW41674   7.358   0.150   5.251  0.4745 -0.3351 -0.2305
 9872SOL    HW141675   7.371   0.165   5.153 -2.9075 -0.0578 -0.7032
 9872SOL    HW241676   7.351   0.239   5.297  0.6366 -0.4646  0.0444
 9873SOL     OW41677   5.377   1.227   3.764  0.6751  0.5673 -0.1770
 9873SOL    HW141678   5.425   1.226   3.851  0.4450  0.0846 -0.0547
 9873SOL    HW241679   5.278   1.225   3.780  0.5880  2.1304 -0.4099
 9874SOL     OW41680   1.502   6.001   9.412 -0.0337  0.5900  0.3036
 9874SOL    HW141681   1.529   6.009   9.508 -1.2685  2.1721  0.5303
 9874SOL    HW241682   1.584   5.987   9.356  0.7875  0.6427  1.4722
 9875SOL     OW41683   6.612   1.007   9.244  0.2732  0.2503 -0.6958
 9875SOL    HW141684   6.514   1.019   9.227  0.1596 -0.4795 -0.5806
 9875SOL    HW241685   6.630   0.912   9.270  0.8480  0.6689  0.4490
 9876SOL     OW41686   9.625   5.120   7.615  0.1879 -0.3290 -0.0176
 9876SOL    HW141687   9.634   5.211   7.574 -0.1241  0.2812  1.2417
 9876SOL    HW241688   9.573   5.061   7.553 -0.2417  0.5649 -0.5217
 9877SOL     OW41689   9.878   3.245   8.352 -0.1465  0.5832 -0.5571
 9877SOL    HW141690   9.871   3.300   8.269  1.0224 -1.9531 -2.4059
 9877SOL    HW241691   9.974   3.227   8.372 -0.4747  0.0929  0.6270
 9878SOL     OW41692   9.153   9.328   0.153  0.1164 -0.0441 -0.6737
 9878SOL    HW141693   9.224   9.311   0.085 -1.1790  0.1270 -2.0997
 9878SOL    HW241694   9.159   9.423   0.184  0.6843 -0.1037 -0.6023
 9879SOL     OW41695   8.310   0.004   8.952  0.3843  0.5009  0.4085
 9879SOL    HW141696   8.243   0.052   9.008  0.5015  1.1780 -0.0283
 9879SOL    HW241697   8.266  -0.030   8.869  0.4517  0.4148  0.4082
 9880SOL     OW41698   5.052   8.765   9.640 -0.0080  0.1472  0.0673
 9880SOL    HW141699   5.125   8.698   9.655  0.3316 -0.2030 -2.9100
 9880SOL    HW241700   5.092   8.853   9.616 -0.5486  0.3739 -0.0074
 9881SOL     OW41701   4.422   4.816   3.294  0.1220  0.5563 -0.0043
 9881SOL    HW141702   4.442   4.773   3.382 -0.4484  0.3014  0.0039
 9881SOL    HW241703   4.426   4.747   3.222 -0.0340  0.6388 -0.0918
 9882SOL     OW41704   7.317   6.649   8.013 -0.0090 -0.3759 -0.3891
 9882SOL    HW141705   7.268   6.709   7.950  1.7533 -1.0935 -2.5046
 9882SOL    HW241706   7.307   6.684   8.107 -0.8171  1.9513 -1.3022
 9883SOL     OW41707   9.147   7.629   2.973 -0.2156  0.0170  0.0741
 9883SOL    HW141708   9.179   7.709   2.923 -0.1591  0.7357  1.2218
 9883SOL    HW241709   9.226   7.581   3.013 -0.2645 -0.4862 -0.4296
 9884SOL     OW41710   9.452   3.843   8.344 -0.3566  0.2896  0.2922
 9884SOL    HW141711   9.521   3.844   8.272  1.5997 -0.8474  2.0815
 9884SOL    HW241712   9.420   3.749   8.358 -0.8254  0.5220  0.8069
 9885SOL     OW41713   2.258   8.427   1.008  0.2884  0.2824  0.2052
 9885SOL    HW141714   2.207   8.343   1.026  0.7215 -0.2844 -1.1274
 9885SOL    HW241715   2.253   8.487   1.088 -3.4484  0.7694 -0.3252
 9886SOL     OW41716   9.062   1.571   3.811  0.3770  0.8752  0.4193
 9886SOL    HW141717   9.086   1.527   3.897  0.9897  1.1313  0.3773
 9886SOL    HW241718   9.141   1.571   3.750  0.1253  1.2491  0.0875
 9887SOL     OW41719   8.041   5.548   1.376  0.9407  0.1226  0.2761
 9887SOL    HW141720   7.983   5.622   1.342  0.7582 -0.0923  0.1176
 9887SOL    HW241721   8.122   5.539   1.318 -0.1059 -1.2304 -1.0064
 9888SOL     OW41722   0.817   8.182  10.056 -0.2242 -0.2119 -0.2445
 9888SOL    HW141723   0.796   8.197   9.959 -4.0032 -0.8827  0.4198
 9888SOL    HW241724   0.799   8.266  10.108 -0.1744 -0.4809  0.2089
 9889SOL     OW41725   1.997   6.166   9.992 -0.1228  0.0562 -0.0508
 9889SOL    HW141726   2.021   6.162   9.895 -0.6052 -0.0032 -0.1703
 9889SOL    HW241727   1.907   6.124  10.006  0.6051 -1.2764  0.6468
 9890SOL     OW41728   0.311   2.275   3.896  0.1444 -0.5122 -0.2489
 9890SOL    HW141729   0.387   2.323   3.852  0.6930 -0.4910  0.7067
 9890SOL    HW241730   0.344   2.229   3.979 -1.1753  0.7418  0.9997
 9891SOL     OW41731   3.276   1.417   1.723  0.2276 -1.1245 -0.1212
 9891SOL    HW141732   3.183   1.381   1.721 -0.3486  0.3685 -3.3175
 9891SOL    HW241733   3.325   1.390   1.639  1.1422  1.8590 -0.6251
 9892SOL     OW41734   2.742   3.640   9.061  0.1070  0.7845  0.3053
 9892SOL    HW141735   2.710   3.709   8.996  0.4252  0.2543 -0.4199
 9892SOL    HW241736   2.762   3.684   9.149  0.5564  1.6666 -0.2328
 9893SOL     OW41737   6.799   6.423   7.683  0.5393 -0.9354 -0.2745
 9893SOL    HW141738   6.879   6.399   7.738  1.5501  1.6673 -0.5280
 9893SOL    HW241739   6.722   6.365   7.709  1.8406 -1.8313  1.7116
 9894SOL     OW41740   8.541   7.656   2.451  0.1454  0.0944  0.4254
 9894SOL    HW141741   8.629   7.647   2.497  1.3221  1.4477 -1.4793
 9894SOL    HW241742   8.497   7.741   2.479  0.4171  0.4401 -0.1781
 9895SOL     OW41743   6.506   1.405   0.180  0.0283 -0.6296 -0.6083
 9895SOL    HW141744   6.590   1.353   0.165  0.8823  0.8172 -0.9245
 9895SOL    HW241745   6.461   1.423   0.092 -1.6199 -2.9923 -0.3020
 9896SOL     OW41746   0.220   2.356   6.641  0.3515 -0.7491 -0.0347
 9896SOL    HW141747   0.316   2.385   6.636  0.6356 -1.4028  1.2462
 9896SOL    HW241748   0.161   2.436   6.652  0.7883 -0.3809 -0.3544
 9897SOL     OW41749   6.954   9.289   4.947  0.0037  0.9320 -0.2255
 9897SOL    HW141750   7.027   9.339   4.993 -0.3349  0.9950  0.2430
 9897SOL    HW241751   6.877   9.276   5.009  0.6001 -1.3325  0.1053
 9898SOL     OW41752   1.836   8.588   0.805 -0.1805 -0.3608 -0.4478
 9898SOL    HW141753   1.837   8.667   0.866 -0.0731  0.3151 -1.3292
 9898SOL    HW241754   1.924   8.541   0.809 -0.4756 -0.8441  0.5971
 9899SOL     OW41755   8.325   0.384   8.514  0.2838  0.2794 -0.0260
 9899SOL    HW141756   8.239   0.398   8.466 -0.3905 -1.6566  0.5466
 9899SOL    HW241757   8.307   0.348   8.606  1.7262 -1.3915 -0.3619
 9900SOL     OW41758   7.653   5.684   8.047 -0.5794  0.2324 -0.4090
 9900SOL    HW141759   7.602   5.675   8.132 -1.7240 -1.7015 -1.2579
 9900SOL    HW241760   7.742   5.725   8.065 -0.7668 -0.2674  1.7138
 9901SOL     OW41761   1.267   1.961   2.160  0.0467  0.2986  0.3448
 9901SOL    HW141762   1.212   1.981   2.079  2.0789 -0.8675 -1.3493
 9901SOL    HW241763   1.253   1.866   2.188  0.2010  0.3817  0.7124
 9902SOL     OW41764   3.074   5.515   4.461 -0.6409 -0.6744  0.4152
 9902SOL    HW141765   2.974   5.516   4.467 -0.6626  1.1132  0.1001
 9902SOL    HW241766   3.109   5.608   4.475  0.9900 -1.3059  0.6513
 9903SOL     OW41767   9.175   1.214   6.558 -0.3267  0.0215  0.1707
 9903SOL    HW141768   9.169   1.235   6.655 -2.5580  0.2318  0.0190
 9903SOL    HW241769   9.266   1.181   6.536  0.7293  1.6700  1.9877
 9904SOL     OW41770   4.750   8.057   9.264  0.7317  0.4273 -0.2047
 9904SOL    HW141771   4.848   8.067   9.248  0.6972 -0.9703 -1.2623
 9904SOL    HW241772   4.706   8.014   9.185 -0.9814  2.3608 -0.3573
 9905SOL     OW41773   6.942   3.523   1.581  0.1087 -0.1365 -0.2356
 9905SOL    HW141774   6.871   3.587   1.611 -1.5968 -1.2476 -1.7483
 9905SOL    HW241775   6.967   3.542   1.486  0.4260 -0.9624 -0.3221
 9906SOL     OW41776   6.502   1.718   5.002  0.0484  0.0728 -0.4802
 9906SOL    HW141777   6.591   1.756   4.978  0.0422 -0.0051 -0.6243
 9906SOL    HW241778   6.503   1.619   4.990 -0.1772  0.1160 -0.8508
 9907SOL     OW41779   0.801   5.058   8.561 -0.0066  0.8734  0.0154
 9907SOL    HW141780   0.742   5.013   8.628  0.3550  1.2557  0.6028
 9907SOL    HW241781   0.820   5.152   8.591  2.0502  0.3180  0.5930
 9908SOL     OW41782   9.607   1.431   3.293  0.1620  0.1940 -0.4760
 9908SOL    HW141783   9.620   1.338   3.256 -2.4206  0.8114 -3.1609
 9908SOL    HW241784   9.580   1.492   3.219 -0.9058  2.4913  1.7511
 9909SOL     OW41785   5.850   7.266   5.808 -0.5298 -0.6394 -0.7590
 9909SOL    HW141786   5.863   7.252   5.906 -0.0890  2.4114 -0.3231
 9909SOL    HW241787   5.914   7.208   5.757  2.6682  1.2329  0.9215
 9910SOL     OW41788   0.729   8.750   7.795 -0.4024 -0.1581 -0.6930
 9910SOL    HW141789   0.829   8.745   7.788 -0.3106  0.1361  0.2690
 9910SOL    HW241790   0.703   8.766   7.890 -1.3718 -0.1796 -0.9439
 9911SOL     OW41791   8.148   7.162   6.729  0.2063  0.3204 -0.2260
 9911SOL    HW141792   8.142   7.072   6.686  1.8567  0.2207 -0.2823
 9911SOL    HW241793   8.212   7.158   6.805 -0.4186  1.2323  0.3595
 9912SOL     OW41794   0.847   1.005   8.191 -0.5432 -0.5094  0.2413
 9912SOL    HW141795   0.875   1.069   8.120  1.2209 -0.7664  0.6631
 9912SOL    HW241796   0.752   0.979   8.178 -0.8819  1.1763 -0.6994
 9913SOL     OW41797   2.171   7.860   5.580 -0.2045 -0.2241 -0.0135
 9913SOL    HW141798   2.255   7.826   5.537 -1.6184 -1.8765 -1.5513
 9913SOL    HW241799   2.111   7.899   5.511 -1.8780 -1.5478  0.6591
 9914SOL     OW41800   9.339   6.128   5.612  0.7748 -0.3112 -0.4754
 9914SOL    HW141801   9.364   6.223   5.592  0.7274 -0.2594 -0.2895
 9914SOL    HW241802   9.419   6.079   5.648  0.3103  0.1737  1.2453
 9915SOL     OW41803   4.169   3.156   2.827 -0.1967  0.3229  0.5053
 9915SOL    HW141804   4.237   3.091   2.861 -1.2725 -1.4810 -0.7658
 9915SOL    HW241805   4.155   3.141   2.729 -2.7083  0.4360  0.8335
 9916SOL     OW41806   7.304   3.390   0.004 -0.9461 -0.3434  0.0829
 9916SOL    HW141807   7.307   3.320  -0.066  0.5285  0.6995 -0.9131
 9916SOL    HW241808   7.380   3.377   0.068 -2.6051 -1.6376  1.8770
 9917SOL     OW41809   9.409   1.089   6.539 -0.0766  0.0005 -0.9634
 9917SOL    HW141810   9.440   1.004   6.581  1.6829  1.6409  1.1265
 9917SOL    HW241811   9.483   1.128   6.484 -0.3179  1.0187 -0.5727
 9918SOL     OW41812   4.643   6.995   3.337 -0.4493  0.0352  0.1734
 9918SOL    HW141813   4.675   6.983   3.431  1.9079  1.1183 -0.4705
 9918SOL    HW241814   4.695   6.937   3.275 -0.5932  0.8594 -0.7351
 9919SOL     OW41815   9.489   6.023   2.097 -0.0062  0.2098  0.5047
 9919SOL    HW141816   9.413   5.998   2.037  0.3489  0.0244  0.1312
 9919SOL    HW241817   9.576   6.001   2.052  0.2664  0.3416  0.9652
 9920SOL     OW41818   2.226   1.034   7.703  0.0963  0.2521 -0.0043
 9920SOL    HW141819   2.281   1.105   7.748  0.1030 -0.0600  0.4815
 9920SOL    HW241820   2.265   1.013   7.614  0.2567  0.6598 -0.0320
 9921SOL     OW41821   0.834   1.321   8.148  0.0273  0.2875  0.2819
 9921SOL    HW141822   0.765   1.373   8.098 -0.1907 -0.8530 -0.6151
 9921SOL    HW241823   0.923   1.332   8.103 -0.0898 -0.4005 -0.1289
 9922SOL     OW41824   8.313   8.256   5.927  0.2399 -0.4337 -0.5460
 9922SOL    HW141825   8.239   8.193   5.952  0.8153 -1.3038 -1.0274
 9922SOL    HW241826   8.311   8.272   5.829 -0.3937  0.9387 -0.3242
 9923SOL     OW41827   9.295   2.609   6.442 -0.1495 -0.8721 -0.2540
 9923SOL    HW141828   9.231   2.686   6.450 -0.9367 -1.5188 -0.2298
 9923SOL    HW241829   9.294   2.556   6.527 -2.0964 -2.8030 -1.4396
 9924SOL     OW41830   7.370   1.037   9.374  0.2108 -0.2593 -0.0962
 9924SOL    HW141831   7.364   0.986   9.288  1.7907  0.3669 -0.6122
 9924SOL    HW241832   7.279   1.048   9.413 -0.3120 -2.1147 -0.7678
 9925SOL     OW41833   0.730   8.007   5.570  0.3937  0.7026 -0.0299
 9925SOL    HW141834   0.775   8.097   5.567  1.3298  0.2296 -0.3281
 9925SOL    HW241835   0.799   7.935   5.561 -0.2849 -0.0685  0.8095
 9926SOL     OW41836   6.839   1.856   0.749  0.9966 -0.4684  0.1715
 9926SOL    HW141837   6.912   1.873   0.682 -0.0985 -1.9701 -1.4598
 9926SOL    HW241838   6.774   1.932   0.747  1.7492  0.1950  0.6033
 9927SOL     OW41839   7.718   0.852  10.043  0.3960 -0.5116  0.5690
 9927SOL    HW141840   7.723   0.909  10.125  1.4894 -1.5662  1.2633
 9927SOL    HW241841   7.793   0.875   9.981  0.9217 -1.2790  0.9132
 9928SOL     OW41842   9.471   0.797   3.550  0.0528  0.2530 -0.1074
 9928SOL    HW141843   9.450   0.784   3.647  1.0806  0.0372  0.0925
 9928SOL    HW241844   9.476   0.708   3.505  0.8226  0.2852 -0.0895
 9929SOL     OW41845   2.047   5.460   3.396 -0.5449  0.1841 -0.6194
 9929SOL    HW141846   1.985   5.536   3.420  0.8467  1.0678  0.2756
 9929SOL    HW241847   2.011   5.412   3.316 -2.8381  0.1338  0.4032
 9930SOL     OW41848   6.963   7.441   4.767 -0.3793 -0.4116 -0.2190
 9930SOL    HW141849   7.023   7.362   4.753  0.5013  0.1930  0.1213
 9930SOL    HW241850   7.009   7.508   4.825 -1.5491 -0.1206  0.3771
 9931SOL     OW41851   3.199   1.132   5.917 -0.0562 -0.0835 -0.2303
 9931SOL    HW141852   3.221   1.225   5.946  1.0477 -0.1816 -0.7290
 9931SOL    HW241853   3.190   1.130   5.817 -0.0755 -0.5162 -0.2200
 9932SOL     OW41854   8.467   1.536   0.832  0.2245 -0.8288  0.4734
 9932SOL    HW141855   8.437   1.499   0.920 -2.1618 -0.9048 -0.3229
 9932SOL    HW241856   8.395   1.521   0.764  0.6512  2.2095 -0.7113
 9933SOL     OW41857   4.316   6.522   4.302 -0.5595 -0.5566  0.2607
 9933SOL    HW141858   4.356   6.576   4.376 -1.7692  0.0651  0.4810
 9933SOL    HW241859   4.261   6.581   4.243 -1.0292 -1.3537 -0.1152
 9934SOL     OW41860   8.301   8.697   9.350  0.1941 -0.5485 -0.4951
 9934SOL    HW141861   8.331   8.715   9.443 -0.4205  1.0136 -0.5878
 9934SOL    HW241862   8.278   8.600   9.341  2.7509 -1.2772  0.2465
 9935SOL     OW41863   9.624   1.133   8.781  0.6882 -0.1499 -0.4875
 9935SOL    HW141864   9.623   1.170   8.689  0.4440  1.0611 -0.0059
 9935SOL    HW241865   9.679   1.192   8.840 -0.9855  0.3266  0.6416
 9936SOL     OW41866   3.147   4.518   9.986 -0.2346 -0.0993 -0.0890
 9936SOL    HW141867   3.057   4.476   9.972  0.1424 -0.9156 -0.1099
 9936SOL    HW241868   3.163   4.534  10.083  0.1468 -1.2045  0.0346
 9937SOL     OW41869   0.833   5.509   4.020  0.1233 -0.1848  0.4230
 9937SOL    HW141870   0.783   5.533   3.937 -1.2955 -2.6395  0.5074
 9937SOL    HW241871   0.902   5.440   3.999 -0.0863 -0.6558  1.2145
 9938SOL     OW41872   1.505   9.277   4.786  0.0976  0.3824 -0.0394
 9938SOL    HW141873   1.514   9.366   4.829  0.3881 -0.0025  0.7069
 9938SOL    HW241874   1.596   9.237   4.772  0.0258  0.6400 -1.3052
 9939SOL     OW41875   0.187   3.077   8.087 -1.1782 -0.1604 -0.3638
 9939SOL    HW141876   0.159   3.171   8.106  1.1765  0.3773  0.6405
 9939SOL    HW241877   0.142   3.015   8.152 -1.3756  0.4893  0.1267
 9940SOL     OW41878   4.513   9.877   6.680 -0.1779  0.0161  0.4800
 9940SOL    HW141879   4.446   9.933   6.633 -1.0352 -0.8155  0.7026
 9940SOL    HW241880   4.466   9.809   6.737  0.8418 -1.5936 -0.5713
 9941SOL     OW41881   2.087   9.338   6.105 -0.9632  0.7061  0.5520
 9941SOL    HW141882   2.057   9.382   6.189 -0.9182  0.5804  0.6344
 9941SOL    HW241883   2.167   9.281   6.124 -0.9001  0.7466  0.4068
 9942SOL     OW41884   2.613   1.237   1.103  0.7099 -0.4745  0.5869
 9942SOL    HW141885   2.679   1.246   1.177  0.3149 -2.6655  1.2543
 9942SOL    HW241886   2.525   1.208   1.141  0.0282  0.0806 -0.5466
 9943SOL     OW41887   3.437   0.739   8.249  0.2600  0.0188 -0.1335
 9943SOL    HW141888   3.461   0.670   8.318 -1.1083  0.1611  0.4901
 9943SOL    HW241889   3.374   0.805   8.289 -0.1879  0.3592 -1.4058
 9944SOL     OW41890   7.286   6.507   1.414  0.0632 -0.3248 -0.2111
 9944SOL    HW141891   7.215   6.539   1.477  1.6454  0.6410  1.1265
 9944SOL    HW241892   7.246   6.491   1.324 -1.8999 -0.0691  0.5967
 9945SOL     OW41893   4.139   7.182  10.021  0.4734 -0.1517 -0.1957
 9945SOL    HW141894   4.160   7.276   9.994 -1.8877  1.0397  1.9555
 9945SOL    HW241895   4.205   7.152  10.089  0.0204  0.7112  0.6403
 9946SOL     OW41896   9.163   7.125   2.924 -0.4557  0.6521 -0.6537
 9946SOL    HW141897   9.163   7.057   2.850 -1.1577  0.8329 -0.8230
 9946SOL    HW241898   9.216   7.205   2.896 -0.4670  0.5942 -0.8390
 9947SOL     OW41899   7.504   5.459   0.492 -0.0775 -0.1773 -0.2293
 9947SOL    HW141900   7.406   5.448   0.509  0.1719 -0.7657  0.9007
 9947SOL    HW241901   7.555   5.408   0.561  1.0237 -0.1659 -1.0251
 9948SOL     OW41902   6.070   8.702   6.806  0.5941 -0.3065 -0.0515
 9948SOL    HW141903   6.047   8.799   6.809  0.7633 -0.2928  1.0983
 9948SOL    HW241904   6.161   8.690   6.765 -0.1693 -0.1395 -1.8739
 9949SOL     OW41905   9.254   7.946   5.059 -0.4404  0.6064  0.0557
 9949SOL    HW141906   9.189   7.949   5.136  0.0635  3.0226  0.4098
 9949SOL    HW241907   9.207   7.973   4.975  0.3542  3.5672  0.5213
 9950SOL     OW41908   2.492   8.295   5.166 -0.4498 -0.1391  0.2177
 9950SOL    HW141909   2.498   8.203   5.129  3.3533 -1.3852  3.5519
 9950SOL    HW241910   2.556   8.355   5.118  2.3590 -1.0627  2.6604
 9951SOL     OW41911   9.380   8.533   4.187 -0.4171  0.4657  0.5586
 9951SOL    HW141912   9.427   8.615   4.218  0.5629  0.1659 -0.1087
 9951SOL    HW241913   9.357   8.542   4.090 -2.2897  0.8590  1.0196
 9952SOL     OW41914   8.877   6.271   3.320  0.2991  0.3932 -0.3689
 9952SOL    HW141915   8.909   6.322   3.400  0.4873  0.9475 -0.7930
 9952SOL    HW241916   8.782   6.243   3.334  0.5643 -0.1767  0.3711
 9953SOL     OW41917   8.504   8.730   3.572 -0.1896 -0.0401  0.0802
 9953SOL    HW141918   8.435   8.733   3.500 -0.6916 -1.7936  0.4786
 9953SOL    HW241919   8.595   8.728   3.532 -0.4009  0.7600 -0.4598
 9954SOL     OW41920   6.271   8.940   6.438 -0.1033 -0.1856  0.3019
 9954SOL    HW141921   6.285   8.911   6.532  0.0327  0.2957  0.4283
 9954SOL    HW241922   6.175   8.967   6.425 -0.2987 -0.9408  0.1138
 9955SOL     OW41923   6.286   5.486   2.067  0.2799 -0.7448  0.4908
 9955SOL    HW141924   6.342   5.531   2.137  2.1295 -0.3428 -1.1854
 9955SOL    HW241925   6.208   5.544   2.044  1.6159  0.7683 -0.3069
 9956SOL     OW41926   0.607   9.138   3.590  0.4381 -0.2674 -0.1636
 9956SOL    HW141927   0.544   9.063   3.571 -0.0158  0.1175 -0.1890
 9956SOL    HW241928   0.572   9.222   3.548 -0.3846  0.5147  2.0365
 9957SOL     OW41929   8.450   0.733   3.405  0.0853 -0.1013  0.1828
 9957SOL    HW141930   8.453   0.833   3.411 -0.0679 -0.0579 -0.4363
 9957SOL    HW241931   8.516   0.702   3.337  0.9523 -0.5022  1.1877
 9958SOL     OW41932   1.935   5.952   5.453  0.1605  0.1982 -0.0847
 9958SOL    HW141933   1.838   5.972   5.465  0.7881  1.6008  3.0540
 9958SOL    HW241934   1.967   5.892   5.526  1.4349 -1.1611 -1.7122
 9959SOL     OW41935   7.214   2.131   4.093  0.0901 -0.7256  0.4396
 9959SOL    HW141936   7.297   2.186   4.088  0.9751 -1.9617  1.1922
 9959SOL    HW241937   7.145   2.170   4.033  0.6631  1.2330  1.0163
 9960SOL     OW41938   8.852   6.885   7.005 -0.3201  0.4220  0.3300
 9960SOL    HW141939   8.826   6.957   7.069  0.8601 -1.3291  2.8745
 9960SOL    HW241940   8.884   6.926   6.920  2.1004  3.0046  2.3832
 9961SOL     OW41941   0.472   0.465   8.639  0.0905 -0.0649  0.1874
 9961SOL    HW141942   0.480   0.492   8.543 -0.6291 -0.7123 -0.0597
 9961SOL    HW241943   0.538   0.516   8.693 -0.6306  1.5515 -0.4036
 9962SOL     OW41944   3.580   1.711   7.845 -0.1115  0.1604  0.1275
 9962SOL    HW141945   3.654   1.743   7.904  0.0609  0.9526 -0.5131
 9962SOL    HW241946   3.556   1.782   7.779 -0.6951 -0.5038 -0.3893
 9963SOL     OW41947   6.679   4.279   8.123  0.5397 -0.1004  0.3448
 9963SOL    HW141948   6.716   4.367   8.095  1.9744 -1.3492 -1.7231
 9963SOL    HW241949   6.728   4.205   8.078 -2.7987 -1.8828 -0.5270
 9964SOL     OW41950   3.252   5.541   0.227  0.0945 -0.2674 -0.6962
 9964SOL    HW141951   3.342   5.499   0.240  0.6477  0.9762 -0.4080
 9964SOL    HW241952   3.229   5.540   0.130  1.2385  1.0020 -1.0093
 9965SOL     OW41953   0.315   1.824   8.745  0.5894  0.2324  0.6735
 9965SOL    HW141954   0.300   1.917   8.779  1.2418  0.9922 -1.0868
 9965SOL    HW241955   0.246   1.802   8.676  1.2516 -0.0919  0.1076
 9966SOL     OW41956   2.356   1.234   9.725 -0.3266  0.2713 -0.1239
 9966SOL    HW141957   2.276   1.190   9.765  0.3321 -1.9562 -1.1810
 9966SOL    HW241958   2.437   1.212   9.779  0.0401  0.0215 -0.7696
 9967SOL     OW41959   9.025   8.946   7.975 -0.7939  0.4483  0.1998
 9967SOL    HW141960   9.063   8.855   7.993 -1.1440  0.0705 -0.9332
 9967SOL    HW241961   9.068   9.012   8.036 -0.9262 -0.5633  1.4207
 9968SOL     OW41962   0.491   7.278   6.075  0.0204  0.2031  0.2781
 9968SOL    HW141963   0.576   7.260   6.025 -0.9292  0.3277 -1.4013
 9968SOL    HW241964   0.434   7.341   6.023 -1.5516 -0.6704  0.8966
 9969SOL     OW41965   9.230   2.466   4.341 -0.2102 -0.4779  0.1849
 9969SOL    HW141966   9.176   2.543   4.307  1.0431 -0.7408 -2.5613
 9969SOL    HW241967   9.174   2.411   4.402 -1.6637  1.6509  0.8421
 9970SOL     OW41968   7.359   8.129   2.822 -0.1677 -0.3634  0.0286
 9970SOL    HW141969   7.340   8.036   2.790  1.6898 -0.3314 -1.2326
 9970SOL    HW241970   7.448   8.132   2.866 -1.3808  0.2747  2.5099
 9971SOL     OW41971   2.483   3.101   7.195 -0.0194  0.0876  0.0561
 9971SOL    HW141972   2.402   3.128   7.246 -0.3619 -1.0978  0.1664
 9971SOL    HW241973   2.564   3.115   7.251 -0.1609  1.0801  0.0236
 9972SOL     OW41974   6.632   1.617   9.560 -0.0833  0.3312 -0.2788
 9972SOL    HW141975   6.710   1.566   9.597 -0.1707 -1.1477 -2.0270
 9972SOL    HW241976   6.657   1.657   9.471 -0.8812  1.0281 -0.1983
 9973SOL     OW41977   5.626   4.607   8.811 -0.5733 -0.2331 -0.2537
 9973SOL    HW141978   5.577   4.579   8.894 -1.3692  0.2844 -0.5464
 9973SOL    HW241979   5.614   4.538   8.740 -1.3582  0.1622 -0.5111
 9974SOL     OW41980   2.256   4.093   9.916  0.1685 -0.6222  0.8742
 9974SOL    HW141981   2.215   4.013   9.872  0.1865 -0.3994  0.4447
 9974SOL    HW241982   2.190   4.168   9.917  0.9069  0.0961 -0.8275
 9975SOL     OW41983   0.362   5.481   4.823  0.6745 -0.0136 -0.1074
 9975SOL    HW141984   0.408   5.534   4.895 -0.0195  0.7393 -0.2051
 9975SOL    HW241985   0.385   5.520   4.734  1.0622 -0.5826 -0.2579
 9976SOL     OW41986   8.094   0.629   0.941 -0.0891  0.2531 -0.5056
 9976SOL    HW141987   8.117   0.724   0.920  2.5969 -0.2665 -0.0217
 9976SOL    HW241988   8.154   0.595   1.013 -1.9520 -1.4028  0.3172
 9977SOL     OW41989   5.218   3.316   6.779 -0.1436 -0.0302  0.3417
 9977SOL    HW141990   5.306   3.330   6.734  0.1314 -1.9523  0.2095
 9977SOL    HW241991   5.144   3.350   6.720  0.4707  1.0462  0.1899
 9978SOL     OW41992   1.435   9.569   9.638  0.8028  0.1294  0.1962
 9978SOL    HW141993   1.420   9.510   9.559 -0.2921 -0.4586  0.8361
 9978SOL    HW241994   1.390   9.530   9.718  0.7989  1.3820  0.8195
 9979SOL     OW41995   9.556   8.164   8.606  0.1492 -0.8968 -0.0397
 9979SOL    HW141996   9.499   8.236   8.646  1.6871 -0.2493  1.0429
 9979SOL    HW241997   9.501   8.082   8.593 -1.0287 -0.2996  1.0267
 9980SOL     OW41998   0.582   0.014   9.661 -0.6383 -0.6640  0.0698
 9980SOL    HW141999   0.510   0.070   9.703 -0.8356  0.4981 -1.7203
 9980SOL    HW242000   0.642   0.073   9.607  0.4045 -1.9163 -0.1503
 9981SOL     OW42001   2.859   0.595   4.108 -0.1586 -0.1921 -0.0104
 9981SOL    HW142002   2.834   0.498   4.106  1.0323 -0.4868 -1.5189
 9981SOL    HW242003   2.812   0.644   4.034  0.3132  0.0884 -0.1356
 9982SOL     OW42004   8.876   0.213   0.126 -0.8893  0.3077 -0.0570
 9982SOL    HW142005   8.816   0.227   0.205 -2.8699  1.3384 -1.7169
 9982SOL    HW242006   8.954   0.157   0.154 -2.0812 -0.2141  2.3839
 9983SOL     OW42007   3.289   3.642   3.325 -0.0490 -0.5233  0.0410
 9983SOL    HW142008   3.268   3.740   3.329 -0.0232 -0.4898 -0.5052
 9983SOL    HW242009   3.205   3.590   3.310 -0.1492 -0.6371  1.0008
 9984SOL     OW42010   1.096   5.082   6.615  0.3190  0.7258 -0.3592
 9984SOL    HW142011   1.078   5.014   6.544  0.7566  0.9820 -0.7248
 9984SOL    HW242012   1.164   5.147   6.582  0.5315  0.8475  0.2993
 9985SOL     OW42013   7.513   0.282   8.091  0.2771 -0.0541 -0.5272
 9985SOL    HW142014   7.444   0.351   8.071  0.5543  0.1967 -0.6293
 9985SOL    HW242015   7.576   0.275   8.013  0.4641 -0.1579 -0.3667
 9986SOL     OW42016   0.126   9.617   3.018  0.2891 -0.0266 -0.4228
 9986SOL    HW142017   0.102   9.524   3.045  2.9288 -1.2313 -1.9876
 9986SOL    HW242018   0.211   9.615   2.966  0.4977  3.3114 -0.3011
 9987SOL     OW42019   1.251   6.553   9.163 -0.0030  0.3032  0.7392
 9987SOL    HW142020   1.344   6.537   9.129 -0.0647 -0.1736  0.7823
 9987SOL    HW242021   1.199   6.468   9.157 -0.6898  0.7725 -0.0632
 9988SOL     OW42022   8.642   8.884   9.807 -0.5385 -0.3394 -0.1866
 9988SOL    HW142023   8.642   8.795   9.761 -2.7728 -0.3545 -0.2089
 9988SOL    HW242024   8.606   8.953   9.744  0.4033  0.4404  0.1193
 9989SOL     OW42025   1.109   3.857   6.834 -0.0571 -0.8588  0.0524
 9989SOL    HW142026   1.041   3.814   6.894  0.9682 -0.7588  1.2850
 9989SOL    HW242027   1.159   3.786   6.784 -1.1544 -0.9296 -0.9963
 9990SOL     OW42028   2.149   9.174   4.391 -0.3535  0.1017 -0.2335
 9990SOL    HW142029   2.151   9.182   4.291  0.1040 -1.3299 -0.3453
 9990SOL    HW242030   2.103   9.089   4.417 -1.0969  0.8052  0.7983
 9991SOL     OW42031   9.301   0.005   3.383 -0.3129  0.1784 -0.1248
 9991SOL    HW142032   9.230  -0.061   3.409 -0.0917  0.1727  0.4730
 9991SOL    HW242033   9.350  -0.029   3.303  0.2912 -0.7415  0.6282
 9992SOL     OW42034   8.525   7.844   4.601  0.2422  0.3736  1.0369
 9992SOL    HW142035   8.467   7.860   4.681 -0.3127 -0.9940  0.9413
 9992SOL    HW242036   8.605   7.790   4.627 -1.1003 -2.0880  0.3283
 9993SOL     OW42037   6.280   0.265   3.641 -0.3948  0.0159  0.0268
 9993SOL    HW142038   6.289   0.178   3.592 -1.2853 -0.3986  0.5936
 9993SOL    HW242039   6.341   0.265   3.720  0.3671  0.3167 -0.5638
 9994SOL     OW42040   2.336   3.585   6.682  0.2920 -0.4984  0.6247
 9994SOL    HW142041   2.240   3.603   6.702  0.4103  0.6869  0.1384
 9994SOL    HW242042   2.345   3.545   6.591  0.3194  0.0317  0.3939
 9995SOL     OW42043   1.702   3.636   0.340  0.7299  0.4461 -0.4394
 9995SOL    HW142044   1.770   3.568   0.313  0.8944  0.0920  0.8600
 9995SOL    HW242045   1.617   3.590   0.366 -0.1758  0.9038 -2.4481
 9996SOL     OW42046   4.493   4.341   5.235  0.4244  0.4132  0.2173
 9996SOL    HW142047   4.516   4.250   5.268  2.2716  0.1206 -1.7452
 9996SOL    HW242048   4.394   4.346   5.218  0.2189 -1.0350  0.8662
 9997SOL     OW42049   8.308   4.786   4.457 -0.3088  0.3200 -0.5362
 9997SOL    HW142050   8.246   4.779   4.536  1.2066  1.3214  0.7852
 9997SOL    HW242051   8.306   4.880   4.423 -0.7802 -0.0575 -1.5715
 9998SOL     OW42052   0.680   4.388   1.235  0.7393 -0.7113 -0.5064
 9998SOL    HW142053   0.652   4.483   1.251  1.4530 -0.8526  1.7053
 9998SOL    HW242054   0.780   4.381   1.242  0.7982 -1.4128 -1.8936
 9999SOL     OW42055   6.592   7.211   3.370  0.2681  0.2430 -0.6563
 9999SOL    HW142056   6.640   7.298   3.381 -1.3584  1.1352 -0.4428
 9999SOL    HW242057   6.628   7.145   3.435  0.3347  1.2761  0.3733
10000SOL     OW42058   5.698   3.968   2.693 -0.4730 -0.3929 -0.0366
10000SOL    HW142059   5.684   4.061   2.727  1.4237  0.0543 -0.4051
10000SOL    HW242060   5.641   3.954   2.612 -1.5124  0.1214  0.6088
10001SOL     OW42061   9.169   5.282   0.039 -0.0811  0.0327 -0.2210
10001SOL    HW142062   9.261   5.263   0.073 -0.1249 -0.0175 -0.1303
10001SOL    HW242063   9.102   5.233   0.095 -0.1167 -0.4951 -0.7267
10002SOL     OW42064   7.175   0.741   6.127 -0.1301  0.1224  0.5951
10002SOL    HW142065   7.246   0.809   6.144 -0.2443 -0.1240  2.1315
10002SOL    HW242066   7.180   0.670   6.197 -2.0819  0.2480  0.8769
10003SOL     OW42067   9.924   3.029   3.994  0.3012  0.7299 -0.2353
10003SOL    HW142068   9.988   3.089   3.946  1.0574  0.2223  0.1217
10003SOL    HW242069   9.839   3.024   3.942  1.2332 -0.1173 -1.7286
10004SOL     OW42070   6.191   8.006   4.262  0.3975 -0.5016 -0.3621
10004SOL    HW142071   6.253   7.946   4.211  0.7123  1.7573 -2.7398
10004SOL    HW242072   6.244   8.063   4.324  0.3427 -0.8548  0.0166
10005SOL     OW42073   9.536   0.249   2.615 -0.5063 -0.0106  0.1886
10005SOL    HW142074   9.436   0.252   2.624 -0.5166 -0.9107  0.3908
10005SOL    HW242075   9.573   0.341   2.629 -1.3256  0.3703 -0.1115
10006SOL     OW42076   3.162   9.549   2.414 -0.6760 -0.2758 -0.2074
10006SOL    HW142077   3.156   9.551   2.514  0.5078 -0.5067 -0.1282
10006SOL    HW242078   3.253   9.581   2.386 -0.4353 -1.7645 -1.1448
10007SOL     OW42079   4.950   6.333   0.364  0.4077  0.3224  0.0733
10007SOL    HW142080   5.014   6.389   0.312 -1.0378  0.0407 -2.1158
10007SOL    HW242081   4.885   6.291   0.300  0.2892 -2.2885  1.8617
10008SOL     OW42082   4.150   7.487   1.393 -0.3562  0.4391  0.6288
10008SOL    HW142083   4.133   7.424   1.317 -1.5687  0.8795  0.5290
10008SOL    HW242084   4.117   7.447   1.478  0.6821  0.0963  0.8730
10009SOL     OW42085   2.456   4.078   7.873 -0.3536  0.6351 -0.0798
10009SOL    HW142086   2.457   4.141   7.951  2.4830 -0.1129  0.5166
10009SOL    HW242087   2.548   4.043   7.857 -1.7203 -2.7181 -0.9396
10010SOL     OW42088   3.516   1.901   7.654  0.0157 -0.1576 -0.4155
10010SOL    HW142089   3.467   1.982   7.621  0.5460  0.7050  0.8279
10010SOL    HW242090   3.613   1.910   7.633  0.0978 -0.3925 -0.1479
10011SOL     OW42091   3.127   7.586   6.958  0.4348  0.2008  0.5368
10011SOL    HW142092   3.057   7.564   6.891  0.2668  0.0751  0.7553
10011SOL    HW242093   3.091   7.573   7.050  1.4720 -2.2219  0.6564
10012SOL     OW42094   8.328   0.265   2.548 -0.3223 -0.7731  0.3727
10012SOL    HW142095   8.347   0.282   2.645  0.7767 -0.5389  0.1101
10012SOL    HW242096   8.409   0.284   2.493 -1.3014  0.2481 -0.7441
10013SOL     OW42097   6.373   9.708   6.442 -0.4127 -0.5761  0.4016
10013SOL    HW142098   6.362   9.799   6.403  1.4619 -0.4670  0.0809
10013SOL    HW242099   6.327   9.641   6.384 -1.0764  0.0562  0.1922
10014SOL     OW42100   1.925   2.539   5.240  0.4232 -0.1897  0.0646
10014SOL    HW142101   1.910   2.477   5.163  0.6661 -0.9291  0.6043
10014SOL    HW242102   1.846   2.538   5.300  0.8329 -0.7472  0.6010
10015SOL     OW42103   4.522   9.983   4.429  0.2147 -0.2199 -0.1675
10015SOL    HW142104   4.508   9.994   4.331  2.2393 -1.8004 -0.6682
10015SOL    HW242105   4.555   9.891   4.448  0.1838  0.1791  1.9719
10016SOL     OW42106   1.557   1.269   2.562  0.5523  0.4443 -0.8761
10016SOL    HW142107   1.602   1.204   2.501 -0.4603  0.7207 -1.9302
10016SOL    HW242108   1.474   1.227   2.600  1.3825  0.1332  0.6250
10017SOL     OW42109   0.097   3.424   7.095  0.0425 -0.4082 -0.4327
10017SOL    HW142110   0.140   3.424   7.005 -0.1568 -1.2322 -0.5311
10017SOL    HW242111   0.015   3.367   7.093 -2.1385  2.5796 -0.7449
10018SOL     OW42112   9.004   0.403   2.836  0.2458 -0.4909  0.1033
10018SOL    HW142113   8.951   0.481   2.869  0.9118 -0.7469  1.8129
10018SOL    HW242114   9.075   0.435   2.774 -2.0988 -0.1759 -2.5656
10019SOL     OW42115   3.837   2.106   1.339 -0.3861  0.1543 -0.3623
10019SOL    HW142116   3.839   2.006   1.339 -1.1272  0.1142  1.7717
10019SOL    HW242117   3.778   2.138   1.265  1.1390 -0.9160 -2.0938
10020SOL     OW42118   3.698   2.208   9.815 -0.4909 -0.0867 -0.4596
10020SOL    HW142119   3.642   2.146   9.870 -0.9660  1.2468  0.5813
10020SOL    HW242120   3.770   2.247   9.872  0.1684 -0.1272 -1.2579
10021SOL     OW42121   7.687   3.260   6.388 -0.0519  0.0274  0.3641
10021SOL    HW142122   7.784   3.268   6.363  0.6209  1.1924  3.1427
10021SOL    HW242123   7.630   3.295   6.313  1.6621 -0.6392 -1.2885
10022SOL     OW42124   2.548   0.132   9.260  0.1161  0.2977  0.3650
10022SOL    HW142125   2.456   0.093   9.266  0.1342 -0.4282 -2.8370
10022SOL    HW242126   2.616   0.061   9.275  0.1572  0.3499  0.4281
10023SOL     OW42127   2.750   7.548   7.087 -0.4986 -0.1184 -0.3985
10023SOL    HW142128   2.688   7.471   7.103 -1.5870  0.8242 -0.0055
10023SOL    HW242129   2.707   7.632   7.119  0.3863  0.7543 -1.4761
10024SOL     OW42130   5.767   2.305   9.334  0.6817  0.0425  0.1950
10024SOL    HW142131   5.720   2.222   9.363  0.7387 -0.1638 -0.3026
10024SOL    HW242132   5.808   2.350   9.414 -0.9318  0.5948  0.7385
10025SOL     OW42133   5.037   7.325   5.329  0.0413  0.5969  0.1856
10025SOL    HW142134   5.123   7.307   5.376  0.0456  0.4511  0.1226
10025SOL    HW242135   4.961   7.292   5.386  0.0079  1.0177  0.3870
10026SOL     OW42136   5.032   0.035   6.190 -0.3398  0.0233 -0.1808
10026SOL    HW142137   4.980   0.071   6.113 -0.1455 -2.4274 -1.5163
10026SOL    HW242138   5.116   0.087   6.200  0.0119 -0.1216 -2.1412
10027SOL     OW42139   2.857   8.759   4.473  0.7743 -0.0923 -0.4147
10027SOL    HW142140   2.890   8.779   4.566 -1.2638 -0.9938  0.5334
10027SOL    HW242141   2.886   8.667   4.447  1.0317  0.0238 -0.5453
10028SOL     OW42142   8.576   2.624   5.798  0.3541  0.4377  0.1141
10028SOL    HW142143   8.534   2.567   5.727  2.9553  0.4935 -1.5587
10028SOL    HW242144   8.529   2.711   5.803  1.0568  1.0407 -2.6906
10029SOL     OW42145   0.254   5.926   1.879  0.2386  0.7574 -0.5802
10029SOL    HW142146   0.288   5.987   1.807 -1.4334  1.4094 -0.8473
10029SOL    HW242147   0.268   5.831   1.851  1.7572  1.0021 -0.6988
10030SOL     OW42148   9.861   4.682   1.279 -0.3985  0.4164  0.3488
10030SOL    HW142149   9.959   4.688   1.260 -0.2565 -0.7894  0.6814
10030SOL    HW242150   9.815   4.760   1.237  0.6605  0.8279 -0.0797
10031SOL     OW42151   8.523   5.172   7.152  0.0069  0.1966 -0.9145
10031SOL    HW142152   8.606   5.224   7.174  0.1606  0.6851 -2.5317
10031SOL    HW242153   8.453   5.190   7.220  0.3107  1.9515 -1.0566
10032SOL     OW42154   0.300   8.563   9.662 -0.0251  0.3273  0.2654
10032SOL    HW142155   0.368   8.507   9.617 -1.0998 -1.4022  0.7421
10032SOL    HW242156   0.219   8.570   9.604  0.3314  1.9101 -0.0618
10033SOL     OW42157   7.466   8.911   6.729 -0.0896  0.4370 -0.6341
10033SOL    HW142158   7.427   8.956   6.649 -0.4108  0.6389 -0.3667
10033SOL    HW242159   7.481   8.814   6.710 -1.7067  0.1294 -0.3912
10034SOL     OW42160   4.110   4.893   5.126  0.0513  0.2693 -0.3724
10034SOL    HW142161   4.197   4.898   5.175  0.2796  0.1533 -0.7624
10034SOL    HW242162   4.035   4.919   5.187  0.5251  1.9570 -0.4690
10035SOL     OW42163   3.069   3.801   5.052  0.3065  0.2589  0.3274
10035SOL    HW142164   2.978   3.790   5.091  0.4275 -0.1782  0.4919
10035SOL    HW242165   3.062   3.824   4.955  0.0060  1.0707  0.5370
10036SOL     OW42166   5.059   3.036   8.058 -0.0648 -0.0362  0.0437
10036SOL    HW142167   5.089   3.020   8.152  0.7151  0.6259 -0.0906
10036SOL    HW242168   5.012   2.954   8.023 -0.1133 -0.3776  0.9114
10037SOL     OW42169   7.532   1.134   7.296  0.4543  0.3098  0.1268
10037SOL    HW142170   7.606   1.199   7.279  1.9251 -1.8181 -1.9496
10037SOL    HW242171   7.496   1.099   7.210 -3.4343  1.7093  1.0875
10038SOL     OW42172   3.077   6.679   3.780  0.1321 -0.3369 -0.0326
10038SOL    HW142173   3.038   6.625   3.704 -0.8257 -1.2617  1.0960
10038SOL    HW242174   3.071   6.627   3.864  1.8232  0.4251  0.5794
10039SOL     OW42175   8.292   5.495   7.674 -0.0157 -0.0979 -0.1998
10039SOL    HW142176   8.230   5.448   7.736  1.0535 -0.9889  0.2060
10039SOL    HW242177   8.280   5.460   7.581 -0.9063  0.5284 -0.3272
10040SOL     OW42178   8.778   8.332   2.643 -0.1847 -0.3252  0.0165
10040SOL    HW142179   8.844   8.399   2.676  1.0578 -2.1129  1.2765
10040SOL    HW242180   8.780   8.328   2.543  1.3923 -0.1479  0.0362
10041SOL     OW42181   8.019   6.167   4.507  0.6937 -0.1136  0.2061
10041SOL    HW142182   8.087   6.236   4.534  1.2160 -1.3500  2.1968
10041SOL    HW242183   8.066   6.085   4.475  0.1028 -0.2045 -0.4381
10042SOL     OW42184   2.099   4.226   5.328  0.1452 -0.2507 -0.0317
10042SOL    HW142185   2.134   4.147   5.379 -0.6853 -0.4958  0.1734
10042SOL    HW242186   2.138   4.310   5.365  1.3677 -0.5907 -0.5297
10043SOL     OW42187   7.090   3.114   0.370 -0.3999  0.5457 -0.0210
10043SOL    HW142188   7.108   3.187   0.436 -0.8975  1.2845 -0.6940
10043SOL    HW242189   7.175   3.068   0.347  0.0110  1.3011 -0.0365
10044SOL     OW42190   4.327   0.162   1.198  0.3590 -0.1115 -0.0941
10044SOL    HW142191   4.293   0.199   1.285  1.7982 -0.5015  0.6651
10044SOL    HW242192   4.326   0.233   1.128  0.1680  0.4964  0.5217
10045SOL     OW42193   8.002   2.789   2.812  0.6027 -0.2935 -0.3748
10045SOL    HW142194   7.972   2.878   2.847 -0.4011  0.1738 -2.3804
10045SOL    HW242195   8.079   2.802   2.749  0.7458 -0.8854 -0.3211
10046SOL     OW42196   8.478   9.882   0.478  0.4759 -0.3924 -0.2141
10046SOL    HW142197   8.451   9.838   0.392  2.0844 -0.1161 -0.8765
10046SOL    HW242198   8.519   9.814   0.538  4.4983  0.4137 -1.8884
10047SOL     OW42199   3.883   1.632   0.854 -0.0445  0.1021  0.0101
10047SOL    HW142200   3.860   1.572   0.931 -1.9629  0.0906 -0.5564
10047SOL    HW242201   3.883   1.580   0.769  1.4528  0.2490 -0.0962
10048SOL     OW42202   7.920   2.202   5.035  0.6128 -0.3338  0.6251
10048SOL    HW142203   7.867   2.240   4.960  1.6930 -0.4989 -0.2458
10048SOL    HW242204   7.890   2.241   5.122  0.3129  0.9273 -0.0422
10049SOL     OW42205   5.232   8.254   2.160  0.2646  0.3206 -0.2649
10049SOL    HW142206   5.187   8.339   2.133  0.4504 -0.0510 -1.8023
10049SOL    HW242207   5.193   8.222   2.246 -1.5808  0.6480 -0.9340
10050SOL     OW42208   2.804   7.870   3.565 -0.2506  0.1454  0.2945
10050SOL    HW142209   2.796   7.785   3.617  0.0430 -0.8364 -1.2431
10050SOL    HW242210   2.717   7.891   3.520 -0.2055  0.4606  0.3487
10051SOL     OW42211   2.145   1.603   6.287 -0.0496  0.6019  0.5860
10051SOL    HW142212   2.071   1.536   6.278 -0.9890  1.7796 -0.9351
10051SOL    HW242213   2.192   1.612   6.199  1.0074  0.8626  1.1815
10052SOL     OW42214   3.064   3.727   7.713 -0.1866 -0.2608 -0.1174
10052SOL    HW142215   2.971   3.691   7.703 -0.4945  0.3995  0.3511
10052SOL    HW242216   3.120   3.660   7.761 -1.0892  0.3987  1.9000
10053SOL     OW42217   3.771   0.489   4.467  0.0594 -0.5419  0.1857
10053SOL    HW142218   3.849   0.455   4.519  1.1004  1.5121  0.0069
10053SOL    HW242219   3.687   0.452   4.507  0.9034 -0.0136  2.5793
10054SOL     OW42220   0.335   1.978   8.169 -0.1318 -0.6417  0.1418
10054SOL    HW142221   0.414   2.020   8.124  0.2060 -1.6226 -0.2013
10054SOL    HW242222   0.294   2.043   8.233  0.5919  0.0798 -0.1231
10055SOL     OW42223   3.577   5.361   1.567  0.0960 -0.2520 -0.7637
10055SOL    HW142224   3.542   5.307   1.490 -0.4761  0.2746 -0.8702
10055SOL    HW242225   3.659   5.411   1.537  1.3802 -2.0267 -0.3175
10056SOL     OW42226   8.962   0.975   5.038 -0.1405 -0.2514 -0.0154
10056SOL    HW142227   9.049   0.974   5.086 -0.1417 -0.0145 -0.0043
10056SOL    HW242228   8.977   0.957   4.941 -0.5476 -4.7678  0.6744
10057SOL     OW42229   1.034   3.581   3.842  1.1093  0.4055  0.4251
10057SOL    HW142230   0.938   3.555   3.854  0.9875  0.5290 -0.2349
10057SOL    HW242231   1.048   3.675   3.873  0.5498  1.1242 -1.4012
10058SOL     OW42232   1.234   8.399   6.080  0.4399 -0.6390  0.0997
10058SOL    HW142233   1.154   8.360   6.125  1.6455  0.3108  3.1385
10058SOL    HW242234   1.240   8.497   6.101  2.7915 -0.8491  0.5271
10059SOL     OW42235   9.087   0.061   9.779  0.5073 -0.7459  0.0572
10059SOL    HW142236   9.013   0.076   9.845  0.5736  0.2948 -0.0991
10059SOL    HW242237   9.107  -0.037   9.773 -0.1295 -0.9315  0.8944
10060SOL     OW42238   2.612   0.519   6.242  0.1980  0.5343 -0.0352
10060SOL    HW142239   2.556   0.524   6.160  2.2572 -0.6494 -1.5647
10060SOL    HW242240   2.580   0.443   6.299 -0.6381  0.7597 -0.1995
10061SOL     OW42241   9.307   2.245   5.422 -0.4757  0.1573 -0.0507
10061SOL    HW142242   9.282   2.188   5.344  1.7373  0.5963 -1.1408
10061SOL    HW242243   9.315   2.340   5.393  0.4920  0.3055  0.6728
10062SOL     OW42244   4.338   9.904   8.377 -0.9960 -0.1738  0.4192
10062SOL    HW142245   4.326   9.821   8.322  0.0075 -0.7343  1.0174
10062SOL    HW242246   4.383   9.974   8.322 -1.7691 -0.0580 -0.0653
10063SOL     OW42247   3.689   3.230   0.884  0.4150  0.5134 -0.7450
10063SOL    HW142248   3.762   3.184   0.934  0.2991 -0.8239 -1.7768
10063SOL    HW242249   3.601   3.205   0.924  0.4356  0.8494 -0.4969
10064SOL     OW42250   9.379   0.723   7.438  0.2117  0.3925  0.1103
10064SOL    HW142251   9.311   0.682   7.378  1.3411 -1.3709 -0.0045
10064SOL    HW242252   9.434   0.788   7.386  0.8834 -0.7826 -0.6756
10065SOL     OW42253   4.052   0.657   2.040 -0.5394 -0.2691 -0.1273
10065SOL    HW142254   4.039   0.588   1.969  0.4067  1.3136 -1.8946
10065SOL    HW242255   4.147   0.659   2.069 -0.4251  0.6828 -0.5293
10066SOL     OW42256   4.255   7.979   5.596  0.6185 -0.3078  0.6379
10066SOL    HW142257   4.310   8.062   5.603 -0.0130  0.0225  1.8845
10066SOL    HW242258   4.252   7.934   5.685 -0.8833 -0.4599  0.5265
10067SOL     OW42259   3.504   5.740   1.619 -0.3682 -0.3883  0.2372
10067SOL    HW142260   3.439   5.794   1.563  0.3323  0.9717  0.7181
10067SOL    HW242261   3.563   5.802   1.670 -0.2620 -1.6395  1.6478
10068SOL     OW42262   3.654   6.576   9.239 -0.2957  0.2825  0.6657
10068SOL    HW142263   3.585   6.527   9.185 -1.8593  2.6787  0.4081
10068SOL    HW242264   3.692   6.650   9.183  2.9962 -1.4211  0.5839
10069SOL     OW42265   7.381   1.563   8.470  0.1740 -0.0738  0.1355
10069SOL    HW142266   7.305   1.623   8.443  0.7864  0.6614  0.0443
10069SOL    HW242267   7.368   1.535   8.565 -0.5907 -0.5340 -0.0994
10070SOL     OW42268   9.143   8.056   4.847  0.2669 -0.0404 -0.0197
10070SOL    HW142269   9.105   7.971   4.810  1.0069 -0.3807  0.0081
10070SOL    HW242270   9.199   8.101   4.777  0.7694 -0.1288  0.3276
10071SOL     OW42271   0.607   0.107   7.523 -0.4982  0.2612  0.1662
10071SOL    HW142272   0.690   0.158   7.543 -0.4418  0.3337 -0.2579
10071SOL    HW242273   0.531   0.170   7.508 -0.6926  0.1881  0.8254
10072SOL     OW42274   5.736   1.730   4.517  0.8125  0.4680  0.4129
10072SOL    HW142275   5.829   1.694   4.513  1.2520  1.6694 -0.7505
10072SOL    HW242276   5.685   1.701   4.435  0.2118 -0.0670  0.9739
10073SOL     OW42277   5.005   0.756   0.099 -0.9330 -0.1982  0.1695
10073SOL    HW142278   4.996   0.667   0.144  0.5999 -0.5297 -0.1341
10073SOL    HW242279   5.014   0.743   0.000 -3.2431  0.4632 -0.1394
10074SOL     OW42280   1.138   6.109   7.853 -0.6175 -0.5241  0.1311
10074SOL    HW142281   1.170   6.176   7.920 -0.2221  0.0339 -0.6072
10074SOL    HW242282   1.158   6.017   7.885  0.0486 -0.2375  0.5395
10075SOL     OW42283   7.839   4.730   6.037  0.3426 -0.0901 -0.5812
10075SOL    HW142284   7.844   4.695   5.944  0.1889 -1.5774 -0.0345
10075SOL    HW242285   7.930   4.724   6.080  0.2523 -0.0958 -0.3893
10076SOL     OW42286   3.034   9.934   6.073  0.9103  0.2806  0.0097
10076SOL    HW142287   2.991  10.021   6.099 -0.0911 -0.0722 -0.4830
10076SOL    HW242288   2.966   9.861   6.071  1.5559 -0.3182 -0.5945
10077SOL     OW42289   5.643   8.837   7.893 -0.1975  0.7359  0.5007
10077SOL    HW142290   5.722   8.833   7.832 -0.1748 -0.0878  0.5781
10077SOL    HW242291   5.584   8.913   7.867 -1.0269 -0.5842 -1.5874
10078SOL     OW42292   1.902   1.630   7.022 -0.4618  0.5416 -0.4415
10078SOL    HW142293   1.839   1.698   7.058 -0.3158  1.2809 -1.5829
10078SOL    HW242294   1.923   1.563   7.094  0.4063  2.4064  1.0813
10079SOL     OW42295   1.984   5.449   4.429 -1.2629 -0.5878 -0.0940
10079SOL    HW142296   1.901   5.495   4.397 -0.7231 -0.5962 -1.5643
10079SOL    HW242297   2.059   5.516   4.432 -1.7388 -0.1165  3.1021
10080SOL     OW42298   9.378   9.994   5.514  0.4485  0.2620  0.1548
10080SOL    HW142299   9.279   9.987   5.523  0.3333  1.4637 -0.1325
10080SOL    HW242300   9.403   9.996   5.417  0.6925  0.7170  0.2236
10081SOL     OW42301   9.905   4.227   6.936  0.0304 -0.0745 -1.0383
10081SOL    HW142302   9.846   4.232   7.016  0.9289  0.5359 -0.3948
10081SOL    HW242303   9.849   4.222   6.853 -0.9068 -1.8231 -0.3203
10082SOL     OW42304   7.947   2.072   4.239 -0.2231  0.1008 -0.3706
10082SOL    HW142305   7.976   2.008   4.167  1.1018 -0.2304  0.4516
10082SOL    HW242306   7.942   2.164   4.201 -0.9860 -0.2957 -1.2649
10083SOL     OW42307   8.126   1.507   2.858  0.2726  0.1144  0.1063
10083SOL    HW142308   8.030   1.536   2.860  0.7115  1.5560  2.7895
10083SOL    HW242309   8.133   1.418   2.813 -2.1033  0.6832 -1.5321
10084SOL     OW42310   0.623   0.035   5.689 -0.3723  0.5584 -0.0798
10084SOL    HW142311   0.643   0.118   5.742 -1.4517 -0.4408  1.9582
10084SOL    HW242312   0.524   0.029   5.674 -0.3649 -0.6819  0.3454
10085SOL     OW42313   9.411   9.098   4.034 -0.3251 -0.2206 -0.1003
10085SOL    HW142314   9.436   9.194   4.024 -1.6244  0.4473  2.6673
10085SOL    HW242315   9.464   9.056   4.107  0.5748 -1.7563 -1.6148
10086SOL     OW42316   8.201   5.805   9.511  0.4024 -0.1885 -0.0493
10086SOL    HW142317   8.126   5.740   9.499 -0.5807  0.4611  2.4119
10086SOL    HW242318   8.204   5.836   9.606  1.8567  2.1570 -0.8188
10087SOL     OW42319   6.898   9.927   8.857  0.0391  0.3738 -0.2012
10087SOL    HW142320   6.966   9.868   8.900 -0.2176 -1.5273 -2.2633
10087SOL    HW242321   6.810   9.879   8.853  0.3576 -0.0490 -3.8575
10088SOL     OW42322   9.944   9.475   6.673 -0.6006 -0.1593 -0.6274
10088SOL    HW142323   9.975   9.479   6.578  0.6395 -0.8392 -0.2688
10088SOL    HW242324   9.964   9.385   6.711  1.2905  0.9204  1.0376
10089SOL     OW42325   3.820   1.342   4.849 -0.0960 -0.0619  0.3242
10089SOL    HW142326   3.750   1.270   4.847  0.5333 -0.6786  0.4156
10089SOL    HW242327   3.811   1.395   4.933  1.2841 -1.8833  1.6420
10090SOL     OW42328   3.238   5.140   2.309  0.0052 -0.2515  0.0428
10090SOL    HW142329   3.320   5.109   2.359  0.0990  0.3110  0.2370
10090SOL    HW242330   3.226   5.083   2.228  0.5029 -0.4394  0.0958
10091SOL     OW42331   2.970   5.591   3.507 -0.4790 -0.0687 -0.4698
10091SOL    HW142332   3.064   5.556   3.504 -0.4530 -0.0824  0.3199
10091SOL    HW242333   2.972   5.691   3.515 -0.5422  0.0157 -1.4913
10092SOL     OW42334   7.671   3.903   8.104  0.2864  0.3058 -0.3615
10092SOL    HW142335   7.600   3.971   8.083  0.7163  0.9206  0.1678
10092SOL    HW242336   7.743   3.907   8.035  1.3406  1.8317  0.7894
10093SOL     OW42337   7.471   2.733   0.156  0.1262  0.2191  0.3188
10093SOL    HW142338   7.414   2.678   0.095  0.1528  0.0416  0.4525
10093SOL    HW242339   7.555   2.684   0.177 -0.2089 -0.0449  1.0815
10094SOL     OW42340   3.038   1.102   3.681 -0.1197 -0.3369  0.2299
10094SOL    HW142341   2.954   1.144   3.647  0.9505  0.3451 -1.6222
10094SOL    HW242342   3.095   1.172   3.724  0.7209 -0.2403 -0.9956
10095SOL     OW42343   4.824   1.197   7.948 -0.0403  0.0432  0.1001
10095SOL    HW142344   4.778   1.193   8.037  0.9214 -2.1527  0.5388
10095SOL    HW242345   4.782   1.268   7.892 -0.5519  1.5738  2.3615
10096SOL     OW42346   2.180   4.171   1.185  0.0184  0.6905 -0.4271
10096SOL    HW142347   2.154   4.076   1.168  0.6136  0.4970 -0.2748
10096SOL    HW242348   2.214   4.180   1.278 -1.5346  1.3840  0.0797
10097SOL     OW42349   9.297   5.024   0.581  0.3253  0.0294  0.0755
10097SOL    HW142350   9.364   4.950   0.583 -0.5643 -0.7740  0.3036
10097SOL    HW242351   9.344   5.111   0.600  1.2439 -0.5671  0.5938
10098SOL     OW42352   6.638   5.380   8.693  0.0843  0.4024  0.3228
10098SOL    HW142353   6.699   5.400   8.770  0.5416 -0.5069  0.2117
10098SOL    HW242354   6.692   5.369   8.610 -0.4026  1.2928 -0.1125
10099SOL     OW42355   4.589   9.433   1.221 -0.3813  0.4396 -0.5058
10099SOL    HW142356   4.609   9.524   1.185 -0.2617 -0.0843 -1.7829
10099SOL    HW242357   4.550   9.376   1.148  1.6856 -1.2462 -0.3201
10100SOL     OW42358   6.329   7.829   8.059 -0.1602  0.7163 -0.1284
10100SOL    HW142359   6.315   7.732   8.079  0.0070  0.8816  0.8411
10100SOL    HW242360   6.325   7.844   7.960 -0.9425 -0.1527 -0.2325
10101SOL     OW42361   5.659   4.057   0.276  0.1346  0.7384  0.3975
10101SOL    HW142362   5.609   4.015   0.200 -0.4970  2.6657 -0.2846
10101SOL    HW242363   5.757   4.058   0.256 -0.0399  1.3401 -0.4535
10102SOL     OW42364   9.761   9.781   3.823 -0.6758  0.0230 -0.2279
10102SOL    HW142365   9.661   9.788   3.825 -0.8210 -2.1489  0.3674
10102SOL    HW242366   9.793   9.797   3.729 -1.5963  0.2618 -0.5083
10103SOL     OW42367   9.238   5.887   1.232 -0.2468 -0.4174 -0.3761
10103SOL    HW142368   9.163   5.821   1.234 -1.1295  0.5503 -1.3040
10103SOL    HW242369   9.227   5.953   1.307 -0.9153  0.3627 -1.1535
10104SOL     OW42370   3.279   5.871   3.457 -0.0377  0.1687  0.1058
10104SOL    HW142371   3.287   5.933   3.379 -1.4443 -0.1940 -0.3354
10104SOL    HW242372   3.332   5.907   3.534  2.9309 -0.3844 -1.5697
10105SOL     OW42373   0.021   3.843   0.155 -0.1246  0.1495  0.2697
10105SOL    HW142374  -0.056   3.779   0.159 -0.0161 -0.0508 -0.6612
10105SOL    HW242375  -0.014   3.937   0.163 -0.9426  0.3116 -4.0114
10106SOL     OW42376   7.424   5.765   3.014 -0.6654  0.9516  0.7846
10106SOL    HW142377   7.480   5.767   3.097  0.7113 -0.6967 -0.0668
10106SOL    HW242378   7.342   5.711   3.030  0.9973 -1.8640  0.3016
10107SOL     OW42379   1.983   0.487   0.712  0.2811  0.0235  0.2168
10107SOL    HW142380   1.964   0.393   0.684 -1.3332  0.4922 -0.3233
10107SOL    HW242381   1.915   0.515   0.780  1.6615  0.2976  1.4952
10108SOL     OW42382   3.724   2.543   7.879  0.6464  0.2040  0.2941
10108SOL    HW142383   3.658   2.610   7.913  1.3707  1.1170 -0.0727
10108SOL    HW242384   3.775   2.504   7.956  0.3935  0.2589  0.4868
10109SOL     OW42385   6.720   3.435   0.622 -0.2131  0.7710  0.0861
10109SOL    HW142386   6.694   3.512   0.680 -1.9784 -1.1354  1.8863
10109SOL    HW242387   6.794   3.384   0.666  0.6166  1.1077 -0.8793
10110SOL     OW42388   1.442   8.888   5.189  0.0965 -0.2796  0.7483
10110SOL    HW142389   1.446   8.798   5.144 -0.5957 -0.2985  0.7079
10110SOL    HW242390   1.355   8.932   5.166  0.5708  0.5388  0.5075
10111SOL     OW42391   0.670   9.644   1.050  0.3973 -0.3451  0.6321
10111SOL    HW142392   0.749   9.698   1.021 -0.5180  0.4666 -0.3746
10111SOL    HW242393   0.642   9.672   1.142  0.8257 -0.1275  0.6967
10112SOL     OW42394   7.613   2.656   2.918  0.1224 -0.0570 -0.0568
10112SOL    HW142395   7.558   2.739   2.924  1.5226  0.9168 -0.4058
10112SOL    HW242396   7.607   2.605   3.004  0.9186  1.4804  0.9212
10113SOL     OW42397   5.554   0.858   6.874 -0.1545  0.3894 -0.0493
10113SOL    HW142398   5.627   0.847   6.941  0.2989 -2.4884 -0.9647
10113SOL    HW242399   5.556   0.952   6.838 -0.1708  1.8626  3.6081
10114SOL     OW42400   7.074   4.223   0.545 -0.4982 -0.0168 -0.4454
10114SOL    HW142401   7.117   4.154   0.604 -0.0580  0.9531  0.3801
10114SOL    HW242402   7.006   4.273   0.598 -2.3677 -1.2673 -1.6440
10115SOL     OW42403   0.273   0.604   1.012  0.8088 -0.3935 -0.1886
10115SOL    HW142404   0.304   0.695   0.983 -1.1348  0.2241 -0.3744
10115SOL    HW242405   0.210   0.614   1.089  1.3219 -1.6681  0.4119
10116SOL     OW42406   1.841   0.531   5.611  0.0913 -0.0834  0.5042
10116SOL    HW142407   1.822   0.440   5.648 -2.1219 -0.2663 -0.9469
10116SOL    HW242408   1.823   0.600   5.682  0.5313 -0.7035  1.2223
10117SOL     OW42409   0.696   2.417   7.700 -0.1413  0.5075 -0.5285
10117SOL    HW142410   0.721   2.513   7.709 -0.2638  0.4280  0.7447
10117SOL    HW242411   0.600   2.405   7.725  0.1824 -0.1239  0.4082
10118SOL     OW42412   2.721   8.021   3.806 -0.6537  0.3086  0.4043
10118SOL    HW142413   2.775   8.043   3.887 -0.6488  1.8889  0.0018
10118SOL    HW242414   2.780   7.978   3.737 -0.4405 -0.1354  0.8624
10119SOL     OW42415   4.182   3.036   8.774 -0.3146 -0.2842  0.2061
10119SOL    HW142416   4.123   3.009   8.850  1.0188 -0.3714  1.2222
10119SOL    HW242417   4.227   2.956   8.736 -1.5128 -0.3360 -1.1549
10120SOL     OW42418   3.556   6.222   9.648 -0.0726 -0.0992  0.0928
10120SOL    HW142419   3.573   6.297   9.585  1.4933  0.0794  0.7215
10120SOL    HW242420   3.620   6.147   9.629 -1.3496 -1.1104 -0.2698
10121SOL     OW42421   0.548   5.513   6.197 -0.0455 -0.4000  0.2218
10121SOL    HW142422   0.641   5.548   6.190 -0.0253 -0.4690  0.1578
10121SOL    HW242423   0.506   5.509   6.107 -0.0384 -0.5697  0.2258
10122SOL     OW42424   6.195   7.991   3.386 -0.5331 -0.1442 -0.1123
10122SOL    HW142425   6.204   7.900   3.347  1.8368  1.3398 -3.2180
10122SOL    HW242426   6.100   8.005   3.417 -1.1130 -3.3012 -0.3516
10123SOL     OW42427   9.148   7.664   9.773 -0.1086 -0.0460  0.1879
10123SOL    HW142428   9.224   7.726   9.757 -1.2535  1.4510  0.5127
10123SOL    HW242429   9.174   7.596   9.842  1.8955 -1.3196 -1.7226
10124SOL     OW42430   3.114   7.011   8.992 -0.6206 -0.2058 -0.5140
10124SOL    HW142431   3.111   6.912   8.984 -1.3772 -0.2106 -0.1466
10124SOL    HW242432   3.164   7.049   8.914 -0.0553 -0.8926 -0.4919
10125SOL     OW42433   9.546   8.819   1.141  0.0973  0.0041 -0.1428
10125SOL    HW142434   9.484   8.897   1.150 -0.9248 -0.6140 -1.6053
10125SOL    HW242435   9.538   8.761   1.222  0.8190  1.3702  0.9271
10126SOL     OW42436   4.921   1.747   4.546  0.2789 -0.0193 -0.1610
10126SOL    HW142437   4.890   1.829   4.595 -0.7948 -0.3488 -0.2626
10126SOL    HW242438   4.943   1.676   4.612  1.3487  0.3917 -0.0665
10127SOL     OW42439   1.573   4.353   1.973  0.7206 -0.3409  0.3935
10127SOL    HW142440   1.627   4.295   2.034 -1.1462 -1.2284  1.2317
10127SOL    HW242441   1.615   4.355   1.882  1.2429 -2.3595  0.5769
10128SOL     OW42442   2.410   6.186   0.163  0.4475 -0.2213  0.4304
10128SOL    HW142443   2.348   6.164   0.238 -1.6266 -0.1396 -1.2026
10128SOL    HW242444   2.434   6.283   0.167 -0.1783 -0.0736  0.6042
10129SOL     OW42445   9.860   3.245   7.039  0.3786 -0.0282 -0.1695
10129SOL    HW142446   9.885   3.222   6.945  1.9930  0.8731  0.0294
10129SOL    HW242447   9.884   3.168   7.099  2.3523  0.6785 -0.0363
10130SOL     OW42448   0.336   4.571   5.394 -0.4025 -0.1888  0.0790
10130SOL    HW142449   0.367   4.505   5.325 -1.0191 -0.7651  0.3384
10130SOL    HW242450   0.344   4.664   5.358  1.7075 -0.3217  0.1944
10131SOL     OW42451   0.698   5.368   8.474 -0.3128  0.6586  0.2293
10131SOL    HW142452   0.649   5.327   8.397 -0.1645  0.4430  0.2507
10131SOL    HW242453   0.659   5.336   8.560 -0.8211  1.3106  0.2448
10132SOL     OW42454   0.163   0.865   5.212  0.7681  0.1925  0.1865
10132SOL    HW142455   0.077   0.913   5.195  0.0913 -0.6640  1.1350
10132SOL    HW242456   0.174   0.851   5.310  2.5828  1.3631  0.1739
10133SOL     OW42457   8.928   4.589   3.660  0.5036 -0.6988  0.1123
10133SOL    HW142458   8.915   4.490   3.668  0.9219 -0.8122 -0.5898
10133SOL    HW242459   8.995   4.618   3.729 -1.3257 -0.5359  1.8583
10134SOL     OW42460   8.354   3.952   4.523  0.2793 -0.6392  0.1788
10134SOL    HW142461   8.426   3.921   4.586  0.9959  2.3199  0.8673
10134SOL    HW242462   8.275   3.983   4.575  0.0224 -0.2263 -0.4610
10135SOL     OW42463   7.376   1.393   2.538  0.0686  0.3690 -0.1050
10135SOL    HW142464   7.298   1.456   2.535  1.3560  1.9802 -0.5968
10135SOL    HW242465   7.408   1.384   2.632 -0.6707 -0.2686  0.0934
10136SOL     OW42466   1.610   8.585   6.596  0.2718 -0.1720  0.1045
10136SOL    HW142467   1.702   8.596   6.558  0.3975  2.4894  1.0664
10136SOL    HW242468   1.565   8.507   6.553  2.1993 -0.2092 -1.9145
10137SOL     OW42469   5.329   1.948   9.462 -0.2941  0.0494 -0.2501
10137SOL    HW142470   5.299   2.014   9.531 -2.3866  1.0183 -1.9988
10137SOL    HW242471   5.261   1.875   9.454  0.2298 -0.3771 -0.8385
10138SOL     OW42472   1.439   7.665   3.247 -0.3575  0.0297 -0.2834
10138SOL    HW142473   1.374   7.723   3.198  0.3105  0.7332 -0.3434
10138SOL    HW242474   1.399   7.574   3.260 -1.8825  0.8398  0.8722
10139SOL     OW42475   5.005   9.689   3.807 -0.6198 -0.1845  0.1553
10139SOL    HW142476   5.095   9.647   3.817 -0.2919  0.4688  0.0048
10139SOL    HW242477   5.011   9.765   3.741 -1.8853 -1.9581 -2.0674
10140SOL     OW42478   5.345   2.872   5.250 -0.2157  0.0852 -0.1127
10140SOL    HW142479   5.385   2.959   5.222 -0.5279 -0.1493 -1.3144
10140SOL    HW242480   5.385   2.797   5.197 -0.6961 -0.3850  0.1753
10141SOL     OW42481   3.731   3.334   5.413 -0.0497  0.2516  0.2004
10141SOL    HW142482   3.704   3.377   5.327  1.5530 -1.0352 -0.9675
10141SOL    HW242483   3.701   3.391   5.489 -1.5540  1.3745 -1.1960
10142SOL     OW42484   5.731   1.745   4.988 -0.6000 -0.2038 -0.3273
10142SOL    HW142485   5.707   1.840   4.971  0.2894  0.1780  0.5539
10142SOL    HW242486   5.709   1.721   5.082 -1.4044 -1.0579 -0.7218
10143SOL     OW42487   7.865   4.148   1.066  0.0394  0.5609 -0.0340
10143SOL    HW142488   7.825   4.235   1.096 -0.1689  0.5254 -0.2110
10143SOL    HW242489   7.870   4.085   1.144 -1.0620  0.2523 -0.2069
10144SOL     OW42490   6.206   9.718   2.566 -0.1318 -0.3052  0.1190
10144SOL    HW142491   6.218   9.754   2.473  0.5578 -1.8154 -0.4000
10144SOL    HW242492   6.120   9.667   2.572  1.0199 -2.3698 -0.4290
10145SOL     OW42493   3.426   8.886   6.375  0.6760 -0.3578 -0.3063
10145SOL    HW142494   3.363   8.904   6.451  2.2258  0.4737  0.8194
10145SOL    HW242495   3.492   8.816   6.402 -0.0981 -1.6503 -1.6835
10146SOL     OW42496   7.625   0.814   6.149  0.0192  1.0086 -0.0057
10146SOL    HW142497   7.647   0.725   6.109 -0.0640  0.7896  0.4424
10146SOL    HW242498   7.552   0.804   6.217  0.7007  1.2678  0.7705
10147SOL     OW42499   9.525   6.336   2.930 -0.1495  0.2255 -0.1660
10147SOL    HW142500   9.478   6.395   2.864 -1.7017 -0.4746  0.2834
10147SOL    HW242501   9.497   6.241   2.915  2.0108 -0.3692 -0.6267
10148SOL     OW42502   7.674   7.113   8.136  0.9512 -0.2668  0.4785
10148SOL    HW142503   7.639   7.177   8.069  0.3770  0.2657  1.2840
10148SOL    HW242504   7.770   7.135   8.156  0.6840  0.5022  0.9395
10149SOL     OW42505   4.526   7.866   3.277  0.0699 -0.6808  0.2686
10149SOL    HW142506   4.533   7.790   3.213  0.6165 -1.3749  1.1279
10149SOL    HW242507   4.592   7.853   3.351  0.8538  1.1223 -0.0717
10150SOL     OW42508   6.524   1.296   9.444 -0.1930 -0.0702  0.0928
10150SOL    HW142509   6.496   1.218   9.388 -0.6201 -0.9454  1.4990
10150SOL    HW242510   6.581   1.263   9.519 -1.2217  0.8491  1.2878
10151SOL     OW42511   1.226   7.928   0.234 -0.0944  0.3652 -0.2135
10151SOL    HW142512   1.156   7.999   0.230  1.4183  1.7660 -2.0875
10151SOL    HW242513   1.229   7.879   0.147  1.7428  0.7880 -0.3967
10152SOL     OW42514   3.508   2.877   3.971 -0.3527  0.3667 -0.1744
10152SOL    HW142515   3.596   2.925   3.975  0.6334 -1.3299 -1.0070
10152SOL    HW242516   3.487   2.839   4.061  0.5032 -0.4816 -0.3222
10153SOL     OW42517   0.144   7.258   9.529  0.9611 -0.0034 -0.9981
10153SOL    HW142518   0.240   7.275   9.507  1.2479 -1.3415 -0.8287
10153SOL    HW242519   0.134   7.166   9.566 -0.2349  0.5153  0.0042
10154SOL     OW42520   3.357   8.690   0.638 -0.4387  0.6164 -0.0514
10154SOL    HW142521   3.339   8.634   0.719  0.7443  0.8673  0.3923
10154SOL    HW242522   3.276   8.690   0.579  0.0718 -2.9663 -0.8926
10155SOL     OW42523   1.067   4.244   0.081  0.0253  0.4320 -0.1347
10155SOL    HW142524   1.063   4.334   0.125 -1.7956 -0.1888  1.0073
10155SOL    HW242525   1.076   4.173   0.151  1.4902 -0.2824 -1.0312
10156SOL     OW42526   7.546   4.422   2.766  0.1208  0.2383  0.3308
10156SOL    HW142527   7.506   4.334   2.742 -0.6350  0.9485 -1.1200
10156SOL    HW242528   7.567   4.473   2.682 -1.6986  2.4256  1.1405
10157SOL     OW42529   1.307   1.220   2.214 -0.7043  0.3497  0.2017
10157SOL    HW142530   1.299   1.306   2.264  0.6887 -0.4261  1.8230
10157SOL    HW242531   1.404   1.201   2.197 -0.9728 -1.1669  0.3242
10158SOL     OW42532   2.424   3.696   2.869 -0.0103 -0.8349  0.4234
10158SOL    HW142533   2.513   3.738   2.853 -0.1670 -0.5305  0.3470
10158SOL    HW242534   2.354   3.767   2.872 -0.1973 -1.0352  0.8823
10159SOL     OW42535   8.855   8.618   8.351 -0.1444 -0.4586 -0.5418
10159SOL    HW142536   8.766   8.658   8.375 -0.1418 -0.6394 -0.2335
10159SOL    HW242537   8.914   8.689   8.313  0.3909  0.1632  1.4075
10160SOL     OW42538   0.832   5.259   2.647  0.7361  0.1077 -0.4567
10160SOL    HW142539   0.828   5.284   2.744  1.5352 -1.2896 -0.0361
10160SOL    HW242540   0.767   5.314   2.595 -0.2959  0.2929  1.0047
10161SOL     OW42541   1.047   7.184   8.524  0.1166  0.0064  0.2272
10161SOL    HW142542   1.145   7.165   8.526  0.0961 -0.2549 -1.0760
10161SOL    HW242543   1.019   7.221   8.612  1.6504  1.3828  0.1571
10162SOL     OW42544   0.103   2.429   0.730 -0.2793 -0.1443 -0.5510
10162SOL    HW142545   0.145   2.518   0.713 -0.0434 -0.2640 -0.5967
10162SOL    HW242546   0.073   2.389   0.644  1.8867 -1.2305 -0.8436
10163SOL     OW42547   5.880   6.052   2.359  0.3786  0.4768 -0.1327
10163SOL    HW142548   5.867   5.967   2.409  1.0109 -0.5164 -1.6189
10163SOL    HW242549   5.977   6.060   2.333 -0.1191  0.4853 -2.0327
10164SOL     OW42550   2.477   8.653   9.346  0.2981  0.2029  0.4621
10164SOL    HW142551   2.526   8.586   9.401  1.6663  1.6351  1.0538
10164SOL    HW242552   2.475   8.624   9.251  0.1226 -1.0823  0.8602
10165SOL     OW42553   6.255   1.927   9.311  0.4359  0.3130  0.0723
10165SOL    HW142554   6.167   1.974   9.317  0.4672  0.6656 -1.9284
10165SOL    HW242555   6.318   1.965   9.378 -0.8221  0.2873  1.2876
10166SOL     OW42556   5.045   4.243   9.273  0.1691 -0.2187 -0.0074
10166SOL    HW142557   5.070   4.215   9.181 -0.2127 -1.0290  0.1354
10166SOL    HW242558   5.055   4.343   9.281  1.5480 -0.3043 -0.5043
10167SOL     OW42559   8.245   9.677   0.040  0.1070 -0.2350  0.1832
10167SOL    HW142560   8.157   9.713   0.072  0.7303  0.1651  1.5093
10167SOL    HW242561   8.309   9.675   0.117  0.6893 -2.3051 -0.3296
10168SOL     OW42562   2.162   4.732   2.471 -0.2463 -0.4814 -0.2561
10168SOL    HW142563   2.222   4.667   2.518 -0.4865 -0.5790 -0.0829
10168SOL    HW242564   2.190   4.742   2.376  1.0169  0.6400  0.2124
10169SOL     OW42565   5.533   5.298   9.220  0.0880 -0.0615 -0.8369
10169SOL    HW142566   5.617   5.351   9.229 -0.3955  0.4860  0.4828
10169SOL    HW242567   5.453   5.359   9.228 -0.4788 -1.0488  1.2748
10170SOL     OW42568   0.395   6.921   6.930  0.0613  0.5357 -0.6449
10170SOL    HW142569   0.467   6.890   6.867 -0.5656  0.7231 -1.4559
10170SOL    HW242570   0.367   7.014   6.906  0.1724  0.7957  0.2260
10171SOL     OW42571   1.815   7.016   5.398  0.0138 -0.5160  0.3426
10171SOL    HW142572   1.884   7.070   5.446 -0.0967 -0.6329  0.6335
10171SOL    HW242573   1.857   6.932   5.363  0.5109  0.3936 -1.3045
10172SOL     OW42574   6.837   2.417   1.289 -0.0231  0.2751  0.5202
10172SOL    HW142575   6.817   2.336   1.234 -1.0682 -0.6817  2.2777
10172SOL    HW242576   6.760   2.437   1.350  1.0058  1.4500  1.4840
10173SOL     OW42577   6.943   6.827   2.248 -0.2400 -0.6627  0.2017
10173SOL    HW142578   6.855   6.853   2.288 -0.9172 -0.6901 -1.2352
10173SOL    HW242579   7.016   6.884   2.287 -0.6012 -1.9135  2.8139
10174SOL     OW42580   2.190   3.619   2.586 -0.2240  0.0943 -0.5769
10174SOL    HW142581   2.261   3.662   2.530 -0.3997  0.9034 -0.1910
10174SOL    HW242582   2.110   3.598   2.529  0.0525 -0.1630 -0.8666
10175SOL     OW42583   3.877   9.103   6.777  0.3597 -0.0486  0.7756
10175SOL    HW142584   3.956   9.103   6.716  0.8720  2.3814  1.3992
10175SOL    HW242585   3.793   9.094   6.724  0.8241  1.6302 -0.2692
10176SOL     OW42586   4.585   2.732   4.921  0.0185 -0.0817  0.4644
10176SOL    HW142587   4.516   2.668   4.954 -2.4658  0.7033 -2.9588
10176SOL    HW242588   4.569   2.822   4.960 -0.4263 -0.0763  0.2671
10177SOL     OW42589   2.401   4.724   5.061  0.0109 -0.0009 -0.5928
10177SOL    HW142590   2.371   4.703   5.154 -0.2580 -0.7985 -0.8640
10177SOL    HW242591   2.367   4.815   5.035 -0.2162  0.0711 -0.0497
10178SOL     OW42592   0.705   6.744   4.035  0.4420 -0.0456  0.4405
10178SOL    HW142593   0.685   6.721   4.130 -2.7256  0.5741 -0.0072
10178SOL    HW242594   0.709   6.661   3.980  1.2003 -0.3267  0.9111
10179SOL     OW42595   1.127   9.607   9.512 -0.5082  0.0387  0.4776
10179SOL    HW142596   1.213   9.555   9.505 -0.3733  0.1737  1.1000
10179SOL    HW242597   1.091   9.599   9.605 -1.3295 -0.2626  0.1384
10180SOL     OW42598   8.205   0.637   3.884  0.6296 -0.1242  0.3674
10180SOL    HW142599   8.172   0.629   3.790 -0.4360 -0.7048  0.7920
10180SOL    HW242600   8.131   0.617   3.948  0.5970  2.9561  1.3865
10181SOL     OW42601   2.412   0.369   6.097  0.0988 -0.1290 -0.1482
10181SOL    HW142602   2.412   0.274   6.065 -0.6152 -0.3611  0.5039
10181SOL    HW242603   2.464   0.426   6.034 -0.3059 -0.7770 -1.0830
10182SOL     OW42604   9.430   3.340   9.720 -0.4800 -0.2355  0.4368
10182SOL    HW142605   9.332   3.349   9.703 -0.5116  1.0136  1.2260
10182SOL    HW242606   9.474   3.297   9.642 -1.3585  0.9326 -0.7103
10183SOL     OW42607   0.741   8.540   8.425 -0.1100 -0.0568  0.2316
10183SOL    HW142608   0.805   8.494   8.364  0.4047  0.6990  0.1906
10183SOL    HW242609   0.722   8.483   8.504 -1.2704 -1.3221 -0.9306
10184SOL     OW42610   9.023   4.488   3.431 -0.9740 -0.0605  0.1304
10184SOL    HW142611   9.059   4.551   3.362  1.5284 -1.1755  0.3844
10184SOL    HW242612   8.961   4.538   3.492  2.6348  2.7314  1.6852
10185SOL     OW42613   6.976   7.210   6.952 -0.3732 -0.3287 -0.0476
10185SOL    HW142614   6.918   7.186   6.873  1.1332 -1.8503 -0.7226
10185SOL    HW242615   7.016   7.300   6.937  0.4974 -0.9236 -1.3910
10186SOL     OW42616   1.237   2.314   9.666  0.1187 -0.1024  0.0405
10186SOL    HW142617   1.184   2.235   9.636  1.2990  0.1902 -2.9893
10186SOL    HW242618   1.190   2.399   9.639  1.6250  0.1586 -1.8941
10187SOL     OW42619   0.680   2.926   9.901 -0.1984  0.4155  0.7522
10187SOL    HW142620   0.654   2.853   9.963  2.0493 -1.2291 -0.1722
10187SOL    HW242621   0.779   2.941   9.906 -0.1370  1.0270 -1.5545
10188SOL     OW42622   6.933   6.972   4.956  0.2806  0.3475  0.5193
10188SOL    HW142623   6.859   7.014   5.007  0.3763  0.0667  0.8877
10188SOL    HW242624   6.977   6.902   5.012 -0.2629 -0.6657 -0.2877
10189SOL     OW42625   3.685   7.311   8.222  0.4379 -0.0782 -0.1727
10189SOL    HW142626   3.610   7.270   8.274  1.3671 -1.1242  0.3719
10189SOL    HW242627   3.670   7.296   8.124  1.7804 -3.6529  0.0750
10190SOL     OW42628   6.592   8.058   3.738 -0.8745  0.5219 -0.1237
10190SOL    HW142629   6.527   8.021   3.671 -0.7349 -0.9713  0.5543
10190SOL    HW242630   6.654   8.121   3.692  1.5655 -3.2470 -2.1997
10191SOL     OW42631   4.845   3.962   8.724 -0.1282  0.1819  0.6868
10191SOL    HW142632   4.776   4.007   8.668 -0.5419  0.2119  1.2182
10191SOL    HW242633   4.879   4.027   8.793 -0.2907 -0.1315  1.0654
10192SOL     OW42634   5.606   8.697   5.040  0.4300 -0.4383 -0.0517
10192SOL    HW142635   5.591   8.794   5.061 -0.2257 -0.4036 -0.6349
10192SOL    HW242636   5.567   8.641   5.113  3.4684 -0.2266  1.7980
10193SOL     OW42637   9.569   5.597   7.258 -0.2588  0.0862  0.3157
10193SOL    HW142638   9.620   5.660   7.199  0.4149 -1.2709 -0.5612
10193SOL    HW242639   9.621   5.513   7.272 -1.5149 -0.6369  0.7987
10194SOL     OW42640   9.106   6.531   6.073  0.0018 -0.5533  0.2260
10194SOL    HW142641   9.069   6.513   6.164 -0.0463 -1.3776  0.0434
10194SOL    HW242642   9.074   6.620   6.041  0.3706 -0.0675  1.1965
10195SOL     OW42643   3.320   4.451   4.312  0.0224  0.1721 -0.5719
10195SOL    HW142644   3.389   4.503   4.262  0.2795 -0.5058 -0.9412
10195SOL    HW242645   3.308   4.361   4.268 -0.8945  0.1787 -0.3497
10196SOL     OW42646   8.652   4.397   8.472 -0.0206  0.8180 -0.1900
10196SOL    HW142647   8.564   4.351   8.458 -0.6479  1.3177  1.9691
10196SOL    HW242648   8.640   4.495   8.461  0.3705  0.8458 -0.3589
10197SOL     OW42649   6.557   4.826   9.390  0.0351 -0.0381  0.8786
10197SOL    HW142650   6.533   4.768   9.312 -0.1848 -0.3638  1.1840
10197SOL    HW242651   6.473   4.861   9.431  0.1816  0.9909  0.3291
10198SOL     OW42652   7.749   8.444   5.807  0.6481 -0.4034  0.5437
10198SOL    HW142653   7.720   8.376   5.740 -1.4063 -0.9659  1.9553
10198SOL    HW242654   7.848   8.450   5.808  0.7373 -1.1285 -1.7964
10199SOL     OW42655   1.621   3.762   5.132  0.7306 -0.3223  0.7036
10199SOL    HW142656   1.676   3.838   5.098 -1.6916  1.0187 -0.3027
10199SOL    HW242657   1.641   3.680   5.079  0.3022  0.6445 -0.9867
10200SOL     OW42658   6.172   2.834   0.755 -0.4406 -0.0427 -0.1233
10200SOL    HW142659   6.240   2.760   0.750 -0.6399 -0.2731  0.5160
10200SOL    HW242660   6.143   2.859   0.662  1.1353  0.6361 -0.4539
10201SOL     OW42661   0.769   8.855   9.349 -0.1730 -0.5381 -0.5271
10201SOL    HW142662   0.725   8.807   9.425 -1.2717 -0.0844 -0.8557
10201SOL    HW242663   0.706   8.924   9.312  1.1774  0.7841 -0.4131
10202SOL     OW42664   3.986   8.557   8.597  0.1137  0.1183 -0.3756
10202SOL    HW142665   3.970   8.543   8.499 -1.3685 -0.1999 -0.1016
10202SOL    HW242666   3.969   8.652   8.621 -0.8504 -0.0922 -0.1915
10203SOL     OW42667   3.624   6.681   0.664 -0.3429 -0.2566  0.0146
10203SOL    HW142668   3.695   6.639   0.721 -0.7299 -0.3329  0.4471
10203SOL    HW242669   3.557   6.611   0.638  0.4453 -0.4692 -1.4986
10204SOL     OW42670   8.633   5.990   2.936  0.4405  0.0360  0.1705
10204SOL    HW142671   8.702   5.992   3.008  0.1686  0.0774  0.4330
10204SOL    HW242672   8.594   5.898   2.929  0.5650 -0.0021 -0.0152
10205SOL     OW42673   1.015   2.874   5.410  0.2740 -0.3472  0.1465
10205SOL    HW142674   0.959   2.925   5.345  0.9467  0.6204  0.3027
10205SOL    HW242675   1.030   2.781   5.377  0.7333  0.1783 -1.1608
10206SOL     OW42676   5.582   9.149   8.585  0.2829 -0.2628 -0.4122
10206SOL    HW142677   5.507   9.216   8.588 -1.4045 -2.1116 -0.6617
10206SOL    HW242678   5.571   9.083   8.659  1.4370 -0.7925 -0.7089
10207SOL     OW42679   9.288   7.132   0.788 -0.0810  0.6834  0.5702
10207SOL    HW142680   9.373   7.175   0.758  0.2728  0.3700  1.1117
10207SOL    HW242681   9.301   7.033   0.794 -0.1400  0.7350  1.7433
10208SOL     OW42682   0.963   8.097   0.292  0.0337  0.5334  0.7332
10208SOL    HW142683   0.923   8.020   0.342 -2.5126  0.3120 -1.5099
10208SOL    HW242684   0.920   8.182   0.321 -0.7980  0.5039 -0.3603
10209SOL     OW42685   0.890   6.648   7.463  0.0877 -0.2621 -0.2844
10209SOL    HW142686   0.805   6.700   7.464 -1.6242 -2.9124 -1.9420
10209SOL    HW242687   0.922   6.634   7.556 -2.2981 -0.7884  0.4993
10210SOL     OW42688   1.938   1.825   7.729  0.1904 -0.1678 -0.0587
10210SOL    HW142689   1.864   1.794   7.788 -0.6096  1.1966 -0.3284
10210SOL    HW242690   1.902   1.846   7.638  0.8666  0.7100 -0.1269
10211SOL     OW42691   3.643   6.056   3.830  0.0235  0.3903 -0.0259
10211SOL    HW142692   3.706   6.032   3.756 -0.0067 -1.6479  0.5681
10211SOL    HW242693   3.689   6.115   3.896  0.2468  1.6968 -1.3374
10212SOL     OW42694   6.709   1.339   6.285  0.1353 -0.3395  0.0565
10212SOL    HW142695   6.751   1.404   6.347  0.4398 -0.0920 -0.4019
10212SOL    HW242696   6.733   1.363   6.191 -0.5495 -0.5433 -0.1724
10213SOL     OW42697   0.837   3.627   5.694 -0.1579 -0.5632 -0.0079
10213SOL    HW142698   0.922   3.602   5.740  0.7352 -1.4296 -2.0885
10213SOL    HW242699   0.769   3.653   5.763  1.7309  0.0403  1.6914
10214SOL     OW42700   9.079   3.076   6.169  0.3303 -0.5557  0.3556
10214SOL    HW142701   9.054   2.980   6.184  2.3973 -1.1719 -0.0195
10214SOL    HW242702   9.168   3.095   6.210  1.6318  0.2469 -2.6555
10215SOL     OW42703   1.409   9.252   1.946 -0.1542 -0.4341  0.0527
10215SOL    HW142704   1.314   9.230   1.968 -0.0419  0.2022  1.2119
10215SOL    HW242705   1.471   9.193   1.997  0.0788 -1.6615 -1.6079
10216SOL     OW42706   5.342   9.709   4.446  0.4254  0.3749  0.1362
10216SOL    HW142707   5.442   9.715   4.443  0.3293  1.9153 -0.2332
10216SOL    HW242708   5.303   9.763   4.372 -0.7041  0.1460  0.5576
10217SOL     OW42709   6.068   1.478   5.672 -0.2057 -0.7342 -0.7924
10217SOL    HW142710   6.069   1.486   5.572  0.9645 -0.7003 -0.7863
10217SOL    HW242711   6.036   1.564   5.712 -1.3487 -0.9820 -1.1499
10218SOL     OW42712   0.533   9.246   9.695 -0.0921  0.1712 -0.2498
10218SOL    HW142713   0.502   9.169   9.637  0.5564  0.6947 -1.3031
10218SOL    HW242714   0.631   9.237   9.712 -0.0939  0.5617 -0.0458
10219SOL     OW42715   8.274   2.224   9.440  0.0169 -0.2722  0.2919
10219SOL    HW142716   8.202   2.262   9.499 -0.2957 -0.2365 -0.1171
10219SOL    HW242717   8.363   2.253   9.475 -0.1482 -0.5411  0.9631
10220SOL     OW42718   0.070   7.506   5.377 -0.2179 -0.5255  0.2077
10220SOL    HW142719  -0.001   7.528   5.443 -0.6915 -1.0027 -0.1386
10220SOL    HW242720   0.145   7.457   5.422  0.3686  0.8713  0.7765
10221SOL     OW42721   8.570   1.783   8.358  0.2884  0.3218 -0.4266
10221SOL    HW142722   8.490   1.840   8.374  0.7490 -0.1433  4.0240
10221SOL    HW242723   8.653   1.837   8.373  0.7248 -1.0125  2.2802
10222SOL     OW42724   4.235   0.124   7.783 -0.6650 -0.6117  0.2505
10222SOL    HW142725   4.171   0.081   7.846 -1.9365  0.2280 -0.4633
10222SOL    HW242726   4.327   0.123   7.823 -1.3644 -0.5651  1.8721
10223SOL     OW42727   7.691   5.911   5.542 -0.6039 -0.3421 -0.7049
10223SOL    HW142728   7.593   5.919   5.527 -0.7273  0.5825  0.5282
10223SOL    HW242729   7.709   5.889   5.638  0.3873 -0.7864 -0.9796
10224SOL     OW42730   8.094   2.402   2.166 -0.7214  0.1612 -0.3067
10224SOL    HW142731   8.136   2.421   2.255 -2.9561  0.3310  0.7452
10224SOL    HW242732   8.004   2.362   2.180 -1.6855  1.4935 -2.5074
10225SOL     OW42733   8.729   1.351   4.970 -0.3045 -0.5687  0.7113
10225SOL    HW142734   8.636   1.322   4.945 -0.2823 -1.1204  1.2522
10225SOL    HW242735   8.770   1.400   4.893 -0.1271 -2.5103 -0.4777
10226SOL     OW42736   1.577   9.677   7.614  0.0201  0.0303  0.6661
10226SOL    HW142737   1.490   9.636   7.641 -0.3612  0.6020  0.3136
10226SOL    HW242738   1.560   9.766   7.571  0.5667 -0.9863 -1.7479
10227SOL     OW42739   8.465   1.538   0.202  0.9072  0.3604  0.5186
10227SOL    HW142740   8.493   1.633   0.215 -3.1647  1.9826 -1.5978
10227SOL    HW242741   8.517   1.498   0.127  1.7781  1.2931  0.6112
10228SOL     OW42742   3.517   9.720   4.655  0.0793 -0.0121  0.2764
10228SOL    HW142743   3.539   9.807   4.700  0.4203  0.2006 -0.2959
10228SOL    HW242744   3.487   9.654   4.724 -0.7490  0.7311  0.6424
10229SOL     OW42745   5.746   7.145   2.494  0.5749  0.1954 -0.5451
10229SOL    HW142746   5.805   7.226   2.498  1.4696 -0.4727  0.0858
10229SOL    HW242747   5.798   7.065   2.525  0.0285 -0.8206 -2.1870
10230SOL     OW42748   4.795   3.024   7.277  0.5949 -0.0137 -0.0645
10230SOL    HW142749   4.813   2.927   7.289 -0.4952 -0.4841 -2.0939
10230SOL    HW242750   4.711   3.049   7.325 -0.5468 -0.6477 -1.6832
10231SOL     OW42751   9.566   7.625   1.442  0.2707  0.2353 -0.4631
10231SOL    HW142752   9.514   7.653   1.361  0.6998 -1.0593 -1.2119
10231SOL    HW242753   9.663   7.620   1.418  0.5442  1.0820  0.4837
10232SOL     OW42754   3.740   9.693   4.504 -0.1265 -0.1798 -0.0438
10232SOL    HW142755   3.653   9.726   4.539 -0.3077 -0.5087 -0.1836
10232SOL    HW242756   3.731   9.598   4.475  0.6248 -0.6474  1.1940
10233SOL     OW42757   8.137   7.228   4.609 -0.0123  0.2894 -0.4047
10233SOL    HW142758   8.225   7.268   4.633  0.3993 -0.5608 -0.4974
10233SOL    HW242759   8.137   7.130   4.630 -0.9214  0.2716 -0.4280
10234SOL     OW42760   4.332   5.650   8.537 -0.2624  0.2190 -0.3724
10234SOL    HW142761   4.409   5.668   8.597  0.8164  1.8408 -2.1935
10234SOL    HW242762   4.363   5.602   8.455 -0.7068  2.9748 -2.2434
10235SOL     OW42763   0.369   6.505   1.284  0.7466  0.8832 -0.2240
10235SOL    HW142764   0.405   6.412   1.292  1.6306  1.1287 -1.2968
10235SOL    HW242765   0.443   6.571   1.296  0.1091  1.4658  0.5999
10236SOL     OW42766   8.628   9.561   8.194 -0.7225  0.3660  0.1572
10236SOL    HW142767   8.604   9.652   8.227  1.0084  1.0675 -0.4125
10236SOL    HW242768   8.574   9.492   8.241 -0.2200  1.5146  2.4714
10237SOL     OW42769   0.328   1.380   3.525 -0.2171 -0.0347 -0.2074
10237SOL    HW142770   0.379   1.418   3.603 -0.0441  0.8048 -0.7164
10237SOL    HW242771   0.279   1.299   3.554  0.0407  0.1283  0.7238
10238SOL     OW42772   8.488   2.628   8.586  0.0716 -0.3362  0.3543
10238SOL    HW142773   8.406   2.624   8.529 -0.2110  1.2574  0.6399
10238SOL    HW242774   8.466   2.666   8.675  0.9719 -0.6554  0.7226
10239SOL     OW42775   8.508   5.872   4.769  0.1254 -0.1495 -0.3300
10239SOL    HW142776   8.560   5.899   4.850 -0.2499  1.4515 -0.6100
10239SOL    HW242777   8.561   5.894   4.687 -0.9539  1.4611 -0.6151
10240SOL     OW42778   1.956   5.330   5.247 -0.5381 -0.4388  0.3875
10240SOL    HW142779   1.970   5.391   5.325 -0.1976  0.7929 -0.6104
10240SOL    HW242780   2.033   5.339   5.184 -0.6864 -1.6139  0.0390
10241SOL     OW42781   5.163   0.341   3.978  0.1103 -0.1430  0.0162
10241SOL    HW142782   5.107   0.423   3.962  0.4959  0.4625  1.6508
10241SOL    HW242783   5.119   0.284   4.047  1.1380 -0.0431  0.7512
10242SOL     OW42784   1.807   8.353   9.360  0.6825 -0.1345 -0.4520
10242SOL    HW142785   1.779   8.428   9.300 -0.8930 -0.0992  0.2934
10242SOL    HW242786   1.907   8.353   9.370  0.6376  2.3611  0.1899
10243SOL     OW42787   4.114   2.956   6.583 -0.4877 -0.1322 -0.5529
10243SOL    HW142788   4.059   2.933   6.503 -0.9038  1.4302 -0.7215
10243SOL    HW242789   4.211   2.960   6.557 -0.5340 -0.4807 -0.7816
10244SOL     OW42790   8.939   7.865   3.314  0.2444  1.0416  0.3214
10244SOL    HW142791   8.940   7.766   3.323 -1.9484  0.9086 -0.7546
10244SOL    HW242792   8.941   7.907   3.405  1.5199  0.0340  0.7649
10245SOL     OW42793   8.128   5.319   2.954  0.5363 -0.2871 -0.3816
10245SOL    HW142794   8.075   5.404   2.948  0.4057 -0.2480  1.2111
10245SOL    HW242795   8.160   5.306   3.047  1.8917 -1.2028 -0.9633
10246SOL     OW42796   4.490   7.569   6.408  0.4422 -0.0391  0.2462
10246SOL    HW142797   4.523   7.587   6.315 -1.2341  0.6061 -0.2471
10246SOL    HW242798   4.517   7.644   6.468 -2.1846  1.7343 -0.6981
10247SOL     OW42799   1.477   9.203  10.068 -0.7218  0.2228 -0.2484
10247SOL    HW142800   1.504   9.243  10.156 -0.2136  1.8262 -1.1195
10247SOL    HW242801   1.442   9.275  10.008 -0.7991 -0.8134 -1.4679
10248SOL     OW42802   8.784   7.124   7.148  0.2089 -0.8941  0.2446
10248SOL    HW142803   8.784   7.218   7.184  2.9200 -0.4891 -0.6763
10248SOL    HW242804   8.701   7.109   7.095 -0.2781  0.9887  0.4177
10249SOL     OW42805   7.160   0.382   5.343  0.3987  0.1843  0.0795
10249SOL    HW142806   7.188   0.417   5.432  0.2126 -0.3950  0.3611
10249SOL    HW242807   7.110   0.297   5.354  0.2373  0.1916 -0.5681
10250SOL     OW42808   0.129   0.524   1.960  0.0985 -0.0492  0.0869
10250SOL    HW142809   0.083   0.438   1.936 -0.5504  0.0430  0.9616
10250SOL    HW242810   0.162   0.569   1.877  0.9474 -1.4191 -0.3349
10251SOL     OW42811   5.709   0.143   8.571  0.1475  0.3267 -0.6730
10251SOL    HW142812   5.616   0.140   8.535  0.4137 -3.1645 -1.2222
10251SOL    HW242813   5.771   0.101   8.505  1.8189  0.8689  0.5337
10252SOL     OW42814   2.846   7.571   9.993 -0.0897  0.6362  0.0651
10252SOL    HW142815   2.780   7.558   9.919  0.1743  0.0484 -0.0673
10252SOL    HW242816   2.874   7.667   9.996 -0.2751  0.7081 -0.4529
10253SOL     OW42817   3.929   3.748   0.406 -0.1988 -0.6016  0.6626
10253SOL    HW142818   3.846   3.710   0.445 -0.7815  0.7270  0.7632
10253SOL    HW242819   3.931   3.733   0.307 -1.7155  1.3850  0.2886
10254SOL     OW42820   7.120   7.157   7.597  0.5858  0.5403  0.7067
10254SOL    HW142821   7.129   7.254   7.620 -0.7651  0.5208  1.3867
10254SOL    HW242822   7.153   7.141   7.504 -1.2288  2.0527 -0.2239
10255SOL     OW42823   9.915   1.891   9.021 -0.0405  0.4763  0.2612
10255SOL    HW142824   9.894   1.799   8.989 -1.2818  0.3066  1.5162
10255SOL    HW242825   9.987   1.887   9.090 -0.0182  0.4392  0.2371
10256SOL     OW42826   0.604   5.470   7.598  0.2094  0.3252 -0.3376
10256SOL    HW142827   0.566   5.555   7.561  1.7560  1.7308  1.2007
10256SOL    HW242828   0.675   5.436   7.536 -0.1401  0.3732 -0.7658
10257SOL     OW42829   4.049   2.642   9.455  0.1993  0.3842 -0.3477
10257SOL    HW142830   3.951   2.659   9.447  0.0141  0.3355  1.6523
10257SOL    HW242831   4.069   2.550   9.422 -0.4646  0.2966 -0.5253
10258SOL     OW42832   4.867   3.355   4.756 -0.3775 -0.6339 -0.3822
10258SOL    HW142833   4.852   3.438   4.810  2.0598  0.1172 -0.7713
10258SOL    HW242834   4.890   3.279   4.816 -0.3755 -0.4805 -0.1890
10259SOL     OW42835   0.162   6.867   7.328  0.4908  0.5510 -0.3741
10259SOL    HW142836   0.133   6.829   7.416  2.9069 -2.6487 -0.8896
10259SOL    HW242837   0.085   6.867   7.265 -0.2893 -0.7673  0.5447
10260SOL     OW42838   1.212   8.806   6.614  0.3005  0.5075  0.0521
10260SOL    HW142839   1.296   8.852   6.642 -0.1806  1.5309 -0.1781
10260SOL    HW242840   1.224   8.767   6.523  0.7291  0.1061  0.2755
10261SOL     OW42841   4.450   3.520   7.040  0.0169  0.1831  0.2269
10261SOL    HW142842   4.430   3.496   7.135 -0.6868  0.3183  0.1183
10261SOL    HW242843   4.532   3.577   7.036 -1.1747  1.9703  0.9679
10262SOL     OW42844   9.267   3.927   0.644 -0.1879 -0.0646 -0.3616
10262SOL    HW142845   9.253   4.023   0.619 -2.1295 -0.6522 -1.5895
10262SOL    HW242846   9.248   3.914   0.741 -0.8430  0.6258 -0.3957
10263SOL     OW42847   9.711   1.792   0.063  0.4831 -0.3713 -0.6425
10263SOL    HW142848   9.709   1.810   0.162  0.2113  0.0606 -0.7306
10263SOL    HW242849   9.803   1.761   0.038  1.5137  2.6846 -0.8306
10264SOL     OW42850   4.454   2.809   1.997 -0.5069  0.1194 -0.2403
10264SOL    HW142851   4.365   2.855   2.006 -0.2057  0.6625 -0.0119
10264SOL    HW242852   4.510   2.858   1.930 -0.9613 -1.1439 -1.5641
10265SOL     OW42853   9.527   1.751   7.312 -0.3291  0.1941  0.3374
10265SOL    HW142854   9.595   1.687   7.349 -0.1713  0.2696  0.1772
10265SOL    HW242855   9.447   1.700   7.281 -0.6838  0.1748  1.2614
10266SOL     OW42856   2.132   5.664   5.217 -0.1079 -0.8592  0.2204
10266SOL    HW142857   2.062   5.724   5.180 -0.7415 -1.9078 -0.2976
10266SOL    HW242858   2.207   5.719   5.254 -0.2884  0.2188 -1.0134
10267SOL     OW42859   2.431   1.340   0.343  0.4492 -0.0263  0.5015
10267SOL    HW142860   2.441   1.357   0.440  0.8352 -0.0891  0.4714
10267SOL    HW242861   2.520   1.318   0.303  0.5023  1.2221 -0.1030
10268SOL     OW42862   3.875   0.750   6.195  0.1818  0.1421  0.5473
10268SOL    HW142863   3.956   0.745   6.254  1.0306 -1.3300 -0.6865
10268SOL    HW242864   3.865   0.844   6.161  0.6550  0.6182  1.6922
10269SOL     OW42865   5.952   2.986   1.175 -0.0391 -0.7214  0.4277
10269SOL    HW142866   5.984   2.995   1.269  1.9484 -1.6232 -0.1442
10269SOL    HW242867   6.020   3.023   1.112 -1.9959  1.2264 -0.6024
10270SOL     OW42868   4.785   8.639   2.900 -0.4122  0.4516 -0.0741
10270SOL    HW142869   4.772   8.594   2.988  1.4880  0.9185  0.4714
10270SOL    HW242870   4.859   8.594   2.850 -1.0516  0.5886 -1.1419
10271SOL     OW42871   7.217   5.655   7.373  0.1129  0.0880  0.2251
10271SOL    HW142872   7.264   5.743   7.383 -2.0621  1.2445  0.6487
10271SOL    HW242873   7.176   5.629   7.460 -2.3445  0.4932 -0.7625
10272SOL     OW42874   9.036   1.811   4.277  0.0460  0.2077 -0.3309
10272SOL    HW142875   8.959   1.810   4.213 -0.4908  1.3946  0.2774
10272SOL    HW242876   9.122   1.798   4.227 -0.6973 -3.4002 -0.7624
10273SOL     OW42877   8.113   8.769   0.467 -0.2735  0.4136 -0.3809
10273SOL    HW142878   8.139   8.851   0.517 -0.5143 -0.8633  1.9392
10273SOL    HW242879   8.015   8.773   0.444 -0.5472  0.3149  0.7098
10274SOL     OW42880   5.824   2.978   0.004 -0.3866  0.0164  0.0112
10274SOL    HW142881   5.901   3.028   0.042 -0.1425 -0.7576  0.5417
10274SOL    HW242882   5.772   3.038  -0.057  0.3342  0.6867  0.0550
10275SOL     OW42883   4.606   6.208   2.617 -0.2142  0.6675  0.3685
10275SOL    HW142884   4.656   6.242   2.537  1.1043  0.9401  1.2779
10275SOL    HW242885   4.591   6.110   2.608 -0.1934  0.7222 -0.2806
10276SOL     OW42886   8.312   2.123   4.932 -0.3838  0.3905  0.0322
10276SOL    HW142887   8.253   2.101   5.010  0.9093 -0.9463  0.6743
10276SOL    HW242888   8.397   2.164   4.966  0.0422  0.1145 -0.6917
10277SOL     OW42889   5.674   6.633   2.556  0.3186 -0.0738  1.0764
10277SOL    HW142890   5.641   6.562   2.619  1.7984 -0.1886  1.7438
10277SOL    HW242891   5.714   6.591   2.475 -1.6379  0.0772  0.0055
10278SOL     OW42892   1.559   7.461   6.333  0.1973 -0.2775 -0.1064
10278SOL    HW142893   1.561   7.362   6.320  1.4103  0.0332 -2.6804
10278SOL    HW242894   1.470   7.497   6.304 -0.2429 -0.6046  0.8278
10279SOL     OW42895   3.579   9.582   3.157  0.2121  0.4436 -0.2310
10279SOL    HW142896   3.565   9.675   3.124  1.2119  0.8681  0.5391
10279SOL    HW242897   3.650   9.581   3.227 -0.5743 -0.7296  0.5790
10280SOL     OW42898   6.814   0.824   9.330  0.6393 -0.4584  0.1742
10280SOL    HW142899   6.898   0.780   9.360 -0.1513 -2.4812 -0.4950
10280SOL    HW242900   6.790   0.791   9.239 -1.1002 -0.2268  0.5329
10281SOL     OW42901   6.624   2.221   2.260  0.0985 -0.0999 -0.3637
10281SOL    HW142902   6.625   2.215   2.160 -0.3928  1.1442 -0.4488
10281SOL    HW242903   6.664   2.309   2.289  0.1358 -0.4014  0.5253
10282SOL     OW42904   5.693   0.924   1.527  0.0458  0.4526  0.3647
10282SOL    HW142905   5.596   0.937   1.551 -0.2115 -0.4182 -0.1397
10282SOL    HW242906   5.709   0.960   1.436 -0.0101 -0.1598  0.1073
10283SOL     OW42907   3.977   7.561   3.204 -0.0205  0.2334 -0.0856
10283SOL    HW142908   3.992   7.633   3.136 -2.0614  0.5794 -0.1983
10283SOL    HW242909   4.050   7.564   3.273  0.2026  2.0686 -0.3814
10284SOL     OW42910   0.075   3.428   0.859  0.0784 -0.1417 -0.2438
10284SOL    HW142911   0.090   3.509   0.916 -0.1557 -0.5691  0.4265
10284SOL    HW242912  -0.016   3.432   0.818 -0.2228 -0.4372  0.3950
10285SOL     OW42913   8.507   0.161   8.448 -0.2822 -0.4483 -0.4050
10285SOL    HW142914   8.573   0.131   8.517 -1.5801 -1.3918  0.4203
10285SOL    HW242915   8.464   0.246   8.479 -0.3270 -0.4707 -0.4076
10286SOL     OW42916   1.303   4.135   5.216 -0.5215 -0.2882  0.2887
10286SOL    HW142917   1.289   4.135   5.315 -1.9719 -0.6334  0.0980
10286SOL    HW242918   1.272   4.047   5.179 -0.0436 -0.1298 -0.4739
10287SOL     OW42919   7.274   6.742   4.686 -0.3460  0.4886  0.4993
10287SOL    HW142920   7.345   6.812   4.682 -0.3870  0.5550  0.8890
10287SOL    HW242921   7.188   6.780   4.653  0.3895 -0.3601 -2.5138
10288SOL     OW42922   0.193   7.606   1.879 -0.8755 -0.2604 -0.0903
10288SOL    HW142923   0.213   7.681   1.942 -0.5366 -0.0637 -0.4392
10288SOL    HW242924   0.102   7.569   1.900 -1.4425  0.8649 -0.5385
10289SOL     OW42925   2.181   0.938   4.766  0.0648  0.6265  0.5419
10289SOL    HW142926   2.085   0.966   4.770  0.6655  2.8414  0.2318
10289SOL    HW242927   2.207   0.923   4.670 -0.2971 -1.2447  0.7157
10290SOL     OW42928   3.515   5.825   7.206  0.7515  0.3054  0.1292
10290SOL    HW142929   3.552   5.912   7.172 -0.2585  0.6612 -0.0976
10290SOL    HW242930   3.578   5.751   7.184 -0.2535  0.4032 -3.3749
10291SOL     OW42931   4.505   9.973   0.454 -0.0308  0.1521 -0.1543
10291SOL    HW142932   4.495   9.896   0.517  1.6857  0.1374  0.1374
10291SOL    HW242933   4.601  10.003   0.454  0.1466 -0.2952 -3.2816
10292SOL     OW42934   7.485   3.088   4.741 -0.0412 -0.9083  0.2086
10292SOL    HW142935   7.514   3.046   4.827  0.5135  1.1632  1.0584
10292SOL    HW242936   7.415   3.157   4.761 -0.2811 -0.7844 -1.0666
10293SOL     OW42937   6.654   2.560   9.879  0.4615 -0.0142  0.1770
10293SOL    HW142938   6.717   2.533   9.952 -0.7013 -0.4101  1.0528
10293SOL    HW242939   6.596   2.483   9.855  0.7699  0.1503 -1.0993
10294SOL     OW42940   5.384   9.509   5.595  0.1357 -1.0049  0.1072
10294SOL    HW142941   5.387   9.412   5.571  1.9758 -0.8510 -0.3755
10294SOL    HW242942   5.289   9.538   5.606 -0.4323 -2.8227  0.1176
10295SOL     OW42943   9.090   2.772   6.498  0.1837 -0.1604 -0.2929
10295SOL    HW142944   9.103   2.870   6.515  1.4391 -0.7052  2.2363
10295SOL    HW242945   9.110   2.721   6.582 -4.0258 -2.3244 -0.4369
10296SOL     OW42946   1.828   2.145   5.236 -0.1203  0.6015  0.2577
10296SOL    HW142947   1.861   2.108   5.150  0.5274  2.9891 -0.5611
10296SOL    HW242948   1.887   2.115   5.311  0.2672 -0.1613 -0.3515
10297SOL     OW42949   6.966   0.377   2.746 -0.4519 -0.4465 -0.0303
10297SOL    HW142950   6.921   0.358   2.659 -2.1627  2.6144  0.0948
10297SOL    HW242951   7.057   0.414   2.730 -0.6691 -0.1283 -0.5326
10298SOL     OW42952   4.537   6.263   0.335  0.4931 -0.4456 -0.2206
10298SOL    HW142953   4.580   6.182   0.374 -0.5554 -1.2010 -0.6034
10298SOL    HW242954   4.525   6.250   0.236 -0.3475 -0.1337 -0.1652
10299SOL     OW42955   3.747   2.144   0.178  0.0161 -0.4509 -0.0242
10299SOL    HW142956   3.717   2.082   0.250 -0.9672 -1.3033 -1.1548
10299SOL    HW242957   3.693   2.228   0.183 -0.9412 -1.0297 -0.5762
10300SOL     OW42958   4.100   5.533   1.990 -0.1695 -0.1711 -0.2176
10300SOL    HW142959   4.070   5.628   1.995 -0.3633 -0.2435  0.0497
10300SOL    HW242960   4.134   5.504   2.080 -1.0769 -0.6623 -0.0242
10301SOL     OW42961   2.231   2.067   7.544  0.4580 -0.2397 -0.3543
10301SOL    HW142962   2.329   2.080   7.562  0.6309  0.4051 -1.6907
10301SOL    HW242963   2.180   2.077   7.629  1.5585 -0.6412  0.3688
10302SOL     OW42964   5.522   9.781   8.715 -0.5346 -0.1581 -0.2972
10302SOL    HW142965   5.576   9.818   8.790  0.2433  0.3574 -1.1050
10302SOL    HW242966   5.461   9.851   8.679  0.5617  0.2067 -1.4818
10303SOL     OW42967   3.223   9.077   2.167  0.1602  0.3901  0.3717
10303SOL    HW142968   3.208   9.171   2.195 -0.5479  0.8394 -1.4384
10303SOL    HW242969   3.308   9.071   2.115  0.7303 -0.1722  1.3451
10304SOL     OW42970   0.810   8.311   4.242 -0.1319  0.5191  0.0057
10304SOL    HW142971   0.850   8.398   4.215 -0.7065  1.2817  1.5492
10304SOL    HW242972   0.837   8.290   4.336 -0.0688 -0.9337 -0.3169
10305SOL     OW42973   3.346   7.975   8.805 -0.0038  0.4902  0.3531
10305SOL    HW142974   3.317   8.021   8.889  1.6614  0.5647  0.8989
10305SOL    HW242975   3.306   8.022   8.726 -2.0488  0.0724  1.1071
10306SOL     OW42976   1.527   1.250   7.454  0.1649 -0.8095 -0.1896
10306SOL    HW142977   1.503   1.194   7.533  0.6420 -2.2991 -1.0870
10306SOL    HW242978   1.450   1.250   7.389  0.3856 -0.8597 -0.4487
10307SOL     OW42979   9.664   7.325   0.269  0.3612  0.5488 -0.6520
10307SOL    HW142980   9.599   7.254   0.241 -0.1322  0.9867 -0.6424
10307SOL    HW242981   9.613   7.408   0.292  0.9541  1.0009 -0.9619
10308SOL     OW42982   9.069   9.667   5.070  0.6973 -0.4443 -0.6444
10308SOL    HW142983   9.060   9.579   5.116 -0.2414  0.7288  1.4696
10308SOL    HW242984   9.043   9.740   5.132  1.8245  1.3749 -2.2530
10309SOL     OW42985   4.043   7.640   8.341 -0.8623  0.6134  0.4247
10309SOL    HW142986   4.044   7.557   8.396  1.2251  0.1992 -0.2321
10309SOL    HW242987   3.954   7.647   8.294 -1.0322 -1.2748  0.4162
10310SOL     OW42988   9.666   4.018   4.294  0.0701  0.1342  0.0901
10310SOL    HW142989   9.613   3.952   4.240 -1.7863  0.8406  0.9982
10310SOL    HW242990   9.622   4.107   4.291  1.1334  0.7135  1.0041
10311SOL     OW42991   8.131   3.000   7.214  0.0105  0.3182  0.0693
10311SOL    HW142992   8.154   2.999   7.311 -1.3151  1.1063  0.4040
10311SOL    HW242993   8.092   3.089   7.190 -1.3503 -0.4890 -0.7720
10312SOL     OW42994   9.968   5.974   8.274  0.4387 -0.0760 -0.2360
10312SOL    HW142995   9.887   6.020   8.237  0.5516  0.9077  0.7095
10312SOL    HW242996  10.018   6.037   8.333  0.8512 -1.2844  0.7235
10313SOL     OW42997   8.404   1.105   3.112 -0.1525 -0.0052 -0.9602
10313SOL    HW142998   8.410   1.189   3.059 -3.5384  0.6152 -0.4852
10313SOL    HW242999   8.349   1.121   3.194  1.4360 -2.0173  0.5461
10314SOL     OW43000   5.565   7.765   3.765 -0.4109  0.0470 -0.0349
10314SOL    HW143001   5.570   7.668   3.790  0.5382 -0.3353 -1.6785
10314SOL    HW243002   5.531   7.817   3.844  0.3334 -1.4343  1.3135
10315SOL     OW43003   8.433   8.197   8.138  1.3776 -0.4712 -0.2915
10315SOL    HW143004   8.369   8.138   8.088  1.5260  0.3811 -1.4962
10315SOL    HW243005   8.444   8.162   8.231 -1.5445 -0.0996  0.2174
10316SOL     OW43006   8.778   8.681   4.582  0.6829 -0.2617  0.1578
10316SOL    HW143007   8.713   8.607   4.601 -0.3013  0.3647 -0.7279
10316SOL    HW243008   8.862   8.642   4.544 -0.4126 -0.8134 -1.7456
10317SOL     OW43009   2.960   5.631   0.473 -0.6024  0.5722  0.3759
10317SOL    HW143010   2.910   5.698   0.529 -0.6988 -0.1203  1.1355
10317SOL    HW243011   2.919   5.626   0.382 -1.0095  1.0633  0.5311
10318SOL     OW43012   0.269   1.180   5.465 -0.6827  0.2985 -0.6453
10318SOL    HW143013   0.291   1.084   5.448  1.2798  0.3419  1.4508
10318SOL    HW243014   0.274   1.198   5.563 -0.1152  2.7726 -1.1034
10319SOL     OW43015   1.133   1.529   0.477  0.2494  0.3352  0.4968
10319SOL    HW143016   1.129   1.439   0.520 -1.4535  0.2728  0.2442
10319SOL    HW243017   1.212   1.534   0.417  1.1713 -0.4817  1.6138
10320SOL     OW43018   2.376   5.310   5.737 -0.4159  0.0103  0.1534
10320SOL    HW143019   2.298   5.266   5.781 -2.1666  1.4292 -1.4020
10320SOL    HW243020   2.351   5.334   5.643  2.3863 -0.7544 -0.8354
10321SOL     OW43021   4.433   6.545   1.809 -0.2364  0.5946  0.3731
10321SOL    HW143022   4.512   6.492   1.841 -0.0325  1.2387  0.9333
10321SOL    HW243023   4.438   6.638   1.844 -0.5429  1.0260 -0.7043
10322SOL     OW43024   0.589   6.834   7.731 -0.5131 -0.4594 -0.1340
10322SOL    HW143025   0.681   6.802   7.754 -1.5714 -2.6586  1.2742
10322SOL    HW243026   0.556   6.896   7.802 -0.5908 -0.6663  0.0113
10323SOL     OW43027   7.710   3.750   2.201  0.2265 -0.7039  0.0793
10323SOL    HW143028   7.623   3.793   2.222  0.6151  0.3794 -0.4899
10323SOL    HW243029   7.733   3.768   2.105  1.5477 -0.1379  0.4942
10324SOL     OW43030   0.548   3.900   8.705 -0.1720 -0.0373 -0.2235
10324SOL    HW143031   0.473   3.836   8.693 -0.3339 -0.1250  1.1629
10324SOL    HW243032   0.512   3.993   8.711 -0.1510 -0.0592  0.2385
10325SOL     OW43033   2.811   1.592   1.757 -0.7993 -0.4726  0.2585
10325SOL    HW143034   2.711   1.602   1.758 -0.7146  0.5514 -0.8387
10325SOL    HW243035   2.847   1.619   1.846 -1.4219 -0.0083  0.3739
10326SOL     OW43036   1.015   5.978   9.546  0.4503 -0.6824 -0.0071
10326SOL    HW143037   1.075   5.988   9.466  0.6915 -1.1739  0.1147
10326SOL    HW243038   1.066   6.001   9.629  0.0045  0.5175 -0.0482
10327SOL     OW43039   2.555   8.618   3.848  0.0563  0.3718 -0.4145
10327SOL    HW143040   2.604   8.679   3.910  1.2112 -2.9940  2.2125
10327SOL    HW243041   2.482   8.571   3.899 -1.2238  0.0625 -2.4967
10328SOL     OW43042   9.198   0.981   2.582 -0.2381 -0.0908 -0.4444
10328SOL    HW143043   9.228   1.056   2.641 -1.6901  0.1697 -0.0230
10328SOL    HW243044   9.222   0.893   2.624 -2.5611  0.0705  1.2459
10329SOL     OW43045   8.120   0.017   0.020  0.3636  0.1005 -0.0880
10329SOL    HW143046   8.112  -0.078  -0.010 -2.6974 -0.1073  1.1310
10329SOL    HW243047   8.093   0.078  -0.055  1.6940 -0.0105 -0.6622
10330SOL     OW43048   7.967   2.387   1.130  0.1666 -0.1425 -0.2060
10330SOL    HW143049   7.960   2.288   1.143 -0.2772 -0.2064 -0.9206
10330SOL    HW243050   8.007   2.428   1.212  0.6470 -0.9490 -0.0242
10331SOL     OW43051   8.301   2.500   2.664  0.7353  0.2218 -0.2374
10331SOL    HW143052   8.275   2.461   2.753 -0.4739 -0.4001 -0.8447
10331SOL    HW243053   8.398   2.485   2.648  0.8942  0.0600  0.8472
10332SOL     OW43054   1.699   3.273   2.270  0.0171  0.6403 -0.4873
10332SOL    HW143055   1.718   3.322   2.355  0.2212 -0.4824  0.1292
10332SOL    HW243056   1.605   3.292   2.240  0.1755  1.5816 -0.3878
10333SOL     OW43057   5.458   2.947   9.278 -0.3046 -0.0350 -0.0170
10333SOL    HW143058   5.552   2.913   9.281 -0.5499 -0.7304 -0.1245
10333SOL    HW243059   5.395   2.870   9.264 -0.7538  0.6269 -1.7922
10334SOL     OW43060   5.539   1.362   5.329 -0.1477 -0.1904  0.1032
10334SOL    HW143061   5.535   1.426   5.405  1.1329 -1.0408  0.9079
10334SOL    HW243062   5.477   1.285   5.346  1.8531 -1.5612  1.4338
10335SOL     OW43063   2.105   7.215   0.513 -0.4193 -0.0211 -0.2874
10335SOL    HW143064   2.088   7.172   0.424 -0.1782 -2.3392  0.7301
10335SOL    HW243065   2.193   7.262   0.512  0.1372 -1.0683 -0.9140
10336SOL     OW43066   4.290   2.211   2.698 -0.1225 -0.1689  0.4766
10336SOL    HW143067   4.271   2.309   2.690  0.3702  0.1120  2.5670
10336SOL    HW243068   4.349   2.182   2.623 -1.2983  0.8499 -0.8849
10337SOL     OW43069   9.802   2.962   9.650 -0.5027 -0.1434 -0.4336
10337SOL    HW143070   9.819   2.869   9.618  1.1095 -0.7478  2.0136
10337SOL    HW243071   9.860   3.026   9.599 -1.8961 -0.4036 -2.3874
10338SOL     OW43072   1.769   4.467   9.356  0.3211  0.1352 -0.2341
10338SOL    HW143073   1.831   4.458   9.278  0.1597  1.2067 -0.5062
10338SOL    HW243074   1.817   4.446   9.440  0.1749 -2.2273 -0.7258
10339SOL     OW43075   3.972   7.765   6.297 -0.0036 -0.1466 -0.3228
10339SOL    HW143076   3.910   7.707   6.243  1.2674 -0.5400 -1.3740
10339SOL    HW243077   4.008   7.838   6.239 -0.4824  0.8615  0.6271
10340SOL     OW43078   0.643   8.782   8.747  0.6383  0.7788  0.6835
10340SOL    HW143079   0.578   8.709   8.769  0.8887  0.1801 -0.5498
10340SOL    HW243080   0.597   8.852   8.693  1.0774  0.2275 -0.4108
10341SOL     OW43081   3.184   5.771   9.089 -0.0108  0.1448 -0.3727
10341SOL    HW143082   3.206   5.723   9.004 -0.6455 -0.4329 -0.2135
10341SOL    HW243083   3.254   5.752   9.157 -0.7442 -1.3418 -0.0065
10342SOL     OW43084   3.525   7.222   1.597  0.1477  0.4437 -0.1303
10342SOL    HW143085   3.606   7.210   1.655 -0.4398 -1.1898  0.3937
10342SOL    HW243086   3.518   7.317   1.568  2.0617  0.6758  0.1067
10343SOL     OW43087   3.580   8.433   4.075 -0.6941 -0.6766  0.2743
10343SOL    HW143088   3.573   8.419   3.976 -0.7248 -1.2347  0.3571
10343SOL    HW243089   3.488   8.448   4.112 -0.5187  1.3754 -0.0524
10344SOL     OW43090   0.206   1.307   2.831 -0.2026  0.1517  0.2003
10344SOL    HW143091   0.258   1.250   2.767  0.5431 -0.3129  1.2056
10344SOL    HW243092   0.111   1.274   2.836  0.0454 -0.5554  0.2341
10345SOL     OW43093   7.170   3.482   8.078 -0.1110 -0.2225 -0.4158
10345SOL    HW143094   7.097   3.457   8.141  0.2999  0.7720  0.4645
10345SOL    HW243095   7.158   3.577   8.049  0.4587 -0.2646 -0.8000
10346SOL     OW43096   2.422   5.729  10.025  0.5285 -0.0173  0.0667
10346SOL    HW143097   2.511   5.700  10.062  1.6455  1.0846 -1.6580
10346SOL    HW243098   2.414   5.828  10.032  0.4309  0.1312 -1.8420
10347SOL     OW43099   2.907   1.980   0.737 -0.0561  0.6380 -0.3362
10347SOL    HW143100   2.883   2.025   0.823 -0.0207  1.3300 -0.6848
10347SOL    HW243101   2.989   1.923   0.752 -0.7731 -0.2361  0.3818
10348SOL     OW43102   8.993   5.535   5.388 -0.3382 -0.8620  0.2563
10348SOL    HW143103   9.018   5.631   5.400  1.4768 -1.1782 -0.8999
10348SOL    HW243104   9.012   5.485   5.473  0.9938 -0.6740  0.0790
10349SOL     OW43105   0.110   7.895   5.407 -0.5679  0.0629  1.0318
10349SOL    HW143106   0.028   7.864   5.455 -2.8366 -0.0586 -2.7358
10349SOL    HW243107   0.086   7.925   5.315  3.0979  3.5367  1.0537
10350SOL     OW43108   8.821   4.962   5.105 -0.7527 -0.4024 -0.5417
10350SOL    HW143109   8.893   4.912   5.153 -1.7705 -1.4019 -0.0269
10350SOL    HW243110   8.850   5.056   5.090  0.7862 -0.8735 -0.6129
10351SOL     OW43111   1.359   0.510   9.319 -0.5448 -0.3911  0.0795
10351SOL    HW143112   1.296   0.588   9.324  3.5962  3.1062  0.7393
10351SOL    HW243113   1.370   0.469   9.409 -1.4056 -0.6650  0.0646
10352SOL     OW43114   8.164   9.528   6.482 -0.1678  0.0375 -0.4328
10352SOL    HW143115   8.074   9.565   6.461 -0.1673  0.4627  0.2905
10352SOL    HW243116   8.196   9.565   6.569 -1.1091 -3.2825  1.4375
10353SOL     OW43117   7.290   8.265   4.539  0.4552 -0.3676  0.0608
10353SOL    HW143118   7.232   8.183   4.534 -1.3037  0.8398 -0.0472
10353SOL    HW243119   7.264   8.319   4.619  1.0348  0.4869 -0.3206
10354SOL     OW43120   7.713   0.278   2.451  0.4758  0.1429 -0.3415
10354SOL    HW143121   7.622   0.293   2.414 -0.9091 -0.3766  2.7838
10354SOL    HW243122   7.733   0.347   2.520  1.0937 -1.7638  1.4199
10355SOL     OW43123   9.119   2.678   7.120 -0.0455 -0.3864  0.1915
10355SOL    HW143124   9.162   2.598   7.077 -1.8288 -1.1756 -0.1470
10355SOL    HW243125   9.021   2.678   7.101 -0.1623  1.5618  0.7189
10356SOL     OW43126   0.062   4.430   0.252  0.5021  0.0962  0.1069
10356SOL    HW143127   0.101   4.344   0.220 -0.3197  0.0180 -0.7111
10356SOL    HW243128   0.089   4.446   0.347 -1.0163 -2.1061  0.9567
10357SOL     OW43129   3.513   9.417   9.396  0.2404 -0.3509 -0.0540
10357SOL    HW143130   3.483   9.354   9.468  0.6816 -1.6105 -0.9641
10357SOL    HW243131   3.546   9.501   9.438 -0.3633 -0.7151  1.1791
10358SOL     OW43132   8.561   8.761   8.671  0.6096  0.5380 -0.4822
10358SOL    HW143133   8.477   8.742   8.720  0.7799  1.7258  0.3032
10358SOL    HW243134   8.638   8.714   8.716  0.7164  1.3613  0.2035
10359SOL     OW43135   0.270   9.815   0.097 -0.1097  0.0509 -0.5601
10359SOL    HW143136   0.337   9.888   0.090 -0.1987  0.4483  1.9905
10359SOL    HW243137   0.188   9.839   0.045  0.0649  1.5447 -0.1683
10360SOL     OW43138   2.091   4.472   7.007  0.0017  0.6010 -0.7050
10360SOL    HW143139   2.166   4.414   7.040  0.3611  1.9264  0.8651
10360SOL    HW243140   2.081   4.459   6.909  1.1565 -0.8896 -0.6570
10361SOL     OW43141   8.159   9.906   2.173 -0.5076  0.2565 -0.2478
10361SOL    HW143142   8.171   9.960   2.256 -2.2161 -1.1817  0.9987
10361SOL    HW243143   8.109   9.960   2.105 -1.5164  0.5313  0.6921
10362SOL     OW43144   1.512   5.844   4.429 -0.3611  0.0517 -0.0924
10362SOL    HW143145   1.467   5.930   4.454 -1.8555 -1.2708  1.9425
10362SOL    HW243146   1.605   5.863   4.399 -0.7057  2.3905  0.2116
10363SOL     OW43147   8.922   4.345   3.719  0.2691  0.5529 -0.4685
10363SOL    HW143148   8.824   4.323   3.721  0.1263  1.0878 -1.1905
10363SOL    HW243149   8.973   4.276   3.770 -0.4996  0.3398  0.0144
10364SOL     OW43150   1.194   7.475   4.934 -0.1872 -0.4778  0.1347
10364SOL    HW143151   1.263   7.491   5.005  0.6348 -1.8032 -0.3687
10364SOL    HW243152   1.127   7.550   4.937  0.1421 -0.2148  1.9409
10365SOL     OW43153   4.093   9.829   2.582  0.3352 -0.7022  0.2213
10365SOL    HW143154   4.025   9.873   2.642  1.3395 -0.6554  1.3458
10365SOL    HW243155   4.176   9.811   2.634 -0.4754 -5.1240  0.1593
10366SOL     OW43156   3.118   8.406   8.262  0.0731  0.0112 -0.3873
10366SOL    HW143157   3.156   8.425   8.171  0.0486  0.6975 -0.2527
10366SOL    HW243158   3.075   8.315   8.261 -0.4877  0.2747 -1.2385
10367SOL     OW43159   9.485   1.256   2.831 -0.4858 -0.1708  0.1190
10367SOL    HW143160   9.532   1.236   2.745 -0.4722  0.1710  0.0500
10367SOL    HW243161   9.393   1.292   2.812 -0.3237  0.3094  0.2417
10368SOL     OW43162   7.477   4.602   7.297 -0.4316 -0.1553  0.1561
10368SOL    HW143163   7.473   4.510   7.257 -0.8845 -0.3133  0.5697
10368SOL    HW243164   7.419   4.664   7.244  0.7489  0.1595 -0.8081
10369SOL     OW43165   7.967   4.821   0.463 -0.0427 -0.3239 -0.1523
10369SOL    HW143166   7.957   4.883   0.385  0.3104  0.4958  0.4427
10369SOL    HW243167   7.939   4.729   0.437 -2.1079  0.4082 -0.6067
10370SOL     OW43168   5.003   7.775   2.941  0.0635  0.0739  0.2267
10370SOL    HW143169   4.924   7.715   2.931  0.8018 -0.9197  0.3826
10370SOL    HW243170   5.075   7.729   2.993  1.6748  0.1075 -1.9263
10371SOL     OW43171   7.662   6.919   6.844 -0.0644 -0.1869  0.0636
10371SOL    HW143172   7.597   6.847   6.868 -0.6758 -0.1290 -1.3555
10371SOL    HW243173   7.618   7.009   6.853  1.2310  0.1737  3.5846
10372SOL     OW43174   3.377   3.953   6.676  0.7926  0.0214  0.4445
10372SOL    HW143175   3.325   3.970   6.592  1.6805 -1.3024 -0.3910
10372SOL    HW243176   3.405   4.041   6.716  0.5100  0.6615 -0.7377
10373SOL     OW43177   3.824   2.600   7.360  0.2705  0.2085 -0.3511
10373SOL    HW143178   3.825   2.658   7.278 -2.7861  2.0510  0.8292
10373SOL    HW243179   3.910   2.549   7.366  1.8977  2.5120 -2.9427
10374SOL     OW43180   0.698   8.517   4.724  0.0624 -1.0749 -0.3596
10374SOL    HW143181   0.751   8.434   4.739 -1.7953 -2.2815 -0.4315
10374SOL    HW243182   0.716   8.551   4.632  0.8676 -1.3563 -0.3110
10375SOL     OW43183   8.609   7.331   8.995  0.2265  0.1364 -0.2487
10375SOL    HW143184   8.520   7.344   9.038 -0.0357 -0.4664 -0.6147
10375SOL    HW243185   8.653   7.250   9.033 -0.2180 -0.6921 -1.4606
10376SOL     OW43186   3.563   0.441   0.654  0.0170 -0.3994 -0.3516
10376SOL    HW143187   3.613   0.498   0.719 -0.5756  0.3779 -0.5666
10376SOL    HW243188   3.573   0.478   0.562  0.6189 -1.3380 -0.6677
10377SOL     OW43189   6.432   1.784   5.851 -0.1357 -0.2501 -0.2869
10377SOL    HW143190   6.527   1.795   5.819 -0.3094  0.5905 -0.5116
10377SOL    HW243191   6.370   1.832   5.788 -0.4382  1.9334  1.6147
10378SOL     OW43192   8.552   9.824   8.241  0.1771 -0.0836  0.4746
10378SOL    HW143193   8.517   9.909   8.200  1.7521 -0.7480 -2.3333
10378SOL    HW243194   8.646   9.838   8.271 -0.5860  0.0458  2.9269
10379SOL     OW43195   8.622   5.194   6.393 -0.0337 -0.2272 -1.0487
10379SOL    HW143196   8.698   5.160   6.448 -0.0280 -1.0196 -1.5475
10379SOL    HW243197   8.555   5.239   6.453  0.3687 -0.3583 -0.5000
10380SOL     OW43198   3.502   0.444   7.097 -0.2503 -0.0560  0.1073
10380SOL    HW143199   3.564   0.464   7.021 -0.4938 -0.6022 -0.2318
10380SOL    HW243200   3.441   0.369   7.072 -0.5005 -0.0673  0.7473
10381SOL     OW43201   0.675   6.295   2.609  0.2524  0.2858  0.2970
10381SOL    HW143202   0.771   6.324   2.616  0.5108 -0.9921  2.3040
10381SOL    HW243203   0.667   6.222   2.541  0.6845  0.4471  0.0707
10382SOL     OW43204   0.651   8.694   0.649 -0.0004 -0.3293 -0.6713
10382SOL    HW143205   0.705   8.752   0.710 -0.7874  1.7472 -1.9381
10382SOL    HW243206   0.559   8.683   0.686  0.4125 -1.5517  0.0320
10383SOL     OW43207   5.685   3.706   0.533 -0.2732  0.2309 -0.1804
10383SOL    HW143208   5.783   3.702   0.554 -0.3650  1.7721  0.5992
10383SOL    HW243209   5.660   3.799   0.506 -1.1339 -0.6029 -2.4494
10384SOL     OW43210   8.461   2.639   4.619 -0.0396  0.7020 -0.5788
10384SOL    HW143211   8.495   2.717   4.671 -0.7575 -0.6191  1.9503
10384SOL    HW243212   8.386   2.667   4.560 -1.5111  1.5914  1.6790
10385SOL     OW43213   8.110   3.328   9.283  0.3820 -0.2733  0.2177
10385SOL    HW143214   8.133   3.340   9.380  0.6113 -0.3264  0.1710
10385SOL    HW243215   8.027   3.271   9.276  0.3856 -0.3006  0.3835
10386SOL     OW43216   2.928   4.964   0.084  0.2706 -0.2749  0.4807
10386SOL    HW143217   2.919   4.896   0.157 -0.6393 -1.7658 -0.9644
10386SOL    HW243218   2.940   4.917  -0.003 -2.5525  1.3338 -0.8434
10387SOL     OW43219   4.888   0.850   4.193  0.0513  0.2068  0.0595
10387SOL    HW143220   4.938   0.937   4.195 -0.5438  0.6301 -1.7249
10387SOL    HW243221   4.855   0.828   4.284  0.9834  1.4095  0.6974
10388SOL     OW43222   2.422   5.103   1.286 -0.1309  0.1074  0.3345
10388SOL    HW143223   2.377   5.163   1.352  1.7008 -0.7087  2.4227
10388SOL    HW243224   2.399   5.007   1.307  1.8871 -0.2681  0.9755
10389SOL     OW43225   2.973   4.455   8.636  0.1224 -0.4703 -0.2039
10389SOL    HW143226   3.060   4.434   8.681  0.1211  0.1874  0.1108
10389SOL    HW243227   2.961   4.554   8.632 -0.3138 -0.5486 -0.8296
10390SOL     OW43228   8.613   7.493   0.599 -0.3432  0.3634 -0.9685
10390SOL    HW143229   8.536   7.462   0.655  0.6386 -1.1482 -0.4023
10390SOL    HW243230   8.699   7.472   0.647  0.4394  1.4705 -1.8601
10391SOL     OW43231   7.276   2.173   8.538 -0.4607  0.6876 -0.3094
10391SOL    HW143232   7.308   2.088   8.497  0.3679  0.0725  1.5837
10391SOL    HW243233   7.338   2.248   8.513 -0.2547  0.4199 -0.6000
10392SOL     OW43234   1.140   3.817   0.685  0.0291  0.3013 -0.2177
10392SOL    HW143235   1.080   3.754   0.636  1.1395 -0.9084 -0.0543
10392SOL    HW243236   1.104   3.834   0.776 -1.0952  1.1446 -0.8028
10393SOL     OW43237   3.809   1.361   9.151 -0.0231 -0.0936 -0.3931
10393SOL    HW143238   3.797   1.307   9.067 -2.2868 -1.7182  0.9240
10393SOL    HW243239   3.879   1.318   9.208 -0.0491 -0.2429 -0.4708
10394SOL     OW43240   4.779   0.653   9.808 -0.5323  0.2569  0.3665
10394SOL    HW143241   4.876   0.657   9.832 -0.8543  1.0468  1.5886
10394SOL    HW243242   4.753   0.738   9.762 -0.4298 -0.3544 -0.8422
10395SOL     OW43243   7.200   6.708   8.623  0.2096 -0.3078 -0.4656
10395SOL    HW143244   7.289   6.709   8.578  0.6854  1.1014  0.4597
10395SOL    HW243245   7.168   6.802   8.634 -0.9542 -0.7623  0.0457
10396SOL     OW43246   0.152   4.710   8.029  0.1962 -0.3115  0.1567
10396SOL    HW143247   0.104   4.758   8.103 -0.2528 -1.5204  0.6636
10396SOL    HW243248   0.242   4.751   8.016 -0.1068  0.5443  0.7094
10397SOL     OW43249   0.233   2.481   5.973 -0.1870 -0.1613  0.2926
10397SOL    HW143250   0.206   2.467   6.069 -2.1738 -1.2276 -0.3927
10397SOL    HW243251   0.167   2.540   5.928  0.4317 -0.1166 -0.5673
10398SOL     OW43252   9.574   3.901   4.054 -0.3820 -0.2962  0.0788
10398SOL    HW143253   9.494   3.957   4.076  1.7406  3.3859 -1.0974
10398SOL    HW243254   9.576   3.882   3.956 -0.0353 -0.7271  0.1650
10399SOL     OW43255   9.775   5.149   9.933  0.2011 -0.5870 -0.6049
10399SOL    HW143256   9.862   5.192   9.959  0.6963 -1.3567 -0.9928
10399SOL    HW243257   9.736   5.104  10.013 -0.5496  0.9637 -0.0794
10400SOL     OW43258   3.088   3.110   7.653 -0.0800 -0.1739  0.6287
10400SOL    HW143259   3.127   3.057   7.728  1.0782 -2.3940 -1.4731
10400SOL    HW243260   3.134   3.198   7.647 -0.9839  0.5114  3.2251
10401SOL     OW43261   4.298   0.152   3.862  0.0959 -0.5112  0.3792
10401SOL    HW143262   4.297   0.057   3.830  0.7578 -0.6404  0.7395
10401SOL    HW243263   4.392   0.182   3.874 -0.0930  0.4956 -0.6094
10402SOL     OW43264   6.833   3.092   0.274 -0.3127  0.4931  0.2953
10402SOL    HW143265   6.765   3.153   0.315 -0.0987 -0.0123  1.4293
10402SOL    HW243266   6.923   3.112   0.314 -0.4374 -1.3572  1.5661
10403SOL     OW43267   3.764   7.216   1.729  0.7179 -0.2076 -0.6088
10403SOL    HW143268   3.847   7.255   1.691  1.4295 -0.3082  0.8147
10403SOL    HW243269   3.746   7.256   1.819 -0.3865 -0.6961 -0.6013
10404SOL     OW43270   8.178   3.312   0.880 -0.6092 -0.0122 -0.1475
10404SOL    HW143271   8.263   3.313   0.828 -0.6571 -0.2782 -0.2317
10404SOL    HW243272   8.197   3.335   0.976 -0.5687  0.8076 -0.3508
10405SOL     OW43273   9.312   4.719   4.040  0.3586  0.2408  0.2369
10405SOL    HW143274   9.394   4.664   4.027  0.0410  0.3127 -2.4074
10405SOL    HW243275   9.336   4.806   4.081  1.6236  0.2658 -0.5354
10406SOL     OW43276   0.964   5.843   0.867 -0.3177 -0.5515 -0.0973
10406SOL    HW143277   1.035   5.882   0.808 -1.5892  0.6393 -0.8769
10406SOL    HW243278   0.953   5.746   0.846  0.1564 -0.4367 -0.9130
10407SOL     OW43279   7.999   3.847   7.010 -0.0582  0.7730  0.4398
10407SOL    HW143280   7.950   3.895   6.937  1.0481 -0.1063 -0.9145
10407SOL    HW243281   7.984   3.748   7.000  1.2954  0.5514  0.4925
10408SOL     OW43282   8.035   2.813   7.627 -0.2708 -0.9824  0.4734
10408SOL    HW143283   7.936   2.812   7.641 -0.4045 -0.6409 -0.3823
10408SOL    HW243284   8.080   2.771   7.705 -1.0144  0.1070  1.5114
10409SOL     OW43285   0.089   8.315   9.625  0.6661  0.5328 -0.0806
10409SOL    HW143286   0.143   8.293   9.707  0.7748  0.2987 -0.2133
10409SOL    HW243287  -0.002   8.345   9.653  0.8929  1.0113  0.1491
10410SOL     OW43288   5.735   3.050   2.596 -0.4247  0.3371 -0.4275
10410SOL    HW143289   5.809   2.991   2.627  0.1047  0.8554 -0.6911
10410SOL    HW243290   5.692   3.093   2.676  0.9022  1.6261 -0.3819
10411SOL     OW43291   4.428   4.334   9.473 -0.0254 -0.0114 -0.0563
10411SOL    HW143292   4.381   4.247   9.489  0.4797 -0.2915 -0.0807
10411SOL    HW243293   4.527   4.317   9.465  0.0242  0.4999 -0.5528
10412SOL     OW43294   7.843   3.993   9.398 -0.1011 -0.1393  0.0292
10412SOL    HW143295   7.854   4.043   9.484  2.2084 -0.9082  0.2260
10412SOL    HW243296   7.805   3.902   9.417  1.1981 -0.6229  0.3505
10413SOL     OW43297   4.052   4.008   0.468  0.2941  0.6413  0.1093
10413SOL    HW143298   3.998   4.068   0.409  0.4546 -0.0229 -0.7179
10413SOL    HW243299   4.037   3.912   0.441  1.4453  0.4191  0.2392
10414SOL     OW43300   2.703   7.409   6.446 -0.2599  0.7036  0.0864
10414SOL    HW143301   2.744   7.465   6.375 -0.3788  0.6431 -0.0306
10414SOL    HW243302   2.665   7.326   6.405  0.5132  0.2163  0.3498
10415SOL     OW43303   9.184   1.760   9.807 -0.3455 -0.1835 -0.1190
10415SOL    HW143304   9.182   1.793   9.713 -3.1986 -1.0384 -0.4000
10415SOL    HW243305   9.223   1.830   9.866 -1.4393  1.6063 -1.4651
10416SOL     OW43306   8.834   1.383   5.796 -0.3011  0.1406  0.9079
10416SOL    HW143307   8.782   1.311   5.751  1.5578 -1.2053  0.8347
10416SOL    HW243308   8.817   1.379   5.895 -0.3704 -0.2687  0.8819
10417SOL     OW43309   3.185   4.725   6.719  0.6785  0.5622 -0.4927
10417SOL    HW143310   3.110   4.702   6.781 -0.0601  0.4972 -1.3858
10417SOL    HW243311   3.173   4.675   6.633  0.1797  2.7071 -1.7088
10418SOL     OW43312   9.791   9.738   4.200  0.0942  0.7565 -0.1879
10418SOL    HW143313   9.891   9.742   4.193  0.2421 -0.9168  0.6960
10418SOL    HW243314   9.762   9.642   4.196 -1.5097  1.2676 -0.8410
10419SOL     OW43315   9.068   1.966   6.891  0.1031 -0.0606 -0.0151
10419SOL    HW143316   9.000   1.993   6.822 -0.7113  0.8589  1.1394
10419SOL    HW243317   9.140   1.912   6.847  0.0253  1.2024 -1.7593
10420SOL     OW43318   9.831   9.852   3.525  0.0801  0.2564 -0.2883
10420SOL    HW143319   9.825   9.949   3.545  0.2376  0.1943  0.0570
10420SOL    HW243320   9.766   9.828   3.453  0.2500  0.6700 -0.5785
10421SOL     OW43321   4.185   9.202   5.420  0.1508 -0.0349  0.8036
10421SOL    HW143322   4.124   9.281   5.415  0.0208 -0.2404 -1.3355
10421SOL    HW243323   4.278   9.230   5.394  0.3089 -0.3665  1.0134
10422SOL     OW43324   3.021   9.193   6.192  0.8631  0.0088 -0.2160
10422SOL    HW143325   2.997   9.100   6.219 -1.0184 -0.0554 -1.9595
10422SOL    HW243326   2.967   9.258   6.246 -0.6007 -0.0418 -1.5678
10423SOL     OW43327   5.130   1.323   6.803 -0.1142 -0.4098  0.4680
10423SOL    HW143328   5.188   1.345   6.882 -0.0270 -2.6347  1.0419
10423SOL    HW243329   5.155   1.233   6.767 -1.1199 -0.0255 -1.2312
10424SOL     OW43330   5.375   5.766   9.011  0.1592  0.0593 -0.5007
10424SOL    HW143331   5.398   5.804   9.100  0.9414  0.4771 -0.8797
10424SOL    HW243332   5.286   5.801   8.981  1.2066  2.2062 -1.1863
10425SOL     OW43333   7.855   8.042   7.480  0.2699  0.5348 -1.0693
10425SOL    HW143334   7.927   7.981   7.447 -0.6516 -0.0001 -2.1497
10425SOL    HW243335   7.814   8.090   7.402 -1.3832 -0.1032 -0.6300
10426SOL     OW43336   1.225   2.394   1.949 -0.3575  0.4325 -0.0824
10426SOL    HW143337   1.133   2.381   1.987 -0.8100  0.0130 -1.2758
10426SOL    HW243338   1.287   2.423   2.021 -1.2043 -0.2798  0.9560
10427SOL     OW43339   3.952   0.410   4.234 -0.6382  0.0465  0.0675
10427SOL    HW143340   4.046   0.428   4.262 -0.9545  0.7817  0.6551
10427SOL    HW243341   3.888   0.452   4.299 -1.3726  0.1963 -0.7311
10428SOL     OW43342   2.672   1.575   9.368 -0.2590 -0.0381  0.2247
10428SOL    HW143343   2.651   1.481   9.341  0.4681  0.1363 -0.9663
10428SOL    HW243344   2.739   1.575   9.443  0.0555 -0.4571 -0.0613
10429SOL     OW43345   1.521   6.471   0.197  0.2897 -0.1238  0.3746
10429SOL    HW143346   1.441   6.477   0.138 -0.3461 -1.5593  1.0866
10429SOL    HW243347   1.595   6.525   0.158 -0.3731 -0.4319 -1.3264
10430SOL     OW43348   8.207   3.503   5.026  0.2360 -0.1427  0.7211
10430SOL    HW143349   8.294   3.552   5.036  1.0242 -1.6511  1.3493
10430SOL    HW243350   8.158   3.538   4.946  0.6663  1.8308  1.2816
10431SOL     OW43351   4.035   6.129   8.407  0.3711  0.0630  0.0037
10431SOL    HW143352   4.041   6.227   8.424 -0.0114 -0.0622  0.8676
10431SOL    HW243353   4.125   6.095   8.377 -0.0446  1.0767 -2.5102
10432SOL     OW43354   8.051   5.323   4.154  0.4270 -0.6060  0.2120
10432SOL    HW143355   8.136   5.376   4.157  0.8468 -1.2809  0.3836
10432SOL    HW243356   7.975   5.380   4.187  0.7591  0.0956 -0.2239
10433SOL     OW43357   3.549   5.432   5.289 -0.1964 -0.1211  0.0978
10433SOL    HW143358   3.470   5.382   5.326 -0.9437  0.7130 -0.3331
10433SOL    HW243359   3.631   5.377   5.299 -0.6868 -0.6346  1.3784
10434SOL     OW43360   0.021   6.385   5.699 -0.2737 -0.6488 -0.4409
10434SOL    HW143361   0.092   6.372   5.769 -0.6417  0.9257  0.2257
10434SOL    HW243362  -0.029   6.299   5.687 -0.4060 -0.8572  1.4469
10435SOL     OW43363   2.395   7.011   0.821  0.2213 -0.1624 -0.3885
10435SOL    HW143364   2.449   7.027   0.738  1.1854  1.3654  0.5059
10435SOL    HW243365   2.304   7.052   0.809  0.1621 -0.4259 -0.8834
10436SOL     OW43366   1.398   6.127   7.209  0.0476  0.0144  0.4720
10436SOL    HW143367   1.421   6.083   7.296 -0.2074  1.4668  1.2848
10436SOL    HW243368   1.301   6.148   7.206 -0.2384 -1.3895 -0.8051
10437SOL     OW43369   7.944   7.875   0.968 -0.1763 -0.3419  0.1403
10437SOL    HW143370   7.863   7.933   0.979 -0.5325 -0.5731 -1.2293
10437SOL    HW243371   8.025   7.932   0.960 -0.3813 -0.0648  0.0166
10438SOL     OW43372   1.454   0.093   3.177  0.1212 -0.3031 -0.2102
10438SOL    HW143373   1.536   0.044   3.205 -0.0796 -0.3159  0.3558
10438SOL    HW243374   1.388   0.029   3.138  1.1677 -0.0178 -2.5058
10439SOL     OW43375   2.725   0.220   0.974 -0.2149 -0.5002  0.2254
10439SOL    HW143376   2.817   0.191   0.998  0.0154  1.1820  1.5513
10439SOL    HW243377   2.660   0.147   0.995  0.6135 -0.9973  1.0976
10440SOL     OW43378   8.262   4.922   9.602 -0.7759  0.2870 -0.5698
10440SOL    HW143379   8.335   4.923   9.534 -0.8535 -0.3105 -0.6628
10440SOL    HW243380   8.183   4.872   9.565 -0.4095 -1.0153  0.3866
10441SOL     OW43381   3.962   2.721   1.060  0.0505 -0.0300 -0.0972
10441SOL    HW143382   3.915   2.722   1.149  0.0273  0.6418 -0.1145
10441SOL    HW243383   3.954   2.630   1.020 -0.4729 -0.1680  0.3089
10442SOL     OW43384   9.612   1.796   1.780 -0.1295  0.0337 -0.4647
10442SOL    HW143385   9.533   1.735   1.786  0.1879 -0.4326 -1.0940
10442SOL    HW243386   9.645   1.816   1.873  0.3155 -1.4648 -0.2829
10443SOL     OW43387   0.699   0.771   4.952 -0.3243  0.2558 -0.2519
10443SOL    HW143388   0.602   0.789   4.938 -0.4696 -0.6540 -0.4743
10443SOL    HW243389   0.750   0.798   4.871 -0.7443 -1.8472 -1.2356
10444SOL     OW43390   0.898   7.354   8.246 -0.1251 -0.4619 -0.8970
10444SOL    HW143391   0.951   7.270   8.240 -0.6220 -0.9143  0.9251
10444SOL    HW243392   0.840   7.352   8.327 -1.4798  0.8721 -1.8057
10445SOL     OW43393   2.922   2.618   9.552  0.5313  0.5297 -0.1617
10445SOL    HW143394   2.960   2.542   9.499 -2.1830 -0.9121 -0.1326
10445SOL    HW243395   2.913   2.591   9.647  0.6043  1.3199  0.0775
10446SOL     OW43396   4.474   7.922   9.969  0.3680  0.2247  0.1263
10446SOL    HW143397   4.516   7.929  10.059 -2.1610  2.8419  1.1732
10446SOL    HW243398   4.394   7.863   9.975  0.5110 -0.0425 -0.5473
10447SOL     OW43399   3.653   6.693   8.783  0.1354 -0.3407  0.0212
10447SOL    HW143400   3.699   6.654   8.703  1.1646  0.7188  0.0718
10447SOL    HW243401   3.713   6.761   8.825 -1.2539  0.6527  0.4378
10448SOL     OW43402   1.579   1.219   4.489 -0.0985  0.5488 -0.4863
10448SOL    HW143403   1.571   1.121   4.470  0.4023  0.1590  1.2026
10448SOL    HW243404   1.506   1.268   4.441 -1.3054 -0.8251 -0.0946
10449SOL     OW43405   3.285   0.328   9.993  0.0973 -0.0724  0.0322
10449SOL    HW143406   3.277   0.229   9.978  0.7851 -0.4076  1.7330
10449SOL    HW243407   3.293   0.346  10.091 -1.8019  1.8103 -0.1275
10450SOL     OW43408   1.267   8.997   5.824 -0.1989  0.8330  0.2369
10450SOL    HW143409   1.231   8.951   5.905 -0.8204  0.2911 -0.3398
10450SOL    HW243410   1.191   9.023   5.764  0.3839 -1.2098 -1.4649
10451SOL     OW43411   4.022   0.009   7.340 -0.0455  0.1341 -0.4313
10451SOL    HW143412   4.055   0.084   7.397 -1.0673  0.3758 -0.1587
10451SOL    HW243413   3.944   0.039   7.286  0.4289 -0.3286 -1.3872
10452SOL     OW43414   2.278   4.566   1.373  0.6473  0.5556 -0.0091
10452SOL    HW143415   2.350   4.636   1.372  1.3106 -0.1292 -0.4348
10452SOL    HW243416   2.264   4.531   1.281  1.9610 -1.5209  0.5303
10453SOL     OW43417   7.275   3.597   2.293  0.5180 -0.3261  0.0140
10453SOL    HW143418   7.276   3.550   2.381  2.1275  1.9013  1.2340
10453SOL    HW243419   7.367   3.624   2.268 -0.5600  4.6935  0.8408
10454SOL     OW43420   8.861   7.580   9.865 -0.2142  0.1584  0.4348
10454SOL    HW143421   8.783   7.632   9.831  0.7201  0.2869 -1.5709
10454SOL    HW243422   8.945   7.629   9.844  0.5593 -1.2202  0.2508
10455SOL     OW43423   0.469   2.922   0.973 -0.2554 -0.3490 -0.2199
10455SOL    HW143424   0.564   2.950   0.982 -0.1092 -1.0306  0.3649
10455SOL    HW243425   0.441   2.931   0.877  1.1515 -2.5184 -0.8797
10456SOL     OW43426   9.715   9.276   2.379  0.4479 -0.2495 -0.1880
10456SOL    HW143427   9.811   9.278   2.405 -0.1555 -0.1964  2.1216
10456SOL    HW243428   9.679   9.183   2.390 -0.4997  0.3330  1.7665
10457SOL     OW43429   7.449   9.840   5.217 -0.1709  0.1427  0.1573
10457SOL    HW143430   7.362   9.864   5.261 -0.6450 -1.9981  0.4400
10457SOL    HW243431   7.520   9.828   5.286  0.1414  1.0171 -0.0070
10458SOL     OW43432   4.296   3.742   8.095  0.0205  0.1438 -0.1081
10458SOL    HW143433   4.213   3.775   8.050  0.4036 -0.5241 -1.3209
10458SOL    HW243434   4.346   3.681   8.033  1.1351  0.1078  0.8056
10459SOL     OW43435   7.597   1.123   7.556 -0.4183 -0.4600  0.5515
10459SOL    HW143436   7.565   1.115   7.462  1.6305 -1.5734 -0.0803
10459SOL    HW243437   7.649   1.208   7.567 -1.1675 -0.0359  0.8416
10460SOL     OW43438   6.310   6.918   4.771 -0.2127 -0.0636  0.8610
10460SOL    HW143439   6.354   6.829   4.758  0.0154  0.2039 -0.2406
10460SOL    HW243440   6.373   6.990   4.745 -1.6018  0.2958 -1.7537
10461SOL     OW43441   3.808   1.601   6.343  0.0592 -0.1120  0.9483
10461SOL    HW143442   3.903   1.611   6.371  0.3548 -0.2605  0.0330
10461SOL    HW243443   3.797   1.515   6.293 -0.8263 -0.7075  2.1376
10462SOL     OW43444   5.826   9.742   6.307 -0.3854  0.5584  0.2241
10462SOL    HW143445   5.804   9.650   6.339  0.8055 -0.0253 -0.6015
10462SOL    HW243446   5.887   9.787   6.372  3.5960 -1.3288 -2.0170
10463SOL     OW43447   1.637   8.916   4.418 -0.2678 -0.0492 -0.0320
10463SOL    HW143448   1.605   8.831   4.376 -0.7527  0.6313 -1.0824
10463SOL    HW243449   1.695   8.896   4.497  0.9749 -1.3724 -1.2628
10464SOL     OW43450   6.377   1.465   6.621 -0.4574 -0.0370 -0.1311
10464SOL    HW143451   6.318   1.455   6.541 -0.0041  0.2122 -0.4998
10464SOL    HW243452   6.430   1.381   6.634 -1.8934 -0.7880  1.0201
10465SOL     OW43453   1.615   7.915   1.097 -0.3885  0.3753  0.1042
10465SOL    HW143454   1.627   7.940   1.193  3.6862  1.4074 -0.5887
10465SOL    HW243455   1.634   7.817   1.086  2.1501  0.8332 -0.0288
10466SOL     OW43456   3.648   4.024   2.507  0.0791  0.0768  0.3219
10466SOL    HW143457   3.563   4.046   2.459 -0.1464  0.5781  0.9431
10466SOL    HW243458   3.669   4.097   2.573 -0.9181 -1.7679  2.7452
10467SOL     OW43459   1.883   9.175   0.926 -0.6491  0.2508 -0.3897
10467SOL    HW143460   1.956   9.135   0.982  0.1034  1.8271 -0.2222
10467SOL    HW243461   1.797   9.128   0.946 -0.2062  0.1480  1.3941
10468SOL     OW43462   1.071   0.317   1.145 -0.4436 -0.0648 -0.5337
10468SOL    HW143463   1.098   0.261   1.066  0.3404  0.5405 -0.7005
10468SOL    HW243464   1.052   0.258   1.223 -0.6385 -0.6291 -1.0056
10469SOL     OW43465   5.911   1.892   9.374 -0.6035  0.4805  0.2315
10469SOL    HW143466   5.820   1.870   9.408 -1.1046  0.4594 -1.0976
10469SOL    HW243467   5.941   1.822   9.311  0.2860  0.5619  0.5558
10470SOL     OW43468   4.068   9.332   8.764  0.3670 -0.0999 -0.3979
10470SOL    HW143469   3.990   9.288   8.720  0.0402 -0.5277  0.5982
10470SOL    HW243470   4.151   9.279   8.745  0.3723  0.1768 -1.1831
10471SOL     OW43471   0.135   9.802   2.484  0.2442  0.1061 -0.3083
10471SOL    HW143472   0.175   9.888   2.513  0.5031  0.3167 -1.2847
10471SOL    HW243473   0.051   9.785   2.536  0.8895  0.2972  0.8068
10472SOL     OW43474   4.326   2.512   2.966  0.1964  0.0792 -0.7059
10472SOL    HW143475   4.343   2.603   3.003  0.1094 -0.1725 -0.0395
10472SOL    HW243476   4.405   2.453   2.984 -0.3382 -0.3863  0.1671
10473SOL     OW43477   8.444   9.382   2.852  0.8734  0.7089  0.6496
10473SOL    HW143478   8.426   9.293   2.895  1.8365  0.6730  0.9992
10473SOL    HW243479   8.505   9.435   2.911 -1.0355  2.2741  1.2454
10474SOL     OW43480   8.162   5.824   3.386 -0.0599 -0.1501  0.0437
10474SOL    HW143481   8.113   5.878   3.454  0.4911  1.3857 -0.7357
10474SOL    HW243482   8.221   5.758   3.431 -2.2659 -1.5223  0.9993
10475SOL     OW43483   1.679   0.752   5.142  0.2554 -0.3965 -0.1148
10475SOL    HW143484   1.662   0.703   5.227  0.9354  0.4894  0.5439
10475SOL    HW243485   1.621   0.715   5.069  0.1079 -1.5500  0.5895
10476SOL     OW43486   6.370   2.016   5.998 -0.1722 -0.0894  0.9911
10476SOL    HW143487   6.422   1.934   5.972 -0.6884 -0.4163  0.9706
10476SOL    HW243488   6.365   2.021   6.097  0.3515  0.2326  1.0027
10477SOL     OW43489   3.492   2.853   6.492 -0.2439  0.0512 -0.4456
10477SOL    HW143490   3.539   2.864   6.580  2.4489 -1.1682 -1.6687
10477SOL    HW243491   3.429   2.777   6.497 -0.6052  0.4092  0.6308
10478SOL     OW43492   8.592   3.866   2.795  0.3771 -0.5772 -0.3324
10478SOL    HW143493   8.584   3.777   2.750 -0.7477 -1.1337  0.9335
10478SOL    HW243494   8.502   3.910   2.796  0.2124 -0.9157  2.0375
10479SOL     OW43495   2.533   2.306   6.409  0.2432 -0.1712 -0.2880
10479SOL    HW143496   2.510   2.302   6.506 -0.0616  0.9052 -0.3134
10479SOL    HW243497   2.629   2.284   6.397  0.3271 -0.1252  0.2811
10480SOL     OW43498   9.254   7.715   1.510 -0.1364 -0.1522  0.0878
10480SOL    HW143499   9.192   7.733   1.586 -0.6707  0.1561 -0.4282
10480SOL    HW243500   9.334   7.665   1.544 -0.6498 -0.5207  0.7481
10481SOL     OW43501   7.318   1.528   8.728 -0.5180  0.0530 -0.5941
10481SOL    HW143502   7.235   1.483   8.760  0.1031 -1.0742 -0.5312
10481SOL    HW243503   7.308   1.627   8.737 -1.9123 -0.0695 -0.7529
10482SOL     OW43504   1.899   5.033   4.048  0.3060  1.0425 -0.7662
10482SOL    HW143505   1.845   4.998   4.125  0.5759 -1.3981 -1.6495
10482SOL    HW243506   1.984   5.072   4.083  0.5213 -0.2238  0.1806
10483SOL     OW43507   8.251   1.510   9.114 -0.1123 -0.0932 -0.5384
10483SOL    HW143508   8.284   1.498   9.207 -0.6234 -0.8501 -0.4477
10483SOL    HW243509   8.219   1.604   9.101 -1.7422 -0.4591  0.6012
10484SOL     OW43510   1.874   5.855   3.586  0.3497 -0.0023  0.0734
10484SOL    HW143511   1.968   5.862   3.552  0.7037  0.7996  1.2145
10484SOL    HW243512   1.832   5.945   3.586 -0.6359 -0.4459 -0.9989
10485SOL     OW43513   2.267   7.002   7.534 -0.2083  0.5580  0.2981
10485SOL    HW143514   2.172   6.990   7.562 -0.2673  0.4696  0.0604
10485SOL    HW243515   2.272   7.007   7.434  0.4140 -2.8386  0.1127
10486SOL     OW43516   9.141   2.042   2.790 -0.0266  0.5887  1.0489
10486SOL    HW143517   9.082   2.108   2.744 -0.5174 -0.1922  0.5478
10486SOL    HW243518   9.206   2.005   2.724 -0.3224 -0.0678  1.1237
10487SOL     OW43519   2.987   4.439   1.569  0.1612  0.3410  0.1684
10487SOL    HW143520   2.922   4.413   1.497  0.6056  0.0650 -0.1301
10487SOL    HW243521   3.080   4.429   1.535  0.3622  3.2052 -0.2991
10488SOL     OW43522   7.401   2.658   3.807  0.1552  0.5119  0.7086
10488SOL    HW143523   7.451   2.607   3.737  1.6723  2.7774  0.0770
10488SOL    HW243524   7.434   2.632   3.897  0.7189  0.1755  0.4107
10489SOL     OW43525   0.999   1.685   2.738 -0.2045  0.1601  0.0739
10489SOL    HW143526   0.931   1.737   2.789 -1.5355 -0.1103 -1.3807
10489SOL    HW243527   1.090   1.723   2.755 -0.7488  0.7678  1.7353
10490SOL     OW43528   7.917   6.313   4.981 -0.0974 -0.9575  0.0238
10490SOL    HW143529   7.843   6.318   4.915 -0.2622 -2.0177  0.1165
10490SOL    HW243530   7.958   6.222   4.979  0.5327 -0.6980  0.6891
10491SOL     OW43531   6.812   4.903   7.961  0.2684 -0.5453 -0.0422
10491SOL    HW143532   6.884   4.913   8.029 -0.0395 -0.0759  0.2154
10491SOL    HW243533   6.726   4.877   8.005 -0.0507  0.2461 -0.1938
10492SOL     OW43534   2.417   7.443   5.195 -0.0630  0.1041 -0.1452
10492SOL    HW143535   2.436   7.457   5.292 -0.9851 -0.1455  0.0674
10492SOL    HW243536   2.361   7.361   5.182 -1.0641  0.8739 -0.7768
10493SOL     OW43537   8.581   8.474   4.547 -0.0582 -0.4473 -0.2467
10493SOL    HW143538   8.530   8.435   4.623 -0.7333 -0.7665 -0.8597
10493SOL    HW243539   8.626   8.401   4.495 -0.7010 -0.3453 -0.9477
10494SOL     OW43540   5.026   9.816   5.963 -0.0229 -0.1589  0.4026
10494SOL    HW143541   4.941   9.821   5.911 -0.0034  0.2837  0.4102
10494SOL    HW243542   5.023   9.881   6.038  0.4317  0.0500  0.2417
10495SOL     OW43543   6.855   0.782   4.300  0.6022  0.2429 -0.8726
10495SOL    HW143544   6.871   0.793   4.202  1.8588  1.3861 -0.5574
10495SOL    HW243545   6.929   0.826   4.351 -0.9569  1.2108  0.6060
10496SOL     OW43546   0.986   9.392   4.018 -0.4438 -0.3350 -0.2674
10496SOL    HW143547   0.998   9.491   4.008 -1.3089 -0.1524  0.4838
10496SOL    HW243548   1.034   9.345   3.943 -1.0876  0.7066 -1.3564
10497SOL     OW43549   3.828   2.378   6.770  0.3013 -0.8585  0.2033
10497SOL    HW143550   3.742   2.328   6.767 -0.2646  0.1457 -0.6144
10497SOL    HW243551   3.839   2.431   6.686  2.0750 -1.5574 -0.0288
10498SOL     OW43552   4.070   0.965   0.364 -0.1542  0.9265 -0.7981
10498SOL    HW143553   4.109   1.041   0.312  0.4864  0.6712 -0.6902
10498SOL    HW243554   4.022   0.903   0.301 -1.7117  2.0388 -0.7399
10499SOL     OW43555   2.178   4.393   6.638 -0.0933 -0.2426  0.5530
10499SOL    HW143556   2.275   4.379   6.620 -0.1584 -0.2251  0.1913
10499SOL    HW243557   2.148   4.332   6.712  0.2789  0.0195  0.9240
10500SOL     OW43558   6.706   4.759   7.653  0.3131  0.4496 -0.1509
10500SOL    HW143559   6.729   4.822   7.727  1.4825 -0.6077  0.4179
10500SOL    HW243560   6.675   4.811   7.573 -1.2649  1.5788  1.1703
10501SOL     OW43561   1.920   6.023   0.165 -0.4462 -0.2981  0.1424
10501SOL    HW143562   2.005   5.972   0.147 -0.0047  0.3026  0.4967
10501SOL    HW243563   1.844   5.979   0.116  0.2617 -0.1969 -1.0750
10502SOL     OW43564   9.758   9.902   6.033 -0.5388 -0.3034  0.1959
10502SOL    HW143565   9.684   9.964   6.007 -1.0688 -0.3645  1.4917
10502SOL    HW243566   9.726   9.807   6.025 -0.2125 -0.3643 -0.3797
10503SOL     OW43567   7.399   1.004   1.306  0.0248  0.0644  0.6195
10503SOL    HW143568   7.414   1.099   1.331  0.9064  0.1072 -0.0479
10503SOL    HW243569   7.300   0.986   1.302 -0.1552  1.1930 -0.1961
10504SOL     OW43570   2.658   4.552   9.484  0.0655  0.7972 -0.5236
10504SOL    HW143571   2.709   4.496   9.419 -0.1601  0.9863 -0.8666
10504SOL    HW243572   2.710   4.559   9.569  0.7576  1.2222 -0.9672
10505SOL     OW43573   1.332   9.143   0.364  0.0206 -0.0404 -0.2588
10505SOL    HW143574   1.256   9.101   0.413  0.4790  0.3283  0.7849
10505SOL    HW243575   1.393   9.188   0.429 -0.2024  1.8426 -1.3016
10506SOL     OW43576   0.633   1.952   7.831 -0.2233  0.0619 -0.0771
10506SOL    HW143577   0.704   1.884   7.813  0.3903  0.5826  0.3360
10506SOL    HW243578   0.623   2.011   7.751 -0.8717 -0.6184 -0.4964
10507SOL     OW43579   3.586   9.802   1.644  0.3204 -0.0499 -0.3050
10507SOL    HW143580   3.569   9.766   1.552 -4.0412  0.4898  0.1851
10507SOL    HW243581   3.603   9.901   1.638 -0.6197  0.1048 -0.4761
10508SOL     OW43582   3.307   6.416   1.656 -0.3924  0.0906 -0.0949
10508SOL    HW143583   3.303   6.342   1.589  3.0320 -0.5062  0.2685
10508SOL    HW243584   3.277   6.502   1.613 -0.7349 -0.7820 -1.6247
10509SOL     OW43585   1.874   4.346   3.419  0.3500 -0.1451 -0.3474
10509SOL    HW143586   1.909   4.432   3.456 -1.2764 -0.4676  2.0884
10509SOL    HW243587   1.865   4.353   3.319  0.7137  2.3204 -0.2319
10510SOL     OW43588   3.230   9.784   0.085  0.1018 -0.3705  0.5569
10510SOL    HW143589   3.276   9.871   0.100  0.1260 -0.3957  0.6270
10510SOL    HW243590   3.259   9.718   0.154 -1.2864  0.1012  1.6165
10511SOL     OW43591   3.929   6.533   3.872  0.2389 -0.5162  0.5866
10511SOL    HW143592   3.989   6.549   3.793  1.2525 -1.3326  1.1807
10511SOL    HW243593   3.843   6.582   3.858  0.9454  0.4980 -0.3814
10512SOL     OW43594   9.191   4.710   5.461  0.0892  0.0386  0.1928
10512SOL    HW143595   9.178   4.799   5.419  0.1854  0.6508  1.4290
10512SOL    HW243596   9.112   4.652   5.442  0.5518 -0.0202 -1.5983
10513SOL     OW43597   6.844   1.159   9.290  0.4450  0.5238 -0.5516
10513SOL    HW143598   6.764   1.098   9.283  1.5514 -0.9814 -0.4319
10513SOL    HW243599   6.851   1.194   9.383  0.6878 -0.4483 -0.1902
10514SOL     OW43600   8.337   1.285   1.845 -0.0512  0.5708  0.1366
10514SOL    HW143601   8.330   1.276   1.944  1.1081  0.6128  0.2215
10514SOL    HW243602   8.380   1.204   1.806 -0.6297  0.4911 -0.3548
10515SOL     OW43603   2.659   8.170   5.567  0.2674 -0.5199 -0.2401
10515SOL    HW143604   2.746   8.192   5.611 -0.3846  0.1398  0.7452
10515SOL    HW243605   2.632   8.245   5.507 -0.9024  0.4705  1.4777
10516SOL     OW43606   2.487   6.699   3.518 -0.0455  0.2167 -0.0306
10516SOL    HW143607   2.569   6.719   3.572  0.4170  1.2406 -1.0985
10516SOL    HW243608   2.511   6.638   3.442 -0.5252 -0.5030  0.3845
10517SOL     OW43609   1.109   5.362   8.094 -0.1901 -0.2648  0.0794
10517SOL    HW143610   1.073   5.382   8.185 -1.0976 -1.5013  0.0023
10517SOL    HW243611   1.052   5.293   8.050  0.8181 -0.4010 -1.0384
10518SOL     OW43612   7.363   8.323   6.406 -0.0484  0.1416  0.2608
10518SOL    HW143613   7.428   8.391   6.373 -0.0653 -0.1832 -0.4616
10518SOL    HW243614   7.321   8.354   6.491  0.3427  0.7837  0.2170
10519SOL     OW43615   3.115   9.070   4.587 -0.0088 -0.5860 -0.2639
10519SOL    HW143616   3.149   9.073   4.493 -0.1349 -0.7207 -0.3131
10519SOL    HW243617   3.046   9.142   4.600  2.0011  1.2636  0.4959
10520SOL     OW43618   7.250   1.838   9.842  0.1039  0.3754 -0.6542
10520SOL    HW143619   7.346   1.811   9.833 -0.2258 -0.5995 -1.4293
10520SOL    HW243620   7.231   1.866   9.936  0.9876 -0.0572 -0.3445
10521SOL     OW43621   8.934   2.985   4.327  0.2376  0.2908  0.1283
10521SOL    HW143622   8.871   2.910   4.347  0.1615  0.0209 -1.0961
10521SOL    HW243623   8.935   3.049   4.404 -1.3639  0.1722  0.2728
10522SOL     OW43624   8.445   2.336   6.306 -0.0804 -0.4293 -0.0419
10522SOL    HW143625   8.515   2.277   6.345 -0.8993 -1.3554  0.0649
10522SOL    HW243626   8.481   2.428   6.293  1.2132 -0.9624 -0.2099
10523SOL     OW43627   3.621   4.902   2.115 -0.3102  0.1775 -0.1339
10523SOL    HW143628   3.640   4.927   2.020 -0.4208  1.2052  0.1137
10523SOL    HW243629   3.672   4.962   2.177 -2.1048  1.0632  0.4910
10524SOL     OW43630   0.608   0.133   8.604  0.3019 -0.1318 -0.1542
10524SOL    HW143631   0.543   0.162   8.675  0.5759 -0.4808  0.2387
10524SOL    HW243632   0.559   0.081   8.534  0.0524  0.1070 -0.1625
10525SOL     OW43633   4.520   6.710   1.090  0.3222  0.5704  0.6329
10525SOL    HW143634   4.539   6.803   1.057 -0.0081  0.4778  0.1621
10525SOL    HW243635   4.571   6.644   1.035  0.5544  0.4736  0.9664
10526SOL     OW43636   6.480   8.286   2.745  0.3567  0.3604  0.0389
10526SOL    HW143637   6.533   8.355   2.795 -0.7970  0.1715  1.5863
10526SOL    HW243638   6.486   8.199   2.794  1.3096 -0.4856 -1.5750
10527SOL     OW43639   3.679   8.186   2.331  0.1654  0.6403 -0.2016
10527SOL    HW143640   3.760   8.135   2.359 -0.7848 -0.3550  0.8086
10527SOL    HW243641   3.599   8.151   2.380 -0.8027  1.9161 -0.8283
10528SOL     OW43642   0.315   2.363  10.056  0.2248  0.0701 -0.2981
10528SOL    HW143643   0.329   2.302   9.978  0.6869  0.1592 -0.2859
10528SOL    HW243644   0.361   2.325  10.136 -0.9853 -0.4601  0.1442
10529SOL     OW43645   5.862   0.748   4.619 -0.2158  0.2854 -0.4080
10529SOL    HW143646   5.808   0.669   4.592 -1.3325  1.3236 -1.2949
10529SOL    HW243647   5.931   0.721   4.686 -0.1633 -1.5460 -1.1806
10530SOL     OW43648   9.824   9.232   4.592  0.0282  0.5603  0.0859
10530SOL    HW143649   9.859   9.248   4.499 -2.9536 -0.2456 -1.2050
10530SOL    HW243650   9.860   9.145   4.627 -1.0723 -0.5174 -1.4279
10531SOL     OW43651   9.112   5.985   7.510 -0.0748  0.4023  0.4989
10531SOL    HW143652   9.106   5.932   7.594  1.1277  2.3887  1.8674
10531SOL    HW243653   9.128   6.082   7.532  2.8336  0.5768 -2.0448
10532SOL     OW43654   0.369   3.247   9.364  0.1304  0.0363  0.1879
10532SOL    HW143655   0.361   3.178   9.292  2.8904 -0.4772  0.3355
10532SOL    HW243656   0.398   3.334   9.324  0.3890  0.0954  0.4998
10533SOL     OW43657   8.744   5.910   7.593  0.0719  0.1711 -0.2880
10533SOL    HW143658   8.842   5.919   7.572  0.2097 -0.1761  0.1909
10533SOL    HW243659   8.696   5.992   7.563  0.6668  0.7651  0.3424
10534SOL     OW43660   1.372   4.461   7.226 -0.3731  0.1640 -0.3294
10534SOL    HW143661   1.378   4.558   7.204 -0.8095 -0.1507 -1.9055
10534SOL    HW243662   1.417   4.408   7.155 -1.2940 -0.8571 -0.1659
10535SOL     OW43663   9.630   4.166   8.954  0.0147  0.6083  0.5533
10535SOL    HW143664   9.680   4.088   8.993  0.6451  1.8640  2.3407
10535SOL    HW243665   9.543   4.177   9.003 -0.3981  0.6015 -0.1721
10536SOL     OW43666   4.680   2.017   5.542  0.5073  0.0562 -0.0299
10536SOL    HW143667   4.598   2.054   5.586 -1.2455 -2.1175 -1.3769
10536SOL    HW243668   4.661   1.926   5.507  3.3298 -0.2232 -0.9745
10537SOL     OW43669   3.868   4.704   1.760  0.0250 -0.2517  0.2730
10537SOL    HW143670   3.922   4.787   1.744 -0.4313 -0.1896 -0.9709
10537SOL    HW243671   3.774   4.719   1.730 -0.5498 -0.5748  1.8641
10538SOL     OW43672   9.591   8.462   5.599 -0.1476  0.0723 -0.1816
10538SOL    HW143673   9.501   8.505   5.601 -1.0372 -1.6932 -0.6952
10538SOL    HW243674   9.581   8.362   5.593  1.8372 -0.1484 -0.4956
10539SOL     OW43675   9.728   6.982   5.319  0.3293  0.1300  0.0258
10539SOL    HW143676   9.662   6.907   5.310  0.3727  0.2231 -1.1107
10539SOL    HW243677   9.773   6.976   5.409 -1.3916  0.2081  0.9176
10540SOL     OW43678   2.130   1.014   5.762 -0.1528  0.4214 -0.1269
10540SOL    HW143679   2.188   0.980   5.687  0.0240 -3.3586  1.6171
10540SOL    HW243680   2.185   1.028   5.844 -0.8545  1.7743  0.1330
10541SOL     OW43681   5.144   9.842   6.829  0.2329 -0.2153 -0.0470
10541SOL    HW143682   5.193   9.811   6.747 -0.4349 -0.0724 -0.5078
10541SOL    HW243683   5.208   9.888   6.891  0.7922 -0.5467 -0.3727
10542SOL     OW43684   0.489   5.925   0.526 -0.3409  0.3354  0.3838
10542SOL    HW143685   0.420   5.856   0.507 -1.3437  0.8684  1.9865
10542SOL    HW243686   0.541   5.944   0.443 -0.7123 -1.6028 -0.3112
10543SOL     OW43687   8.862   0.759  10.070 -0.4001  0.2535  0.1329
10543SOL    HW143688   8.859   0.845  10.018 -0.2720  1.2453  1.7497
10543SOL    HW243689   8.899   0.776  10.161 -0.3526 -1.5303  0.4601
10544SOL     OW43690   7.210   7.374   7.157  0.3984  0.2081  0.5512
10544SOL    HW143691   7.282   7.444   7.161  0.1335  0.5421 -0.3300
10544SOL    HW243692   7.121   7.419   7.148  0.3890 -0.2651 -2.0762
10545SOL     OW43693   1.089   5.864   4.007 -0.4915  0.0033 -0.2293
10545SOL    HW143694   1.149   5.832   3.933 -0.1174 -1.1757  0.5833
10545SOL    HW243695   1.143   5.915   4.074 -0.3884 -1.0939  0.5245
10546SOL     OW43696   2.982   7.163   1.206  0.8153 -0.5399 -0.5714
10546SOL    HW143697   2.944   7.255   1.200  1.5609 -0.1115  1.0370
10546SOL    HW243698   3.067   7.166   1.258  0.2470 -2.3223  0.4811
10547SOL     OW43699   8.199   1.320   8.887  0.1681 -0.0871  0.2634
10547SOL    HW143700   8.188   1.392   8.956  1.3149 -0.2662  0.6499
10547SOL    HW243701   8.225   1.362   8.800  0.2727  0.0188  0.3443
10548SOL     OW43702   8.283   8.374   0.927  0.0547  0.1942  0.2944
10548SOL    HW143703   8.255   8.345   1.018  0.7442  1.8441  1.0364
10548SOL    HW243704   8.370   8.330   0.903  0.6109  0.8737  1.0349
10549SOL     OW43705   2.653   0.448   1.181 -0.1145 -0.4559  0.3845
10549SOL    HW143706   2.657   0.388   1.101 -0.2419 -0.3340  0.2833
10549SOL    HW243707   2.567   0.500   1.178 -1.0854 -1.9488  1.6937
10550SOL     OW43708   4.436   3.301   9.437 -0.0958 -0.2199 -0.0561
10550SOL    HW143709   4.498   3.352   9.497 -0.2494  0.7794 -0.7429
10550SOL    HW243710   4.359   3.265   9.490  0.7368 -0.9321  0.6833
10551SOL     OW43711   9.653   3.888   2.713  0.4229 -0.0556 -0.0743
10551SOL    HW143712   9.708   3.971   2.718 -1.8377  1.5406 -1.0666
10551SOL    HW243713   9.673   3.840   2.627 -0.6934  1.2641 -1.1061
10552SOL     OW43714   3.233   1.774   6.257  0.0740 -0.4151  0.7461
10552SOL    HW143715   3.242   1.680   6.287 -2.1551 -0.2557  2.0472
10552SOL    HW243716   3.216   1.776   6.158  1.6197 -1.2613  0.4485
10553SOL     OW43717   1.642   0.966   8.507 -0.4004 -0.8614  0.0103
10553SOL    HW143718   1.673   0.876   8.476 -0.7388 -0.8584 -0.3442
10553SOL    HW243719   1.555   0.988   8.462  1.3848  1.1305 -2.6390
10554SOL     OW43720   3.237   7.053   6.214  0.5652 -0.0463  0.2891
10554SOL    HW143721   3.261   7.097   6.301  2.7988 -2.4308  0.9407
10554SOL    HW243722   3.219   6.956   6.230  1.3506 -0.5878 -1.9476
10555SOL     OW43723   0.271   8.546   7.571  0.3391 -0.0812  0.6788
10555SOL    HW143724   0.208   8.592   7.633  0.2900  0.7696  0.0082
10555SOL    HW243725   0.365   8.562   7.602  0.3056  0.1824  0.6480
10556SOL     OW43726   7.929   7.691   0.359 -0.7763  1.0618 -0.0887
10556SOL    HW143727   8.009   7.635   0.380 -1.9070 -0.8466 -0.7163
10556SOL    HW243728   7.898   7.671   0.266 -3.1764  0.2435  0.8570
10557SOL     OW43729   6.947   3.265   9.205 -0.2553  0.5982 -0.0144
10557SOL    HW143730   6.907   3.209   9.132  1.1284 -0.3571 -0.0596
10557SOL    HW243731   6.954   3.211   9.289  2.5013  0.1934 -0.4749
10558SOL     OW43732   0.694   6.205   2.133  0.0121  0.5957 -0.2857
10558SOL    HW143733   0.645   6.267   2.072  0.7537  0.5365 -0.9451
10558SOL    HW243734   0.725   6.125   2.082 -0.3763 -0.0131  0.4205
10559SOL     OW43735   4.491   1.589   6.666  0.0671  0.0940 -0.0911
10559SOL    HW143736   4.515   1.642   6.747  2.2763 -1.3124  0.2181
10559SOL    HW243737   4.404   1.622   6.629 -0.4510  1.4388  2.2214
10560SOL     OW43738   6.420   2.029   9.497 -0.1705 -0.4128  0.6688
10560SOL    HW143739   6.405   1.994   9.589 -0.1266 -2.2166  0.0110
10560SOL    HW243740   6.506   1.993   9.461 -0.1145  0.3949 -0.0328
10561SOL     OW43741   4.097   1.877   9.239 -0.6707 -0.6514 -0.1752
10561SOL    HW143742   4.120   1.810   9.309 -0.4829 -0.3046  0.0996
10561SOL    HW243743   4.181   1.909   9.195 -0.5639  0.8344  1.0305
10562SOL     OW43744   8.739   7.063   0.079 -0.3884  0.0348 -0.4121
10562SOL    HW143745   8.723   6.965   0.082 -0.8131  0.1029 -0.4048
10562SOL    HW243746   8.657   7.111   0.110  0.1078  0.3675  0.4185
10563SOL     OW43747   2.945   3.645   5.940 -0.6511  0.5988 -0.2433
10563SOL    HW143748   2.955   3.699   5.856 -0.2234  2.5539  1.0445
10563SOL    HW243749   2.853   3.658   5.977 -1.0744 -0.8065 -0.7337
10564SOL     OW43750   2.560   6.996   3.537  0.4712  0.5087  0.4172
10564SOL    HW143751   2.636   6.950   3.490 -2.3376 -4.3673  0.2755
10564SOL    HW243752   2.495   7.030   3.470  0.7454  1.4914  0.6366
10565SOL     OW43753   4.425   7.696   3.952  0.1022 -0.4405  0.1086
10565SOL    HW143754   4.368   7.695   4.034 -0.3427  0.4657 -0.1799
10565SOL    HW243755   4.469   7.786   3.944 -0.9439 -0.0592 -1.3913
10566SOL     OW43756   7.228   6.498   7.429  0.1525 -0.2778  0.3689
10566SOL    HW143757   7.183   6.455   7.350  0.5623  0.6868 -0.3998
10566SOL    HW243758   7.319   6.459   7.440 -0.5652 -1.6895  1.4654
10567SOL     OW43759   2.834   9.430   0.177 -0.8128  0.2747 -0.1300
10567SOL    HW143760   2.882   9.517   0.189 -1.7330  0.6832  0.5915
10567SOL    HW243761   2.870   9.362   0.241  1.2667 -0.4686 -2.0111
10568SOL     OW43762   9.865   4.769   4.486  0.2376 -0.0588  0.2657
10568SOL    HW143763   9.826   4.838   4.547  0.3949 -1.2930  1.7946
10568SOL    HW243764   9.950   4.734   4.525 -0.2846 -1.7312 -0.0635
10569SOL     OW43765   3.429   2.828   2.641 -0.3173  0.3256 -0.0245
10569SOL    HW143766   3.500   2.813   2.572 -0.0592  1.2965  0.0187
10569SOL    HW243767   3.420   2.926   2.658  1.5104  0.0022  3.2892
10570SOL     OW43768   1.583   9.534   4.346  0.4760  0.1383  0.3653
10570SOL    HW143769   1.539   9.467   4.405 -0.8418  1.1807  0.5763
10570SOL    HW243770   1.549   9.626   4.367  1.4459  0.7585 -0.6734
10571SOL     OW43771   8.925   6.967   4.078 -0.4156 -0.5614 -0.1793
10571SOL    HW143772   8.833   6.942   4.109 -0.2578 -0.4734  0.3595
10571SOL    HW243773   8.977   7.004   4.154 -0.9785  2.4289 -1.2018
10572SOL     OW43774   4.396   9.247   1.806 -0.3291 -0.4493 -0.5609
10572SOL    HW143775   4.302   9.280   1.793 -0.7039 -2.0363 -1.9904
10572SOL    HW243776   4.418   9.180   1.735  1.3578 -1.2374  0.6773
10573SOL     OW43777   8.665   8.313   9.243 -0.2728 -0.2672 -0.1896
10573SOL    HW143778   8.758   8.319   9.278  0.2949 -0.5970 -1.5743
10573SOL    HW243779   8.652   8.224   9.199 -0.9658  0.1016 -0.7430
10574SOL     OW43780   2.720   8.578   4.844  0.1483 -0.3258  0.3472
10574SOL    HW143781   2.637   8.537   4.805 -1.2064  1.6063  1.1335
10574SOL    HW243782   2.744   8.530   4.929 -0.4568 -0.5719  0.3804
10575SOL     OW43783   3.270   7.351   8.100  0.1865 -0.4095  0.4331
10575SOL    HW143784   3.283   7.252   8.111  0.8681 -0.3729 -0.0511
10575SOL    HW243785   3.358   7.398   8.109 -0.0412  0.0985  0.0511
10576SOL     OW43786   5.254   4.303   0.295  0.6239 -0.2092 -0.4410
10576SOL    HW143787   5.209   4.254   0.370  0.5049 -0.6536 -0.7996
10576SOL    HW243788   5.249   4.248   0.212  1.5784 -0.1322 -0.5541
10577SOL     OW43789   8.168   4.431   3.499 -0.2881 -0.2173 -0.7560
10577SOL    HW143790   8.231   4.395   3.430  0.6681 -0.3063  0.1559
10577SOL    HW243791   8.199   4.522   3.528 -0.9123 -0.0101 -0.7372
10578SOL     OW43792   6.630   0.064   5.408 -0.3875  0.1867  0.2239
10578SOL    HW143793   6.679   0.037   5.491  0.1382 -0.9014 -0.4228
10578SOL    HW243794   6.625   0.164   5.403  3.2117  0.4195 -0.4843
10579SOL     OW43795   5.353   8.775   8.238 -0.1101  0.2613 -0.1220
10579SOL    HW143796   5.443   8.790   8.198 -0.2839  0.1690 -0.5434
10579SOL    HW243797   5.323   8.860   8.282  0.4140  0.1337  0.4902
10580SOL     OW43798   3.799   6.591   2.619  0.1316  0.0706 -0.4672
10580SOL    HW143799   3.803   6.528   2.541  0.3415  1.0414 -1.2510
10580SOL    HW243800   3.711   6.639   2.619 -0.4651 -0.9824  0.7458
10581SOL     OW43801   2.766   9.518   0.498 -0.1382 -0.2320  0.1142
10581SOL    HW143802   2.698   9.471   0.554  0.1093  0.5237  1.0715
10581SOL    HW243803   2.719   9.575   0.430 -0.4787  0.4277  0.8908
10582SOL     OW43804   0.443   6.490   5.676 -0.0320 -0.4127  0.0666
10582SOL    HW143805   0.394   6.403   5.685  1.8874 -1.4321  0.8978
10582SOL    HW243806   0.535   6.473   5.641  0.7234  1.1722  1.2308
10583SOL     OW43807   3.670   3.566   0.156 -0.0508 -0.2337  0.0991
10583SOL    HW143808   3.626   3.630   0.219 -2.4826 -2.7080  1.0180
10583SOL    HW243809   3.686   3.479   0.203 -1.9045 -2.1380 -2.6512
10584SOL     OW43810   3.073   4.776   1.516  0.2325  0.3262 -0.2513
10584SOL    HW143811   3.025   4.844   1.571  0.2184  0.4533 -0.4199
10584SOL    HW243812   3.062   4.797   1.419 -1.9689 -1.4127 -0.4119
10585SOL     OW43813   2.347   4.371   0.584 -0.3274  0.0322 -0.1246
10585SOL    HW143814   2.411   4.439   0.549  0.4681  0.0535  1.3594
10585SOL    HW243815   2.370   4.281   0.548 -1.2191  0.4698 -1.8770
10586SOL     OW43816   8.903   6.439   8.806 -0.7632 -0.0279  0.0312
10586SOL    HW143817   8.920   6.456   8.709  1.9329 -0.3342  0.4162
10586SOL    HW243818   8.932   6.519   8.859 -0.7048 -0.5096  0.7209
10587SOL     OW43819   3.058   2.083   2.986 -0.0385 -0.1301 -0.1316
10587SOL    HW143820   3.133   2.125   2.936  1.1173  0.0918  1.7429
10587SOL    HW243821   3.026   2.146   3.058 -0.8487 -0.9226  0.2158
10588SOL     OW43822   9.458   0.783   3.830 -0.3510 -0.2058 -0.2110
10588SOL    HW143823   9.547   0.744   3.853 -0.5926 -1.3632 -1.2277
10588SOL    HW243824   9.462   0.883   3.837  1.9875 -0.0045 -3.5139
10589SOL     OW43825   8.993   9.264   6.956  0.2450 -0.4081  0.2090
10589SOL    HW143826   9.027   9.358   6.942  0.9075 -0.6779 -0.0240
10589SOL    HW243827   9.006   9.212   6.871  0.1858 -0.8015  0.4433
10590SOL     OW43828   8.282   9.674   7.519 -0.2133  0.0620 -0.2670
10590SOL    HW143829   8.310   9.714   7.431 -0.1445  0.3513 -0.1135
10590SOL    HW243830   8.192   9.631   7.509 -0.3517  0.3795 -0.3976
10591SOL     OW43831   1.326   2.709   1.051  0.2722  0.4804  0.0024
10591SOL    HW143832   1.293   2.741   0.961 -1.2822 -2.1949 -0.4238
10591SOL    HW243833   1.253   2.659   1.097  1.0933  1.7551  2.7700
10592SOL     OW43834   1.728   9.448   9.350  0.3558 -0.0836  0.5678
10592SOL    HW143835   1.716   9.547   9.351 -1.8234 -0.3201  0.2487
10592SOL    HW243836   1.726   9.415   9.255 -0.2607 -0.5732  0.7445
10593SOL     OW43837   5.079   2.339   2.163  0.5060  0.1318  0.1619
10593SOL    HW143838   5.007   2.405   2.183  0.3562 -0.2505  0.9031
10593SOL    HW243839   5.099   2.285   2.245 -0.2699 -1.6021 -0.7723
10594SOL     OW43840   3.246   2.537   7.969 -0.2033  0.2166 -0.2344
10594SOL    HW143841   3.279   2.618   7.921 -1.3692  0.8070 -0.0586
10594SOL    HW243842   3.206   2.564   8.057  0.1699 -0.6445  0.2084
10595SOL     OW43843   4.098   9.647   3.244 -0.1623 -0.2057  0.5377
10595SOL    HW143844   4.182   9.635   3.193 -0.8874 -0.1560 -0.6796
10595SOL    HW243845   4.021   9.608   3.194 -0.7822 -0.8432  1.9383
10596SOL     OW43846   9.285   7.709   3.553  0.3281  0.1505 -0.3889
10596SOL    HW143847   9.377   7.745   3.568  0.3036 -0.2801  0.8829
10596SOL    HW243848   9.259   7.722   3.458  2.0068 -0.4240 -0.9459
10597SOL     OW43849   4.808   3.883   7.815  0.3141  0.4208 -0.9593
10597SOL    HW143850   4.876   3.949   7.845 -0.2671  0.2525  0.7565
10597SOL    HW243851   4.786   3.899   7.718  0.9154  2.0854 -0.8275
10598SOL     OW43852   9.232   2.694   9.507  0.2269  0.2074  0.4277
10598SOL    HW143853   9.309   2.755   9.526 -1.0111  1.4697  1.5276
10598SOL    HW243854   9.254   2.635   9.430  3.4806 -1.5743  2.6323
10599SOL     OW43855   8.453   2.635   1.332  0.1435 -0.0482 -0.0817
10599SOL    HW143856   8.491   2.666   1.245  3.5086 -1.3379  0.8658
10599SOL    HW243857   8.458   2.535   1.337 -0.9920 -0.0505  1.1523
10600SOL     OW43858   0.770   2.676   7.443  0.3046  0.5800 -0.2275
10600SOL    HW143859   0.736   2.585   7.419  2.8603 -0.4376 -0.0831
10600SOL    HW243860   0.867   2.682   7.423  0.8213  2.2930  2.5867
10601SOL     OW43861   0.635   3.917   2.582 -0.4779 -0.1033 -0.7310
10601SOL    HW143862   0.650   3.992   2.519  1.8347  1.3451  1.4277
10601SOL    HW243863   0.558   3.939   2.643  1.2060  1.2912  0.9456
10602SOL     OW43864   3.245   9.769   9.609  1.0168  0.2260  0.6181
10602SOL    HW143865   3.149   9.755   9.633  1.2504 -0.6732  1.0407
10602SOL    HW243866   3.293   9.813   9.685  0.8484  1.0767  0.2401
10603SOL     OW43867   3.209   0.208   3.120  0.3678 -0.0135  0.4034
10603SOL    HW143868   3.210   0.305   3.096  0.1635 -0.1475 -0.1561
10603SOL    HW243869   3.210   0.198   3.220  2.0784  0.5436  0.4533
10604SOL     OW43870   9.280   8.994   1.189 -0.5111 -0.2267  0.0937
10604SOL    HW143871   9.218   8.958   1.258 -0.8999  0.3783  0.0563
10604SOL    HW243872   9.323   9.078   1.223 -0.3879 -0.1556 -0.2355
10605SOL     OW43873   6.112   5.774   9.995  0.8885  0.4415  0.0267
10605SOL    HW143874   6.131   5.850  10.058  0.7156  1.0320 -0.6198
10605SOL    HW243875   6.058   5.704  10.041 -1.3531  1.9961 -0.1768
10606SOL     OW43876   3.397   2.319   7.978 -0.3268  0.1287 -0.5146
10606SOL    HW143877   3.471   2.318   7.910  1.0646  1.8925  0.9280
10606SOL    HW243878   3.351   2.407   7.976  0.2245  0.4761  1.3233
10607SOL     OW43879   1.865   1.857   3.275 -0.3285 -0.3843 -0.2204
10607SOL    HW143880   1.926   1.811   3.340  1.0915 -0.5472 -1.6156
10607SOL    HW243881   1.885   1.823   3.183 -2.6597 -0.5454 -0.6840
10608SOL     OW43882   3.675   7.926   9.053  0.0454  0.0013  0.1926
10608SOL    HW143883   3.735   7.889   9.124 -0.4043  2.3496  1.8503
10608SOL    HW243884   3.598   7.863   9.038 -0.0926 -0.2975  2.1001
10609SOL     OW43885   7.244   1.770   6.583 -0.6669  0.0491 -0.0699
10609SOL    HW143886   7.237   1.861   6.543 -0.9638  1.1337  2.3089
10609SOL    HW243887   7.264   1.703   6.512 -0.0284  2.0235 -1.8035
10610SOL     OW43888   1.261   0.999   0.673  0.1627 -0.9599 -0.3901
10610SOL    HW143889   1.331   0.960   0.732 -1.1060  0.1745  1.9086
10610SOL    HW243890   1.171   0.992   0.717 -0.4295  2.5008 -0.8671
10611SOL     OW43891   5.708   5.479   1.003  0.7764 -0.2710 -0.5840
10611SOL    HW143892   5.687   5.387   0.971  0.9092  0.1414 -1.8662
10611SOL    HW243893   5.633   5.541   0.979  0.5679 -0.0836  0.5034
10612SOL     OW43894   9.567   0.218   2.330 -0.0051 -0.2948  0.3314
10612SOL    HW143895   9.579   0.228   2.429 -2.6466 -0.9068  0.7629
10612SOL    HW243896   9.567   0.309   2.288 -0.2562  0.0572  1.0817
10613SOL     OW43897   1.205   2.305   1.445  0.7058 -0.3854  0.1729
10613SOL    HW143898   1.142   2.234   1.414  0.6049  0.0290 -0.5689
10613SOL    HW243899   1.298   2.267   1.451  1.0307 -0.0487 -2.2156
10614SOL     OW43900   0.412   6.104   7.938 -0.2261  0.0991  0.1352
10614SOL    HW143901   0.476   6.137   7.869  0.3853 -0.6122  0.3524
10614SOL    HW243902   0.375   6.181   7.989 -0.2516  0.5861 -0.6054
10615SOL     OW43903   1.270   4.114   5.477  0.2002 -0.4786  0.0288
10615SOL    HW143904   1.203   4.123   5.550  0.0397  1.7539 -0.3586
10615SOL    HW243905   1.333   4.039   5.498 -0.7566 -0.8405  1.6947
10616SOL     OW43906   9.940   0.261   0.347  0.2440 -0.0399  0.4351
10616SOL    HW143907   9.988   0.314   0.417  0.3187  0.4852 -0.0093
10616SOL    HW243908   9.862   0.313   0.313 -0.7248 -0.9338  1.2313
10617SOL     OW43909   3.927   6.180   9.422 -0.1967 -0.0467 -0.2323
10617SOL    HW143910   3.944   6.275   9.397 -1.5699 -0.2042 -1.8740
10617SOL    HW243911   3.897   6.175   9.517 -0.8683  1.2392 -0.3723
10618SOL     OW43912   3.723   7.395   9.324  0.4329  0.2910  0.1766
10618SOL    HW143913   3.648   7.460   9.326  0.9885  0.9687 -0.7107
10618SOL    HW243914   3.688   7.302   9.338 -0.6293  0.5511 -0.7126
10619SOL     OW43915   3.292   5.409   3.287 -0.3320 -0.3128  0.0921
10619SOL    HW143916   3.296   5.309   3.290  1.0687 -0.2508  1.1510
10619SOL    HW243917   3.237   5.438   3.209  0.1659 -1.8923 -0.8828
10620SOL     OW43918   5.120   7.622   4.788  0.4104 -0.5633 -0.0002
10620SOL    HW143919   5.106   7.535   4.835  0.4312 -0.5052  0.1133
10620SOL    HW243920   5.052   7.632   4.716 -0.5139  0.0016  0.9404
10621SOL     OW43921   9.949   0.769   1.651 -0.3962  0.2205 -0.7215
10621SOL    HW143922   9.907   0.813   1.731  1.1125  1.9717 -0.8608
10621SOL    HW243923  10.046   0.793   1.647 -0.2065 -0.7523 -2.4810
10622SOL     OW43924   3.993   1.598   1.268 -0.3974  0.0758  0.2859
10622SOL    HW143925   4.043   1.638   1.345  0.2735 -2.2938  1.1087
10622SOL    HW243926   4.056   1.582   1.192 -0.6023  0.2734  0.0739
10623SOL     OW43927   1.239   6.756   9.866  0.1097  0.3790 -0.2583
10623SOL    HW143928   1.225   6.856   9.864  1.8152  0.6221 -0.2032
10623SOL    HW243929   1.174   6.713   9.803  0.5418  1.6786 -1.6313
10624SOL     OW43930   5.949   2.963   9.787  0.5138  0.0930 -0.1246
10624SOL    HW143931   5.994   2.966   9.876  0.1674 -3.3057  0.2381
10624SOL    HW243932   6.019   2.957   9.715  0.7280 -0.7889  0.1531
10625SOL     OW43933   4.476   2.738   8.234 -0.4184  0.6487 -0.3385
10625SOL    HW143934   4.512   2.773   8.148 -0.3338  0.7483 -0.2643
10625SOL    HW243935   4.550   2.694   8.285 -0.6943 -0.3259 -0.7745
10626SOL     OW43936   8.405   6.827   8.953 -0.6197 -0.0910 -0.5081
10626SOL    HW143937   8.445   6.813   8.862 -0.8211  1.1827 -0.8045
10626SOL    HW243938   8.330   6.892   8.947 -0.2541  0.4635  0.6664
10627SOL     OW43939   1.772   8.930   1.276 -0.1415  0.2045  0.3849
10627SOL    HW143940   1.861   8.954   1.315  0.4370 -0.9860 -0.1755
10627SOL    HW243941   1.699   8.972   1.331  0.8092  3.9302 -1.0356
10628SOL     OW43942   1.477   9.346   7.538  0.6907 -0.1854  0.0530
10628SOL    HW143943   1.509   9.263   7.491 -2.1714 -1.2107 -0.1899
10628SOL    HW243944   1.513   9.426   7.491  1.8130 -1.2710 -0.9801
10629SOL     OW43945   8.530   4.787   0.413 -0.0584 -0.2521  0.4307
10629SOL    HW143946   8.465   4.808   0.340  1.8936 -0.0282 -1.3107
10629SOL    HW243947   8.502   4.703   0.459  0.3780 -2.2495 -2.7556
10630SOL     OW43948   0.826   6.447   9.957  0.1682  0.3283  0.0652
10630SOL    HW143949   0.782   6.471  10.044 -0.6511  2.7348 -0.9514
10630SOL    HW243950   0.760   6.456   9.883  1.0437 -1.0402 -0.9094
10631SOL     OW43951   8.389   2.312   2.151  0.1076  0.4513 -0.4572
10631SOL    HW143952   8.294   2.343   2.144 -0.3168 -0.8484 -0.5498
10631SOL    HW243953   8.403   2.233   2.091  0.8718 -0.2529  0.6233
10632SOL     OW43954   1.453   9.814   3.100 -0.3372 -0.7086  0.2734
10632SOL    HW143955   1.526   9.820   3.032 -0.5530 -0.5236  0.0616
10632SOL    HW243956   1.371   9.775   3.059 -0.7646  0.2568  0.1839
10633SOL     OW43957   8.566   3.581   1.165 -0.0037  0.2733 -0.6327
10633SOL    HW143958   8.563   3.626   1.254 -2.1773 -0.9451 -0.0515
10633SOL    HW243959   8.605   3.489   1.175 -2.7682 -0.9178 -0.4161
10634SOL     OW43960   6.328   0.256   6.317  0.3427  0.4302  0.2048
10634SOL    HW143961   6.418   0.285   6.286 -0.4991  1.2191 -1.5748
10634SOL    HW243962   6.281   0.333   6.360 -0.1993  0.5314 -0.5607
10635SOL     OW43963   4.743   5.729   1.878  0.0717  0.1337  0.4771
10635SOL    HW143964   4.739   5.786   1.960  1.1634  0.4781  0.3083
10635SOL    HW243965   4.786   5.641   1.901  1.2947  0.6155  0.0765
10636SOL     OW43966   4.597   4.003   2.009 -0.4371  0.4630  0.1680
10636SOL    HW143967   4.657   4.010   1.930  0.2723 -1.4760  0.5259
10636SOL    HW243968   4.582   3.907   2.032 -0.6827  0.9999  2.3500
10637SOL     OW43969   2.468   5.943   0.532 -0.2795  0.3674  0.2541
10637SOL    HW143970   2.506   5.925   0.442  0.4493  0.5695  0.5196
10637SOL    HW243971   2.457   5.857   0.582 -0.8008  0.2426 -0.0673
10638SOL     OW43972   3.749   0.354   8.400 -0.0420 -0.1923  0.0237
10638SOL    HW143973   3.652   0.371   8.420  0.1986  0.6602  0.4649
10638SOL    HW243974   3.759   0.261   8.365 -1.0990 -0.1019 -0.5532
10639SOL     OW43975   7.366   3.129   0.945  0.2047  0.1025 -0.3667
10639SOL    HW143976   7.343   3.128   1.042 -0.1417 -1.4064 -0.4423
10639SOL    HW243977   7.453   3.082   0.931  0.8227  1.3272 -0.6618
10640SOL     OW43978   3.519   5.836   7.490 -0.3773  0.4202 -0.3795
10640SOL    HW143979   3.536   5.835   7.392  0.1094  1.1416 -0.3039
10640SOL    HW243980   3.529   5.744   7.527  6.2046  1.1578  0.1625
10641SOL     OW43981   7.925   8.562   4.946  0.7237 -0.0419  0.3347
10641SOL    HW143982   7.996   8.492   4.955 -0.9929 -1.8577  0.1695
10641SOL    HW243983   7.925   8.621   5.026  2.7345  0.2718  0.1114
10642SOL     OW43984   3.117   4.933   4.962 -0.1077  0.1259  0.5646
10642SOL    HW143985   3.068   4.961   5.044 -0.7684 -0.6883  0.4454
10642SOL    HW243986   3.150   5.015   4.914  1.6800  0.5739  2.4709
10643SOL     OW43987   3.324   1.193   4.421  0.4468  0.5349 -0.1710
10643SOL    HW143988   3.377   1.267   4.463  0.5326  0.7415 -0.6490
10643SOL    HW243989   3.234   1.189   4.466  0.9023  0.1020  0.7200
10644SOL     OW43990   8.958   0.321   0.769  0.4923 -0.0370  0.0944
10644SOL    HW143991   8.935   0.273   0.854  1.5580 -0.7573 -0.0223
10644SOL    HW243992   8.912   0.410   0.768 -0.5404 -0.5440  0.8524
10645SOL     OW43993   1.353   8.003   5.777 -0.0763 -0.2972  0.6184
10645SOL    HW143994   1.452   7.989   5.774 -0.0220  0.3225 -0.9589
10645SOL    HW243995   1.328   8.040   5.866  1.4290  1.7141  0.2535
10646SOL     OW43996   8.183   3.597   8.858  0.2354  0.7278 -0.2173
10646SOL    HW143997   8.178   3.683   8.908 -1.6694  2.1893 -2.8154
10646SOL    HW243998   8.205   3.615   8.762 -0.2789 -1.6705 -0.8198
10647SOL     OW43999   3.360   8.795   5.297  0.6405  0.5522  0.2379
10647SOL    HW144000   3.308   8.765   5.218 -0.3305 -1.6527  1.6700
10647SOL    HW244001   3.450   8.829   5.268 -0.1767  0.9443 -1.8877
10648SOL     OW44002   8.660   5.179   9.795 -0.0534 -0.2077  0.4820
10648SOL    HW144003   8.623   5.271   9.784 -1.5378 -0.6439  1.6962
10648SOL    HW244004   8.639   5.125   9.714  0.0407  0.2516  0.1460
10649SOL     OW44005   7.619   4.392   7.662  0.1235  0.6489 -0.1867
10649SOL    HW144006   7.523   4.394   7.688  0.3068 -0.3619  0.6047
10649SOL    HW244007   7.645   4.480   7.623 -1.3462  0.6363 -1.2514
10650SOL     OW44008   2.889   3.770   3.510  0.4236  0.2536  0.2395
10650SOL    HW144009   2.855   3.863   3.491  1.1629  0.7293  1.1575
10650SOL    HW244010   2.819   3.719   3.560  0.4392  0.7092  0.7371
10651SOL     OW44011   6.591   0.592   6.191 -0.2824 -0.0945 -0.2189
10651SOL    HW144012   6.537   0.599   6.276 -0.5912 -3.6133 -0.0725
10651SOL    HW244013   6.668   0.656   6.196 -1.2845  1.0315  1.9400
10652SOL     OW44014   9.084   1.374   6.161  0.0472  0.6360  0.4666
10652SOL    HW144015   9.152   1.407   6.097 -2.0483  2.6974 -0.7780
10652SOL    HW244016   9.116   1.387   6.255  2.4817 -0.9963 -0.1046
10653SOL     OW44017   0.872   2.326   6.294 -0.5367 -0.1413  0.5201
10653SOL    HW144018   0.847   2.270   6.216  0.3613 -0.7780  0.6760
10653SOL    HW244019   0.848   2.421   6.277 -1.0858 -0.4097 -0.1924
10654SOL     OW44020   1.930   7.998   0.075 -0.1104  0.2514  0.1999
10654SOL    HW144021   1.917   7.969   0.170  0.1670 -2.0558 -0.4327
10654SOL    HW244022   1.864   7.950   0.017 -1.6984  3.2207 -0.5369
10655SOL     OW44023   4.918   7.679   1.884 -0.4949  0.8673  0.0710
10655SOL    HW144024   4.892   7.633   1.799 -0.8225  0.5676  0.3283
10655SOL    HW244025   4.945   7.773   1.865 -1.1437  0.9821 -0.2888
10656SOL     OW44026   4.478   8.564   2.642 -0.1292 -0.2068 -0.0469
10656SOL    HW144027   4.551   8.496   2.657  0.6430  0.3218 -1.3396
10656SOL    HW244028   4.473   8.587   2.545 -0.2707  1.7089  0.3915
10657SOL     OW44029   6.402   3.510   2.216 -0.0782 -0.0927  0.1321
10657SOL    HW144030   6.497   3.542   2.218 -0.4171  0.9903 -0.6173
10657SOL    HW244031   6.356   3.547   2.135 -1.7012  1.0172  1.5176
10658SOL     OW44032   2.450   3.300   4.714  0.0087 -0.0877  0.3881
10658SOL    HW144033   2.388   3.319   4.638  1.4772 -0.5598 -0.9507
10658SOL    HW244034   2.404   3.243   4.782 -0.6307 -1.4264 -1.1531
10659SOL     OW44035   9.373   9.696   8.096  0.1432 -0.3618 -0.2443
10659SOL    HW144036   9.284   9.708   8.051  0.5796 -0.3596 -1.1200
10659SOL    HW244037   9.404   9.784   8.133 -0.3019 -0.3997  0.2236
10660SOL     OW44038   4.293   6.153   1.326 -0.3248 -0.2604 -0.3439
10660SOL    HW144039   4.347   6.215   1.269 -1.2364  2.0727  1.2623
10660SOL    HW244040   4.354   6.108   1.391  0.5464 -2.1168 -2.3807
10661SOL     OW44041   2.554   4.040   4.936  0.2212 -0.2806 -0.3495
10661SOL    HW144042   2.536   4.122   4.882 -2.1591  0.0558  0.8562
10661SOL    HW244043   2.500   3.964   4.899  2.1311 -1.2190 -1.2397
10662SOL     OW44044   1.080   1.163   8.799 -0.3722 -0.2847 -0.8094
10662SOL    HW144045   1.157   1.101   8.816  0.0179  0.5485  0.5400
10662SOL    HW244046   0.998   1.109   8.779 -0.1085 -1.2557  0.6035
10663SOL     OW44047   3.231   4.440   8.804  0.1474 -0.2415  0.3747
10663SOL    HW144048   3.323   4.456   8.769 -0.0653 -2.9697 -1.5629
10663SOL    HW244049   3.233   4.445   8.904  1.8415  2.2877  0.2667
10664SOL     OW44050   1.133   9.636   2.853 -0.1219  0.7009  0.0807
10664SOL    HW144051   1.176   9.550   2.879 -0.6828  0.1129 -0.8884
10664SOL    HW244052   1.037   9.620   2.831 -0.3187  1.6407  0.2424
10665SOL     OW44053   8.694   2.435   0.394  0.5984  0.0252  0.2791
10665SOL    HW144054   8.764   2.479   0.338  1.4529 -0.8075  0.6856
10665SOL    HW244055   8.706   2.336   0.391  0.2908 -0.0536  1.4730
10666SOL     OW44056   5.093   0.768   1.189 -0.5340  0.2444 -0.0924
10666SOL    HW144057   5.192   0.784   1.188 -0.1019 -2.1847 -1.5847
10666SOL    HW244058   5.076   0.669   1.195 -2.8665  0.5927 -0.6155
10667SOL     OW44059   9.271   6.664   9.501 -0.3174  0.1762 -0.4132
10667SOL    HW144060   9.222   6.619   9.576  0.7712  1.4205  1.0647
10667SOL    HW244061   9.362   6.624   9.492 -0.0143  0.8268 -0.2864
10668SOL     OW44062   8.706   6.033   0.705  0.2850 -0.6256 -0.3252
10668SOL    HW144063   8.625   5.992   0.746 -0.5491  0.8391 -0.4671
10668SOL    HW244064   8.708   6.012   0.607 -2.2258  2.8007 -1.2057
10669SOL     OW44065   6.811   0.818   6.124  0.5274  0.1500  0.3003
10669SOL    HW144066   6.772   0.910   6.131  1.4666  0.5087  0.9308
10669SOL    HW244067   6.910   0.824   6.132  0.6844 -0.7888 -0.9553
10670SOL     OW44068   6.188   5.587   0.323 -0.0667 -0.1658 -0.4389
10670SOL    HW144069   6.153   5.680   0.339 -1.6840 -1.0176  1.1438
10670SOL    HW244070   6.215   5.547   0.410  0.9687 -1.0572 -1.1679
10671SOL     OW44071   8.564   3.491   7.364  0.1731  0.1622  0.4813
10671SOL    HW144072   8.654   3.533   7.368 -0.2157  0.9635  0.9114
10671SOL    HW244073   8.533   3.469   7.457 -0.4159  0.6240  0.3986
10672SOL     OW44074   9.676   3.329   6.593 -0.0105  0.0775 -0.3788
10672SOL    HW144075   9.708   3.384   6.671  0.0462  0.2570 -0.5271
10672SOL    HW244076   9.746   3.330   6.522 -0.8049  1.4173 -1.1700
10673SOL     OW44077   5.757   0.083   4.671 -0.2448  0.3275  0.1741
10673SOL    HW144078   5.691   0.084   4.746 -1.1735 -0.7335 -0.6169
10673SOL    HW244079   5.827   0.014   4.690 -0.9140 -0.4881 -0.2930
10674SOL     OW44080   9.523   1.173   1.763 -0.3663  0.0796  0.2637
10674SOL    HW144081   9.429   1.207   1.766 -0.5878 -0.6173  1.5295
10674SOL    HW244082   9.523   1.075   1.742  0.1287  0.2612 -0.6068
10675SOL     OW44083   5.279   5.234  10.034 -0.3658 -0.1992  0.0325
10675SOL    HW144084   5.259   5.151   9.983 -0.1364 -0.2930  0.0909
10675SOL    HW244085   5.334   5.211  10.114 -2.0305 -0.2693  1.1908
10676SOL     OW44086   9.568   3.269   7.828  0.0362 -0.7618  0.2724
10676SOL    HW144087   9.495   3.306   7.771 -0.4441 -2.2699 -0.1329
10676SOL    HW244088   9.642   3.236   7.769  1.7557  2.1477  0.7401
10677SOL     OW44089   8.322   4.260   0.380  0.7833  0.7697 -0.3543
10677SOL    HW144090   8.421   4.269   0.380  1.0279 -1.6399  0.3062
10677SOL    HW244091   8.288   4.271   0.474  0.2788  2.7479 -0.7404
10678SOL     OW44092   4.115   3.666   0.594 -0.4189  0.3043  0.4110
10678SOL    HW144093   4.059   3.683   0.512 -1.2251  1.1246  1.1245
10678SOL    HW244094   4.066   3.698   0.675  1.2487  1.3893  1.0165
10679SOL     OW44095   3.584   8.635   6.426 -0.0481 -0.0633 -0.3269
10679SOL    HW144096   3.509   8.577   6.393  1.7407 -2.7853  0.2304
10679SOL    HW244097   3.642   8.662   6.349  0.3327 -0.8127 -0.3033
10680SOL     OW44098   7.757   6.317   4.370 -0.4132  0.2684  0.0921
10680SOL    HW144099   7.657   6.317   4.377 -0.4601  2.1595 -0.3117
10680SOL    HW244100   7.795   6.248   4.431 -1.9115  0.3741  1.1697
10681SOL     OW44101   4.192   4.763   6.137  0.5578  0.4158 -0.6548
10681SOL    HW144102   4.139   4.847   6.123  0.5334  0.5345  0.0938
10681SOL    HW244103   4.230   4.764   6.230 -2.6142 -2.1561  0.7878
10682SOL     OW44104   2.174   9.411   0.437  0.1561 -0.1427  0.0620
10682SOL    HW144105   2.264   9.422   0.478  0.2207 -2.2014  0.5418
10682SOL    HW244106   2.179   9.428   0.339  0.4082  2.8002  0.5181
10683SOL     OW44107   3.248   4.267   0.958 -0.5590  0.5254 -0.9008
10683SOL    HW144108   3.208   4.338   1.016  1.4634  0.8033  0.2224
10683SOL    HW244109   3.238   4.178   1.003 -0.2764  0.5486 -0.7867
10684SOL     OW44110   8.252   9.727   7.264  0.2251  0.0324 -0.0042
10684SOL    HW144111   8.170   9.775   7.235  0.9940  0.5872 -1.2887
10684SOL    HW244112   8.250   9.633   7.233 -0.3147 -0.1887  0.6998
10685SOL     OW44113   0.311   2.252   5.816  0.2094 -0.0793 -0.7173
10685SOL    HW144114   0.283   2.331   5.871  1.4949 -0.5399  0.6204
10685SOL    HW244115   0.244   2.178   5.829  0.4892 -0.1770  0.2130
10686SOL     OW44116   7.420   9.115   8.238  0.4417  0.0295 -0.0459
10686SOL    HW144117   7.457   9.134   8.147  3.4438 -0.4563  1.0218
10686SOL    HW244118   7.451   9.025   8.269  0.9658  0.9376  2.1862
10687SOL     OW44119   4.880   1.369   9.505  0.2290  0.1337  0.3111
10687SOL    HW144120   4.958   1.416   9.463  0.2969  0.7905  1.1488
10687SOL    HW244121   4.853   1.419   9.587  1.4152 -2.2517  2.2018
10688SOL     OW44122   8.890   1.807   0.456  0.0365  0.2712  0.1264
10688SOL    HW144123   8.812   1.809   0.393 -0.7392  1.8085  1.0942
10688SOL    HW244124   8.904   1.713   0.488 -0.8145 -0.1892 -0.7919
10689SOL     OW44125   5.356   2.429   9.686 -0.0479 -0.0109  0.1989
10689SOL    HW144126   5.416   2.421   9.606 -0.5358  1.2011 -0.3084
10689SOL    HW244127   5.308   2.517   9.682  0.3321  0.2962  2.1198
10690SOL     OW44128   5.305   9.114   4.601  0.1017 -0.1470  0.2162
10690SOL    HW144129   5.226   9.157   4.645  0.4318 -0.5165  1.1800
10690SOL    HW244130   5.382   9.177   4.601  0.3485 -0.4397  0.9208
10691SOL     OW44131   3.045   1.722   3.358 -0.1193  1.3764 -0.2932
10691SOL    HW144132   3.128   1.777   3.347 -1.1196  2.6171 -1.8913
10691SOL    HW244133   3.061   1.630   3.322  1.2656  0.8535  1.5280
10692SOL     OW44134   1.553   3.943   9.742 -0.3907  0.3161  0.0440
10692SOL    HW144135   1.471   3.886   9.745 -0.5052  0.5432  1.1889
10692SOL    HW244136   1.578   3.972   9.834 -0.0278  1.7018 -0.4751
10693SOL     OW44137   3.510   0.974   2.483 -0.0655  0.4563  0.6365
10693SOL    HW144138   3.546   1.065   2.506 -0.5365  0.3995  1.6102
10693SOL    HW244139   3.433   0.953   2.543 -1.9455  0.7099 -1.5837
10694SOL     OW44140   5.438   7.858   5.106  0.0255  1.0013  0.1999
10694SOL    HW144141   5.498   7.787   5.144  0.0784  0.3398 -1.0911
10694SOL    HW244142   5.494   7.930   5.064 -0.0570  1.1754  0.3876
10695SOL     OW44143   8.555   8.352   4.144 -0.3612 -0.7206 -0.4210
10695SOL    HW144144   8.516   8.444   4.140  1.1237  0.0635  1.9070
10695SOL    HW244145   8.503   8.298   4.210 -0.7127 -1.2834 -1.1649
10696SOL     OW44146   8.820   3.846   7.807  0.7470 -0.3380  0.3589
10696SOL    HW144147   8.913   3.881   7.805  0.9112 -0.7723  0.2989
10696SOL    HW244148   8.763   3.898   7.744  1.3972 -1.3201 -1.0747
10697SOL     OW44149   9.485   5.118   1.760  0.6661 -0.2450  0.2880
10697SOL    HW144150   9.392   5.081   1.755 -0.4124  2.3973 -0.2613
10697SOL    HW244151   9.533   5.077   1.837 -0.4497 -2.7463 -0.3124
10698SOL     OW44152   8.060   3.339   2.405  0.2745 -0.1209  0.0968
10698SOL    HW144153   8.040   3.434   2.427  1.1870 -0.2721  1.6791
10698SOL    HW244154   8.157   3.330   2.384 -0.0778 -0.4638 -1.3932
10699SOL     OW44155   4.568   5.062   1.322  0.3889  0.6300  0.8023
10699SOL    HW144156   4.505   5.113   1.264 -0.9560 -2.8486 -0.9564
10699SOL    HW244157   4.623   5.001   1.266  0.3396 -1.5277  2.9917
10700SOL     OW44158   2.766   8.291   7.192  0.2131 -0.4244  0.5659
10700SOL    HW144159   2.804   8.304   7.100  1.6807  2.2446  1.5182
10700SOL    HW244160   2.672   8.328   7.194  0.5774  0.5308  0.4248
10701SOL     OW44161   7.704   0.041   8.556 -0.1923 -0.3283  0.6016
10701SOL    HW144162   7.680   0.134   8.527 -1.4289 -0.9492 -0.3989
10701SOL    HW244163   7.749  -0.007   8.481 -1.9033 -1.3868  0.2159
10702SOL     OW44164   5.907   4.881   1.351 -0.7331  0.3864  0.0426
10702SOL    HW144165   5.881   4.843   1.262  1.1229  1.1574 -0.8708
10702SOL    HW244166   5.872   4.975   1.357  1.0136  1.1146 -0.8205
10703SOL     OW44167   4.344   1.092   5.596 -0.3368 -0.3160  0.3789
10703SOL    HW144168   4.357   1.003   5.552 -1.3354  0.0146 -0.5928
10703SOL    HW244169   4.426   1.115   5.648 -0.1536 -1.9092  0.8352
10704SOL     OW44170   3.418   8.859   6.910  0.1000  0.2550  0.1386
10704SOL    HW144171   3.454   8.776   6.867  0.4059 -0.0354  0.9581
10704SOL    HW244172   3.357   8.834   6.985  0.2068  0.7719  0.3991
10705SOL     OW44173   3.799   6.549   3.510 -0.3598 -0.3866  0.0167
10705SOL    HW144174   3.800   6.469   3.450 -1.3116  1.2061 -2.1778
10705SOL    HW244175   3.890   6.563   3.549 -0.0906 -2.2890  0.0992
10706SOL     OW44176   6.187   8.155   4.873  0.0897 -0.2911  0.0804
10706SOL    HW144177   6.194   8.141   4.774  0.6175 -0.3347  0.1211
10706SOL    HW244178   6.279   8.171   4.910 -0.3189  1.9365  0.2340
10707SOL     OW44179   3.953   8.892   5.360 -0.1506 -0.2945  0.0558
10707SOL    HW144180   3.907   8.969   5.317  0.0258  0.2462  0.8243
10707SOL    HW244181   3.952   8.903   5.460 -1.0286 -1.7942  0.2403
10708SOL     OW44182   8.143   6.643   0.907  0.2645 -0.4088 -0.1171
10708SOL    HW144183   8.212   6.713   0.885  0.1046 -0.3216 -0.3438
10708SOL    HW244184   8.110   6.658   1.000  2.2065 -1.8234  0.8296
10709SOL     OW44185   2.625   2.273   9.577  0.3175  0.2235 -0.3580
10709SOL    HW144186   2.649   2.203   9.644 -0.9486  0.4052  0.3120
10709SOL    HW244187   2.538   2.316   9.604  0.8592  1.7445 -0.9858
10710SOL     OW44188   8.031   5.017   1.236 -0.0143  0.3600 -0.2229
10710SOL    HW144189   8.109   5.068   1.274 -0.0649  0.1029  0.2241
10710SOL    HW244190   8.043   4.920   1.255 -0.7707  0.3908  0.4224
10711SOL     OW44191   5.773   5.524   8.567  0.1135  0.7988  0.1184
10711SOL    HW144192   5.810   5.608   8.606  1.7383  0.4664 -0.7066
10711SOL    HW244193   5.818   5.445   8.608 -0.5200  0.3516 -0.0351
10712SOL     OW44194   8.586   3.943   0.851 -0.4482  0.3994  0.3330
10712SOL    HW144195   8.539   3.979   0.771 -0.7251 -0.3244  0.1633
10712SOL    HW244196   8.683   3.965   0.845 -0.6155  1.0974  0.2241
10713SOL     OW44197   6.262   3.789   8.341 -0.4326  0.2205  0.4050
10713SOL    HW144198   6.191   3.815   8.275  0.6693  0.6421 -0.6268
10713SOL    HW244199   6.231   3.811   8.433 -1.0891  1.6682 -0.1422
10714SOL     OW44200   0.472   1.847   6.770 -0.1237 -0.1369 -0.1553
10714SOL    HW144201   0.517   1.896   6.695 -0.3895 -0.8083 -0.7588
10714SOL    HW244202   0.471   1.905   6.851  1.9184 -0.1168 -0.1002
10715SOL     OW44203   6.779   1.898   1.598 -0.5041  0.4337 -1.0942
10715SOL    HW144204   6.812   1.806   1.578 -1.4556  0.0225 -0.7693
10715SOL    HW244205   6.744   1.902   1.691 -0.0378  1.2519 -0.9430
10716SOL     OW44206   9.272   3.506   5.512 -0.4310  0.5534 -0.1282
10716SOL    HW144207   9.345   3.471   5.570  1.5785 -0.5810 -3.2093
10716SOL    HW244208   9.267   3.606   5.521  0.8076  0.5335  0.8838
10717SOL     OW44209   3.053   7.039   7.548  0.3732 -0.2226 -0.4007
10717SOL    HW144210   3.096   7.054   7.459 -1.7617  0.2583 -1.3847
10717SOL    HW244211   3.002   6.952   7.546 -1.6630  0.9355 -0.4835
10718SOL     OW44212   7.759   6.798   3.931  0.7126 -0.0779 -0.3943
10718SOL    HW144213   7.854   6.823   3.914  0.3754  0.8890 -0.8652
10718SOL    HW244214   7.714   6.870   3.984  0.5030 -0.9721  0.6581
10719SOL     OW44215   8.348   0.558   4.405  0.0852 -0.4562 -0.2808
10719SOL    HW144216   8.439   0.599   4.395  0.3661 -1.4594 -2.1962
10719SOL    HW244217   8.355   0.459   4.389 -1.4468 -0.4498 -1.0124
10720SOL     OW44218   7.166   4.583   7.800 -0.1578 -0.3284 -0.5873
10720SOL    HW144219   7.079   4.581   7.752 -1.3125 -0.3224  1.4473
10720SOL    HW244220   7.175   4.669   7.850 -0.4681 -1.6357  1.8028
10721SOL     OW44221   9.210   2.784   9.038  0.0440  0.5868  0.2887
10721SOL    HW144222   9.151   2.798   8.958 -1.0067  0.9120  1.1068
10721SOL    HW244223   9.258   2.697   9.029  0.3528  0.8679 -0.9507
10722SOL     OW44224   2.729   2.913   7.536  0.4267  0.0383  0.5286
10722SOL    HW144225   2.799   2.893   7.605  0.8901 -1.3623 -0.3214
10722SOL    HW244226   2.736   3.009   7.508  0.0086  0.7141  2.6669
10723SOL     OW44227   1.746   8.771   2.251 -0.1522  0.2051 -0.4090
10723SOL    HW144228   1.725   8.758   2.154  0.8322 -2.2735 -0.3262
10723SOL    HW244229   1.773   8.684   2.291 -0.8169  1.1473  2.1808
10724SOL     OW44230   0.531   1.643   9.414  0.6199  0.0506  0.5186
10724SOL    HW144231   0.440   1.606   9.399  0.7133  0.0035  0.0563
10724SOL    HW244232   0.566   1.682   9.329  1.1599 -0.2257  0.6094
10725SOL     OW44233   7.190   4.718   9.461  0.5054  0.5660  0.2569
10725SOL    HW144234   7.154   4.811   9.449  0.5090  0.7586  1.7459
10725SOL    HW244235   7.142   4.657   9.398 -2.3488  0.8647  2.0389
10726SOL     OW44236   2.117   0.976   1.346  0.2543 -0.3626  0.2181
10726SOL    HW144237   2.099   0.883   1.378  0.0264 -0.3881  0.0188
10726SOL    HW244238   2.099   0.981   1.247 -1.5560  0.3596  0.5669
10727SOL     OW44239   6.995   0.643   9.423  0.6246  0.1776 -0.2328
10727SOL    HW144240   7.025   0.620   9.330 -0.3279 -0.4857 -0.3767
10727SOL    HW244241   6.958   0.562   9.468  1.8584  0.3019  1.0449
10728SOL     OW44242   4.300   8.104   8.366 -0.7748 -0.0024  0.0629
10728SOL    HW144243   4.227   8.035   8.369 -0.0959 -0.7998 -1.0678
10728SOL    HW244244   4.267   8.185   8.318 -1.8738  0.8402  2.2003
10729SOL     OW44245   3.848   1.074   2.229  0.0666 -0.5202  0.1733
10729SOL    HW144246   3.907   0.995   2.246 -0.7773 -0.9076  1.3776
10729SOL    HW244247   3.818   1.074   2.134  2.6105  0.1063 -0.6606
10730SOL     OW44248   4.978   0.908   6.805 -0.2398  0.0617 -0.0621
10730SOL    HW144249   4.924   0.873   6.728  0.3178 -0.2332 -0.3257
10730SOL    HW244250   4.925   0.977   6.854 -0.7365  0.0021 -0.5043
10731SOL     OW44251   6.124   5.877   0.368  0.2276 -0.1418 -0.1543
10731SOL    HW144252   6.170   5.944   0.426  2.1679 -0.0402 -1.7749
10731SOL    HW244253   6.025   5.888   0.377  0.5011  0.2414  2.6713
10732SOL     OW44254   2.975   4.243   0.012 -0.3300 -0.0243 -0.1568
10732SOL    HW144255   3.065   4.218  -0.024  0.2681  0.1388  1.2018
10732SOL    HW244256   2.920   4.160   0.022 -0.0929 -0.2069 -0.3297
10733SOL     OW44257   4.904   2.088   5.655 -0.2183  0.4738 -0.2111
10733SOL    HW144258   4.812   2.075   5.617  0.2745 -0.4692 -1.0965
10733SOL    HW244259   4.962   2.132   5.587 -0.6860  3.4842  1.2455
10734SOL     OW44260   6.771   6.110   8.122 -0.6596 -0.0235  0.0240
10734SOL    HW144261   6.711   6.166   8.065  1.8716  1.2563 -1.5058
10734SOL    HW244262   6.794   6.025   8.075  0.0807  0.2656 -0.1446
10735SOL     OW44263   1.321   0.029   0.640 -0.0522 -0.3949 -0.1710
10735SOL    HW144264   1.310  -0.024   0.556 -0.6369  0.2133 -0.4855
10735SOL    HW244265   1.252   0.102   0.643  1.2090  0.8160 -0.0995
10736SOL     OW44266   0.167   4.577   3.367 -0.2002  0.1149  0.2940
10736SOL    HW144267   0.186   4.643   3.440  1.1726  0.4285 -0.3312
10736SOL    HW244268   0.241   4.510   3.363 -0.8903 -0.6313  0.0011
10737SOL     OW44269   4.350   3.723   4.976  0.1768 -0.4333  0.9295
10737SOL    HW144270   4.286   3.648   4.987  0.7651 -1.0929 -0.0939
10737SOL    HW244271   4.338   3.765   4.885  0.1559  0.4189  1.3149
10738SOL     OW44272   2.009   2.885   5.448 -0.3908 -0.6142 -0.3939
10738SOL    HW144273   1.982   2.842   5.534 -0.8638 -0.1849 -0.3250
10738SOL    HW244274   2.045   2.816   5.386 -2.4463 -1.3528 -0.8099
10739SOL     OW44275   8.393   6.192   3.659  0.0860  0.2216 -0.2904
10739SOL    HW144276   8.455   6.122   3.622 -0.0937 -0.1687  0.1401
10739SOL    HW244277   8.422   6.217   3.751 -0.0513  0.4686 -0.3152
10740SOL     OW44278   1.844   8.427   7.775 -0.0220  0.1104  0.1152
10740SOL    HW144279   1.795   8.452   7.858  0.8109 -2.1550  1.3450
10740SOL    HW244280   1.906   8.501   7.749 -1.5134  1.5366  0.5163
10741SOL     OW44281   7.683   2.302   0.572  0.2326 -0.5769 -0.1337
10741SOL    HW144282   7.641   2.379   0.620  1.6390  0.4726 -0.5408
10741SOL    HW244283   7.775   2.328   0.541 -0.4106 -1.3977 -2.9123
10742SOL     OW44284   9.483   9.433   8.100  0.3188 -0.1952  0.3557
10742SOL    HW144285   9.470   9.532   8.106  1.4936  0.0962 -1.4365
10742SOL    HW244286   9.575   9.410   8.132  0.4605 -0.5565 -0.3012
10743SOL     OW44287   7.638   2.360   1.267  0.2737  0.3216  0.0913
10743SOL    HW144288   7.663   2.288   1.332  1.1766  0.8309  0.3261
10743SOL    HW244289   7.714   2.375   1.203  0.3330  1.4649  0.4102
10744SOL     OW44290   2.932   1.709   6.422  0.0253  0.6764 -0.1983
10744SOL    HW144291   3.001   1.779   6.437  1.7752 -0.6991 -1.5604
10744SOL    HW244292   2.954   1.628   6.478 -0.2881  0.1100 -0.8816
10745SOL     OW44293   5.250   2.575   5.954 -0.1386  0.6302  0.2018
10745SOL    HW144294   5.193   2.601   5.876 -1.0374 -2.2885 -0.1620
10745SOL    HW244295   5.204   2.505   6.008  2.2591 -0.3630  1.0350
10746SOL     OW44296   5.842   9.916   2.764  0.3243  0.1221  0.4686
10746SOL    HW144297   5.829   9.844   2.696  0.1113  1.2823 -0.7320
10746SOL    HW244298   5.928   9.963   2.746 -0.5209  1.5077  0.0029
10747SOL     OW44299   4.366   0.953   6.877 -0.7031 -0.0199  0.3471
10747SOL    HW144300   4.425   1.013   6.930 -1.0440 -0.2670  1.0276
10747SOL    HW244301   4.323   1.004   6.802 -0.1403  0.3108  0.2507
10748SOL     OW44302   2.228   9.144   4.822 -0.7039 -0.2131 -0.2401
10748SOL    HW144303   2.169   9.213   4.863  0.2890  0.6486 -0.2394
10748SOL    HW244304   2.287   9.187   4.754  0.5986 -0.8796  0.4524
10749SOL     OW44305   9.848   2.443   6.043 -0.2117  0.2911 -0.7952
10749SOL    HW144306   9.908   2.482   5.973  0.5146  0.1075 -0.2776
10749SOL    HW244307   9.858   2.344   6.044  1.5999  0.4686  1.2169
10750SOL     OW44308   8.745   1.667   9.748 -0.1056  0.3655 -0.1822
10750SOL    HW144309   8.803   1.633   9.674  1.2025  1.1060  0.4764
10750SOL    HW244310   8.698   1.750   9.718  0.7783  0.9258 -0.0576
10751SOL     OW44311   9.618   6.588   5.613  0.6318  0.0683 -0.1449
10751SOL    HW144312   9.704   6.607   5.567  1.3080 -2.7524 -0.1209
10751SOL    HW244313   9.592   6.667   5.669  4.1248  0.3024  1.2761
10752SOL     OW44314   1.911   9.977   2.247  0.1002  0.1033  0.2064
10752SOL    HW144315   1.954  10.015   2.165  0.2428  1.0160  0.6987
10752SOL    HW244316   1.982   9.939   2.307  0.0731  0.2015  0.3005
10753SOL     OW44317   7.021   2.683   9.323  0.0619  0.3662 -0.3286
10753SOL    HW144318   7.042   2.673   9.226  0.4269  0.3817 -0.2535
10753SOL    HW244319   6.948   2.750   9.335 -1.4900 -1.2178 -0.7440
10754SOL     OW44320   1.707   8.454   9.697 -0.2488  0.4683  0.4168
10754SOL    HW144321   1.628   8.443   9.636 -0.3305 -1.8889  0.9082
10754SOL    HW244322   1.694   8.536   9.753 -2.5810 -0.1174  0.7992
10755SOL     OW44323   7.597   3.338  10.048  0.1391  0.6306  0.0274
10755SOL    HW144324   7.639   3.407   9.988  0.3823  0.3902 -0.0789
10755SOL    HW244325   7.583   3.377  10.139 -0.8332  1.2085 -0.3600
10756SOL     OW44326   9.583   2.232   8.114  0.3124 -0.3786 -0.8455
10756SOL    HW144327   9.523   2.155   8.136 -0.8195  0.9753  0.9864
10756SOL    HW244328   9.637   2.255   8.195 -0.2847  1.5449 -0.9812
10757SOL     OW44329   8.687   1.026   1.402  0.4891  0.2776 -0.1548
10757SOL    HW144330   8.765   0.975   1.367 -0.7668 -0.0576 -2.5083
10757SOL    HW244331   8.719   1.093   1.469  2.9691  1.1279 -2.1175
10758SOL     OW44332   9.893   9.136   0.387 -0.4333  0.7558  0.5524
10758SOL    HW144333   9.944   9.152   0.472 -0.5808  0.0987  0.7718
10758SOL    HW244334   9.917   9.206   0.320  1.4558 -0.0584  0.3274
10759SOL     OW44335   4.612   7.346   6.594 -0.2636  0.8348  0.5209
10759SOL    HW144336   4.700   7.376   6.558  0.2836 -2.3512 -0.9916
10759SOL    HW244337   4.538   7.389   6.542  0.4280  1.6680  0.2182
10760SOL     OW44338   2.053   6.178   9.738  0.0804 -0.3571  0.3619
10760SOL    HW144339   2.097   6.259   9.699  0.2397  0.0089  1.2740
10760SOL    HW244340   2.094   6.095   9.700  0.2430 -0.0108 -0.2186
10761SOL     OW44341   2.299   6.967   4.440 -0.0909 -0.4112 -0.0431
10761SOL    HW144342   2.393   6.966   4.406 -0.4592 -1.4914 -1.0662
10761SOL    HW244343   2.300   6.975   4.540  1.1615 -2.2234  0.1209
10762SOL     OW44344   2.662   3.327   2.984  0.1637  0.2174 -0.0102
10762SOL    HW144345   2.592   3.267   2.945  0.8309 -0.5261 -0.0874
10762SOL    HW244346   2.629   3.365   3.070  0.0249 -0.8806  0.4322
10763SOL     OW44347   0.321   1.796   4.330 -0.3106  0.8602 -0.3223
10763SOL    HW144348   0.330   1.798   4.429  0.1654  0.2588 -0.3535
10763SOL    HW244349   0.354   1.882   4.291 -2.2529  1.8715  0.1756
10764SOL     OW44350   3.032   2.535   2.018  0.0595 -0.2618 -0.1772
10764SOL    HW144351   3.037   2.441   1.983  0.5794 -0.0071 -0.7846
10764SOL    HW244352   3.089   2.543   2.100 -1.2694 -0.8935  0.8198
10765SOL     OW44353   3.935   3.476   2.690 -0.3737  0.3953 -0.2120
10765SOL    HW144354   3.890   3.401   2.640  0.4619 -1.2851  1.4956
10765SOL    HW244355   4.022   3.498   2.647 -0.2853 -0.1054 -0.2853
10766SOL     OW44356   9.807   5.440   0.267 -0.1901  0.1826  0.5523
10766SOL    HW144357   9.790   5.374   0.341 -0.5186 -0.1383  0.1922
10766SOL    HW244358   9.825   5.530   0.307  1.5989 -0.3919  1.1021
10767SOL     OW44359   9.953   3.870   6.289 -0.0123  0.1174  0.2278
10767SOL    HW144360   9.947   3.925   6.206  1.7896 -2.2518 -1.5524
10767SOL    HW244361  10.041   3.822   6.291 -0.5190 -0.8011  2.9322
10768SOL     OW44362   3.699   2.080   8.190 -0.4341 -0.2663 -0.2189
10768SOL    HW144363   3.715   2.085   8.091  2.4185 -0.5408  0.2074
10768SOL    HW244364   3.737   2.162   8.234 -0.2538 -0.9112  0.8273
10769SOL     OW44365   9.950   5.764   2.560  0.2424 -0.0584  0.2725
10769SOL    HW144366  10.021   5.694   2.567  0.3958  0.0926  0.2556
10769SOL    HW244367   9.993   5.855   2.564  0.1571  0.0348 -0.7423
10770SOL     OW44368   9.001   2.656   0.503 -0.0444 -0.0633 -0.0561
10770SOL    HW144369   8.946   2.717   0.446 -1.0991 -1.9552 -1.0799
10770SOL    HW244370   8.942   2.612   0.571  0.1386 -2.2582 -1.2865
10771SOL     OW44371   9.888   4.532   1.918  0.3436 -0.1866  0.3847
10771SOL    HW144372   9.956   4.606   1.927  0.1803 -0.1949  1.7753
10771SOL    HW244373   9.907   4.480   1.835  0.3349  1.5503 -0.7444
10772SOL     OW44374   0.868   7.811   0.383 -0.0030  0.3157  0.2348
10772SOL    HW144375   0.899   7.811   0.478  1.4016 -0.7963 -0.2081
10772SOL    HW244376   0.940   7.774   0.324 -1.0075  0.6221 -1.2202
10773SOL     OW44377   1.175   2.572   9.595 -0.1480 -0.0621 -0.0689
10773SOL    HW144378   1.254   2.594   9.653 -1.0263  0.9926  0.7500
10773SOL    HW244379   1.176   2.631   9.514 -0.4159  0.3761  0.2408
10774SOL     OW44380   9.361   8.492   4.845 -0.6465 -0.2754  0.3490
10774SOL    HW144381   9.410   8.410   4.874 -0.5053 -0.6101 -0.8208
10774SOL    HW244382   9.345   8.551   4.924 -1.2440 -1.6932  1.2806
10775SOL     OW44383   9.458   7.236   4.397 -0.4422  0.2307 -0.2596
10775SOL    HW144384   9.458   7.216   4.299 -0.9156 -0.4477 -0.1249
10775SOL    HW244385   9.551   7.258   4.426  0.1504 -1.9657 -0.3846
10776SOL     OW44386   2.492   8.175   5.777 -0.5262  0.1726  0.5204
10776SOL    HW144387   2.544   8.161   5.861 -1.0005  1.0200  0.9576
10776SOL    HW244388   2.548   8.149   5.698  0.7056  1.4238  0.9570
10777SOL     OW44389   9.446   9.179   6.617 -0.0240  0.4201  0.3600
10777SOL    HW144390   9.459   9.158   6.520 -0.1032 -0.6033  0.5578
10777SOL    HW244391   9.534   9.194   6.661  0.0425  0.4077  0.2286
10778SOL     OW44392   9.560   6.190   1.584 -0.6292 -0.6432 -0.2114
10778SOL    HW144393   9.540   6.094   1.604 -2.1024 -0.0916  1.0078
10778SOL    HW244394   9.520   6.215   1.496 -1.0894 -0.8763 -0.0649
10779SOL     OW44395   2.222   7.899   8.460 -0.0121  0.3441 -0.4751
10779SOL    HW144396   2.296   7.927   8.520  0.4244 -0.1680 -0.7695
10779SOL    HW244397   2.197   7.804   8.479 -1.1531  0.7781  0.1907
10780SOL     OW44398   0.869   0.213   7.513 -0.2089  0.7046  0.2569
10780SOL    HW144399   0.912   0.269   7.584  2.9077 -1.2223  0.0068
10780SOL    HW244400   0.900   0.119   7.522 -1.4730 -0.0014 -2.3492
10781SOL     OW44401   7.408   5.459   4.102  0.1234  0.0766  0.3616
10781SOL    HW144402   7.372   5.414   4.184 -0.1652 -2.6647 -1.2226
10781SOL    HW244403   7.424   5.391   4.031  3.7529  1.9103 -0.6868
10782SOL     OW44404   1.420   1.361   6.340 -0.0908  0.3719 -0.1551
10782SOL    HW144405   1.467   1.449   6.346 -1.0618  0.7427  2.3979
10782SOL    HW244406   1.351   1.354   6.412  0.5549 -2.8260  0.2468
10783SOL     OW44407   1.085   6.987   2.543 -0.2690  0.1522  1.0673
10783SOL    HW144408   1.184   6.993   2.550 -0.0498  0.6969 -1.8345
10783SOL    HW244409   1.056   7.018   2.452 -3.0843 -0.1152  1.8227
10784SOL     OW44410   1.910   2.054   0.355  0.1250  0.5818  0.4970
10784SOL    HW144411   1.854   2.000   0.418 -0.7148  2.9787  1.8760
10784SOL    HW244412   1.852   2.115   0.301  1.2123  1.8187  0.6715
10785SOL     OW44413   3.785   9.096   9.485 -0.4705  0.1277  0.2338
10785SOL    HW144414   3.737   9.136   9.563  1.3741  0.5319  1.2005
10785SOL    HW244415   3.852   9.029   9.518 -1.8535 -2.0703 -1.2151
10786SOL     OW44416   4.530   8.049   2.871 -0.1658  0.1251  0.0139
10786SOL    HW144417   4.460   8.102   2.823  0.7164  0.6448 -0.7161
10786SOL    HW244418   4.561   7.975   2.812 -0.4253 -0.3848  0.5161
10787SOL     OW44419   2.102   7.966   6.208  0.7003  0.3095  0.2530
10787SOL    HW144420   2.132   7.911   6.286  1.9703 -0.2063 -0.5883
10787SOL    HW244421   2.082   8.059   6.239  1.0934  0.0838  1.2117
10788SOL     OW44422   0.326   5.356   7.314 -0.2159  0.3514 -0.2747
10788SOL    HW144423   0.284   5.266   7.310  2.7966 -1.1534  0.3986
10788SOL    HW244424   0.387   5.369   7.236 -0.5425  1.7757 -0.3204
10789SOL     OW44425   9.994   0.887   3.509  0.0255  0.1490 -0.3114
10789SOL    HW144426   9.944   0.945   3.444  1.9006 -0.0664 -2.0080
10789SOL    HW244427  10.059   0.830   3.459 -0.9278 -2.5714  1.4694
10790SOL     OW44428   5.190   5.600   2.697  0.0984 -0.0501  0.2830
10790SOL    HW144429   5.220   5.690   2.728  1.3943 -1.0621  2.1095
10790SOL    HW244430   5.092   5.590   2.713  0.4550  0.0178  2.7773
10791SOL     OW44431   3.955   4.241   9.704  0.2269  0.6315 -1.1143
10791SOL    HW144432   3.917   4.235   9.796  1.0304  0.2030 -0.8090
10791SOL    HW244433   4.032   4.179   9.695 -0.4288 -0.0243 -2.3718
10792SOL     OW44434   9.477   2.948   4.357  0.1328  0.2299 -0.0487
10792SOL    HW144435   9.419   2.887   4.304 -1.2300  0.6345  0.9531
10792SOL    HW244436   9.516   3.018   4.297 -0.1938 -0.2217 -0.7854
10793SOL     OW44437   8.003   3.602   9.248  0.3370  0.1226  0.6081
10793SOL    HW144438   8.050   3.523   9.209  0.3604 -0.7487  2.3784
10793SOL    HW244439   7.907   3.601   9.220  1.3779  2.2944 -3.6190
10794SOL     OW44440   3.397   8.582   9.201  0.4617  0.9697  0.1902
10794SOL    HW144441   3.455   8.656   9.166  2.5637 -0.3703  0.7236
10794SOL    HW244442   3.410   8.574   9.300 -1.7377  1.5518  0.5400
10795SOL     OW44443   9.335   9.213  10.026 -0.1044  0.3783 -0.7285
10795SOL    HW144444   9.415   9.166  10.064  0.3725  1.1249 -0.8041
10795SOL    HW244445   9.357   9.248   9.935 -0.7602 -0.0663 -1.0636
10796SOL     OW44446   9.788   4.388   8.100  0.2153  0.2107  0.2503
10796SOL    HW144447   9.752   4.480   8.084 -0.3824 -0.0632 -0.0053
10796SOL    HW244448   9.875   4.394   8.150  0.0241  0.8977  0.5089
10797SOL     OW44449   0.277   1.545   9.673  0.2139 -0.5631  0.0350
10797SOL    HW144450   0.327   1.632   9.679  0.0466 -0.4612 -0.0292
10797SOL    HW244451   0.187   1.562   9.633 -0.1063 -0.6493  0.7212
10798SOL     OW44452   5.522   5.688   9.661 -0.0459  0.1022 -0.1250
10798SOL    HW144453   5.529   5.773   9.610  0.6098  0.0729 -0.0908
10798SOL    HW244454   5.532   5.611   9.598  1.9230  0.0698  0.1825
10799SOL     OW44455   9.250   9.206   2.934 -0.0611  0.3306  0.0488
10799SOL    HW144456   9.340   9.231   2.970 -0.0276  2.3106 -1.3434
10799SOL    HW244457   9.249   9.217   2.835 -1.7318 -0.0347  0.0084
10800SOL     OW44458   9.450   0.012   5.227 -0.3877 -0.3965  0.1653
10800SOL    HW144459   9.427  -0.085   5.220  0.3353 -0.5535  0.0090
10800SOL    HW244460   9.391   0.065   5.165 -0.1237 -0.8350 -0.4563
10801SOL     OW44461   1.172   8.977   5.074  0.7075  0.6194  0.4998
10801SOL    HW144462   1.151   9.056   5.015 -0.5206  0.4837  0.7389
10801SOL    HW244463   1.106   8.973   5.149 -0.8944 -2.1258 -0.9633
10802SOL     OW44464   8.595   1.079   9.114  0.0736  0.3916  0.4386
10802SOL    HW144465   8.618   1.163   9.163 -1.8585  1.9444 -1.1979
10802SOL    HW244466   8.544   1.103   9.031  0.8070 -2.3264 -0.8310
10803SOL     OW44467   9.170   2.072   4.983 -0.1880  0.0152  0.2798
10803SOL    HW144468   9.112   2.154   4.978 -0.7140 -0.4517 -1.9764
10803SOL    HW244469   9.244   2.080   4.916  1.0930 -0.3760  1.6219
10804SOL     OW44470   9.856   4.007   3.613  0.0137  0.0110 -0.4745
10804SOL    HW144471   9.776   3.950   3.592 -0.9546  0.5971  1.5372
10804SOL    HW244472   9.857   4.086   3.552 -2.4417  1.3900  1.1788
10805SOL     OW44473   1.609   7.826   3.004 -0.7773  0.5239  0.1538
10805SOL    HW144474   1.580   7.755   3.069 -2.5604 -0.3739 -1.5656
10805SOL    HW244475   1.622   7.912   3.053 -2.1362 -0.1195  1.7137
10806SOL     OW44476   1.153   6.305   6.168 -0.1746  0.1086  0.7736
10806SOL    HW144477   1.188   6.225   6.216  1.0318  0.5630  0.6565
10806SOL    HW244478   1.118   6.277   6.078  3.4095  0.2042 -0.7207
10807SOL     OW44479   3.324   7.276   2.444 -0.1758 -0.3027  0.6387
10807SOL    HW144480   3.404   7.218   2.432 -0.1642 -0.4152  1.2297
10807SOL    HW244481   3.271   7.278   2.359  0.8975  0.4461 -0.0257
10808SOL     OW44482   3.826   3.373   6.306  0.3155 -0.4471  0.1075
10808SOL    HW144483   3.773   3.289   6.316  0.0849 -0.3378 -0.1709
10808SOL    HW244484   3.896   3.360   6.236 -0.1726 -0.1889 -0.4341
10809SOL     OW44485   1.045   9.148   1.675  0.2391  0.2284 -0.2359
10809SOL    HW144486   1.073   9.240   1.704  3.4324 -0.2443 -1.6379
10809SOL    HW244487   1.102   9.080   1.722 -0.9006 -0.9577 -0.5611
10810SOL     OW44488   9.252   5.593   5.225 -0.3133 -0.2843  0.0412
10810SOL    HW144489   9.307   5.511   5.240  0.8532  0.0203 -2.3466
10810SOL    HW244490   9.157   5.567   5.206 -0.8420 -0.8568  3.2223
10811SOL     OW44491   3.636   6.505   2.171 -0.1776  0.0113 -0.0445
10811SOL    HW144492   3.596   6.418   2.140  0.7379 -0.2819 -0.4033
10811SOL    HW244493   3.732   6.491   2.194 -0.4965  0.5309  1.6433
10812SOL     OW44494   7.926   3.250   1.935  0.3821 -0.1716  0.2492
10812SOL    HW144495   7.996   3.315   1.906  1.3480 -1.3650 -0.1633
10812SOL    HW244496   7.929   3.169   1.876  0.2056 -1.2232  1.6371
10813SOL     OW44497   2.747   2.583   0.343 -0.2243  0.2802  0.2366
10813SOL    HW144498   2.695   2.591   0.258  1.0895  0.7352 -0.5298
10813SOL    HW244499   2.686   2.554   0.417 -1.1940 -0.9569 -1.0408
10814SOL     OW44500   5.286   7.523   4.172 -0.0665  0.4613  0.1981
10814SOL    HW144501   5.326   7.466   4.243 -1.0348  0.9548  1.1638
10814SOL    HW244502   5.212   7.473   4.126 -0.4394  0.6786  0.5596
10815SOL     OW44503   3.695   1.489   8.832 -0.1728  0.3372  0.7325
10815SOL    HW144504   3.686   1.425   8.908  1.3935 -1.1433 -0.3082
10815SOL    HW244505   3.623   1.472   8.765 -0.5245  0.5241  1.0593
10816SOL     OW44506   4.226   8.157   7.269  0.6273 -0.1694  0.4189
10816SOL    HW144507   4.187   8.222   7.334  0.2059 -0.0912  0.0830
10816SOL    HW244508   4.292   8.098   7.317 -1.2593 -1.5272  1.3833
10817SOL     OW44509   4.010   5.092  10.013 -0.6700  0.2062 -0.0571
10817SOL    HW144510   3.961   5.019   9.965 -1.9083  1.1262 -0.2283
10817SOL    HW244511   4.082   5.053  10.070 -0.5849 -1.0549 -1.0242
10818SOL     OW44512   2.850   0.165   4.906 -0.0427 -0.6478  0.0200
10818SOL    HW144513   2.869   0.099   4.834  0.9114 -1.9296  1.4219
10818SOL    HW244514   2.921   0.236   4.906 -1.7184  1.0756 -2.2518
10819SOL     OW44515   3.363   8.896   7.538  0.3747 -0.6801 -0.4697
10819SOL    HW144516   3.445   8.844   7.559  1.2327  1.3281  1.2768
10819SOL    HW244517   3.296   8.885   7.611  0.5017  0.5373 -0.1613
10820SOL     OW44518   5.533   5.174   8.572  0.3317 -0.1020  0.1879
10820SOL    HW144519   5.461   5.109   8.549  0.5830 -0.4270  0.3296
10820SOL    HW244520   5.505   5.266   8.541 -0.5906 -0.0438  1.1568
10821SOL     OW44521   0.016   9.914  10.069  0.4057 -0.2390 -0.7100
10821SOL    HW144522  -0.049   9.863  10.014 -0.1053  1.4404 -1.6996
10821SOL    HW244523  -0.033   9.978  10.128  0.9869 -1.5054  1.1914
10822SOL     OW44524   1.909   6.145   2.539 -0.2513  0.2761 -0.0461
10822SOL    HW144525   1.825   6.128   2.488 -0.5447 -0.5739  0.7113
10822SOL    HW244526   1.980   6.180   2.477 -1.1771  1.0447 -0.6767
10823SOL     OW44527   8.427   5.644   6.716 -0.1994 -0.3202 -0.4236
10823SOL    HW144528   8.443   5.568   6.778 -1.7994  0.4567  0.9946
10823SOL    HW244529   8.429   5.612   6.621 -0.9349 -2.1197  0.1613
10824SOL     OW44530   1.600   8.021   8.608  0.1709 -0.2840  0.1046
10824SOL    HW144531   1.529   8.000   8.541 -0.5292 -0.6383  0.9516
10824SOL    HW244532   1.614   8.120   8.612 -1.2438 -0.1103  0.9165
10825SOL     OW44533   2.913   6.437   3.579  0.5802  0.5432  0.3436
10825SOL    HW144534   2.948   6.455   3.487  1.8137  1.8595  1.0371
10825SOL    HW244535   2.941   6.345   3.607  0.2803  0.1695 -0.5462
10826SOL     OW44536   5.146   9.094   4.279  0.1601  0.8191  0.3208
10826SOL    HW144537   5.209   9.164   4.312 -1.0843  2.4367 -0.6747
10826SOL    HW244538   5.101   9.126   4.196 -0.4864 -1.1385 -0.1144
10827SOL     OW44539   3.125   0.469   8.081  0.0083 -0.0206  0.4685
10827SOL    HW144540   3.080   0.523   8.009 -0.3688  2.2933  2.3925
10827SOL    HW244541   3.222   0.458   8.058 -0.0039  1.1206 -0.2014
10828SOL     OW44542   2.806   0.480   8.421  0.6025  0.8534  0.2308
10828SOL    HW144543   2.773   0.386   8.428 -0.8614  1.3186 -0.3616
10828SOL    HW244544   2.901   0.479   8.389  0.7513 -0.4351  0.6682
10829SOL     OW44545   4.354   8.439   5.101  0.0240 -0.3862  0.1881
10829SOL    HW144546   4.260   8.439   5.135 -0.9621  0.5969 -2.4129
10829SOL    HW244547   4.354   8.433   5.002  2.7127  0.1994  0.0978
10830SOL     OW44548   8.128   1.768   9.145  0.2971 -0.2347 -0.5880
10830SOL    HW144549   8.037   1.797   9.115 -0.3148 -1.0741  0.4002
10830SOL    HW244550   8.175   1.845   9.188 -1.4134 -0.7091  2.2583
10831SOL     OW44551   4.951   3.696   9.576  0.1042 -0.5087  0.6287
10831SOL    HW144552   4.876   3.761   9.569  0.8075  0.4260  1.4911
10831SOL    HW244553   4.965   3.671   9.672  2.3468  1.1299  0.7917
10832SOL     OW44554   9.837   1.219   0.578 -0.0513  0.6472  0.4470
10832SOL    HW144555   9.740   1.241   0.570  0.7203  3.9297 -0.2562
10832SOL    HW244556   9.890   1.277   0.517  2.5198 -0.0486  1.9534
10833SOL     OW44557   3.458   1.688   3.086 -0.4693  0.1663  0.1771
10833SOL    HW144558   3.459   1.781   3.121  1.5098 -0.6273  2.3266
10833SOL    HW244559   3.549   1.664   3.052 -0.9146 -1.0589 -0.1757
10834SOL     OW44560   4.611   4.840   8.480 -0.2444 -0.1990 -0.0005
10834SOL    HW144561   4.661   4.822   8.565 -0.1630  0.7125  0.1510
10834SOL    HW244562   4.595   4.754   8.431  0.5608 -0.6111  0.4620
10835SOL     OW44563   9.438   8.995   0.434 -0.1075  0.2933  0.9129
10835SOL    HW144564   9.389   8.973   0.518 -0.3170  2.0799  1.2758
10835SOL    HW244565   9.419   9.090   0.408 -0.2696 -0.3109 -1.2979
10836SOL     OW44566   0.411   3.337   6.416 -0.5151  0.3208  0.3149
10836SOL    HW144567   0.400   3.297   6.325  0.0469 -0.4918  0.6029
10836SOL    HW244568   0.351   3.290   6.480 -0.5952  0.6133  0.4553
10837SOL     OW44569   5.293   8.574   5.664  0.3465 -0.1748  0.0368
10837SOL    HW144570   5.235   8.532   5.734  0.9019  2.0598  1.8869
10837SOL    HW244571   5.237   8.626   5.600  0.2609  1.7651  1.6713
10838SOL     OW44572   7.064   6.382   5.997  0.4371  0.2250 -0.3635
10838SOL    HW144573   7.013   6.344   5.920  1.0556  0.1248 -0.7241
10838SOL    HW244574   7.008   6.452   6.042  1.3162  2.6024 -2.8641
10839SOL     OW44575   4.981   5.375   3.037  0.0458  0.7567  0.9112
10839SOL    HW144576   5.072   5.401   3.007  1.0591 -0.1780  3.0635
10839SOL    HW244577   4.953   5.290   2.992  0.6277  0.5493  0.9429
10840SOL     OW44578   1.773   5.174   7.872 -0.0193  0.0309  0.2342
10840SOL    HW144579   1.806   5.265   7.846  2.5879 -0.8391  0.3386
10840SOL    HW244580   1.763   5.169   7.971 -0.6750  0.3479  0.1895
10841SOL     OW44581   3.591   3.611   5.564  0.4496 -0.2971  0.3152
10841SOL    HW144582   3.494   3.594   5.579  0.0037 -0.4470 -2.4927
10841SOL    HW244583   3.641   3.597   5.650 -2.1392  1.0289  2.0967
10842SOL     OW44584   3.791   0.322   9.579 -0.1155 -0.1267  0.1366
10842SOL    HW144585   3.813   0.264   9.658  0.2703  1.3899  1.1510
10842SOL    HW244586   3.765   0.263   9.501 -1.4109 -1.6165  1.6379
10843SOL     OW44587   8.149   0.528   3.046 -0.2080 -0.1064 -0.4045
10843SOL    HW144588   8.113   0.501   2.957  2.0767 -0.5543 -1.2168
10843SOL    HW244589   8.239   0.571   3.034  0.6097 -1.1569  1.7649
10844SOL     OW44590   9.029   4.706   6.207 -0.5777 -0.0264  0.2073
10844SOL    HW144591   8.968   4.701   6.286  1.6005 -1.4130  1.8367
10844SOL    HW244592   8.974   4.704   6.123 -2.9156  1.4915  1.6350
10845SOL     OW44593   8.321   3.921   6.132 -0.3708  0.5349  0.1785
10845SOL    HW144594   8.401   3.958   6.180 -0.8444 -0.1156  1.4727
10845SOL    HW244595   8.238   3.964   6.166 -0.7117  0.0675 -0.0509
10846SOL     OW44596   3.285   9.873   5.947 -0.0944  0.2016 -0.3886
10846SOL    HW144597   3.355   9.938   5.918 -1.5155  0.4733 -3.3902
10846SOL    HW244598   3.205   9.923   5.981  1.1778 -0.1075  3.2575
10847SOL     OW44599   1.216   1.914   6.291  0.6425  0.2332 -0.1940
10847SOL    HW144600   1.286   1.904   6.362  2.1358  0.5666 -1.5841
10847SOL    HW244601   1.187   2.009   6.286  2.1754  0.6524 -1.5175
10848SOL     OW44602   4.092   7.615   4.319  0.0220 -0.3572  0.1439
10848SOL    HW144603   4.050   7.525   4.331 -1.2163  0.1546 -0.2582
10848SOL    HW244604   4.025   7.678   4.278  1.4100  0.2784 -1.2025
10849SOL     OW44605   4.104   7.058   2.296  0.4503  0.5580 -0.2655
10849SOL    HW144606   4.059   7.146   2.311 -0.1325  0.6283 -2.2756
10849SOL    HW244607   4.193   7.072   2.254 -0.0491  0.1675 -1.4880
10850SOL     OW44608   7.541   9.538   5.304  0.5526 -0.3961 -0.0378
10850SOL    HW144609   7.535   9.577   5.396  0.0346  0.1202 -0.2809
10850SOL    HW244610   7.453   9.497   5.280  0.4670  0.1019 -0.5761
10851SOL     OW44611   3.086   9.258   2.865 -0.3904 -0.1919 -0.2693
10851SOL    HW144612   2.989   9.275   2.876 -0.2424 -0.3914  1.6019
10851SOL    HW244613   3.137   9.342   2.883 -0.2716  0.2376 -2.5165
10852SOL     OW44614   4.121   1.323   0.515  0.2563  0.2387  0.4191
10852SOL    HW144615   4.122   1.412   0.468  0.9916  0.9018  1.6726
10852SOL    HW244616   4.214   1.286   0.518 -0.0898 -0.7001 -0.3299
10853SOL     OW44617   2.465   2.879   1.041  0.0892 -0.1015  1.0698
10853SOL    HW144618   2.512   2.820   0.975  1.1421  0.7427  1.0450
10853SOL    HW244619   2.371   2.848   1.052  0.9504 -2.5629  1.9855
10854SOL     OW44620   1.474   0.722   8.604  0.0013 -0.5407  0.5827
10854SOL    HW144621   1.399   0.741   8.541  0.3136  0.4150  0.4921
10854SOL    HW244622   1.556   0.698   8.552  0.0722 -0.4399  0.6472
10855SOL     OW44623   9.324   9.748   2.378 -0.2377 -0.1383 -0.0602
10855SOL    HW144624   9.228   9.776   2.375 -0.7192 -1.6557  0.8499
10855SOL    HW244625   9.367   9.768   2.289 -0.5803  3.2615  0.4973
10856SOL     OW44626   0.331   1.594   6.781 -0.5165  0.5340 -0.0539
10856SOL    HW144627   0.378   1.682   6.775 -1.2510  0.9473  0.2398
10856SOL    HW244628   0.242   1.606   6.823 -0.3762 -0.4514  0.5582
10857SOL     OW44629   3.374   8.387   7.148 -0.1585  0.7863 -0.9628
10857SOL    HW144630   3.371   8.288   7.164  0.1981  1.0754  1.1198
10857SOL    HW244631   3.448   8.409   7.085 -0.3396 -0.2887 -1.5552
10858SOL     OW44632   2.590   5.150   5.735  0.5836  0.2431  0.0740
10858SOL    HW144633   2.558   5.144   5.830  1.9565 -2.2743  0.4238
10858SOL    HW244634   2.538   5.220   5.686 -1.6496  0.0288  2.0793
10859SOL     OW44635   7.620   1.592   4.845 -0.6051 -0.0080  0.2099
10859SOL    HW144636   7.677   1.619   4.923  0.8654 -1.8119 -0.1932
10859SOL    HW244637   7.534   1.554   4.879 -1.1208  1.6948  0.8564
10860SOL     OW44638   3.945   1.191   1.834 -0.4065 -0.6931  0.2371
10860SOL    HW144639   3.895   1.141   1.905  0.5044 -2.0804 -0.0830
10860SOL    HW244640   3.946   1.138   1.750  0.4383 -0.0641 -0.1580
10861SOL     OW44641   1.720   4.024   0.486  0.4824  0.5299 -0.2748
10861SOL    HW144642   1.697   4.096   0.421 -0.8810 -0.7995 -1.3028
10861SOL    HW244643   1.663   4.032   0.567  0.6555  0.8710 -0.1850
10862SOL     OW44644   6.161   7.606   7.188  0.3184  0.0690 -0.3445
10862SOL    HW144645   6.234   7.661   7.230 -0.0565 -0.0714  0.4966
10862SOL    HW244646   6.108   7.560   7.259  2.5500 -3.9244 -1.1202
10863SOL     OW44647   5.822   9.781   3.452 -0.0297  0.5246  0.3672
10863SOL    HW144648   5.767   9.801   3.371 -1.5649  1.5766  1.6540
10863SOL    HW244649   5.862   9.690   3.443 -2.3155 -0.4432 -0.4349
10864SOL     OW44650   8.124   6.750   5.005  0.1856 -0.3815  0.0263
10864SOL    HW144651   8.130   6.650   5.016  3.2783 -0.5075 -2.1211
10864SOL    HW244652   8.191   6.794   5.064 -1.3322  0.4708  1.1413
10865SOL     OW44653   9.469   6.293   0.984  0.2412 -0.0750  0.4390
10865SOL    HW144654   9.493   6.214   1.039  0.5079 -1.2215 -1.2685
10865SOL    HW244655   9.551   6.328   0.938 -0.0210  0.6781  0.5345
10866SOL     OW44656   1.965   1.893   0.116 -0.0254 -0.2514 -0.2581
10866SOL    HW144657   2.061   1.897   0.090  0.1199  0.2152  0.3241
10866SOL    HW244658   1.957   1.860   0.211 -0.2643  2.2016  0.6107
10867SOL     OW44659   2.312   8.452   8.911 -0.4607  0.1105  0.1720
10867SOL    HW144660   2.283   8.437   8.816 -3.3729 -1.5817  1.2519
10867SOL    HW244661   2.260   8.528   8.950  0.2537  0.3821  0.6041
10868SOL     OW44662   1.154   7.337   3.086 -0.8454 -0.8661  0.1160
10868SOL    HW144663   1.250   7.338   3.115 -1.4535  1.9466  2.1728
10868SOL    HW244664   1.103   7.272   3.142  0.0488 -3.4263 -1.9028
10869SOL     OW44665   9.879   9.859   6.808  0.1933 -0.7448 -0.4043
10869SOL    HW144666   9.819   9.799   6.755  0.3575 -0.4903 -0.8844
10869SOL    HW244667   9.840   9.874   6.899 -0.3385 -0.7896 -0.6225
10870SOL     OW44668   2.807   2.127   4.007  0.4055  0.1000  0.0466
10870SOL    HW144669   2.810   2.041   4.058  0.6320  0.0871  0.0109
10870SOL    HW244670   2.715   2.139   3.968 -0.0665  0.5957  1.2873
10871SOL     OW44671   8.711   2.253   2.053 -0.1706  0.1584  0.1192
10871SOL    HW144672   8.632   2.193   2.064 -0.3015 -0.1095 -2.0950
10871SOL    HW244673   8.730   2.300   2.140 -2.9426  0.4695  0.5973
10872SOL     OW44674   5.264   0.621   9.748  0.0613 -0.2159 -0.5617
10872SOL    HW144675   5.192   0.606   9.681  1.4177  0.0444 -2.0896
10872SOL    HW244676   5.348   0.576   9.719  1.1531  1.3551  0.0938
10873SOL     OW44677   7.931   4.236   6.275 -0.0060  0.0680  0.2109
10873SOL    HW144678   7.852   4.233   6.214 -0.0302  1.1063  0.1813
10873SOL    HW244679   7.903   4.271   6.364  0.8790  2.9595 -0.5816
10874SOL     OW44680   3.854   4.985   3.983  0.3293 -0.2621 -0.2960
10874SOL    HW144681   3.870   5.065   4.041 -0.9819 -0.3595  0.2330
10874SOL    HW244682   3.797   5.011   3.905 -0.0595 -0.6668 -0.1482
10875SOL     OW44683   7.520   8.108   8.663  0.6078 -0.2417  0.6603
10875SOL    HW144684   7.478   8.053   8.735 -0.4188 -0.8277 -0.3659
10875SOL    HW244685   7.475   8.198   8.659  0.3069 -0.4004  0.4135
10876SOL     OW44686   1.837   6.384   4.327 -0.6411 -0.5832 -0.7319
10876SOL    HW144687   1.769   6.344   4.266 -0.3565 -0.8804 -0.8503
10876SOL    HW244688   1.926   6.340   4.313 -1.2416 -2.8499  2.0791
10877SOL     OW44689   9.237   6.757   3.190  0.2109  0.4923 -0.4544
10877SOL    HW144690   9.268   6.852   3.199  1.0195  0.0696  1.4972
10877SOL    HW244691   9.296   6.709   3.125  2.5359  0.2097  1.8003
10878SOL     OW44692   2.817   1.573   5.524 -0.4770 -0.1731 -0.9383
10878SOL    HW144693   2.847   1.666   5.504  0.8933 -0.0681  1.3436
10878SOL    HW244694   2.720   1.564   5.502 -0.2078  1.2630 -2.8307
10879SOL     OW44695   7.297   1.509   9.631 -0.2251 -0.5900  0.7860
10879SOL    HW144696   7.387   1.533   9.595 -0.1163  0.5314  1.7587
10879SOL    HW244697   7.308   1.467   9.721 -0.5316 -2.6830 -0.1335
10880SOL     OW44698   8.636   5.598   0.406  0.1258  0.0244 -0.5124
10880SOL    HW144699   8.616   5.572   0.312  1.3300  1.4650 -1.1961
10880SOL    HW244700   8.699   5.532   0.446  1.9482  0.9672 -1.7225
10881SOL     OW44701   2.194   7.842   3.177 -0.3946  0.0572  0.3528
10881SOL    HW144702   2.204   7.894   3.092  1.3476 -1.1658 -0.2127
10881SOL    HW244703   2.126   7.770   3.164  2.3556 -2.3711 -1.1692
10882SOL     OW44704   6.618   5.969   7.513  0.1983  0.7275 -0.4049
10882SOL    HW144705   6.612   6.067   7.491 -3.1780  0.6827  0.1268
10882SOL    HW244706   6.646   5.958   7.608 -3.0219  1.3070  0.6638
10883SOL     OW44707   8.295   7.527   9.683 -0.0829  0.2916 -0.2375
10883SOL    HW144708   8.357   7.585   9.631 -1.5454  1.3272 -0.8870
10883SOL    HW244709   8.244   7.584   9.749 -1.0521 -0.3501 -0.4147
10884SOL     OW44710   1.873   3.933   7.784  0.0490  0.4116 -0.6103
10884SOL    HW144711   1.919   3.953   7.871 -0.4119 -0.0240 -0.2559
10884SOL    HW244712   1.820   4.012   7.755  0.8146  0.8230 -0.8857
10885SOL     OW44713   8.834   0.374   5.647  0.0715  0.1775  0.0370
10885SOL    HW144714   8.795   0.311   5.580  0.8489 -0.8532  0.5409
10885SOL    HW244715   8.819   0.338   5.739 -0.2778  1.1852  0.3891
10886SOL     OW44716   1.902   4.308   8.398 -0.4916  0.4833  0.2151
10886SOL    HW144717   1.818   4.281   8.351 -1.0397 -0.7933  1.8474
10886SOL    HW244718   1.981   4.289   8.340 -0.8935 -4.2264  0.9918
10887SOL     OW44719   7.861   3.315   4.736  0.0714  0.8373  0.6088
10887SOL    HW144720   7.766   3.303   4.708  0.3963 -0.3354 -0.0528
10887SOL    HW244721   7.916   3.238   4.701  1.4900  2.1427 -0.1128
10888SOL     OW44722   1.299   3.246   4.810  0.8826  0.3141 -0.1572
10888SOL    HW144723   1.209   3.204   4.823  1.4349 -0.7954  0.1356
10888SOL    HW244724   1.288   3.344   4.794 -0.5045 -0.1510 -2.1603
10889SOL     OW44725   3.401   5.735   4.704  0.1306 -1.0096  0.3002
10889SOL    HW144726   3.423   5.664   4.771 -0.7179 -1.0836  0.4959
10889SOL    HW244727   3.486   5.781   4.676  0.8781 -3.0212 -0.8713
10890SOL     OW44728   7.677   8.207   6.178 -0.3841  0.5301  0.4147
10890SOL    HW144729   7.692   8.238   6.272  3.0275 -0.0825  0.1705
10890SOL    HW244730   7.640   8.282   6.124 -0.5838  1.4811  1.8330
10891SOL     OW44731   6.673   6.338   1.781 -0.1295  0.6416  0.5407
10891SOL    HW144732   6.737   6.334   1.857 -0.9201  0.5378  1.2092
10891SOL    HW244733   6.583   6.365   1.814 -1.2502 -2.3516  0.1560
10892SOL     OW44734   1.751   6.459   6.745  0.4906  0.2911 -0.2242
10892SOL    HW144735   1.832   6.402   6.729  1.8740  2.0947  0.2278
10892SOL    HW244736   1.682   6.439   6.676  2.0088  0.0125 -1.6813
10893SOL     OW44737   1.115   2.561   1.564  0.1503 -0.4457  0.1942
10893SOL    HW144738   1.150   2.478   1.521  0.7041  0.0724 -0.3570
10893SOL    HW244739   1.018   2.570   1.546  0.5342  0.1734 -1.6094
10894SOL     OW44740   7.854   0.767   2.605  0.0455  0.5952 -0.2643
10894SOL    HW144741   7.934   0.780   2.546  0.9535  1.2934  1.0937
10894SOL    HW244742   7.843   0.846   2.665 -0.7866 -0.1483  0.5912
10895SOL     OW44743   1.883   9.664   2.137 -0.1795 -0.3422 -0.0413
10895SOL    HW144744   1.825   9.717   2.199  0.5911  0.2148  0.2076
10895SOL    HW244745   1.837   9.578   2.114 -0.7432 -0.2702  0.7938
10896SOL     OW44746   9.204   3.118   4.305  0.3595 -0.5190  0.0345
10896SOL    HW144747   9.134   3.048   4.291  0.4639 -0.4745 -0.7193
10896SOL    HW244748   9.171   3.206   4.273  0.7183 -0.4783 -0.2283
10897SOL     OW44749   9.397   1.007   9.331 -0.6392 -0.3538  0.0279
10897SOL    HW144750   9.492   1.036   9.327 -1.0534  1.0672  0.1263
10897SOL    HW244751   9.344   1.057   9.262 -1.3495 -0.9930  0.1008
10898SOL     OW44752   2.581   1.906   6.783  0.9340 -0.0245 -0.3609
10898SOL    HW144753   2.484   1.882   6.779  1.0956 -0.4916 -1.7231
10898SOL    HW244754   2.633   1.845   6.722  2.1353 -0.0446  0.6608
10899SOL     OW44755   9.466   2.902   0.985  0.0131 -0.1165 -0.1531
10899SOL    HW144756   9.533   2.952   1.039  0.3705  0.6589 -1.3096
10899SOL    HW244757   9.513   2.840   0.923 -0.3742 -0.3575 -0.2087
10900SOL     OW44758   4.853   2.814   5.351 -0.1615 -0.2106  0.0396
10900SOL    HW144759   4.902   2.773   5.273 -1.0537 -0.7148 -0.2593
10900SOL    HW244760   4.755   2.817   5.331 -0.3781 -0.1810  1.0771
10901SOL     OW44761   8.915   8.864   7.129 -0.0334 -0.4388  0.2887
10901SOL    HW144762   8.865   8.951   7.133 -0.6195 -0.8511  2.2481
10901SOL    HW244763   8.963   8.857   7.041  2.1513  3.0210  1.1287
10902SOL     OW44764   9.321   8.345   5.290  0.3876  0.0302  0.1696
10902SOL    HW144765   9.291   8.438   5.270 -0.0499 -0.6840 -2.6017
10902SOL    HW244766   9.419   8.337   5.273  0.5349  0.1305  0.9688
10903SOL     OW44767   4.395   9.689  10.027  0.0274  0.0617 -0.2002
10903SOL    HW144768   4.462   9.627   9.986  0.2806  0.4462 -0.3713
10903SOL    HW244769   4.443   9.756  10.084 -0.3815 -1.0047  1.4463
10904SOL     OW44770   0.588   5.308   5.847  0.0327  0.0988 -0.0539
10904SOL    HW144771   0.648   5.274   5.919  0.1580 -0.0394 -0.2221
10904SOL    HW244772   0.542   5.391   5.878  0.5086  0.3484 -0.0183
10905SOL     OW44773   3.212   4.949   7.307 -0.0295  0.1373 -0.3615
10905SOL    HW144774   3.252   4.857   7.303 -0.4952 -0.0175 -1.6301
10905SOL    HW244775   3.261   5.010   7.245  0.4400  0.8334  0.6635
10906SOL     OW44776   1.912   5.709   7.280  0.2738  0.1776 -0.1739
10906SOL    HW144777   1.938   5.628   7.332  1.8031 -0.6637 -2.1778
10906SOL    HW244778   1.843   5.685   7.212  1.1778  0.3954 -1.1896
10907SOL     OW44779   6.090   5.656   2.023  0.3178 -0.5953 -0.1367
10907SOL    HW144780   6.087   5.661   1.924  1.9023  1.2379 -0.1139
10907SOL    HW244781   6.028   5.723   2.063  0.2310 -0.8184  0.1123
10908SOL     OW44782   4.469   2.649   1.671  0.1362 -0.3684  0.3711
10908SOL    HW144783   4.462   2.640   1.571  1.4433  0.7075  0.1737
10908SOL    HW244784   4.557   2.688   1.695 -0.8015  0.8938  1.8615
10909SOL     OW44785   4.672   0.261   5.199 -0.3051 -0.0647 -0.3858
10909SOL    HW144786   4.645   0.320   5.275 -1.4798 -1.1555  0.0670
10909SOL    HW244787   4.593   0.206   5.170  0.3534 -0.2512 -1.8460
10910SOL     OW44788   7.027   0.956   1.942 -0.1860  0.2588  0.1407
10910SOL    HW144789   7.050   1.050   1.965 -0.8419  0.4950 -0.1472
10910SOL    HW244790   7.043   0.897   2.022 -0.7697  0.7878  0.6611
10911SOL     OW44791   7.698   8.215   7.743  0.2894 -0.2835 -0.4371
10911SOL    HW144792   7.749   8.196   7.826  0.6006  1.0562 -0.3008
10911SOL    HW244793   7.705   8.138   7.680  2.6421 -0.0415 -0.5148
10912SOL     OW44794   2.471   4.198   9.166 -0.3852  0.2018  0.2675
10912SOL    HW144795   2.529   4.255   9.107 -1.3872 -0.4894 -1.4215
10912SOL    HW244796   2.375   4.220   9.149 -0.8263 -2.4353 -0.9468
10913SOL     OW44797   1.425   6.060   5.643  0.4350 -0.3816 -0.3545
10913SOL    HW144798   1.335   6.098   5.664  0.7936 -0.4191  1.3220
10913SOL    HW244799   1.416   5.964   5.616 -0.4901  0.8281 -4.6924
10914SOL     OW44800   7.855   4.218   5.937 -0.0127  0.2908 -0.2588
10914SOL    HW144801   7.916   4.153   5.891 -0.3295  0.5423 -1.0507
10914SOL    HW244802   7.791   4.168   5.995 -1.1051 -0.2053 -1.8812
10915SOL     OW44803   7.640   5.894   3.726  0.2285 -0.0323 -0.0503
10915SOL    HW144804   7.694   5.810   3.733  0.0287 -0.1895 -0.4210
10915SOL    HW244805   7.621   5.928   3.818  1.4575  0.3395  0.0763
10916SOL     OW44806   7.993   4.763   8.105 -0.2093 -0.0620  0.0002
10916SOL    HW144807   7.977   4.668   8.079  0.9281 -0.7715  1.7984
10916SOL    HW244808   7.911   4.799   8.150  0.3682 -1.1380  1.9569
10917SOL     OW44809   5.532   0.197   2.293  0.0128 -0.4122 -0.0577
10917SOL    HW144810   5.523   0.148   2.206 -0.6419 -1.1944  0.4378
10917SOL    HW244811   5.626   0.186   2.328 -0.0620 -1.1311 -0.0671
10918SOL     OW44812   7.695   3.712   4.349  0.3429  0.2627 -0.1943
10918SOL    HW144813   7.710   3.659   4.433  0.2996  1.2269  0.4230
10918SOL    HW244814   7.718   3.655   4.270  2.2090 -0.0450  0.5388
10919SOL     OW44815   9.570   0.214   6.232 -0.1782 -0.6670 -0.1036
10919SOL    HW144816   9.586   0.175   6.323 -2.6738 -0.9126  0.2729
10919SOL    HW244817   9.527   0.146   6.173 -2.8365  0.8470 -0.0100
10920SOL     OW44818   2.284   4.863   3.564 -0.4618  0.0769 -0.0246
10920SOL    HW144819   2.264   4.932   3.494  0.1430  0.2816 -0.0036
10920SOL    HW244820   2.351   4.798   3.528 -1.2545 -0.6808 -0.1478
10921SOL     OW44821   4.766   3.095   0.461  0.0826  0.2117 -0.3603
10921SOL    HW144822   4.728   3.006   0.485 -3.1749  1.5721 -0.2546
10921SOL    HW244823   4.860   3.084   0.429 -0.6507 -3.3952 -1.4544
10922SOL     OW44824   1.052   6.516   2.139  0.5257  0.4058  0.6176
10922SOL    HW144825   1.126   6.583   2.132  0.8888 -0.0192  0.3679
10922SOL    HW244826   1.090   6.423   2.135 -0.1706  0.1761 -1.3948
10923SOL     OW44827   8.563   0.341   2.995  0.4718 -0.7322  0.4139
10923SOL    HW144828   8.645   0.302   3.037 -0.0087  0.0676  2.0962
10923SOL    HW244829   8.482   0.313   3.047 -0.0395  1.0866  0.6087
10924SOL     OW44830   9.609   4.589   8.649 -0.0015 -0.1814  0.7562
10924SOL    HW144831   9.674   4.592   8.726 -2.0442  2.2450  2.4683
10924SOL    HW244832   9.610   4.677   8.602 -2.1226 -0.0780  0.8792
10925SOL     OW44833   7.916   4.002   8.636  0.4118  0.9497 -0.3042
10925SOL    HW144834   7.857   4.083   8.636 -0.0992  0.5822 -0.9172
10925SOL    HW244835   7.897   3.947   8.555  1.4931  0.7386 -0.4227
10926SOL     OW44836   1.399   9.080   2.937  0.5361 -0.3735  0.1942
10926SOL    HW144837   1.457   9.051   2.861  1.1684  2.5755 -0.5118
10926SOL    HW244838   1.405   9.179   2.948 -3.6111 -0.0871  0.7489
10927SOL     OW44839   7.794   3.110   8.618 -0.8158  0.5297  0.5013
10927SOL    HW144840   7.894   3.115   8.614 -0.8566 -0.0460 -1.9587
10927SOL    HW244841   7.756   3.202   8.604 -0.6570  0.7279  1.3135
10928SOL     OW44842   7.479   9.529   6.114  0.0661  0.4635 -0.4917
10928SOL    HW144843   7.455   9.433   6.123  1.7290 -0.0094 -0.8515
10928SOL    HW244844   7.476   9.556   6.018 -0.3313  0.7673 -0.3990
10929SOL     OW44845   5.735   8.782   2.437  0.2268  0.0721  0.1938
10929SOL    HW144846   5.734   8.824   2.527  0.5049 -0.5959  0.5134
10929SOL    HW244847   5.683   8.697   2.439  0.8467 -0.3240 -0.0859
10930SOL     OW44848   2.341   5.324   2.201  0.6901 -0.5977 -0.1871
10930SOL    HW144849   2.327   5.380   2.119 -0.3171 -1.7510 -0.8201
10930SOL    HW244850   2.292   5.237   2.190 -0.8962 -0.0662  2.3397
10931SOL     OW44851   4.613   4.299   7.217 -0.1746 -0.0086 -0.0924
10931SOL    HW144852   4.671   4.218   7.208  0.5538  0.5264 -0.2885
10931SOL    HW244853   4.596   4.317   7.313  1.0378  0.5619  0.0224
10932SOL     OW44854   6.095   8.741   4.140  0.1448 -0.3157 -0.3407
10932SOL    HW144855   6.082   8.700   4.230 -1.5247 -1.4862 -1.0971
10932SOL    HW244856   6.019   8.802   4.120  0.0552 -0.7485 -1.3277
10933SOL     OW44857   0.532   6.805   1.448 -0.2142 -0.4302 -0.2856
10933SOL    HW144858   0.618   6.850   1.472 -0.9446  1.2426 -0.6951
10933SOL    HW244859   0.506   6.741   1.520  1.8322 -1.6293 -0.5983
10934SOL     OW44860   1.214   3.392   6.258 -0.0883  0.0803 -0.0594
10934SOL    HW144861   1.213   3.457   6.181  0.8087 -0.6751 -0.7139
10934SOL    HW244862   1.289   3.328   6.247 -1.1304 -1.2533  0.4459
10935SOL     OW44863   8.903   0.271   3.908 -0.3988  0.8110 -0.3229
10935SOL    HW144864   8.818   0.224   3.931 -0.0145  0.4594  0.4204
10935SOL    HW244865   8.945   0.228   3.828  0.7877 -1.2004  1.3331
10936SOL     OW44866   4.629   4.037   0.802  0.5971  0.1198  0.1420
10936SOL    HW144867   4.669   3.964   0.746  2.0767  0.3486  0.8705
10936SOL    HW244868   4.677   4.041   0.890  2.0896  3.4825 -0.7466
10937SOL     OW44869   7.835   6.982   8.473 -0.6145  0.0811  0.0079
10937SOL    HW144870   7.817   6.983   8.375 -1.8922  0.7235  0.2354
10937SOL    HW244871   7.775   6.915   8.517  2.1487 -2.5291 -0.0218
10938SOL     OW44872   4.447   3.969   7.108  0.7478  0.5340  0.2579
10938SOL    HW144873   4.406   4.052   7.144  0.3114 -1.0800  3.7732
10938SOL    HW244874   4.541   3.961   7.141  1.6563  0.8625 -2.1629
10939SOL     OW44875   2.037   9.226   5.700  0.7839  0.3387 -0.1319
10939SOL    HW144876   2.065   9.151   5.639  2.2866 -0.0960  1.0726
10939SOL    HW244877   2.007   9.188   5.787  0.1735  1.0691 -0.0229
10940SOL     OW44878   4.714   3.358   0.814  0.1589 -0.5954  0.0682
10940SOL    HW144879   4.754   3.444   0.784 -1.4834  0.4887  0.9403
10940SOL    HW244880   4.660   3.319   0.740 -1.5697  0.6565  0.6495
10941SOL     OW44881   4.404   9.991   4.169  0.3565 -0.6863  0.2755
10941SOL    HW144882   4.305   9.983   4.183  0.2610  0.0887  0.1119
10941SOL    HW244883   4.436   9.917   4.111 -0.2657 -0.4783 -0.3374
10942SOL     OW44884   6.105   1.077   8.796 -0.4179  0.0087 -0.1284
10942SOL    HW144885   6.038   1.150   8.811 -0.3647 -0.1433  0.8694
10942SOL    HW244886   6.197   1.117   8.791 -0.1880 -0.1767  2.3069
10943SOL     OW44887   2.078   1.810   5.449 -0.2705 -0.0713  0.3073
10943SOL    HW144888   2.022   1.751   5.507 -0.3220 -1.0197 -0.6822
10943SOL    HW244889   2.082   1.771   5.357  1.1816  0.5269  0.1103
10944SOL     OW44890   1.248   5.520   1.285 -0.1330 -0.3777  0.2369
10944SOL    HW144891   1.207   5.587   1.346 -0.3728  0.8621 -1.2746
10944SOL    HW244892   1.178   5.484   1.223  0.8301  1.1013 -1.7655
10945SOL     OW44893   7.936   3.444   0.756 -0.2529 -0.3436  0.1651
10945SOL    HW144894   7.951   3.481   0.665 -2.0255  2.7786  1.0670
10945SOL    HW244895   8.021   3.402   0.790  0.9195  0.0863 -2.1502
10946SOL     OW44896   2.832   1.197   1.301  0.1026  0.4148  0.5490
10946SOL    HW144897   2.894   1.273   1.279 -0.7045  0.4243 -1.8333
10946SOL    HW244898   2.784   1.218   1.386  1.3459  1.6510  0.9853
10947SOL     OW44899   9.813   7.692   0.686 -0.0787 -0.0165  0.1750
10947SOL    HW144900   9.780   7.708   0.779  0.9577 -1.7229  0.8661
10947SOL    HW244901   9.908   7.662   0.689 -0.1980 -0.6065 -1.4044
10948SOL     OW44902   0.443   3.145   5.509  0.3899  0.3189 -0.4094
10948SOL    HW144903   0.411   3.238   5.493 -0.1203  0.0906 -0.7385
10948SOL    HW244904   0.372   3.080   5.481  0.7975 -0.1704 -0.3152
10949SOL     OW44905   8.680   0.066   9.561 -0.4211 -0.1237  0.6918
10949SOL    HW144906   8.584   0.051   9.538 -0.1614 -2.0358  0.7612
10949SOL    HW244907   8.727  -0.022   9.567  1.2232  0.7631  1.1734
10950SOL     OW44908   3.347   4.116   9.028 -0.2353 -0.0056  0.6509
10950SOL    HW144909   3.381   4.074   8.944  0.3277  0.2752  0.7330
10950SOL    HW244910   3.312   4.046   9.089  1.5189 -0.4759  1.1672
10951SOL     OW44911   0.525   3.094   4.924  0.2974 -0.0669 -0.2372
10951SOL    HW144912   0.490   3.059   5.010 -1.0299  0.1899 -0.6609
10951SOL    HW244913   0.502   3.191   4.915  2.0972  0.4038 -0.0249
10952SOL     OW44914   9.696   2.535   6.269  0.0531 -0.1716 -0.6457
10952SOL    HW144915   9.697   2.464   6.340  0.8669  1.2911  0.8239
10952SOL    HW244916   9.728   2.496   6.183 -0.1352 -1.7604 -0.0187
10953SOL     OW44917   8.267   2.394   5.982  0.3332  0.1443 -0.3222
10953SOL    HW144918   8.184   2.402   6.037  1.1661  2.0426  0.7000
10953SOL    HW244919   8.243   2.399   5.885 -0.7949  0.0895 -0.0565
10954SOL     OW44920   2.198   2.784   1.058 -0.0882 -0.4374 -0.1133
10954SOL    HW144921   2.131   2.810   0.989  0.3739  0.1123 -0.3614
10954SOL    HW244922   2.218   2.686   1.050  0.9830 -0.1178 -1.6687
10955SOL     OW44923   1.981   9.416   4.951 -0.4598 -0.3111  0.8652
10955SOL    HW144924   1.998   9.476   4.873 -3.7429  1.0335  1.0831
10955SOL    HW244925   1.998   9.466   5.036 -1.9642 -0.0551  1.0319
10956SOL     OW44926   6.826   2.918   8.758  0.3911  0.2161  0.0030
10956SOL    HW144927   6.798   2.878   8.845  0.1373  0.7054  0.1467
10956SOL    HW244928   6.784   2.868   8.683  0.1948  0.1158  0.1800
10957SOL     OW44929   7.693   9.271   8.223 -0.0859 -0.1623  0.5836
10957SOL    HW144930   7.638   9.263   8.140  0.8184 -0.2123 -0.0218
10957SOL    HW244931   7.656   9.343   8.282 -0.6250 -0.0065  0.0527
10958SOL     OW44932   5.679   1.913   1.522 -0.5604 -0.3351  0.1795
10958SOL    HW144933   5.778   1.925   1.519 -0.4142 -1.4121  0.1979
10958SOL    HW244934   5.648   1.913   1.617 -1.0376  3.2733  0.0775
10959SOL     OW44935   7.767   8.861   2.864  0.3564  0.6315 -0.2576
10959SOL    HW144936   7.775   8.892   2.770 -1.2393 -0.9180 -0.9174
10959SOL    HW244937   7.750   8.762   2.866 -0.5054  0.7917  1.6261
10960SOL     OW44938   0.767   2.856   4.350  0.6653 -0.3244 -0.5244
10960SOL    HW144939   0.727   2.765   4.341  0.0873 -0.2769  1.4897
10960SOL    HW244940   0.867   2.848   4.347  0.6040 -0.8968 -1.3491
10961SOL     OW44941   2.065   8.620   9.262  0.1458 -0.6939  0.0476
10961SOL    HW144942   2.119   8.696   9.299  0.0926 -0.3022 -0.6687
10961SOL    HW244943   2.048   8.553   9.334 -0.2769  0.2413  0.8264
10962SOL     OW44944   1.990   5.746   0.926 -0.1683 -0.0720  0.3239
10962SOL    HW144945   2.045   5.691   0.989  1.1665  2.1064  1.0831
10962SOL    HW244946   2.044   5.769   0.845 -0.2018  1.4389  0.7275
10963SOL     OW44947   6.862   4.628   1.573 -0.0521 -0.0836 -0.6600
10963SOL    HW144948   6.827   4.594   1.486 -1.0296  0.3384 -0.4385
10963SOL    HW244949   6.787   4.663   1.628  0.5258 -0.5984  0.4791
10964SOL     OW44950   6.934   1.299   0.508 -0.2164 -0.0970  0.0962
10964SOL    HW144951   6.921   1.200   0.520 -2.6980  0.2735  0.8474
10964SOL    HW244952   6.991   1.335   0.581 -0.5663 -0.7458  0.6929
10965SOL     OW44953   2.410   1.246   7.781  0.1824 -0.2328 -0.1759
10965SOL    HW144954   2.370   1.293   7.703  2.0159  1.1762 -0.3036
10965SOL    HW244955   2.415   1.308   7.859  0.6737 -0.8466  0.2882
10966SOL     OW44956   3.909   5.433   0.237 -0.5448  0.1297 -0.2635
10966SOL    HW144957   3.869   5.418   0.328  3.5056 -2.1744  1.2521
10966SOL    HW244958   3.972   5.510   0.240  1.4463 -1.4418 -0.4191
10967SOL     OW44959   3.762   1.143   9.915 -0.4803 -0.0125 -0.1792
10967SOL    HW144960   3.857   1.159   9.889 -0.2573 -0.8862  0.0840
10967SOL    HW244961   3.706   1.220   9.885  0.2823  0.4289 -0.4838
10968SOL     OW44962   2.094   9.533   3.389  0.8426 -0.2129  0.3165
10968SOL    HW144963   2.024   9.599   3.363  0.1276 -0.2654  2.0675
10968SOL    HW244964   2.184   9.571   3.369  0.3648  0.4722 -0.5572
10969SOL     OW44965   4.299   7.663   3.066 -0.7882  0.2264 -0.0184
10969SOL    HW144966   4.249   7.578   3.050 -1.8292  0.6494  0.9394
10969SOL    HW244967   4.242   7.740   3.038 -0.4103  0.6742  0.4417
10970SOL     OW44968   3.360   5.520   1.685 -0.0940 -0.2400  0.0440
10970SOL    HW144969   3.420   5.599   1.676  0.7318 -1.0841 -2.1336
10970SOL    HW244970   3.414   5.436   1.676 -1.1706 -1.0449  0.9303
10971SOL     OW44971   3.091   9.410   8.792  0.2755  0.5420 -0.5355
10971SOL    HW144972   3.108   9.464   8.709  0.7522 -1.4930 -1.8119
10971SOL    HW244973   3.176   9.364   8.820 -0.1515  0.3208  0.4087
10972SOL     OW44974   3.407   3.514   7.722 -0.3270  0.2599 -0.2640
10972SOL    HW144975   3.420   3.589   7.657  1.8872 -1.3401 -1.7193
10972SOL    HW244976   3.494   3.493   7.767 -1.6655  0.8536  2.7701
10973SOL     OW44977   4.207   2.340   6.958  0.1958  0.3683 -0.2178
10973SOL    HW144978   4.306   2.325   6.947  0.6549  3.4883 -0.8893
10973SOL    HW244979   4.174   2.400   6.885 -1.6373  1.5500  1.5241
10974SOL     OW44980   0.003   8.813   2.216 -0.4385  0.2004 -0.2020
10974SOL    HW144981   0.070   8.774   2.278  0.4438  0.5106 -0.9463
10974SOL    HW244982  -0.019   8.906   2.245 -1.5630 -0.3697  0.8164
10975SOL     OW44983   0.506   8.460   1.882 -0.6787  0.5886  0.2379
10975SOL    HW144984   0.425   8.408   1.909 -0.1085 -0.1089  0.6320
10975SOL    HW244985   0.588   8.403   1.893 -0.1443  1.2426 -0.2693
10976SOL     OW44986   7.922   9.265   8.088  0.3342  0.4233  0.0295
10976SOL    HW144987   7.846   9.289   8.150 -0.1022  0.6955 -0.6082
10976SOL    HW244988   7.923   9.167   8.073  1.2648  0.1886  1.5394
10977SOL     OW44989   4.738   6.883   4.355  0.4081  0.2085 -0.5487
10977SOL    HW144990   4.722   6.790   4.386  0.8439  0.2417 -0.2193
10977SOL    HW244991   4.787   6.934   4.425  0.4810  0.5876 -0.8702
10978SOL     OW44992   4.906   1.739   1.259  0.3538  0.1189  0.2447
10978SOL    HW144993   4.905   1.839   1.253  0.8030  0.1913  1.2166
10978SOL    HW244994   4.841   1.709   1.328  0.3687 -0.2506  0.1012
10979SOL     OW44995   3.380   2.584   2.160  0.4388  0.5445 -0.5041
10979SOL    HW144996   3.363   2.492   2.196  1.8995  1.1016  1.7385
10979SOL    HW244997   3.470   2.615   2.191 -0.0481  2.7290 -1.2254
10980SOL     OW44998   1.482   9.054   2.119 -1.1040  0.0343 -0.1327
10980SOL    HW144999   1.516   9.069   2.212  0.2541 -2.6842 -0.1261
10980SOL    HW245000   1.465   8.957   2.106 -3.9851  0.7334 -1.8736
10981SOL     OW45001   9.601   9.530   4.389  0.2379  0.4138 -0.2691
10981SOL    HW145002   9.651   9.450   4.355  2.4227  0.5984  2.3069
10981SOL    HW245003   9.503   9.517   4.375  0.6401 -2.2167 -0.8879
10982SOL     OW45004   1.768   9.743   0.918 -0.0861 -0.2718 -0.2202
10982SOL    HW145005   1.817   9.779   0.997  0.9910 -1.1985 -0.4539
10982SOL    HW245006   1.693   9.805   0.894  0.0128  0.3672  1.0869
10983SOL     OW45007   8.557   9.931   6.329 -0.4737 -0.1489 -0.2661
10983SOL    HW145008   8.459   9.924   6.311 -0.2239 -0.3928 -1.5862
10983SOL    HW245009   8.601   9.980   6.254  0.8361 -2.5434 -1.1156
10984SOL     OW45010   5.158   4.271   9.543  0.1253  0.0707  0.6845
10984SOL    HW145011   5.149   4.370   9.555 -0.4334 -0.2457  3.1336
10984SOL    HW245012   5.131   4.247   9.450 -0.5066  2.1254  0.2972
10985SOL     OW45013   3.032   1.384   8.448  0.1169  0.0185  0.1636
10985SOL    HW145014   2.987   1.425   8.369 -0.7288  1.1280  1.2015
10985SOL    HW245015   3.045   1.453   8.519 -0.3787 -1.2533  1.5207
10986SOL     OW45016   3.500   6.810   9.446 -0.6727  0.1535 -0.8207
10986SOL    HW145017   3.523   6.732   9.388  1.4136  1.3754 -1.6648
10986SOL    HW245018   3.493   6.779   9.541 -0.1988 -1.1200 -1.1881
10987SOL     OW45019   4.482   5.165   9.330  0.5423 -0.2504  0.0357
10987SOL    HW145020   4.477   5.083   9.273  1.3504 -0.4025  0.1898
10987SOL    HW245021   4.428   5.238   9.288 -0.4016 -0.9414  0.0329
10988SOL     OW45022   3.127   2.984   0.015  0.0839  0.6530  0.1045
10988SOL    HW145023   3.095   3.052   0.081 -1.1255 -1.2022  1.5159
10988SOL    HW245024   3.087   3.002  -0.074 -1.9536  0.5935  0.9751
10989SOL     OW45025   9.668   5.714   9.773 -0.2823  0.5305 -0.4180
10989SOL    HW145026   9.737   5.768   9.819 -1.4178  1.5602  0.1155
10989SOL    HW245027   9.708   5.628   9.740  0.4494 -0.4753  2.9184
10990SOL     OW45028   0.713   1.364   5.428  0.0277 -0.2092  0.0873
10990SOL    HW145029   0.639   1.427   5.406 -1.3316 -2.0480 -0.7102
10990SOL    HW245030   0.700   1.327   5.520  0.3819  0.0719  0.2499
10991SOL     OW45031   9.582   4.635   6.881  0.1472 -1.0001  0.1065
10991SOL    HW145032   9.614   4.625   6.787 -0.4913 -2.4394  0.0284
10991SOL    HW245033   9.588   4.546   6.928 -1.1654 -0.6862  0.8984
10992SOL     OW45034   0.682   3.730   2.195  0.1714 -0.1999 -0.2096
10992SOL    HW145035   0.781   3.732   2.201  0.0331  0.3542  2.4357
10992SOL    HW245036   0.649   3.636   2.201  0.5072 -0.3426 -0.6283
10993SOL     OW45037   9.082   9.282   3.653  0.6593  0.8993  0.2667
10993SOL    HW145038   9.050   9.264   3.746 -0.4904  2.1807  0.1387
10993SOL    HW245039   9.161   9.225   3.633 -1.1362 -1.9180  0.8444
10994SOL     OW45040   0.118   6.423   0.167  0.5759  0.3169 -0.3536
10994SOL    HW145041   0.146   6.408   0.261  0.2221  1.0852 -0.1203
10994SOL    HW245042   0.043   6.361   0.144 -0.6554  1.4615  0.4964
10995SOL     OW45043   6.602   5.058   0.069  0.3969 -0.4702 -0.0568
10995SOL    HW145044   6.549   5.000   0.007 -0.9910  0.6573  0.0698
10995SOL    HW245045   6.607   5.150   0.032  0.2942  0.0047  1.1018
10996SOL     OW45046   3.569   5.690   4.362 -0.0599  0.2222  0.1822
10996SOL    HW145047   3.553   5.782   4.325  1.0973  0.3077 -0.1432
10996SOL    HW245048   3.614   5.698   4.451 -3.4316  0.0351  1.9868
10997SOL     OW45049   1.214   1.748   0.637 -0.7595 -0.0132  0.3620
10997SOL    HW145050   1.173   1.668   0.594 -2.6012  0.4685  1.1734
10997SOL    HW245051   1.208   1.739   0.737 -1.0618  1.1547  0.4629
10998SOL     OW45052   4.544   8.249   6.444 -0.3386 -0.1733  0.8808
10998SOL    HW145053   4.450   8.283   6.451  0.2601  2.0595 -1.4363
10998SOL    HW245054   4.608   8.326   6.442  1.4256 -1.6030  0.5842
10999SOL     OW45055   2.731   9.224   5.024 -0.3584  0.0556  0.4725
10999SOL    HW145056   2.795   9.157   4.986  1.8603  2.2140  0.2761
10999SOL    HW245057   2.641   9.212   4.981  0.6553 -1.1207 -1.4270
11000SOL     OW45058   5.487   5.357   1.280 -0.0653  0.4464 -0.3626
11000SOL    HW145059   5.451   5.357   1.373  0.0666  1.5694 -0.3103
11000SOL    HW245060   5.587   5.348   1.283  0.0897  2.0663 -0.3282
11001SOL     OW45061   0.989   2.210   6.900 -0.1617 -0.1447 -0.6624
11001SOL    HW145062   1.080   2.248   6.888  0.7342 -1.7096  0.8861
11001SOL    HW245063   0.943   2.256   6.976  1.3717 -2.8444  1.9839
11002SOL     OW45064   1.475   8.236   2.609 -0.1266 -0.3664  0.5707
11002SOL    HW145065   1.404   8.207   2.673 -0.0759  2.1675  1.8746
11002SOL    HW245066   1.454   8.329   2.577  1.5473 -0.3732 -0.5883
11003SOL     OW45067   2.332   9.254   8.429  0.2348 -0.0714 -0.6195
11003SOL    HW145068   2.289   9.267   8.519  1.5663 -0.8496  0.1433
11003SOL    HW245069   2.402   9.323   8.416  0.3324 -0.2223 -0.8858
11004SOL     OW45070   7.393   9.899   6.276  0.2433  0.4153  0.4505
11004SOL    HW145071   7.428   9.817   6.322 -0.2027 -0.8996 -1.5372
11004SOL    HW245072   7.303   9.880   6.237  0.6330  1.5142 -1.0114
11005SOL     OW45073   8.092   4.939   6.100  0.1667  0.8157  0.3526
11005SOL    HW145074   8.067   4.915   6.006 -1.1699 -0.7927  1.0827
11005SOL    HW245075   8.177   4.991   6.100  0.3572  0.5366 -1.7213
11006SOL     OW45076   0.420   7.335   8.637  0.0373  0.4005  0.3274
11006SOL    HW145077   0.469   7.278   8.704  0.9552  0.5154 -0.2355
11006SOL    HW245078   0.326   7.348   8.668  0.2872 -0.0189  1.3147
11007SOL     OW45079   7.698   3.046   9.613 -0.0874 -0.0961  0.0761
11007SOL    HW145080   7.690   2.970   9.548  0.4345  0.4418 -0.6212
11007SOL    HW245081   7.612   3.095   9.618 -0.6857 -1.2194  1.1420
11008SOL     OW45082   4.092   2.209   1.105  0.7381  0.3552 -0.0798
11008SOL    HW145083   4.090   2.283   1.038  0.0819  0.3149 -0.1022
11008SOL    HW245084   4.115   2.246   1.195  1.3322  0.4489 -0.2657
11009SOL     OW45085   2.643   5.473   1.705  0.5675 -0.0150 -0.2413
11009SOL    HW145086   2.637   5.505   1.800  1.5128 -1.1521  0.2080
11009SOL    HW245087   2.637   5.552   1.643  1.8062  0.9164  0.8039
11010SOL     OW45088   5.162   0.254   5.215  0.1317 -0.2289 -0.0673
11010SOL    HW145089   5.085   0.210   5.260 -0.8213  0.8769 -0.6006
11010SOL    HW245090   5.130   0.329   5.158  1.5853  0.1314 -0.4498
11011SOL     OW45091   4.416   9.304   4.574 -0.2307  0.0918 -0.5300
11011SOL    HW145092   4.349   9.230   4.581  0.5437 -0.6965 -1.3836
11011SOL    HW245093   4.494   9.274   4.520  1.3310  0.6371  1.3402
11012SOL     OW45094   1.370   7.393   2.512  0.0863  0.3131 -0.2608
11012SOL    HW145095   1.311   7.383   2.432  0.9743 -0.3690 -0.8291
11012SOL    HW245096   1.343   7.475   2.563 -1.6348 -0.2108 -0.2784
11013SOL     OW45097   9.587   3.913   5.510  0.1402  0.2039  0.6014
11013SOL    HW145098   9.635   3.970   5.444  1.0198 -0.2128  0.8593
11013SOL    HW245099   9.490   3.936   5.512  0.1441  0.3467 -0.6972
11014SOL     OW45100   0.976   2.767   1.195  0.1911  0.7969  0.2425
11014SOL    HW145101   1.009   2.675   1.213 -0.3374  0.4123 -0.6918
11014SOL    HW245102   1.004   2.795   1.103  0.3368  1.5554  0.5182
11015SOL     OW45103   4.358   5.896   4.908 -0.3997  0.2054 -0.1988
11015SOL    HW145104   4.446   5.925   4.945 -1.4489  0.3661  2.2561
11015SOL    HW245105   4.336   5.804   4.940 -1.0838  0.1137 -0.8940
11016SOL     OW45106   8.098   0.081   3.737 -0.0257  0.4059 -0.5805
11016SOL    HW145107   8.090   0.024   3.819  0.2671  2.0728  0.6281
11016SOL    HW245108   8.089   0.023   3.656 -1.3793 -1.1202  0.6124
11017SOL     OW45109   1.675   5.170   1.558 -0.0294 -0.1771 -0.2430
11017SOL    HW145110   1.722   5.217   1.633 -2.4188 -0.1823  1.3018
11017SOL    HW245111   1.650   5.236   1.488  2.6728 -0.2465 -1.3266
11018SOL     OW45112   1.402   6.883   5.616  0.6026 -0.4829 -0.0361
11018SOL    HW145113   1.366   6.933   5.695 -0.4319  0.0273 -0.8185
11018SOL    HW245114   1.442   6.948   5.551  0.5659 -0.8100 -0.3845
11019SOL     OW45115   2.796   5.472   6.189 -0.4989 -0.0592  0.0880
11019SOL    HW145116   2.723   5.465   6.121 -0.2021  1.4373 -0.4038
11019SOL    HW245117   2.766   5.431   6.275 -1.5855 -0.2607 -0.3821
11020SOL     OW45118   2.263   3.182   4.913  0.3237  0.0446  0.5823
11020SOL    HW145119   2.213   3.269   4.907  1.2576  0.6240  1.0789
11020SOL    HW245120   2.316   3.180   4.998  0.8806 -0.6986  0.2176
11021SOL     OW45121   7.499   1.038   9.759  0.0922 -0.1059  0.4393
11021SOL    HW145122   7.559   1.071   9.831 -0.1007  0.9310  0.1417
11021SOL    HW245123   7.521   1.085   9.673 -0.1619 -0.7937 -0.0076
11022SOL     OW45124   0.339   1.731   2.696 -0.2589 -0.1036 -0.5401
11022SOL    HW145125   0.345   1.769   2.604  0.1331  0.4182 -0.3003
11022SOL    HW245126   0.284   1.792   2.754 -0.5014 -0.4271 -0.4317
11023SOL     OW45127   2.036   2.507   7.621  0.5397 -0.0294 -0.3223
11023SOL    HW145128   2.026   2.561   7.705 -1.2160 -0.7952 -0.0111
11023SOL    HW245129   2.071   2.566   7.548  0.1560  1.1433  0.4167
11024SOL     OW45130   0.387   6.107   2.195 -0.1058 -0.4289 -0.3320
11024SOL    HW145131   0.316   6.133   2.130  1.1309 -0.9370 -1.9252
11024SOL    HW245132   0.429   6.021   2.166  1.4112  0.0450  0.3805
11025SOL     OW45133   9.212   4.978   5.322  0.2493  0.1419 -0.2960
11025SOL    HW145134   9.194   5.075   5.336  1.5456  0.5685 -1.4107
11025SOL    HW245135   9.176   4.949   5.233 -1.9368 -0.9050  0.8958
11026SOL     OW45136   4.209   4.269   0.850  0.4666  0.2001  0.1658
11026SOL    HW145137   4.250   4.216   0.776  0.5055 -1.2288  1.2017
11026SOL    HW245138   4.109   4.256   0.850  0.4753  0.1209  0.4089
11027SOL     OW45139   9.242   3.925   4.344  0.1299 -0.1983 -0.7235
11027SOL    HW145140   9.258   3.981   4.263 -1.3063  0.0637 -0.8381
11027SOL    HW245141   9.192   3.842   4.318 -0.4364 -0.0597 -0.0956
11028SOL     OW45142   0.361   3.329   3.701 -0.0121  0.1878 -0.0270
11028SOL    HW145143   0.404   3.292   3.618  0.8479 -0.7469  0.8192
11028SOL    HW245144   0.360   3.258   3.772  0.6160  1.4294  1.2441
11029SOL     OW45145   2.533   2.165   7.405  0.2194  0.3132  0.2228
11029SOL    HW145146   2.490   2.190   7.491 -0.2890  0.5018 -0.0846
11029SOL    HW245147   2.493   2.081   7.371  1.8111 -0.8576  1.1704
11030SOL     OW45148   9.130   2.910   5.427  0.2683  0.7105 -0.4914
11030SOL    HW145149   9.094   2.862   5.348  0.3370  0.4900 -0.3894
11030SOL    HW245150   9.155   3.004   5.401 -0.3885  0.8734 -0.5613
11031SOL     OW45151   9.949   2.778   7.184  0.0414  0.5462 -0.0001
11031SOL    HW145152   9.870   2.789   7.123 -0.0462 -0.4345 -0.0770
11031SOL    HW245153   9.941   2.692   7.234  0.6000  0.8854  0.6901
11032SOL     OW45154   1.041   2.946   9.322 -0.7094 -0.1848 -0.1519
11032SOL    HW145155   1.046   3.046   9.321 -2.1204 -0.0917  0.2372
11032SOL    HW245156   0.987   2.917   9.402 -1.3846 -1.1944 -0.9629
11033SOL     OW45157   6.584   7.407   7.121 -0.0037 -0.2797  0.0316
11033SOL    HW145158   6.651   7.337   7.149  1.9388  1.6792  0.4315
11033SOL    HW245159   6.612   7.445   7.033 -0.0752  1.2250  0.6574
11034SOL     OW45160   0.872   2.014   8.847  0.7721  0.9260  0.1749
11034SOL    HW145161   0.814   2.027   8.928  1.6831  1.0998  0.8132
11034SOL    HW245162   0.817   2.027   8.764 -0.4306 -0.2938  0.7495
11035SOL     OW45163   9.183   9.911   8.963 -0.0354  0.0102  0.4235
11035SOL    HW145164   9.276   9.928   8.932  0.3768 -0.9921  1.0852
11035SOL    HW245165   9.157   9.980   9.030  0.2149  0.3066  0.2202
11036SOL     OW45166   4.156   6.110   9.254  0.2134 -0.5867  0.3113
11036SOL    HW145167   4.084   6.047   9.226  0.7923 -0.7219 -0.9271
11036SOL    HW245168   4.136   6.147   9.345 -0.2440 -2.3770  0.9543
11037SOL     OW45169   0.219   0.599   8.573 -0.0201 -0.1289  0.8266
11037SOL    HW145170   0.151   0.559   8.512 -0.6524  0.6345  1.0128
11037SOL    HW245171   0.304   0.546   8.570 -0.4335 -0.7458  0.1508
11038SOL     OW45172   4.249   2.396   7.210  0.0446  0.0253 -0.0548
11038SOL    HW145173   4.208   2.375   7.121  2.0915 -1.0955 -0.7679
11038SOL    HW245174   4.326   2.335   7.226  1.1459  1.7609  1.4559
11039SOL     OW45175   7.467   6.892   7.895  0.1333  0.4277  0.3196
11039SOL    HW145176   7.436   6.820   7.957 -0.6189 -1.2472 -1.9293
11039SOL    HW245177   7.406   6.971   7.902  1.4536  1.2476  3.4290
11040SOL     OW45178   9.970   3.384   1.210 -0.6048 -0.2635 -0.5565
11040SOL    HW145179   9.952   3.395   1.308 -1.1666  0.4333 -0.7302
11040SOL    HW245180  10.011   3.294   1.193  0.6992  0.1279  0.4716
11041SOL     OW45181   0.080   5.921   6.697  0.0329  0.0083 -0.0481
11041SOL    HW145182   0.033   6.009   6.712  1.1690  0.6573 -0.2713
11041SOL    HW245183   0.141   5.902   6.774  0.3988 -0.1954 -0.3894
11042SOL     OW45184   3.150   5.777   4.601 -0.1750 -0.0608  0.2927
11042SOL    HW145185   3.236   5.767   4.652 -0.6049 -1.1701  0.8218
11042SOL    HW245186   3.154   5.860   4.545  1.2405 -0.0944  0.3189
11043SOL     OW45187   8.487   2.390   9.259 -0.4037  0.0827 -0.6208
11043SOL    HW145188   8.546   2.462   9.296 -0.7576  0.3196 -0.5205
11043SOL    HW245189   8.392   2.421   9.260 -0.7759 -1.0305  1.0625
11044SOL     OW45190   0.978   3.583   0.625 -0.2103 -0.2615 -0.7814
11044SOL    HW145191   0.883   3.608   0.610 -0.5232 -0.1535  1.2041
11044SOL    HW245192   0.988   3.484   0.619 -0.5394 -0.3094 -0.5105
11045SOL     OW45193   2.804   8.964   9.696 -0.0645  0.2540  0.0481
11045SOL    HW145194   2.809   9.029   9.772 -0.0532  0.4793 -0.1474
11045SOL    HW245195   2.869   8.890   9.711  2.1818  1.9109 -1.2854
11046SOL     OW45196   8.697   3.306   8.906 -0.3837 -0.0531 -0.7683
11046SOL    HW145197   8.709   3.240   8.832 -1.1373  1.0200 -1.8708
11046SOL    HW245198   8.648   3.263   8.982  1.2661 -1.4470 -0.4804
11047SOL     OW45199   5.753   8.587   7.193 -0.0213 -0.2533 -0.5308
11047SOL    HW145200   5.802   8.672   7.215 -3.5185  1.2175  2.0979
11047SOL    HW245201   5.766   8.521   7.267 -0.4356 -0.5624 -0.7330
11048SOL     OW45202   8.903   0.846   1.312  0.0905 -0.1639 -0.0004
11048SOL    HW145203   8.855   0.783   1.251 -0.0322  0.7832 -0.8930
11048SOL    HW245204   8.936   0.796   1.392 -3.5551 -0.6152  1.3269
11049SOL     OW45205   4.629   5.229   9.556  0.2411  0.0639 -0.7058
11049SOL    HW145206   4.571   5.203   9.633  0.7536 -0.8416 -0.6119
11049SOL    HW245207   4.592   5.189   9.472  0.0344  0.5267 -0.8373
11050SOL     OW45208   5.097   5.350   0.175  0.1766 -0.5191 -0.3346
11050SOL    HW145209   4.997   5.343   0.168  0.1785 -0.8332 -0.0755
11050SOL    HW245210   5.136   5.346   0.084 -0.0798  0.1118 -0.4724
11051SOL     OW45211   8.604   6.138   7.569  0.5382  0.5963 -0.1951
11051SOL    HW145212   8.533   6.207   7.558  0.0715 -0.1496 -1.9489
11051SOL    HW245213   8.681   6.158   7.508  0.1209 -0.7847 -1.1864
11052SOL     OW45214   2.410   2.145   1.698  0.3716  0.5273  0.6688
11052SOL    HW145215   2.509   2.127   1.698  0.1935 -0.4751  0.5024
11052SOL    HW245216   2.391   2.225   1.754  1.1973  0.2133  1.4148
11053SOL     OW45217   4.266   2.053   9.936  0.4700 -0.3875 -0.3456
11053SOL    HW145218   4.213   2.111   9.873  2.4920  2.6071  0.6024
11053SOL    HW245219   4.266   2.095  10.027  1.1974 -2.4222  0.6106
11054SOL     OW45220   7.633   0.792   7.890 -0.2420 -0.3311  0.1198
11054SOL    HW145221   7.543   0.751   7.880 -0.3631 -0.5225  1.9277
11054SOL    HW245222   7.683   0.747   7.963  0.5868  1.0631  0.4431
11055SOL     OW45223   8.201   9.642   6.048 -0.6265  0.1699  0.0364
11055SOL    HW145224   8.169   9.729   6.010  1.4870 -0.2775 -3.0363
11055SOL    HW245225   8.221   9.653   6.145 -0.2018  3.2087 -0.3420
11056SOL     OW45226   1.660   9.868   7.844 -0.1305  0.2681  0.4948
11056SOL    HW145227   1.739   9.808   7.833  1.0837  1.8368  0.4218
11056SOL    HW245228   1.618   9.852   7.933  1.1144  0.3790  1.1174
11057SOL     OW45229   9.355   1.253   0.878  0.0015  0.3465  0.3000
11057SOL    HW145230   9.270   1.276   0.926  0.4307  0.9365  0.7839
11057SOL    HW245231   9.342   1.266   0.780 -0.4731  0.4201  0.3688
11058SOL     OW45232   8.266   9.340   0.406  0.0995 -0.5551  0.4202
11058SOL    HW145233   8.186   9.373   0.455 -1.3222 -0.8215 -1.6499
11058SOL    HW245234   8.251   9.246   0.375  1.2134 -0.6139  0.0176
11059SOL     OW45235   2.505   4.347   3.968  0.0348 -0.1149  0.3348
11059SOL    HW145236   2.580   4.366   4.031 -0.5451 -1.2274  1.3770
11059SOL    HW245237   2.489   4.248   3.964 -0.5803  0.0219 -0.8070
11060SOL     OW45238   9.945   6.418   5.400 -0.4227 -0.0130 -0.1667
11060SOL    HW145239   9.921   6.511   5.371 -1.9607 -0.8402 -1.6589
11060SOL    HW245240   9.912   6.402   5.492  0.5006  1.1469  0.3889
11061SOL     OW45241   0.627   1.156   1.933 -0.0049 -0.0911  0.0472
11061SOL    HW145242   0.710   1.203   1.961 -0.2192 -0.1236  0.7304
11061SOL    HW245243   0.548   1.216   1.945  0.0521  0.3981 -1.7848
11062SOL     OW45244   6.823   0.947   8.480  0.1381  0.2316 -0.3335
11062SOL    HW145245   6.737   0.909   8.446  0.0834 -0.7251  0.8528
11062SOL    HW245246   6.804   1.017   8.549  0.3004  0.0778 -0.1300
11063SOL     OW45247   6.755   8.847   8.427  0.0626 -0.4534 -0.2320
11063SOL    HW145248   6.798   8.773   8.375 -1.1642 -0.4079 -1.3179
11063SOL    HW245249   6.658   8.827   8.441 -0.4123  1.1922 -1.0230
11064SOL     OW45250   3.244   4.386   5.994 -0.0190 -0.1175  0.4546
11064SOL    HW145251   3.305   4.347   5.925 -0.2411 -0.6983  0.5808
11064SOL    HW245252   3.177   4.445   5.950 -0.0212 -0.3106  0.1972
11065SOL     OW45253   9.763   0.325   7.424  0.0382 -0.2310 -0.2189
11065SOL    HW145254   9.849   0.279   7.444  0.2645  0.4377  0.3769
11065SOL    HW245255   9.781   0.412   7.380 -0.1941  1.0905  2.1869
11066SOL     OW45256   3.711   2.274   2.801 -0.1797  0.0417  0.1674
11066SOL    HW145257   3.674   2.274   2.894  0.0423 -1.5854  0.2787
11066SOL    HW245258   3.766   2.191   2.787  0.3514  0.6037 -1.1967
11067SOL     OW45259   4.376   0.206   6.296 -0.4915 -0.6475 -0.3605
11067SOL    HW145260   4.315   0.137   6.257  1.5420 -0.5873 -3.9344
11067SOL    HW245261   4.467   0.168   6.307 -0.0691  0.5831  0.5754
11068SOL     OW45262   6.030   0.460   2.654  0.8574  0.1870 -0.2856
11068SOL    HW145263   5.940   0.473   2.696 -0.1369 -1.4206 -1.8544
11068SOL    HW245264   6.100   0.500   2.713 -0.6730 -0.3518  1.9729
11069SOL     OW45265   1.046   9.008   9.174  0.0175 -0.2063 -0.6772
11069SOL    HW145266   0.955   8.966   9.175 -0.2181  0.2921  0.2273
11069SOL    HW245267   1.040   9.100   9.215  0.8208  0.0491 -1.1280
11070SOL     OW45268   5.765   4.644   0.174  0.4188  0.4068  0.0926
11070SOL    HW145269   5.846   4.610   0.222  0.1134  0.2916  0.5245
11070SOL    HW245270   5.683   4.615   0.223 -0.1202 -3.9751 -3.0504
11071SOL     OW45271   0.338   8.063   3.425 -0.0290 -0.2989  0.1998
11071SOL    HW145272   0.287   8.129   3.371  0.0782 -1.3207 -1.1940
11071SOL    HW245273   0.435   8.068   3.402  0.0874 -0.4036  0.6574
11072SOL     OW45274   8.929   0.731   9.617  0.2114  0.1576 -0.1774
11072SOL    HW145275   8.900   0.658   9.678  0.2167  0.7227  0.5016
11072SOL    HW245276   9.026   0.719   9.595 -0.2429 -1.1082 -1.5782
11073SOL     OW45277   3.784   0.689   9.476 -0.0116  0.2682 -0.0231
11073SOL    HW145278   3.709   0.700   9.411  0.2420 -2.0659 -0.7686
11073SOL    HW245279   3.748   0.667   9.567 -0.2706 -0.0856 -0.2092
11074SOL     OW45280   3.072   7.763   4.515  0.7050 -0.1816 -0.0329
11074SOL    HW145281   3.113   7.854   4.518 -0.0347  0.1976 -0.9841
11074SOL    HW245282   2.982   7.768   4.471 -0.3289 -1.0178  1.9467
11075SOL     OW45283   9.294   5.460   3.114 -0.7865  0.2490 -0.3827
11075SOL    HW145284   9.225   5.488   3.180 -0.0166 -2.7530  1.7848
11075SOL    HW245285   9.262   5.379   3.065  0.4439 -0.1249 -0.5899
11076SOL     OW45286   1.881   2.027   8.393  0.3682  0.5332 -0.1373
11076SOL    HW145287   1.823   1.948   8.376 -1.7705  2.2031 -0.8159
11076SOL    HW245288   1.977   1.998   8.394 -0.3416 -1.9924 -0.6306
11077SOL     OW45289   0.875   0.058   0.097  0.4528 -0.1849 -0.0509
11077SOL    HW145290   0.924   0.033   0.014  0.1608  1.0036 -0.5913
11077SOL    HW245291   0.779   0.075   0.077  0.9376  2.9813 -0.0720
11078SOL     OW45292   1.989   9.564   5.902  0.2828  0.9361 -0.0769
11078SOL    HW145293   2.086   9.557   5.922 -0.2152 -1.6569  1.7920
11078SOL    HW245294   1.962   9.489   5.841 -1.3810 -1.3613  3.3162
11079SOL     OW45295   1.027   8.836   7.505 -0.3620 -0.6124 -0.4240
11079SOL    HW145296   1.024   8.742   7.470 -1.1631 -1.0440  0.7540
11079SOL    HW245297   1.019   8.834   7.605  2.5711  0.5550 -0.1296
11080SOL     OW45298   2.283   3.178   9.362  0.3412  0.7275 -0.2646
11080SOL    HW145299   2.313   3.211   9.273  1.8376  0.1020 -0.0004
11080SOL    HW245300   2.193   3.216   9.383 -0.9528 -0.7214 -2.9519
11081SOL     OW45301   9.362   3.299   7.606  0.1499  0.3195  0.2213
11081SOL    HW145302   9.328   3.285   7.513  1.6150  1.1113 -0.4485
11081SOL    HW245303   9.305   3.247   7.670 -2.0474  1.2875 -0.9032
11082SOL     OW45304   7.067   1.222   0.754  0.4630  0.1600 -0.6232
11082SOL    HW145305   7.032   1.128   0.754 -0.3973  0.4556 -2.7693
11082SOL    HW245306   7.133   1.232   0.829  0.3655 -2.0718 -0.1805
11083SOL     OW45307   9.829   8.053   2.871 -0.3106 -0.0216  0.5905
11083SOL    HW145308   9.804   8.103   2.954 -0.3253  1.3703 -0.2261
11083SOL    HW245309   9.922   8.076   2.845 -0.4015 -0.2305  0.0720
11084SOL     OW45310   9.148   4.711   4.524  0.1853  0.5315  0.1132
11084SOL    HW145311   9.070   4.668   4.478  2.3444 -0.9832 -2.2102
11084SOL    HW245312   9.168   4.662   4.609 -1.1068  0.6751  0.5151
11085SOL     OW45313   4.024   3.766   7.716 -0.0162  0.2199 -0.1369
11085SOL    HW145314   3.978   3.769   7.627  0.6967 -2.1278 -0.6172
11085SOL    HW245315   4.123   3.778   7.703  0.2085 -1.1894  0.2160
11086SOL     OW45316   2.394   5.161   2.874  0.5882 -0.9140 -0.2103
11086SOL    HW145317   2.323   5.201   2.933  1.9453 -1.0922  1.5708
11086SOL    HW245318   2.356   5.081   2.828 -0.5220 -0.7367  0.3545
11087SOL     OW45319   9.044   2.163   8.472 -0.1086 -0.1505  0.7341
11087SOL    HW145320   8.995   2.240   8.431  1.9096  1.3824  1.1056
11087SOL    HW245321   8.984   2.083   8.476 -1.9423  1.1262 -0.5291
11088SOL     OW45322   0.840   9.370   1.117 -0.0847  0.4732  0.4771
11088SOL    HW145323   0.828   9.431   1.194  0.3577  1.4416 -0.2134
11088SOL    HW245324   0.899   9.413   1.049  1.7528 -1.4571  0.8086
11089SOL     OW45325   9.271   1.082   8.476  0.4998 -0.4779 -0.4727
11089SOL    HW145326   9.357   1.106   8.431  0.3216  0.3238 -0.3914
11089SOL    HW245327   9.210   1.162   8.477 -0.0731 -0.9144 -0.1388
11090SOL     OW45328   5.213   7.611   3.773 -0.0095 -0.2625 -0.0272
11090SOL    HW145329   5.292   7.556   3.746 -0.0598  0.3120 -1.3872
11090SOL    HW245330   5.131   7.555   3.771 -0.2174  0.0678 -2.3788
11091SOL     OW45331   8.410   8.678   4.460 -0.2183  0.0147  0.5137
11091SOL    HW145332   8.329   8.634   4.501 -1.6629  1.1213 -1.1030
11091SOL    HW245333   8.491   8.623   4.481 -1.5006 -1.5923  1.4349
11092SOL     OW45334   3.731   2.385   9.526  0.1203  0.9354 -0.5752
11092SOL    HW145335   3.667   2.317   9.563 -0.9862  2.5474  0.4944
11092SOL    HW245336   3.822   2.368   9.563  0.0904 -0.6233 -1.1601
11093SOL     OW45337   4.661   9.670   4.895  0.1010  0.2411 -0.2335
11093SOL    HW145338   4.684   9.767   4.891  0.5023  0.1444 -0.2040
11093SOL    HW245339   4.697   9.624   4.815 -2.2372  0.5691 -1.5231
11094SOL     OW45340   3.371   7.534   3.988  0.0542  0.3362 -0.6326
11094SOL    HW145341   3.346   7.465   3.920 -2.4058 -0.5282  1.0954
11094SOL    HW245342   3.426   7.491   4.060 -2.1219 -0.0553  0.8446
11095SOL     OW45343   7.726   1.838   8.176  0.5085 -0.1027 -0.0979
11095SOL    HW145344   7.658   1.905   8.147  0.8015  0.5575  0.7143
11095SOL    HW245345   7.723   1.829   8.276 -0.3932 -2.2237 -0.2811
11096SOL     OW45346   1.907   4.380   3.153 -0.4869 -0.0452  0.4023
11096SOL    HW145347   1.973   4.307   3.137 -2.3227 -1.1366 -2.6045
11096SOL    HW245348   1.943   4.466   3.115  0.3003 -0.0760  1.0781
11097SOL     OW45349   7.202   2.982  10.064  0.3505 -0.1806  0.0945
11097SOL    HW145350   7.267   2.958  10.136  0.9083  0.1278 -0.3065
11097SOL    HW245351   7.125   3.033  10.103  1.9847  2.3872  0.0659
11098SOL     OW45352   4.124   3.845  10.057  0.0108  0.4636  0.8872
11098SOL    HW145353   4.044   3.802  10.098 -0.2124  0.4435  0.4314
11098SOL    HW245354   4.098   3.890   9.971  0.3227  1.1543  1.1487
11099SOL     OW45355   2.373   6.728   0.865 -0.0963  0.2885 -0.0291
11099SOL    HW145356   2.276   6.719   0.888 -0.0596  0.0753  0.0416
11099SOL    HW245357   2.403   6.821   0.885 -0.1958  0.2523  0.2943
11100SOL     OW45358   2.677   4.326   0.677  0.4477  0.3829  0.3467
11100SOL    HW145359   2.629   4.366   0.599  0.5042 -3.6119 -1.8742
11100SOL    HW245360   2.766   4.372   0.688  0.2441  1.3040 -1.6332
11101SOL     OW45361   1.236   1.192   3.219  0.2972  0.1385 -0.5729
11101SOL    HW145362   1.198   1.203   3.311  0.0457  2.7787 -0.9734
11101SOL    HW245363   1.321   1.243   3.212  2.1234 -2.8499 -0.7888
11102SOL     OW45364   8.683   6.215   2.289  0.2715  0.6447  0.1583
11102SOL    HW145365   8.657   6.145   2.221 -0.0995  1.0514 -0.1270
11102SOL    HW245366   8.772   6.193   2.327 -0.2263 -0.4781  0.7224
11103SOL     OW45367   8.223   9.172   4.007  0.1070  0.1407 -0.2838
11103SOL    HW145368   8.243   9.240   4.077 -0.0680  0.1427 -0.2356
11103SOL    HW245369   8.285   9.094   4.019 -1.6788 -1.0444  1.5149
11104SOL     OW45370   9.202   0.665   0.625 -0.1255  0.3927  0.3440
11104SOL    HW145371   9.183   0.595   0.693  0.3739  1.1393  1.2691
11104SOL    HW245372   9.250   0.742   0.668 -1.5528  1.7617 -0.4177
11105SOL     OW45373   9.678   1.543   5.283 -0.0850 -0.4734 -0.2281
11105SOL    HW145374   9.712   1.517   5.373  0.2126  0.5398 -0.0439
11105SOL    HW245375   9.587   1.583   5.291  0.2644  0.3414 -0.2845
11106SOL     OW45376   8.322   8.779   7.772 -0.3088  0.0407  0.4219
11106SOL    HW145377   8.250   8.718   7.805  0.5448 -1.0585  0.2976
11106SOL    HW245378   8.412   8.738   7.792  0.2568  0.6909 -0.7352
11107SOL     OW45379   8.044   8.104   2.619 -0.0772 -0.3883 -0.2331
11107SOL    HW145380   8.023   8.022   2.566  0.5819 -0.2803 -0.6685
11107SOL    HW245381   8.004   8.096   2.711 -1.3280 -0.5262 -0.7733
11108SOL     OW45382   1.927   4.624   3.790  0.7297 -0.3535 -0.5888
11108SOL    HW145383   1.906   4.659   3.882  0.3779  2.5925 -1.7431
11108SOL    HW245384   2.022   4.645   3.767  0.3969  0.1933 -1.4650
11109SOL     OW45385   2.585   1.644   4.930  0.3105 -0.2382 -0.1387
11109SOL    HW145386   2.682   1.641   4.908 -0.3057 -0.3609 -2.9518
11109SOL    HW245387   2.547   1.732   4.903 -0.8823 -1.1064 -1.3323
11110SOL     OW45388   8.845   0.569   0.820  0.3806  0.0471  0.1885
11110SOL    HW145389   8.891   0.656   0.802 -0.5566  0.7900  1.3562
11110SOL    HW245390   8.748   0.585   0.834  0.6024 -0.8688  2.9754
11111SOL     OW45391   8.353   6.665   9.174  0.0683  0.2904 -0.4944
11111SOL    HW145392   8.355   6.725   9.094  0.1967  0.1155 -0.6224
11111SOL    HW245393   8.360   6.720   9.257  1.5274  0.3508 -0.6550
11112SOL     OW45394   4.605   9.001   9.203 -0.0555 -0.4141 -0.1147
11112SOL    HW145395   4.647   9.064   9.138  0.3524  0.4858  1.0055
11112SOL    HW245396   4.638   9.021   9.295 -1.6612 -0.7915  0.5586
11113SOL     OW45397   7.932   4.497   6.665 -0.1739 -0.7474 -0.1122
11113SOL    HW145398   7.923   4.553   6.583 -0.3910 -0.6289 -0.0061
11113SOL    HW245399   7.916   4.554   6.746 -1.6148 -1.2365 -0.0486
11114SOL     OW45400   3.284   7.704   6.156 -0.1192  1.1185 -0.2394
11114SOL    HW145401   3.238   7.765   6.092  0.2257  1.9760  0.3153
11114SOL    HW245402   3.275   7.740   6.249  1.7319  1.3299 -0.1373
11115SOL     OW45403   1.507   7.874   4.119 -0.1170 -0.0195  0.1914
11115SOL    HW145404   1.599   7.914   4.119  0.4731 -1.3344 -0.1331
11115SOL    HW245405   1.514   7.776   4.097 -1.4054 -0.5605  2.1156
11116SOL     OW45406   2.830   2.278   1.757 -0.7950  0.4409  0.0572
11116SOL    HW145407   2.919   2.291   1.800 -2.0585  2.8930  2.0266
11116SOL    HW245408   2.812   2.353   1.694 -0.3858 -1.4276 -2.3854
11117SOL     OW45409   8.874   4.858   7.161 -0.2765  0.1543 -0.2907
11117SOL    HW145410   8.936   4.926   7.124  0.2470 -0.3584 -0.3659
11117SOL    HW245411   8.784   4.867   7.117 -0.3754  1.1492  0.1016
11118SOL     OW45412   7.808   1.057   0.822 -0.0854 -0.1529 -0.1618
11118SOL    HW145413   7.709   1.058   0.829  0.0207 -0.0781  1.7396
11118SOL    HW245414   7.840   0.962   0.816 -0.3417 -0.1216 -2.4165
11119SOL     OW45415   0.014   4.093   7.684 -0.1193  0.4637 -0.6686
11119SOL    HW145416   0.023   4.034   7.604  2.0772  1.5068 -1.2214
11119SOL    HW245417  -0.042   4.173   7.661  0.1616  0.5530 -1.0340
11120SOL     OW45418   2.377   5.263   3.993  0.2538  0.5436 -0.2918
11120SOL    HW145419   2.313   5.340   3.999  0.2400  0.5141 -0.0615
11120SOL    HW245420   2.425   5.266   3.906 -0.2260  0.4382 -0.5636
11121SOL     OW45421   3.778   4.739   3.237 -0.1982  0.7832  0.0890
11121SOL    HW145422   3.694   4.767   3.283  0.9402  2.1157  1.3754
11121SOL    HW245423   3.773   4.641   3.217 -1.6377  0.6435  1.0399
11122SOL     OW45424   2.910   1.566   9.535 -0.0330 -0.3411  0.0745
11122SOL    HW145425   2.947   1.636   9.473 -0.2363 -3.3084 -3.5741
11122SOL    HW245426   2.981   1.497   9.553 -0.9290 -1.1053  0.7138
11123SOL     OW45427   9.877   8.427   9.775  0.0748 -0.4119  1.1939
11123SOL    HW145428   9.855   8.387   9.863  0.4471 -1.3106  0.8846
11123SOL    HW245429   9.793   8.454   9.728 -0.2577 -1.9354  0.8944
11124SOL     OW45430   2.403   6.938   6.499  0.2778 -0.2601  0.6479
11124SOL    HW145431   2.501   6.938   6.479  0.1502 -0.9519 -0.0137
11124SOL    HW245432   2.366   7.030   6.487  0.6366 -0.2255 -0.2132
11125SOL     OW45433   7.696   2.277   2.734 -0.4625 -0.8952  0.1242
11125SOL    HW145434   7.713   2.182   2.709 -0.3683 -0.5409 -1.1895
11125SOL    HW245435   7.722   2.337   2.659 -0.7781  0.1586  0.8370
11126SOL     OW45436   9.590   1.070   3.932  0.0238  0.3476 -0.1109
11126SOL    HW145437   9.660   1.008   3.897 -0.0067  0.7820 -0.9820
11126SOL    HW245438   9.607   1.162   3.896  0.5021  1.0091  1.7607
11127SOL     OW45439   2.231   6.080   8.938 -0.1228  0.2997 -0.4012
11127SOL    HW145440   2.155   6.064   8.874 -1.1400 -1.0043  1.0883
11127SOL    HW245441   2.215   6.164   8.990 -1.2726 -0.7003  0.8958
11128SOL     OW45442   5.432   0.391   4.144  0.4906 -0.1256 -0.1595
11128SOL    HW145443   5.375   0.457   4.093  0.3122  1.7522  2.3942
11128SOL    HW245444   5.528   0.419   4.138  0.6943 -0.9823 -1.0255
11129SOL     OW45445   0.737   1.334   0.663  0.1021 -0.5618 -0.4124
11129SOL    HW145446   0.819   1.358   0.610  0.6276  0.0273  0.6367
11129SOL    HW245447   0.765   1.298   0.752 -0.7881  0.5284  0.3173
11130SOL     OW45448   4.126   8.020   8.105 -0.3300  0.3420 -0.3444
11130SOL    HW145449   4.129   7.992   8.201 -0.0883  0.9987 -0.1578
11130SOL    HW245450   4.199   8.086   8.087 -1.5711  1.7011 -0.5016
11131SOL     OW45451   4.315   2.459   5.952 -0.1061  0.5059 -0.0494
11131SOL    HW145452   4.301   2.394   5.877 -1.5209  1.3454 -0.5312
11131SOL    HW245453   4.228   2.478   5.997  0.5448  0.9276  1.0443
11132SOL     OW45454   6.339   7.812   6.328 -0.5217  0.3344 -0.0910
11132SOL    HW145455   6.323   7.788   6.423 -1.3092 -0.6252 -0.4614
11132SOL    HW245456   6.380   7.904   6.323  0.4425 -0.0133  1.2041
11133SOL     OW45457   8.811   5.613   3.179  0.3657 -0.4780  0.5567
11133SOL    HW145458   8.889   5.551   3.191  0.6335 -0.2814 -0.1372
11133SOL    HW245459   8.790   5.621   3.082 -1.5990 -1.8392  0.8435
11134SOL     OW45460   0.516   6.750   6.064  0.1014  0.0054  0.5859
11134SOL    HW145461   0.592   6.685   6.072 -0.2609 -0.3495  1.1928
11134SOL    HW245462   0.461   6.747   6.148 -2.5217 -2.1618 -1.1171
11135SOL     OW45463   2.529   6.192   1.865  0.2934 -0.1181 -0.3451
11135SOL    HW145464   2.516   6.108   1.813  2.1747 -0.8888  0.3784
11135SOL    HW245465   2.627   6.207   1.880 -0.1265  1.1373  1.2909
11136SOL     OW45466   1.100   3.449   1.318 -0.1984 -0.2701  0.1628
11136SOL    HW145467   1.148   3.498   1.390  0.6078 -0.9004  0.0628
11136SOL    HW245468   1.007   3.427   1.349 -0.0420 -0.0497  0.7932
11137SOL     OW45469   9.639   4.914   2.284  0.0667  0.2828  1.0531
11137SOL    HW145470   9.539   4.910   2.296  0.0870  1.7478  1.9050
11137SOL    HW245471   9.678   4.971   2.357  1.7929 -2.2886  2.2063
11138SOL     OW45472   8.655   1.059   3.544 -0.3899  0.3773 -0.0178
11138SOL    HW145473   8.595   1.138   3.557 -0.5576  0.6075 -1.9775
11138SOL    HW245474   8.648   1.027   3.449  2.4971  0.3296 -0.2634
11139SOL     OW45475   4.701   0.298   4.530  0.3336  0.0398  0.1173
11139SOL    HW145476   4.800   0.288   4.541  0.2574 -0.6634  0.1935
11139SOL    HW245477   4.655   0.231   4.588 -0.1771 -0.0153 -0.3537
11140SOL     OW45478   9.612   8.739   1.597  0.5304 -0.2792 -0.4236
11140SOL    HW145479   9.620   8.684   1.680 -0.2259 -0.8308 -0.7094
11140SOL    HW245480   9.585   8.833   1.622 -2.0060 -1.0297 -0.1685
11141SOL     OW45481   0.414   5.673   1.473  0.0589  0.2964  0.0631
11141SOL    HW145482   0.331   5.718   1.506  0.8151  0.3666  1.8851
11141SOL    HW245483   0.390   5.588   1.426 -0.9955 -0.0659  1.2436
11142SOL     OW45484   9.840   5.572   0.025 -0.7287 -0.3743  0.3404
11142SOL    HW145485   9.819   5.522   0.109 -1.3411 -1.6193 -0.5387
11142SOL    HW245486   9.919   5.632   0.041  0.3718 -2.0154  1.2795
11143SOL     OW45487   5.501   9.993   3.595  0.4023 -0.6338  0.0028
11143SOL    HW145488   5.438  10.021   3.668 -0.6137  0.8892 -1.4400
11143SOL    HW245489   5.571   9.932   3.633 -1.4692 -1.7048  1.7886
11144SOL     OW45490   6.976   8.364   6.728 -0.0326  0.9218 -0.5293
11144SOL    HW145491   6.944   8.279   6.686  1.5606 -0.1058  0.2775
11144SOL    HW245492   6.909   8.396   6.795  0.6250 -1.2324  1.2099
11145SOL     OW45493   7.941   2.346   3.195 -0.4793  0.1306  0.6683
11145SOL    HW145494   8.023   2.404   3.196  0.1018 -0.6955  2.5663
11145SOL    HW245495   7.885   2.370   3.116  0.6700  1.9954  0.3800
11146SOL     OW45496   8.489   4.947   3.912 -0.1660  0.1945 -0.0220
11146SOL    HW145497   8.547   5.004   3.970  2.1578  0.0765 -2.1212
11146SOL    HW245498   8.481   4.856   3.952  0.8185  0.3258  0.5050
11147SOL     OW45499   0.632   7.108   2.788 -0.4957  0.2181 -0.9450
11147SOL    HW145500   0.672   7.053   2.715  0.4767  0.5436 -0.6691
11147SOL    HW245501   0.701   7.126   2.858 -1.2007  0.5733 -0.3256
11148SOL     OW45502   1.383   7.982   6.890 -0.2910 -0.1718  0.0314
11148SOL    HW145503   1.341   7.905   6.938 -0.5439  0.3883  0.7223
11148SOL    HW245504   1.457   8.019   6.945 -1.1125  0.9926  0.3788
11149SOL     OW45505   3.088   2.253   0.543  0.2420  0.2351  0.5190
11149SOL    HW145506   3.021   2.326   0.527 -0.0618 -0.3570 -1.0419
11149SOL    HW245507   3.099   2.238   0.641  0.6606  2.6897  0.8720
11150SOL     OW45508   3.405   8.066   9.109 -0.2747  0.0705 -0.2903
11150SOL    HW145509   3.405   8.166   9.110 -1.5526  0.0802  0.7437
11150SOL    HW245510   3.465   8.033   9.181  0.9638  0.0812 -1.3120
11151SOL     OW45511   3.682   6.856   4.502  0.0132 -0.1899 -0.1649
11151SOL    HW145512   3.754   6.836   4.435 -1.3330 -0.0288 -1.6976
11151SOL    HW245513   3.684   6.954   4.524 -0.2988 -0.0230 -0.8728
11152SOL     OW45514   1.993   4.062   5.123 -0.2332  0.1634  0.1009
11152SOL    HW145515   2.046   4.123   5.182  0.8305  0.1968 -0.8704
11152SOL    HW245516   2.054   3.998   5.077 -1.0074  0.2834 -1.1476
11153SOL     OW45517   4.651   7.632   2.029 -0.4679  0.5184 -0.6076
11153SOL    HW145518   4.746   7.613   2.003 -0.4806  1.2076 -1.1676
11153SOL    HW245519   4.638   7.731   2.037 -1.0327  0.4070 -0.1284
11154SOL     OW45520   0.113   4.086   1.540 -0.0468 -0.2010  0.2991
11154SOL    HW145521   0.041   4.032   1.497 -0.8168  1.2022 -0.2320
11154SOL    HW245522   0.105   4.081   1.639 -1.1717  0.3157  0.2374
11155SOL     OW45523   6.985   1.185   6.733 -0.2230 -0.0809  0.3530
11155SOL    HW145524   6.894   1.145   6.725 -1.1855  2.1351 -0.1227
11155SOL    HW245525   7.003   1.246   6.655  1.1545  0.4862  1.0788
11156SOL     OW45526   6.792   2.489   3.636  0.2816  0.8254  0.2414
11156SOL    HW145527   6.699   2.516   3.612 -0.1357  0.7877  1.7895
11156SOL    HW245528   6.841   2.461   3.553 -1.3432  0.0127 -0.4656
11157SOL     OW45529   9.033   5.866   3.772 -0.4221  0.6654  0.3369
11157SOL    HW145530   9.002   5.857   3.678 -0.5430 -0.3896  0.4773
11157SOL    HW245531   8.981   5.939   3.817 -1.4932  0.0785  0.0693
11158SOL     OW45532   1.560   2.418   4.089 -0.1359  0.2939  0.1170
11158SOL    HW145533   1.486   2.352   4.087 -0.5730  0.8419 -1.9848
11158SOL    HW245534   1.535   2.494   4.149 -0.3981 -0.5174  1.0506
11159SOL     OW45535   4.509   4.644   1.595  0.0688 -0.1774 -0.0475
11159SOL    HW145536   4.554   4.573   1.540  1.6948 -0.1767  1.2454
11159SOL    HW245537   4.420   4.665   1.555  1.7844  0.8815 -3.5360
11160SOL     OW45538   8.577   5.280   7.740  0.4506 -0.3336 -0.2927
11160SOL    HW145539   8.506   5.328   7.689 -0.1483  0.8056  1.5438
11160SOL    HW245540   8.655   5.262   7.681  0.0462  1.5189 -1.4266
11161SOL     OW45541   9.453   7.497   1.927  0.2325  0.4087  0.3026
11161SOL    HW145542   9.482   7.564   1.859 -1.1778 -1.6460 -2.4272
11161SOL    HW245543   9.446   7.407   1.884 -3.7098 -0.4110  2.3959
11162SOL     OW45544   1.239   2.669   2.373  0.2328 -0.1223  0.1917
11162SOL    HW145545   1.195   2.747   2.329 -1.2447 -0.9708  0.1525
11162SOL    HW245546   1.318   2.701   2.426 -0.9109  1.5065  0.9326
11163SOL     OW45547   4.098   6.767   2.030 -0.0664 -0.4096 -0.8401
11163SOL    HW145548   4.182   6.720   2.057 -0.9456 -1.1404  0.7244
11163SOL    HW245549   4.052   6.802   2.111  0.0672  2.3497 -1.9052
11164SOL     OW45550   9.988   6.255   6.320 -0.0700 -0.0465 -0.0999
11164SOL    HW145551   9.969   6.294   6.410 -0.6659 -0.5336 -0.0125
11164SOL    HW245552   9.999   6.329   6.253  0.2978  0.3135  0.3530
11165SOL     OW45553   7.913   3.787   5.242  0.1451 -0.5291 -0.0859
11165SOL    HW145554   7.955   3.851   5.307  2.2929 -1.1417 -0.8227
11165SOL    HW245555   7.912   3.696   5.283  2.3025 -1.0861 -1.1998
11166SOL     OW45556   0.373   2.752   6.518  0.1271  0.4938 -0.2667
11166SOL    HW145557   0.415   2.724   6.604 -0.6201 -1.0285 -0.3821
11166SOL    HW245558   0.439   2.742   6.443  0.0960 -0.2537 -0.1952
11167SOL     OW45559   5.306   9.578   9.496  0.1259 -0.1918  0.8931
11167SOL    HW145560   5.286   9.593   9.399 -2.6492  0.6424  1.5503
11167SOL    HW245561   5.348   9.489   9.508  1.6613  0.2122 -1.2145
11168SOL     OW45562   1.635   3.419   4.593 -0.4376 -0.2521  0.2519
11168SOL    HW145563   1.669   3.503   4.636 -0.1735  0.8700 -2.0814
11168SOL    HW245564   1.705   3.382   4.532 -1.9754 -0.0046 -1.7088
11169SOL     OW45565   9.286   5.186   3.025  0.1117  0.5019 -0.0566
11169SOL    HW145566   9.258   5.090   3.019 -1.9237  0.9681  1.4124
11169SOL    HW245567   9.369   5.193   3.079  0.1608 -0.4280 -0.0037
11170SOL     OW45568   1.295   7.959   7.241  0.3021 -0.1347 -0.4889
11170SOL    HW145569   1.326   8.051   7.213  0.7186 -0.1099  0.0401
11170SOL    HW245570   1.195   7.959   7.251  0.3800  0.5034  0.3655
11171SOL     OW45571   2.154   4.209   3.131  0.2324  0.2811 -0.0236
11171SOL    HW145572   2.248   4.210   3.164  0.3718  1.9837 -0.4493
11171SOL    HW245573   2.146   4.144   3.055  0.6130 -1.2993  1.2760
11172SOL     OW45574   9.390   7.547   3.131  0.2832 -0.1690  0.1584
11172SOL    HW145575   9.473   7.603   3.127  0.6509 -0.5003  2.5832
11172SOL    HW245576   9.415   7.450   3.136 -0.1854 -0.2309  1.7300
11173SOL     OW45577   5.072   4.138   1.265  0.2011 -0.4381  0.3195
11173SOL    HW145578   5.042   4.060   1.320  1.8091 -0.0136  1.8227
11173SOL    HW245579   5.131   4.106   1.191  0.1718 -0.7309  0.4214
11174SOL     OW45580   2.041   4.007   2.236  0.1595 -0.3134 -0.0415
11174SOL    HW145581   2.011   4.048   2.323 -0.0735 -0.1148 -0.2155
11174SOL    HW245582   2.075   3.914   2.254  1.8243  0.3860  0.5336
11175SOL     OW45583   3.803   1.323   6.573  0.3974  0.1928  0.7646
11175SOL    HW145584   3.812   1.272   6.488  3.1373  0.7254  0.6947
11175SOL    HW245585   3.827   1.264   6.650  0.1521  0.3795  0.9862
11176SOL     OW45586   5.667   6.161   9.709  0.0366  0.0769 -0.4368
11176SOL    HW145587   5.678   6.258   9.689 -0.7241 -0.2694 -2.7172
11176SOL    HW245588   5.756   6.118   9.723  0.4108  0.9551 -0.1342
11177SOL     OW45589   1.822   7.776   8.939 -0.1068  0.1265 -0.6831
11177SOL    HW145590   1.736   7.754   8.986 -0.8749  1.5587 -1.4018
11177SOL    HW245591   1.889   7.705   8.959 -1.1131 -0.4422  0.7804
11178SOL     OW45592   2.955   7.875   8.359  0.4415  0.3177  0.4979
11178SOL    HW145593   2.895   7.842   8.433 -0.9957  1.6891 -0.0116
11178SOL    HW245594   2.938   7.822   8.276  0.7949 -0.0721  0.6726
11179SOL     OW45595   3.566   6.986   2.060  0.1802 -0.0833  0.6546
11179SOL    HW145596   3.548   7.013   2.155  3.2688  2.6033  0.5762
11179SOL    HW245597   3.625   6.906   2.059 -2.6916 -2.2616  0.9347
11180SOL     OW45598   2.495   7.080   3.243 -0.4016  0.3452 -0.1673
11180SOL    HW145599   2.427   7.144   3.206 -1.0527  0.9996  2.0712
11180SOL    HW245600   2.579   7.129   3.264  0.0860 -0.0900 -1.0678
11181SOL     OW45601   4.355   0.631   0.460  0.2859 -0.1186  0.4065
11181SOL    HW145602   4.340   0.535   0.485 -3.4375  0.1146 -0.6128
11181SOL    HW245603   4.300   0.689   0.520  0.5083  1.1870 -0.6382
11182SOL     OW45604   2.643   6.206   9.314  0.4369 -0.2586 -0.7831
11182SOL    HW145605   2.576   6.223   9.242  0.0475  0.7766 -0.1818
11182SOL    HW245606   2.727   6.170   9.274  0.0514 -0.1437 -1.6979
11183SOL     OW45607   3.537   3.146   6.681 -0.1796  0.3843 -0.0882
11183SOL    HW145608   3.608   3.078   6.698  0.5065  0.6587 -1.7604
11183SOL    HW245609   3.453   3.100   6.652 -0.9520  0.0086  2.5815
11184SOL     OW45610   9.870   3.803   5.245  0.5985 -0.3724 -0.1359
11184SOL    HW145611   9.900   3.829   5.153 -0.2632 -0.0143 -0.3248
11184SOL    HW245612   9.816   3.878   5.284  0.8522 -0.5766  0.6165
11185SOL     OW45613   9.890   8.267   4.193 -0.1306 -0.1604 -0.1639
11185SOL    HW145614   9.895   8.173   4.157 -0.0343 -0.5283  0.7809
11185SOL    HW245615   9.955   8.277   4.268 -0.2881  0.6079 -0.1299
11186SOL     OW45616   2.737   8.585   3.011  0.3619 -0.7814 -0.9139
11186SOL    HW145617   2.665   8.650   2.986  1.0425  0.6458  0.7086
11186SOL    HW245618   2.780   8.549   2.929  0.7931  1.7896 -1.8576
11187SOL     OW45619   7.471   0.625   2.318 -0.7452  0.0425 -0.0623
11187SOL    HW145620   7.378   0.642   2.287 -0.3326  0.9762 -0.8210
11187SOL    HW245621   7.513   0.712   2.345  0.2311 -0.2379 -0.6486
11188SOL     OW45622   3.785   3.976   4.108  0.1661  0.3225  0.4670
11188SOL    HW145623   3.768   4.072   4.128  0.2373  0.3089  0.5981
11188SOL    HW245624   3.734   3.919   4.173  0.1525  0.2736  0.4140
11189SOL     OW45625   1.175   3.699   9.205  0.4119 -0.2772 -0.6550
11189SOL    HW145626   1.223   3.614   9.223  0.1399 -0.3616 -0.3275
11189SOL    HW245627   1.174   3.756   9.287  1.2412  0.3726 -1.0757
11190SOL     OW45628   2.643   4.986   3.404  0.1756  0.3214 -0.6233
11190SOL    HW145629   2.644   5.036   3.490  0.7459  1.2700 -1.1693
11190SOL    HW245630   2.552   4.992   3.363  0.2315  0.9191 -0.6738
11191SOL     OW45631   1.254   1.553   2.170 -0.3297 -0.1404  0.2011
11191SOL    HW145632   1.288   1.619   2.103 -0.2765  0.6253  0.9713
11191SOL    HW245633   1.206   1.602   2.243 -1.6043 -1.0738  0.0094
11192SOL     OW45634   4.761   1.802   0.280 -0.5308 -0.5556 -0.1679
11192SOL    HW145635   4.735   1.899   0.276  0.1740 -0.2527  1.8167
11192SOL    HW245636   4.849   1.790   0.233 -0.3899 -0.1484 -0.0143
11193SOL     OW45637   3.838   9.008   6.106  0.1855  0.1009  0.2516
11193SOL    HW145638   3.739   9.007   6.118  0.3403 -0.8605  1.5769
11193SOL    HW245639   3.874   9.098   6.129 -0.1789 -0.0951  1.6612
11194SOL     OW45640   2.873   9.622   1.431  0.0186  0.5786  0.4659
11194SOL    HW145641   2.818   9.609   1.348  0.1372 -0.0690  0.4888
11194SOL    HW245642   2.949   9.557   1.431  1.5685  2.3360 -0.2149
11195SOL     OW45643   9.082   4.827   7.352  0.0864  0.4978  0.4803
11195SOL    HW145644   9.161   4.838   7.293  0.2493  0.2241  0.6458
11195SOL    HW245645   8.999   4.819   7.296  0.2206  0.4041  0.2965
11196SOL     OW45646   0.858   0.177   1.959  0.4689  0.0007 -0.2553
11196SOL    HW145647   0.922   0.129   2.019 -0.6052  0.7016  1.5189
11196SOL    HW245648   0.819   0.114   1.893  0.7156 -1.0851  0.6279
11197SOL     OW45649   4.013   0.506   2.619  0.2068  0.1933 -0.3350
11197SOL    HW145650   4.082   0.559   2.669 -0.9964 -0.4446  2.0569
11197SOL    HW245651   4.048   0.414   2.602 -0.8008 -0.8189  2.7614
11198SOL     OW45652   9.313   4.530   9.574  0.5207 -0.3463 -0.4111
11198SOL    HW145653   9.364   4.598   9.521 -1.0493  0.6044 -0.7434
11198SOL    HW245654   9.276   4.461   9.512 -2.4707  1.5043 -0.8395
11199SOL     OW45655   1.658   9.856   5.104 -0.2039 -0.4165  0.2498
11199SOL    HW145656   1.642   9.797   5.025 -1.4613  0.0099  0.1646
11199SOL    HW245657   1.651   9.952   5.076 -0.4928 -0.2604  0.8356
11200SOL     OW45658   8.537   0.090   9.125  0.6956 -0.1690 -0.1668
11200SOL    HW145659   8.615   0.066   9.068  1.5301  0.3588  0.7507
11200SOL    HW245660   8.453   0.080   9.071  1.0940 -3.8574 -0.2383
11201SOL     OW45661   4.041   1.446   1.750 -0.2825  0.2608  0.3304
11201SOL    HW145662   4.114   1.419   1.688 -2.0805 -1.3403 -1.1442
11201SOL    HW245663   4.003   1.365   1.794 -1.3140  1.0511  0.9210
11202SOL     OW45664   6.876   0.771   3.057  0.7443 -0.6235  0.1517
11202SOL    HW145665   6.834   0.697   3.005 -0.3201  0.1428 -0.0874
11202SOL    HW245666   6.970   0.745   3.082  0.6482 -1.7234 -0.6025
11203SOL     OW45667   2.500   0.572   7.394 -0.0334  0.1345  0.2076
11203SOL    HW145668   2.541   0.644   7.338 -1.5066  1.4609  0.7860
11203SOL    HW245669   2.553   0.559   7.477  1.2980 -0.7783 -0.7675
11204SOL     OW45670   0.072   0.640   7.724  0.1384  0.6161 -0.7800
11204SOL    HW145671   0.011   0.704   7.770  2.0195  1.0250  1.2127
11204SOL    HW245672   0.045   0.631   7.628 -2.1598  1.8589 -0.2669
11205SOL     OW45673   3.165   5.488   1.140  0.1541  0.3135 -0.0324
11205SOL    HW145674   3.124   5.579   1.151 -2.2424 -0.5015 -1.8122
11205SOL    HW245675   3.178   5.468   1.043  1.4532 -0.9179  0.3739
11206SOL     OW45676   3.083   4.359   5.150 -0.4824  0.3288  0.1220
11206SOL    HW145677   3.121   4.451   5.143  0.2301 -0.0957 -1.7937
11206SOL    HW245678   3.149   4.298   5.193 -0.7573  0.5985  0.9270
11207SOL     OW45679   0.781   4.544   5.750 -0.1304 -0.0008  0.0199
11207SOL    HW145680   0.752   4.472   5.813  2.0917 -0.4097  0.6307
11207SOL    HW245681   0.729   4.537   5.665 -1.0657 -1.3106  0.6778
11208SOL     OW45682   6.989   9.969   4.554 -0.4701  0.2936 -0.6735
11208SOL    HW145683   6.957   9.892   4.610 -1.3266  1.0935 -0.0437
11208SOL    HW245684   7.085   9.955   4.530 -0.7849 -1.2875 -1.1028
11209SOL     OW45685   3.089   4.546   2.360  0.0923  0.1889 -0.2519
11209SOL    HW145686   3.099   4.640   2.327 -1.3513 -0.2334 -1.9578
11209SOL    HW245687   3.012   4.542   2.425 -0.1340  0.1060 -0.5242
11210SOL     OW45688   8.801   4.457   4.075 -0.2787 -0.2107  0.5579
11210SOL    HW145689   8.733   4.389   4.102 -0.4784 -0.6098 -0.9213
11210SOL    HW245690   8.786   4.483   3.980  0.8078  0.7008  0.6308
11211SOL     OW45691   8.755   3.847   6.667 -0.0923 -0.3248  0.9951
11211SOL    HW145692   8.795   3.916   6.607 -1.4434  0.2802  0.7696
11211SOL    HW245693   8.758   3.879   6.762 -0.3739 -0.1179  0.9346
11212SOL     OW45694   9.914   7.479   8.259 -0.1586 -0.4079 -0.7844
11212SOL    HW145695   9.861   7.524   8.332  0.0596  1.1366 -1.5557
11212SOL    HW245696   9.856   7.462   8.180 -0.0386 -0.7575 -0.8002
11213SOL     OW45697   6.058   7.786   4.356  0.3165  0.5175  0.7147
11213SOL    HW145698   5.959   7.792   4.343  0.0730 -0.4386  2.0146
11213SOL    HW245699   6.101   7.869   4.320 -1.0066  1.2177  0.6998
11214SOL     OW45700   2.062   0.859   9.118  0.0583 -0.2600  0.3595
11214SOL    HW145701   2.045   0.893   9.211 -0.5760  0.3796  0.0132
11214SOL    HW245702   1.997   0.786   9.097  0.4724 -0.6897  0.5689
11215SOL     OW45703   1.868   7.671   2.140  0.2725  0.1396  0.3633
11215SOL    HW145704   1.921   7.754   2.119 -0.5744  0.4232 -0.7617
11215SOL    HW245705   1.810   7.688   2.219  1.8907 -0.1963  1.6451
11216SOL     OW45706   5.260   2.380   8.210  0.5687  0.1718  0.1364
11216SOL    HW145707   5.275   2.341   8.119  1.0958 -0.2129  0.3871
11216SOL    HW245708   5.164   2.407   8.219  0.2188 -0.9868 -0.0642
11217SOL     OW45709   9.988   7.121   6.957  0.2343  0.0009 -0.2279
11217SOL    HW145710   9.916   7.059   6.988 -1.2701  0.8860 -1.8377
11217SOL    HW245711  10.020   7.176   7.033  0.9835 -2.1472  1.0375
11218SOL     OW45712   1.593   5.972   4.112 -0.2173  0.5281 -0.1185
11218SOL    HW145713   1.653   5.893   4.123 -0.4716  0.5822  1.9494
11218SOL    HW245714   1.649   6.053   4.093  0.2128  0.2086 -0.2332
11219SOL     OW45715   6.217   4.524   8.448  0.0673  0.6321  0.4897
11219SOL    HW145716   6.134   4.518   8.393  0.0702  1.6257  0.3769
11219SOL    HW245717   6.193   4.517   8.545  0.2531 -3.2765  0.3555
11220SOL     OW45718   3.236   8.322   6.599 -0.1592 -0.1561  0.2657
11220SOL    HW145719   3.300   8.248   6.577  2.9344  2.1781  1.0564
11220SOL    HW245720   3.185   8.297   6.682  1.9596 -0.8051  1.4313
11221SOL     OW45721   7.705   6.717   5.781 -0.5971 -0.5247 -0.2496
11221SOL    HW145722   7.666   6.809   5.782 -0.0267 -0.2772  0.8147
11221SOL    HW245723   7.632   6.650   5.790 -1.0032 -0.1728 -0.8609
11222SOL     OW45724   8.266   6.286   7.345 -0.6034 -0.0746 -0.1716
11222SOL    HW145725   8.320   6.281   7.430 -1.4084  0.3701  0.3768
11222SOL    HW245726   8.231   6.196   7.323 -0.7075 -0.1209  0.1779
11223SOL     OW45727   0.152   0.624   9.222 -0.2522 -0.0613  0.1599
11223SOL    HW145728   0.077   0.690   9.211  1.3867  1.7501 -0.5158
11223SOL    HW245729   0.221   0.640   9.151  1.7808 -0.2746  2.0379
11224SOL     OW45730   9.518   0.503   4.212  0.4397 -0.0907 -0.3349
11224SOL    HW145731   9.587   0.502   4.140  0.1316 -0.0742 -0.6344
11224SOL    HW245732   9.429   0.528   4.173  0.2701 -0.0761  0.0525
11225SOL     OW45733   1.958   2.621   3.140  0.2037 -0.2457 -0.4187
11225SOL    HW145734   1.935   2.716   3.119  2.1315  0.7027  1.5506
11225SOL    HW245735   1.979   2.613   3.237  1.5512 -2.3998 -0.8670
11226SOL     OW45736   1.057   8.558   2.836 -0.4644 -0.3854 -0.1452
11226SOL    HW145737   1.105   8.624   2.894  0.5414  0.4912 -1.9095
11226SOL    HW245738   1.115   8.478   2.822 -1.2853 -1.2356  1.1877
11227SOL     OW45739   5.826   1.148   3.407 -0.6001 -0.5239 -0.3224
11227SOL    HW145740   5.808   1.052   3.430 -3.5700  0.1754  0.4031
11227SOL    HW245741   5.740   1.195   3.390  0.8485  1.9876 -0.9437
11228SOL     OW45742   6.945   4.566   8.026 -0.4197 -0.1872 -0.0039
11228SOL    HW145743   6.975   4.472   8.009  3.0121  1.1489 -1.9123
11228SOL    HW245744   7.023   4.621   8.057 -1.9723  2.3887 -0.5039
11229SOL     OW45745   6.381   9.460   3.589  0.2557  0.7607 -0.5070
11229SOL    HW145746   6.343   9.464   3.682  0.4309 -1.9679 -0.2607
11229SOL    HW245747   6.480   9.465   3.594  0.2013  2.0197 -0.6668
11230SOL     OW45748   3.103   9.385   5.036 -0.0581  0.5832  0.6117
11230SOL    HW145749   3.115   9.289   5.059 -1.3226  0.4277  0.6560
11230SOL    HW245750   3.008   9.412   5.054 -0.4018  1.1571 -1.8215
11231SOL     OW45751   4.495   5.950   2.624  0.6773 -0.2560 -0.4026
11231SOL    HW145752   4.483   5.986   2.531 -0.0202 -1.7175 -0.9012
11231SOL    HW245753   4.412   5.965   2.677 -0.0363 -2.0502 -0.9564
11232SOL     OW45754   3.335   6.631   2.857 -1.1151 -0.0954  0.6565
11232SOL    HW145755   3.242   6.627   2.820 -0.7648  1.0546 -0.3878
11232SOL    HW245756   3.366   6.726   2.857  0.4119 -0.5837  0.1359
11233SOL     OW45757   0.119   9.250   1.411 -0.0040  0.0288  0.4430
11233SOL    HW145758   0.095   9.200   1.328  0.8546  0.4973 -0.0881
11233SOL    HW245759   0.210   9.222   1.442  0.3204  0.9854  0.3553
11234SOL     OW45760   4.990   1.430   1.032 -0.2623 -0.1916  0.3479
11234SOL    HW145761   5.050   1.439   1.112  1.8409  2.4529 -1.4402
11234SOL    HW245762   4.914   1.494   1.041 -0.4815 -0.4898  0.6197
11235SOL     OW45763   1.219   1.455   9.528 -0.3931 -0.1061 -0.0303
11235SOL    HW145764   1.234   1.418   9.436 -0.4205  1.5439 -0.7238
11235SOL    HW245765   1.296   1.433   9.587  0.2515 -0.0190 -0.8385
11236SOL     OW45766   2.828   9.330   7.630 -0.1660  0.0394 -0.3794
11236SOL    HW145767   2.862   9.381   7.551  2.0044 -1.2531 -0.3136
11236SOL    HW245768   2.817   9.234   7.605 -0.4653 -0.1945  0.6238
11237SOL     OW45769   9.732   4.206   1.419 -0.5874 -0.3250 -0.0857
11237SOL    HW145770   9.666   4.277   1.398  0.6401  0.7971 -0.1921
11237SOL    HW245771   9.783   4.182   1.337 -0.0623 -0.3543  0.2447
11238SOL     OW45772   1.148   5.518   4.973 -0.1650  0.5823 -0.1850
11238SOL    HW145773   1.221   5.457   4.943  0.1461  0.8093  0.1127
11238SOL    HW245774   1.187   5.602   5.009 -0.4890 -0.1513  1.9305
11239SOL     OW45775   2.172   0.099   7.823  0.5061 -0.6201  0.1095
11239SOL    HW145776   2.187   0.176   7.762 -0.2767  0.0021  0.6929
11239SOL    HW245777   2.246   0.097   7.892  0.9728 -0.8781 -0.3962
11240SOL     OW45778   7.993   2.241   9.663  0.2930 -0.2437  0.3061
11240SOL    HW145779   8.032   2.154   9.633 -1.1327  0.0948 -2.6769
11240SOL    HW245780   7.908   2.259   9.614 -1.7422  0.8291  3.9823
11241SOL     OW45781   6.614   0.657   9.775  0.1656  0.6121  0.3900
11241SOL    HW145782   6.648   0.567   9.746 -1.9801  0.3079 -1.2570
11241SOL    HW245783   6.651   0.727   9.714  1.3547  0.8138  1.3128
11242SOL     OW45784   5.508   6.230   2.639  0.0940 -0.4001  0.0311
11242SOL    HW145785   5.550   6.224   2.548  0.9319 -0.4168  0.4154
11242SOL    HW245786   5.559   6.296   2.694 -0.5536 -0.2227  0.4203
11243SOL     OW45787   3.242   8.635   3.773 -0.3773 -0.0710  0.0693
11243SOL    HW145788   3.223   8.679   3.685  0.0526  1.5811  0.7836
11243SOL    HW245789   3.329   8.586   3.767  0.1838  0.9276 -0.1134
11244SOL     OW45790   6.283   1.316   1.970 -0.2789 -0.4760 -0.0962
11244SOL    HW145791   6.274   1.408   1.932  0.5021 -0.6223 -0.6476
11244SOL    HW245792   6.252   1.248   1.903 -3.2830 -0.5124  1.2247
11245SOL     OW45793   0.960   8.202   6.145 -0.0729  0.2325 -0.7241
11245SOL    HW145794   0.873   8.207   6.193  0.8959 -2.4227  1.4742
11245SOL    HW245795   0.953   8.138   6.069  0.1787 -0.7519  0.0620
11246SOL     OW45796   8.169   3.346   3.035  0.1163 -0.0530  0.0588
11246SOL    HW145797   8.191   3.421   3.096  0.3930 -2.1138  2.5889
11246SOL    HW245798   8.083   3.365   2.987  1.3768  2.8651 -1.1395
11247SOL     OW45799   2.875   4.149   9.086  0.0743 -0.3102 -0.4372
11247SOL    HW145800   2.909   4.139   9.180 -1.5283 -0.8596  0.1000
11247SOL    HW245801   2.875   4.245   9.061 -0.2929 -0.0750  0.4410
11248SOL     OW45802   7.889   6.719   8.203  0.1410  0.3974  0.2582
11248SOL    HW145803   7.939   6.651   8.257  0.7263  1.1028  0.5963
11248SOL    HW245804   7.936   6.807   8.207 -0.7526  0.8913  0.0092
11249SOL     OW45805   0.044   9.561   0.106 -0.0621  0.2324 -0.1019
11249SOL    HW145806   0.121   9.574   0.044  0.2399 -1.0749  0.0011
11249SOL    HW245807   0.008   9.651   0.133  1.4365  0.8445 -0.1086
11250SOL     OW45808   7.354   9.449   4.696  0.4853  0.2152 -0.2843
11250SOL    HW145809   7.367   9.399   4.782  0.8072 -0.5544 -0.7792
11250SOL    HW245810   7.325   9.542   4.716  1.9057  0.4575  0.7088
11251SOL     OW45811   9.964   6.529   1.349  0.4005 -0.0951 -0.1297
11251SOL    HW145812  10.040   6.572   1.397 -0.6800  0.1615  1.4170
11251SOL    HW245813   9.879   6.576   1.373 -0.0312  0.9062 -3.4088
11252SOL     OW45814   2.478   9.219   6.890 -0.9785  0.9847 -0.6905
11252SOL    HW145815   2.448   9.187   6.980  1.3964 -2.9762 -1.1802
11252SOL    HW245816   2.539   9.297   6.900 -0.4119  0.3210  1.1469
11253SOL     OW45817   8.140   1.938   0.817  0.5502 -0.4880 -0.2516
11253SOL    HW145818   8.075   1.874   0.777  1.0889  0.3788 -2.5885
11253SOL    HW245819   8.203   1.888   0.876 -1.5569 -1.4820  1.2105
11254SOL     OW45820   8.854   6.026   3.878  0.5815 -0.1673 -0.4397
11254SOL    HW145821   8.757   6.038   3.859  1.0423  1.0801 -2.1133
11254SOL    HW245822   8.893   6.112   3.909  1.3742 -0.3873 -0.8013
11255SOL     OW45823   6.604   3.149   1.206 -0.3818 -0.1687  0.5062
11255SOL    HW145824   6.530   3.101   1.252 -0.1522  0.7195  1.8170
11255SOL    HW245825   6.580   3.245   1.194  0.4445  0.0679  0.6902
11256SOL     OW45826   1.477   5.661   6.339 -0.3449  0.0704 -0.1916
11256SOL    HW145827   1.543   5.686   6.268  0.6688 -1.0869  0.3349
11256SOL    HW245828   1.389   5.639   6.297 -0.7926  2.8504 -0.8001
11257SOL     OW45829   7.491   4.178   2.628  0.4262  0.1490  0.2198
11257SOL    HW145830   7.514   4.081   2.620  0.9685  0.2571  0.4442
11257SOL    HW245831   7.407   4.197   2.576  0.6992 -0.2967 -0.3865
11258SOL     OW45832   7.884   3.717  10.023 -0.0625  0.5495 -0.4016
11258SOL    HW145833   7.927   3.800  10.060  0.8577  0.5598 -1.4679
11258SOL    HW245834   7.881   3.723   9.924 -1.0731 -0.1871 -0.4253
11259SOL     OW45835   1.518   1.143   1.020 -0.1766 -0.1413  0.1247
11259SOL    HW145836   1.579   1.160   1.096  1.2713 -0.0632 -1.0383
11259SOL    HW245837   1.511   1.225   0.963 -0.3240 -0.5761 -0.4872
11260SOL     OW45838   6.561   1.534   9.260 -0.4485 -0.1455 -0.2679
11260SOL    HW145839   6.657   1.547   9.234 -0.0630  1.5268  1.8177
11260SOL    HW245840   6.555   1.461   9.328 -0.4559  0.6169  0.5693
11261SOL     OW45841   8.367   8.053   8.915  0.4522 -1.1739 -0.1115
11261SOL    HW145842   8.303   8.069   8.990 -0.4945 -1.0211 -0.9509
11261SOL    HW245843   8.460   8.072   8.947 -0.1575  1.2216  0.3658
11262SOL     OW45844   5.426   0.023   6.411 -0.0966 -0.4246 -0.4044
11262SOL    HW145845   5.451  -0.073   6.398 -0.2375 -0.6070  0.6194
11262SOL    HW245846   5.429   0.045   6.508 -0.6921  0.4376 -0.5783
11263SOL     OW45847   4.021   5.115   7.445 -0.0516  0.0465  0.1217
11263SOL    HW145848   4.014   5.016   7.439  0.4893 -0.0068  0.3017
11263SOL    HW245849   3.931   5.155   7.460 -0.7089 -0.2136 -2.8418
11264SOL     OW45850   8.047   6.590   7.041  0.0868  0.3376 -0.2297
11264SOL    HW145851   8.048   6.520   6.970 -1.2784  0.0429  0.0134
11264SOL    HW245852   8.107   6.665   7.015  1.2598 -0.7461 -0.6724
11265SOL     OW45853   1.264   0.095   3.469  0.3654 -0.2475  0.4187
11265SOL    HW145854   1.242   0.019   3.529  0.3805 -0.8128 -0.2925
11265SOL    HW245855   1.340   0.069   3.409 -1.3939 -0.6267 -1.6894
11266SOL     OW45856   3.026   3.416   7.365  0.3242  0.1298 -0.2938
11266SOL    HW145857   3.067   3.329   7.338 -0.2847  0.0237 -0.8612
11266SOL    HW245858   3.060   3.489   7.307  0.0267  0.1057 -0.4993
11267SOL     OW45859   9.448   8.168   6.217  0.4480  0.1490 -0.0795
11267SOL    HW145860   9.401   8.119   6.144 -0.2883 -0.4188  0.7645
11267SOL    HW245861   9.401   8.255   6.234 -0.0811 -0.2426  0.4969
11268SOL     OW45862   1.053   7.838   3.430 -0.5331  0.6113 -0.1411
11268SOL    HW145863   1.152   7.842   3.445 -0.6563  0.6771  0.6449
11268SOL    HW245864   1.005   7.869   3.512 -1.2081  0.4918 -0.4883
11269SOL     OW45865   0.342   6.292   0.734  0.4757  0.1000 -0.6819
11269SOL    HW145866   0.324   6.249   0.646 -0.3085 -0.4863 -0.2431
11269SOL    HW245867   0.270   6.267   0.799  0.7808  0.9248 -0.0141
11270SOL     OW45868   9.598   9.528   6.308  0.8512 -0.9188  1.0667
11270SOL    HW145869   9.623   9.609   6.360  2.6426  0.1408 -1.3303
11270SOL    HW245870   9.499   9.527   6.293  1.0483  2.0142 -0.6976
11271SOL     OW45871   0.534   7.299   3.663 -0.4188  0.0764 -0.2117
11271SOL    HW145872   0.517   7.319   3.759  0.7001 -1.1269  0.2443
11271SOL    HW245873   0.451   7.261   3.621 -1.7776  3.1367 -0.4465
11272SOL     OW45874   9.280   7.680   9.298  0.1286 -0.5401 -0.0970
11272SOL    HW145875   9.209   7.629   9.345  1.6917 -1.6301  1.1413
11272SOL    HW245876   9.344   7.616   9.255  0.3959  0.4206 -1.1505
11273SOL     OW45877   7.350   5.664   9.849 -0.1078 -0.1220  0.1689
11273SOL    HW145878   7.262   5.646   9.895  0.0337 -0.0214  0.4835
11273SOL    HW245879   7.406   5.581   9.851  0.4491  0.2656  1.4062
11274SOL     OW45880   6.130   7.613   6.673  0.2269  0.0624  0.4834
11274SOL    HW145881   6.051   7.610   6.735  0.9010 -2.4887  1.2940
11274SOL    HW245882   6.135   7.527   6.622  0.9650  1.2626 -1.5262
11275SOL     OW45883   7.302   1.748   4.153 -0.3700 -0.3422  0.3034
11275SOL    HW145884   7.366   1.768   4.228 -1.4394 -0.7415  1.3452
11275SOL    HW245885   7.311   1.652   4.128  1.5984  0.3231 -1.6484
11276SOL     OW45886   7.691   8.446   7.615 -0.0257  0.0291  0.4447
11276SOL    HW145887   7.735   8.389   7.684  1.3221 -0.2339 -0.6141
11276SOL    HW245888   7.760   8.501   7.568 -1.2581  2.2315  1.1478
11277SOL     OW45889   7.750   9.500   4.840 -0.8858 -0.0947  0.3780
11277SOL    HW145890   7.726   9.443   4.761  1.9478 -0.3556 -0.3344
11277SOL    HW245891   7.741   9.597   4.815 -2.1592 -0.1857  0.4510
11278SOL     OW45892   4.522   8.785   3.130 -0.0009 -0.1136  0.3609
11278SOL    HW145893   4.451   8.856   3.130 -1.0937 -1.1936 -0.5667
11278SOL    HW245894   4.592   8.808   3.063 -1.0569 -0.5853 -0.9313
11279SOL     OW45895   2.560   1.425   4.442  0.0323 -0.4341 -0.6712
11279SOL    HW145896   2.592   1.514   4.410  0.9694 -0.7673 -0.6660
11279SOL    HW245897   2.493   1.439   4.516  0.8106  0.2499 -0.0878
11280SOL     OW45898   6.905   1.659   8.326 -0.0765 -0.3534  0.1943
11280SOL    HW145899   6.960   1.598   8.269  1.1537  1.9008 -1.0886
11280SOL    HW245900   6.829   1.695   8.272 -0.4628 -0.2871  0.7753
11281SOL     OW45901   9.564   8.722   9.095  0.1957 -0.0784 -0.1071
11281SOL    HW145902   9.604   8.643   9.141  1.9256 -0.0543 -1.5255
11281SOL    HW245903   9.465   8.710   9.088  0.3614 -1.8148  0.2644
11282SOL     OW45904   1.325   7.903   3.909  0.0704  0.3494  0.3309
11282SOL    HW145905   1.389   7.923   3.984  0.0361  2.5960 -0.1874
11282SOL    HW245906   1.232   7.927   3.938  0.2430  2.6391 -0.8972
11283SOL     OW45907   5.148   2.821   0.206 -0.0134 -0.3446  0.1354
11283SOL    HW145908   5.191   2.803   0.117  0.0273 -0.7606  0.2397
11283SOL    HW245909   5.161   2.743   0.266 -0.7812 -0.4129  0.2234
11284SOL     OW45910   1.730   3.136   3.544  0.0631 -0.4643 -0.1033
11284SOL    HW145911   1.700   3.042   3.558 -0.6703 -0.4120 -1.1979
11284SOL    HW245912   1.659   3.199   3.575 -0.1611 -0.3100 -0.8992
11285SOL     OW45913   4.984   0.507   3.817 -0.0946  0.2357  0.0635
11285SOL    HW145914   4.944   0.585   3.770 -0.4311 -0.9837 -1.7205
11285SOL    HW245915   4.999   0.432   3.752 -1.2393 -1.7624  2.0140
11286SOL     OW45916   9.890   7.011   2.583  0.4678 -0.3248  0.2605
11286SOL    HW145917   9.950   7.050   2.653 -1.0175  1.2255  0.7132
11286SOL    HW245918   9.888   7.071   2.503  1.2199 -1.4854 -0.6455
11287SOL     OW45919   2.664   6.779   0.855 -0.6296  0.1109 -0.1466
11287SOL    HW145920   2.743   6.723   0.881 -1.3799 -0.5404  0.7499
11287SOL    HW245921   2.584   6.721   0.844 -1.6465  1.1067  1.7528
11288SOL     OW45922   3.482   1.226   2.152  0.2430  0.1599  1.2102
11288SOL    HW145923   3.546   1.205   2.226 -0.5965 -0.8158  1.6720
11288SOL    HW245924   3.478   1.149   2.089  1.1283  1.0746 -0.0029
11289SOL     OW45925   5.360   0.625   3.985  0.0056  0.1992  0.1883
11289SOL    HW145926   5.337   0.705   4.040 -0.1592 -0.3127  0.8722
11289SOL    HW245927   5.329   0.639   3.891  0.1135  0.9984  0.2702
11290SOL     OW45928   1.993   8.195   9.706 -0.0224 -0.2270  0.0122
11290SOL    HW145929   1.959   8.109   9.669  1.9709 -0.6173 -0.9333
11290SOL    HW245930   2.082   8.180   9.750  0.4481  1.3819 -0.3576
11291SOL     OW45931   7.489   6.898   1.390  0.3198  0.2670 -1.0027
11291SOL    HW145932   7.528   6.806   1.378  0.3074  0.1365 -0.0332
11291SOL    HW245933   7.416   6.911   1.323 -0.6208 -0.9559 -0.2432
11292SOL     OW45934   5.249   9.504   3.046  0.6008 -0.1392 -0.5954
11292SOL    HW145935   5.242   9.596   3.007  1.2347  0.2151  0.1095
11292SOL    HW245936   5.291   9.442   2.980  0.3826  0.1233 -0.9851
11293SOL     OW45937   1.009   6.995   1.385  0.2650  0.4533 -0.1466
11293SOL    HW145938   0.955   7.041   1.315  0.0566  2.3540  1.2043
11293SOL    HW245939   0.948   6.943   1.446  0.4698 -1.4024 -1.4801
11294SOL     OW45940   8.663   8.293   1.735  0.4523 -0.6588  0.5382
11294SOL    HW145941   8.706   8.323   1.649 -0.4070 -1.2334 -0.1007
11294SOL    HW245942   8.726   8.310   1.811  0.7481  0.9709 -0.0397
11295SOL     OW45943   9.276   5.563   4.405  0.5179 -0.2927  0.0975
11295SOL    HW145944   9.352   5.500   4.423 -0.3792 -1.4071  0.0643
11295SOL    HW245945   9.219   5.526   4.332  0.1392  0.7036 -0.1079
11296SOL     OW45946   1.456   9.736   9.995 -0.0171 -0.7470  0.1007
11296SOL    HW145947   1.403   9.720   9.912 -0.1600 -2.2476  0.4627
11296SOL    HW245948   1.399   9.714  10.075 -0.1852  1.5064  0.6623
11297SOL     OW45949   6.621   8.402   3.118  0.0167  0.3200  0.6744
11297SOL    HW145950   6.649   8.420   3.024 -0.2713 -3.4479 -0.2282
11297SOL    HW245951   6.521   8.389   3.121  0.2321 -1.3668  1.1389
11298SOL     OW45952   3.826   6.700   0.172  0.2691 -0.0116  0.3271
11298SOL    HW145953   3.786   6.750   0.249 -0.4015 -1.6059  1.0311
11298SOL    HW245954   3.822   6.757   0.089 -1.0274  0.8657  0.9859
11299SOL     OW45955   0.261   2.718   3.958 -0.2385  0.3790 -0.3009
11299SOL    HW145956   0.212   2.781   4.017  1.0292  1.7117 -0.6286
11299SOL    HW245957   0.328   2.769   3.903  2.4694 -1.5218  1.1059
11300SOL     OW45958   2.390   2.011   9.582 -0.0592 -0.0689 -0.6461
11300SOL    HW145959   2.293   2.035   9.576 -0.1164 -0.1453 -0.0762
11300SOL    HW245960   2.422   1.976   9.494 -0.8577 -1.2015 -0.4971
11301SOL     OW45961   1.417   8.448   9.967 -0.1345  0.6950  0.6911
11301SOL    HW145962   1.449   8.369  10.018  1.4743  0.4874 -0.5756
11301SOL    HW245963   1.368   8.418   9.885  3.5831  0.8731 -1.7354
11302SOL     OW45964   2.162   4.226   2.180  0.5224  0.2033 -0.9586
11302SOL    HW145965   2.119   4.138   2.198  0.7607 -0.1725 -2.1963
11302SOL    HW245966   2.195   4.265   2.266 -0.3039 -0.5279 -0.2942
11303SOL     OW45967   3.388   7.328   3.814  0.2293  0.1447 -0.1108
11303SOL    HW145968   3.412   7.368   3.726  1.5005 -1.6403 -0.6062
11303SOL    HW245969   3.342   7.239   3.799  1.0299 -0.4684  1.0256
11304SOL     OW45970   1.826   4.273   6.146 -0.1036  0.5533  0.5509
11304SOL    HW145971   1.825   4.202   6.216 -0.0740  1.0352  1.0449
11304SOL    HW245972   1.827   4.363   6.190  1.2594  0.8448 -0.0637
11305SOL     OW45973   3.733   5.091   7.692 -0.1381 -0.1034 -0.3887
11305SOL    HW145974   3.762   5.001   7.661 -2.9999 -1.1174 -0.2258
11305SOL    HW245975   3.756   5.102   7.789  0.1843 -0.6851 -0.3991
11306SOL     OW45976   8.048   3.113   0.287 -0.2700 -0.3039  0.5201
11306SOL    HW145977   7.979   3.154   0.228  0.8788 -1.0744 -1.3876
11306SOL    HW245978   8.135   3.105   0.237  0.0153 -3.4311  1.4059
11307SOL     OW45979   5.735   1.265   5.175 -0.4279 -0.1510 -0.0325
11307SOL    HW145980   5.773   1.325   5.104 -2.4149  0.1656 -0.8713
11307SOL    HW245981   5.673   1.318   5.232  0.0021 -0.7686  1.0125
11308SOL     OW45982   7.556   1.753   9.533 -0.3462  0.2893  0.0956
11308SOL    HW145983   7.571   1.715   9.625  0.8752 -0.5536 -0.4305
11308SOL    HW245984   7.644   1.785   9.496 -0.7938  0.3974 -0.8748
11309SOL     OW45985   8.279   9.109   1.842  0.0401 -0.0114 -1.5022
11309SOL    HW145986   8.294   9.122   1.744 -0.5543  0.5608 -1.5184
11309SOL    HW245987   8.308   9.191   1.891 -1.9803  0.6930 -1.4340
11310SOL     OW45988   1.195   9.778   4.087  0.6314 -0.0808 -1.0527
11310SOL    HW145989   1.266   9.764   4.018  1.8952 -2.5075  0.6539
11310SOL    HW245990   1.227   9.846   4.153  0.0172  1.1756 -2.0284
11311SOL     OW45991   8.442   1.137   8.907  0.3723 -0.1922 -0.1675
11311SOL    HW145992   8.504   1.146   8.829 -2.2059  0.9047 -2.2049
11311SOL    HW245993   8.379   1.215   8.908 -0.1348 -0.5894  2.6076
11312SOL     OW45994   8.404   4.412   2.658  0.3204 -0.1036  0.1215
11312SOL    HW145995   8.346   4.446   2.584 -1.2826 -0.5369  1.1493
11312SOL    HW245996   8.470   4.346   2.622  0.0697  0.2715 -1.0425
11313SOL     OW45997   2.442   1.917   3.713  0.2673  0.3023 -0.0610
11313SOL    HW145998   2.518   1.929   3.649 -0.3613 -0.7763 -1.0168
11313SOL    HW245999   2.436   1.998   3.773  3.7886 -0.6956  1.7689
11314SOL     OW46000   0.045   5.387   8.249  0.1746  0.0674  0.0757
11314SOL    HW146001   0.051   5.487   8.243  2.5759 -0.0952 -0.8381
11314SOL    HW246002  -0.034   5.356   8.195  0.0796  1.3959 -0.5930
11315SOL     OW46003   9.074   6.359   3.525  0.3565 -0.3081  0.0552
11315SOL    HW146004   9.052   6.378   3.620  1.3505 -0.0018  0.2282
11315SOL    HW246005   9.101   6.443   3.479 -1.0226 -0.2838 -0.7565
11316SOL     OW46006   8.709   0.439   4.512  0.2217  0.1941  0.0859
11316SOL    HW146007   8.770   0.409   4.439  1.6142  1.5932  0.6328
11316SOL    HW246008   8.703   0.368   4.582  0.1061 -0.5186 -0.6460
11317SOL     OW46009   2.809   2.641   0.749  0.1811 -0.4175 -0.1221
11317SOL    HW146010   2.814   2.684   0.660  0.1728 -1.1100 -0.4595
11317SOL    HW246011   2.763   2.702   0.814  3.0002  1.4300  0.2335
11318SOL     OW46012   4.327   8.488   0.690  0.4310 -0.2130 -0.1613
11318SOL    HW146013   4.386   8.415   0.655  1.9368  0.9449 -0.0962
11318SOL    HW246014   4.335   8.492   0.790  0.9273  0.5173 -0.2266
11319SOL     OW46015   8.633   4.265   4.970 -0.5325  1.0134 -0.0792
11319SOL    HW146016   8.718   4.241   5.017 -1.3659 -0.1794  0.8477
11319SOL    HW246017   8.616   4.363   4.981 -0.8440  0.7195  2.3627
11320SOL     OW46018   8.492   4.162   6.897 -0.4896  0.0985 -0.3106
11320SOL    HW146019   8.460   4.115   6.980 -2.7683 -0.2174 -1.3443
11320SOL    HW246020   8.548   4.241   6.924 -0.2773 -0.6244  1.5061
11321SOL     OW46021   0.607   5.190   5.605  0.0928  0.2550 -0.0124
11321SOL    HW146022   0.610   5.215   5.702 -0.4057 -1.1622  0.3878
11321SOL    HW246023   0.584   5.093   5.597  1.9808 -0.1076 -1.4854
11322SOL     OW46024   2.692   2.056   1.374 -0.4894 -0.1617  0.2181
11322SOL    HW146025   2.788   2.045   1.402  0.1487  0.5379 -1.6004
11322SOL    HW246026   2.662   2.149   1.393 -0.9744 -0.5315  1.2670
11323SOL     OW46027   0.783   4.531   3.541 -0.0402 -0.3439 -0.0329
11323SOL    HW146028   0.741   4.541   3.451  1.2853 -0.0329 -0.6272
11323SOL    HW246029   0.712   4.522   3.610 -1.0655 -1.2273 -1.1807
11324SOL     OW46030   4.027   9.791   7.497  0.4981  0.5370  0.5812
11324SOL    HW146031   4.119   9.755   7.511  0.8197  1.1300 -0.0107
11324SOL    HW246032   4.032   9.877   7.447 -0.2341  1.7335  2.5331
11325SOL     OW46033   9.425   5.058   5.686  0.4320 -0.7268  0.5467
11325SOL    HW146034   9.439   5.021   5.778 -1.4318  0.1237  1.2018
11325SOL    HW246035   9.330   5.086   5.676  0.3386 -1.8703 -2.0494
11326SOL     OW46036   1.900   7.237   1.667 -0.3129  0.5097  0.3993
11326SOL    HW146037   1.884   7.199   1.576 -0.3767  1.0268  0.1904
11326SOL    HW246038   1.907   7.163   1.734 -2.3151  0.1993  0.3019
11327SOL     OW46039   2.302   9.695   3.763 -0.0031 -0.6134 -0.5419
11327SOL    HW146040   2.384   9.674   3.816 -1.5058 -1.1951  1.6214
11327SOL    HW246041   2.251   9.610   3.746 -0.5406 -0.1583 -1.2456
11328SOL     OW46042   2.247   2.409   2.165 -0.6494 -0.2841 -0.0174
11328SOL    HW146043   2.190   2.490   2.180 -0.9288 -0.8064  1.9148
11328SOL    HW246044   2.343   2.433   2.181 -0.8465 -0.5925  1.7020
11329SOL     OW46045   3.375   1.317   2.588 -0.3325 -0.1798  0.2350
11329SOL    HW146046   3.337   1.233   2.628  1.6709 -0.2389  2.1195
11329SOL    HW246047   3.359   1.394   2.650  1.4596  0.0238  0.4587
11330SOL     OW46048   7.804   8.811   9.983 -1.0851 -0.3146 -0.3631
11330SOL    HW146049   7.766   8.836   9.893  0.1837 -1.6138 -1.2873
11330SOL    HW246050   7.890   8.762   9.970  0.4093  1.6587  1.6650
11331SOL     OW46051   0.716   7.557   9.778  0.3586  0.0400  0.5151
11331SOL    HW146052   0.782   7.629   9.794 -1.1045  1.5417 -0.0459
11331SOL    HW246053   0.637   7.569   9.839  0.2058 -1.2199  0.5858
11332SOL     OW46054   9.141   6.266   5.275  0.9649 -0.0349  0.3406
11332SOL    HW146055   9.060   6.211   5.258  0.3441  1.0841 -0.4105
11332SOL    HW246056   9.181   6.294   5.188  0.6101  1.6399  0.6858
11333SOL     OW46057   3.906   5.689   7.952 -0.2414 -0.5952 -0.1172
11333SOL    HW146058   3.904   5.774   8.004 -2.5478 -1.8312  1.9104
11333SOL    HW246059   4.000   5.654   7.948  0.5402  1.4774 -0.0794
11334SOL     OW46060   4.478   2.303   0.102  0.2605  0.3513 -0.3113
11334SOL    HW146061   4.542   2.363   0.151  1.2931 -0.3362 -0.7811
11334SOL    HW246062   4.486   2.321   0.004 -0.3569  0.3474 -0.3593
11335SOL     OW46063   4.649   1.504   7.900  0.6029  0.8098  0.3097
11335SOL    HW146064   4.734   1.553   7.921  0.3225  1.0910  0.7921
11335SOL    HW246065   4.624   1.445   7.976  0.5696  0.4408  0.0123
11336SOL     OW46066   0.942   6.365   2.673  0.1768  0.1273  0.4822
11336SOL    HW146067   1.025   6.371   2.619 -0.2828  0.7762 -0.1605
11336SOL    HW246068   0.964   6.380   2.769  0.9547 -0.7670  0.4519
11337SOL     OW46069   7.979   8.648   8.484  0.2335  0.6066 -0.1074
11337SOL    HW146070   7.966   8.728   8.427 -0.9657 -0.9099 -2.0305
11337SOL    HW246071   7.911   8.647   8.557 -0.7718  0.5452 -1.0327
11338SOL     OW46072   9.713   8.228   6.830 -0.3476 -0.0232 -0.1764
11338SOL    HW146073   9.682   8.157   6.766  2.2806 -0.0823 -1.4341
11338SOL    HW246074   9.764   8.185   6.905  0.6007  0.4422 -0.5415
11339SOL     OW46075   7.985   4.668   5.395  0.4912  0.5284 -0.6134
11339SOL    HW146076   7.933   4.659   5.309  0.1244  1.5689 -0.5098
11339SOL    HW246077   8.079   4.637   5.380  0.3242  0.3321 -1.2923
11340SOL     OW46078   2.103   1.390   2.258  0.4056 -0.1225 -0.1396
11340SOL    HW146079   2.135   1.297   2.243  1.3637  0.0580  0.7834
11340SOL    HW246080   2.062   1.425   2.173 -0.6130 -1.6281 -0.2768
11341SOL     OW46081   2.118   5.745   3.476 -0.4024 -0.2253  0.0745
11341SOL    HW146082   2.211   5.727   3.442 -1.3556 -1.1179 -2.1663
11341SOL    HW246083   2.108   5.706   3.568  0.7582 -2.1356 -0.5688
11342SOL     OW46084   5.500   1.689   6.357  0.6183 -0.3498  0.4623
11342SOL    HW146085   5.583   1.661   6.406  1.3331  0.4473 -0.2599
11342SOL    HW246086   5.496   1.789   6.354  0.7627 -0.3855 -1.3797
11343SOL     OW46087   6.645   4.311   0.395 -0.2618  0.1898  0.2907
11343SOL    HW146088   6.680   4.404   0.392  0.3018  0.0226  1.3701
11343SOL    HW246089   6.663   4.271   0.485 -1.9455 -0.4015  0.3942
11344SOL     OW46090   7.931   2.876   2.480  0.2657  0.0414  0.3962
11344SOL    HW146091   7.886   2.828   2.555  1.0132  1.1686  1.6013
11344SOL    HW246092   7.951   2.812   2.406  0.1155 -1.2309  1.4407
11345SOL     OW46093   2.366   0.488   3.871 -0.0012  0.0448 -0.4662
11345SOL    HW146094   2.372   0.465   3.968 -2.4068  0.6372 -0.1240
11345SOL    HW246095   2.429   0.431   3.819  1.4836 -0.1229  1.4572
11346SOL     OW46096   8.458   8.425   7.277  0.3141 -0.0537  0.2013
11346SOL    HW146097   8.420   8.333   7.290  2.2105 -0.8968  0.0166
11346SOL    HW246098   8.418   8.487   7.345 -1.3678 -0.8862 -0.0007
11347SOL     OW46099   4.463   9.712   7.948 -0.8223 -0.3039  0.2251
11347SOL    HW146100   4.506   9.796   7.914 -0.6764 -0.5801 -0.2679
11347SOL    HW246101   4.366   9.728   7.964 -0.9193 -0.2112 -0.4465
11348SOL     OW46102   7.761   6.525   6.783  0.1567  0.7136 -0.2946
11348SOL    HW146103   7.746   6.430   6.808  0.5441  0.6962 -0.1190
11348SOL    HW246104   7.693   6.583   6.829 -2.0009  0.2309 -2.7463
11349SOL     OW46105   7.125   6.729   4.966 -0.7286 -0.3027 -0.3011
11349SOL    HW146106   7.079   6.709   5.053 -0.8222  1.4394  0.0760
11349SOL    HW246107   7.088   6.669   4.895 -0.3236 -2.0712  0.9396
11350SOL     OW46108   9.477   6.277   7.160  0.1397 -0.2862  0.5852
11350SOL    HW146109   9.416   6.287   7.081  0.3795 -0.0066  0.4338
11350SOL    HW246110   9.498   6.180   7.174 -2.2719 -0.6323  2.1115
11351SOL     OW46111   6.283   8.255   5.242  0.6904 -0.3190  0.2414
11351SOL    HW146112   6.325   8.242   5.331  1.0029 -0.9108  0.0092
11351SOL    HW246113   6.260   8.352   5.230  0.3890 -0.2879  1.0696
11352SOL     OW46114   8.648   7.762   0.463  0.0584 -0.0012  0.2569
11352SOL    HW146115   8.630   7.684   0.523  0.9366 -0.2643  0.1806
11352SOL    HW246116   8.702   7.831   0.512  0.6546 -0.1525 -0.1802
11353SOL     OW46117   0.185   5.078   7.932 -0.1891  0.7016 -0.1649
11353SOL    HW146118   0.243   4.999   7.952 -0.5047  0.5959  0.3555
11353SOL    HW246119   0.193   5.103   7.836  0.5034  0.5098 -0.1576
11354SOL     OW46120   9.015   3.785   5.902 -0.3016 -0.8208 -0.0269
11354SOL    HW146121   8.981   3.852   5.836 -1.2455 -0.0092  1.2300
11354SOL    HW246122   9.106   3.754   5.876 -0.8418 -0.8636 -1.9344
11355SOL     OW46123   7.947   7.051   0.764  0.1724  0.1542  0.1187
11355SOL    HW146124   7.891   7.023   0.686  0.2943  1.9729 -0.6434
11355SOL    HW246125   7.893   7.045   0.848 -0.3538 -0.5929 -0.2735
11356SOL     OW46126   0.311   3.081   5.117  0.0930 -0.2031  0.2930
11356SOL    HW146127   0.275   3.013   5.181 -0.2157 -0.1719  0.1546
11356SOL    HW246128   0.261   3.167   5.128 -0.9555 -0.6287 -0.9920
11357SOL     OW46129   5.016   3.997   9.815  0.3537 -0.3571  0.0368
11357SOL    HW146130   4.949   3.953   9.755  1.5044  0.1233 -1.6510
11357SOL    HW246131   4.986   3.989   9.910 -1.7854 -0.6625 -0.6321
11358SOL     OW46132   2.445   9.448   7.102  0.1869  0.3962 -0.2076
11358SOL    HW146133   2.407   9.356   7.104  1.1366 -0.0262 -1.1244
11358SOL    HW246134   2.379   9.512   7.142 -1.8996 -0.1855 -2.5872
11359SOL     OW46135   3.107   9.124   6.500 -0.5393 -0.2278  0.2095
11359SOL    HW146136   3.036   9.106   6.432 -0.0853 -1.0719 -0.0498
11359SOL    HW246137   3.152   9.038   6.526  1.4720  0.4638 -0.8344
11360SOL     OW46138   9.556   3.457   5.644  0.6617  0.3149  0.1997
11360SOL    HW146139   9.583   3.365   5.672 -0.0538 -0.1176 -0.5109
11360SOL    HW246140   9.635   3.505   5.604  0.8558 -0.2522 -0.0963
11361SOL     OW46141   1.405   2.794   2.996 -0.5664 -0.2179  0.4841
11361SOL    HW146142   1.486   2.743   3.025  0.1527 -0.1559 -1.3398
11361SOL    HW246143   1.329   2.731   2.984 -0.5420 -0.4093  1.2863
11362SOL     OW46144   3.670   6.057   2.584 -0.2713 -0.3659 -0.0135
11362SOL    HW146145   3.579   6.094   2.565 -0.2696 -1.3020 -2.0269
11362SOL    HW246146   3.736   6.132   2.591 -0.7573  0.1782 -1.1867
11363SOL     OW46147   9.347   3.236   7.333 -0.3225  0.1561  0.4557
11363SOL    HW146148   9.322   3.332   7.322  0.3938  0.4986  1.6626
11363SOL    HW246149   9.412   3.210   7.261 -1.0842  0.3593 -0.3134
11364SOL     OW46150   4.880   5.188   2.850 -0.5936 -0.0790  0.8042
11364SOL    HW146151   4.953   5.143   2.799  0.1474  0.4596  1.3665
11364SOL    HW246152   4.796   5.135   2.843 -0.7236  0.4014 -1.6522
11365SOL     OW46153   5.206   1.067   8.118  0.2411 -0.2292 -0.6483
11365SOL    HW146154   5.149   1.100   8.043  0.8374  0.1926 -0.9253
11365SOL    HW246155   5.301   1.091   8.100  0.4607 -0.6303 -0.0310
11366SOL     OW46156   7.465   1.811   1.796  0.2520  0.9745  0.0714
11366SOL    HW146157   7.372   1.797   1.763  0.6878 -0.0528 -0.7634
11366SOL    HW246158   7.518   1.860   1.727  0.3488  1.5198  0.5258
11367SOL     OW46159   6.081   2.052   9.687 -0.1824  0.7826  0.9383
11367SOL    HW146160   6.021   1.975   9.707  0.9239 -0.3667 -0.1084
11367SOL    HW246161   6.138   2.071   9.767  0.1574 -0.0602  0.9037
11368SOL     OW46162   9.671   0.971   5.890  0.1229  0.0022 -0.8417
11368SOL    HW146163   9.761   0.972   5.846  0.5688  1.0105  0.0691
11368SOL    HW246164   9.653   0.879   5.925  0.3376 -0.4711 -1.9467
11369SOL     OW46165   0.155   8.577   0.784  0.2871 -0.1977 -0.2836
11369SOL    HW146166   0.121   8.644   0.718 -1.7126 -1.1164 -0.2336
11369SOL    HW246167   0.127   8.485   0.755  0.6326 -0.7475  1.0832
11370SOL     OW46168   3.929   7.414   9.516 -0.1975  0.2330  0.1454
11370SOL    HW146169   3.879   7.382   9.436 -0.5947 -0.6746  0.7465
11370SOL    HW246170   4.027   7.405   9.500 -0.2513  0.7822 -0.5296
11371SOL     OW46171   8.806   9.841   8.296  0.4534  0.2945 -0.0610
11371SOL    HW146172   8.887   9.897   8.276  1.8655 -1.5414  0.4192
11371SOL    HW246173   8.833   9.760   8.348 -2.0458  0.9664  2.4155
11372SOL     OW46174   5.312   9.518   2.522  0.0815  0.1449  0.0486
11372SOL    HW146175   5.306   9.577   2.442  3.4821 -2.3023 -2.1449
11372SOL    HW246176   5.406   9.519   2.558 -0.8154 -0.6356  2.5608
11373SOL     OW46177   5.337   2.191   1.225 -0.3133  0.0688  0.8057
11373SOL    HW146178   5.393   2.112   1.253 -0.0004  0.7465  2.1054
11373SOL    HW246179   5.245   2.160   1.204 -0.0212 -0.7461  0.6810
11374SOL     OW46180   4.907   0.405   7.131 -0.5739  0.0697  0.2989
11374SOL    HW146181   4.857   0.319   7.121  0.6519 -0.5310 -0.8619
11374SOL    HW246182   5.002   0.385   7.156 -0.0548  1.0262 -0.8549
11375SOL     OW46183   5.840   9.701   7.951  0.1294 -0.0632 -0.2499
11375SOL    HW146184   5.772   9.663   8.014  0.1726 -0.3535 -0.3791
11375SOL    HW246185   5.929   9.705   7.996 -0.0964  0.8936  0.1305
11376SOL     OW46186   2.149   9.391   2.342  0.5283 -0.0911 -0.2494
11376SOL    HW146187   2.095   9.308   2.325  0.3537  0.1989 -1.1106
11376SOL    HW246188   2.131   9.458   2.270  0.1444  0.9661  0.8244
11377SOL     OW46189   1.613   5.826   1.700 -0.0860 -0.2932 -0.1755
11377SOL    HW146190   1.639   5.740   1.742  0.2298  0.3103  0.8933
11377SOL    HW246191   1.637   5.825   1.603 -1.1358 -1.8378 -0.4367
11378SOL     OW46192   5.356   1.661   1.743  0.6903  0.4190 -0.2645
11378SOL    HW146193   5.411   1.586   1.707  1.1417  1.5450 -1.9872
11378SOL    HW246194   5.260   1.643   1.726  0.7968  0.2353 -0.6701
11379SOL     OW46195   8.290   1.576   6.195  0.1181  0.0121  0.3890
11379SOL    HW146196   8.213   1.585   6.258  0.7801 -2.1078  1.5373
11379SOL    HW246197   8.261   1.529   6.112  0.2335 -1.0536  0.9479
11380SOL     OW46198   2.588   1.710   5.212  0.0975 -0.5414 -0.5634
11380SOL    HW146199   2.573   1.654   5.130  0.6328 -0.1137 -0.9567
11380SOL    HW246200   2.685   1.712   5.234 -0.2046 -1.9412  1.0040
11381SOL     OW46201   3.709   5.424   0.819  0.0150  0.1306 -0.1308
11381SOL    HW146202   3.716   5.391   0.913 -0.0021  2.0997  0.5933
11381SOL    HW246203   3.780   5.493   0.802  0.5780 -0.8404 -1.8441
11382SOL     OW46204   3.510   8.194   6.738 -0.3040 -0.5873  0.1132
11382SOL    HW146205   3.460   8.116   6.701  1.3477 -1.6052 -0.0067
11382SOL    HW246206   3.578   8.225   6.672 -3.0631  3.0447 -1.2089
11383SOL     OW46207   4.422   6.169   4.568  0.4834 -0.4269  0.3475
11383SOL    HW146208   4.381   6.224   4.496  1.8331 -0.1633 -0.2283
11383SOL    HW246209   4.366   6.087   4.583 -0.0790 -0.2285 -0.6243
11384SOL     OW46210   4.867   4.143   0.362  0.2329  0.1428  0.2111
11384SOL    HW146211   4.946   4.082   0.372  1.1439  1.4915  1.3890
11384SOL    HW246212   4.784   4.088   0.353  1.3545 -1.3106 -1.7397
11385SOL     OW46213   1.660   3.986   0.787 -0.1632  0.2595 -0.1298
11385SOL    HW146214   1.709   3.901   0.805  1.0627  0.0972 -3.7389
11385SOL    HW246215   1.694   4.058   0.847  1.0240 -1.0633  0.8042
11386SOL     OW46216   3.250   1.923   1.536 -0.8372  0.3395  0.0367
11386SOL    HW146217   3.291   1.840   1.498  0.1425  0.6703  0.3723
11386SOL    HW246218   3.322   1.985   1.567 -1.5183  1.8910 -1.3969
11387SOL     OW46219   7.023   5.225   3.240  0.8944  0.0954 -0.1720
11387SOL    HW146220   7.056   5.164   3.168 -0.3385 -3.0319  1.7710
11387SOL    HW246221   6.924   5.235   3.232  0.6608 -0.7543  1.3743
11388SOL     OW46222   4.636   8.408   0.858 -1.0124  0.6463  0.0611
11388SOL    HW146223   4.659   8.316   0.887 -2.7129  0.1677 -0.0781
11388SOL    HW246224   4.566   8.446   0.919 -1.9309  1.0074 -1.1994
11389SOL     OW46225   5.398   2.482   5.342 -0.5501  0.4286  0.4678
11389SOL    HW146226   5.422   2.416   5.413  0.0696  0.5961  0.4200
11389SOL    HW246227   5.339   2.553   5.380 -2.0570 -0.6903  0.2892
11390SOL     OW46228   2.938   3.098   7.914  0.0527 -0.4082 -0.0767
11390SOL    HW146229   2.947   3.113   7.815 -0.0168  0.8716  0.0984
11390SOL    HW246230   2.965   3.182   7.962  0.0525 -1.0218  0.9853
11391SOL     OW46231   3.684   4.025   5.116 -0.1604  0.0421 -0.1831
11391SOL    HW146232   3.613   4.083   5.156 -0.6983 -1.4817  1.1465
11391SOL    HW246233   3.640   3.954   5.060  0.3923 -0.1555 -0.3660
11392SOL     OW46234   8.198   6.191   1.059  0.5307 -0.1653 -0.3781
11392SOL    HW146235   8.134   6.267   1.050 -0.2591 -0.7742  0.0174
11392SOL    HW246236   8.287   6.218   1.022 -0.3368  0.2021 -2.3017
11393SOL     OW46237   7.937   8.581   9.704  0.4091  0.1912  0.0674
11393SOL    HW146238   7.875   8.516   9.748  0.7187 -0.0956  0.0854
11393SOL    HW246239   7.903   8.603   9.612 -0.4613  1.1125  0.6001
11394SOL     OW46240   7.783   8.284   9.438 -0.5004 -0.2646 -0.5150
11394SOL    HW146241   7.879   8.289   9.465 -0.7780 -0.7376  0.6170
11394SOL    HW246242   7.740   8.373   9.449 -0.1193  0.0121 -1.2864
11395SOL     OW46243   2.626   4.738   0.877  0.1508  0.4722  0.0021
11395SOL    HW146244   2.708   4.773   0.922  0.3160 -0.1444  0.1839
11395SOL    HW246245   2.547   4.750   0.938  0.4529 -0.7974  0.6746
11396SOL     OW46246   4.671   4.902   5.462  0.3277  0.5067  0.0084
11396SOL    HW146247   4.627   4.816   5.437  1.0349 -0.1736  1.0453
11396SOL    HW246248   4.724   4.889   5.546  2.6259  1.2395 -1.2879
11397SOL     OW46249   7.016   9.855   5.735 -0.3768  0.1532  0.2108
11397SOL    HW146250   6.992   9.930   5.797  2.0564  0.5913  0.6466
11397SOL    HW246251   7.114   9.858   5.715 -1.0125 -0.2905 -3.2539
11398SOL     OW46252   9.772   3.929   0.368 -0.2411 -0.2693  0.3356
11398SOL    HW146253   9.718   3.860   0.320  0.2357  0.4653 -1.2909
11398SOL    HW246254   9.806   3.997   0.303  1.6467 -0.0590  1.4827
11399SOL     OW46255   4.836   9.841   9.112 -0.0911 -0.1242  0.5680
11399SOL    HW146256   4.805   9.788   9.191  0.7004  1.2245  1.8218
11399SOL    HW246257   4.757   9.880   9.065 -0.5953 -1.2710  0.4303
11400SOL     OW46258   4.530   8.719   4.343  0.4433  0.0854 -0.7255
11400SOL    HW146259   4.589   8.726   4.262  0.8675  0.5273 -0.3816
11400SOL    HW246260   4.586   8.726   4.426 -0.0825  0.4557 -0.3981
11401SOL     OW46261   2.054   7.569   2.301  0.1206  0.2104  0.1170
11401SOL    HW146262   1.983   7.606   2.240 -0.3698  0.6668  0.9504
11401SOL    HW246263   2.092   7.643   2.356 -0.0817 -0.3377  1.0042
11402SOL     OW46264   0.771   9.636   9.313 -0.0407  0.4365  0.1154
11402SOL    HW146265   0.786   9.724   9.267 -0.4977 -0.2122 -1.3016
11402SOL    HW246266   0.849   9.576   9.296 -0.3471  0.0911 -0.0831
11403SOL     OW46267   7.347   0.040   3.820 -0.0855 -0.3388 -0.0262
11403SOL    HW146268   7.308  -0.048   3.847 -0.0277 -0.7679 -1.2694
11403SOL    HW246269   7.274   0.107   3.807 -0.1345 -0.2197  0.8612
11404SOL     OW46270   8.196   7.609   3.941 -0.3661  0.2739 -0.0206
11404SOL    HW146271   8.219   7.511   3.935 -0.1400  0.3132  0.1880
11404SOL    HW246272   8.125   7.622   4.011 -2.4249 -0.0809 -1.9793
11405SOL     OW46273   6.903   3.685   0.091 -0.3439 -0.1592 -0.1319
11405SOL    HW146274   6.984   3.639   0.128  0.2432  0.2725 -0.8628
11405SOL    HW246275   6.892   3.661  -0.005 -1.1214 -0.2581 -0.0194
11406SOL     OW46276   8.818   9.193   6.715 -0.0488  0.0233 -0.0674
11406SOL    HW146277   8.719   9.207   6.718  0.1559  1.5442 -0.1450
11406SOL    HW246278   8.844   9.160   6.625 -0.2753  1.4215 -0.6656
11407SOL     OW46279   8.265   2.657   1.683 -0.1558  0.0310  0.2383
11407SOL    HW146280   8.308   2.567   1.689  0.2098  0.1075 -1.1127
11407SOL    HW246281   8.240   2.676   1.588  1.5963  2.1670  0.1500
11408SOL     OW46282   0.521   4.494   6.798  0.5679  0.7614 -0.4149
11408SOL    HW146283   0.454   4.552   6.751 -0.2153  0.2673  0.0807
11408SOL    HW246284   0.484   4.466   6.887  2.0524  1.7294  0.5312
11409SOL     OW46285   7.569   9.873   4.991  0.4377 -0.1416  0.5611
11409SOL    HW146286   7.628   9.792   4.992  1.1131  0.3380  0.1756
11409SOL    HW246287   7.495   9.861   5.057  0.1294 -1.3671  0.0021
11410SOL     OW46288   0.476   6.191   1.598  0.5495  0.4880 -0.5535
11410SOL    HW146289   0.544   6.237   1.655  0.9177 -1.2047  0.4017
11410SOL    HW246290   0.384   6.221   1.625  0.7298 -0.2033  0.8516
11411SOL     OW46291   2.688   9.698   1.633 -0.7172  0.1856 -0.0654
11411SOL    HW146292   2.759   9.677   1.566  0.4484  0.3303  1.1295
11411SOL    HW246293   2.668   9.617   1.688 -0.3295  0.5930  0.6771
11412SOL     OW46294   8.746   6.676   6.039 -0.1147  0.2416  0.5978
11412SOL    HW146295   8.683   6.752   6.054 -0.1349  0.2089  0.6820
11412SOL    HW246296   8.822   6.683   6.105  0.0299  0.3465  0.4189
11413SOL     OW46297   8.809   4.368   2.351 -0.2167 -0.6941  0.0357
11413SOL    HW146298   8.890   4.376   2.409  0.7601  0.0196 -1.4144
11413SOL    HW246299   8.730   4.347   2.408  1.1351 -2.2834  1.3600
11414SOL     OW46300   9.905   9.728   9.487  0.3099  0.1516 -0.4915
11414SOL    HW146301   9.947   9.637   9.491 -0.1240 -0.0775 -1.0620
11414SOL    HW246302   9.819   9.722   9.435  0.5456  0.9908 -0.9723
11415SOL     OW46303   7.408   1.985   2.673  1.1527  0.5961  0.3476
11415SOL    HW146304   7.379   1.896   2.638 -1.0397  1.2385  0.4712
11415SOL    HW246305   7.404   2.052   2.599 -0.2426  1.2481  1.0043
11416SOL     OW46306   0.271   0.536   7.063  0.9099 -0.0636 -0.0814
11416SOL    HW146307   0.302   0.624   7.099  1.1476 -1.0596  2.2500
11416SOL    HW246308   0.173   0.527   7.077  0.8632 -0.1115 -0.4429
11417SOL     OW46309   6.574   4.068   9.428 -0.0548 -0.0715  0.1387
11417SOL    HW146310   6.484   4.024   9.415  0.2359 -0.6658  0.0924
11417SOL    HW246311   6.562   4.166   9.438 -0.8344 -0.2757  1.4121
11418SOL     OW46312   2.236   8.282   7.456 -0.2462  0.1573  0.0586
11418SOL    HW146313   2.179   8.236   7.524  0.4151 -1.6352 -0.5708
11418SOL    HW246314   2.228   8.381   7.467 -0.6726 -0.0978  2.3084
11419SOL     OW46315   4.419   9.304   5.291  0.2026  0.1024 -0.4206
11419SOL    HW146316   4.410   9.402   5.306  1.8486  0.2176 -0.1217
11419SOL    HW246317   4.484   9.287   5.217  3.1151 -0.8395  2.2397
11420SOL     OW46318   2.952   5.831   5.949  0.0495 -0.3549  0.3631
11420SOL    HW146319   2.954   5.803   6.045 -0.8854 -2.8490 -0.3208
11420SOL    HW246320   2.861   5.865   5.926  0.1944 -0.0196  0.2770
11421SOL     OW46321   8.395   3.249   5.028  0.1411  0.6986  0.2687
11421SOL    HW146322   8.347   3.335   5.042  2.0371  1.7539  0.4645
11421SOL    HW246323   8.483   3.267   4.983  0.2551 -1.2073 -0.3131
11422SOL     OW46324   3.952   8.982  10.067 -0.2281  0.1408 -0.1548
11422SOL    HW146325   4.046   9.009  10.087  0.2535 -0.6327 -1.3037
11422SOL    HW246326   3.925   8.906  10.126  1.0655 -1.9017 -2.0720
11423SOL     OW46327   5.788   3.089   9.631  0.2956 -0.2369 -0.0979
11423SOL    HW146328   5.702   3.050   9.599 -0.0084 -0.0184  0.4508
11423SOL    HW246329   5.832   3.025   9.694  1.2623 -0.9965 -1.5272
11424SOL     OW46330   3.822   9.310   2.412 -0.2319  0.9659 -0.0561
11424SOL    HW146331   3.891   9.256   2.363  2.0968  3.2870  0.5921
11424SOL    HW246332   3.739   9.255   2.422  0.6553 -1.0358 -2.9477
11425SOL     OW46333   6.812   8.151   8.237  0.1940 -0.3079  0.8134
11425SOL    HW146334   6.801   8.053   8.255  0.9766 -0.7289 -0.9335
11425SOL    HW246335   6.884   8.188   8.296 -0.8303 -0.5386  2.2350
11426SOL     OW46336   8.855   5.839   5.229  0.1745 -0.5153  0.6595
11426SOL    HW146337   8.879   5.887   5.144 -1.0841  0.3162  0.7573
11426SOL    HW246338   8.938   5.810   5.275  0.8586 -3.1923 -2.0884
11427SOL     OW46339   9.679   8.372   1.036 -0.5260 -0.3597  0.3946
11427SOL    HW146340   9.616   8.424   0.978  0.3914 -1.8156 -1.9782
11427SOL    HW246341   9.721   8.433   1.102 -0.8248  1.5830 -1.1433
11428SOL     OW46342   4.929   8.449   3.197  0.4235  0.4943  0.0660
11428SOL    HW146343   4.921   8.356   3.163 -0.4388  0.4822  0.3037
11428SOL    HW246344   4.838   8.486   3.217  0.7431  1.4805 -0.2847
11429SOL     OW46345   2.560   4.653   9.880 -0.3068 -0.4302  0.7011
11429SOL    HW146346   2.534   4.616   9.970  0.0162  1.8828  1.7727
11429SOL    HW246347   2.569   4.752   9.886  2.6392 -0.5248 -1.1695
11430SOL     OW46348   0.543   7.654   9.996 -0.2596 -0.0952 -0.1697
11430SOL    HW146349   0.491   7.739   9.999 -2.4732 -1.3988 -0.5675
11430SOL    HW246350   0.546   7.613  10.088  2.0888  1.1268  0.3367
11431SOL     OW46351   3.096   6.718   6.101  0.9370 -0.5073 -0.0081
11431SOL    HW146352   3.175   6.726   6.161  0.4031  0.4809  0.5787
11431SOL    HW246353   3.016   6.760   6.145  0.9028  1.7052 -2.0749
11432SOL     OW46354   7.735   1.966   5.684  0.5470 -0.2369  0.6087
11432SOL    HW146355   7.655   1.925   5.639  0.4929  0.5249  0.0087
11432SOL    HW246356   7.745   1.927   5.776 -1.7404  1.1890  1.4930
11433SOL     OW46357   3.032   4.427   2.121 -0.2875  0.2275  0.0898
11433SOL    HW146358   3.010   4.518   2.088 -0.5843  0.3399  0.5917
11433SOL    HW246359   3.084   4.433   2.206  0.6528 -0.0569 -0.4651
11434SOL     OW46360   2.153   4.306   1.819  0.6247 -0.5556  0.3671
11434SOL    HW146361   2.188   4.256   1.739  1.3319 -0.1482  0.4205
11434SOL    HW246362   2.109   4.242   1.882 -0.5982 -0.7844 -0.6995
11435SOL     OW46363   2.727   9.301   1.899  0.1434  0.1763 -0.4230
11435SOL    HW146364   2.818   9.309   1.939 -0.9490  2.6688  1.7148
11435SOL    HW246365   2.696   9.206   1.907  1.5042 -0.1598  1.2215
11436SOL     OW46366   6.062   7.879   5.088 -0.0869 -0.2416  0.0288
11436SOL    HW146367   6.062   7.969   5.131 -0.5659  0.2144 -0.9124
11436SOL    HW246368   5.977   7.832   5.110 -0.2622 -0.0716 -0.2819
11437SOL     OW46369   1.544   5.490   5.107  0.2467  0.2644 -0.3890
11437SOL    HW146370   1.494   5.533   5.183 -1.0601 -0.0412 -1.0686
11437SOL    HW246371   1.614   5.428   5.144  0.0835  0.6318  0.5639
11438SOL     OW46372   6.513   5.493   9.338  0.6176 -0.1014  0.2519
11438SOL    HW146373   6.448   5.417   9.344 -1.1075  1.3682  0.4977
11438SOL    HW246374   6.555   5.508   9.428 -1.3236  1.1786  0.9801
11439SOL     OW46375   8.337   4.846   6.474 -0.5130  0.6730  0.2945
11439SOL    HW146376   8.426   4.802   6.466  0.1779  1.6455  2.2061
11439SOL    HW246377   8.267   4.788   6.433  1.1649  0.5190 -2.4641
11440SOL     OW46378   9.121   3.675   3.582  0.5342 -0.1931 -0.4079
11440SOL    HW146379   9.164   3.612   3.517  1.9418  2.4145 -2.0983
11440SOL    HW246380   9.109   3.629   3.670  3.5896 -2.1183 -0.9132
11441SOL     OW46381   4.592   8.840   3.399 -0.2789 -0.1302  0.1182
11441SOL    HW146382   4.618   8.835   3.303 -0.4108  0.0704  0.0719
11441SOL    HW246383   4.493   8.832   3.407 -0.1964 -0.9224  0.2979
11442SOL     OW46384   3.264   1.629   0.223 -0.3102 -0.5313  0.5334
11442SOL    HW146385   3.259   1.583   0.311  0.9304 -0.2527  0.7507
11442SOL    HW246386   3.218   1.573   0.154 -0.3501 -1.2544  1.1424
11443SOL     OW46387   4.442   8.737   6.415 -1.0544  0.2149 -0.1396
11443SOL    HW146388   4.530   8.714   6.372 -1.5192 -1.6429 -0.1650
11443SOL    HW246389   4.458   8.796   6.494  0.2853 -0.5068  0.1603
11444SOL     OW46390   9.634   8.972   9.048 -0.5859 -0.2495 -0.3784
11444SOL    HW146391   9.620   8.874   9.064 -2.2438 -0.0805 -0.6904
11444SOL    HW246392   9.564   9.024   9.097  2.1451  0.9907  2.3833
11445SOL     OW46393   5.917   9.517   3.458  0.1892  0.2425  0.0707
11445SOL    HW146394   6.007   9.523   3.414  0.5781  0.5806  0.8871
11445SOL    HW246395   5.928   9.481   3.551 -0.2881  1.9588  0.8297
11446SOL     OW46396   0.719   0.131   9.908 -0.5882  0.2710 -0.1250
11446SOL    HW146397   0.651   0.196   9.940 -0.8919  0.3976 -1.0122
11446SOL    HW246398   0.710   0.119   9.809  0.7695  0.4083 -0.2837
11447SOL     OW46399   7.731   6.822   4.729  0.0629 -0.1296  0.2413
11447SOL    HW146400   7.822   6.863   4.736 -0.8431  2.0672 -0.1346
11447SOL    HW246401   7.669   6.870   4.792 -1.6863  1.0322 -2.2778
11448SOL     OW46402   1.156   4.951   7.547  0.0267  0.1862 -0.3399
11448SOL    HW146403   1.219   5.027   7.565 -0.3632  0.1829  1.0558
11448SOL    HW246404   1.110   4.966   7.459  1.6914  0.3781 -1.2043
11449SOL     OW46405   0.268   6.551   8.315 -0.0141  0.0597 -0.4264
11449SOL    HW146406   0.258   6.486   8.240 -0.4009  0.2701 -0.5592
11449SOL    HW246407   0.330   6.624   8.286 -0.8534  0.6113 -0.8680
11450SOL     OW46408   8.379   4.997   4.260  0.0590  0.4464 -0.0610
11450SOL    HW146409   8.325   5.002   4.176 -1.4402 -1.0977  0.7726
11450SOL    HW246410   8.376   5.085   4.307  0.9465  1.3376 -1.6170
11451SOL     OW46411   7.486   0.717  10.028  0.2356  0.0450  0.0141
11451SOL    HW146412   7.449   0.710  10.121 -1.3552  1.6849 -0.4473
11451SOL    HW246413   7.566   0.777  10.029 -0.2665  0.7202  0.2046
11452SOL     OW46414   9.357   3.834   1.909  0.0948  0.7099 -0.1191
11452SOL    HW146415   9.282   3.896   1.932 -2.1913 -1.4080 -1.6717
11452SOL    HW246416   9.389   3.789   1.992 -0.7379  1.1965  0.4757
11453SOL     OW46417   9.096   8.860   0.185 -0.2354 -0.4320 -0.2011
11453SOL    HW146418   9.088   8.897   0.093  2.0099  0.4765 -0.0689
11453SOL    HW246419   9.083   8.933   0.252  2.1943 -0.2129  0.0929
11454SOL     OW46420   0.838   1.729   1.256 -0.2227  0.3222 -0.3178
11454SOL    HW146421   0.891   1.645   1.272 -1.0464 -0.3307 -0.9853
11454SOL    HW246422   0.757   1.707   1.201 -0.0306  1.6904 -1.1532
11455SOL     OW46423   2.174   3.225   7.426  0.6469 -0.6559  0.1284
11455SOL    HW146424   2.152   3.287   7.501 -0.3726 -0.8454 -0.0110
11455SOL    HW246425   2.091   3.202   7.377  1.0777 -1.8416 -0.0509
11456SOL     OW46426   8.407   6.150   4.588  0.1026 -0.2932  0.0493
11456SOL    HW146427   8.348   6.105   4.654 -0.8183  1.3593  0.3757
11456SOL    HW246428   8.395   6.107   4.498  0.2253 -1.5437  0.6268
11457SOL     OW46429   5.883   2.548   0.655  0.1708  0.0351  0.2550
11457SOL    HW146430   5.956   2.590   0.601 -0.6286  0.0256 -0.8589
11457SOL    HW246431   5.853   2.464   0.610  0.3908 -0.6715  1.4160
11458SOL     OW46432   1.611   3.246   8.048  0.1342 -0.3451  0.7405
11458SOL    HW146433   1.530   3.301   8.072 -0.9005 -1.6028  0.1652
11458SOL    HW246434   1.589   3.149   8.056  0.8982 -0.7474 -1.6572
11459SOL     OW46435   9.579   7.918   2.783  0.0474  0.6612 -0.3102
11459SOL    HW146436   9.677   7.925   2.798  0.0451  0.7171 -0.3183
11459SOL    HW246437   9.554   7.822   2.769  0.2981  0.7743 -1.6233
11460SOL     OW46438   8.517   9.862   8.832  0.0991 -0.6227 -0.1480
11460SOL    HW146439   8.523   9.773   8.878  1.5142 -1.2696 -1.5254
11460SOL    HW246440   8.455   9.921   8.883 -1.9047 -2.8260  0.0919
11461SOL     OW46441   8.806   2.323   1.601 -0.4397 -0.2461  0.1054
11461SOL    HW146442   8.835   2.319   1.697  0.7352 -0.6030 -0.2465
11461SOL    HW246443   8.767   2.413   1.582 -1.5463 -0.4840  1.1464
11462SOL     OW46444   1.207   0.685   1.101  0.0241 -0.2442 -0.1137
11462SOL    HW146445   1.167   0.776   1.101 -0.3019 -0.3847 -0.5843
11462SOL    HW246446   1.181   0.637   1.017  0.7562 -0.5208 -0.1858
11463SOL     OW46447   7.107   5.746   9.327 -0.0777  0.2305  0.0567
11463SOL    HW146448   7.186   5.687   9.307  0.7099  1.7815 -1.5027
11463SOL    HW246449   7.134   5.814   9.395 -0.8942 -0.9467  1.5994
11464SOL     OW46450   8.523   9.003   8.795 -0.5842  0.5771  1.0791
11464SOL    HW146451   8.453   9.037   8.732 -0.0757 -0.4076 -0.0271
11464SOL    HW246452   8.553   8.912   8.767  1.4835  1.1637  1.2444
11465SOL     OW46453   8.215   3.357   4.414 -0.0357 -0.2299 -0.3543
11465SOL    HW146454   8.209   3.375   4.513  2.0567 -0.4672 -0.1579
11465SOL    HW246455   8.256   3.267   4.400  0.7132  0.2733 -1.4362
11466SOL     OW46456   0.220   5.069   6.285 -0.2393 -0.0263 -0.2724
11466SOL    HW146457   0.252   5.110   6.371  4.2157  0.3840 -1.9919
11466SOL    HW246458   0.180   5.140   6.228  0.7920  0.5566 -0.2825
11467SOL     OW46459   3.835   8.354   0.124  0.0908  0.0358 -0.0297
11467SOL    HW146460   3.781   8.395   0.050 -0.9947 -0.8726  0.2420
11467SOL    HW246461   3.901   8.290   0.085  1.1695  1.3592 -0.3866
11468SOL     OW46462   1.332   7.831   3.475 -0.3134  0.2589  0.3685
11468SOL    HW146463   1.375   7.884   3.547  0.9170  0.7978 -0.7490
11468SOL    HW246464   1.376   7.741   3.468 -0.4366  0.2027  0.2912
11469SOL     OW46465   7.823   8.359   2.383  0.4075  0.4917  0.2154
11469SOL    HW146466   7.795   8.424   2.313 -0.3992  0.0147  0.0869
11469SOL    HW246467   7.742   8.311   2.418  0.8228  0.5958  1.3378
11470SOL     OW46468   9.745   9.608   9.012 -0.6493 -0.0104  0.1556
11470SOL    HW146469   9.690   9.667   8.952  1.4514  1.0218 -0.7792
11470SOL    HW246470   9.824   9.659   9.046  0.9115 -2.1273 -0.2041
11471SOL     OW46471   9.999   0.448   9.351  0.2456  0.1264  0.0277
11471SOL    HW146472  10.066   0.489   9.289 -0.5158  0.4120 -0.6124
11471SOL    HW246473   9.909   0.490   9.335  0.0235  0.1183  1.2432
11472SOL     OW46474   8.450   4.874   7.976  0.3549 -0.3870 -0.4967
11472SOL    HW146475   8.451   4.956   7.919  1.6416  0.1251  0.2517
11472SOL    HW246476   8.493   4.798   7.928 -0.1582 -0.4276 -0.8940
11473SOL     OW46477   0.720   9.272   9.430  0.5471  0.6679  0.2272
11473SOL    HW146478   0.805   9.293   9.480  0.9935 -1.3472  0.3479
11473SOL    HW246479   0.690   9.180   9.453 -0.8009  0.7771 -1.0636
11474SOL     OW46480   6.596   8.334   6.686  0.0723 -0.1320 -0.3290
11474SOL    HW146481   6.656   8.375   6.755  2.1098  0.7521 -2.5597
11474SOL    HW246482   6.588   8.236   6.704  1.3415 -0.0892  0.6023
11475SOL     OW46483   3.461   0.943   7.721 -0.2024 -0.3138  0.4132
11475SOL    HW146484   3.442   0.933   7.819  1.0787  0.5846  0.7615
11475SOL    HW246485   3.486   1.038   7.702  1.8665 -0.9944 -0.3777
11476SOL     OW46486   5.297   4.040   8.483 -0.1982  0.4364 -0.3206
11476SOL    HW146487   5.207   4.073   8.511 -0.2953 -0.0276 -0.0750
11476SOL    HW246488   5.359   4.042   8.562 -0.4147 -0.6802 -0.1021
11477SOL     OW46489   6.376   9.418   2.926 -0.4922 -0.2416  0.2667
11477SOL    HW146490   6.280   9.443   2.932 -1.1902 -2.5994 -0.6004
11477SOL    HW246491   6.414   9.452   2.840 -1.8253 -3.2823 -1.6042
11478SOL     OW46492   2.163   8.509   2.503 -0.4420 -0.1612  0.2552
11478SOL    HW146493   2.065   8.511   2.485 -0.6948 -2.4024  1.3073
11478SOL    HW246494   2.206   8.437   2.449  0.3747 -0.2667  1.0383
11479SOL     OW46495   0.085   0.809   4.299 -0.1522 -0.8994  0.1306
11479SOL    HW146496   0.061   0.885   4.359 -0.6296 -0.5123 -0.5326
11479SOL    HW246497   0.083   0.723   4.350  1.9296 -0.3074  1.2692
11480SOL     OW46498   6.275   8.909   6.158  0.6080 -0.5652 -0.2882
11480SOL    HW146499   6.274   8.940   6.253 -0.7626 -1.1647 -0.0960
11480SOL    HW246500   6.369   8.912   6.123  0.8751  1.3936  0.5003
11481SOL     OW46501   3.966   9.392   2.619 -0.5111  0.0377  0.1807
11481SOL    HW146502   3.909   9.352   2.547  0.2396  1.3945 -1.1900
11481SOL    HW246503   3.909   9.442   2.684 -0.8569  1.9057 -1.5184
11482SOL     OW46504   1.367   9.261   6.383  0.7586 -0.5527  0.1856
11482SOL    HW146505   1.331   9.293   6.471  0.2836 -2.0759  0.5482
11482SOL    HW246506   1.307   9.294   6.310  1.2764  0.9041  0.3892
11483SOL     OW46507   8.967   5.508   3.543 -0.3218  0.2956  0.1617
11483SOL    HW146508   8.882   5.537   3.498 -0.7103  0.4216  0.9747
11483SOL    HW246509   8.972   5.548   3.634  0.7210  0.4651  0.0366
11484SOL     OW46510   6.388   9.600   7.211 -0.4740 -0.4321  0.1375
11484SOL    HW146511   6.447   9.657   7.267  0.1671 -0.7223 -0.2345
11484SOL    HW246512   6.443   9.530   7.165 -0.6887  0.9903 -2.3636
11485SOL     OW46513   9.579   8.402   7.553  0.3107 -0.2063 -0.0093
11485SOL    HW146514   9.512   8.397   7.479 -1.0629  2.3042  1.0100
11485SOL    HW246515   9.671   8.413   7.514 -0.0970 -1.4312 -1.3639
11486SOL     OW46516   1.633   8.582   1.563  0.3418  0.0370 -0.3206
11486SOL    HW146517   1.606   8.674   1.590 -1.6208 -0.3858 -0.7294
11486SOL    HW246518   1.553   8.532   1.529  1.6776 -1.2728 -1.6843
11487SOL     OW46519   7.332   5.570   2.375  0.2671 -0.4942  0.2457
11487SOL    HW146520   7.236   5.565   2.404 -0.5790  2.2961 -1.8637
11487SOL    HW246521   7.339   5.551   2.277  1.9540 -1.2153  0.4887
11488SOL     OW46522   4.320   3.836   4.723 -0.2953 -0.2861  0.5861
11488SOL    HW146523   4.409   3.846   4.679 -0.2220 -0.3396  0.7204
11488SOL    HW246524   4.248   3.863   4.660 -0.1552  0.1978  0.6282
11489SOL     OW46525   9.301   2.185   6.809  0.0860  0.2981 -0.4026
11489SOL    HW146526   9.381   2.189   6.869 -1.1709 -0.8796  1.4141
11489SOL    HW246527   9.219   2.207   6.862 -0.5741  4.1311 -2.7998
11490SOL     OW46528   5.412   8.739   7.581  0.2021  0.0928  0.1303
11490SOL    HW146529   5.506   8.765   7.560  0.2038 -1.0047 -1.2728
11490SOL    HW246530   5.358   8.737   7.497 -0.5953 -1.1845  0.6480
11491SOL     OW46531   4.407   1.518   7.511 -0.1486 -0.4567  0.0993
11491SOL    HW146532   4.446   1.571   7.587 -0.5587  2.0802 -1.4144
11491SOL    HW246533   4.480   1.497   7.445 -0.0807 -1.3910  0.4677
11492SOL     OW46534   7.606   9.522   8.877 -0.8180 -0.3598  0.3675
11492SOL    HW146535   7.679   9.589   8.858 -1.0204 -0.2302  0.0398
11492SOL    HW246536   7.523   9.570   8.905 -0.1972 -0.5864  2.7515
11493SOL     OW46537   0.271   6.750   9.903 -0.6456  0.1844 -0.4193
11493SOL    HW146538   0.175   6.733   9.922 -0.0113 -0.4859  2.5784
11493SOL    HW246539   0.316   6.784   9.986  1.9364 -0.7108 -1.3735
11494SOL     OW46540   9.875   0.075   6.256  0.2111  0.2035 -0.7748
11494SOL    HW146541   9.797   0.097   6.314  1.0726 -2.6270  1.5770
11494SOL    HW246542   9.854  -0.007   6.202  1.0361  0.2269 -1.1413
11495SOL     OW46543   8.212   3.331   3.977 -0.6088 -0.0876 -0.2869
11495SOL    HW146544   8.307   3.361   3.993 -0.3747 -0.3946 -1.1028
11495SOL    HW246545   8.157   3.354   4.057  0.0040  0.7193 -0.0880
11496SOL     OW46546   4.658   4.145   7.830  0.1563 -0.2878 -0.6858
11496SOL    HW146547   4.721   4.087   7.882  1.2851  1.0602 -0.5420
11496SOL    HW246548   4.709   4.206   7.771 -1.0768 -0.4358 -1.9319
11497SOL     OW46549   0.024   1.832   7.490 -0.2597 -0.6902  0.2054
11497SOL    HW146550  -0.033   1.893   7.545  0.3330 -0.8783  1.0359
11497SOL    HW246551   0.082   1.777   7.551 -0.5398 -1.8333 -0.5375
11498SOL     OW46552   3.107   1.740   9.269 -0.6969  0.3062 -0.0619
11498SOL    HW146553   3.205   1.758   9.279  0.0488 -3.5880  0.5117
11498SOL    HW246554   3.056   1.793   9.337  0.9215  2.6837 -0.6150
11499SOL     OW46555   4.049   7.830   0.815  0.0748 -0.2123  0.1687
11499SOL    HW146556   4.019   7.769   0.888  1.8381  0.0016  1.0876
11499SOL    HW246557   4.012   7.922   0.831  0.2023 -0.2410  0.6241
11500SOL     OW46558   7.583   1.527   1.541 -0.6919 -0.0020 -0.9765
11500SOL    HW146559   7.500   1.560   1.497 -0.9179 -0.4119 -0.8620
11500SOL    HW246560   7.562   1.497   1.634  0.2613  3.2942  0.3758
11501SOL     OW46561   1.648   1.004   7.952  0.1452 -0.0525  0.1115
11501SOL    HW146562   1.742   1.040   7.953 -0.1615  0.7615 -0.0308
11501SOL    HW246563   1.632   0.957   7.866  0.1474  0.5564 -0.2248
11502SOL     OW46564   9.038   1.856   2.067 -0.0358 -0.1212  0.5470
11502SOL    HW146565   9.000   1.946   2.087 -1.5016 -0.4414 -0.7118
11502SOL    HW246566   9.102   1.863   1.991 -0.2769 -0.1576  0.3380
11503SOL     OW46567   3.817   5.126   7.951  0.5489  0.5375 -0.2047
11503SOL    HW146568   3.762   5.164   8.025  1.0366  0.2906  0.2868
11503SOL    HW246569   3.860   5.041   7.982  1.1149  0.6688 -0.6270
11504SOL     OW46570   2.726   2.279   9.009 -0.3372  0.4414 -0.1330
11504SOL    HW146571   2.788   2.327   9.071  0.4089 -1.9301  1.0128
11504SOL    HW246572   2.773   2.201   8.969 -1.9458 -0.1776 -0.8651
11505SOL     OW46573   1.879   4.702   2.571  0.3097  0.3793 -0.1909
11505SOL    HW146574   1.927   4.637   2.512 -0.1293 -0.0747 -0.0551
11505SOL    HW246575   1.946   4.759   2.619  0.7623 -1.0080  0.8574
11506SOL     OW46576   5.310   1.217   4.107  0.2463 -0.2349 -0.0204
11506SOL    HW146577   5.356   1.129   4.094 -0.8930 -1.0115  1.1068
11506SOL    HW246578   5.292   1.231   4.204  0.6565  1.3819 -0.1632
11507SOL     OW46579   0.924   5.440   1.100  0.3080 -0.1344 -0.3475
11507SOL    HW146580   0.944   5.497   1.180  0.6555 -0.2546 -0.3487
11507SOL    HW246581   0.863   5.365   1.127  0.5545 -0.2671 -0.1635
11508SOL     OW46582   9.758   4.429   1.156  0.2314 -0.5160  0.2288
11508SOL    HW146583   9.849   4.446   1.193 -0.3128 -0.5044  1.6258
11508SOL    HW246584   9.757   4.447   1.058  1.4597  0.5548  0.3995
11509SOL     OW46585   0.837   7.235   5.048  0.1702 -0.1879  0.2609
11509SOL    HW146586   0.797   7.157   5.097 -1.4345  0.7112  0.3876
11509SOL    HW246587   0.768   7.280   4.992  2.1887 -1.7885 -3.7380
11510SOL     OW46588   2.469   7.230   7.284 -0.1512  0.5283  0.3658
11510SOL    HW146589   2.383   7.241   7.334 -0.4793 -0.8240  0.1249
11510SOL    HW246590   2.470   7.291   7.205 -1.0974  0.2167  0.1042
11511SOL     OW46591   1.833   6.643   7.160 -0.3513  0.1812 -0.3931
11511SOL    HW146592   1.930   6.622   7.174 -0.4949 -1.0200 -1.1698
11511SOL    HW246593   1.785   6.639   7.248 -0.0734 -1.2057 -0.3018
11512SOL     OW46594   3.512   0.370   0.999 -0.1089  0.5133 -0.4166
11512SOL    HW146595   3.462   0.408   0.921  0.1574 -0.0208 -0.8478
11512SOL    HW246596   3.530   0.443   1.066 -0.9152  0.8355 -0.5452
11513SOL     OW46597   8.646   4.637   6.430 -1.0062  0.6017  0.4700
11513SOL    HW146598   8.611   4.555   6.476 -1.0217  0.4278  0.1553
11513SOL    HW246599   8.592   4.654   6.348  1.1447 -1.0844 -1.3496
11514SOL     OW46600   3.235   1.125   6.205 -0.4921  0.2051  0.1699
11514SOL    HW146601   3.205   1.142   6.111  1.9436  0.4063 -0.6033
11514SOL    HW246602   3.188   1.045   6.241  1.0934 -1.9868 -2.4569
11515SOL     OW46603   0.601   9.027   8.630 -0.1117  0.6371 -0.1795
11515SOL    HW146604   0.641   9.061   8.545 -0.7787 -0.6746 -1.0285
11515SOL    HW246605   0.511   9.068   8.644 -1.3068 -1.4071 -1.6637
11516SOL     OW46606   6.527   2.720   2.046 -0.3480  0.8282  0.4726
11516SOL    HW146607   6.614   2.674   2.036 -0.9790 -0.9600  2.6845
11516SOL    HW246608   6.536   2.793   2.114 -0.4640  0.9144  0.3948
11517SOL     OW46609   4.269   2.345   3.878 -0.2246 -0.3782  0.2091
11517SOL    HW146610   4.240   2.384   3.965  1.5484  0.2369  0.5510
11517SOL    HW246611   4.283   2.419   3.812 -0.1212 -0.7135 -0.1453
11518SOL     OW46612   1.805   0.870   8.877  0.0417  0.0539 -0.0772
11518SOL    HW146613   1.825   0.884   8.974 -0.8233  0.1495  0.0984
11518SOL    HW246614   1.735   0.935   8.848 -0.2295 -0.4544 -0.5761
11519SOL     OW46615   6.037   9.139   5.454 -0.5031 -0.1846  0.4884
11519SOL    HW146616   6.110   9.178   5.398  0.3077 -0.5582  1.2650
11519SOL    HW246617   6.000   9.210   5.514 -1.4762  0.2507 -0.6260
11520SOL     OW46618   2.476   0.359   4.773  0.0082 -0.2397 -0.3396
11520SOL    HW146619   2.442   0.444   4.812 -0.0809 -0.9228  1.1281
11520SOL    HW246620   2.398   0.300   4.749  0.0761 -0.0673 -0.9884
11521SOL     OW46621   9.120   0.121   9.096  0.4303  0.1844  0.3563
11521SOL    HW146622   9.202   0.173   9.117  1.1831 -0.1757 -1.5619
11521SOL    HW246623   9.041   0.163   9.142  1.4318  1.4283  0.9815
11522SOL     OW46624   3.630   6.674   1.454 -0.0266  0.3527 -0.1005
11522SOL    HW146625   3.570   6.705   1.529 -0.2759  2.1303 -1.0115
11522SOL    HW246626   3.725   6.684   1.482 -0.1180 -0.7605  0.6686
11523SOL     OW46627   1.412   8.573   3.004 -0.1057 -0.2580 -0.2093
11523SOL    HW146628   1.461   8.639   3.061 -0.5459 -0.5204  0.4836
11523SOL    HW246629   1.316   8.600   2.997 -1.0656 -2.5525  2.8154
11524SOL     OW46630   2.477   5.328   3.720 -0.1146 -0.2259 -0.4470
11524SOL    HW146631   2.410   5.378   3.665  0.8849  1.2040 -0.3855
11524SOL    HW246632   2.542   5.392   3.759 -0.8575 -1.2253  2.5218
11525SOL     OW46633   2.709   4.178   8.508 -0.0432 -0.1317 -0.8384
11525SOL    HW146634   2.612   4.182   8.483 -0.2913 -0.4327  0.0935
11525SOL    HW246635   2.762   4.153   8.427 -0.6517  0.8718 -1.5711
11526SOL     OW46636   1.762   9.760   3.820 -0.0327  0.3109  0.9387
11526SOL    HW146637   1.819   9.766   3.901  3.0616  0.5629 -1.1541
11526SOL    HW246638   1.740   9.853   3.788  1.9096  0.2744 -0.5844
11527SOL     OW46639   4.406   5.605   8.965  0.0587  0.3381 -0.0210
11527SOL    HW146640   4.449   5.619   9.055 -1.3546  0.4915  0.6371
11527SOL    HW246641   4.396   5.506   8.949  3.3964  0.1845 -1.5060
11528SOL     OW46642   7.983   6.583   7.759 -0.4623 -0.3264 -0.4372
11528SOL    HW146643   7.904   6.610   7.814  0.0925  1.8821 -0.6784
11528SOL    HW246644   7.953   6.563   7.666 -0.8961 -0.5383 -0.2530
11529SOL     OW46645   9.377   0.357   8.193  0.0105 -0.0892 -0.1139
11529SOL    HW146646   9.309   0.368   8.266 -0.8461  0.7529 -1.0272
11529SOL    HW246647   9.361   0.271   8.145  0.5730 -0.6436  0.6777
11530SOL     OW46648   6.765   9.228   9.514 -0.8114  0.0174 -0.0437
11530SOL    HW146649   6.704   9.202   9.439  0.0005 -0.3037 -0.5998
11530SOL    HW246650   6.771   9.328   9.519 -0.8668  0.0421 -0.4201
11531SOL     OW46651   9.018   1.581   7.163  0.0557 -0.2415  0.0106
11531SOL    HW146652   9.099   1.565   7.220  0.5625 -1.0735 -0.9220
11531SOL    HW246653   8.951   1.634   7.214  0.5143 -0.9520  1.3622
11532SOL     OW46654   9.336   6.698   8.703  0.2239 -0.4307 -0.3812
11532SOL    HW146655   9.278   6.635   8.651 -0.4828 -0.2536  0.1707
11532SOL    HW246656   9.339   6.786   8.657 -0.1456 -0.3669 -0.2834
11533SOL     OW46657   1.566   7.279   0.145  0.0579 -0.2241 -0.5040
11533SOL    HW146658   1.606   7.190   0.169 -0.4362  0.0342  1.3698
11533SOL    HW246659   1.489   7.265   0.082 -0.6165 -1.2126  0.5162
11534SOL     OW46660   5.880   0.331   6.353  0.1488 -0.4891 -0.1215
11534SOL    HW146661   5.795   0.280   6.368  1.0188 -1.3445  2.2981
11534SOL    HW246662   5.942   0.277   6.297 -0.0641 -0.8310 -0.0307
11535SOL     OW46663   5.990   7.238   3.762 -0.3370 -0.0045 -0.2914
11535SOL    HW146664   5.998   7.138   3.763  0.8726  0.0506 -1.6291
11535SOL    HW246665   6.056   7.275   3.696 -0.0696  1.7481  0.9414
11536SOL     OW46666   2.445   7.597   9.351 -0.8807 -0.1250 -0.0606
11536SOL    HW146667   2.463   7.621   9.256 -0.9386  1.5624  0.3354
11536SOL    HW246668   2.364   7.538   9.355 -0.3322 -0.9695 -1.1265
11537SOL     OW46669   4.008   8.612   7.115  0.6026 -0.3093 -0.4184
11537SOL    HW146670   3.944   8.536   7.103  0.4531 -0.2442 -0.0446
11537SOL    HW246671   3.958   8.698   7.111  0.7148 -0.2453 -0.4338
11538SOL     OW46672   1.632   9.454   6.625 -0.7271 -0.0602 -0.4012
11538SOL    HW146673   1.723   9.412   6.632 -1.0592 -0.7092  0.1380
11538SOL    HW246674   1.629   9.537   6.680 -0.8850 -0.8211  0.7716
11539SOL     OW46675   2.981   5.915   4.015 -0.3537  0.6561  0.0784
11539SOL    HW146676   3.005   5.838   3.956 -0.7931  1.1498 -0.7571
11539SOL    HW246677   2.979   5.885   4.110  0.6207 -0.0859 -0.1321
11540SOL     OW46678   4.975   1.249   5.586  0.2355 -0.1903  0.1749
11540SOL    HW146679   4.952   1.331   5.638  3.2908 -0.2521  1.7412
11540SOL    HW246680   5.023   1.275   5.502 -1.2533 -0.2766 -0.7202
11541SOL     OW46681   1.793   1.522   4.410  0.1205 -0.0709 -0.0412
11541SOL    HW146682   1.864   1.591   4.415  1.9358 -1.9357  0.7735
11541SOL    HW246683   1.715   1.550   4.466  0.7666  1.3564  0.1613
11542SOL     OW46684   0.127   3.560   8.291  0.0397 -0.8929  0.1670
11542SOL    HW146685   0.059   3.540   8.222  1.2974 -1.9603 -0.7839
11542SOL    HW246686   0.207   3.602   8.248 -0.1684  0.7392  1.3210
11543SOL     OW46687   7.352   9.275   4.887  0.3290 -0.1708 -0.0273
11543SOL    HW146688   7.266   9.226   4.900  0.3093  0.1524  1.1242
11543SOL    HW246689   7.405   9.272   4.972  1.1848  0.1467 -0.5467
11544SOL     OW46690   8.474   5.604   7.834  0.0576 -0.1015  0.2506
11544SOL    HW146691   8.407   5.569   7.770  1.4154 -2.6791  0.1546
11544SOL    HW246692   8.472   5.549   7.918 -0.6423  2.2556  1.8234
11545SOL     OW46693   1.270   2.557   8.709 -0.0316  0.1122 -0.5286
11545SOL    HW146694   1.351   2.574   8.766 -0.0670 -0.3425 -0.3435
11545SOL    HW246695   1.208   2.495   8.756 -1.3591  1.8819  0.1197
11546SOL     OW46696   1.788   9.316   3.885  0.1790  0.2595  0.3921
11546SOL    HW146697   1.786   9.375   3.966  1.0602 -0.3621  0.8736
11546SOL    HW246698   1.701   9.324   3.836 -0.5072  0.3890  1.5975
11547SOL     OW46699   2.805   4.239   3.829 -0.0897 -0.2745  0.3192
11547SOL    HW146700   2.743   4.295   3.774 -0.3360  0.2173  1.0922
11547SOL    HW246701   2.885   4.293   3.855 -0.3736 -0.2459  1.1498
11548SOL     OW46702   0.618   9.257   1.483 -0.1831 -0.4721 -0.4471
11548SOL    HW146703   0.624   9.345   1.435  0.8160 -0.3866 -0.1911
11548SOL    HW246704   0.529   9.249   1.527 -0.3043  0.3923 -0.5222
11549SOL     OW46705   8.486   4.080   6.294 -0.0315 -0.7009 -0.1927
11549SOL    HW146706   8.414   4.119   6.351  1.5507 -1.9159  2.7716
11549SOL    HW246707   8.554   4.151   6.273 -1.2273  0.0405 -1.6036
11550SOL     OW46708   5.173   3.948   0.840  0.3606 -0.0665  0.2129
11550SOL    HW146709   5.164   3.948   0.741 -0.6212  1.3832  0.2952
11550SOL    HW246710   5.166   3.854   0.874 -2.3809 -0.2891 -0.8394
11551SOL     OW46711   4.504   1.754   8.439 -0.5612 -0.0820  0.5439
11551SOL    HW146712   4.478   1.844   8.404 -1.1291 -0.6270 -0.4760
11551SOL    HW246713   4.425   1.712   8.484 -0.8153 -0.7737 -0.5099
11552SOL     OW46714   7.128   0.701   3.603  0.1230 -0.3318 -0.2342
11552SOL    HW146715   7.184   0.648   3.540  1.7227  2.0344 -0.8663
11552SOL    HW246716   7.032   0.693   3.578  0.3935 -2.3489 -0.7149
11553SOL     OW46717   8.785   3.126   1.157  0.5214 -0.1040  0.1333
11553SOL    HW146718   8.750   3.212   1.120  0.7953  0.5016  1.2452
11553SOL    HW246719   8.844   3.146   1.235 -0.3467 -1.3673  1.1253
11554SOL     OW46720   3.083   3.448   2.677  0.2835  0.3136  0.1580
11554SOL    HW146721   3.135   3.475   2.758 -0.1434 -2.0740  1.2560
11554SOL    HW246722   2.990   3.421   2.704 -0.0773  0.1504 -1.2044
11555SOL     OW46723   2.003   7.623   7.003  0.1518  0.2527  0.1126
11555SOL    HW146724   2.011   7.584   6.911  0.8245  2.7591 -0.9300
11555SOL    HW246725   2.083   7.599   7.057  0.8621  0.6958 -0.7289
11556SOL     OW46726   6.186   9.219   3.266 -0.3628  0.1211 -0.0074
11556SOL    HW146727   6.189   9.128   3.308  0.5432  0.2277  0.1840
11556SOL    HW246728   6.200   9.210   3.167  0.8949  0.1357  0.1578
11557SOL     OW46729   0.845   0.509   0.697 -0.0652  0.5117 -0.2386
11557SOL    HW146730   0.885   0.583   0.644 -0.9215  0.3003 -1.2078
11557SOL    HW246731   0.753   0.488   0.662 -0.7967  0.5992  1.5621
11558SOL     OW46732   3.543   5.074   5.199 -0.0594  0.0889 -0.3362
11558SOL    HW146733   3.616   5.038   5.141  0.1757  0.4291 -0.2563
11558SOL    HW246734   3.583   5.132   5.270 -0.2633 -1.0640  0.7282
11559SOL     OW46735   9.625   5.833   4.104  0.0846  0.0952  0.0137
11559SOL    HW146736   9.560   5.843   4.180  0.1303 -2.3040  0.3930
11559SOL    HW246737   9.603   5.900   4.033 -2.2005  0.0020  0.5771
11560SOL     OW46738   2.434   2.295   9.059 -0.1212 -0.2321 -0.1250
11560SOL    HW146739   2.416   2.382   9.104 -1.2257 -1.2306  1.4353
11560SOL    HW246740   2.530   2.291   9.030  0.4000  0.7591  1.4253
11561SOL     OW46741   1.854   4.431   1.047 -0.6503 -0.3087 -0.0788
11561SOL    HW146742   1.861   4.506   1.113 -0.8692 -0.5977  0.2732
11561SOL    HW246743   1.914   4.449   0.969  0.6409 -0.6352  0.8371
11562SOL     OW46744   3.238   6.444   0.854  0.3047 -0.0510  0.4143
11562SOL    HW146745   3.280   6.482   0.937 -0.8771 -1.4905  1.6919
11562SOL    HW246746   3.139   6.435   0.868 -0.0830  0.8274 -1.6025
11563SOL     OW46747   7.407   5.614   2.797 -0.0108 -0.3571 -0.0006
11563SOL    HW146748   7.426   5.674   2.875 -0.6075  0.1766 -0.2631
11563SOL    HW246749   7.368   5.668   2.722  0.4423 -0.8900 -0.6229
11564SOL     OW46750   7.205   2.059   1.544 -0.0176  0.4728 -0.0807
11564SOL    HW146751   7.295   2.104   1.545  1.0480 -1.5559 -0.9517
11564SOL    HW246752   7.183   2.032   1.450 -0.2914 -1.4718  0.5313
11565SOL     OW46753   9.519   2.125   0.915 -0.3883 -0.0426  0.3061
11565SOL    HW146754   9.497   2.047   0.974  0.2753  0.2415  0.9391
11565SOL    HW246755   9.583   2.098   0.844  0.3682  0.0764  0.9356
11566SOL     OW46756   5.086   8.872   2.797  0.0431  0.1310 -0.3795
11566SOL    HW146757   5.105   8.785   2.752 -0.9123  0.5832 -1.6863
11566SOL    HW246758   5.043   8.934   2.732  0.9531  1.6697  0.4850
11567SOL     OW46759   2.341   9.699   0.980  0.4495 -0.2786  0.3801
11567SOL    HW146760   2.360   9.622   0.920  0.8970 -1.1476  1.6265
11567SOL    HW246761   2.424   9.755   0.989  0.2473  0.1131 -0.1846
11568SOL     OW46762   0.192   4.363   7.627 -0.1311 -0.2426  0.3589
11568SOL    HW146763   0.139   4.419   7.691 -0.6032 -1.3258  0.9133
11568SOL    HW246764   0.198   4.269   7.661  1.8641 -0.2224  0.1380
11569SOL     OW46765   6.675   5.210   1.222 -0.6241  0.0915  0.3820
11569SOL    HW146766   6.718   5.239   1.308 -0.4323 -1.7551  0.9456
11569SOL    HW246767   6.652   5.290   1.167 -2.3402  1.4367  2.9170
11570SOL     OW46768   9.274   6.189   2.385  0.2807 -0.6066  0.0786
11570SOL    HW146769   9.356   6.133   2.386  0.3739 -0.4786 -0.2519
11570SOL    HW246770   9.248   6.209   2.290 -0.5134 -1.2167  0.1607
11571SOL     OW46771   6.884   8.327   4.536 -0.3937 -0.2908  0.5282
11571SOL    HW146772   6.822   8.250   4.552  1.0761 -1.4702  0.6231
11571SOL    HW246773   6.878   8.355   4.440 -0.3847 -1.0210  0.3080
11572SOL     OW46774   1.645   4.315   2.725  0.2270 -0.2551  0.5393
11572SOL    HW146775   1.647   4.338   2.822 -0.3646 -0.4603  0.6036
11572SOL    HW246776   1.725   4.259   2.703  0.8485  0.5555  0.7078
11573SOL     OW46777   3.687   8.911   2.892 -0.3084 -0.4890  0.3876
11573SOL    HW146778   3.615   8.980   2.885  0.1892  0.0518  0.6009
11573SOL    HW246779   3.760   8.944   2.951 -0.8812 -1.9143  1.9177
11574SOL     OW46780   3.281   2.698   4.389  0.0024  0.0136  0.1577
11574SOL    HW146781   3.196   2.694   4.335  0.3427  0.5318 -0.4302
11574SOL    HW246782   3.357   2.722   4.328  0.4779  0.0789  0.7804
11575SOL     OW46783   7.183   0.731   1.624  0.5687  0.7532  0.4528
11575SOL    HW146784   7.277   0.765   1.623  0.3624  1.3021 -1.4813
11575SOL    HW246785   7.165   0.686   1.712  2.9875 -0.3947  0.3886
11576SOL     OW46786   7.779   2.885   9.876  0.3973 -0.2238  0.2112
11576SOL    HW146787   7.763   2.915   9.782  0.8798 -0.3729  0.0786
11576SOL    HW246788   7.741   2.952   9.939  1.3804  0.6281 -0.0839
11577SOL     OW46789   5.372   8.953   3.451  0.2178 -0.2522 -0.1272
11577SOL    HW146790   5.331   9.035   3.413 -0.2086 -0.5202 -0.2477
11577SOL    HW246791   5.305   8.879   3.453  0.7758 -0.7918 -0.6393
11578SOL     OW46792   3.811   7.435   1.420 -0.6092 -0.3949 -0.0781
11578SOL    HW146793   3.887   7.372   1.431 -0.7135 -0.2135  1.8860
11578SOL    HW246794   3.736   7.390   1.372  0.3017 -0.9199 -1.0249
11579SOL     OW46795   9.590   2.333   1.960  0.4819 -0.5497 -0.3551
11579SOL    HW146796   9.572   2.386   2.044 -1.7819 -0.1288 -1.0555
11579SOL    HW246797   9.644   2.388   1.897 -1.2038  0.7017 -0.7662
11580SOL     OW46798   8.164   3.319   9.564  0.4181  0.8418 -0.2306
11580SOL    HW146799   8.143   3.311   9.661 -0.2685 -0.4487 -0.4702
11580SOL    HW246800   8.263   3.328   9.552  0.4868  1.2296  0.5931
11581SOL     OW46801   8.173   8.049   4.859 -0.5389 -0.8861  0.5364
11581SOL    HW146802   8.208   8.083   4.771  1.0414  0.4284  1.6304
11581SOL    HW246803   8.074   8.039   4.853 -0.9059  2.5247 -0.3508
11582SOL     OW46804   6.004   5.544   1.724 -0.1930 -0.1880  0.1736
11582SOL    HW146805   6.024   5.642   1.731 -1.0252  0.2400 -2.7638
11582SOL    HW246806   5.915   5.525   1.764  0.0526  0.2434  0.9241
11583SOL     OW46807   9.362   5.814   8.473 -0.2698 -0.2686  0.1592
11583SOL    HW146808   9.326   5.838   8.563  2.8566  4.6356  0.3000
11583SOL    HW246809   9.438   5.750   8.484  0.3091  0.5583  1.0600
11584SOL     OW46810   5.540   2.370   9.502 -0.4210 -0.6580  0.1532
11584SOL    HW146811   5.547   2.270   9.498 -2.7984 -0.9657  2.5172
11584SOL    HW246812   5.628   2.408   9.528  0.0916 -2.2435  0.7965
11585SOL     OW46813   9.592   6.523   4.517 -0.6572 -0.1574 -0.3851
11585SOL    HW146814   9.610   6.429   4.544  3.0332  0.2445 -1.1539
11585SOL    HW246815   9.534   6.524   4.436 -0.7253 -1.7475 -0.3721
11586SOL     OW46816   2.153   8.290   6.761 -0.1344 -0.3081  0.3382
11586SOL    HW146817   2.097   8.208   6.775  0.2313 -0.1213  3.2985
11586SOL    HW246818   2.095   8.364   6.728 -0.6598 -1.4677 -1.4027
11587SOL     OW46819   4.411   6.886   2.720 -0.4112 -0.2804 -0.0903
11587SOL    HW146820   4.483   6.832   2.675 -0.0555  0.6333 -0.6435
11587SOL    HW246821   4.340   6.907   2.653 -0.1847  0.5624 -0.0674
11588SOL     OW46822   4.554   6.299   2.309  0.0579 -0.3268  0.4284
11588SOL    HW146823   4.516   6.236   2.242  0.7340 -1.1329  0.7929
11588SOL    HW246824   4.650   6.276   2.326  0.7473  1.7311 -0.5399
11589SOL     OW46825   7.530   1.888   8.844  0.1943 -0.2701  0.6259
11589SOL    HW146826   7.462   1.823   8.810  0.6342 -0.3383 -0.1267
11589SOL    HW246827   7.561   1.859   8.934  2.2717 -2.5198 -0.7757
11590SOL     OW46828   3.231   1.084   3.184 -0.1786 -0.3141 -0.2185
11590SOL    HW146829   3.305   1.018   3.169 -0.6787 -1.0120  0.4086
11590SOL    HW246830   3.270   1.170   3.216  0.3631 -0.6766  0.0988
11591SOL     OW46831   1.938   7.683   7.886 -0.8388  0.2964  0.0192
11591SOL    HW146832   1.938   7.685   7.986 -1.4781  0.4080  0.0241
11591SOL    HW246833   2.015   7.629   7.853 -0.0378  1.0975  0.5529
11592SOL     OW46834   7.617   4.805   0.801 -0.0886 -0.0684 -0.7716
11592SOL    HW146835   7.573   4.884   0.845 -0.3279  0.3800 -1.8106
11592SOL    HW246836   7.695   4.776   0.856 -2.0006 -1.2291  1.4134
11593SOL     OW46837   1.003   8.712   3.586  0.5859 -0.0719 -0.0613
11593SOL    HW146838   1.084   8.763   3.615  1.2412 -1.5287  0.6887
11593SOL    HW246839   1.016   8.615   3.604 -0.7635 -0.4889 -1.2493
11594SOL     OW46840   2.143   0.131   1.021  0.3278 -0.1427  0.5519
11594SOL    HW146841   2.125   0.057   1.085  0.6941 -0.5701  0.1611
11594SOL    HW246842   2.056   0.170   0.990  0.1286 -0.6764  0.4401
11595SOL     OW46843   1.236   4.408   1.669 -0.1132  0.0922  0.1855
11595SOL    HW146844   1.323   4.436   1.710 -0.3485 -0.5798  1.1513
11595SOL    HW246845   1.222   4.458   1.584  0.9670  0.5988  0.2986
11596SOL     OW46846   4.600   7.843   7.673  0.2706 -0.0628 -0.3388
11596SOL    HW146847   4.551   7.798   7.598 -2.1757  0.6939  0.7437
11596SOL    HW246848   4.638   7.929   7.641 -0.0906 -0.1205 -0.9313
11597SOL     OW46849   4.249   8.536   2.787  0.8043  0.0701 -0.6092
11597SOL    HW146850   4.336   8.543   2.737  1.5981  0.0640  0.7610
11597SOL    HW246851   4.183   8.598   2.745  1.3199 -0.2738 -1.9635
11598SOL     OW46852   4.309   6.666   7.191  0.1834 -0.0980  0.1464
11598SOL    HW146853   4.370   6.634   7.264  0.2868 -0.8374 -0.2579
11598SOL    HW246854   4.215   6.665   7.225  0.3705  0.8672  0.7108
11599SOL     OW46855   0.075   8.915   0.349 -0.0570  0.1877  0.7493
11599SOL    HW146856  -0.009   8.969   0.341 -1.4288 -1.9900 -0.2632
11599SOL    HW246857   0.111   8.897   0.258 -1.1115 -2.7830  0.8749
11600SOL     OW46858   1.954   1.454   6.573  0.4257 -0.0555  0.2220
11600SOL    HW146859   1.911   1.535   6.613  0.5500  0.4536 -0.6530
11600SOL    HW246860   1.944   1.457   6.474  0.6923 -0.9693  0.1627
11601SOL     OW46861   2.269   5.565   2.000 -0.3537  0.6608 -0.0878
11601SOL    HW146862   2.326   5.639   2.036 -0.7164  1.0783 -0.3597
11601SOL    HW246863   2.185   5.558   2.054 -1.8218  2.6079 -2.0217
11602SOL     OW46864   9.627   7.677   3.070 -0.1757  0.0834  0.0213
11602SOL    HW146865   9.715   7.631   3.082 -0.3652 -0.2452  0.1738
11602SOL    HW246866   9.629   7.767   3.115  0.1080  0.1093 -0.0471
11603SOL     OW46867   0.076   0.456   5.204  0.4937  0.3754 -0.1236
11603SOL    HW146868   0.099   0.417   5.116  0.7806 -2.7648  1.2868
11603SOL    HW246869  -0.022   0.475   5.208  0.4864  0.5619 -1.0989
11604SOL     OW46870   0.405   0.250   4.966  0.1680 -0.7853  0.0354
11604SOL    HW146871   0.468   0.325   4.946 -1.0876  0.5515  0.9955
11604SOL    HW246872   0.456   0.175   5.009  1.0816  0.3758  1.0157
11605SOL     OW46873   9.697   8.625   7.933 -0.0773  0.7889 -0.0913
11605SOL    HW146874   9.718   8.579   8.019  2.2102 -0.1277 -1.1093
11605SOL    HW246875   9.776   8.676   7.901 -0.5054  0.1898 -2.2208
11606SOL     OW46876   7.512   5.270   9.654  0.2528  0.3036 -0.1776
11606SOL    HW146877   7.586   5.241   9.714  0.3195  0.4264 -0.1985
11606SOL    HW246878   7.495   5.200   9.586  1.3930  0.9165 -1.1267
11607SOL     OW46879   1.994   2.269   1.761 -0.6659 -0.1177 -0.1376
11607SOL    HW146880   2.018   2.258   1.858  1.3381 -1.2805 -0.7247
11607SOL    HW246881   1.904   2.228   1.744 -0.5261 -0.9371  1.0150
11608SOL     OW46882   4.969   6.767   2.031  0.0562  0.0183  0.1592
11608SOL    HW146883   5.034   6.708   2.078  0.2524 -0.1678 -0.3417
11608SOL    HW246884   4.885   6.775   2.085  0.0557 -0.6639  0.2544
11609SOL     OW46885   1.942   7.988   5.463  0.8622  0.3004  0.0548
11609SOL    HW146886   1.929   7.911   5.400 -0.3641  0.0125  0.6434
11609SOL    HW246887   1.902   8.071   5.424  0.7769  0.2909  0.1215
11610SOL     OW46888   0.182   2.995   4.827 -0.3701  0.0978 -0.2813
11610SOL    HW146889   0.232   3.055   4.889  2.0727 -1.0061 -1.1255
11610SOL    HW246890   0.120   3.051   4.770  1.2824  1.7541 -0.5150
11611SOL     OW46891   8.410   4.156   4.880 -0.0437  0.3611  0.7382
11611SOL    HW146892   8.502   4.188   4.900 -1.0029  1.8753  2.8315
11611SOL    HW246893   8.384   4.084   4.945 -0.6484  0.4989  0.6529
11612SOL     OW46894   0.448   4.269   3.277  0.1617  0.4468 -0.0282
11612SOL    HW146895   0.527   4.268   3.216  0.7853  0.9284  0.7609
11612SOL    HW246896   0.441   4.358   3.322 -0.5536  0.2505  0.2639
11613SOL     OW46897   4.805   8.919   8.323  0.0473  0.0811  0.0289
11613SOL    HW146898   4.877   8.947   8.387  0.3875 -0.3950 -0.1450
11613SOL    HW246899   4.801   8.984   8.247 -2.7824  2.7639  2.3104
11614SOL     OW46900   1.901   7.632   7.482 -0.1162 -0.4151  0.2184
11614SOL    HW146901   1.821   7.689   7.502 -1.1059 -2.5996  2.9156
11614SOL    HW246902   1.952   7.616   7.566  1.0909 -2.0654 -0.7851
11615SOL     OW46903   4.954   6.698   4.015 -0.0363 -0.4045 -0.6269
11615SOL    HW146904   4.926   6.654   3.930 -2.3282 -1.0314  0.4174
11615SOL    HW246905   4.900   6.662   4.091  1.1317  1.0218  0.9295
11616SOL     OW46906   8.453   4.612   2.831 -0.6740 -0.3068  0.3363
11616SOL    HW146907   8.457   4.559   2.916  0.6667 -1.4237 -0.4099
11616SOL    HW246908   8.400   4.562   2.763  0.4954 -0.6613 -0.3310
11617SOL     OW46909   2.735   5.274   0.515 -0.0591 -0.2863  0.1750
11617SOL    HW146910   2.736   5.354   0.576 -1.0156  0.4589 -0.7903
11617SOL    HW246911   2.643   5.258   0.481  0.6502 -0.0597 -1.9215
11618SOL     OW46912   0.528   3.323   4.393 -0.2286  0.5442 -0.0430
11618SOL    HW146913   0.554   3.227   4.400  1.1397  0.9345  0.3345
11618SOL    HW246914   0.541   3.368   4.482  0.3759  1.3867 -0.5468
11619SOL     OW46915   3.797   4.390   1.442  0.5552  0.2377  0.5368
11619SOL    HW146916   3.874   4.406   1.379  0.3467 -0.8575 -0.0082
11619SOL    HW246917   3.786   4.292   1.456 -1.9039  0.2840 -0.8272
11620SOL     OW46918   1.589   5.106   2.028 -0.2984 -0.0348  0.2856
11620SOL    HW146919   1.617   5.108   1.932  1.7417  0.4481  0.8678
11620SOL    HW246920   1.516   5.039   2.039  0.7597 -1.5085 -1.2826
11621SOL     OW46921   9.190   1.714   5.777 -0.0324 -0.7759 -0.0183
11621SOL    HW146922   9.254   1.757   5.713  0.5067 -1.1729  0.2482
11621SOL    HW246923   9.238   1.692   5.862 -1.3574  2.2002  1.5965
11622SOL     OW46924   8.631   3.116   1.761 -0.1038 -0.0771  0.0425
11622SOL    HW146925   8.594   3.104   1.853  1.0494  1.2765  0.7016
11622SOL    HW246926   8.584   3.191   1.715  0.3206  0.2249  0.0903
11623SOL     OW46927   3.269   3.937   3.345 -0.2056  0.1302  0.0131
11623SOL    HW146928   3.286   3.984   3.259 -2.6470 -0.7449 -0.9933
11623SOL    HW246929   3.259   4.005   3.418  1.1551  0.9070 -0.4974
11624SOL     OW46930   5.287   6.397   2.938  0.5498  0.3499  0.0258
11624SOL    HW146931   5.335   6.451   2.868  0.5246  1.2250  0.6667
11624SOL    HW246932   5.214   6.345   2.895  0.4736  0.9532 -0.5949
11625SOL     OW46933   2.197   2.367   1.289  0.4419  0.3914  0.1542
11625SOL    HW146934   2.163   2.316   1.368 -1.6442  1.4652 -0.0179
11625SOL    HW246935   2.284   2.411   1.313  0.6417 -0.6053  1.3229
11626SOL     OW46936   2.795   0.039   0.479 -0.0076 -0.1798 -0.3434
11626SOL    HW146937   2.876  -0.008   0.443  0.3066  0.3414 -0.3269
11626SOL    HW246938   2.819   0.084   0.566  0.0667  1.1388 -1.0322
11627SOL     OW46939   4.784   4.606   0.975 -0.1331 -0.5665  0.2723
11627SOL    HW146940   4.856   4.557   0.926 -0.0426  1.1187 -1.3151
11627SOL    HW246941   4.822   4.686   1.020 -0.4807 -1.3336  1.9415
11628SOL     OW46942   1.289   1.357   9.295 -0.1608  0.3523  0.4698
11628SOL    HW146943   1.200   1.387   9.260  0.3949  1.3037 -0.1568
11628SOL    HW246944   1.350   1.339   9.218 -0.1836 -1.4768  0.8680
11629SOL     OW46945   3.408   9.290   6.216  0.0729 -0.5765  0.0370
11629SOL    HW146946   3.400   9.363   6.149 -0.2406  0.5337  1.2493
11629SOL    HW246947   3.366   9.207   6.181 -2.1837  0.6266 -0.2361
11630SOL     OW46948   3.168   8.885   2.991 -0.2259  0.3921  0.1230
11630SOL    HW146949   3.134   8.915   3.080 -2.3832  2.8980 -1.4445
11630SOL    HW246950   3.222   8.959   2.949  1.9299 -1.2671 -0.0891
11631SOL     OW46951   4.005   7.716   5.125 -0.6889 -0.3873 -0.5231
11631SOL    HW146952   4.063   7.665   5.188 -0.1870  0.3224 -0.3998
11631SOL    HW246953   3.974   7.656   5.051 -0.8075 -1.0748  0.0855
11632SOL     OW46954   2.370   0.179   9.630 -0.2763 -0.6154  0.0731
11632SOL    HW146955   2.452   0.128   9.652  0.2997  0.9036  1.5285
11632SOL    HW246956   2.380   0.221   9.540  0.0906 -1.3097 -0.2156
11633SOL     OW46957   8.573   8.669   7.800  0.0692  0.0157  0.5630
11633SOL    HW146958   8.545   8.579   7.766 -2.9933  1.6733 -1.4910
11633SOL    HW246959   8.648   8.704   7.744  0.5271 -0.7390  0.6866
11634SOL     OW46960   3.514   7.548   8.106 -0.1840 -0.6983 -0.0649
11634SOL    HW146961   3.563   7.475   8.060 -2.2467 -1.1736 -1.6075
11634SOL    HW246962   3.568   7.633   8.101  0.5780 -1.2462 -1.5165
11635SOL     OW46963   8.220   0.659   5.176 -0.3521 -0.0587  0.4216
11635SOL    HW146964   8.257   0.578   5.223  0.2895  0.7588  1.3540
11635SOL    HW246965   8.230   0.739   5.235 -1.7334  0.5625 -0.1617
11636SOL     OW46966   3.698   3.876   8.886  0.0128 -0.4238 -0.2548
11636SOL    HW146967   3.689   3.938   8.965  2.2617 -0.9664  0.4486
11636SOL    HW246968   3.621   3.812   8.886 -0.9768  0.7458  0.4628
11637SOL     OW46969   1.755   6.408   6.990  0.7056 -0.2788 -0.4492
11637SOL    HW146970   1.746   6.490   7.046 -2.7754 -0.1051 -1.1630
11637SOL    HW246971   1.766   6.434   6.894  0.1775 -0.6073 -0.6041
11638SOL     OW46972   6.002   2.661   2.548  0.6935 -0.1154  0.7034
11638SOL    HW146973   5.964   2.636   2.459 -1.3269  1.2389  1.1542
11638SOL    HW246974   6.005   2.580   2.607 -1.8829 -0.2265  0.7621
11639SOL     OW46975   2.346   3.964   4.259  0.4914  0.6302  0.0747
11639SOL    HW146976   2.310   3.954   4.167  0.8683 -0.0583  0.0025
11639SOL    HW246977   2.376   3.875   4.293  1.0647  1.0125  0.5678
11640SOL     OW46978   7.824   0.711   6.967 -0.6406  0.7017 -0.4817
11640SOL    HW146979   7.835   0.638   6.900  1.0094  0.1836  0.3167
11640SOL    HW246980   7.773   0.676   7.046  1.0074  0.0747  0.3447
11641SOL     OW46981   9.508   0.612   6.224  0.0851 -0.1195 -0.1278
11641SOL    HW146982   9.604   0.606   6.251  0.0840  0.3855 -0.0227
11641SOL    HW246983   9.452   0.566   6.294  0.0988  1.0451  0.6550
11642SOL     OW46984   4.409   3.513   8.436  0.2277  0.0416 -0.0116
11642SOL    HW146985   4.467   3.431   8.443  0.4215  0.1221 -0.6405
11642SOL    HW246986   4.377   3.523   8.342  0.2666  0.7311  0.0473
11643SOL     OW46987   3.040   0.261   9.747  0.1286  0.5138 -0.2231
11643SOL    HW146988   3.049   0.179   9.691  0.7834 -0.0906  0.7596
11643SOL    HW246989   3.121   0.319   9.734 -0.2945  0.9789 -0.8521
11644SOL     OW46990   2.431   3.695   4.299 -0.2769  0.2372  0.5453
11644SOL    HW146991   2.475   3.635   4.366  0.6243  0.7724  0.4352
11644SOL    HW246992   2.381   3.639   4.232  1.6162 -0.4691 -0.3017
11645SOL     OW46993   3.633   5.840   2.762 -0.2057  0.0836 -0.3112
11645SOL    HW146994   3.670   5.754   2.726 -2.8232 -0.7956 -0.9911
11645SOL    HW246995   3.625   5.906   2.687  1.0441  0.6787  0.0617
11646SOL     OW46996   6.130   9.492   5.695  0.5773 -0.4004 -0.2567
11646SOL    HW146997   6.197   9.501   5.622  0.0254 -1.4564 -0.9111
11646SOL    HW246998   6.045   9.539   5.668  0.2860 -1.0114 -0.4148
11647SOL     OW46999   0.125   8.997   9.177 -0.3392  0.0854  0.3333
11647SOL    HW147000   0.132   8.922   9.243  1.4644  0.2918  0.3935
11647SOL    HW247001   0.099   9.081   9.225  0.6222  0.1572  0.7349
11648SOL     OW47002   7.069   0.045   2.883 -0.2263  0.1312  0.2290
11648SOL    HW147003   7.065   0.123   2.946  1.1736  0.8321 -0.5370
11648SOL    HW247004   7.148  -0.012   2.906 -0.7741 -0.6264  0.2603
11649SOL     OW47005   8.555   4.357   5.498  0.1892 -0.3651 -0.5722
11649SOL    HW147006   8.613   4.428   5.458  0.5170  0.1262  0.7527
11649SOL    HW247007   8.459   4.387   5.497  0.3242  0.0860 -0.0463
11650SOL     OW47008   8.917   9.529   0.341 -1.0478  1.1540  0.2348
11650SOL    HW147009   9.017   9.529   0.337 -0.9790  0.6412  1.6020
11650SOL    HW247010   8.885   9.615   0.380 -0.9311 -0.1057  3.2997
11651SOL     OW47011   3.003   4.370   3.431 -0.3265 -0.5140 -0.3695
11651SOL    HW147012   2.910   4.405   3.418 -0.4945 -0.5696  0.6251
11651SOL    HW247013   3.032   4.321   3.349 -0.6985  0.5729 -1.1663
11652SOL     OW47014   4.298   2.557   5.453 -0.7784 -0.2647  0.1705
11652SOL    HW147015   4.279   2.651   5.481  1.7858  0.4727 -0.4389
11652SOL    HW247016   4.284   2.496   5.531 -1.3350  0.7555  0.8828
11653SOL     OW47017   9.212   8.449   0.651  0.0068 -0.0963  0.2916
11653SOL    HW147018   9.179   8.537   0.617  0.5686 -0.6987 -1.9136
11653SOL    HW247019   9.139   8.381   0.645  0.4386 -0.4801 -0.8671
11654SOL     OW47020   6.676   6.620   7.966  0.2584  0.2134 -0.2405
11654SOL    HW147021   6.732   6.667   7.897  1.9733  0.3813  1.2300
11654SOL    HW247022   6.610   6.684   8.005 -1.4068 -0.1141 -2.3629
11655SOL     OW47023   6.871   0.292   2.494  0.3198 -0.0068 -0.5481
11655SOL    HW147024   6.827   0.313   2.406 -0.2589 -2.0379 -0.7480
11655SOL    HW247025   6.936   0.218   2.482  1.2702  0.6444  0.4745
11656SOL     OW47026   1.544   9.137   2.393 -0.9054 -0.0016 -0.5206
11656SOL    HW147027   1.516   9.054   2.441  0.1753 -0.4542 -0.6562
11656SOL    HW247028   1.600   9.193   2.454 -1.0457  0.2916 -0.6611
11657SOL     OW47029   1.743   2.326   9.007 -0.1777  0.0630  0.1661
11657SOL    HW147030   1.681   2.259   8.966 -0.7759  0.3294  0.6437
11657SOL    HW247031   1.713   2.347   9.100  0.3211  0.5894  0.2099
11658SOL     OW47032   9.013   2.783   7.902  0.4015 -0.4210  0.7578
11658SOL    HW147033   8.971   2.872   7.883  0.5316 -0.5491 -0.1636
11658SOL    HW247034   8.953   2.729   7.961 -1.1093 -0.9155 -1.2026
11659SOL     OW47035   9.372   1.342   5.139  0.3032 -0.2066 -0.3617
11659SOL    HW147036   9.447   1.279   5.121  0.5755  0.1802 -0.6077
11659SOL    HW247037   9.404   1.414   5.201  0.0989 -0.1089 -0.3706
11660SOL     OW47038   9.339   3.449   6.577 -0.0276  0.2401 -0.1174
11660SOL    HW147039   9.395   3.468   6.496 -2.1793 -0.6834 -1.8741
11660SOL    HW247040   9.248   3.487   6.563 -0.9785 -1.5431  1.0713
11661SOL     OW47041   4.654   3.519   6.621 -0.0696 -0.5776  0.3963
11661SOL    HW147042   4.592   3.476   6.687 -1.4514 -1.4166 -1.3758
11661SOL    HW247043   4.748   3.489   6.638 -0.6421 -2.1229  0.9297
11662SOL     OW47044   7.817   3.774   9.745  0.2249  0.1209  0.2403
11662SOL    HW147045   7.827   3.753   9.648 -1.3160  0.0842  0.0801
11662SOL    HW247046   7.751   3.848   9.756 -3.4273 -3.1922  1.5399
11663SOL     OW47047   9.598   4.664   6.581 -0.2571  0.4465  0.1582
11663SOL    HW147048   9.502   4.663   6.553  0.4627  1.1560 -2.5446
11663SOL    HW247049   9.637   4.754   6.559  1.9709 -1.0742 -2.3309
11664SOL     OW47050   7.352   8.594   6.892 -1.2616  0.1610 -0.3372
11664SOL    HW147051   7.280   8.628   6.832 -0.9263 -0.8454 -1.3383
11664SOL    HW247052   7.318   8.516   6.944 -0.5415 -1.1229 -1.7443
11665SOL     OW47053   1.119   9.820   3.082 -0.0016  0.1029  0.2949
11665SOL    HW147054   1.030   9.859   3.107 -0.4895 -1.6993  1.4350
11665SOL    HW247055   1.105   9.748   3.013  0.6139  0.0338  0.2419
11666SOL     OW47056   1.727   9.012   5.684  0.0330  0.0561 -0.1290
11666SOL    HW147057   1.649   8.966   5.728  0.1894 -0.1353 -0.0544
11666SOL    HW247058   1.724   9.110   5.706  1.9433 -0.5162  3.0448
11667SOL     OW47059   4.195   9.403   2.096 -0.0124  0.8978  0.7615
11667SOL    HW147060   4.187   9.304   2.105  0.4691  0.7179 -0.6169
11667SOL    HW247061   4.247   9.439   2.173 -0.3576  0.1009  1.3729
11668SOL     OW47062   8.060   9.468   1.907  0.7584  0.1287  0.4306
11668SOL    HW147063   7.971   9.468   1.953  1.2661 -0.3513  1.4242
11668SOL    HW247064   8.108   9.554   1.927  0.2129  0.7225 -0.7348
11669SOL     OW47065   1.311   5.055   9.147 -0.3363 -0.1974  0.1820
11669SOL    HW147066   1.338   5.071   9.242 -0.5434 -0.1466  0.2329
11669SOL    HW247067   1.370   5.108   9.086 -1.4326  1.2713  0.3798
11670SOL     OW47068   2.201   6.773   3.720  0.2417 -0.0164 -0.5800
11670SOL    HW147069   2.123   6.711   3.729 -0.5286  1.1916  1.2180
11670SOL    HW247070   2.201   6.814   3.629 -0.7461 -0.6332 -0.8629
11671SOL     OW47071   0.117   6.354   0.429  0.1962  0.0248 -0.2805
11671SOL    HW147072   0.183   6.292   0.472  1.3194 -0.7899 -3.0248
11671SOL    HW247073   0.026   6.313   0.434  0.1319  0.3819  2.0729
11672SOL     OW47074   6.630   5.750   1.591 -0.2464 -0.0942  0.1974
11672SOL    HW147075   6.661   5.831   1.541 -2.1546  0.5454 -0.0029
11672SOL    HW247076   6.664   5.754   1.685  0.3638  0.5046 -0.0436
11673SOL     OW47077   6.891   0.576   5.075  0.2172  0.0637 -0.5803
11673SOL    HW147078   6.813   0.557   5.016  2.1271 -0.4997 -2.9794
11673SOL    HW247079   6.963   0.509   5.059  1.4620  0.9290  1.1791
11674SOL     OW47080   7.191   9.684   6.384  0.1410  0.1436 -0.0829
11674SOL    HW147081   7.211   9.593   6.420 -0.6159  0.3287  0.8241
11674SOL    HW247082   7.181   9.748   6.460 -2.0532  0.4263 -0.5690
11675SOL     OW47083   9.535   4.354   6.282  0.1791 -0.6564  0.5744
11675SOL    HW147084   9.486   4.273   6.251 -0.6787  0.1936 -0.2997
11675SOL    HW247085   9.533   4.424   6.211  1.8912 -0.2667  0.8678
11676SOL     OW47086   3.895   5.900   8.143 -0.1563  0.2712 -0.2608
11676SOL    HW147087   3.862   5.894   8.237  1.5529 -0.6080  0.2795
11676SOL    HW247088   3.969   5.967   8.138  0.8077 -0.8308 -0.6906
11677SOL     OW47089   3.405   8.506   7.671  0.1263  0.3632 -0.0225
11677SOL    HW147090   3.396   8.492   7.572 -0.9289  1.1007 -0.0462
11677SOL    HW247091   3.484   8.456   7.705  0.3585 -0.0895 -1.2053
11678SOL     OW47092   2.167   5.106   7.326 -0.4174  0.0905 -0.0848
11678SOL    HW147093   2.084   5.122   7.273 -1.2064  0.7210  1.3143
11678SOL    HW247094   2.191   5.189   7.376 -0.5253 -0.9107  1.6755
11679SOL     OW47095   5.063   2.202   5.447 -0.2373 -0.4219  0.1344
11679SOL    HW147096   5.029   2.295   5.462  0.4082 -0.1993  0.2117
11679SOL    HW247097   5.114   2.199   5.361  0.7862 -0.4144  0.7296
11680SOL     OW47098   9.824   6.244   2.790 -0.3705  0.4305 -0.0698
11680SOL    HW147099   9.920   6.234   2.814 -0.5392 -1.6398 -0.1598
11680SOL    HW247100   9.775   6.286   2.866  0.5614  1.2867  0.0628
11681SOL     OW47101   4.276   1.654   8.568  0.1054 -0.2846  0.2132
11681SOL    HW147102   4.198   1.596   8.543 -0.3874  0.2071  0.5946
11681SOL    HW247103   4.287   1.655   8.667  0.6951 -0.4749  0.1522
11682SOL     OW47104   9.562   1.932   5.745  0.2391  0.2645  0.4014
11682SOL    HW147105   9.482   1.912   5.688  0.7485  1.1131 -0.6168
11682SOL    HW247106   9.643   1.892   5.704  1.1491  3.6046 -1.2426
11683SOL     OW47107   1.919   7.987   7.411 -0.7840 -0.4921  0.6280
11683SOL    HW147108   1.899   7.918   7.341 -1.6667 -1.1485  1.5103
11683SOL    HW247109   2.000   7.958   7.463  0.3377  0.3730 -0.5916
11684SOL     OW47110   0.378   9.941   6.273  0.3342  0.0619  0.1144
11684SOL    HW147111   0.301   9.964   6.334  0.6648  2.2686 -0.2437
11684SOL    HW247112   0.342   9.900   6.189 -0.1973 -2.0358  1.3369
11685SOL     OW47113   2.592   6.618   9.337  0.4843 -0.3192 -0.1642
11685SOL    HW147114   2.512   6.560   9.321  1.8646 -2.1777 -0.5561
11685SOL    HW247115   2.673   6.560   9.347  2.1595  1.6162 -1.9920
11686SOL     OW47116   8.778   7.033   4.572 -0.2597  0.4485  0.2389
11686SOL    HW147117   8.737   7.059   4.660 -0.5431 -0.4535  0.3781
11686SOL    HW247118   8.733   7.084   4.498 -1.5693 -0.4501  0.4038
11687SOL     OW47119   7.544   9.112   4.094 -0.1421  1.0622  0.4357
11687SOL    HW147120   7.526   9.196   4.043 -3.5177  0.7997  1.0774
11687SOL    HW247121   7.584   9.134   4.183 -0.8625  2.0002  0.5345
11688SOL     OW47122   4.790   1.303   6.645 -0.8141 -0.6589  0.5622
11688SOL    HW147123   4.693   1.324   6.633 -0.8187 -0.6148  0.6762
11688SOL    HW247124   4.824   1.350   6.726 -0.6733 -0.5953  0.4669
11689SOL     OW47125   5.930   0.683   5.584 -0.4595 -0.1063  0.6381
11689SOL    HW147126   5.906   0.640   5.497 -0.5729  0.8365  0.1969
11689SOL    HW247127   6.013   0.641   5.620  0.1644  0.1754 -0.4308
11690SOL     OW47128   9.321   0.436   3.157  0.4876  0.0622 -0.1256
11690SOL    HW147129   9.282   0.344   3.149  1.0341 -0.3604  1.7878
11690SOL    HW247130   9.246   0.503   3.160  0.0534 -0.3978 -0.5865
11691SOL     OW47131   6.177   4.142   9.540 -0.2622  0.0840  0.5348
11691SOL    HW147132   6.251   4.110   9.480  0.6826  0.8374  1.2901
11691SOL    HW247133   6.205   4.131   9.635 -1.2144  0.1841  0.8221
11692SOL     OW47134   3.359   8.029   6.586 -0.4127  0.3881 -0.2339
11692SOL    HW147135   3.366   8.016   6.487 -1.0182  1.1563 -0.3825
11692SOL    HW247136   3.272   7.993   6.619 -0.5674  0.8683 -0.1121
11693SOL     OW47137   8.647   3.307   8.435  0.0609 -0.0126 -0.1839
11693SOL    HW147138   8.648   3.406   8.453 -1.0741 -0.3941  2.2193
11693SOL    HW247139   8.649   3.258   8.522 -1.6836 -2.0663 -1.2632
11694SOL     OW47140   5.571   5.038   1.102 -0.2316 -0.0626  0.0940
11694SOL    HW147141   5.491   5.019   1.159 -0.1059 -1.4292 -0.1553
11694SOL    HW247142   5.606   4.952   1.065 -0.2649  0.7902 -2.0068
11695SOL     OW47143   0.079   4.583   4.318 -0.0252  0.3277  0.0521
11695SOL    HW147144   0.163   4.633   4.299 -0.3591  1.8017  2.3050
11695SOL    HW247145   0.071   4.567   4.416 -1.0283 -2.2420 -0.3994
11696SOL     OW47146   8.454   1.714   1.638  0.0572 -0.1993 -0.0811
11696SOL    HW147147   8.518   1.645   1.670 -1.6845 -0.5750  2.7529
11696SOL    HW247148   8.360   1.686   1.659 -0.7607  2.4944  0.1277
11697SOL     OW47149   0.027   0.272   1.880 -0.0479  0.3208  0.6083
11697SOL    HW147150   0.043   0.246   1.785 -1.3394  1.9808 -0.0858
11697SOL    HW247151  -0.066   0.247   1.907 -0.3029  1.4659  0.8509
11698SOL     OW47152   9.723   6.720   7.209 -0.3319  0.3781 -0.2738
11698SOL    HW147153   9.664   6.775   7.267 -1.8344  0.2334 -1.6169
11698SOL    HW247154   9.709   6.623   7.229 -2.8314  0.1821 -2.6190
11699SOL     OW47155   6.263   9.840   6.713 -0.6713 -0.2191 -0.1997
11699SOL    HW147156   6.304   9.783   6.643  0.1018 -0.2964  0.3088
11699SOL    HW247157   6.163   9.838   6.704 -0.5742 -0.2832 -1.2397
11700SOL     OW47158   9.011   2.386   9.530 -0.3102  0.7751  0.0277
11700SOL    HW147159   9.082   2.340   9.584  2.2794  4.0269 -0.4318
11700SOL    HW247160   9.022   2.362   9.434 -0.3840  0.5779  0.0687
11701SOL     OW47161   8.068   1.200   8.237  0.1153  0.1699 -0.6540
11701SOL    HW147162   8.070   1.294   8.202 -2.3078  0.5734  0.2433
11701SOL    HW247163   8.114   1.197   8.326 -0.8237  0.7252 -0.1523
11702SOL     OW47164   0.397   9.272   7.480  0.2822  0.0026  0.4253
11702SOL    HW147165   0.428   9.244   7.571  1.6026  0.5255  0.1438
11702SOL    HW247166   0.431   9.207   7.412 -1.3207 -0.8043  0.3665
11703SOL     OW47167   6.920   7.463   7.325 -0.1601  0.0191  0.1410
11703SOL    HW147168   6.970   7.545   7.296  1.7762 -1.4496 -0.7819
11703SOL    HW247169   6.879   7.479   7.415  0.5104  1.8666  0.1357
11704SOL     OW47170   5.108   1.313   7.260 -0.5144  0.3088  0.2151
11704SOL    HW147171   5.058   1.236   7.298 -2.2131  1.1989 -0.1499
11704SOL    HW247172   5.135   1.375   7.334 -3.0138  1.5764  0.0888
11705SOL     OW47173   4.080   2.195   9.795  0.0500  0.1225 -0.3354
11705SOL    HW147174   4.048   2.179   9.888  0.6370 -1.0911 -0.3333
11705SOL    HW247175   4.002   2.211   9.735 -0.4725 -1.1834 -0.0187
11706SOL     OW47176   5.624   8.707   4.487 -0.2590 -0.8285 -0.0556
11706SOL    HW147177   5.643   8.744   4.396  1.1094  1.8448  1.2460
11706SOL    HW247178   5.679   8.625   4.502 -0.1110 -0.9933 -1.4000
11707SOL     OW47179   2.803   8.288   0.253  0.0448  0.5220  0.3032
11707SOL    HW147180   2.884   8.266   0.199 -0.0360  1.2562 -0.1194
11707SOL    HW247181   2.820   8.372   0.306  0.2239 -0.3281  1.6281
11708SOL     OW47182   3.803   7.599   6.151 -0.5505  0.4010 -0.0288
11708SOL    HW147183   3.718   7.649   6.169 -0.1212  0.7730  1.0569
11708SOL    HW247184   3.782   7.510   6.112 -1.3363  1.4025 -1.9718
11709SOL     OW47185   2.838   4.908   7.895 -0.1871 -0.1708  0.1097
11709SOL    HW147186   2.870   4.826   7.943 -1.4899 -0.4454  0.5555
11709SOL    HW247187   2.868   4.905   7.800  0.2886 -0.8766  0.2785
11710SOL     OW47188   5.575   4.354   8.328  0.0154 -0.0040  0.0130
11710SOL    HW147189   5.517   4.319   8.254  0.2751  0.4574 -0.4107
11710SOL    HW247190   5.517   4.394   8.399 -0.2300 -0.3507  0.0100
11711SOL     OW47191   0.083   7.123   8.516  0.3975 -0.2634  0.4486
11711SOL    HW147192   0.052   7.146   8.609  0.5455 -1.3674  0.7763
11711SOL    HW247193   0.004   7.116   8.455  0.4112  2.1064  0.1019
11712SOL     OW47194   6.917   4.557   2.514  0.5673 -0.2295 -0.1034
11712SOL    HW147195   6.875   4.470   2.541 -0.7876  0.4165 -0.0564
11712SOL    HW247196   6.962   4.599   2.592  1.3968 -0.9847 -0.1745
11713SOL     OW47197   3.986   1.879   3.246  0.2256 -0.1346  0.4577
11713SOL    HW147198   4.011   1.928   3.330  0.0451  0.8127 -0.0419
11713SOL    HW247199   3.969   1.783   3.268 -0.0095  0.1472  1.5454
11714SOL     OW47200   8.866   3.278   3.572  0.2073 -0.1961 -0.2879
11714SOL    HW147201   8.911   3.367   3.564 -2.2085  0.8409 -2.5517
11714SOL    HW247202   8.782   3.287   3.625 -1.4866 -0.5786 -2.8644
11715SOL     OW47203   8.789   0.710   7.677  0.4577  0.0919 -0.0020
11715SOL    HW147204   8.774   0.703   7.579 -1.0042 -0.2596  0.2428
11715SOL    HW247205   8.757   0.627   7.722  0.9640  0.3212  0.7894
11716SOL     OW47206   7.653   5.256   5.540  0.3753 -0.0252  0.0476
11716SOL    HW147207   7.674   5.206   5.624 -3.2480 -1.2395  0.3591
11716SOL    HW247208   7.664   5.195   5.461 -2.8489 -1.0652  0.3202
11717SOL     OW47209   0.568   6.445   9.422  0.7264  0.6958  0.5447
11717SOL    HW147210   0.521   6.530   9.447  2.2738  1.3636  1.2314
11717SOL    HW247211   0.644   6.466   9.360 -0.9317 -0.5677 -2.0093
11718SOL     OW47212   6.882   3.361   1.232 -0.0791  0.4813 -0.2856
11718SOL    HW147213   6.856   3.294   1.162  0.2270 -0.7034  0.7096
11718SOL    HW247214   6.802   3.414   1.259 -0.9319 -1.2782  0.7839
11719SOL     OW47215   3.958   0.226   0.978 -0.4517  0.0124  0.6371
11719SOL    HW147216   3.860   0.226   0.959 -0.1265 -0.5908 -1.0823
11719SOL    HW247217   3.975   0.274   1.065 -2.1288  1.3734  0.2350
11720SOL     OW47218   6.398   2.893   9.198 -0.1108  0.0295 -0.0036
11720SOL    HW147219   6.404   2.804   9.243  0.1161  0.5533  1.0158
11720SOL    HW247220   6.317   2.942   9.232 -0.0316  0.3580 -0.2877
11721SOL     OW47221   9.391   1.703   0.020 -0.0326  0.4300  0.4509
11721SOL    HW147222   9.385   1.691   0.119 -0.9295 -1.4024  0.2053
11721SOL    HW247223   9.378   1.799  -0.004 -0.8134  0.7194  2.0348
11722SOL     OW47224   7.325   5.021   3.863 -0.2207 -0.3905 -0.1581
11722SOL    HW147225   7.416   4.998   3.897  0.4051  1.7548 -0.3039
11722SOL    HW247226   7.326   5.023   3.763 -0.2589  0.2751 -0.1474
11723SOL     OW47227   0.670   8.768   8.078 -0.3114  0.1076 -0.3596
11723SOL    HW147228   0.681   8.818   8.163 -1.2469  0.5164 -0.4727
11723SOL    HW247229   0.580   8.724   8.076 -0.7685  1.0591 -1.6262
11724SOL     OW47230   2.728   8.889   8.973  0.1556 -0.0675  0.5203
11724SOL    HW147231   2.760   8.831   8.898  0.3186  1.4150 -0.5566
11724SOL    HW247232   2.632   8.869   8.992  0.5427 -1.5590  0.9812
11725SOL     OW47233   4.601   7.794   7.253 -0.1746  0.3128 -0.0677
11725SOL    HW147234   4.641   7.885   7.247 -1.2411  0.8690  1.1066
11725SOL    HW247235   4.528   7.785   7.184 -0.2937  0.4666  0.0376
11726SOL     OW47236   6.116   7.688   6.213  0.1834  0.6909 -0.1967
11726SOL    HW147237   6.197   7.723   6.259  0.3985  1.1213 -0.8879
11726SOL    HW247238   6.125   7.702   6.114 -0.5656  0.3968 -0.3129
11727SOL     OW47239   8.305   2.712   5.391 -0.0081  0.7662  0.0279
11727SOL    HW147240   8.393   2.758   5.394 -1.1670  3.1414 -1.5741
11727SOL    HW247241   8.313   2.628   5.338  0.9898  1.6581 -1.2433
11728SOL     OW47242   1.043   1.820   8.958 -0.1472 -0.7804  0.1229
11728SOL    HW147243   0.981   1.890   8.924  0.2402  0.0959  1.2117
11728SOL    HW247244   1.133   1.860   8.975  0.1147 -1.5657  0.6223
11729SOL     OW47245   2.562   3.746   0.361 -0.1796  0.2471  0.4337
11729SOL    HW147246   2.533   3.793   0.444 -0.3301 -0.6733  0.9077
11729SOL    HW247247   2.482   3.709   0.315 -0.1177  0.9368 -0.2420
11730SOL     OW47248   1.942   7.870   6.567 -0.2202  0.1644  0.7843
11730SOL    HW147249   1.860   7.840   6.615  1.0673 -1.9286  1.7179
11730SOL    HW247250   1.930   7.965   6.537 -2.9166 -0.0712  0.9957
11731SOL     OW47251   9.435   6.851   0.466  0.5326 -0.0135 -0.2109
11731SOL    HW147252   9.426   6.784   0.393  0.3832 -2.2522  1.7846
11731SOL    HW247253   9.532   6.872   0.481  0.7955 -1.9706  1.0165
11732SOL     OW47254   6.857   4.990   7.195  0.0219 -0.4717 -0.8989
11732SOL    HW147255   6.825   5.003   7.288  0.0352 -0.7257 -0.8587
11732SOL    HW247256   6.778   4.976   7.134  0.0005 -0.0911 -0.9610
11733SOL     OW47257   5.187   8.070   6.802  0.0651  0.1039 -0.0988
11733SOL    HW147258   5.125   8.004   6.760 -1.7394  0.7635  1.4364
11733SOL    HW247259   5.137   8.154   6.823  1.9317  1.3456 -0.4790
11734SOL     OW47260   0.419   0.765   5.062 -0.0585 -0.0136 -0.0572
11734SOL    HW147261   0.357   0.810   5.126 -2.7605 -0.6807 -2.0986
11734SOL    HW247262   0.413   0.666   5.073  1.5033 -0.0692  0.4620
11735SOL     OW47263   1.469   4.307   5.500  0.1411 -0.7062 -0.4842
11735SOL    HW147264   1.389   4.252   5.476 -0.8182 -0.3317  1.6959
11735SOL    HW247265   1.447   4.404   5.491  0.5906 -0.6215 -0.6506
11736SOL     OW47266   1.993   0.706   6.225 -0.3430  0.1058  0.4260
11736SOL    HW147267   1.920   0.758   6.268 -0.7331 -0.3715  0.3373
11736SOL    HW247268   2.059   0.677   6.295 -0.6012 -0.0579  0.6021
11737SOL     OW47269   5.949   1.487   0.577 -0.1099 -0.5857  0.4012
11737SOL    HW147270   5.967   1.508   0.481  2.0424  1.3173  1.2028
11737SOL    HW247271   5.891   1.405   0.582  1.7511 -2.1542 -2.4516
11738SOL     OW47272   3.821   9.895   0.303  0.0037 -0.1481 -0.0231
11738SOL    HW147273   3.870   9.960   0.362  0.4626 -1.0744  0.6314
11738SOL    HW247274   3.733   9.934   0.276  0.8971  1.3546 -0.8385
11739SOL     OW47275   8.937   4.298   8.128  0.0978 -0.7634  0.3777
11739SOL    HW147276   8.891   4.232   8.188 -0.6646  0.2238  0.9026
11739SOL    HW247277   9.021   4.258   8.092 -1.0235 -2.5018 -0.3660
11740SOL     OW47278   7.212   7.394   7.694  0.1190 -0.1359 -0.2809
11740SOL    HW147279   7.305   7.416   7.725  0.0717  1.0663 -0.9374
11740SOL    HW247280   7.146   7.447   7.746 -0.1404 -0.2904 -0.4524
11741SOL     OW47281   3.635   3.194   4.226  0.5252 -0.3745 -0.4174
11741SOL    HW147282   3.625   3.169   4.129 -2.4859 -1.0976  0.0380
11741SOL    HW247283   3.628   3.112   4.283  1.0218  0.2030  0.4815
11742SOL     OW47284   4.557   8.447   8.570 -0.3117  0.2794 -0.2808
11742SOL    HW147285   4.635   8.424   8.512  0.3674 -0.7890  1.0343
11742SOL    HW247286   4.588   8.463   8.664 -1.4805  1.3732 -0.0605
11743SOL     OW47287   6.653   8.911   3.418  0.5200 -0.4900 -0.1197
11743SOL    HW147288   6.740   8.881   3.456  0.2688  1.6581  2.3003
11743SOL    HW247289   6.669   8.976   3.344  0.9949  0.5015  0.8379
11744SOL     OW47290   9.506   3.229   5.445 -0.1297  0.8133 -0.2001
11744SOL    HW147291   9.576   3.268   5.384  0.9549 -0.6775  0.0602
11744SOL    HW247292   9.535   3.240   5.540  0.2868 -0.7656 -0.1291
11745SOL     OW47293   8.953   0.773   9.306  0.0180 -0.1747 -0.3841
11745SOL    HW147294   8.869   0.804   9.350 -0.9484 -2.5964 -0.4391
11745SOL    HW247295   8.935   0.690   9.253  2.4583 -0.8043 -0.3102
11746SOL     OW47296   7.986   0.156   6.511 -0.2057 -0.1959  0.3189
11746SOL    HW147297   8.049   0.081   6.535  1.3706  0.6971 -0.8878
11746SOL    HW247298   8.014   0.239   6.559 -0.9412  0.0278  0.3638
11747SOL     OW47299   2.436   8.645   8.570 -0.1411  0.1559 -0.0271
11747SOL    HW147300   2.354   8.622   8.621 -0.3039  1.2868  0.2300
11747SOL    HW247301   2.493   8.706   8.624  0.3451  0.2509 -0.6420
11748SOL     OW47302   9.747   7.876   7.618  0.5024 -0.3000 -0.5276
11748SOL    HW147303   9.690   7.903   7.540  1.8415  0.9702 -1.0924
11748SOL    HW247304   9.838   7.917   7.609  1.1426 -1.3211  0.9713
11749SOL     OW47305   0.785   6.326   3.267 -0.0597 -0.2610  0.2964
11749SOL    HW147306   0.819   6.345   3.359 -1.0289  0.0674  0.5887
11749SOL    HW247307   0.688   6.351   3.261  0.2577  0.6834 -1.1072
11750SOL     OW47308   5.814   0.855   6.496 -0.0273  0.1931  0.0272
11750SOL    HW147309   5.735   0.808   6.535  0.4869  0.4988  1.4479
11750SOL    HW247310   5.814   0.843   6.397 -0.3476 -2.1045  0.2752
11751SOL     OW47311   2.209   1.194   9.101  0.1017  0.0854 -0.0318
11751SOL    HW147312   2.288   1.219   9.157 -0.3853  2.0804 -0.2098
11751SOL    HW247313   2.229   1.109   9.052  1.4539 -0.3770  1.2805
11752SOL     OW47314   0.302   5.733   7.170 -0.1401  0.1684 -0.3746
11752SOL    HW147315   0.313   5.823   7.128  0.7263  0.5861  0.7036
11752SOL    HW247316   0.350   5.664   7.115 -0.6054  0.3945 -1.0740
11753SOL     OW47317   3.360   1.636   4.748 -0.1980 -0.1995 -0.3638
11753SOL    HW147318   3.409   1.569   4.804  0.0099 -1.2184 -1.7617
11753SOL    HW247319   3.412   1.721   4.746  0.5940 -0.6797 -0.3358
11754SOL     OW47320   2.374   4.460   8.439 -0.3844  0.0167 -0.4053
11754SOL    HW147321   2.413   4.489   8.352 -1.1994  0.4900 -0.6143
11754SOL    HW247322   2.435   4.488   8.514 -0.5716  1.1761 -0.6909
11755SOL     OW47323   9.099   4.019   1.328 -0.9413 -1.2461  0.4363
11755SOL    HW147324   9.045   4.007   1.245  0.5481 -0.2640 -0.7107
11755SOL    HW247325   9.088   4.112   1.362  1.7110 -0.3168 -1.0858
11756SOL     OW47326   2.550   8.161   6.970 -0.4531 -0.1821  0.2224
11756SOL    HW147327   2.495   8.200   6.897 -0.4794 -0.8447 -0.1096
11756SOL    HW247328   2.516   8.194   7.059 -1.3525 -0.5678  0.0157
11757SOL     OW47329   2.328   7.207   6.504  0.2222  0.0221 -0.2417
11757SOL    HW147330   2.302   7.200   6.600  1.0966 -1.3958 -0.0985
11757SOL    HW247331   2.251   7.244   6.451 -0.8020 -0.6570  0.7504
11758SOL     OW47332   9.384   2.770   3.765  0.0153 -0.1646 -0.0021
11758SOL    HW147333   9.471   2.758   3.812 -0.8288  1.0186  1.9123
11758SOL    HW247334   9.311   2.726   3.818 -1.2310  2.8080  0.8316
11759SOL     OW47335   3.634   0.433   8.971 -0.6923 -0.2418 -0.4009
11759SOL    HW147336   3.566   0.489   8.925 -0.2056 -0.9644 -2.0276
11759SOL    HW247337   3.587   0.364   9.027 -1.2876 -0.3166 -0.9868
11760SOL     OW47338   0.767   9.069   9.811 -0.0476  0.1110 -0.5610
11760SOL    HW147339   0.674   9.038   9.830 -0.7881  2.0946 -0.7682
11760SOL    HW247340   0.824   8.991   9.785 -1.4795 -1.2218  0.2107
11761SOL     OW47341   5.070   6.193   0.035  0.8100  0.0890  0.0654
11761SOL    HW147342   4.997   6.197   0.104  1.4712  2.7847  0.6580
11761SOL    HW247343   5.155   6.165   0.078  1.0488  1.0119  0.1988
11762SOL     OW47344   1.008   9.991   2.092  0.5952  0.0800  0.6433
11762SOL    HW147345   1.044   9.974   2.001 -1.0449 -1.5026  0.2784
11762SOL    HW247346   1.059   9.937   2.159 -0.0570 -0.9575  0.3135
11763SOL     OW47347   1.400   3.485   4.425 -0.2112 -0.1133  0.0514
11763SOL    HW147348   1.348   3.564   4.456  2.4017  2.0681 -0.8859
11763SOL    HW247349   1.461   3.455   4.498  0.0616 -0.1288 -0.1807
11764SOL     OW47350   1.990   3.569   5.018  0.1040 -0.1643  0.3612
11764SOL    HW147351   1.960   3.649   5.070 -0.0140 -0.5245  0.8480
11764SOL    HW247352   2.022   3.499   5.081 -0.4776 -0.7836 -0.0339
11765SOL     OW47353   7.916   2.431   3.735  0.1394 -0.3162  0.7990
11765SOL    HW147354   7.858   2.481   3.671  1.5954 -1.7077 -1.7138
11765SOL    HW247355   7.859   2.376   3.796 -1.3083  1.4889  1.0932
11766SOL     OW47356   9.108   6.465   3.799  0.0547 -0.3696 -0.2687
11766SOL    HW147357   9.049   6.536   3.760 -0.7239 -0.2123  1.1369
11766SOL    HW247358   9.192   6.507   3.833 -0.2185 -0.1765  0.1756
11767SOL     OW47359   9.591   4.370   6.986  0.2356 -0.1706  0.1077
11767SOL    HW147360   9.616   4.330   6.898 -0.2964 -1.5152  0.5575
11767SOL    HW247361   9.663   4.352   7.053 -0.0138 -0.3826  0.3181
11768SOL     OW47362   2.532   3.541   4.826 -0.1195  0.7945  0.3949
11768SOL    HW147363   2.631   3.540   4.822 -0.0777  1.3276  1.1657
11768SOL    HW247364   2.496   3.454   4.791  0.5731  0.9214 -0.6662
11769SOL     OW47365   4.868   9.525   3.981 -0.3022 -0.0063  0.1536
11769SOL    HW147366   4.870   9.567   4.072 -0.4137 -1.0049  0.6230
11769SOL    HW247367   4.947   9.556   3.928 -0.7980  1.3960  0.2164
11770SOL     OW47368   1.855   4.954   8.829  0.6631 -0.2248  0.0504
11770SOL    HW147369   1.885   4.910   8.913 -1.8355 -0.2412  0.9767
11770SOL    HW247370   1.800   4.890   8.775  1.2542  0.1567 -1.0161
11771SOL     OW47371   3.972   3.083   4.276 -0.5230  0.6422 -0.1808
11771SOL    HW147372   3.908   3.046   4.344 -0.3576  0.7388  0.0280
11771SOL    HW247373   4.065   3.056   4.299 -0.3833  1.3273  0.0693
11772SOL     OW47374   4.768   6.797   3.181 -0.1022 -0.0993 -0.1875
11772SOL    HW147375   4.857   6.752   3.190 -1.1681 -2.0682  1.1186
11772SOL    HW247376   4.726   6.769   3.095 -0.2130 -0.6035  0.0275
11773SOL     OW47377   9.832   3.134   9.254  0.4981  0.3725 -0.3188
11773SOL    HW147378   9.795   3.164   9.165 -0.1163  0.2073 -0.1245
11773SOL    HW247379   9.879   3.047   9.243 -1.6714 -0.8820 -0.0558
11774SOL     OW47380   1.407   9.200   0.639  0.1616 -0.4956  0.3832
11774SOL    HW147381   1.503   9.211   0.668  0.1951 -2.3455  1.0468
11774SOL    HW247382   1.347   9.227   0.714  0.2219 -2.4567  1.1755
11775SOL     OW47383   8.380   5.466   2.285  0.3625 -0.2370  0.8228
11775SOL    HW147384   8.336   5.382   2.251  0.2775  0.4739 -0.8599
11775SOL    HW247385   8.472   5.444   2.319  1.3409 -0.6050 -1.9897
11776SOL     OW47386   0.476   6.600   7.598 -0.9213 -0.9456 -0.4017
11776SOL    HW147387   0.516   6.671   7.655 -0.2834 -1.7972  0.2107
11776SOL    HW247388   0.473   6.632   7.503  1.1166 -0.8323 -0.4382
11777SOL     OW47389   0.692   5.513   7.190  0.1134 -0.3592 -0.3612
11777SOL    HW147390   0.613   5.468   7.147 -0.5524 -1.6960  2.1479
11777SOL    HW247391   0.707   5.473   7.281  1.6993  2.0999  0.5001
11778SOL     OW47392   8.160   3.002   3.051  0.1241 -0.1232 -0.2750
11778SOL    HW147393   8.077   3.030   3.004  1.5423  2.5470 -1.2886
11778SOL    HW247394   8.240   3.036   3.001  1.8029 -1.6967  1.2618
11779SOL     OW47395   1.215   1.175   9.876  0.0295 -0.0694  0.1620
11779SOL    HW147396   1.253   1.231   9.801 -0.4956  0.5293  0.3377
11779SOL    HW247397   1.126   1.212   9.902 -0.3960 -1.1073  0.1686
11780SOL     OW47398   5.478   8.499   9.221 -0.1758 -0.2059  0.4896
11780SOL    HW147399   5.457   8.533   9.313 -0.9030 -0.2242  0.3315
11780SOL    HW247400   5.577   8.488   9.212  0.1802  2.7852  0.2455
11781SOL     OW47401   4.118   5.723   4.117  0.0350  0.1402  0.0069
11781SOL    HW147402   4.072   5.804   4.081 -0.4303  0.1734  0.6644
11781SOL    HW247403   4.207   5.712   4.073 -0.5162  0.1832 -1.1467
11782SOL     OW47404   1.195   5.932   2.442  0.0937 -0.1111 -1.2522
11782SOL    HW147405   1.169   5.953   2.537  0.7122  1.6589 -1.4526
11782SOL    HW247406   1.113   5.909   2.390 -0.1660 -1.7890 -0.1233
11783SOL     OW47407   2.002   6.570   3.733  0.0117  0.1097  0.1412
11783SOL    HW147408   1.948   6.527   3.805 -2.4218  2.0790 -0.4409
11783SOL    HW247409   2.084   6.515   3.715 -1.2038 -2.3265  1.8370
11784SOL     OW47410   2.266   1.001   0.671 -0.2935  0.1315 -0.2796
11784SOL    HW147411   2.303   1.085   0.711  0.7150  0.6261 -2.1927
11784SOL    HW247412   2.315   0.922   0.708  0.8728  0.6082 -0.7831
11785SOL     OW47413   1.766   7.259   4.685  0.9315  0.0447  0.6536
11785SOL    HW147414   1.765   7.190   4.612  0.3087  0.0611  0.6447
11785SOL    HW247415   1.694   7.326   4.668  2.2757  1.3708  0.0323
11786SOL     OW47416   9.314   6.468   5.358  0.9244  0.0623  0.4965
11786SOL    HW147417   9.323   6.531   5.281 -0.8557 -1.7997 -1.2957
11786SOL    HW247418   9.248   6.396   5.335  0.9820 -1.0100  3.4551
11787SOL     OW47419   2.378   5.293   1.484 -0.3446 -0.7295 -0.6636
11787SOL    HW147420   2.433   5.290   1.568 -0.2332 -0.8253 -0.7402
11787SOL    HW247421   2.366   5.389   1.456  1.0303 -0.7717 -1.4624
11788SOL     OW47422   9.409   8.474   3.572 -0.2698 -0.4846  0.5872
11788SOL    HW147423   9.439   8.465   3.667  1.4588 -2.7321 -0.1304
11788SOL    HW247424   9.387   8.384   3.534 -2.6067  0.5511 -0.6539
11789SOL     OW47425   3.694   1.648   6.960  0.4216  0.1909 -0.2765
11789SOL    HW147426   3.775   1.707   6.955  0.9589 -0.3699  1.4636
11789SOL    HW247427   3.653   1.655   7.051 -1.6245  0.6191 -1.1920
11790SOL     OW47428   1.327   3.179   5.623 -0.2734  0.7632  0.4726
11790SOL    HW147429   1.301   3.231   5.703 -0.5770  0.4421  0.5840
11790SOL    HW247430   1.425   3.157   5.628 -0.4129  0.2522  1.0379
11791SOL     OW47431   0.574   3.529   6.284  0.1209 -0.1005 -0.1740
11791SOL    HW147432   0.553   3.499   6.191 -1.6920  2.2275 -0.5626
11791SOL    HW247433   0.528   3.469   6.350 -0.1942 -0.5745 -0.8239
11792SOL     OW47434   4.399   4.427   4.480  0.4245 -0.0055 -0.2787
11792SOL    HW147435   4.479   4.479   4.450  1.4928 -1.5564 -0.1798
11792SOL    HW247436   4.375   4.453   4.573  1.5966 -0.4048  0.1499
11793SOL     OW47437   3.489   4.068   7.292 -0.2381  0.4685  0.5006
11793SOL    HW147438   3.467   4.010   7.370  0.2775  0.8856  0.9639
11793SOL    HW247439   3.421   4.055   7.220  0.6071 -1.6902  0.0504
11794SOL     OW47440   2.309   8.283   8.419 -0.5823 -0.4327 -0.1733
11794SOL    HW147441   2.396   8.331   8.410 -0.6096 -0.4718 -0.6161
11794SOL    HW247442   2.318   8.189   8.386 -0.5480 -0.7172  0.6294
11795SOL     OW47443   6.615   9.686   6.196  0.0674  0.0328 -0.2009
11795SOL    HW147444   6.656   9.596   6.179 -2.0691 -0.9275 -0.5288
11795SOL    HW247445   6.687   9.755   6.202  1.6656 -1.4685 -1.3635
11796SOL     OW47446   3.311   0.901   6.600  0.3484 -0.3086 -0.2092
11796SOL    HW147447   3.266   0.909   6.689  1.8471  0.7961  0.4831
11796SOL    HW247448   3.375   0.977   6.588  1.6309 -1.5362 -1.3668
11797SOL     OW47449   6.292   3.765   8.849  0.1778 -0.0623  0.2797
11797SOL    HW147450   6.224   3.692   8.850  0.5934 -0.4415  1.7531
11797SOL    HW247451   6.336   3.768   8.759  0.7072 -2.1386  0.4600
11798SOL     OW47452   4.102   9.025   8.331  0.5758  0.7209 -0.0341
11798SOL    HW147453   4.161   9.060   8.258  0.2798  1.0092 -0.1393
11798SOL    HW247454   4.043   9.099   8.364 -0.7564  0.0624 -0.9394
11799SOL     OW47455   6.474   1.276   2.172  0.1085  0.3541 -0.6244
11799SOL    HW147456   6.403   1.295   2.104 -0.8948  1.3228  0.6824
11799SOL    HW247457   6.436   1.285   2.264  1.5108 -0.7318  0.0863
11800SOL     OW47458   8.594   4.911   9.618  0.1156  0.3818  0.2840
11800SOL    HW147459   8.527   4.847   9.655  2.0114 -1.7052  0.2117
11800SOL    HW247460   8.598   4.901   9.518  1.6206 -0.6193  0.4305
11801SOL     OW47461   5.850   2.733   1.265 -0.1893  0.3938  0.3533
11801SOL    HW147462   5.865   2.800   1.193 -0.4294  0.1997  0.1221
11801SOL    HW247463   5.789   2.661   1.232  1.8372 -1.1294 -0.1679
11802SOL     OW47464   0.389   0.702   0.049 -0.7261 -0.4121 -0.0229
11802SOL    HW147465   0.326   0.714   0.126 -0.2214 -0.9020  0.4643
11802SOL    HW247466   0.470   0.759   0.064  0.0370 -1.6316  0.5252
11803SOL     OW47467   2.397   7.298   5.861 -0.1221 -0.0836  0.3725
11803SOL    HW147468   2.490   7.262   5.854 -0.4797 -0.7058 -1.5124
11803SOL    HW247469   2.400   7.397   5.875  0.8396 -0.4613  3.2244
11804SOL     OW47470   1.536   2.275   8.761  0.1269 -0.2267 -0.0864
11804SOL    HW147471   1.503   2.322   8.680  0.7476  1.9385  0.8939
11804SOL    HW247472   1.567   2.183   8.735 -1.3798 -0.2441 -1.9553
11805SOL     OW47473   7.802   7.487   5.278  0.6062  0.0087 -0.5944
11805SOL    HW147474   7.834   7.548   5.206 -0.4855  0.4481 -0.7202
11805SOL    HW247475   7.799   7.393   5.244  0.5778  0.1461 -0.9690
11806SOL     OW47476   5.593   8.838   6.201 -0.0732  0.1533  0.1230
11806SOL    HW147477   5.599   8.770   6.274 -0.0205  0.4511  0.3980
11806SOL    HW247478   5.666   8.905   6.212  0.9239 -0.7277 -1.1600
11807SOL     OW47479   0.011   0.845   9.487 -0.9158  0.6327 -0.2219
11807SOL    HW147480   0.018   0.749   9.514  1.2377  0.7265 -0.3504
11807SOL    HW247481   0.102   0.887   9.489 -1.8443  2.7010 -0.0838
11808SOL     OW47482   0.240   0.837   3.145 -0.0816 -0.2943  0.7393
11808SOL    HW147483   0.299   0.826   3.225 -0.0821  0.6519  0.8722
11808SOL    HW247484   0.240   0.933   3.116  0.8513 -0.8190 -1.1045
11809SOL     OW47485   1.496   4.143   6.703  0.2801  0.4115  0.8129
11809SOL    HW147486   1.407   4.185   6.688 -0.2846 -0.6234  1.2339
11809SOL    HW247487   1.488   4.044   6.691  1.6881  0.4508 -0.6621
11810SOL     OW47488   8.893   5.202   2.604 -0.5213 -0.1024  0.0276
11810SOL    HW147489   8.794   5.193   2.618 -0.5444  0.3962  0.1734
11810SOL    HW247490   8.936   5.231   2.690 -0.4288  1.1032 -0.4189
11811SOL     OW47491   8.492   1.211   5.105  0.0098  0.0371  0.3841
11811SOL    HW147492   8.443   1.126   5.122  0.2056 -0.4525 -1.4296
11811SOL    HW247493   8.566   1.221   5.171  2.2807 -3.0021 -1.5907
11812SOL     OW47494   5.111   9.045   6.078  0.8796 -0.0558 -0.2523
11812SOL    HW147495   5.197   9.028   6.127 -0.4838  0.2902  2.3451
11812SOL    HW247496   5.125   9.116   6.009  2.5354  0.4254  0.5645
11813SOL     OW47497   0.692   6.122   0.733  0.3452  0.1141  0.0178
11813SOL    HW147498   0.728   6.054   0.797 -0.5886  0.3282  0.7699
11813SOL    HW247499   0.662   6.203   0.783 -1.0832 -0.0174 -0.6073
11814SOL     OW47500   9.536   4.989   1.476 -0.4520  0.2903 -0.6653
11814SOL    HW147501   9.606   5.044   1.522  0.9336  0.0543 -2.4552
11814SOL    HW247502   9.456   5.046   1.459  0.0071  1.0735 -0.2446
11815SOL     OW47503   8.821   0.989   8.960  0.2038 -0.1284 -0.1187
11815SOL    HW147504   8.828   0.891   8.981 -0.3808  0.0170  0.8014
11815SOL    HW247505   8.735   1.025   8.996 -0.0023  0.5397 -1.2437
11816SOL     OW47506   2.357   9.431   0.837  0.1041 -0.2387 -0.1537
11816SOL    HW147507   2.260   9.409   0.849  0.1541  0.3892  1.4570
11816SOL    HW247508   2.398   9.367   0.771 -1.3275 -0.6799 -0.6264
11817SOL     OW47509   7.368   8.975   2.974 -0.0190 -0.3477 -0.2239
11817SOL    HW147510   7.343   8.915   2.898 -2.2027 -0.5536  0.6302
11817SOL    HW247511   7.313   8.952   3.055 -0.9159  2.7831  0.1393
11818SOL     OW47512   8.201   1.654   5.376  0.6423  0.0498 -0.7799
11818SOL    HW147513   8.163   1.577   5.426  0.2585  0.4177 -0.4996
11818SOL    HW247514   8.216   1.628   5.281  0.2908 -0.2939 -0.7422
11819SOL     OW47515   1.232   5.037   3.177  0.4985  0.1313 -0.4518
11819SOL    HW147516   1.223   5.119   3.233 -0.4165  0.0177 -0.4216
11819SOL    HW247517   1.141   4.997   3.162  0.9908 -1.2327  0.0855
11820SOL     OW47518   2.690   2.129   5.268 -0.8888  0.3588  0.2842
11820SOL    HW147519   2.703   2.228   5.257 -1.6735  0.5550  1.0853
11820SOL    HW247520   2.772   2.089   5.309 -0.6659  0.7119  0.1865
11821SOL     OW47521   1.524   8.649   8.381  0.3969  0.1375  0.2433
11821SOL    HW147522   1.485   8.671   8.470  1.9765 -0.5249  1.1102
11821SOL    HW247523   1.506   8.724   8.317 -1.6132  0.1841  0.8160
11822SOL     OW47524   3.374   6.679   4.064 -0.0126 -0.2037  0.1327
11822SOL    HW147525   3.458   6.716   4.104 -1.0205  1.0495  1.1517
11822SOL    HW247526   3.396   6.605   4.001  1.7733 -0.8864  1.5117
11823SOL     OW47527   7.685   4.214   6.176  0.1906  0.0703 -0.6291
11823SOL    HW147528   7.619   4.281   6.143  0.0750  0.4617  0.3854
11823SOL    HW247529   7.638   4.129   6.197  0.0089  0.3352  0.0536
11824SOL     OW47530   6.478   5.053   2.293  1.0527 -0.0546 -0.3912
11824SOL    HW147531   6.576   5.055   2.274  0.9691 -0.7671 -0.9115
11824SOL    HW247532   6.434   5.133   2.252  1.2076 -0.4349 -1.2978
11825SOL     OW47533   2.857   2.341   2.859 -0.1842 -0.0707  0.1269
11825SOL    HW147534   2.878   2.354   2.763  0.3258  1.0774  0.3869
11825SOL    HW247535   2.941   2.339   2.912 -0.4752 -0.3762  0.5849
11826SOL     OW47536   0.717   2.850   8.533  0.0893  0.0238  0.6985
11826SOL    HW147537   0.699   2.806   8.621  0.6326 -1.1709  0.2240
11826SOL    HW247538   0.636   2.845   8.475  0.3942 -1.0666  0.3546
11827SOL     OW47539   9.856   2.139   1.571 -0.1293 -0.0221  0.0229
11827SOL    HW147540   9.942   2.105   1.610 -0.2464  1.0295  1.2231
11827SOL    HW247541   9.866   2.235   1.545 -1.1633  0.3346  0.8904
11828SOL     OW47542   3.310   8.451   8.455 -0.1747 -0.1411 -0.3037
11828SOL    HW147543   3.241   8.405   8.400  1.9557 -1.6701 -1.7816
11828SOL    HW247544   3.355   8.383   8.514  1.4901  0.4304 -0.8999
11829SOL     OW47545   3.377   3.907   8.087  0.1164 -0.0935  0.3678
11829SOL    HW147546   3.412   3.847   8.016  1.1989  1.9167 -0.8620
11829SOL    HW247547   3.300   3.960   8.051 -1.1109 -1.0378  1.5693
11830SOL     OW47548   9.493   3.668   1.447  0.1191  0.0948 -0.0733
11830SOL    HW147549   9.506   3.709   1.537  1.2405  1.4128 -0.8109
11830SOL    HW247550   9.396   3.644   1.435  0.0728 -0.6563  1.6946
11831SOL     OW47551   7.035   9.420   3.484 -0.3132  0.5817 -0.1226
11831SOL    HW147552   7.096   9.341   3.477 -1.8340 -0.5826 -0.4401
11831SOL    HW247553   6.985   9.416   3.570 -1.7625  0.1892 -0.9735
11832SOL     OW47554   4.174   7.893   7.147 -0.3034 -0.2367 -0.5366
11832SOL    HW147555   4.161   7.912   7.049 -1.5052 -1.0234 -0.5401
11832SOL    HW247556   4.199   7.977   7.194 -1.4703  0.5244 -1.2317
11833SOL     OW47557   2.431   8.438   5.805 -0.5326 -0.1940 -0.3375
11833SOL    HW147558   2.509   8.487   5.767 -0.2222 -1.3666 -1.2157
11833SOL    HW247559   2.445   8.340   5.796 -1.0628 -0.4544  1.6191
11834SOL     OW47560   2.942   9.462   9.189  0.1265 -0.3029  0.4724
11834SOL    HW147561   3.042   9.466   9.184  0.0545  0.2880 -0.4509
11834SOL    HW247562   2.904   9.457   9.097 -0.7532  0.6017  0.7835
11835SOL     OW47563   2.558   8.200   3.697 -0.9213 -0.5530  0.0982
11835SOL    HW147564   2.460   8.184   3.714 -0.7021 -0.2494  1.7327
11835SOL    HW247565   2.608   8.115   3.706 -0.9533 -0.6027 -0.1809
11836SOL     OW47566   6.663   5.367   7.364  0.3925 -0.0631  0.0003
11836SOL    HW147567   6.721   5.432   7.413  1.9446 -0.9888 -0.5444
11836SOL    HW247568   6.579   5.413   7.334  0.5901  1.1673  1.2741
11837SOL     OW47569   3.556   2.963   1.130  0.3700  0.6504  0.0204
11837SOL    HW147570   3.622   2.920   1.069 -0.1292 -0.6261  0.3643
11837SOL    HW247571   3.591   2.959   1.224 -0.0192  0.2997  0.1542
11838SOL     OW47572   7.871   6.046   4.741  0.3122 -0.2178 -0.3934
11838SOL    HW147573   7.927   6.074   4.663 -0.9162  0.9016 -0.8874
11838SOL    HW247574   7.804   6.117   4.761  0.6328 -0.4678  1.7201
11839SOL     OW47575   2.525   2.196   5.014  0.5859  0.3181  0.1131
11839SOL    HW147576   2.431   2.221   5.037  1.1006  2.0254  0.4956
11839SOL    HW247577   2.567   2.149   5.091  0.5033  0.9136  0.5300
11840SOL     OW47578   9.501   3.119   6.652 -0.2245  0.6690 -0.3299
11840SOL    HW147579   9.562   3.196   6.635 -0.4222  0.9913  0.4108
11840SOL    HW247580   9.422   3.125   6.590  0.2851  0.4743 -1.0016
11841SOL     OW47581   1.145   5.254   5.082 -0.0790  0.4314 -0.7462
11841SOL    HW147582   1.135   5.352   5.098 -1.2543  0.3313 -0.8186
11841SOL    HW247583   1.174   5.208   5.166 -1.8592  0.5173 -0.0785
11842SOL     OW47584   3.231   9.461   4.790 -0.0161 -0.4441  0.1242
11842SOL    HW147585   3.210   9.458   4.887 -0.3132  0.9787  0.1133
11842SOL    HW247586   3.174   9.394   4.741 -0.2812 -0.7478  0.8414
11843SOL     OW47587   8.486   5.433   6.889 -0.6052 -0.2686  0.3097
11843SOL    HW147588   8.537   5.488   6.955 -0.8120 -0.9529  1.0387
11843SOL    HW247589   8.391   5.424   6.919 -1.3064  1.3879 -1.2781
11844SOL     OW47590   3.846   6.553   4.656 -0.4134 -0.0305  0.1853
11844SOL    HW147591   3.807   6.508   4.737  0.0284 -1.7992 -0.5653
11844SOL    HW247592   3.786   6.539   4.578  1.3422 -2.2272 -0.8304
11845SOL     OW47593   0.922   1.179   3.539 -0.2569  0.3456  0.1983
11845SOL    HW147594   0.921   1.250   3.610 -3.7737  3.2588 -2.5171
11845SOL    HW247595   0.834   1.132   3.538  0.0111 -0.1431 -1.7105
11846SOL     OW47596   9.283   0.474   1.584 -0.0285 -0.2981 -0.5066
11846SOL    HW147597   9.202   0.415   1.578 -1.2336  1.2550  0.2294
11846SOL    HW247598   9.268   0.558   1.532  1.5768 -0.5036 -1.3303
11847SOL     OW47599   2.951   6.575   7.743 -0.8834  0.5833 -0.9131
11847SOL    HW147600   2.904   6.604   7.826 -0.3469 -0.2577 -0.3092
11847SOL    HW247601   2.917   6.484   7.716  0.7930 -0.2885 -0.1487
11848SOL     OW47602   9.504   0.392   5.069  0.3768 -0.0563  0.5382
11848SOL    HW147603   9.542   0.346   4.989  1.6626  0.9161  0.5803
11848SOL    HW247604   9.430   0.453   5.040  0.8667  0.3247  0.0894
11849SOL     OW47605   8.274   5.523   1.224  0.6962  0.1438 -0.0933
11849SOL    HW147606   8.318   5.438   1.195  1.3335 -0.0362  1.3694
11849SOL    HW247607   8.285   5.592   1.153 -1.7306 -1.5977 -2.3087
11850SOL     OW47608   9.226   5.660   1.714  0.0472 -0.0526 -0.0226
11850SOL    HW147609   9.245   5.570   1.674 -1.4436 -0.0713 -0.7230
11850SOL    HW247610   9.224   5.729   1.642 -0.5160  0.2674  0.2970
11851SOL     OW47611   9.236   1.135   5.758  0.0170 -0.0267  0.2863
11851SOL    HW147612   9.150   1.118   5.806  0.1980  0.3098  0.7421
11851SOL    HW247613   9.270   1.049   5.719 -2.0429  0.3724 -2.5209
11852SOL     OW47614   2.793   7.532   3.479 -0.1618 -0.1247 -0.2700
11852SOL    HW147615   2.732   7.574   3.545 -1.2269 -0.9732 -0.6898
11852SOL    HW247616   2.877   7.501   3.525  0.0397  1.2163  0.2699
11853SOL     OW47617   2.837   6.457   9.294 -0.1004 -0.1485 -0.0227
11853SOL    HW147618   2.885   6.383   9.341  2.0612  1.6950  0.7934
11853SOL    HW247619   2.802   6.424   9.207 -1.2508 -2.7469  1.3807
11854SOL     OW47620   1.953   4.636   7.690 -0.4079 -0.1384 -0.3046
11854SOL    HW147621   1.995   4.717   7.650  0.8407 -1.0909 -0.9465
11854SOL    HW247622   1.929   4.571   7.618  1.3541 -1.6321  0.4236
11855SOL     OW47623   3.238   5.280   3.587  0.1655  0.2701  0.1935
11855SOL    HW147624   3.161   5.231   3.547 -0.3671  0.6991  0.6762
11855SOL    HW247625   3.259   5.360   3.532  0.8671 -0.3483 -0.4496
11856SOL     OW47626   2.977   6.225   3.751 -0.7138  0.4675  0.0790
11856SOL    HW147627   2.936   6.281   3.823 -1.4469 -1.5280  1.2285
11856SOL    HW247628   2.906   6.175   3.702 -0.0191  0.1495 -0.6229
11857SOL     OW47629   7.557   0.881   0.448 -0.7267  0.1874 -0.2652
11857SOL    HW147630   7.601   0.844   0.530 -2.2594 -1.8226 -0.3008
11857SOL    HW247631   7.516   0.970   0.469  0.9264  0.7880  0.4928
11858SOL     OW47632   8.294   9.600   3.345 -0.3811  0.2096  0.0472
11858SOL    HW147633   8.226   9.642   3.285 -0.0237 -0.4709 -0.8336
11858SOL    HW247634   8.300   9.502   3.326 -0.4141 -0.0513  1.3364
11859SOL     OW47635   3.919   4.021   2.253 -0.0417  0.3766  0.0563
11859SOL    HW147636   3.965   3.937   2.283  1.8925  1.2850 -0.3414
11859SOL    HW247637   3.969   4.100   2.287 -0.9432  1.3866 -0.9498
11860SOL     OW47638   5.020   4.414   0.978 -0.0685 -0.0921 -0.1565
11860SOL    HW147639   5.049   4.510   0.980  0.7792 -0.3628  1.1848
11860SOL    HW247640   5.097   4.356   1.004 -1.2279 -0.9857  1.3596
11861SOL     OW47641   3.069   4.009   8.520 -0.4882 -0.5360 -0.3752
11861SOL    HW147642   3.146   3.989   8.460 -0.5084  1.0610 -0.9611
11861SOL    HW247643   3.078   3.957   8.605  0.1329 -1.9443 -1.2986
11862SOL     OW47644   2.334   3.262   8.882  0.0406  0.3341 -0.0459
11862SOL    HW147645   2.374   3.248   8.791 -0.0372 -0.9959  0.1143
11862SOL    HW247646   2.246   3.309   8.873  0.5138  1.1370 -0.5702
11863SOL     OW47647   8.291   2.991   6.655 -0.0070  0.5110  0.0132
11863SOL    HW147648   8.245   2.903   6.671 -1.2121  0.8255 -1.5677
11863SOL    HW247649   8.300   3.041   6.741  0.4082 -1.0128  0.8820
11864SOL     OW47650   1.189   1.434   3.980  0.0952 -0.2104 -0.1626
11864SOL    HW147651   1.281   1.416   4.015 -0.8356 -2.2252  1.3899
11864SOL    HW247652   1.163   1.528   4.000  1.0161 -0.2603  1.3230
11865SOL     OW47653   0.683   4.588   1.924  0.3231  0.3310 -0.1248
11865SOL    HW147654   0.671   4.666   1.862  1.4610  0.1041 -0.6416
11865SOL    HW247655   0.625   4.512   1.894 -0.1289  0.6761 -0.1312
11866SOL     OW47656   6.492   3.256   9.514  0.3255 -0.0210  0.0622
11866SOL    HW147657   6.529   3.179   9.463  0.0857  0.4590 -0.8548
11866SOL    HW247658   6.457   3.224   9.602  1.1235 -0.7907  0.1079
11867SOL     OW47659   9.756   4.780   5.248  0.1950  0.3038 -0.0153
11867SOL    HW147660   9.742   4.800   5.345  0.7827  0.2326  0.0806
11867SOL    HW247661   9.757   4.866   5.196 -1.0397  0.2916 -0.0821
11868SOL     OW47662   2.859   3.432   1.984 -0.2255  0.6021 -0.3145
11868SOL    HW147663   2.937   3.369   1.990 -0.6722  0.1106  0.4385
11868SOL    HW247664   2.840   3.453   1.888  0.7892  0.6649 -0.5049
11869SOL     OW47665   3.256   1.466   6.874  0.6528 -0.5410 -0.0946
11869SOL    HW147666   3.326   1.409   6.916 -1.2588 -2.2576  0.8108
11869SOL    HW247667   3.213   1.417   6.798 -0.0974  0.1918 -0.1595
11870SOL     OW47668   6.369   8.656   4.100 -0.6238 -0.0237  0.4404
11870SOL    HW147669   6.278   8.695   4.087  0.0893  1.5227 -0.0108
11870SOL    HW247670   6.398   8.671   4.195 -1.0676 -1.0142  0.7342
11871SOL     OW47671   2.042   4.519   5.190 -0.3098 -0.3171 -0.2680
11871SOL    HW147672   2.090   4.550   5.108  1.2828  0.2839  0.8559
11871SOL    HW247673   2.103   4.526   5.269 -1.2532 -2.4843  0.7053
11872SOL     OW47674   5.553   4.062   1.274 -0.6002  0.2874 -0.3193
11872SOL    HW147675   5.599   3.976   1.297 -0.1949  0.7571  0.6334
11872SOL    HW247676   5.456   4.053   1.295 -0.3665  0.4462  0.8807
11873SOL     OW47677   8.351   3.140   5.572  0.0291 -0.0938  0.2626
11873SOL    HW147678   8.408   3.176   5.498 -0.9609 -0.3372 -0.6536
11873SOL    HW247679   8.257   3.173   5.560 -0.4343 -1.2531  0.6252
11874SOL     OW47680   0.390   5.409   2.314 -0.8602 -0.5131 -0.4089
11874SOL    HW147681   0.304   5.370   2.283 -1.8570  1.3877 -0.1586
11874SOL    HW247682   0.465   5.347   2.294 -1.9727 -1.0932 -2.9096
11875SOL     OW47683   2.803   5.291   1.054 -0.3459  0.1950  0.2285
11875SOL    HW147684   2.790   5.372   1.111  0.3235  1.1148 -0.8887
11875SOL    HW247685   2.885   5.303   0.998  0.4094 -1.7495  0.8646
11876SOL     OW47686   9.135   6.756   8.152  0.3095 -0.4461 -0.0133
11876SOL    HW147687   9.194   6.836   8.164  0.2663 -0.1556 -1.6270
11876SOL    HW247688   9.049   6.784   8.110 -0.0246 -1.2360  0.1274
11877SOL     OW47689   9.604   9.807   0.106  0.2240  0.4490  0.0008
11877SOL    HW147690   9.627   9.882   0.168  1.8408  0.8812 -1.0908
11877SOL    HW247691   9.506   9.808   0.087 -0.0500  1.1921  1.3867
11878SOL     OW47692   4.266   3.458   8.178  0.4188  0.2847  0.1498
11878SOL    HW147693   4.251   3.398   8.099  1.1377  0.6418 -0.2637
11878SOL    HW247694   4.254   3.554   8.149  0.6335  0.4122  0.4889
11879SOL     OW47695   4.437   4.686   8.873  0.0343 -0.0756 -0.0301
11879SOL    HW147696   4.421   4.784   8.881  0.2583 -0.0979  0.7951
11879SOL    HW247697   4.353   4.639   8.847 -0.1752  0.2888 -0.0020
11880SOL     OW47698   0.918   2.761   7.125 -0.5763  0.0844 -0.1140
11880SOL    HW147699   1.017   2.773   7.116 -0.7553  0.3631 -1.7514
11880SOL    HW247700   0.876   2.849   7.148 -0.7694  0.5870 -2.3399
11881SOL     OW47701   7.553   5.925   1.096 -0.1867  0.3061  0.2915
11881SOL    HW147702   7.614   5.873   1.156  0.2992  1.8793  1.1932
11881SOL    HW247703   7.462   5.885   1.098  0.4878 -1.3294 -0.1065
11882SOL     OW47704   9.475   2.911   7.096 -0.7512  0.0437  0.1582
11882SOL    HW147705   9.476   2.832   7.033 -1.0625  1.3786 -1.5585
11882SOL    HW247706   9.544   2.897   7.167 -0.0411 -1.2763 -0.7601
11883SOL     OW47707   2.651   1.179   2.527  0.3038 -0.3719 -0.1572
11883SOL    HW147708   2.585   1.245   2.490  0.2529 -1.3201 -1.8030
11883SOL    HW247709   2.657   1.191   2.626 -1.1982  0.7571 -0.1754
11884SOL     OW47710   4.851   5.935   3.495 -0.5266  0.4266  0.0083
11884SOL    HW147711   4.779   5.933   3.564 -1.0552  0.0592 -0.5418
11884SOL    HW247712   4.815   5.897   3.409  0.1251  0.8569 -0.4566
11885SOL     OW47713   9.363   7.875   0.645 -0.8999 -0.3817 -0.3410
11885SOL    HW147714   9.272   7.866   0.687 -1.5499  1.5832 -1.2709
11885SOL    HW247715   9.353   7.902   0.549  0.6227 -3.0726 -1.3243
11886SOL     OW47716   0.427   5.199   8.913 -0.4437  0.2030  0.3437
11886SOL    HW147717   0.436   5.222   9.010 -0.9736  1.3300  0.1373
11886SOL    HW247718   0.441   5.101   8.901  0.9061  0.2436  1.3925
11887SOL     OW47719   6.492   2.166   5.708  0.1468 -0.3021 -0.3414
11887SOL    HW147720   6.506   2.101   5.633 -1.5487 -1.8780  0.6490
11887SOL    HW247721   6.470   2.116   5.792 -2.0506  1.5572  0.2563
11888SOL     OW47722   2.041   4.623   9.083  0.0793  0.3114 -0.6130
11888SOL    HW147723   1.993   4.709   9.065  0.3867  0.4378 -0.8428
11888SOL    HW247724   1.975   4.547   9.080 -0.3290  0.6222  0.4139
11889SOL     OW47725   8.232   5.109   7.659  0.4752 -1.0080  0.2847
11889SOL    HW147726   8.313   5.082   7.710 -0.3548 -1.4503  1.3967
11889SOL    HW247727   8.227   5.057   7.574  1.4515 -0.8397  0.1237
11890SOL     OW47728   3.482   9.303   3.510  0.0209  0.1139 -0.5108
11890SOL    HW147729   3.578   9.290   3.533 -0.4079 -0.5600  0.9384
11890SOL    HW247730   3.449   9.386   3.555 -0.6228 -0.7986  0.7203
11891SOL     OW47731   5.985   9.249   7.690 -0.0130  0.2488  0.1659
11891SOL    HW147732   6.002   9.344   7.715  3.3185 -0.4551  0.7088
11891SOL    HW247733   6.046   9.222   7.616  0.1604 -1.9007  1.0448
11892SOL     OW47734   2.148   1.686   1.122  0.0145  1.0160  0.0578
11892SOL    HW147735   2.064   1.673   1.070 -0.1437  1.2500  0.2539
11892SOL    HW247736   2.227   1.660   1.066 -0.2401  0.0376  0.1515
11893SOL     OW47737   4.699   6.942   1.458 -0.6547  0.0752 -0.0049
11893SOL    HW147738   4.756   6.976   1.384 -0.4344  1.1224  0.6390
11893SOL    HW247739   4.682   6.844   1.445 -1.3718  0.4454 -1.9200
11894SOL     OW47740   3.061   5.314   1.776 -0.0591 -0.0216  0.9125
11894SOL    HW147741   3.025   5.268   1.695 -1.7011  0.8202  1.1544
11894SOL    HW247742   3.134   5.259   1.816  1.5882  0.1096 -1.8066
11895SOL     OW47743   2.334   0.016   3.265 -0.4239 -0.0841  0.3785
11895SOL    HW147744   2.247   0.066   3.267  0.1311  0.8446  1.5414
11895SOL    HW247745   2.344  -0.037   3.349 -0.8566 -1.9086 -0.7092
11896SOL     OW47746   7.798   2.371   4.853 -0.3624  0.2503  0.0899
11896SOL    HW147747   7.710   2.413   4.876 -1.1676 -0.3558 -1.8308
11896SOL    HW247748   7.801   2.350   4.756  0.9918 -1.9192  0.5747
11897SOL     OW47749   1.761   3.179   8.394 -0.1098  0.6245 -0.9567
11897SOL    HW147750   1.782   3.236   8.314  0.9191  1.0238 -0.4126
11897SOL    HW247751   1.837   3.117   8.411  0.2571  1.4590  0.5149
11898SOL     OW47752   3.885   1.762   2.592 -0.3420  0.1742 -0.2270
11898SOL    HW147753   3.877   1.809   2.680  2.1963  0.6725 -0.2289
11898SOL    HW247754   3.906   1.829   2.521 -1.5604 -0.3391 -1.0743
11899SOL     OW47755   9.998   9.717   3.235  0.0547 -0.2235  0.4891
11899SOL    HW147756   9.980   9.810   3.203 -1.2733 -0.5201  0.3498
11899SOL    HW247757  10.051   9.668   3.166  0.3433  0.2687  0.3545
11900SOL     OW47758   0.294   9.945   3.528 -0.1609  0.1161  0.4514
11900SOL    HW147759   0.253   9.857   3.551  0.3985  0.0027  1.0320
11900SOL    HW247760   0.240  10.019   3.568 -0.2281  0.0024  0.5700
11901SOL     OW47761   7.143   3.264   3.667 -0.0682  0.3867  0.0249
11901SOL    HW147762   7.210   3.309   3.726 -0.6763  2.1159 -0.5882
11901SOL    HW247763   7.125   3.321   3.587 -1.7008 -0.4320 -0.2043
11902SOL     OW47764   8.585   5.826   0.889 -0.3495  0.2092  0.1336
11902SOL    HW147765   8.681   5.829   0.916 -0.1905 -1.0617 -0.2557
11902SOL    HW247766   8.578   5.797   0.793 -1.2167 -1.5413  0.7173
11903SOL     OW47767   6.744   0.414   4.149  0.9301 -0.2981 -0.2622
11903SOL    HW147768   6.656   0.460   4.133  1.4411  0.0944 -2.1093
11903SOL    HW247769   6.737   0.356   4.230 -0.8790  0.1284 -0.0885
11904SOL     OW47770   9.299   4.422   7.749 -0.2062 -0.0375  0.2326
11904SOL    HW147771   9.378   4.385   7.700 -1.2424  0.3762 -1.8379
11904SOL    HW247772   9.277   4.364   7.827  1.2600 -0.9446 -0.0195
11905SOL     OW47773   2.260   5.072   7.720  0.5663  1.1754 -0.0999
11905SOL    HW147774   2.234   4.978   7.742  0.5900  0.6055 -2.3507
11905SOL    HW247775   2.342   5.072   7.663  0.7202  2.5736  0.0964
11906SOL     OW47776   1.878   8.253   1.141  0.2187 -0.6455 -0.3247
11906SOL    HW147777   1.801   8.268   1.079 -0.1214 -0.9364  0.0177
11906SOL    HW247778   1.947   8.197   1.096  0.4200 -0.0218 -0.7836
11907SOL     OW47779   3.325   6.311   2.290 -0.2038  0.1743 -0.3370
11907SOL    HW147780   3.270   6.316   2.207  1.0795 -1.8627 -1.3566
11907SOL    HW247781   3.307   6.391   2.347 -0.4536  2.0676 -2.9786
11908SOL     OW47782   0.285   1.661   3.154  0.3121 -0.1229 -0.3115
11908SOL    HW147783   0.196   1.632   3.189 -0.7196  2.0457 -1.0366
11908SOL    HW247784   0.296   1.628   3.060  0.4930 -0.8435 -0.0341
11909SOL     OW47785   7.109   5.111   7.653 -0.4864 -0.1919  0.1616
11909SOL    HW147786   7.097   5.014   7.672 -1.2274 -0.4376 -1.4496
11909SOL    HW247787   7.070   5.132   7.563 -1.0785  1.7561  0.8484
11910SOL     OW47788   6.142   4.149   1.382 -0.2439  0.3074  0.1117
11910SOL    HW147789   6.151   4.203   1.467  2.4189  1.6090 -0.9263
11910SOL    HW247790   6.103   4.207   1.311 -0.8544 -0.2649 -0.0164
11911SOL     OW47791   4.711   7.137   6.941 -0.0440  0.4758 -0.2354
11911SOL    HW147792   4.662   7.123   6.855 -0.4039 -2.2219  0.3662
11911SOL    HW247793   4.649   7.124   7.018  0.5887  1.5114  0.4588
11912SOL     OW47794   2.294   1.741   4.121  0.2753  0.5858  0.1364
11912SOL    HW147795   2.219   1.739   4.054  0.1111  0.3276  0.3303
11912SOL    HW247796   2.343   1.654   4.117 -0.3168  0.2062  1.0204
11913SOL     OW47797   8.512   5.892   6.778 -0.4573 -0.2873 -0.2302
11913SOL    HW147798   8.596   5.869   6.828  0.3098  0.8420 -0.9697
11913SOL    HW247799   8.464   5.808   6.754  1.7633 -1.1271 -2.0064
11914SOL     OW47800   1.675   8.402   3.697 -0.2099 -0.1801  0.0648
11914SOL    HW147801   1.727   8.317   3.699  0.5033  0.2450 -0.1378
11914SOL    HW247802   1.650   8.424   3.603 -1.0271 -0.5448  0.1966
11915SOL     OW47803   9.938   5.189   7.919  0.1755 -0.1701  0.0133
11915SOL    HW147804   9.896   5.215   8.006 -0.5499  0.4972 -0.5294
11915SOL    HW247805  10.012   5.124   7.936 -2.0421 -2.5446  0.8700
11916SOL     OW47806   3.294   2.065   4.024  0.0732 -0.3386 -0.3708
11916SOL    HW147807   3.251   1.987   3.979 -1.8941  0.8083 -0.5197
11916SOL    HW247808   3.301   2.048   4.123 -1.6375 -0.1505 -0.2015
11917SOL     OW47809   0.181   2.116   7.501  0.1468  0.5343 -0.2904
11917SOL    HW147810   0.236   2.155   7.575 -0.3135  0.3942  0.1312
11917SOL    HW247811   0.191   2.017   7.502 -0.0281  0.5171 -0.2792
11918SOL     OW47812   1.334   5.210   7.561 -0.2362 -0.2906 -0.0859
11918SOL    HW147813   1.327   5.283   7.493  0.9115  0.0070  0.0957
11918SOL    HW247814   1.279   5.233   7.641 -0.8527 -0.2071 -0.5281
11919SOL     OW47815   2.162   1.676   7.805  0.5649 -0.0409 -0.1362
11919SOL    HW147816   2.086   1.723   7.760  1.7799  1.7911 -0.3167
11919SOL    HW247817   2.132   1.641   7.893 -1.0992 -1.3068 -1.1786
11920SOL     OW47818   6.544   7.818   5.944  0.3520  0.5242  1.0919
11920SOL    HW147819   6.597   7.892   5.984  0.0895  1.0031  0.5573
11920SOL    HW247820   6.585   7.790   5.857  0.1679  0.3797  1.0496
11921SOL     OW47821   8.183   7.981   7.207 -0.0643  0.5232  0.1910
11921SOL    HW147822   8.247   8.050   7.241 -1.0097  0.6834  1.6856
11921SOL    HW247823   8.100   8.026   7.174  0.5237  0.3084 -1.6301
11922SOL     OW47824   0.779   9.891   9.138  0.5247 -0.3198  0.2043
11922SOL    HW147825   0.737   9.961   9.197 -1.0451 -2.5105  1.7434
11922SOL    HW247826   0.840   9.936   9.073 -0.0863  2.4577  1.4512
11923SOL     OW47827   7.404   5.733   9.588 -0.3511  0.5520  0.1574
11923SOL    HW147828   7.327   5.792   9.565 -0.4966  0.7857  1.1925
11923SOL    HW247829   7.395   5.703   9.683  0.6650  0.3236  0.1831
11924SOL     OW47830   3.138   1.434   0.049  0.3857  0.1642 -0.3735
11924SOL    HW147831   3.048   1.430   0.007  0.3946 -0.3768 -0.3443
11924SOL    HW247832   3.161   1.345   0.087  1.7668 -0.2432 -2.1325
11925SOL     OW47833   8.940   0.499   8.377 -0.5946 -0.0726 -0.2090
11925SOL    HW147834   8.928   0.400   8.370  0.2635 -0.1857 -0.0579
11925SOL    HW247835   9.032   0.524   8.347 -0.1250  0.4727  1.6665
11926SOL     OW47836   9.476   7.135   0.257 -0.2290  0.3376 -0.3820
11926SOL    HW147837   9.379   7.136   0.231 -0.2894  2.0037 -0.1935
11926SOL    HW247838   9.507   7.041   0.269 -1.1734 -0.3234 -2.8441
11927SOL     OW47839   2.002   1.190   3.564  0.6587 -0.3719 -0.1608
11927SOL    HW147840   2.050   1.245   3.633 -2.4175  0.3699  1.4854
11927SOL    HW247841   1.979   1.248   3.485 -1.7346  0.5366  1.1576
11928SOL     OW47842   7.696   6.374   7.982  0.2243 -0.7726  0.1030
11928SOL    HW147843   7.624   6.305   7.983  1.1913 -1.8281 -1.0557
11928SOL    HW247844   7.784   6.330   7.962  1.0422  0.6331  0.5241
11929SOL     OW47845   7.877   3.436   4.978 -0.3032 -0.4414  0.1371
11929SOL    HW147846   7.941   3.384   5.034  0.0915 -0.8234 -0.6729
11929SOL    HW247847   7.860   3.388   4.892  1.7246  1.7778 -1.5634
11930SOL     OW47848   2.981   2.312   3.869  0.6591  0.4323  0.0679
11930SOL    HW147849   2.946   2.230   3.915  1.3455  1.2366  2.0746
11930SOL    HW247850   2.943   2.393   3.912  1.6510  1.2240 -0.5160
11931SOL     OW47851   9.556   5.315   8.013 -0.0416  0.2460  0.2850
11931SOL    HW147852   9.509   5.403   8.017  0.0228  0.3089 -0.2926
11931SOL    HW247853   9.534   5.261   8.095 -1.2743  0.1986 -0.0780
11932SOL     OW47854   1.731   1.450   2.655 -0.6115  0.0719  0.1205
11932SOL    HW147855   1.802   1.451   2.584 -0.1785  0.7060  0.5580
11932SOL    HW247856   1.670   1.371   2.640  0.7352 -1.0146  0.2948
11933SOL     OW47857   6.720   7.450   3.391 -0.3264 -0.1726 -0.2778
11933SOL    HW147858   6.694   7.545   3.372  0.1255  0.0059 -0.0046
11933SOL    HW247859   6.759   7.444   3.483 -2.4433 -1.0159  0.6219
11934SOL     OW47860   1.636   1.385   0.915 -0.4558 -0.4205  0.2017
11934SOL    HW147861   1.548   1.417   0.878 -0.9723 -2.4661 -0.3934
11934SOL    HW247862   1.695   1.355   0.840  0.6387  0.6238  0.6287
11935SOL     OW47863   1.146   5.694   1.761  0.1481 -0.1631 -0.3109
11935SOL    HW147864   1.166   5.788   1.734 -0.9490 -0.1435 -1.1139
11935SOL    HW247865   1.193   5.672   1.846  1.5059  0.6724 -0.8264
11936SOL     OW47866   1.062   8.419   8.793  0.2895  0.1941 -0.3097
11936SOL    HW147867   1.146   8.392   8.841  0.7742  2.1230 -0.0218
11936SOL    HW247868   1.085   8.460   8.705 -0.4084 -0.2120 -0.6843
11937SOL     OW47869   5.527   1.573   3.712  0.2467  0.1554  0.1405
11937SOL    HW147870   5.513   1.494   3.652  0.1308 -0.4473  0.9551
11937SOL    HW247871   5.442   1.594   3.761  0.6559 -0.0801  0.9683
11938SOL     OW47872   8.071   7.560   3.601 -0.2871 -0.3791 -0.4978
11938SOL    HW147873   8.138   7.487   3.613  0.6244  0.4232 -0.6908
11938SOL    HW247874   8.117   7.648   3.599 -1.3394  0.1752 -0.7234
11939SOL     OW47875   3.078   3.144   4.796  0.5612  0.2074 -0.1782
11939SOL    HW147876   2.984   3.178   4.802 -0.4569 -2.6699  0.7764
11939SOL    HW247877   3.102   3.095   4.880  2.3337 -0.5900 -1.1154
11940SOL     OW47878   5.510   4.506   2.386  0.3088 -0.2126  0.1294
11940SOL    HW147879   5.462   4.592   2.368 -1.2901 -0.9488  0.7411
11940SOL    HW247880   5.468   4.433   2.333  2.9158 -0.3060 -1.9081
11941SOL     OW47881   2.401   3.298   0.808  0.0245 -0.1382  0.1886
11941SOL    HW147882   2.417   3.246   0.891  0.2477  0.6671  0.6522
11941SOL    HW247883   2.303   3.301   0.789  0.0412 -1.0586 -0.0608
11942SOL     OW47884   4.330   5.511   4.524 -0.1619  0.0065  0.3110
11942SOL    HW147885   4.357   5.547   4.434  3.5895 -0.1139  1.3041
11942SOL    HW247886   4.312   5.413   4.516 -0.7935  0.1825 -0.5022
11943SOL     OW47887   7.902   7.659   4.588 -0.1478  0.5439  0.0314
11943SOL    HW147888   7.954   7.737   4.623  0.6356  0.5320 -1.0820
11943SOL    HW247889   7.941   7.629   4.501 -1.3009 -0.2120 -0.2398
11944SOL     OW47890   3.716   5.403   3.187  0.1921 -0.0668 -0.4321
11944SOL    HW147891   3.655   5.364   3.256  0.1959  0.9029  0.1246
11944SOL    HW247892   3.703   5.355   3.101 -0.6090 -0.5617 -0.0446
11945SOL     OW47893   9.586   0.423   5.353  0.1614 -0.2474  0.4493
11945SOL    HW147894   9.559   0.355   5.421 -1.3519  2.0252  2.1879
11945SOL    HW247895   9.554   0.394   5.262 -1.5552 -1.2423  1.3479
11946SOL     OW47896   9.549   6.414   4.283  0.6569  0.0488  0.1840
11946SOL    HW147897   9.647   6.407   4.302  0.7539  1.0375  0.0784
11946SOL    HW247898   9.510   6.322   4.275  1.2847 -0.3792  1.7370
11947SOL     OW47899   8.277   7.788   7.039  0.0252 -0.2599  0.2195
11947SOL    HW147900   8.223   7.842   7.105 -0.8873 -0.9522  0.0544
11947SOL    HW247901   8.352   7.843   7.005 -1.1781  1.0847 -0.3108
11948SOL     OW47902   2.221   5.363   0.149 -0.8000 -0.4023 -0.4177
11948SOL    HW147903   2.176   5.288   0.198  0.3795 -0.7493  0.1526
11948SOL    HW247904   2.168   5.447   0.161 -0.3916 -0.4110  1.7126
11949SOL     OW47905   9.745   5.710   3.742 -0.3685  0.4020 -0.0329
11949SOL    HW147906   9.666   5.725   3.802 -0.2684  1.8169 -0.2419
11949SOL    HW247907   9.735   5.765   3.659  1.6756  2.0154  0.7330
11950SOL     OW47908   7.446   0.592   5.702  0.2014  0.4551 -0.0673
11950SOL    HW147909   7.527   0.537   5.722  1.3917  2.9883  2.4310
11950SOL    HW247910   7.474   0.678   5.659 -1.4392  0.1243 -1.8672
11951SOL     OW47911   4.282   2.518   3.665 -0.1654 -0.6903 -0.2160
11951SOL    HW147912   4.245   2.489   3.576 -1.7580 -2.0791  0.8746
11951SOL    HW247913   4.273   2.617   3.674  0.0875 -0.5236 -1.6266
11952SOL     OW47914   7.168   5.446   3.118  0.3711  0.3729 -0.0350
11952SOL    HW147915   7.115   5.374   3.163  0.1516  0.4522 -0.1623
11952SOL    HW247916   7.139   5.535   3.154  1.1925  0.3497  0.6901
11953SOL     OW47917   6.444   7.295   4.466  0.2075 -0.4404  0.1043
11953SOL    HW147918   6.408   7.384   4.493 -1.5388 -1.7012  2.0427
11953SOL    HW247919   6.397   7.264   4.384  1.2909  0.6918 -0.9705
11954SOL     OW47920   8.712   4.316   1.803 -0.1315  0.3414 -0.2052
11954SOL    HW147921   8.728   4.373   1.722 -0.4974  1.3477  0.4185
11954SOL    HW247922   8.640   4.358   1.858 -2.0228 -1.9184 -0.8851
11955SOL     OW47923   0.783   4.730   5.219 -0.1344 -0.0754 -0.1752
11955SOL    HW147924   0.820   4.737   5.127 -0.1422  0.5226 -0.1363
11955SOL    HW247925   0.837   4.664   5.272 -0.2397 -0.5455 -0.6561
11956SOL     OW47926   5.934   3.116   0.641  0.0911  0.4752  0.4869
11956SOL    HW147927   6.033   3.118   0.655  0.4715  1.5156 -2.0003
11956SOL    HW247928   5.908   3.028   0.602 -0.0186  0.0724  1.4631
11957SOL     OW47929   7.000   6.831   4.069  0.2071  0.3386 -0.1817
11957SOL    HW147930   6.984   6.799   3.976 -1.3184  0.7665 -0.0755
11957SOL    HW247931   6.915   6.826   4.121  0.8329  1.0000  0.9190
11958SOL     OW47932   2.517   9.377   8.162 -0.0775  0.7460 -0.1330
11958SOL    HW147933   2.554   9.417   8.246 -1.7063 -0.3818  1.1401
11958SOL    HW247934   2.592   9.349   8.102  1.0905  2.9684  0.2582
11959SOL     OW47935   0.140   5.352   1.521 -0.0341  0.1759 -0.0360
11959SOL    HW147936   0.073   5.284   1.492 -0.2403  0.4094 -0.1108
11959SOL    HW247937   0.196   5.380   1.443 -2.0186  2.4050 -0.7102
11960SOL     OW47938   0.028   1.364   7.393 -0.8232  0.0375  0.9816
11960SOL    HW147939   0.065   1.290   7.336 -0.2972  0.7659  0.3661
11960SOL    HW247940   0.056   1.452   7.355 -4.2168  0.6678 -0.2632
11961SOL     OW47941   9.956   1.691   3.013  0.5550  0.1803 -0.2016
11961SOL    HW147942   9.908   1.604   3.016 -0.8196  0.9630  1.2748
11961SOL    HW247943   9.925   1.749   3.088  1.6031  1.8653 -1.0364
11962SOL     OW47944   9.701   3.510   7.281  0.2751 -0.5609  0.6458
11962SOL    HW147945   9.797   3.507   7.307 -0.1127  3.9551  3.1863
11962SOL    HW247946   9.644   3.509   7.363 -1.7884 -1.5142 -0.7567
11963SOL     OW47947   5.912   0.959   9.122  0.6684  0.3022  0.2054
11963SOL    HW147948   5.999   0.919   9.153  0.0136 -0.8702  0.5552
11963SOL    HW247949   5.859   0.889   9.074 -0.1218  0.9995  0.0554
11964SOL     OW47950   6.237   3.208   0.290 -0.3700 -0.4491 -0.1765
11964SOL    HW147951   6.238   3.207   0.390  0.5935  0.7202 -0.1715
11964SOL    HW247952   6.258   3.300   0.257 -0.4379 -0.8834 -1.4597
11965SOL     OW47953   2.634   9.034   7.917 -0.3465  0.5007  0.1687
11965SOL    HW147954   2.714   8.989   7.876 -0.7528 -0.0766 -0.0025
11965SOL    HW247955   2.616   8.994   8.007 -1.5656 -0.6812 -0.5867
11966SOL     OW47956   3.399   3.595   1.689 -0.0961  0.3050 -0.5563
11966SOL    HW147957   3.402   3.608   1.590 -0.4386  0.8859 -0.4884
11966SOL    HW247958   3.420   3.681   1.735  2.2537 -0.4457 -0.1176
11967SOL     OW47959   5.717   0.412   4.035  0.5025  0.3016  0.3020
11967SOL    HW147960   5.806   0.403   3.990  0.5558  0.0120  0.4660
11967SOL    HW247961   5.666   0.327   4.023  0.3077  0.4159  0.3355
11968SOL     OW47962   6.991   9.315   4.127 -0.3296 -0.5046  0.5745
11968SOL    HW147963   6.939   9.259   4.062  1.0024 -1.2678  0.1534
11968SOL    HW247964   7.028   9.257   4.200  1.4737 -0.2741 -0.1283
11969SOL     OW47965   4.393   1.917   4.708 -0.2326 -0.7113  0.1357
11969SOL    HW147966   4.309   1.965   4.734 -0.4320  0.2323 -2.1486
11969SOL    HW247967   4.447   1.898   4.790 -0.7268  2.3397  1.2555
11970SOL     OW47968   9.742   5.551   3.277  0.3027  0.0426  0.4417
11970SOL    HW147969   9.778   5.643   3.262 -0.3947  0.1970 -0.3253
11970SOL    HW247970   9.668   5.534   3.212 -0.3381 -0.6315  1.3419
11971SOL     OW47971   7.651   6.176   2.445  0.0620 -0.0311 -0.2759
11971SOL    HW147972   7.689   6.107   2.385  2.0236  1.5920 -0.9565
11971SOL    HW247973   7.724   6.232   2.483 -1.3416  0.5698  1.6563
11972SOL     OW47974   4.147   9.747   3.948 -0.2233  0.1316 -0.3093
11972SOL    HW147975   4.126   9.796   4.033 -0.0888  0.6081 -0.5503
11972SOL    HW247976   4.209   9.671   3.967 -1.9811 -1.1768  0.3930
11973SOL     OW47977   9.721   3.613   9.223 -0.2609  0.0796  0.4043
11973SOL    HW147978   9.660   3.662   9.285  1.7601 -0.7086  3.0870
11973SOL    HW247979   9.816   3.636   9.243  0.5577 -2.0811 -0.7646
11974SOL     OW47980   3.543   9.487   1.476 -0.3332 -0.1776 -0.2704
11974SOL    HW147981   3.608   9.455   1.407 -0.1043 -1.3408  0.4721
11974SOL    HW247982   3.592   9.513   1.559 -0.8288 -1.4076  0.4261
11975SOL     OW47983   7.212   8.090   3.405  0.2001  0.1547 -0.8306
11975SOL    HW147984   7.221   8.163   3.337  0.1058 -0.5096 -1.5592
11975SOL    HW247985   7.183   8.129   3.492  4.8338  1.6585  0.1459
11976SOL     OW47986   8.009   7.331   7.826 -0.3755  0.1209 -0.5418
11976SOL    HW147987   8.070   7.353   7.903 -2.1030  1.2227  0.5450
11976SOL    HW247988   8.004   7.232   7.815  1.0753 -0.0062 -0.2182
11977SOL     OW47989   0.667   1.356   3.307  0.0416  1.0195  0.5485
11977SOL    HW147990   0.604   1.407   3.247 -1.0333  0.1473  0.9200
11977SOL    HW247991   0.722   1.421   3.359  0.0109  1.7990 -0.3604
11978SOL     OW47992   5.909   2.026   5.732  0.3125 -0.6381  0.0724
11978SOL    HW147993   5.912   2.086   5.652 -0.5084 -0.9626 -0.2145
11978SOL    HW247994   5.914   2.081   5.816  0.6610 -0.2582 -0.1974
11979SOL     OW47995   8.889   2.378   7.372  0.0827 -0.1105  0.3183
11979SOL    HW147996   8.806   2.404   7.422  0.1885  0.6799  0.0860
11979SOL    HW247997   8.965   2.437   7.400  0.1560  0.3017 -0.7387
11980SOL     OW47998   5.806   0.543   5.083 -0.0253 -0.0840 -0.4983
11980SOL    HW147999   5.864   0.463   5.066  0.7885  0.8532 -2.2253
11980SOL    HW248000   5.720   0.533   5.033 -0.4793 -0.4813  0.3502
11981SOL     OW48001   1.318   7.336   8.792 -0.0885  0.2429  0.2126
11981SOL    HW148002   1.364   7.423   8.773  2.1612 -0.6199  1.4806
11981SOL    HW248003   1.256   7.347   8.870  0.4662  0.6288  0.6028
11982SOL     OW48004   0.030   6.771   2.584  0.4342  0.0204 -0.7598
11982SOL    HW148005  -0.054   6.826   2.572  0.7915  0.7797  0.1557
11982SOL    HW248006   0.046   6.717   2.502 -0.9659 -0.1305 -0.9435
11983SOL     OW48007   2.761   6.761   8.795  0.2134  0.8341 -0.2846
11983SOL    HW148008   2.745   6.791   8.889 -0.0589  1.6925 -0.5958
11983SOL    HW248009   2.692   6.803   8.735  1.5566  1.8242 -1.1513
11984SOL     OW48010   4.724   9.540   4.670  0.1325  0.3705  0.3428
11984SOL    HW148011   4.822   9.535   4.651 -0.3089  0.1195 -2.0705
11984SOL    HW248012   4.694   9.454   4.712  1.2432  1.1338  2.8295
11985SOL     OW48013   8.840   9.146   9.991  0.0963 -0.1012 -0.3589
11985SOL    HW148014   8.802   9.174  10.080  0.3201 -0.6072 -0.1065
11985SOL    HW248015   8.927   9.099  10.005  0.0491 -0.3309 -0.8365
11986SOL     OW48016   9.502   7.141   8.462 -0.6452 -0.2794 -0.3077
11986SOL    HW148017   9.452   7.188   8.389  0.0810 -0.3034 -0.8334
11986SOL    HW248018   9.556   7.207   8.513 -1.0137 -0.2903  0.0951
11987SOL     OW48019   8.232   1.468   4.628 -0.0227 -0.4633 -1.0047
11987SOL    HW148020   8.307   1.529   4.657 -0.0797  0.5131 -2.8270
11987SOL    HW248021   8.149   1.522   4.615 -0.8304 -1.4077  0.1144
11988SOL     OW48022   5.165   9.674   7.743  0.0366 -0.1802  0.1474
11988SOL    HW148023   5.121   9.595   7.700  0.3398 -0.8208  1.0083
11988SOL    HW248024   5.264   9.669   7.731  0.0542  0.0796  0.1759
11989SOL     OW48025   5.600   4.277   2.518 -0.2155  0.1681 -0.1662
11989SOL    HW148026   5.580   4.192   2.470  0.7724  0.1584 -0.5688
11989SOL    HW248027   5.538   4.348   2.487 -0.8186 -0.3199 -0.0821
11990SOL     OW48028   2.100   4.117   4.040  0.0200 -0.0969  0.6806
11990SOL    HW148029   2.030   4.046   4.033 -0.1135  0.0828  0.1323
11990SOL    HW248030   2.191   4.077   4.026 -0.1529  0.0507 -1.0029
11991SOL     OW48031   0.804   4.133   2.153  0.6736 -0.0628 -0.1008
11991SOL    HW148032   0.742   4.130   2.075  1.5615 -0.0639 -0.8119
11991SOL    HW248033   0.886   4.079   2.133  0.2731 -1.2774  1.3977
11992SOL     OW48034   8.238   7.912   0.220  0.0351  0.0371 -0.5032
11992SOL    HW148035   8.182   7.991   0.242 -0.7683 -0.0568 -2.0927
11992SOL    HW248036   8.323   7.943   0.176  0.9344  0.1432  1.2808
11993SOL     OW48037   9.182   3.898   0.895 -0.6169 -0.0615  0.1898
11993SOL    HW148038   9.122   3.819   0.911  0.1424 -0.6909 -0.0226
11993SOL    HW248039   9.212   3.935   0.983  0.5017 -1.1647  0.2947
11994SOL     OW48040   3.250   4.000   6.146  0.1784 -0.1644 -0.3430
11994SOL    HW148041   3.266   4.095   6.171  2.4794 -0.5668 -0.2148
11994SOL    HW248042   3.179   3.996   6.075 -0.7701  1.5421  0.4945
11995SOL     OW48043   9.604   0.435   2.182  0.1205  0.1294  0.0105
11995SOL    HW148044   9.611   0.532   2.207  0.0324  0.5611 -1.5917
11995SOL    HW248045   9.686   0.408   2.132  0.1515 -0.6339  0.4695
11996SOL     OW48046   9.127   9.866   4.869 -0.5660  0.1786 -0.2973
11996SOL    HW148047   9.161   9.957   4.892 -1.0955  0.9343 -2.3168
11996SOL    HW248048   9.097   9.819   4.952 -1.2324  2.2375  0.6599
11997SOL     OW48049   8.818   2.533   3.331  0.3400 -0.1706 -0.1253
11997SOL    HW148050   8.777   2.443   3.314  1.9993 -0.7387 -1.1850
11997SOL    HW248051   8.772   2.576   3.409 -2.0402 -0.9245 -1.0761
11998SOL     OW48052   7.874   4.993   3.064 -0.0399  0.3603 -0.1313
11998SOL    HW148053   7.922   5.012   2.978 -1.1885 -0.1553 -0.8993
11998SOL    HW248054   7.856   5.078   3.112  0.1958  0.6864 -0.6206
11999SOL     OW48055   3.085   8.062   3.776 -0.5104 -0.0645  0.7662
11999SOL    HW148056   3.162   8.087   3.718  0.2037 -0.6943  1.4413
11999SOL    HW248057   3.042   8.144   3.813  0.9006  0.2304  1.7777
12000SOL     OW48058   0.879   3.602   6.389  0.3541  0.3025 -0.4581
12000SOL    HW148059   0.884   3.690   6.435  1.3821  0.5042 -0.9403
12000SOL    HW248060   0.821   3.610   6.307 -0.0052  0.3902 -0.1952
12001SOL     OW48061   5.826   8.215   5.290  0.0556  0.8453 -0.6078
12001SOL    HW148062   5.915   8.194   5.250  0.1488  0.5982 -0.2664
12001SOL    HW248063   5.754   8.195   5.224  0.1303 -0.6281 -0.2577
12002SOL     OW48064   6.861   6.403   1.974 -0.2745 -0.0785  0.0170
12002SOL    HW148065   6.894   6.496   1.993 -1.3211  0.3762 -0.3209
12002SOL    HW248066   6.836   6.359   2.060 -1.1868  0.5051  0.0610
12003SOL     OW48067   3.530   9.174   5.221  0.2747 -0.0953  0.3140
12003SOL    HW148068   3.485   9.246   5.167 -1.6758 -0.1020  1.8776
12003SOL    HW248069   3.547   9.207   5.313  0.3672 -1.2771  0.7283
12004SOL     OW48070   4.459   4.010   8.755 -0.5468 -0.0730  0.1514
12004SOL    HW148071   4.503   4.099   8.765  0.8415 -0.6397 -0.6795
12004SOL    HW248072   4.449   3.968   8.846 -0.2582  0.4758  0.4452
12005SOL     OW48073   0.560   8.213   0.981  0.0491  0.1224 -0.3660
12005SOL    HW148074   0.549   8.118   0.955  0.9982 -0.5763  1.7072
12005SOL    HW248075   0.639   8.252   0.933  1.0258 -0.7974  0.4537
12006SOL     OW48076   8.588   6.475   7.809 -0.3740  0.1411  0.4345
12006SOL    HW148077   8.544   6.528   7.881 -1.3912 -0.7194  0.4545
12006SOL    HW248078   8.570   6.378   7.822  0.6439 -0.1474 -0.1697
12007SOL     OW48079   8.226   1.351   4.295 -0.3196  0.3304  0.3693
12007SOL    HW148080   8.241   1.450   4.288  0.2424  0.2131 -0.0816
12007SOL    HW248081   8.133   1.334   4.328  0.0708  1.0383  1.8833
12008SOL     OW48082   7.916   3.237   3.710  0.4968  0.3799 -1.0067
12008SOL    HW148083   7.883   3.327   3.683  0.5319  0.7659  0.1948
12008SOL    HW248084   7.893   3.221   3.806  2.1524 -0.1007 -0.6746
12009SOL     OW48085   4.119   5.888   1.835  0.4522  0.0307  0.5259
12009SOL    HW148086   4.213   5.921   1.828  0.5632 -0.4314 -0.2348
12009SOL    HW248087   4.061   5.936   1.770  0.4816 -0.7804 -0.1140
12010SOL     OW48088   8.018   3.910   0.075 -0.1430 -0.2309  0.9842
12010SOL    HW148089   8.082   3.844   0.114  1.8476  1.2636  0.3466
12010SOL    HW248090   8.061   4.000   0.073 -1.3045  0.2921 -1.8886
12011SOL     OW48091   7.185   6.611   3.498  0.3549  0.6005  0.0830
12011SOL    HW148092   7.214   6.592   3.591 -2.0523 -1.8550  0.3975
12011SOL    HW248093   7.261   6.596   3.435  1.4841  0.4938  1.4727
12012SOL     OW48094   6.855   1.465   9.307 -0.0996  0.5153 -0.1102
12012SOL    HW148095   6.912   1.445   9.387 -0.7273 -0.9611 -0.0260
12012SOL    HW248096   6.806   1.382   9.279 -1.7823  1.6322 -0.5273
12013SOL     OW48097   6.401   5.352   2.757  0.8139  0.2575 -0.4262
12013SOL    HW148098   6.307   5.325   2.737  0.8175 -0.5375  0.6077
12013SOL    HW248099   6.401   5.432   2.817  0.7913 -0.4452  0.5151
12014SOL     OW48100   4.706   8.046   7.196  0.1884  0.1152 -0.5223
12014SOL    HW148101   4.796   8.006   7.210 -0.5073 -0.9279  1.0915
12014SOL    HW248102   4.685   8.109   7.272 -0.6431 -0.0297 -0.6320
12015SOL     OW48103   6.144   9.894   6.234  0.0573  0.7077 -0.1053
12015SOL    HW148104   6.117   9.819   6.174 -0.4366  1.6890 -1.1273
12015SOL    HW248105   6.238   9.920   6.215  0.3736  0.0877  0.5456
12016SOL     OW48106   7.531   9.202   7.560  0.1382  0.1364  0.2460
12016SOL    HW148107   7.586   9.132   7.514  0.8741 -0.0125  1.3328
12016SOL    HW248108   7.467   9.158   7.623 -0.3343  0.3820 -0.0546
12017SOL     OW48109   2.072   5.001   0.110  0.3326 -0.8876  0.1812
12017SOL    HW148110   2.114   4.929   0.166  2.2547  2.0691  2.7243
12017SOL    HW248111   1.975   5.010   0.135  1.0618  0.1132  2.8696
12018SOL     OW48112   6.399   0.819   5.961  0.3893 -0.0465 -0.4523
12018SOL    HW148113   6.396   0.869   5.875 -3.2643 -2.0887 -1.6070
12018SOL    HW248114   6.442   0.730   5.947 -2.1636 -1.2637 -0.6845
12019SOL     OW48115   2.854   1.982   0.314 -0.3082  0.2147  0.1363
12019SOL    HW148116   2.830   2.078   0.298 -0.9228 -0.2495 -1.8587
12019SOL    HW248117   2.917   1.951   0.243 -0.2051 -0.8975  0.7097
12020SOL     OW48118   0.112   8.688   8.187 -0.5632 -0.4909  0.1066
12020SOL    HW148119   0.133   8.743   8.267 -1.1589  0.4284 -0.3578
12020SOL    HW248120   0.096   8.593   8.214 -1.3972 -0.0546  1.1598
12021SOL     OW48121   7.059   8.308   7.683 -0.2779  0.2268  0.7123
12021SOL    HW148122   7.063   8.211   7.707 -0.6689  0.3027  1.0997
12021SOL    HW248123   7.141   8.334   7.633 -0.7555 -0.5979 -0.5214
12022SOL     OW48124   3.418   7.969   7.274 -0.0827 -0.1087 -0.3168
12022SOL    HW148125   3.398   7.872   7.258 -0.9291 -0.0813  0.5120
12022SOL    HW248126   3.333   8.021   7.271  0.5405  0.8265 -2.1614
12023SOL     OW48127   5.463   0.990   0.897  0.0200  0.0728 -0.7937
12023SOL    HW148128   5.481   1.087   0.881  1.1295 -0.5693 -3.6151
12023SOL    HW248129   5.371   0.967   0.864 -0.5394  0.3108  0.5745
12024SOL     OW48130   7.476   0.316   6.184 -0.0505 -0.0479 -0.0365
12024SOL    HW148131   7.488   0.413   6.161  0.4743 -0.4113 -1.3565
12024SOL    HW248132   7.380   0.291   6.178 -0.1418  0.3055 -0.0298
12025SOL     OW48133   2.829   6.262   4.955 -0.3491  0.2623 -0.0285
12025SOL    HW148134   2.899   6.206   5.000 -0.3488 -0.5338 -1.0086
12025SOL    HW248135   2.861   6.287   4.864 -1.9157 -1.2551 -1.0229
12026SOL     OW48136   0.602   1.909   6.540  0.3647 -0.5003 -0.1175
12026SOL    HW148137   0.516   1.913   6.489  2.0028  0.2713 -2.9245
12026SOL    HW248138   0.661   1.984   6.510  2.3211 -1.4887  1.2069
12027SOL     OW48139   8.856   4.034   6.416  0.0787  0.0169 -0.0563
12027SOL    HW148140   8.789   3.964   6.391  0.9753 -0.9133  0.1052
12027SOL    HW248141   8.904   4.064   6.334 -0.7486  0.9269 -0.2224
12028SOL     OW48142   3.017   4.073   1.507  0.2029  0.5850  0.6269
12028SOL    HW148143   2.926   4.056   1.469 -0.3055  0.5821  1.8144
12028SOL    HW248144   3.020   4.042   1.602  1.5416  0.3159  0.5064
12029SOL     OW48145   9.119   6.160   9.408 -0.2089 -0.0454 -0.6790
12029SOL    HW148146   9.126   6.169   9.308  0.8708  1.1381 -0.5201
12029SOL    HW248147   9.193   6.212   9.451 -0.0962 -1.3218  0.7229
12030SOL     OW48148   7.409   9.874   8.473 -0.6312  0.4516 -0.4290
12030SOL    HW148149   7.465   9.883   8.556 -1.4912  2.6873 -0.0657
12030SOL    HW248150   7.399   9.964   8.430  0.2433 -0.7580 -3.2718
12031SOL     OW48151   0.489   6.052   2.771 -0.3621  0.0386 -0.2055
12031SOL    HW148152   0.392   6.068   2.755 -0.0648  0.8987 -1.1448
12031SOL    HW248153   0.538   6.051   2.684  0.4689 -0.4458  0.2618
12032SOL     OW48154   4.861   2.509   9.216 -0.1071  0.5334 -0.3794
12032SOL    HW148155   4.787   2.441   9.211 -0.4594  0.7065  1.6605
12032SOL    HW248156   4.844   2.581   9.150 -1.6907  0.4677 -0.0799
12033SOL     OW48157   9.296   1.804   4.190 -0.0856 -0.2078 -0.5631
12033SOL    HW148158   9.324   1.887   4.141  0.3265  0.9643  1.5954
12033SOL    HW248159   9.329   1.808   4.284  0.4396 -3.1166 -0.5773
12034SOL     OW48160   9.974   9.258   7.366 -0.2044  0.8013 -0.1880
12034SOL    HW148161   9.936   9.287   7.278 -0.2555  0.3707 -0.3053
12034SOL    HW248162  10.023   9.335   7.407 -1.0611  1.3150 -0.1053
12035SOL     OW48163   3.262   9.464   2.975 -0.3946  0.1409  0.4163
12035SOL    HW148164   3.198   9.484   3.049  1.1724 -1.5706  2.3069
12035SOL    HW248165   3.351   9.442   3.014  0.5187 -0.6049 -2.0186
12036SOL     OW48166   0.308   4.349   3.840  0.0852  0.0740  0.1230
12036SOL    HW148167   0.259   4.303   3.766 -0.8346  0.9526  0.1810
12036SOL    HW248168   0.244   4.400   3.896  0.9767  0.6520  0.6337
12037SOL     OW48169   0.671   8.218   1.905  0.1210 -0.2468 -0.5011
12037SOL    HW148170   0.666   8.153   1.981  1.7797  0.6740  0.4165
12037SOL    HW248171   0.667   8.168   1.818 -0.9923 -1.3703  0.1677
12038SOL     OW48172   8.867   5.084   3.472  0.1596 -0.2560  0.0007
12038SOL    HW148173   8.881   5.000   3.526 -1.1981  0.3781  1.3819
12038SOL    HW248174   8.920   5.159   3.513 -1.9337  0.5532  1.3018
12039SOL     OW48175   8.644   9.760   1.673 -0.0502 -0.0330  0.1871
12039SOL    HW148176   8.633   9.662   1.656 -0.5796  0.3573 -1.8904
12039SOL    HW248177   8.559   9.807   1.650  0.7065  1.0870 -0.3731
12040SOL     OW48178   4.213   5.425   2.765 -0.0673  0.7320 -0.0161
12040SOL    HW148179   4.201   5.329   2.739  0.5184  0.3598  1.0698
12040SOL    HW248180   4.151   5.482   2.711 -1.1568 -0.3643  0.0678
12041SOL     OW48181   4.814   6.265   2.451  0.0716  0.1476  0.3178
12041SOL    HW148182   4.845   6.358   2.429 -1.2326  0.9031  1.5882
12041SOL    HW248183   4.890   6.212   2.488  1.2944  0.1159 -2.1495
12042SOL     OW48184   8.166   7.549   6.928 -0.0651  0.1639  0.2913
12042SOL    HW148185   8.195   7.482   6.997 -0.2757  1.2891  1.5012
12042SOL    HW248186   8.219   7.634   6.941 -2.2106  1.4299  1.0152
12043SOL     OW48187   3.707   8.842   9.613 -0.0999  0.4058 -0.4022
12043SOL    HW148188   3.686   8.753   9.574 -2.5451  0.4080  0.8298
12043SOL    HW248189   3.785   8.833   9.676  1.5633 -0.2514 -2.5031
12044SOL     OW48190   5.384   7.961   4.375 -0.5237  0.6753 -0.1640
12044SOL    HW148191   5.466   8.008   4.342 -0.0440  0.7521  1.1363
12044SOL    HW248192   5.363   7.885   4.313 -1.0175  2.2541 -2.0038
12045SOL     OW48193   7.227   1.980   6.405  0.4471  0.3303 -0.2136
12045SOL    HW148194   7.322   1.956   6.427  0.3742  0.0814 -0.1808
12045SOL    HW248195   7.225   2.024   6.315  0.6534  0.7478 -0.0162
12046SOL     OW48196   4.273   6.479   0.591  0.1818 -0.1568 -0.0021
12046SOL    HW148197   4.216   6.516   0.664  0.6866  1.6053 -0.4772
12046SOL    HW248198   4.230   6.498   0.502  1.3727  1.0180 -0.3531
12047SOL     OW48199   4.173   3.786   7.351 -0.6115  0.7394 -0.0323
12047SOL    HW148200   4.215   3.777   7.441 -1.0272  0.6561  0.1589
12047SOL    HW248201   4.142   3.880   7.338 -1.3993  0.5349  0.3013
12048SOL     OW48202   5.222   8.258   4.781 -0.0427  0.1832  0.4202
12048SOL    HW148203   5.125   8.255   4.804 -0.2521 -1.2568 -0.6202
12048SOL    HW248204   5.265   8.172   4.807  1.2461  1.2727  2.0449
12049SOL     OW48205   3.855   2.907   1.707 -0.1667 -0.0917 -0.6095
12049SOL    HW148206   3.930   2.845   1.682  0.3881  0.5293 -0.5061
12049SOL    HW248207   3.771   2.854   1.720  0.2318 -0.7854 -0.8186
12050SOL     OW48208   3.602   9.233   5.878 -0.0265  0.2969  0.4247
12050SOL    HW148209   3.681   9.279   5.837 -0.8591  1.6220  0.2626
12050SOL    HW248210   3.594   9.260   5.974 -1.3991  1.7025 -0.0707
12051SOL     OW48211   8.128   7.286   8.297 -0.3009  0.3028 -0.7680
12051SOL    HW148212   8.216   7.285   8.345 -1.0708 -2.0294  0.6565
12051SOL    HW248213   8.060   7.334   8.352 -0.8575 -1.2273 -0.1101
12052SOL     OW48214   5.179   8.093   8.326  0.4343  0.2334  0.6346
12052SOL    HW148215   5.143   8.175   8.282  0.5240  0.5941  1.2197
12052SOL    HW248216   5.254   8.056   8.271  0.3154  0.4755  0.3059
12053SOL     OW48217   3.448   8.130   7.034 -0.2910  0.5814 -0.0899
12053SOL    HW148218   3.542   8.159   7.014 -0.4184  0.5216 -0.7571
12053SOL    HW248219   3.450   8.057   7.102  0.1725  0.2232 -0.4859
12054SOL     OW48220   1.753   2.581   4.943  0.3818 -0.0495  0.1367
12054SOL    HW148221   1.831   2.644   4.945  0.3968 -0.1028  1.1114
12054SOL    HW248222   1.781   2.491   4.974  0.3293 -0.5224 -1.1473
12055SOL     OW48223   3.914   6.003   8.947  0.1736 -0.1840 -0.5970
12055SOL    HW148224   3.886   6.050   9.030  1.4868 -1.9609  0.9073
12055SOL    HW248225   3.948   5.912   8.970  0.2470 -0.8475 -3.1236
12056SOL     OW48226   5.991   3.347   1.399 -0.1973 -0.4466 -0.5620
12056SOL    HW148227   6.059   3.410   1.363  1.4125 -1.5174  0.5405
12056SOL    HW248228   5.902   3.367   1.359  0.5402  1.7057 -1.1656
12057SOL     OW48229   0.098   7.019   4.478 -0.2976  0.0839  0.0073
12057SOL    HW148230   0.115   6.978   4.388  1.6120 -2.1816  1.3398
12057SOL    HW248231   0.032   6.962   4.528 -0.1522  0.4578  0.6226
12058SOL     OW48232   4.530   6.504   4.057  0.6479 -0.1932 -0.2870
12058SOL    HW148233   4.458   6.525   4.123  1.0783  0.5893 -0.0676
12058SOL    HW248234   4.490   6.501   3.965  0.3013  0.0606 -0.1473
12059SOL     OW48235   8.884   5.696   0.346 -0.4833 -0.2159  0.3560
12059SOL    HW148236   8.929   5.613   0.313 -1.6660 -0.2518 -1.2168
12059SOL    HW248237   8.784   5.683   0.345 -0.7061  1.3895 -0.3813
12060SOL     OW48238   7.673   4.483   0.044 -0.0506 -0.1852  0.0002
12060SOL    HW148239   7.600   4.503   0.109 -0.4436 -1.1934 -0.1136
12060SOL    HW248240   7.727   4.406   0.078  0.3670 -0.0658 -0.3865
12061SOL     OW48241   9.968   1.364   9.130  0.1212 -0.5482  0.2226
12061SOL    HW148242  10.007   1.273   9.143 -0.1975 -0.3784  2.4942
12061SOL    HW248243   9.913   1.388   9.210 -0.5027  1.2897 -0.7427
12062SOL     OW48244   9.895   9.836   8.433 -0.5195  0.1771 -0.4973
12062SOL    HW148245   9.950   9.756   8.409 -0.5606 -0.4696  1.5447
12062SOL    HW248246   9.817   9.842   8.371 -0.5314 -1.3747 -0.6520
12063SOL     OW48247   0.010   3.673   4.799  0.0390 -0.3710  0.0144
12063SOL    HW148248  -0.002   3.574   4.787 -1.5188 -0.0204 -1.4702
12063SOL    HW248249  -0.062   3.709   4.859  0.9359 -0.2103  1.0162
12064SOL     OW48250   5.815   2.198   9.686  0.3006 -0.0192 -0.1366
12064SOL    HW148251   5.894   2.137   9.678 -0.4888 -0.9660 -0.8954
12064SOL    HW248252   5.805   2.228   9.781  0.6466 -1.1628  0.2725
12065SOL     OW48253   7.988   5.858   8.087 -0.2070  0.3793  0.3692
12065SOL    HW148254   7.964   5.941   8.038  0.7504  0.2867 -0.2588
12065SOL    HW248255   8.049   5.802   8.031 -1.4904 -1.1389  0.4424
12066SOL     OW48256   9.313   7.680   2.069 -0.0606  0.1413 -0.1584
12066SOL    HW148257   9.381   7.753   2.074  0.4554 -0.4205  1.2195
12066SOL    HW248258   9.350   7.603   2.017  0.2689 -0.0757  0.3988
12067SOL     OW48259   8.613   8.181   9.977 -0.0641  0.5906  0.1851
12067SOL    HW148260   8.562   8.157  10.059 -1.7040  0.4564 -0.8520
12067SOL    HW248261   8.674   8.105   9.952 -2.4253 -1.0301 -0.9099
12068SOL     OW48262   3.446   5.895   9.729  0.7114  0.0236 -0.5012
12068SOL    HW148263   3.353   5.873   9.758  0.7452 -0.0078 -0.4172
12068SOL    HW248264   3.473   5.983   9.769  0.0357  0.9433 -2.0057
12069SOL     OW48265   9.792   3.010   0.949  0.0181  0.3305  0.0210
12069SOL    HW148266   9.820   3.064   0.870 -0.5655  1.6059  0.6826
12069SOL    HW248267   9.860   2.937   0.964  0.3298  0.2931 -1.4120
12070SOL     OW48268   8.087   3.376   5.245  0.1357  0.2959  0.3350
12070SOL    HW148269   8.109   3.279   5.255  0.9069  0.4624  0.2811
12070SOL    HW248270   8.131   3.412   5.163 -0.1937  0.6820  0.3260
12071SOL     OW48271   7.393   2.433   9.684  0.5806  0.0391  0.4235
12071SOL    HW148272   7.340   2.464   9.605  2.2847  0.4748 -0.5763
12071SOL    HW248273   7.388   2.333   9.690 -0.8610  0.1151  0.7266
12072SOL     OW48274   3.328   4.974   7.019  0.2895 -0.0264 -0.7486
12072SOL    HW148275   3.346   4.958   6.922 -2.3049  0.7499 -1.4092
12072SOL    HW248276   3.229   4.984   7.033  0.6303 -0.1320  1.9784
12073SOL     OW48277   4.925   3.868   7.213  0.0303 -0.4122 -0.4350
12073SOL    HW148278   4.892   3.912   7.129 -0.3324  0.4819  0.1708
12073SOL    HW248279   5.023   3.847   7.203  0.3484  1.0288 -0.5438
12074SOL     OW48280   8.530   8.330   0.856 -0.3068 -0.0719  0.1188
12074SOL    HW148281   8.513   8.267   0.780 -0.3702 -0.1548  0.2018
12074SOL    HW248282   8.570   8.415   0.822 -1.0042  0.1731 -0.0967
12075SOL     OW48283   1.107   5.502   8.748  0.0087 -0.1898  0.0526
12075SOL    HW148284   1.022   5.553   8.764  0.0359 -0.1844  0.1832
12075SOL    HW248285   1.143   5.470   8.836  1.0801  1.3170  0.1867
12076SOL     OW48286   5.467   2.641   1.293  0.1701 -0.0603  0.2806
12076SOL    HW148287   5.474   2.646   1.393 -1.9479 -1.2408  0.5167
12076SOL    HW248288   5.485   2.731   1.254 -0.6462  0.8006  1.8503
12077SOL     OW48289   1.151   4.597   2.263 -0.3602 -0.3288  0.0733
12077SOL    HW148290   1.165   4.653   2.181  0.9366 -0.4718  0.1826
12077SOL    HW248291   1.166   4.500   2.241 -0.0938 -0.3775  0.4439
12078SOL     OW48292   6.916   3.637   8.813  0.0795  0.4054  0.6365
12078SOL    HW148293   6.948   3.617   8.906 -1.4289 -1.9512  0.6720
12078SOL    HW248294   6.977   3.595   8.747 -0.6244 -0.6052  0.6264
12079SOL     OW48295   3.043   2.263   5.110  0.5902  0.2307  0.0061
12079SOL    HW148296   3.080   2.288   5.200  0.1757  1.8077 -0.2632
12079SOL    HW248297   3.037   2.344   5.052  0.9252 -0.7913 -1.4875
12080SOL     OW48298   2.975   1.812   2.212  0.2423 -0.3755 -0.2128
12080SOL    HW148299   2.992   1.887   2.276 -4.5269  0.2743  0.4968
12080SOL    HW248300   2.978   1.725   2.260 -2.1123  0.0267  0.7534
12081SOL     OW48301   6.296   3.131   2.928 -0.4979  0.0451  0.2254
12081SOL    HW148302   6.209   3.085   2.911 -0.8602  0.1900  1.6486
12081SOL    HW248303   6.339   3.153   2.840 -1.1236 -1.4579 -0.4681
12082SOL     OW48304   5.550   5.017   9.244  0.2820  0.0808 -0.1552
12082SOL    HW148305   5.483   4.971   9.186 -0.4040  0.7556  0.0978
12082SOL    HW248306   5.533   5.116   9.243  1.3853  0.2780 -0.2358
12083SOL     OW48307   0.977   9.310   7.547 -0.2540  0.4545 -0.1240
12083SOL    HW148308   0.922   9.227   7.548 -1.5484  1.2857 -0.7528
12083SOL    HW248309   0.919   9.388   7.522  1.0495  1.4615 -0.0473
12084SOL     OW48310   6.638   3.947   0.010 -0.3061  0.2723 -0.0337
12084SOL    HW148311   6.721   3.979  -0.035 -0.2383  0.2251  0.0576
12084SOL    HW248312   6.626   3.996   0.096 -0.9097  0.9900 -0.5183
12085SOL     OW48313   9.722   2.333   7.024  0.0984 -0.1810  0.3115
12085SOL    HW148314   9.821   2.320   7.022  0.2223  0.5929  1.3733
12085SOL    HW248315   9.697   2.390   7.102 -0.9525  1.6629 -1.3215
12086SOL     OW48316   2.936   0.642   3.374 -0.0477  0.1596  0.5355
12086SOL    HW148317   2.851   0.636   3.426 -0.9622 -0.0285 -0.9563
12086SOL    HW248318   2.958   0.738   3.357  1.1141  0.3049  2.6017
12087SOL     OW48319   5.007   5.327   7.690  0.0616  0.4907 -0.0755
12087SOL    HW148320   5.085   5.390   7.702 -0.8915  1.4828  1.0851
12087SOL    HW248321   5.036   5.249   7.635  1.6957  1.1883 -0.2545
12088SOL     OW48322   4.133   6.013   0.891  0.2870  0.5109 -0.2536
12088SOL    HW148323   4.129   5.916   0.916 -1.7129  0.0256 -2.2286
12088SOL    HW248324   4.136   6.069   0.973  0.1990 -1.1847  0.9345
12089SOL     OW48325   1.265   8.208   3.039 -0.1437 -0.0180 -0.4636
12089SOL    HW148326   1.279   8.198   2.941 -0.9675 -1.8955 -0.4015
12089SOL    HW248327   1.280   8.120   3.085 -0.4332  0.6771  1.0096
12090SOL     OW48328   9.622   3.417   4.896  0.1131  0.5704 -0.2326
12090SOL    HW148329   9.628   3.325   4.934  0.0888 -0.6839 -3.1553
12090SOL    HW248330   9.534   3.458   4.921 -0.9400 -1.1792 -1.0122
12091SOL     OW48331   0.405   5.683   7.940 -0.4486  0.4742 -0.3930
12091SOL    HW148332   0.449   5.664   8.028 -2.5360 -1.5459  0.2598
12091SOL    HW248333   0.475   5.692   7.869  1.1154 -0.7553  0.9464
12092SOL     OW48334   4.604   0.292   7.294 -0.3019 -0.3801  0.0444
12092SOL    HW148335   4.671   0.226   7.260  0.2266 -0.5938  1.4493
12092SOL    HW248336   4.577   0.354   7.220 -0.7248 -2.0920 -1.2598
12093SOL     OW48337   6.511   8.654   5.513 -0.4690  0.0182  0.7855
12093SOL    HW148338   6.596   8.629   5.559  0.4672 -1.5909 -1.7113
12093SOL    HW248339   6.491   8.751   5.530  1.9565  0.4628  1.2393
12094SOL     OW48340   8.874   6.712   2.448 -0.2008 -0.0327 -0.3298
12094SOL    HW148341   8.901   6.715   2.352 -1.4687 -2.3882 -0.7894
12094SOL    HW248342   8.878   6.805   2.487  3.3675  0.5148 -1.7697
12095SOL     OW48343   8.397   5.374   3.335  0.0836 -0.4609 -0.0179
12095SOL    HW148344   8.472   5.331   3.284  0.6009  0.4360 -0.0152
12095SOL    HW248345   8.355   5.306   3.396  1.0749 -0.8870  0.1926
12096SOL     OW48346   0.949   8.654   1.027  0.3891  0.6648  0.3073
12096SOL    HW148347   0.888   8.582   0.993 -0.6567  0.7697  1.9427
12096SOL    HW248348   1.034   8.652   0.974 -0.8747  0.3096 -1.7787
12097SOL     OW48349   9.862   1.640   1.980 -0.0668  0.2218 -0.4314
12097SOL    HW148350   9.953   1.680   1.981 -0.1683  0.4615 -1.1385
12097SOL    HW248351   9.839   1.609   1.888 -0.2573 -0.8505 -0.0385
12098SOL     OW48352   8.904   6.842   5.379 -0.0766 -0.1714 -0.4657
12098SOL    HW148353   8.877   6.938   5.386 -3.6491 -1.1419  0.3405
12098SOL    HW248354   8.925   6.807   5.471  0.3188 -0.4009 -0.6434
12099SOL     OW48355   6.584   7.864   4.862  0.3992 -0.1732 -0.0309
12099SOL    HW148356   6.513   7.848   4.793  1.2568 -0.6724 -0.8094
12099SOL    HW248357   6.558   7.817   4.947 -0.0234 -0.6801 -0.4310
12100SOL     OW48358   4.758   2.524   0.951  0.3892 -0.3553  0.2060
12100SOL    HW148359   4.696   2.519   1.029  0.2614 -1.5516  0.0256
12100SOL    HW248360   4.777   2.432   0.917 -0.2146  0.2108 -1.7011
12101SOL     OW48361   3.159   7.386   4.679  0.3848  0.6894  0.6097
12101SOL    HW148362   3.174   7.351   4.586 -0.6288  1.9835 -0.0674
12101SOL    HW248363   3.084   7.334   4.721  0.8274  0.1163  0.6957
12102SOL     OW48364   0.947   9.256   3.390 -0.6156  0.8326 -0.4150
12102SOL    HW148365   0.944   9.187   3.318 -2.0038  1.8398 -1.3479
12102SOL    HW248366   0.964   9.346   3.349  0.6016  1.1323  0.7299
12103SOL     OW48367   9.156   0.551   1.181  0.7561  0.4283  0.4217
12103SOL    HW148368   9.180   0.604   1.263  1.9712  0.4806  0.0417
12103SOL    HW248369   9.229   0.485   1.162 -0.6259 -1.2156  0.7422
12104SOL     OW48370   9.470   1.556   2.190 -0.0681 -0.0239  0.0669
12104SOL    HW148371   9.411   1.506   2.127  1.2173 -0.6252 -0.6968
12104SOL    HW248372   9.521   1.626   2.138  0.8284 -0.3649  0.4764
12105SOL     OW48373   0.349   4.838   9.852 -0.4102 -0.2443  0.6494
12105SOL    HW148374   0.333   4.895   9.772 -1.7109 -0.5502  0.6736
12105SOL    HW248375   0.372   4.745   9.824  2.2596  0.3920  0.6017
12106SOL     OW48376   8.879   2.994   7.763  0.7742 -0.4375  0.0499
12106SOL    HW148377   8.847   2.936   7.689  3.0402 -1.6566 -0.0021
12106SOL    HW248378   8.910   3.082   7.726  0.9285 -0.6504 -0.3296
12107SOL     OW48379   8.669   2.080   3.639  0.4219 -0.5314 -0.2612
12107SOL    HW148380   8.706   2.135   3.714  0.2622 -0.3137 -0.3399
12107SOL    HW248381   8.630   1.996   3.675 -0.6422  0.0691  0.0335
12108SOL     OW48382   0.553   2.118   1.652 -0.3175 -0.8205 -0.6685
12108SOL    HW148383   0.517   2.175   1.578 -0.4114 -0.8596 -0.6538
12108SOL    HW248384   0.578   2.028   1.617  0.6876 -0.4652 -0.8672
12109SOL     OW48385   0.363   7.599   1.250  0.3036  0.4004 -0.2581
12109SOL    HW148386   0.362   7.699   1.237 -1.0905  0.4179 -0.0947
12109SOL    HW248387   0.277   7.571   1.293 -0.0489 -1.0730 -1.8839
12110SOL     OW48388   3.681   2.008   6.344 -0.5867  0.0268 -0.5824
12110SOL    HW148389   3.602   1.947   6.344 -0.1071 -0.6210  1.2245
12110SOL    HW248390   3.723   2.008   6.254 -1.8398 -0.6601 -1.1830
12111SOL     OW48391   0.401   6.959   7.456  0.0853 -0.1807  0.1437
12111SOL    HW148392   0.315   6.926   7.417  1.7193 -2.2202 -1.9526
12111SOL    HW248393   0.388   6.982   7.552 -2.9281  0.1746 -0.3046
12112SOL     OW48394   1.029   4.235   2.614  0.6218 -0.1453 -0.3337
12112SOL    HW148395   0.975   4.207   2.535 -0.0493 -0.2074  0.1374
12112SOL    HW248396   1.046   4.334   2.609 -2.7646  0.6103  1.3991
12113SOL     OW48397   9.077   0.832   5.383  0.9179 -0.4550 -0.4462
12113SOL    HW148398   9.139   0.905   5.354 -1.0168  1.8057  0.8502
12113SOL    HW248399   9.037   0.857   5.472 -1.2959 -2.1548 -0.9220
12114SOL     OW48400   8.376   1.711   3.216 -0.4033  0.0459 -0.1854
12114SOL    HW148401   8.437   1.750   3.285 -0.8622 -1.3761  1.0478
12114SOL    HW248402   8.288   1.758   3.218 -0.1920  0.4532 -0.2801
12115SOL     OW48403   4.129   9.756   0.576 -0.2942  0.3657  0.1833
12115SOL    HW148404   4.109   9.660   0.598 -0.1494  0.0343 -1.0442
12115SOL    HW248405   4.168   9.761   0.484 -0.1715  1.5993  0.2913
12116SOL     OW48406   7.740   8.889   5.943 -0.0778 -0.0760  0.0223
12116SOL    HW148407   7.768   8.819   6.009 -0.4246 -0.6735 -0.4622
12116SOL    HW248408   7.711   8.845   5.858  1.6561  0.7473 -1.0237
12117SOL     OW48409   4.593   5.120   0.711  0.4101 -0.1311 -0.2350
12117SOL    HW148410   4.509   5.111   0.657  1.4602 -0.7482 -1.8018
12117SOL    HW248411   4.571   5.158   0.801 -1.5548 -0.3758 -0.5934
12118SOL     OW48412   2.682   3.690   6.929 -0.4318 -0.3847 -0.2352
12118SOL    HW148413   2.621   3.658   7.001 -0.2152  0.9228  0.5595
12118SOL    HW248414   2.666   3.638   6.846 -1.4475 -1.1888  0.4492
12119SOL     OW48415   8.862   5.451   0.640  0.0200  1.0554  0.4426
12119SOL    HW148416   8.942   5.425   0.587  1.3134  0.4150  2.6431
12119SOL    HW248417   8.886   5.525   0.703 -0.9450  0.3794  1.6198
12120SOL     OW48418   8.263   2.471   4.780 -0.0786  0.0940  0.4906
12120SOL    HW148419   8.330   2.524   4.729 -0.5250 -0.1500 -0.3564
12120SOL    HW248420   8.236   2.521   4.863 -0.0891  0.9348 -0.0221
12121SOL     OW48421   3.125   9.117   3.794 -0.1082  0.0807 -0.4032
12121SOL    HW148422   3.106   9.205   3.751 -0.2042 -0.1843 -0.9006
12121SOL    HW248423   3.048   9.055   3.781 -0.5123  0.2895  0.9179
12122SOL     OW48424   6.199   6.637   1.227  0.0423  0.1838  0.2126
12122SOL    HW148425   6.261   6.594   1.161  0.1909 -1.7555  1.5501
12122SOL    HW248426   6.108   6.647   1.186  0.6164  0.8232 -0.9390
12123SOL     OW48427   2.233   8.159   3.669  0.0957 -0.0667  0.1828
12123SOL    HW148428   2.173   8.238   3.658 -1.1593 -1.0721 -0.3526
12123SOL    HW248429   2.276   8.137   3.581  2.6500  1.7103  0.9297
12124SOL     OW48430   3.662   5.706   5.649 -0.3430 -0.3331 -0.1170
12124SOL    HW148431   3.592   5.633   5.647  0.3782 -1.0150 -0.6837
12124SOL    HW248432   3.748   5.671   5.612  0.4230  0.3861  0.9545
12125SOL     OW48433   5.361   8.967   5.331 -0.2325  0.2132 -0.1025
12125SOL    HW148434   5.290   9.022   5.286 -1.4758 -1.1876  0.1252
12125SOL    HW248435   5.321   8.883   5.366  1.5818 -0.6825 -0.1193
12126SOL     OW48436   2.650   5.623   8.045  0.0351 -0.0633 -0.0342
12126SOL    HW148437   2.639   5.681   7.963  0.3659 -0.0403 -0.0658
12126SOL    HW248438   2.716   5.551   8.025 -0.1671 -0.2821  0.0971
12127SOL     OW48439   9.307   4.157   5.089  0.1980  0.0455  0.3670
12127SOL    HW148440   9.277   4.062   5.078  1.9610 -0.5151  0.1921
12127SOL    HW248441   9.327   4.197   5.000 -0.9483  0.7397  0.4057
12128SOL     OW48442   0.890   5.470   4.612  0.5036 -0.1898  0.0956
12128SOL    HW148443   0.836   5.394   4.576  0.0266  0.5382 -0.7251
12128SOL    HW248444   0.829   5.539   4.650  0.8607  0.7187 -0.9889
12129SOL     OW48445   2.941   4.782   9.535  0.2040  0.2654 -0.0872
12129SOL    HW148446   3.036   4.774   9.506  1.1614  0.8409  2.7965
12129SOL    HW248447   2.913   4.699   9.582 -1.2883 -0.5862 -2.3734
12130SOL     OW48448   0.835   0.446   6.353  0.3053 -0.1657 -0.5361
12130SOL    HW148449   0.768   0.492   6.412  0.7811  0.5974 -0.5772
12130SOL    HW248450   0.818   0.348   6.352  0.6015 -0.2539  1.2850
12131SOL     OW48451   0.814   8.711   9.116  0.1453 -0.1040  0.4743
12131SOL    HW148452   0.787   8.751   9.203 -2.5687  0.3946 -0.5659
12131SOL    HW248453   0.793   8.775   9.042 -0.0022 -1.6018 -0.7956
12132SOL     OW48454   4.283   0.241   1.804  0.2815  0.2802  0.2847
12132SOL    HW148455   4.356   0.260   1.739 -1.8394  1.3927 -1.8501
12132SOL    HW248456   4.250   0.327   1.843 -0.5014 -0.1382  0.5502
12133SOL     OW48457   6.655   1.654   1.848  0.2092 -0.3380 -0.2485
12133SOL    HW148458   6.672   1.563   1.810  0.8205 -0.2240 -0.2593
12133SOL    HW248459   6.589   1.703   1.790 -0.0614 -0.7474 -0.2829
12134SOL     OW48460   8.470   1.625   3.915 -0.1148 -0.0580  0.3435
12134SOL    HW148461   8.392   1.567   3.891  1.2063 -1.1888 -1.3680
12134SOL    HW248462   8.555   1.572   3.904  1.1307  2.1772 -1.2415
12135SOL     OW48463   0.832   3.584   8.825  0.0306 -0.2876 -0.1762
12135SOL    HW148464   0.872   3.513   8.767 -0.4964 -0.1427 -0.7209
12135SOL    HW248465   0.904   3.642   8.861  0.4372 -0.9088  0.0167
12136SOL     OW48466   0.842   3.275   6.911  0.1354  0.1720 -0.0864
12136SOL    HW148467   0.869   3.369   6.890 -1.2443  0.4284 -0.8294
12136SOL    HW248468   0.921   3.223   6.943  1.2644  1.1363 -1.2766
12137SOL     OW48469   7.811   1.208   9.707  0.2963 -0.5190  0.8375
12137SOL    HW148470   7.865   1.214   9.623  1.0675 -2.4796  1.1681
12137SOL    HW248471   7.715   1.227   9.686  0.7233  0.5630 -0.1989
12138SOL     OW48472   7.502   5.491   9.490 -0.2149 -0.3464 -0.0788
12138SOL    HW148473   7.520   5.423   9.562 -0.4277  0.8017  1.0686
12138SOL    HW248474   7.488   5.581   9.532 -0.1188  0.3749 -1.5813
12139SOL     OW48475   0.204   1.975   5.830 -0.5864  0.2346  0.1203
12139SOL    HW148476   0.222   1.931   5.741  1.5772  0.9916  0.1439
12139SOL    HW248477   0.108   1.963   5.855 -0.7160 -1.8499 -1.3034
12140SOL     OW48478   4.324   7.692   2.273  0.0524  0.5969 -0.0823
12140SOL    HW148479   4.258   7.683   2.347  0.3869  0.1522  0.1647
12140SOL    HW248480   4.335   7.789   2.250  0.9319  0.8584  1.3620
12141SOL     OW48481   9.305   9.843   7.587 -0.3337  0.4153 -0.3444
12141SOL    HW148482   9.321   9.865   7.490 -1.6049  0.1905 -0.6106
12141SOL    HW248483   9.264   9.922   7.632 -4.5624 -1.1445 -1.2110
12142SOL     OW48484   8.382   7.333   5.071 -0.5014 -0.3348 -0.3921
12142SOL    HW148485   8.438   7.256   5.039  0.8135  1.1481 -1.7491
12142SOL    HW248486   8.441   7.411   5.091 -1.7523  0.1459  1.6171
12143SOL     OW48487   3.167   6.410   5.527 -0.2801  0.1041  0.0502
12143SOL    HW148488   3.222   6.341   5.482 -0.8268  0.1499 -0.6912
12143SOL    HW248489   3.210   6.500   5.516 -1.5733  0.4685 -2.3773
12144SOL     OW48490   0.495   6.388   3.788 -0.2279 -0.1271  0.3270
12144SOL    HW148491   0.454   6.432   3.708  2.6116  0.3474 -0.9122
12144SOL    HW248492   0.422   6.361   3.852 -2.4092  1.0929 -1.5654
12145SOL     OW48493   2.868   3.554   8.305  0.2985 -0.0633 -0.1130
12145SOL    HW148494   2.893   3.463   8.340 -0.6801 -0.0759  0.5526
12145SOL    HW248495   2.787   3.546   8.247 -0.7407  0.6114  1.2258
12146SOL     OW48496   8.742   5.010   3.113 -0.1347  0.1345  0.3893
12146SOL    HW148497   8.802   5.085   3.140 -0.1783 -0.1336  1.2432
12146SOL    HW248498   8.646   5.040   3.116 -0.2768 -0.4732  2.4877
12147SOL     OW48499   7.267   4.369   1.884  0.1871  0.0863 -0.7722
12147SOL    HW148500   7.218   4.444   1.928 -0.1670 -0.9303  0.6206
12147SOL    HW248501   7.366   4.386   1.889  0.1501  0.0105  0.3985
12148SOL     OW48502   3.225   0.764   1.056 -0.0386  0.4259 -0.0864
12148SOL    HW148503   3.213   0.674   1.096  1.0609  0.7204  0.9156
12148SOL    HW248504   3.223   0.757   0.956 -0.9332 -0.5557 -0.0143
12149SOL     OW48505   0.619   8.337   8.600 -0.2756 -0.3586  0.0654
12149SOL    HW148506   0.646   8.337   8.697 -0.2221 -0.0541  0.0502
12149SOL    HW248507   0.595   8.244   8.573  0.4009 -0.5698  0.1797
12150SOL     OW48508   7.685   1.440   8.776  0.3440 -0.1477 -0.0961
12150SOL    HW148509   7.609   1.441   8.841  0.9597  1.0213  0.6126
12150SOL    HW248510   7.699   1.347   8.742 -2.2795 -0.1477 -1.2792
12151SOL     OW48511   0.931   5.398   1.804  0.2142  0.8432 -0.9842
12151SOL    HW148512   0.948   5.407   1.902 -1.2336  0.4309 -0.6809
12151SOL    HW248513   0.885   5.481   1.771 -0.1320  0.5910 -1.1306
12152SOL     OW48514   5.406   7.883   4.650 -0.0769 -0.0919  0.4893
12152SOL    HW148515   5.389   7.888   4.552 -1.4024 -0.1282  0.7155
12152SOL    HW248516   5.385   7.791   4.683 -0.1724  0.0814  0.9115
12153SOL     OW48517   0.612   0.181   3.835  0.1264  0.5547 -0.0809
12153SOL    HW148518   0.573   0.157   3.746  0.6550  0.6211 -0.3319
12153SOL    HW248519   0.553   0.146   3.907  0.2838 -0.4988 -0.4489
12154SOL     OW48520   5.521   8.256   8.962 -1.0489  0.5346 -0.0004
12154SOL    HW148521   5.455   8.247   9.037 -1.2967  1.4763 -0.0887
12154SOL    HW248522   5.597   8.313   8.991  1.1525 -2.7917  1.0103
12155SOL     OW48523   1.816   4.521   6.294 -0.5832 -0.4503  0.0317
12155SOL    HW148524   1.752   4.597   6.304  0.3771  0.3558  0.1093
12155SOL    HW248525   1.866   4.509   6.380 -0.2373 -0.7115 -0.2050
12156SOL     OW48526   2.029   0.810   0.682 -0.1005 -0.0389  0.4624
12156SOL    HW148527   2.065   0.725   0.643 -2.8481  0.3171 -3.1265
12156SOL    HW248528   2.097   0.883   0.670  0.2270 -0.5882 -1.2070
12157SOL     OW48529   0.814   1.688   1.618  0.4034 -0.0375  0.2456
12157SOL    HW148530   0.842   1.606   1.666  0.9761  0.7581  1.2868
12157SOL    HW248531   0.891   1.724   1.565  0.1126 -0.2465 -0.3252
12158SOL     OW48532   8.734   1.099   5.755  0.2443  0.3158  0.0146
12158SOL    HW148533   8.832   1.114   5.768  0.0591  0.5078  1.2110
12158SOL    HW248534   8.720   1.042   5.674  1.4529 -1.1799  0.8292
12159SOL     OW48535   7.257   0.193   7.615  0.1477  0.2802  0.3033
12159SOL    HW148536   7.198   0.267   7.648  0.7992  0.4240  1.1474
12159SOL    HW248537   7.218   0.155   7.531  0.1817  2.0453 -0.5412
12160SOL     OW48538   8.721   0.799   7.430  0.6600 -0.3450 -0.1091
12160SOL    HW148539   8.625   0.780   7.454  1.3463 -1.7811  1.6137
12160SOL    HW248540   8.735   0.780   7.333 -1.4848  2.7555 -1.1284
12161SOL     OW48541   3.293   3.481   3.626 -0.0950  0.4078  0.7072
12161SOL    HW148542   3.328   3.428   3.549 -0.9551 -0.5826  0.9912
12161SOL    HW248543   3.308   3.430   3.711 -0.4278  0.8684  1.0428
12162SOL     OW48544   9.809   6.069   5.101 -0.6855 -0.3534 -0.2543
12162SOL    HW148545   9.875   6.127   5.149 -0.5386 -0.4526 -0.3340
12162SOL    HW248546   9.722   6.071   5.149 -0.3537 -0.9661  0.3885
12163SOL     OW48547   3.417   9.423   2.267  0.0402  0.1145 -0.2747
12163SOL    HW148548   3.330   9.377   2.252 -0.8629  2.0137 -1.0983
12163SOL    HW248549   3.443   9.415   2.364 -0.9382 -0.6425 -0.0685
12164SOL     OW48550   1.019   8.752   2.119 -0.2582 -0.2388 -0.2436
12164SOL    HW148551   1.102   8.757   2.175  1.0577  1.5433 -2.2148
12164SOL    HW248552   1.021   8.669   2.064  0.3672 -0.0735 -0.4784
12165SOL     OW48553   2.834   3.128   5.672 -0.4111  0.1723 -0.3770
12165SOL    HW148554   2.862   3.198   5.607  0.4154 -0.7006 -0.9622
12165SOL    HW248555   2.892   3.048   5.663 -0.6658 -0.1891  1.0328
12166SOL     OW48556   6.077   5.460   9.103 -0.3164  0.0392 -0.0064
12166SOL    HW148557   6.149   5.514   9.148 -0.4506  0.6063 -0.4746
12166SOL    HW248558   6.049   5.386   9.164 -1.1242  1.3411  1.2213
12167SOL     OW48559   4.930   0.317   0.928  0.2561  0.0369 -0.0368
12167SOL    HW148560   4.957   0.253   1.001 -0.2398 -0.4982 -0.3160
12167SOL    HW248561   4.838   0.293   0.895  1.6563 -1.6292 -2.9350
12168SOL     OW48562   9.849   6.659   4.573  0.1806  0.3747  0.0093
12168SOL    HW148563   9.794   6.584   4.609 -1.3411  1.8759  0.8589
12168SOL    HW248564   9.940   6.625   4.549 -0.9212 -2.0151 -0.9070
12169SOL     OW48565   8.207   3.482   2.652  0.4027 -0.3626  0.1438
12169SOL    HW148566   8.253   3.495   2.739  2.4109 -4.7857 -0.1620
12169SOL    HW248567   8.110   3.464   2.668  0.2023  1.5180  1.2357
12170SOL     OW48568   5.904   9.407   7.254 -0.1185  0.6357 -0.2589
12170SOL    HW148569   5.920   9.313   7.284  1.1135  1.8616  3.1366
12170SOL    HW248570   5.975   9.434   7.189 -0.1688 -0.5689 -0.8361
12171SOL     OW48571   7.658   5.172   0.949 -0.6183  0.2548 -0.0941
12171SOL    HW148572   7.692   5.157   1.042 -1.7915 -0.4020  0.2387
12171SOL    HW248573   7.720   5.129   0.884  0.2322  0.7533  0.3698
12172SOL     OW48574   8.772   8.818   3.509  0.1488 -0.4447  0.0281
12172SOL    HW148575   8.747   8.760   3.432  1.3921 -0.3779 -0.4457
12172SOL    HW248576   8.725   8.906   3.501 -1.9394 -1.4406  0.8853
12173SOL     OW48577   4.973   0.676   6.426 -0.5945  0.2064  0.1631
12173SOL    HW148578   4.913   0.639   6.356  0.6623 -1.1448 -0.2300
12173SOL    HW248579   4.963   0.624   6.511  1.7406 -1.5942 -0.6224
12174SOL     OW48580   1.862   9.494   8.861 -0.0553 -0.2218  0.0203
12174SOL    HW148581   1.846   9.404   8.903  0.0340  0.2496  1.0976
12174SOL    HW248582   1.941   9.538   8.906  0.1697  0.2088 -0.7925
12175SOL     OW48583   3.146   9.263   7.600  0.0009  0.0905 -0.3929
12175SOL    HW148584   3.235   9.256   7.556 -0.1684  0.3455 -0.7777
12175SOL    HW248585   3.114   9.357   7.597 -0.0557  0.0941  0.1973
12176SOL     OW48586   6.325   1.004   9.962  0.3453 -0.0336  0.0642
12176SOL    HW148587   6.298   0.957   9.878  3.1871  2.1347 -2.1583
12176SOL    HW248588   6.392   0.949  10.012  2.6952  1.0027 -1.8754
12177SOL     OW48589   0.871   0.712   8.825 -0.0953 -0.2558 -0.1425
12177SOL    HW148590   0.851   0.618   8.854 -1.1079 -0.3712 -1.1826
12177SOL    HW248591   0.961   0.715   8.783  1.2410 -0.1629  2.6017
12178SOL     OW48592   1.845   0.792   0.889 -0.0131 -0.0781  0.7147
12178SOL    HW148593   1.841   0.889   0.916  1.1318  0.0693  0.3546
12178SOL    HW248594   1.910   0.781   0.814  0.1084 -1.1876  0.9866
12179SOL     OW48595   3.588   0.857  10.053  0.2170 -0.0447  0.2458
12179SOL    HW148596   3.522   0.894  10.119  0.6777  1.3416 -0.0556
12179SOL    HW248597   3.649   0.930  10.023  0.0251 -0.6788 -1.7208
12180SOL     OW48598   7.756   0.764   8.810  0.2102  0.4954  0.1186
12180SOL    HW148599   7.728   0.827   8.881  0.6787  1.2220 -0.3373
12180SOL    HW248600   7.744   0.807   8.720  0.3447 -0.1340 -0.2059
12181SOL     OW48601   9.097   8.684   8.036  0.2297 -0.8521 -0.2342
12181SOL    HW148602   9.055   8.596   8.014 -0.0173 -0.9883  0.7438
12181SOL    HW248603   9.193   8.670   8.059  0.2892 -0.8130 -0.4619
12182SOL     OW48604   9.230   5.635   9.802  0.0646 -0.0245  0.3705
12182SOL    HW148605   9.266   5.553   9.846  1.1890  1.0491  1.4610
12182SOL    HW248606   9.158   5.675   9.859  0.4908  0.5441  0.5008
12183SOL     OW48607   2.130   7.468   0.738  0.3103  0.3881  0.1967
12183SOL    HW148608   2.106   7.562   0.760 -0.1285  0.7456 -1.8074
12183SOL    HW248609   2.161   7.461   0.644 -0.2039 -1.5733  0.1391
12184SOL     OW48610   9.957   4.280   8.565 -0.2852 -0.0442  0.0156
12184SOL    HW148611   9.874   4.336   8.559  1.0320  1.9526 -0.2676
12184SOL    HW248612   9.987   4.255   8.473 -0.3479 -0.4171  0.0975
12185SOL     OW48613   0.457   2.146   4.957 -0.6502 -0.4294  0.0539
12185SOL    HW148614   0.362   2.174   4.949 -0.3497  0.3403 -0.9374
12185SOL    HW248615   0.516   2.220   4.927  0.2779 -0.8289  0.8532
12186SOL     OW48616   6.459   9.813   3.199 -0.1928  0.3254  0.3652
12186SOL    HW148617   6.533   9.859   3.150  0.3604 -0.9182  0.0046
12186SOL    HW248618   6.485   9.799   3.294 -0.6340  1.3423  0.6425
12187SOL     OW48619   9.245   1.577   7.807 -0.0801 -0.2403 -0.3168
12187SOL    HW148620   9.292   1.514   7.745 -2.7845 -0.6568 -1.9939
12187SOL    HW248621   9.256   1.671   7.774 -2.0188 -0.5170 -1.7856
12188SOL     OW48622   3.288   2.083   2.462  0.1160  0.5005  0.3540
12188SOL    HW148623   3.277   2.062   2.559 -0.4561  1.2045  0.4412
12188SOL    HW248624   3.372   2.040   2.428  0.8835  1.1523  1.4168
12189SOL     OW48625   3.358   5.730   3.775 -0.3195  0.3310  0.8884
12189SOL    HW148626   3.310   5.664   3.717 -0.3234  0.9096  0.2264
12189SOL    HW248627   3.329   5.822   3.750 -0.0449  0.6000  1.5686
12190SOL     OW48628   4.963   4.346   7.152  0.7842  0.0161 -0.3438
12190SOL    HW148629   4.914   4.328   7.067 -1.2663 -0.5261  0.9099
12190SOL    HW248630   5.020   4.427   7.141 -1.6372  1.6471 -1.3911
12191SOL     OW48631   1.131   2.001   1.940  0.2310  0.8013 -0.6350
12191SOL    HW148632   1.175   2.064   1.876 -0.5787  1.1816 -0.8363
12191SOL    HW248633   1.035   2.027   1.950 -0.0175 -0.1839 -0.4316
12192SOL     OW48634   4.576   3.943   3.480 -0.1943  0.3824  0.3414
12192SOL    HW148635   4.489   3.948   3.432 -0.1112  0.1623  0.1682
12192SOL    HW248636   4.609   4.035   3.500  0.2810  0.4905 -0.9311
12193SOL     OW48637   5.113   7.479   1.637 -0.2340 -0.1887  0.0532
12193SOL    HW148638   5.163   7.562   1.662 -1.7433  0.4031  1.1397
12193SOL    HW248639   5.122   7.411   1.710 -0.0631 -0.5116 -0.2654
12194SOL     OW48640   8.038   3.943   5.458  0.4058 -0.1845  0.5064
12194SOL    HW148641   8.002   3.944   5.551 -2.0256 -0.8649 -0.3727
12194SOL    HW248642   8.043   4.037   5.423 -0.1243 -0.0365  0.8145
12195SOL     OW48643   3.838   3.379   4.282 -0.0813  0.1786  0.4139
12195SOL    HW148644   3.852   3.401   4.378 -1.6719 -1.0240  0.9383
12195SOL    HW248645   3.763   3.314   4.273 -1.1141  1.6051 -1.7912
12196SOL     OW48646   8.113   2.628   1.972 -0.1066  0.3842 -0.2735
12196SOL    HW148647   8.093   2.542   2.019  0.0771 -0.3542 -1.5140
12196SOL    HW248648   8.212   2.646   1.976 -0.1828  0.7041  0.2494
12197SOL     OW48649   2.067   6.982   7.783 -0.4184  0.4681  0.0085
12197SOL    HW148650   1.972   7.006   7.766 -0.7028 -0.7058 -0.0567
12197SOL    HW248651   2.078   6.883   7.782  0.6348  0.5582  0.9110
12198SOL     OW48652   3.043   5.107   4.529  0.3060 -0.3194 -0.4099
12198SOL    HW148653   3.088   5.169   4.594  0.6488 -0.6691 -0.3171
12198SOL    HW248654   3.069   5.132   4.436  1.9861 -1.5488 -0.2835
12199SOL     OW48655   7.947   7.734   8.714  0.0171 -0.3144 -0.3661
12199SOL    HW148656   7.957   7.809   8.779  0.1930 -1.8957  1.4705
12199SOL    HW248657   7.900   7.658   8.757 -1.8529 -0.5889 -2.7914
12200SOL     OW48658   1.492   9.275   5.292 -0.3094  0.7223  0.3636
12200SOL    HW148659   1.400   9.301   5.262 -0.5570  2.4832  2.5024
12200SOL    HW248660   1.557   9.348   5.269  0.2060  0.3181  0.5248
12201SOL     OW48661   7.084   7.492   3.422  0.5867  0.2211  0.2644
12201SOL    HW148662   7.082   7.556   3.499 -0.3595 -0.0752  0.5000
12201SOL    HW248663   7.094   7.399   3.457 -0.3732  0.0371  0.0681
12202SOL     OW48664   9.899   2.130   5.006 -0.0625  0.6426  0.2897
12202SOL    HW148665   9.923   2.203   4.941 -0.8257  0.5351 -0.1225
12202SOL    HW248666   9.800   2.123   5.012 -0.0181  1.7281  2.6977
12203SOL     OW48667   2.316   2.983   3.850 -0.6651  0.4560 -0.5637
12203SOL    HW148668   2.248   2.922   3.892  1.2155 -0.6424  1.0172
12203SOL    HW248669   2.343   2.946   3.761 -0.8947 -0.0459 -0.4302
12204SOL     OW48670   4.600   6.346   1.910 -0.2605 -0.0340  0.5158
12204SOL    HW148671   4.666   6.279   1.945 -0.7930 -1.4869 -1.1880
12204SOL    HW248672   4.508   6.307   1.913 -0.6286  0.7718 -0.0955
12205SOL     OW48673   0.634   7.993   3.412 -0.2390  0.2339 -0.4872
12205SOL    HW148674   0.713   8.054   3.406 -0.2197  0.2295 -0.2780
12205SOL    HW248675   0.631   7.935   3.331 -0.8177  1.1737 -1.1463
12206SOL     OW48676   1.346   4.463   3.316 -0.4041  0.0720  0.5867
12206SOL    HW148677   1.419   4.453   3.384  1.1842 -0.6581 -1.1914
12206SOL    HW248678   1.385   4.494   3.230 -2.2276 -0.1764 -0.3425
12207SOL     OW48679   2.234   7.328   0.996  0.1587 -0.3927 -0.5837
12207SOL    HW148680   2.194   7.367   0.913 -1.2951 -1.7135 -0.5369
12207SOL    HW248681   2.198   7.375   1.076 -2.5065 -2.5228 -0.4664
12208SOL     OW48682   8.022   9.871   7.215  0.5650  0.1245  0.0682
12208SOL    HW148683   8.068   9.926   7.145 -2.7391  1.7641 -0.9145
12208SOL    HW248684   7.981   9.791   7.172  2.4226 -1.3591  0.9550
12209SOL     OW48685   6.655   7.981   2.985  0.0035  0.0868 -0.1670
12209SOL    HW148686   6.668   8.062   3.043 -0.4924 -0.1301  0.2416
12209SOL    HW248687   6.565   7.985   2.943 -0.0093 -0.2436 -0.1655
12210SOL     OW48688   6.293   0.531   4.319 -0.8012 -0.0332  0.3852
12210SOL    HW148689   6.304   0.470   4.397  1.9292  0.1690  0.1859
12210SOL    HW248690   6.296   0.626   4.350 -0.4195  0.0394  0.1303
12211SOL     OW48691   1.705   6.112   7.530  0.1242  0.1543 -0.3994
12211SOL    HW148692   1.706   6.027   7.478 -1.1288  0.0024 -0.1863
12211SOL    HW248693   1.641   6.104   7.607  1.3638  0.6455  0.7095
12212SOL     OW48694   3.734   4.213   8.958  0.3510 -0.4525 -0.0885
12212SOL    HW148695   3.663   4.221   9.028 -0.7209 -2.1409 -0.9455
12212SOL    HW248696   3.728   4.292   8.897  0.1428  0.1356  0.6795
12213SOL     OW48697   6.513   8.600   6.583 -0.3018 -0.0945 -0.1345
12213SOL    HW148698   6.578   8.592   6.508  0.2548  1.4991  0.1720
12213SOL    HW248699   6.506   8.512   6.631  2.0720 -0.1241  0.2039
12214SOL     OW48700   2.858   5.863   0.593  0.4287  0.1832  0.4507
12214SOL    HW148701   2.811   5.949   0.615  0.0224 -0.1809  1.0141
12214SOL    HW248702   2.939   5.854   0.651  0.8836  0.5367 -0.1237
12215SOL     OW48703   1.596   8.776   3.946  0.0544 -0.8943  0.7640
12215SOL    HW148704   1.667   8.845   3.933 -1.9946  1.0743 -0.5227
12215SOL    HW248705   1.636   8.685   3.939  2.2874  0.1541 -0.8543
12216SOL     OW48706   3.389   3.546   1.382 -0.1739  0.4361  0.0585
12216SOL    HW148707   3.395   3.645   1.395 -0.4346  0.6231 -1.1555
12216SOL    HW248708   3.302   3.524   1.338  0.5716 -0.1654 -1.1268
12217SOL     OW48709   4.978   9.912   8.293 -0.0565  0.5357  0.1252
12217SOL    HW148710   4.881   9.887   8.299 -0.4433  1.6885 -1.2462
12217SOL    HW248711   4.993   9.970   8.213  1.6520  0.9291  0.7135
12218SOL     OW48712   1.314   9.200   2.635  0.6746  0.4050  0.0937
12218SOL    HW148713   1.228   9.152   2.654  0.9069  0.1573  0.5250
12218SOL    HW248714   1.391   9.144   2.666  0.9352  1.1873  0.8531
12219SOL     OW48715   3.097   0.056   5.049  0.2970 -0.0536 -0.2074
12219SOL    HW148716   3.000   0.079   5.054  0.4076  0.0816  2.2158
12219SOL    HW248717   3.110  -0.024   4.991 -0.8394  2.0066 -3.4320
12220SOL     OW48718   1.140   0.303   5.754  0.3025  0.1472 -0.0061
12220SOL    HW148719   1.100   0.219   5.790 -1.3225  0.9618  0.1338
12220SOL    HW248720   1.117   0.380   5.815  0.5544  0.9304 -0.8893
12221SOL     OW48721   9.738   6.034   2.000 -0.1549  0.4093 -0.1566
12221SOL    HW148722   9.777   5.999   2.086 -1.0777 -0.0130  0.0903
12221SOL    HW248723   9.779   5.984   1.923 -0.8469 -0.6441  0.1483
12222SOL     OW48724   3.246   5.148   4.827 -0.1375 -0.2150  0.4727
12222SOL    HW148725   3.264   5.176   4.921 -0.5612 -0.0337  0.4989
12222SOL    HW248726   3.200   5.222   4.778  0.3937 -0.1801  0.0260
12223SOL     OW48727   0.784   7.380   3.048  0.0304  0.0696  0.5963
12223SOL    HW148728   0.783   7.348   3.142  0.0965 -1.2800  0.1583
12223SOL    HW248729   0.832   7.313   2.991  0.8935  1.3557 -0.2211
12224SOL     OW48730   1.105   0.004   6.796 -0.2041  0.5099 -0.4405
12224SOL    HW148731   1.099   0.099   6.825 -2.1516 -0.2438  1.8013
12224SOL    HW248732   1.179  -0.042   6.846 -0.4646  0.3998 -0.1517
12225SOL     OW48733   2.322   6.750   6.243  0.3217  0.2712 -1.0131
12225SOL    HW148734   2.267   6.770   6.161 -3.3506  1.5592  1.5977
12225SOL    HW248735   2.330   6.833   6.298 -0.3653 -1.3919  1.6747
12226SOL     OW48736   9.967   6.159   8.021  0.1537 -0.4866  0.0444
12226SOL    HW148737  10.011   6.078   7.981  0.0713 -1.9671  2.8429
12226SOL    HW248738   9.875   6.135   8.051  0.5590  0.2816  1.9823
12227SOL     OW48739   3.628   7.258   1.977 -0.0211  0.0160  0.2918
12227SOL    HW148740   3.610   7.160   1.966 -1.9647  0.3872 -0.1275
12227SOL    HW248741   3.631   7.281   2.074 -1.3571 -0.1765  0.3930
12228SOL     OW48742   8.400   0.937   4.221  0.1100  0.1174 -0.4992
12228SOL    HW148743   8.383   1.035   4.212  0.4540  0.2121 -0.1416
12228SOL    HW248744   8.416   0.897   4.131  1.6566  0.7038 -0.5013
12229SOL     OW48745   9.688   7.095   4.234  0.5495 -0.8833  0.2145
12229SOL    HW148746   9.631   7.165   4.192  0.5169 -0.7473  0.4820
12229SOL    HW248747   9.782   7.127   4.240 -0.0438  0.5338  3.3918
12230SOL     OW48748   0.070   5.983   5.384  0.7845 -0.7954 -0.5590
12230SOL    HW148749   0.051   6.062   5.325  1.5013 -1.5766 -1.8445
12230SOL    HW248750  -0.013   5.959   5.435  0.0961 -0.2570 -1.4059
12231SOL     OW48751   1.753   6.080   0.729  0.2776 -0.3381 -0.0140
12231SOL    HW148752   1.770   6.043   0.821 -1.5691 -1.5738 -0.1375
12231SOL    HW248753   1.693   6.018   0.679  0.1589  1.0151 -1.5941
12232SOL     OW48754   0.782   3.437   5.522  0.7146 -0.1979  0.0832
12232SOL    HW148755   0.795   3.503   5.596  1.3297 -1.1255  0.8057
12232SOL    HW248756   0.697   3.458   5.473  0.6879  0.8641  0.5757
12233SOL     OW48757   8.693   2.303   5.463  0.2841  0.1238  0.2246
12233SOL    HW148758   8.646   2.216   5.454 -1.0199  0.5843  2.4250
12233SOL    HW248759   8.779   2.290   5.513  0.3264  0.0323  0.1287
12234SOL     OW48760   8.653   9.638   3.448  0.1863 -0.4844  0.2116
12234SOL    HW148761   8.735   9.595   3.409  1.5444  0.2126  2.2042
12234SOL    HW248762   8.592   9.567   3.482 -0.1140 -1.0178 -1.4049
12235SOL     OW48763   3.955   2.225   0.385  0.0293  0.0375 -0.4063
12235SOL    HW148764   3.889   2.197   0.315  1.0486  0.3698 -1.5091
12235SOL    HW248765   3.913   2.215   0.475 -1.9320  1.3076 -1.1364
12236SOL     OW48766   8.585   0.170   4.281 -0.3380  0.5000  0.2107
12236SOL    HW148767   8.613   0.096   4.343  1.8284 -0.9111 -2.3576
12236SOL    HW248768   8.637   0.252   4.302  0.1783  0.1175  0.4557
12237SOL     OW48769   8.648   2.030   2.308  0.0236  1.4760 -0.2954
12237SOL    HW148770   8.561   1.993   2.275  0.0839  0.6679  0.4303
12237SOL    HW248771   8.636   2.126   2.332 -1.1178  0.9361  1.3849
12238SOL     OW48772   5.456   4.511   8.523 -0.5744 -0.0690 -0.4357
12238SOL    HW148773   5.546   4.484   8.557 -0.6838 -1.6546 -1.3837
12238SOL    HW248774   5.393   4.520   8.600  0.6192  2.0779  0.3499
12239SOL     OW48775   0.074   8.219   5.259 -1.0191  0.0880 -0.0016
12239SOL    HW148776   0.070   8.291   5.189 -1.6094 -0.3659 -0.4329
12239SOL    HW248777   0.069   8.129   5.216  0.0466 -0.2240  0.5152
12240SOL     OW48778   3.835   7.548   4.693 -0.3416  0.2324 -0.5971
12240SOL    HW148779   3.759   7.591   4.644 -2.6845 -1.9607  1.0072
12240SOL    HW248780   3.828   7.571   4.791  1.2747  0.2871 -0.4838
12241SOL     OW48781   0.512   6.443   7.005 -0.0491 -0.1203 -0.1493
12241SOL    HW148782   0.598   6.494   7.011 -0.7312  0.8570  1.8563
12241SOL    HW248783   0.447   6.494   6.949  0.1779 -0.1333 -0.4261
12242SOL     OW48784   3.275   2.534   0.850  0.0270 -0.1920  0.3616
12242SOL    HW148785   3.277   2.445   0.804  0.0825 -0.5869  1.1099
12242SOL    HW248786   3.190   2.543   0.902  0.5038 -0.2709  1.1698
12243SOL     OW48787   3.550   5.321   3.370 -0.1811 -0.2141  0.6231
12243SOL    HW148788   3.532   5.302   3.467 -0.6630 -0.4145  0.4952
12243SOL    HW248789   3.475   5.375   3.332 -0.5707 -1.1322  0.0595
12244SOL     OW48790   5.112   1.465   6.554 -0.2340  0.4225 -0.2368
12244SOL    HW148791   5.120   1.415   6.640 -1.5770 -0.0177 -0.3443
12244SOL    HW248792   5.145   1.408   6.479  0.1491  0.4817 -0.1121
12245SOL     OW48793   8.887   0.635   2.091 -0.4388 -0.2546 -0.1167
12245SOL    HW148794   8.802   0.614   2.041  0.8253 -2.2970 -1.5040
12245SOL    HW248795   8.874   0.718   2.145 -4.0136 -1.6304  1.3387
12246SOL     OW48796   8.632   9.574   8.817  0.5970  0.4835  0.7692
12246SOL    HW148797   8.707   9.636   8.793  1.1602 -0.2136  0.7031
12246SOL    HW248798   8.604   9.522   8.736  1.7411 -1.0614  1.3504
12247SOL     OW48799   1.926   8.859   7.572  0.2107 -0.4257 -0.3690
12247SOL    HW148800   1.964   8.946   7.543  0.7317  0.1060  1.8324
12247SOL    HW248801   1.855   8.875   7.641  0.7954 -1.7760  0.5544
12248SOL     OW48802   8.556   7.094   8.339 -0.5265 -0.2771 -0.3589
12248SOL    HW148803   8.473   7.141   8.366  0.3789  0.2032  1.6879
12248SOL    HW248804   8.544   6.995   8.349 -1.3096 -0.2971 -1.4444
12249SOL     OW48805   9.882   2.897   8.020 -0.5481 -0.4711 -0.4231
12249SOL    HW148806   9.789   2.873   7.992  0.1242 -0.4131 -2.8456
12249SOL    HW248807   9.944   2.823   7.996  0.1401 -0.2234  0.5768
12250SOL     OW48808   8.443   6.488   5.400 -0.2663 -0.2331 -0.0760
12250SOL    HW148809   8.431   6.587   5.399 -0.0600 -0.1878  1.2590
12250SOL    HW248810   8.523   6.463   5.345 -0.5087  0.3082 -0.6742
12251SOL     OW48811   4.863   5.098   0.160 -0.4830  0.4866 -0.4107
12251SOL    HW148812   4.814   5.150   0.230  0.8642  0.3287  0.6838
12251SOL    HW248813   4.915   5.025   0.204  0.8623  0.7618 -1.5089
12252SOL     OW48814   2.688   3.664   5.369  0.1342  0.1030  0.0216
12252SOL    HW148815   2.687   3.609   5.452 -1.8122 -0.7563 -0.5455
12252SOL    HW248816   2.600   3.655   5.321  0.1807  2.8050 -0.6692
12253SOL     OW48817   4.356   9.981   7.476 -0.4009 -0.3982  0.5107
12253SOL    HW148818   4.278   9.921   7.493 -0.0852 -0.8413  0.3935
12253SOL    HW248819   4.377  10.033   7.559 -0.2960 -0.8864  0.7877
12254SOL     OW48820   4.485   9.584   8.476  0.2950 -0.1257  0.2360
12254SOL    HW148821   4.532   9.646   8.539  1.0392 -1.1105  0.6619
12254SOL    HW248822   4.509   9.607   8.382  0.5892  0.2099  0.3924
12255SOL     OW48823   9.955   5.679   8.988  0.4380 -0.0217 -0.4917
12255SOL    HW148824   9.907   5.757   8.948 -1.3522 -0.6181  0.4735
12255SOL    HW248825  10.004   5.629   8.916 -2.4510 -0.8955 -1.8979
12256SOL     OW48826   9.230   9.574   7.123 -0.1853  0.1199  0.1994
12256SOL    HW148827   9.286   9.522   7.059  1.0198  0.9720  0.5519
12256SOL    HW248828   9.180   9.511   7.182  0.1356 -0.6494 -0.3426
12257SOL     OW48829   0.389   1.139   8.227  0.0065 -0.0723 -0.8012
12257SOL    HW148830   0.386   1.196   8.309 -1.5063 -1.3249  0.0467
12257SOL    HW248831   0.306   1.154   8.173 -0.3919 -1.4343 -0.5831
12258SOL     OW48832   0.226   8.146   5.478 -1.0206 -0.2131  0.0924
12258SOL    HW148833   0.251   8.187   5.390  0.9607  0.9932  1.1935
12258SOL    HW248834   0.179   8.059   5.461  0.9438 -0.9126 -2.1599
12259SOL     OW48835   2.187   4.881   0.622 -0.5252 -0.0125  0.1693
12259SOL    HW148836   2.263   4.840   0.672 -1.4776 -0.9586  0.8807
12259SOL    HW248837   2.102   4.833   0.645 -1.5883  1.9680  0.5567
12260SOL     OW48838   1.812   7.056   7.658 -0.2390 -0.6019 -0.4192
12260SOL    HW148839   1.715   7.041   7.676 -0.0922 -1.6590 -0.5118
12260SOL    HW248840   1.830   7.047   7.560 -0.0823 -0.1833 -0.4319
12261SOL     OW48841   3.026   9.784   3.842 -0.1660 -0.0347 -0.0635
12261SOL    HW148842   3.073   9.857   3.892  1.4453 -0.2127 -1.2676
12261SOL    HW248843   2.941   9.761   3.889  0.6974  0.6549  1.8925
12262SOL     OW48844   3.220   9.988   2.673 -0.2953  0.0912  0.3633
12262SOL    HW148845   3.252  10.056   2.740  0.2714  0.6150 -0.4330
12262SOL    HW248846   3.124   9.966   2.692  0.4458 -1.3531  2.6614
12263SOL     OW48847   3.386   6.706   2.003 -0.6639 -0.2774 -0.7633
12263SOL    HW148848   3.353   6.741   1.915 -0.8314 -1.8258 -1.3368
12263SOL    HW248849   3.414   6.782   2.061 -3.4379  0.9848 -1.0027
12264SOL     OW48850   5.643   4.505   1.022 -0.4209 -0.0548 -0.0885
12264SOL    HW148851   5.615   4.480   1.115  1.6588  1.3001  0.9517
12264SOL    HW248852   5.706   4.436   0.986  1.7588  1.3003  1.0229
12265SOL     OW48853   0.677   3.927   8.978  0.2525  0.0638 -0.9990
12265SOL    HW148854   0.640   3.836   8.958  1.1838 -0.3263 -0.9926
12265SOL    HW248855   0.629   3.966   9.056  1.4113 -1.4252  0.5016
12266SOL     OW48856   9.469   6.425   9.750 -0.2154 -0.2855 -0.0507
12266SOL    HW148857   9.515   6.435   9.838 -0.0347  0.0086 -0.1765
12266SOL    HW248858   9.531   6.452   9.676 -0.7170  0.5026 -0.1933
12267SOL     OW48859   0.193   7.289   0.009 -0.0477  0.4531  0.1670
12267SOL    HW148860   0.135   7.224  -0.040 -0.8140 -0.0528  1.7174
12267SOL    HW248861   0.162   7.297   0.103  3.2228 -0.8215  1.4057
12268SOL     OW48862   8.294   1.176   2.127 -0.3240 -0.3952 -0.5762
12268SOL    HW148863   8.265   1.081   2.122 -2.4453  0.0722  1.7932
12268SOL    HW248864   8.331   1.195   2.218 -1.0980  1.3611 -0.6050
12269SOL     OW48865   1.708   5.777   2.847  1.1929 -0.1799 -0.1951
12269SOL    HW148866   1.613   5.756   2.870  1.2354  0.7359  0.8917
12269SOL    HW248867   1.712   5.859   2.790  1.3142 -0.3272 -0.3985
12270SOL     OW48868   5.596   2.794   9.813 -0.5337 -0.1488 -0.1068
12270SOL    HW148869   5.553   2.882   9.830 -1.0717 -0.5014  0.3709
12270SOL    HW248870   5.672   2.806   9.749 -0.9735  0.5633 -0.5024
12271SOL     OW48871   1.831   1.609   5.013 -0.4816  0.1794 -0.3015
12271SOL    HW148872   1.804   1.649   5.101  1.2109  0.8188 -0.0562
12271SOL    HW248873   1.749   1.587   4.960 -1.4989  0.7787  0.9844
12272SOL     OW48874   2.384   4.523   8.129 -0.2113 -0.0193  0.2006
12272SOL    HW148875   2.425   4.586   8.063 -0.1922 -1.1419 -0.8768
12272SOL    HW248876   2.446   4.446   8.145 -0.2777  0.1716  1.4299
12273SOL     OW48877   9.892   1.644   8.721  0.2228  0.3113 -0.4606
12273SOL    HW148878   9.842   1.721   8.683 -0.7125  0.0766  0.2607
12273SOL    HW248879   9.831   1.565   8.730  0.5889  0.1507  0.8491
12274SOL     OW48880   7.161   1.889   0.054 -0.3938  0.2448 -0.0545
12274SOL    HW148881   7.068   1.853   0.060 -0.1698 -0.1411  1.1999
12274SOL    HW248882   7.220   1.839   0.116  0.5975  0.6788 -0.6421
12275SOL     OW48883   0.842   5.025   9.949 -0.0530  0.3251  0.2686
12275SOL    HW148884   0.931   5.059   9.920 -0.1178  0.1819 -0.0940
12275SOL    HW248885   0.782   5.014   9.870  0.5785 -2.4449  0.1124
12276SOL     OW48886   3.489   2.534   8.342  0.0662 -0.6413 -0.4019
12276SOL    HW148887   3.433   2.465   8.388 -0.4101 -0.1621 -0.2579
12276SOL    HW248888   3.480   2.621   8.390  2.2394 -0.9386  0.6177
12277SOL     OW48889   9.669   1.105   6.421  0.1946  0.0264 -0.1295
12277SOL    HW148890   9.671   1.095   6.322  0.6872 -0.5797 -0.0637
12277SOL    HW248891   9.673   1.015   6.464 -0.3117  0.2744  0.4375
12278SOL     OW48892   6.956   4.807   8.298  0.1122 -0.0495 -0.0803
12278SOL    HW148893   6.972   4.836   8.392 -0.8522 -0.1764  0.1271
12278SOL    HW248894   6.862   4.773   8.289  0.6222 -1.3299 -0.7576
12279SOL     OW48895   8.001   6.650   5.260 -0.1384 -0.2386 -0.1516
12279SOL    HW148896   8.077   6.586   5.272  1.1912  0.8945 -2.1441
12279SOL    HW248897   7.971   6.684   5.349  0.4273 -2.1521  0.7726
12280SOL     OW48898   8.200   9.079   0.346 -0.0305 -0.4080  0.0255
12280SOL    HW148899   8.148   9.040   0.421 -0.6182  1.1132  0.4201
12280SOL    HW248900   8.184   9.025   0.263 -0.5197 -1.2209  0.6377
12281SOL     OW48901   0.392   9.472   8.833 -0.9052  0.1041 -0.5178
12281SOL    HW148902   0.301   9.430   8.828 -0.6447 -0.7983  2.0420
12281SOL    HW248903   0.423   9.475   8.928  1.4571  1.0441 -1.2828
12282SOL     OW48904   8.301   0.999   5.097 -0.7075 -0.2111 -0.1513
12282SOL    HW148905   8.367   0.929   5.071  1.2539  1.1063  1.1240
12282SOL    HW248906   8.274   0.985   5.192 -0.2334  0.7824  0.1397
12283SOL     OW48907   4.375   0.691   1.793 -0.7295  0.1908  0.3070
12283SOL    HW148908   4.368   0.718   1.889 -0.7020  0.0200  0.3575
12283SOL    HW248909   4.383   0.772   1.736  0.9533  0.2244  0.5838
12284SOL     OW48910   3.447   7.162   1.179 -0.0361  0.1188  0.5809
12284SOL    HW148911   3.360   7.126   1.212 -0.0597 -0.7685 -0.4153
12284SOL    HW248912   3.445   7.262   1.181 -1.6598  0.1474 -0.8634
12285SOL     OW48913   8.429   3.864   0.453 -0.0020  0.6170 -0.0397
12285SOL    HW148914   8.411   3.888   0.358  1.7983 -2.4161 -1.2016
12285SOL    HW248915   8.362   3.797   0.484  0.8174 -0.1734  0.0515
12286SOL     OW48916   3.746   7.437   8.944 -0.0093  0.0766 -0.0877
12286SOL    HW148917   3.801   7.481   9.015  0.2508  0.9203 -0.8003
12286SOL    HW248918   3.804   7.411   8.868 -0.3674 -0.3506 -0.2138
12287SOL     OW48919   8.229   4.809   8.698 -0.5622  0.2278  0.1116
12287SOL    HW148920   8.224   4.709   8.691  0.4038  0.0777  1.4163
12287SOL    HW248921   8.312   4.841   8.652 -1.1947  0.5040 -0.8619
12288SOL     OW48922   2.948   7.734   0.817 -0.4980  0.5505 -0.1375
12288SOL    HW148923   3.011   7.812   0.806 -0.1383  0.2305 -0.3599
12288SOL    HW248924   2.883   7.754   0.890  0.0869  0.7408  0.3394
12289SOL     OW48925   7.941   7.238   3.405 -0.1628  0.0142  0.0254
12289SOL    HW148926   7.875   7.169   3.435 -1.1805  0.1434 -1.7872
12289SOL    HW248927   7.892   7.316   3.366  1.0528 -0.0363 -1.6554
12290SOL     OW48928   6.777   7.523   4.570  0.3503  0.0610  0.5760
12290SOL    HW148929   6.841   7.570   4.510 -0.1386 -0.1703 -0.1270
12290SOL    HW248930   6.827   7.483   4.647  0.8806  0.9806  0.7202
12291SOL     OW48931   9.415   8.138   0.275 -0.3831 -0.4633  0.4823
12291SOL    HW148932   9.402   8.106   0.181  2.0922 -1.2568  0.3849
12291SOL    HW248933   9.459   8.228   0.273  1.1580 -1.2066  0.9057
12292SOL     OW48934   7.713   8.741   2.459 -0.5358 -0.5024 -0.1891
12292SOL    HW148935   7.726   8.836   2.433 -0.0245  0.4436  3.2944
12292SOL    HW248936   7.803   8.696   2.466 -0.6333 -0.5929  0.4744
12293SOL     OW48937   7.067   0.937   4.420 -0.2896  0.0832 -0.1646
12293SOL    HW148938   7.112   0.925   4.509 -0.7468 -0.0649  0.0483
12293SOL    HW248939   7.136   0.944   4.348  0.1261  1.3216  0.3431
12294SOL     OW48940   2.701   9.918   8.914 -0.2344 -0.5799  0.1190
12294SOL    HW148941   2.689   9.820   8.931 -2.4679 -0.0311  1.8845
12294SOL    HW248942   2.614   9.957   8.886  0.5535  1.0044 -0.1473
12295SOL     OW48943   4.097   7.528   0.258 -0.5945 -0.2280 -0.6306
12295SOL    HW148944   4.172   7.474   0.220 -1.2129 -1.8359  0.3979
12295SOL    HW248945   4.010   7.482   0.242 -1.0136 -0.1425  1.3017
12296SOL     OW48946   1.390   0.116   2.245  0.3367 -0.4201  0.2483
12296SOL    HW148947   1.403   0.121   2.344  0.4781 -1.5685  0.2913
12296SOL    HW248948   1.480   0.116   2.200  0.2683  0.3210  0.1034
12297SOL     OW48949   4.849   4.480   2.931  0.3789  0.2113 -0.5334
12297SOL    HW148950   4.914   4.421   2.979 -0.8178 -0.2936  0.4845
12297SOL    HW248951   4.852   4.572   2.971 -0.7450 -0.2563  0.6288
12298SOL     OW48952   3.015   8.526   0.937  0.0954 -0.1046  0.5944
12298SOL    HW148953   3.000   8.576   1.022  0.2353  0.2974  0.3816
12298SOL    HW248954   2.947   8.453   0.929 -0.9908  0.9260  0.2360
12299SOL     OW48955   7.218   3.660   8.458 -0.2308 -0.2985  0.3827
12299SOL    HW148956   7.275   3.618   8.387  1.4774 -0.1819  1.6320
12299SOL    HW248957   7.213   3.598   8.537 -2.4165 -0.5930  0.0392
12300SOL     OW48958   4.527   8.380   5.737  0.3856 -0.0248 -0.2351
12300SOL    HW148959   4.468   8.396   5.816 -0.5721 -0.8055 -0.7809
12300SOL    HW248960   4.608   8.330   5.766  0.4239  0.3870  0.3873
12301SOL     OW48961   4.881   7.752   6.063  0.5121  0.0876  0.2836
12301SOL    HW148962   4.975   7.736   6.032  0.3907 -0.6455  0.2827
12301SOL    HW248963   4.872   7.721   6.157  0.2032 -0.0608  0.2043
12302SOL     OW48964   1.524   5.308   8.294  0.2146 -0.2776 -0.0025
12302SOL    HW148965   1.603   5.286   8.350  1.8257  1.0968 -1.6546
12302SOL    HW248966   1.491   5.400   8.318 -0.3180 -0.4840  0.0552
12303SOL     OW48967   2.919   0.276   2.404  0.2492 -0.6369  0.3291
12303SOL    HW148968   3.004   0.274   2.456  0.1280  0.1360  0.5725
12303SOL    HW248969   2.842   0.281   2.467  0.0136 -1.4818  0.1114
12304SOL     OW48970   9.580   0.521   1.656  0.0909  0.3162 -0.2141
12304SOL    HW148971   9.567   0.571   1.742  1.5664 -0.7665  0.6458
12304SOL    HW248972   9.493   0.481   1.628 -0.0309 -0.8456  1.7261
12305SOL     OW48973   2.043   7.671   4.518  0.1069  0.1866 -0.1530
12305SOL    HW148974   2.028   7.624   4.605 -0.6838 -0.2494 -0.5167
12305SOL    HW248975   2.141   7.685   4.504  0.2062  0.7265  1.0508
12306SOL     OW48976   8.059   5.387   3.249  0.2969  0.1825 -0.7905
12306SOL    HW148977   8.077   5.486   3.253  2.4743 -0.1629 -1.1444
12306SOL    HW248978   8.122   5.340   3.310 -0.5460 -1.0117 -0.8407
12307SOL     OW48979   2.599   8.871   9.557  0.4310  0.6460 -0.3885
12307SOL    HW148980   2.667   8.916   9.615 -1.3150  2.4053  0.3555
12307SOL    HW248981   2.600   8.914   9.466  0.6908  0.2960 -0.5514
12308SOL     OW48982   7.473   6.146   0.387 -0.0903  0.3930  0.3825
12308SOL    HW148983   7.414   6.215   0.344 -1.4423 -0.4020  0.9320
12308SOL    HW248984   7.425   6.058   0.389  2.1850 -0.9234 -1.5938
12309SOL     OW48985   3.528   0.784   9.348 -0.3310 -0.3755 -0.3758
12309SOL    HW148986   3.478   0.779   9.261 -1.4689  3.9512 -0.0809
12309SOL    HW248987   3.590   0.863   9.346  1.6266 -1.7809  1.7911
12310SOL     OW48988   3.730   6.366   0.693 -0.3647 -0.1020  0.3295
12310SOL    HW148989   3.691   6.294   0.750  0.5652 -1.3750 -0.6153
12310SOL    HW248990   3.751   6.446   0.750  0.5264 -1.3359  1.7637
12311SOL     OW48991   8.148   1.030   1.620 -0.1194 -0.4863  0.1715
12311SOL    HW148992   8.245   1.039   1.596  0.4568 -2.5324  1.6361
12311SOL    HW248993   8.093   1.040   1.537  1.2889  1.2530 -0.5981
12312SOL     OW48994   7.998   8.519   2.719 -0.0795 -0.4278  0.0609
12312SOL    HW148995   7.983   8.552   2.812  0.2587  1.0374 -0.3897
12312SOL    HW248996   8.095   8.498   2.706  0.2460  1.3657 -0.5703
12313SOL     OW48997   9.035   4.216   0.774 -0.7542 -0.6833  0.0289
12313SOL    HW148998   9.112   4.230   0.711 -0.9472 -0.5008 -0.1650
12313SOL    HW248999   9.070   4.196   0.866 -0.4810  0.0014  0.0740
12314SOL     OW49000   4.142   8.466   4.401  0.0423  0.5200 -0.5755
12314SOL    HW149001   4.097   8.555   4.387  0.6738  0.8856 -0.3185
12314SOL    HW249002   4.236   8.481   4.432 -0.8350 -0.2088  2.7163
12315SOL     OW49003   5.616   5.433   7.813  0.6092 -0.4597 -0.3582
12315SOL    HW149004   5.533   5.382   7.835 -1.1418  1.4078 -2.3857
12315SOL    HW249005   5.608   5.526   7.848  1.7388 -0.1919 -0.7904
12316SOL     OW49006   6.871   1.411   2.898  0.1225  0.1377 -0.1033
12316SOL    HW149007   6.914   1.322   2.882  0.7299  0.6157 -1.1746
12316SOL    HW249008   6.778   1.398   2.930 -0.8723 -0.8757 -3.2646
12317SOL     OW49009   7.750   6.775   7.267 -0.3167  0.1244 -0.4069
12317SOL    HW149010   7.727   6.848   7.332  0.0207 -0.9633  0.9672
12317SOL    HW249011   7.846   6.748   7.280 -0.3121 -0.2521 -1.2043
12318SOL     OW49012   0.985   4.809   6.901  0.0338  0.3675 -0.0755
12318SOL    HW149013   0.909   4.840   6.958 -0.4822 -0.1187 -0.4940
12318SOL    HW249014   0.953   4.738   6.838  0.6418  0.7585 -0.8348
12319SOL     OW49015   7.471   5.864   7.900  0.3065 -0.1360  0.3826
12319SOL    HW149016   7.526   5.799   7.952  1.1479 -1.3805 -1.9847
12319SOL    HW249017   7.399   5.815   7.850  0.5441  0.8299 -0.9292
12320SOL     OW49018   3.423   0.621   2.387 -0.1700 -0.3096 -0.1792
12320SOL    HW149019   3.484   0.685   2.341  0.2428 -0.9211 -0.4949
12320SOL    HW249020   3.408   0.650   2.481  1.0414 -0.4468  0.0636
12321SOL     OW49021   6.135   1.271   3.760  0.3133 -0.2239 -0.1259
12321SOL    HW149022   6.118   1.294   3.856  0.0684  0.6843 -0.3811
12321SOL    HW249023   6.232   1.256   3.746  0.0552 -3.0366  0.8341
12322SOL     OW49024   3.163   1.432   5.929 -0.2665 -0.2169 -0.6247
12322SOL    HW149025   3.069   1.465   5.926 -0.5990 -1.1321 -0.2985
12322SOL    HW249026   3.215   1.473   5.854 -0.9388  0.2307 -0.8512
12323SOL     OW49027   3.383   1.168   1.319  0.2456  0.2734  0.0955
12323SOL    HW149028   3.327   1.093   1.284  0.2512  1.0853 -1.7133
12323SOL    HW249029   3.393   1.238   1.248  0.7079  1.7253  1.5547
12324SOL     OW49030   5.956   7.923   3.534  0.2763 -0.1684 -0.2015
12324SOL    HW149031   5.911   7.866   3.603 -0.0373 -0.1210 -0.3650
12324SOL    HW249032   5.932   7.891   3.443  0.0606  0.2550 -0.2947
12325SOL     OW49033   2.043   7.783   2.785 -0.1948 -0.4231  0.0037
12325SOL    HW149034   2.051   7.871   2.832  1.6914 -0.3700 -0.3851
12325SOL    HW249035   1.962   7.735   2.817 -0.2119  0.6450  1.5842
12326SOL     OW49036   4.795   5.239   1.449  0.5007  0.2266 -0.1892
12326SOL    HW149037   4.779   5.280   1.539  0.0144  0.4314 -0.3710
12326SOL    HW249038   4.716   5.183   1.423  1.6193 -1.7578  0.5698
12327SOL     OW49039   1.386   7.204   4.118 -0.5270 -0.3155 -0.4540
12327SOL    HW149040   1.331   7.121   4.113 -0.6601 -0.1035 -3.0237
12327SOL    HW249041   1.328   7.282   4.144 -0.7368 -0.7066  0.2584
12328SOL     OW49042   6.053   2.378   4.930  0.0514 -0.0488 -0.1876
12328SOL    HW149043   5.984   2.429   4.981  0.6483  0.4786  0.1091
12328SOL    HW249044   6.032   2.280   4.933 -1.7105  0.2560 -1.6709
12329SOL     OW49045   0.320   2.777   2.276  0.2056 -0.6006 -0.6150
12329SOL    HW149046   0.293   2.831   2.356  1.2150  0.3029 -0.8703
12329SOL    HW249047   0.320   2.680   2.299  1.0858 -0.3104  0.6682
12330SOL     OW49048   2.563   3.419   6.482  0.6242  0.1292  0.1215
12330SOL    HW149049   2.619   3.422   6.400  1.0168  0.8621  0.4157
12330SOL    HW249050   2.542   3.324   6.504  1.4282 -0.1268 -0.2056
12331SOL     OW49051   9.325   9.575   5.671  0.0021 -0.0946 -0.0848
12331SOL    HW149052   9.379   9.519   5.608  0.3386  0.8671 -0.6656
12331SOL    HW249053   9.384   9.611   5.743 -0.0878  0.0048 -0.0603
12332SOL     OW49054   3.578   4.872   6.516 -0.6496  0.3610  0.7391
12332SOL    HW149055   3.637   4.916   6.448  0.5292  0.1647  1.6255
12332SOL    HW249056   3.579   4.773   6.501 -1.3841  0.4237  0.2618
12333SOL     OW49057   4.888   9.518   6.983  0.2839  0.4410  0.3424
12333SOL    HW149058   4.811   9.458   6.964 -0.2440  0.7576  1.4678
12333SOL    HW249059   4.930   9.493   7.070 -0.6301  2.3783  1.3713
12334SOL     OW49060   1.763   0.374   5.037  1.0376 -0.5044  0.5074
12334SOL    HW149061   1.821   0.318   5.096 -0.1402 -1.7280  0.5252
12334SOL    HW249062   1.818   0.415   4.965  2.0573 -0.9667  1.0127
12335SOL     OW49063   7.911   2.353   9.209 -0.4507 -0.5320 -0.0714
12335SOL    HW149064   7.875   2.382   9.120  0.4781 -0.4013 -0.4139
12335SOL    HW249065   7.877   2.415   9.280 -0.9655 -0.4603 -0.3762
12336SOL     OW49066   0.020   2.989   6.462 -0.2104 -0.1979  0.3024
12336SOL    HW149067   0.030   2.907   6.518  0.8233 -0.1621  0.1798
12336SOL    HW249068   0.110   3.022   6.435 -0.6500  0.5775 -0.2369
12337SOL     OW49069   3.115   6.140   9.391  0.0021 -0.4618 -0.1500
12337SOL    HW149070   3.190   6.166   9.451  0.1350 -1.2503  0.0228
12337SOL    HW249071   3.096   6.042   9.399 -1.9093 -0.0505  0.7708
12338SOL     OW49072   2.239   1.991   1.869 -0.3540 -0.1439 -0.5784
12338SOL    HW149073   2.310   2.031   1.811 -1.7838  0.6517 -1.8196
12338SOL    HW249074   2.193   2.065   1.920  0.7050 -0.8020  1.3884
12339SOL     OW49075   1.537   2.014   1.757 -0.3179  0.5119  0.4664
12339SOL    HW149076   1.514   2.013   1.855 -0.7545  1.9341  0.3830
12339SOL    HW249077   1.570   2.105   1.731  0.8712 -0.1702 -0.4746
12340SOL     OW49078   0.610   5.071   8.115  0.3335 -0.1213 -0.7466
12340SOL    HW149079   0.599   5.045   8.211 -1.0818  0.1183 -0.8351
12340SOL    HW249080   0.666   5.002   8.068 -0.4092 -1.1438 -0.1530
12341SOL     OW49081   1.370   4.557   1.913 -0.0440  0.5217 -0.0273
12341SOL    HW149082   1.301   4.545   1.985  0.6581  1.0304  0.7370
12341SOL    HW249083   1.453   4.507   1.938  0.2559  0.8277 -0.4104
12342SOL     OW49084   4.135   3.362   4.224 -0.1210  0.3091  0.0081
12342SOL    HW149085   4.048   3.313   4.217  0.5462 -0.9898  0.6832
12342SOL    HW249086   4.135   3.420   4.305  0.5492 -1.5391  1.3514
12343SOL     OW49087   8.363   7.284   8.453  0.6385  0.1344  0.5018
12343SOL    HW149088   8.392   7.377   8.477 -0.5170  0.5573  0.3073
12343SOL    HW249089   8.312   7.244   8.530 -1.3838  0.7676 -0.4666
12344SOL     OW49090   7.307   3.298   8.655 -0.4996  0.1485 -0.1759
12344SOL    HW149091   7.326   3.232   8.581 -0.2204 -1.2957  1.1654
12344SOL    HW249092   7.384   3.298   8.719 -1.4225  0.2602  0.9368
12345SOL     OW49093   5.404   5.283   8.226  0.1151 -0.0816  0.0353
12345SOL    HW149094   5.324   5.339   8.248 -0.1846 -0.6675  0.4469
12345SOL    HW249095   5.484   5.319   8.275 -0.1272 -0.1593  0.4962
12346SOL     OW49096   2.571   5.225   4.988  0.5280  0.4179  0.5242
12346SOL    HW149097   2.564   5.198   4.892  1.0794  0.1902  0.5489
12346SOL    HW249098   2.543   5.321   4.998  0.1022  0.3286  0.1968
12347SOL     OW49099   1.317   4.073   6.442  0.0240 -0.1972  0.2465
12347SOL    HW149100   1.273   4.117   6.521 -0.6637 -0.7213  0.1610
12347SOL    HW249101   1.385   4.135   6.404 -0.1227  0.3379  0.8327
12348SOL     OW49102   0.448   8.944   0.170 -0.4523  0.7353 -0.0441
12348SOL    HW149103   0.402   9.021   0.214  1.9668  2.1253  0.1554
12348SOL    HW249104   0.442   8.954   0.071 -0.1914  1.1430 -0.0187
12349SOL     OW49105   9.377   2.621   9.281  0.4625 -0.4588  0.0851
12349SOL    HW149106   9.415   2.704   9.239  1.6413 -0.5350  0.9806
12349SOL    HW249107   9.367   2.550   9.211 -0.7725  0.4831 -0.7435
12350SOL     OW49108   4.361   8.713   6.162 -0.0390  0.1873  0.2621
12350SOL    HW149109   4.390   8.704   6.257 -0.6290  0.1574  0.4410
12350SOL    HW249110   4.339   8.622   6.125 -1.9485  0.4127  0.7819
12351SOL     OW49111   2.463   5.787   5.046  0.0643 -0.1543  0.7803
12351SOL    HW149112   2.394   5.801   4.975  1.4108  1.5744 -0.2167
12351SOL    HW249113   2.420   5.793   5.136 -1.5675 -1.8846  0.1438
12352SOL     OW49114   9.279   2.943   0.787 -0.5431 -0.2852 -0.1112
12352SOL    HW149115   9.259   2.848   0.763 -2.0411  0.2201 -0.8951
12352SOL    HW249116   9.331   2.945   0.872  2.2137 -1.9478 -1.6875
12353SOL     OW49117   8.590   2.387   8.064 -0.1124  0.8240 -0.7628
12353SOL    HW149118   8.544   2.300   8.082  1.0122  0.2356 -0.7395
12353SOL    HW249119   8.642   2.380   7.979  1.2251  0.9732  0.0340
12354SOL     OW49120   0.169   9.066   3.443  0.2393  0.5638  0.1707
12354SOL    HW149121   0.161   9.105   3.535 -0.5930  1.5313 -0.3032
12354SOL    HW249122   0.212   9.133   3.383  0.7398 -0.0514 -0.1599
12355SOL     OW49123   5.027   7.572   2.132 -0.5051  0.4689 -0.4140
12355SOL    HW149124   4.981   7.490   2.166  1.7836 -0.9680 -0.6956
12355SOL    HW249125   5.002   7.588   2.037  0.7546 -1.2229 -1.0623
12356SOL     OW49126   8.898   7.261   9.416  0.6770  0.0406  0.0891
12356SOL    HW149127   8.938   7.170   9.430 -0.2166 -0.5225 -0.9669
12356SOL    HW249128   8.822   7.274   9.479  2.3245  1.0374  1.9620
12357SOL     OW49129   0.699   3.567   3.235 -0.6544 -0.6202 -0.2637
12357SOL    HW149130   0.693   3.566   3.135  1.5297 -0.8588 -0.4195
12357SOL    HW249131   0.721   3.660   3.266  1.7992 -1.1455 -0.2696
12358SOL     OW49132   2.209   5.500   7.852  0.3844 -0.7349 -0.2972
12358SOL    HW149133   2.155   5.436   7.798 -1.1572  0.7825 -0.5807
12358SOL    HW249134   2.161   5.521   7.937  1.5139 -0.9775  0.4178
12359SOL     OW49135   0.566   8.749   3.441 -0.1435  0.0115  0.2822
12359SOL    HW149136   0.518   8.835   3.455 -2.9434 -1.6714  1.5959
12359SOL    HW249137   0.519   8.696   3.371  0.0890 -1.4439  1.1970
12360SOL     OW49138   9.888   9.311   0.152  0.1164  0.2023 -0.7611
12360SOL    HW149139   9.791   9.339   0.151  0.0007 -0.0376  1.5392
12360SOL    HW249140   9.944   9.387   0.121 -0.6728  0.9767 -0.3187
12361SOL     OW49141   5.117   0.938   8.618  0.6537 -0.6956  0.1642
12361SOL    HW149142   5.150   0.938   8.523  1.3845  1.0622  0.3987
12361SOL    HW249143   5.182   0.988   8.675 -0.0477 -1.3013  1.5133
12362SOL     OW49144   0.384   3.550   7.552  0.1388  0.1099  0.6684
12362SOL    HW149145   0.405   3.461   7.592  1.2706  0.9106  1.8721
12362SOL    HW249146   0.375   3.541   7.453  0.5717 -1.2777  0.7539
12363SOL     OW49147   0.538   3.529   8.336  0.1125  0.1933  0.6557
12363SOL    HW149148   0.516   3.450   8.279  0.9776  0.9850 -0.8148
12363SOL    HW249149   0.612   3.504   8.400  1.7548  0.3464 -1.1404
12364SOL     OW49150   3.444   1.823   0.146  0.3286  0.7444 -0.6008
12364SOL    HW149151   3.400   1.908   0.174  0.0690  0.7397 -0.9941
12364SOL    HW249152   3.396   1.746   0.188  1.0287  0.8269  0.3686
12365SOL     OW49153   3.575   9.849   3.016  0.0589 -0.2877  0.3263
12365SOL    HW149154   3.666   9.836   3.054  0.7884 -1.2844 -1.6798
12365SOL    HW249155   3.582   9.898   2.929 -1.3343 -0.3059  0.1905
12366SOL     OW49156   3.133   5.534   8.456 -0.9342 -0.4531 -0.3548
12366SOL    HW149157   3.057   5.568   8.400  0.2446  1.2356 -0.9488
12366SOL    HW249158   3.109   5.541   8.553 -1.5993 -0.1002 -0.5465
12367SOL     OW49159   2.743   9.606   6.244  0.3803  0.0170  0.3122
12367SOL    HW149160   2.657   9.627   6.291  0.0136 -0.9702  0.1059
12367SOL    HW249161   2.785   9.691   6.212  0.4108  0.6599  2.0134
12368SOL     OW49162   0.636   6.733   6.391 -0.2758  0.1438  0.3970
12368SOL    HW149163   0.710   6.700   6.449 -1.2792 -0.2873  1.4545
12368SOL    HW249164   0.587   6.806   6.439 -0.3389  0.6410 -0.4235
12369SOL     OW49165   6.113   3.370   2.840 -0.0511  0.1810 -0.0094
12369SOL    HW149166   6.070   3.384   2.930  0.1878  1.3225 -0.0650
12369SOL    HW249167   6.100   3.275   2.811  0.2317 -0.3035  1.4204
12370SOL     OW49168   5.689   6.073   8.781  0.7706  0.0947  1.3681
12370SOL    HW149169   5.750   6.025   8.717  1.7433  1.2579  1.4039
12370SOL    HW249170   5.617   6.011   8.811 -0.1050 -0.2858 -1.3937
12371SOL     OW49171   9.275   9.165   6.839  0.3946  0.2594 -0.3994
12371SOL    HW149172   9.340   9.190   6.768  0.6232 -1.7366 -0.9188
12371SOL    HW249173   9.320   9.168   6.929  1.1604 -0.9410 -0.7356
12372SOL     OW49174   7.921   9.701   3.511 -0.0154 -0.2149 -0.7218
12372SOL    HW149175   7.960   9.612   3.489 -0.5251 -0.9753  1.3895
12372SOL    HW249176   7.831   9.709   3.469 -0.0746 -0.7768 -0.6993
12373SOL     OW49177   2.360   1.852   2.069  0.0482 -0.2850 -0.1572
12373SOL    HW149178   2.341   1.756   2.047  1.4075 -0.1123 -2.2082
12373SOL    HW249179   2.325   1.911   1.996  2.1831  0.5156 -0.5740
12374SOL     OW49180   2.195   3.616   9.770 -0.0678  0.5622  0.1368
12374SOL    HW149181   2.231   3.588   9.682  2.0687  1.5755  0.6528
12374SOL    HW249182   2.159   3.537   9.819 -1.0812 -0.0352 -1.5338
12375SOL     OW49183   1.339   9.712   1.771  0.3112  0.1251  0.5805
12375SOL    HW149184   1.430   9.673   1.779  0.2747  0.1879  1.2966
12375SOL    HW249185   1.346   9.808   1.742  0.4175 -0.2389 -0.6546
12376SOL     OW49186   3.770   6.086   4.328 -0.1372 -0.1452 -0.1711
12376SOL    HW149187   3.865   6.054   4.336 -0.0112  0.0830 -0.6987
12376SOL    HW249188   3.764   6.181   4.359  0.0038  0.1556 -1.0272
12377SOL     OW49189   9.977   6.774   3.518  0.0535  0.1373 -0.6033
12377SOL    HW149190   9.902   6.725   3.473 -0.0974  0.6850 -0.9514
12377SOL    HW249191   9.943   6.859   3.558  1.0043  1.7777 -3.1694
12378SOL     OW49192   4.257   8.938   6.734  0.6368 -0.3592  0.3726
12378SOL    HW149193   4.186   8.993   6.689  1.0830 -0.3535 -0.3281
12378SOL    HW249194   4.305   8.995   6.800  0.3531 -0.2128  0.4576
12379SOL     OW49195   2.330   0.935   9.145  0.4795  0.0311 -0.2252
12379SOL    HW149196   2.391   0.905   9.071 -1.2338 -1.1251 -1.1857
12379SOL    HW249197   2.241   0.891   9.135 -0.9516  2.7148  0.4086
12380SOL     OW49198   1.320   5.904   0.086  0.5403  0.8032 -0.2093
12380SOL    HW149199   1.368   5.984   0.052  3.1559 -0.1962  1.0318
12380SOL    HW249200   1.320   5.904   0.186 -1.3675  0.3790 -0.1942
12381SOL     OW49201   5.153   9.496   8.443  0.0794 -0.2292  0.5569
12381SOL    HW149202   5.207   9.537   8.516  1.2117 -0.6707 -0.0308
12381SOL    HW249203   5.156   9.396   8.451 -2.1864 -0.2396  1.6385
12382SOL     OW49204   0.321   8.253   1.919  0.2792 -0.0323  0.1264
12382SOL    HW149205   0.304   8.163   1.878 -0.7392  0.5014 -0.6557
12382SOL    HW249206   0.250   8.317   1.889  0.0738  0.6214  1.9879
12383SOL     OW49207   8.664   7.859   3.173  0.4091  0.0395 -0.4428
12383SOL    HW149208   8.727   7.912   3.230  0.0477  0.4775 -0.4550
12383SOL    HW249209   8.709   7.837   3.086  0.2108  1.1576 -0.8310
12384SOL     OW49210   4.901   8.934   9.808  0.1871 -0.2429 -0.2476
12384SOL    HW149211   4.981   8.902   9.758  0.0152 -1.2419  0.1043
12384SOL    HW249212   4.828   8.866   9.801 -1.4942  1.6696 -2.5805
12385SOL     OW49213   1.041   6.496   6.499 -0.2316 -0.1071 -0.4244
12385SOL    HW149214   0.992   6.471   6.416  0.6156  0.8564 -1.2227
12385SOL    HW249215   1.026   6.426   6.569 -1.0951 -0.8306 -1.3234
12386SOL     OW49216   0.872   0.280   2.772 -0.0613 -0.3087  0.1422
12386SOL    HW149217   0.970   0.266   2.782 -0.1905 -0.3785  1.4365
12386SOL    HW249218   0.837   0.220   2.700  0.8365 -0.3037 -0.3006
12387SOL     OW49219   1.409   1.575   6.056  0.1966  0.3182 -0.5555
12387SOL    HW149220   1.407   1.505   5.985 -0.3405  0.0039 -0.2338
12387SOL    HW249221   1.325   1.630   6.051 -0.3137 -0.3588  0.4816
12388SOL     OW49222   5.281   0.696   7.399 -0.1621 -0.0197 -0.5348
12388SOL    HW149223   5.368   0.672   7.357  0.6754  1.2289  0.4589
12388SOL    HW249224   5.230   0.757   7.338  1.4807  2.5902  0.6208
12389SOL     OW49225   6.448   6.143   0.708 -0.0948 -0.0243 -0.2034
12389SOL    HW149226   6.493   6.230   0.689 -1.3340  0.6775 -0.0121
12389SOL    HW249227   6.515   6.077   0.742  0.6309  1.2458  0.8726
12390SOL     OW49228   9.574   6.780   5.799 -0.7639  0.2741 -0.0984
12390SOL    HW149229   9.653   6.765   5.858 -0.4153  0.4252 -0.5293
12390SOL    HW249230   9.547   6.876   5.804  0.1164  0.5841 -1.2513
12391SOL     OW49231   7.335   6.360   8.066 -0.4431 -0.3235  0.0777
12391SOL    HW149232   7.313   6.310   7.983 -1.2518  0.1929 -0.0252
12391SOL    HW249233   7.335   6.458   8.048  2.5783 -0.3163 -0.0596
12392SOL     OW49234   8.691   8.181   7.371  0.7876  0.2315  0.0123
12392SOL    HW149235   8.675   8.270   7.413  2.1223 -0.4178  1.9616
12392SOL    HW249236   8.783   8.179   7.331  0.1482  0.2705 -1.4947
12393SOL     OW49237   6.108   8.584   7.071  0.5421  0.8145  0.3452
12393SOL    HW149238   6.068   8.642   7.000 -0.6510  0.3799  0.6369
12393SOL    HW249239   6.053   8.501   7.080  0.0781  1.3309  2.4766
12394SOL     OW49240   0.281   3.975   5.009 -0.1150 -0.3522 -0.2044
12394SOL    HW149241   0.347   3.990   5.083  1.7955 -0.6709 -1.7974
12394SOL    HW249242   0.253   3.879   5.009 -1.8112  0.1237  1.4521
12395SOL     OW49243   1.393   9.151   1.615 -0.2881 -0.7289 -0.7029
12395SOL    HW149244   1.393   9.082   1.687 -0.5599  0.3886  0.3985
12395SOL    HW249245   1.385   9.242   1.656  0.2582 -0.0225 -2.1082
12396SOL     OW49246   7.053   2.710   9.043 -0.5387 -0.0965 -0.1517
12396SOL    HW149247   7.148   2.681   9.045 -0.8496 -1.0220  1.6232
12396SOL    HW249248   6.995   2.634   9.014 -1.1817 -0.8758  2.9836
12397SOL     OW49249   4.841   4.352   1.276 -0.4395  0.6433 -0.4799
12397SOL    HW149250   4.791   4.334   1.191 -2.4057 -1.2971  1.0472
12397SOL    HW249251   4.900   4.274   1.297 -0.2095  0.9782  0.1207
12398SOL     OW49252   7.435   4.709   7.710 -0.1842 -1.0249  0.3632
12398SOL    HW149253   7.381   4.654   7.772 -2.3164 -0.1772 -0.6852
12398SOL    HW249254   7.428   4.806   7.736  2.6892 -1.1048  1.5777
12399SOL     OW49255   9.494   6.026   2.359  0.3219 -0.0230  0.2050
12399SOL    HW149256   9.482   6.043   2.261 -2.2789  2.1122  0.8256
12399SOL    HW249257   9.576   6.074   2.391  0.1546  0.8197 -0.5862
12400SOL     OW49258   6.458   2.326   2.454  0.1110  0.3460  0.0395
12400SOL    HW149259   6.471   2.261   2.529  1.1554  0.1592 -0.2988
12400SOL    HW249260   6.505   2.293   2.372  0.2543  1.2946 -0.2697
12401SOL     OW49261   1.229   8.144   8.467 -0.1354 -0.2591 -0.9882
12401SOL    HW149262   1.274   8.056   8.480  1.2465  0.7760  1.6588
12401SOL    HW249263   1.143   8.145   8.518  0.7704  0.5370  0.5825
12402SOL     OW49264   0.788   4.885   6.009 -0.3908 -0.2931 -0.1416
12402SOL    HW149265   0.822   4.958   6.068 -2.9695 -0.3132  1.4340
12402SOL    HW249266   0.716   4.921   5.950 -0.7514 -1.2461 -0.2969
12403SOL     OW49267   5.116   3.043   9.964 -0.3206 -1.1137  0.2110
12403SOL    HW149268   5.074   3.117   9.912  0.5979 -0.2703  0.6601
12403SOL    HW249269   5.045   2.994  10.015 -0.6580  1.0285  1.8882
12404SOL     OW49270   5.857   6.549   1.341 -0.9281 -0.2046 -0.5336
12404SOL    HW149271   5.934   6.571   1.402 -0.0688 -2.6250 -0.6796
12404SOL    HW249272   5.780   6.609   1.362 -0.2280 -0.1353  2.0858
12405SOL     OW49273   4.900   6.509   2.332 -0.0973 -0.0404  0.0633
12405SOL    HW149274   4.847   6.590   2.305 -0.2958  0.2027  1.1528
12405SOL    HW249275   4.998   6.531   2.328 -0.0585 -0.4702 -1.8831
12406SOL     OW49276   9.046   9.273   7.868 -0.1139  0.2612  0.0735
12406SOL    HW149277   8.959   9.226   7.887  1.1863 -2.7499 -1.0735
12406SOL    HW249278   9.056   9.284   7.769  0.8442  0.4847  0.1977
12407SOL     OW49279   0.183   4.325   2.086 -0.4363 -0.1579 -0.1843
12407SOL    HW149280   0.135   4.246   2.123 -0.4269  0.3261  0.8668
12407SOL    HW249281   0.155   4.408   2.135  0.9532  0.2228 -0.0226
12408SOL     OW49282   0.531   9.006   4.468  0.8098  0.2447 -0.0234
12408SOL    HW149283   0.615   8.964   4.505  0.5701 -0.2093  0.0095
12408SOL    HW249284   0.470   8.934   4.435  1.6058  0.7022 -2.6073
12409SOL     OW49285   6.646   4.675   1.751  0.6971  0.6857 -0.4167
12409SOL    HW149286   6.568   4.651   1.809 -0.5821  3.8463 -0.7216
12409SOL    HW249287   6.727   4.687   1.808  0.6600 -1.2155  0.0728
12410SOL     OW49288   1.182   4.233   2.262  0.0865  0.2133  0.1016
12410SOL    HW149289   1.274   4.214   2.296 -0.4688  0.2775  1.7129
12410SOL    HW249290   1.187   4.295   2.184  1.6453 -2.7439 -2.2566
12411SOL     OW49291   9.728   9.755   1.727 -0.1516  0.1215  0.2841
12411SOL    HW149292   9.723   9.824   1.799  0.5707  0.4926 -0.0193
12411SOL    HW249293   9.778   9.675   1.760  0.7078  0.5374  0.0056
12412SOL     OW49294   0.954   7.870   2.209  0.7050  0.9900  0.8068
12412SOL    HW149295   1.031   7.874   2.272 -0.6441  3.0410  2.3985
12412SOL    HW249296   0.959   7.946   2.145  0.2046  0.9433  0.7086
12413SOL     OW49297   2.219   6.622   2.878  0.0081 -0.4075  0.0115
12413SOL    HW149298   2.304   6.596   2.833 -0.1692 -1.1151  0.0743
12413SOL    HW249299   2.151   6.647   2.809  0.6038  1.2386  0.0030
12414SOL     OW49300   4.199   7.897   2.662  0.1791 -0.3535  0.9386
12414SOL    HW149301   4.153   7.929   2.745  0.0716 -0.4974  0.9359
12414SOL    HW249302   4.297   7.916   2.669 -0.0291  0.9519  0.4624
12415SOL     OW49303   2.290   4.912   3.053 -0.1668 -0.0522 -0.1652
12415SOL    HW149304   2.278   4.967   2.970  1.0999  1.0013  0.3289
12415SOL    HW249305   2.379   4.866   3.050  0.2825  0.7095  0.9957
12416SOL     OW49306   6.847   1.062   3.933  0.2131  0.2641 -0.0371
12416SOL    HW149307   6.889   1.091   3.847 -0.7239  1.3614 -0.1439
12416SOL    HW249308   6.817   1.143   3.983  1.4093 -0.3326  1.6701
12417SOL     OW49309   6.943   9.870   6.548  0.4827 -0.4362 -0.6527
12417SOL    HW149310   6.855   9.829   6.573  0.4538  1.2055  2.1076
12417SOL    HW249311   6.930   9.967   6.527  1.9746  0.4863  2.3755
12418SOL     OW49312   8.472   9.995   1.248 -0.2687 -0.2548 -0.2206
12418SOL    HW149313   8.466   9.907   1.295  1.1065 -0.3215 -0.1507
12418SOL    HW249314   8.558  10.001   1.198 -0.3083  1.0806 -0.1654
12419SOL     OW49315   0.430   3.020   0.272  0.0847 -0.1736  0.8241
12419SOL    HW149316   0.442   3.101   0.216 -2.1133  0.3893  1.1026
12419SOL    HW249317   0.399   2.944   0.215  1.6459 -0.6841  0.6468
12420SOL     OW49318   1.623   1.199   3.124 -0.0007 -0.7964 -0.2158
12420SOL    HW149319   1.662   1.186   3.215  1.9095 -1.6059 -1.1181
12420SOL    HW249320   1.580   1.114   3.094  0.3731 -0.8745 -0.5294
12421SOL     OW49321   7.412   6.848   2.961 -0.0065 -0.1728 -0.1413
12421SOL    HW149322   7.405   6.755   2.998 -2.2881  0.2206  0.4494
12421SOL    HW249323   7.424   6.844   2.862 -0.0168 -1.0896 -0.1096
12422SOL     OW49324   2.840   4.026   4.656  0.1477 -0.3875  0.8750
12422SOL    HW149325   2.808   4.119   4.676  1.1765 -0.5093  3.4043
12422SOL    HW249326   2.901   4.028   4.577 -1.2172  0.7889 -0.1816
12423SOL     OW49327   9.213   3.408   8.240 -0.3411  0.0383  0.3129
12423SOL    HW149328   9.115   3.398   8.225 -0.1343 -2.2320  0.2152
12423SOL    HW249329   9.259   3.428   8.153 -0.8531  2.5581  0.5951
12424SOL     OW49330   3.083   1.713   8.258  0.2621  0.4033 -0.4098
12424SOL    HW149331   3.053   1.628   8.215  0.8678 -0.6389  1.1713
12424SOL    HW249332   3.007   1.779   8.257 -1.0172 -1.0055  0.4776
12425SOL     OW49333   4.812   8.107   1.669  0.1279  0.2819 -0.3478
12425SOL    HW149334   4.849   8.054   1.746  2.6932  1.3773 -0.8118
12425SOL    HW249335   4.780   8.044   1.598 -2.1239 -0.7413  1.5087
12426SOL     OW49336   3.412   9.665   2.005  0.0958  0.4173 -0.0543
12426SOL    HW149337   3.486   9.684   2.070  0.3035 -0.6860  0.0336
12426SOL    HW249338   3.324   9.677   2.050  0.2413 -1.4212  0.7479
12427SOL     OW49339   0.455   6.297   8.917 -0.5870  0.5389 -0.4369
12427SOL    HW149340   0.552   6.319   8.901 -0.7004  0.2844 -1.5288
12427SOL    HW249341   0.440   6.282   9.014  0.8956 -1.3740 -0.4742
12428SOL     OW49342   4.832   5.406   2.699 -0.0473  0.2920  0.3355
12428SOL    HW149343   4.885   5.338   2.750  1.5210  1.0267 -0.2869
12428SOL    HW249344   4.894   5.465   2.647 -1.4315  1.7259  0.2689
12429SOL     OW49345   7.341   0.862   7.922  0.0932  0.0303 -0.3285
12429SOL    HW149346   7.301   0.788   7.867 -1.4412  0.9224 -0.4327
12429SOL    HW249347   7.309   0.854   8.017  0.8940 -0.1426 -0.0678
12430SOL     OW49348   4.666   8.378   6.164 -0.9868  0.1252  0.1528
12430SOL    HW149349   4.719   8.370   6.249 -0.7703  1.0707  0.1135
12430SOL    HW249350   4.695   8.306   6.100  1.8622  1.9823 -0.7241
12431SOL     OW49351   5.508   8.502   7.663  0.1329  0.2568 -0.1027
12431SOL    HW149352   5.442   8.428   7.650 -0.5848  0.9864 -0.7300
12431SOL    HW249353   5.459   8.587   7.682  0.8713  0.9112 -1.0662
12432SOL     OW49354   1.421   0.439   8.721 -0.6528 -0.0756 -0.3410
12432SOL    HW149355   1.478   0.520   8.710 -0.0413 -0.7324 -2.1540
12432SOL    HW249356   1.375   0.443   8.810  1.3694  0.9886  0.7112
12433SOL     OW49357   4.688   9.936   6.894  0.2303 -0.2185 -0.1064
12433SOL    HW149358   4.632   9.933   6.811  1.6685 -0.8895 -1.0776
12433SOL    HW249359   4.773   9.887   6.878  0.2955 -0.8260  1.9614
12434SOL     OW49360   0.455   0.389   2.019 -0.0371 -0.3380 -0.2565
12434SOL    HW149361   0.415   0.338   1.942  1.3056  0.0351 -1.2112
12434SOL    HW249362   0.508   0.326   2.077 -0.9226 -0.5898  0.2920
12435SOL     OW49363   3.978   2.125   1.877  0.1006 -0.4274 -0.1015
12435SOL    HW149364   4.021   2.130   1.967  0.0185  1.1147 -0.1380
12435SOL    HW249365   3.884   2.158   1.883  0.2704  0.1952 -0.8623
12436SOL     OW49366   8.854   3.930   3.683 -0.1425 -0.5279 -0.8805
12436SOL    HW149367   8.824   3.861   3.618  2.0832 -0.4125 -2.0530
12436SOL    HW249368   8.774   3.982   3.715 -1.6154 -2.4558 -1.2903
12437SOL     OW49369   8.930   5.690   0.795 -0.5169  0.3419  0.3680
12437SOL    HW149370   9.022   5.653   0.807 -0.4845  0.8850  1.9454
12437SOL    HW249371   8.918   5.770   0.854 -1.5473  1.1013 -0.8434
12438SOL     OW49372   3.607   6.422   8.079  0.5566 -0.1791 -0.0011
12438SOL    HW149373   3.570   6.341   8.125 -1.5158  0.4216 -0.5543
12438SOL    HW249374   3.666   6.395   8.004  0.2920 -1.1867  0.1536
12439SOL     OW49375   8.794   5.073   0.920  0.1215  0.4408  0.0981
12439SOL    HW149376   8.781   5.094   1.016  1.2964 -0.5111  0.4712
12439SOL    HW249377   8.885   5.103   0.890  0.4936 -0.9520 -0.2222
12440SOL     OW49378   4.710   7.996   1.419 -0.3369 -0.3989  0.0140
12440SOL    HW149379   4.682   8.065   1.352 -0.1604 -0.2405  0.1020
12440SOL    HW249380   4.645   7.921   1.419  0.1514 -0.8339 -0.9901
12441SOL     OW49381   1.416   1.615   1.701 -0.7958  0.2398 -0.1345
12441SOL    HW149382   1.513   1.629   1.678 -0.9084  0.9218 -0.1987
12441SOL    HW249383   1.368   1.577   1.622 -0.8379  1.0413 -0.4894
12442SOL     OW49384   8.448   7.558   8.405  0.3665  0.0950 -0.1041
12442SOL    HW149385   8.441   7.652   8.371  1.3924 -0.2923 -1.4649
12442SOL    HW249386   8.526   7.550   8.467 -0.5976  0.4642  1.1609
12443SOL     OW49387   8.923   8.065   9.089 -0.6647  0.7059 -0.3709
12443SOL    HW149388   8.911   8.149   9.142  1.3388  0.4843  0.4966
12443SOL    HW249389   8.998   8.011   9.129 -0.0634 -0.1509 -2.5755
12444SOL     OW49390   1.169   3.276   1.724  0.1718 -0.1692 -0.3584
12444SOL    HW149391   1.171   3.177   1.712 -0.0672 -0.3641  1.0492
12444SOL    HW249392   1.076   3.310   1.707 -0.1795 -0.4493  0.9069
12445SOL     OW49393   5.693   9.818   3.193 -0.0783 -0.3641  0.1168
12445SOL    HW149394   5.715   9.905   3.148 -4.3555 -0.3766 -2.2519
12445SOL    HW249395   5.735   9.743   3.143 -0.5288 -0.0071 -0.8046
12446SOL     OW49396   6.810   0.716   0.891 -0.2319 -0.2758  0.1394
12446SOL    HW149397   6.898   0.731   0.845 -0.7329  0.4953 -0.5638
12446SOL    HW249398   6.766   0.804   0.910 -1.2833 -0.6920 -0.3383
12447SOL     OW49399   9.091   0.588   3.136 -0.0307  0.2796  0.4191
12447SOL    HW149400   9.112   0.659   3.069  0.9715 -1.7563 -1.4637
12447SOL    HW249401   9.005   0.543   3.111  0.3512 -0.4881  0.4890
12448SOL     OW49402   5.795   1.501   3.817  0.1332 -0.0558  0.0106
12448SOL    HW149403   5.827   1.423   3.763 -3.3816 -1.7768  0.3118
12448SOL    HW249404   5.775   1.577   3.756 -0.6994 -0.9014 -0.7953
12449SOL     OW49405   7.128   9.890   9.101 -0.1310  0.1656 -0.6930
12449SOL    HW149406   7.169   9.799   9.111 -0.1333  0.1315 -1.0011
12449SOL    HW249407   7.192   9.950   9.053  0.4757  0.7389  0.7969
12450SOL     OW49408   3.433   3.234   4.444  0.0432 -0.1414 -0.5277
12450SOL    HW149409   3.346   3.280   4.425  0.5341  0.7497 -0.6435
12450SOL    HW249410   3.492   3.239   4.363  1.1626  1.4703  0.3388
12451SOL     OW49411   9.590   8.137   8.212  0.0962 -0.2158 -0.0004
12451SOL    HW149412   9.687   8.162   8.206 -0.2006  0.9822  0.1019
12451SOL    HW249413   9.578   8.069   8.284  0.9801 -0.9850 -0.5626
12452SOL     OW49414   6.575   4.856   9.754  0.3708 -0.2274 -0.4508
12452SOL    HW149415   6.612   4.938   9.710 -0.6735  0.8215  0.5923
12452SOL    HW249416   6.626   4.776   9.722  2.6798  1.0276 -0.0650
12453SOL     OW49417   4.409   9.584   4.961  0.0695  0.2143 -0.5103
12453SOL    HW149418   4.500   9.620   4.939  1.1355 -1.9964  0.0731
12453SOL    HW249419   4.364   9.646   5.025  1.1908  1.3160 -0.7534
12454SOL     OW49420   1.279   8.636   9.530  0.4078  0.1143  0.1629
12454SOL    HW149421   1.263   8.728   9.493 -2.1506 -0.6519 -0.7599
12454SOL    HW249422   1.231   8.626   9.617  0.3039 -0.4970  0.0391
12455SOL     OW49423   9.758   8.242   5.069  0.3101 -0.3854  0.4356
12455SOL    HW149424   9.831   8.306   5.048  0.0126 -0.2064 -0.0442
12455SOL    HW249425   9.796   8.150   5.077  0.4976 -0.3769 -0.3681
12456SOL     OW49426   6.665   2.962   0.044 -0.0833  0.0025 -0.3362
12456SOL    HW149427   6.639   3.004   0.131 -2.8578 -1.0272 -0.6215
12456SOL    HW249428   6.736   2.892   0.060  0.0227  0.3985  0.9612
12457SOL     OW49429   1.316   1.671   6.941  0.3717 -0.1435 -0.3792
12457SOL    HW149430   1.304   1.572   6.927  1.0135 -0.2811  0.0157
12457SOL    HW249431   1.372   1.708   6.867 -0.4694  0.0632 -0.9225
12458SOL     OW49432   7.220   1.284   0.955  0.8918 -0.2930  0.0405
12458SOL    HW149433   7.162   1.301   1.035  0.6068 -0.6271 -0.0914
12458SOL    HW249434   7.316   1.283   0.983  0.8668  0.6616  0.1945
12459SOL     OW49435   8.923   8.118   3.234  0.1116 -0.7241 -0.0881
12459SOL    HW149436   8.843   8.174   3.254  1.1831  0.9583 -0.4046
12459SOL    HW249437   8.894   8.024   3.214 -1.9369  0.2392 -1.8707
12460SOL     OW49438   1.519   5.557   1.350 -0.4512  0.1405  0.1604
12460SOL    HW149439   1.420   5.561   1.340 -0.5584 -0.9248  0.6948
12460SOL    HW249440   1.562   5.623   1.288 -1.4873  0.5777 -0.0995
12461SOL     OW49441   8.154   6.353   6.882  0.0937 -0.2159  0.1884
12461SOL    HW149442   8.151   6.386   6.787 -2.4739 -1.4233 -0.1810
12461SOL    HW249443   8.245   6.318   6.902  0.6666  0.0558 -1.8334
12462SOL     OW49444   0.830   4.101   1.508  0.1314 -0.1109  0.3332
12462SOL    HW149445   0.743   4.131   1.469  0.0892  0.3189  0.7524
12462SOL    HW249446   0.860   4.167   1.576 -0.0631 -1.1108  1.4119
12463SOL     OW49447   1.277   7.037   3.656  1.1277  0.8616  0.1425
12463SOL    HW149448   1.305   7.056   3.750 -1.5151  1.0188  0.9185
12463SOL    HW249449   1.254   6.940   3.648  1.5229  0.8123 -0.4077
12464SOL     OW49450   2.393   3.718   2.439 -0.4723  0.3501 -0.0809
12464SOL    HW149451   2.426   3.739   2.347  0.2076 -1.0963 -0.1902
12464SOL    HW249452   2.465   3.671   2.490 -1.7936 -1.4144  0.2129
12465SOL     OW49453   4.690   9.152   1.859 -0.0245  0.3916 -0.1664
12465SOL    HW149454   4.723   9.076   1.803  0.6518  0.8949 -0.4518
12465SOL    HW249455   4.593   9.169   1.838 -0.3404 -0.7692  0.3281
12466SOL     OW49456   8.034   9.438   0.524 -0.3630  0.5552  0.1546
12466SOL    HW149457   7.975   9.452   0.444  0.3291 -1.4601 -0.7496
12466SOL    HW249458   7.980   9.399   0.598 -0.9459  2.1513  0.5817
12467SOL     OW49459   4.255   0.560   1.542  0.3868 -0.1345  0.4812
12467SOL    HW149460   4.320   0.606   1.481  1.0780  0.1126  1.3808
12467SOL    HW249461   4.262   0.600   1.633 -0.0807 -1.0205  0.9055
12468SOL     OW49462   3.473   4.142   5.246  0.2363 -0.3804 -0.5474
12468SOL    HW149463   3.495   4.125   5.341 -0.8744  0.6200 -0.0878
12468SOL    HW249464   3.381   4.108   5.226 -0.2248  0.9694 -0.7860
12469SOL     OW49465   5.655   1.737   2.417 -0.0208 -0.1317  0.1147
12469SOL    HW149466   5.639   1.683   2.335 -2.6309 -0.0233  0.5064
12469SOL    HW249467   5.603   1.698   2.494  0.5720  1.0781  1.1570
12470SOL     OW49468   5.499   3.706   9.662  0.0400  0.2082 -0.0275
12470SOL    HW149469   5.403   3.697   9.637 -0.2392  0.5815  0.8966
12470SOL    HW249470   5.523   3.803   9.664  0.4886  0.1069 -0.4564
12471SOL     OW49471   0.516   0.940   6.585  0.0894  0.4021  0.3047
12471SOL    HW149472   0.468   0.864   6.628 -1.3609  1.8912  1.3738
12471SOL    HW249473   0.585   0.976   6.648  1.1402 -0.3198 -0.3964
12472SOL     OW49474   9.970   9.773   9.043  0.5748  0.0882  0.2234
12472SOL    HW149475  10.003   9.816   8.959  0.0027 -1.2813 -0.7210
12472SOL    HW249476  10.039   9.710   9.078  0.4261 -0.0648  0.2449
12473SOL     OW49477   4.102   9.010   7.798 -0.4323  0.2726  0.4925
12473SOL    HW149478   4.153   8.924   7.804 -0.6675  0.2003  1.5929
12473SOL    HW249479   4.093   9.050   7.889  0.6484  2.0455 -0.1478
12474SOL     OW49480   1.170   3.742   1.466 -0.3598  0.1247 -0.1867
12474SOL    HW149481   1.077   3.777   1.480 -0.4026 -0.2292  0.4163
12474SOL    HW249482   1.190   3.673   1.536  1.6062  2.6326  1.7942
12475SOL     OW49483   1.290   0.445   2.351 -0.1727  0.0568  0.0514
12475SOL    HW149484   1.215   0.379   2.347  1.0539 -1.4087  0.4206
12475SOL    HW249485   1.353   0.418   2.424  1.9767 -0.1353 -1.8389
12476SOL     OW49486   7.520   8.128   4.189  0.1604 -0.3241 -0.0894
12476SOL    HW149487   7.615   8.160   4.183  0.6568 -1.6790  0.3953
12476SOL    HW249488   7.507   8.079   4.275 -1.1150  0.2514  0.0570
12477SOL     OW49489   1.329   9.575   5.375 -0.5079  0.0638  0.0166
12477SOL    HW149490   1.369   9.535   5.457  1.9251  1.7527 -0.3011
12477SOL    HW249491   1.288   9.663   5.397  1.2752  1.1258 -0.7527
12478SOL     OW49492   6.033   4.689   0.301 -0.5963 -0.2298  0.5401
12478SOL    HW149493   6.041   4.754   0.225 -1.6522 -1.6372 -0.7943
12478SOL    HW249494   6.115   4.693   0.357  1.3048 -0.9743 -2.1278
12479SOL     OW49495   3.885   9.140   5.265  0.2527  0.3127  0.2732
12479SOL    HW149496   3.896   9.239   5.261  1.2994  0.2672  1.7225
12479SOL    HW249497   3.948   9.097   5.200  0.0002  0.5809 -0.1510
12480SOL     OW49498   5.396   8.459   3.933  0.3580  0.3584 -0.1227
12480SOL    HW149499   5.348   8.487   4.016 -0.8881 -0.2336 -0.6238
12480SOL    HW249500   5.355   8.505   3.854  0.2929 -0.5433 -0.6145
12481SOL     OW49501   9.019   0.026   6.922 -0.2185  0.5869 -0.1644
12481SOL    HW149502   8.923   0.004   6.910 -0.1201  0.6424 -1.0745
12481SOL    HW249503   9.072  -0.059   6.925  0.0640  0.6389 -2.8560
12482SOL     OW49504   1.138   2.209   6.232 -0.1837 -0.3879 -0.2356
12482SOL    HW149505   1.067   2.219   6.302  1.5261 -0.3407  1.5227
12482SOL    HW249506   1.126   2.280   6.162 -0.6830  0.8543  1.0798
12483SOL     OW49507   2.272   5.984   7.280 -0.2043 -0.1978  0.1387
12483SOL    HW149508   2.370   6.000   7.280  0.0880 -1.9356  0.7204
12483SOL    HW249509   2.228   6.042   7.210  1.2190  0.4938 -0.1934
12484SOL     OW49510   4.625   9.742   1.826 -0.6019 -0.0953  0.1739
12484SOL    HW149511   4.673   9.797   1.894  1.0116 -2.6928  1.1959
12484SOL    HW249512   4.601   9.654   1.865 -2.5672 -0.4243 -1.6498
12485SOL     OW49513   3.630   1.087   4.499 -0.2024  0.0243  0.1736
12485SOL    HW149514   3.570   1.139   4.438 -1.0673 -1.7857 -0.5442
12485SOL    HW249515   3.598   0.992   4.504  2.1477 -0.7778  0.3852
12486SOL     OW49516   8.997   3.082   0.019  0.4094  0.0853 -0.2050
12486SOL    HW149517   8.912   3.121   0.052  1.1673  1.3843  0.2375
12486SOL    HW249518   9.024   3.127  -0.066  0.1516 -1.0071 -0.8780
12487SOL     OW49519   2.196   5.427   8.748 -0.3850 -0.8326 -1.0288
12487SOL    HW149520   2.278   5.484   8.750 -1.2110  0.3510  2.3675
12487SOL    HW249521   2.126   5.471   8.692  0.0019  0.0023 -0.8559
12488SOL     OW49522   6.068   1.288   4.027 -0.5944 -0.4883  0.5463
12488SOL    HW149523   6.155   1.315   4.069 -0.3867  0.0272 -0.2185
12488SOL    HW249524   6.030   1.210   4.076  0.5783 -1.0631  0.5303
12489SOL     OW49525   3.301   4.736   5.659 -0.4360  0.0172 -0.0383
12489SOL    HW149526   3.393   4.700   5.653 -0.1081  0.5645  1.4491
12489SOL    HW249527   3.235   4.661   5.661  0.0311 -0.3945 -0.2319
12490SOL     OW49528   2.471   3.560   8.687  0.9351  0.5611 -0.1297
12490SOL    HW149529   2.500   3.514   8.771  1.9349 -0.3205 -0.9339
12490SOL    HW249530   2.404   3.503   8.639  3.2150 -0.8018 -1.8374
12491SOL     OW49531   3.918   1.938   6.454 -0.0260  0.3827  0.4676
12491SOL    HW149532   3.830   1.948   6.407 -0.0300  1.1189  0.6242
12491SOL    HW249533   3.906   1.961   6.551  0.7147  2.2738  0.1423
12492SOL     OW49534   8.280   7.998   8.665  0.4237 -0.1475 -0.0533
12492SOL    HW149535   8.309   8.002   8.761 -0.6281 -0.9755  0.3088
12492SOL    HW249536   8.192   8.044   8.655  0.4487 -0.2203 -0.5888
12493SOL     OW49537   7.666   8.463   8.643  0.4086 -0.7543 -0.0187
12493SOL    HW149538   7.762   8.439   8.627  0.0393 -1.1774 -1.7202
12493SOL    HW249539   7.659   8.562   8.656  1.0966 -0.7457  0.3428
12494SOL     OW49540   3.809   4.409   5.932 -0.0627  0.9606 -0.0818
12494SOL    HW149541   3.887   4.442   5.879  0.4949  2.7696  1.7894
12494SOL    HW249542   3.842   4.359   6.012 -0.7928  2.4309  1.1564
12495SOL     OW49543   5.372   6.639   3.313 -0.5664  0.7031 -0.2768
12495SOL    HW149544   5.462   6.594   3.307 -1.6644 -1.5314 -0.4940
12495SOL    HW249545   5.373   6.706   3.387  1.0842  0.2490  0.1291
12496SOL     OW49546   0.008   1.007   7.774 -0.4007  0.2909 -0.2951
12496SOL    HW149547  -0.081   0.991   7.733  1.5091 -2.6541 -3.5620
12496SOL    HW249548   0.045   1.094   7.741 -0.8203  0.0938 -1.2976
12497SOL     OW49549   9.982   5.257   5.326 -0.3543  0.3170  0.7517
12497SOL    HW149550  10.026   5.168   5.316  1.4408  1.2157  0.4540
12497SOL    HW249551   9.980   5.283   5.422 -0.1566  0.3199  0.7543
12498SOL     OW49552   8.053   5.668   2.065 -0.1176  0.4853 -0.5856
12498SOL    HW149553   8.086   5.686   1.972 -1.3631 -2.9775 -1.7923
12498SOL    HW249554   7.955   5.649   2.062 -0.0062 -0.4704  1.3372
12499SOL     OW49555   2.497   6.435   5.864 -0.1159  0.1965 -0.2047
12499SOL    HW149556   2.478   6.442   5.767  0.2207  0.8501 -0.2285
12499SOL    HW249557   2.553   6.513   5.893  0.7579 -0.6015  0.2760
12500SOL     OW49558   9.487   2.809   2.558 -0.2714 -0.1384 -0.0598
12500SOL    HW149559   9.549   2.871   2.607 -0.3497 -0.7859  0.8785
12500SOL    HW249560   9.474   2.841   2.465  3.0387 -1.0643 -0.8940
12501SOL     OW49561   8.882   9.915   3.711 -0.1131 -0.1172 -0.1787
12501SOL    HW149562   8.802   9.879   3.759  0.5408 -3.7324 -1.6069
12501SOL    HW249563   8.854   9.948   3.621  0.0248 -1.6986 -0.8134
12502SOL     OW49564   6.822   1.627   0.984  0.2175 -0.2700  0.4654
12502SOL    HW149565   6.849   1.677   0.902  1.6536 -0.6020  0.7129
12502SOL    HW249566   6.741   1.571   0.964  0.2978 -0.0175 -0.6017
12503SOL     OW49567   2.705   5.124   5.473  0.2158  0.0226  0.0268
12503SOL    HW149568   2.675   5.043   5.423  0.9883 -0.2535  0.0003
12503SOL    HW249569   2.664   5.123   5.565  0.8792 -0.8482  0.3307
12504SOL     OW49570   3.810   6.812   0.425 -0.4409  0.3477 -0.0615
12504SOL    HW149571   3.833   6.787   0.520  1.0568 -0.4611 -0.6028
12504SOL    HW249572   3.717   6.846   0.421 -0.2411  1.2060  1.8531
12505SOL     OW49573   7.997   5.566   9.458 -0.4439  0.2209  0.5679
12505SOL    HW149574   7.963   5.476   9.429  0.2274 -0.0484  0.6127
12505SOL    HW249575   7.990   5.574   9.557 -1.4309  0.6070  0.4765
12506SOL     OW49576   0.355   2.277   4.365  0.4811 -0.0415 -1.0274
12506SOL    HW149577   0.347   2.227   4.452 -2.3248  1.4046 -0.3903
12506SOL    HW249578   0.400   2.365   4.381 -0.9060  0.6400 -0.8526
12507SOL     OW49579   1.939   0.937   2.196 -0.2196 -0.6533  0.0732
12507SOL    HW149580   1.899   0.850   2.167  0.6788 -0.9181 -0.3889
12507SOL    HW249581   2.033   0.944   2.161 -0.7485  1.1012 -1.0521
12508SOL     OW49582   8.052   2.493   7.793  0.1260  0.1777  0.0768
12508SOL    HW149583   8.143   2.504   7.833  0.3329 -0.1130 -0.3108
12508SOL    HW249584   8.060   2.456   7.700 -0.4808 -1.8962  0.8108
12509SOL     OW49585   5.784   0.415   2.761  0.4674 -0.7363  0.4665
12509SOL    HW149586   5.724   0.368   2.696  0.1611 -0.2558  0.4039
12509SOL    HW249587   5.784   0.366   2.848  2.5103 -2.5903 -0.5206
12510SOL     OW49588   0.103   9.891   2.966 -0.3864  0.2422  0.2056
12510SOL    HW149589   0.105   9.791   2.974  1.2730  0.3130  0.8168
12510SOL    HW249590   0.084   9.917   2.872  0.9056 -0.6617 -0.3167
12511SOL     OW49591   9.723   1.128   2.911 -0.3226 -0.5839  0.3865
12511SOL    HW149592   9.628   1.158   2.897 -0.0187  1.1514  1.8133
12511SOL    HW249593   9.728   1.068   2.990 -0.3535 -1.3335 -0.1803
12512SOL     OW49594   7.032   6.741   1.782 -0.2780  0.3127 -0.0254
12512SOL    HW149595   7.049   6.831   1.742 -0.4607 -0.1948 -1.2730
12512SOL    HW249596   7.108   6.717   1.842  0.6438  0.5501 -1.0751
12513SOL     OW49597   7.452   1.411   2.839  0.0103 -0.6579  0.5372
12513SOL    HW149598   7.469   1.507   2.861  0.9320 -0.7592  0.2773
12513SOL    HW249599   7.385   1.374   2.903 -0.0646  0.0542  0.8804
12514SOL     OW49600   4.129   4.716   7.926 -0.0481 -0.2641  0.1137
12514SOL    HW149601   4.218   4.702   7.970 -0.3485 -0.9500  0.5147
12514SOL    HW249602   4.124   4.661   7.843  0.3353  0.6630 -0.5418
12515SOL     OW49603   9.349   5.819   5.442  0.7015 -0.0628  0.8421
12515SOL    HW149604   9.341   5.816   5.541  0.6722 -1.2659  0.8108
12515SOL    HW249605   9.383   5.731   5.408 -1.8660 -0.6159 -0.4436
12516SOL     OW49606   7.416   4.023   4.188 -0.3214  0.7792  0.6574
12516SOL    HW149607   7.361   4.047   4.108 -1.3156 -0.5851  0.9108
12516SOL    HW249608   7.508   3.998   4.159 -0.5713  0.6447 -0.0395
12517SOL     OW49609   9.228   7.123   0.207  0.3789  0.8417  0.1560
12517SOL    HW149610   9.207   7.083   0.118  1.8583  0.9977 -0.2856
12517SOL    HW249611   9.152   7.109   0.269 -0.5279  0.4220 -1.0341
12518SOL     OW49612   0.107   3.559   1.507 -0.3215  0.5174 -0.4027
12518SOL    HW149613   0.145   3.466   1.510 -0.1963  0.5944  0.5717
12518SOL    HW249614   0.017   3.557   1.464 -1.0261 -0.3105  1.0582
12519SOL     OW49615   1.332   7.699   7.280  0.1168 -0.4833 -0.2291
12519SOL    HW149616   1.326   7.796   7.260  1.5263 -0.1360  0.9570
12519SOL    HW249617   1.317   7.684   7.378 -0.3544 -1.4891 -0.4443
12520SOL     OW49618   9.925   3.161   5.156  0.1845 -0.4204 -0.4795
12520SOL    HW149619   9.904   3.064   5.149  0.0536 -0.4141 -0.1894
12520SOL    HW249620  10.007   3.174   5.212 -2.1175 -0.1425  3.0178
12521SOL     OW49621   9.010   4.748   9.243 -0.1173  0.0498 -0.1743
12521SOL    HW149622   9.099   4.748   9.197 -0.8673 -1.4458 -1.6907
12521SOL    HW249623   9.021   4.714   9.336  0.9004 -0.2124 -0.3788
12522SOL     OW49624   8.236   2.908   2.495  0.2393  0.2925 -0.1309
12522SOL    HW149625   8.256   2.842   2.566 -0.9877 -0.9730 -0.9265
12522SOL    HW249626   8.140   2.900   2.468  0.5809  1.0083 -1.6395
12523SOL     OW49627   8.183   9.410   1.643  0.0316 -0.0967 -0.1867
12523SOL    HW149628   8.105   9.395   1.704  0.6674  1.8616  1.1585
12523SOL    HW249629   8.248   9.334   1.653 -1.2729 -1.3003 -0.6818
12524SOL     OW49630   7.127   4.361   1.366 -0.1605  0.1434  0.2043
12524SOL    HW149631   7.049   4.304   1.341 -1.5002  1.4198  1.3472
12524SOL    HW249632   7.182   4.314   1.435 -0.6418 -0.2269  0.3389
12525SOL     OW49633   7.844   2.075   0.919 -0.3710  0.3154  0.3803
12525SOL    HW149634   7.823   2.037   1.009 -1.8278 -1.2593 -0.6008
12525SOL    HW249635   7.944   2.085   0.910 -0.1215 -0.9240  1.6022
12526SOL     OW49636   8.864   7.220   2.548 -0.3346  0.3550 -0.5253
12526SOL    HW149637   8.962   7.240   2.545 -0.0889 -0.8702 -0.7569
12526SOL    HW249638   8.823   7.243   2.460 -0.1251  0.1855 -0.6662
12527SOL     OW49639   0.613   4.914   7.339 -0.2509 -0.0310 -0.3314
12527SOL    HW149640   0.553   4.943   7.264 -1.0815  3.0555  1.4519
12527SOL    HW249641   0.563   4.917   7.425  1.3491 -1.3493  0.6688
12528SOL     OW49642   6.250   9.720   5.422  0.1515  0.1691  0.0352
12528SOL    HW149643   6.328   9.779   5.401  1.9817 -2.3226 -0.3599
12528SOL    HW249644   6.185   9.723   5.346  1.0407  0.3887 -0.7240
12529SOL     OW49645   1.449   4.106   2.859  0.6872  0.2566 -0.1049
12529SOL    HW149646   1.499   4.121   2.945 -0.5655 -0.1538  0.7130
12529SOL    HW249647   1.481   4.171   2.791  0.4058  1.8537  1.2381
12530SOL     OW49648   2.772   1.938   2.554 -0.4958  0.3620  0.8916
12530SOL    HW149649   2.857   1.885   2.544 -0.2329  1.2110 -1.8774
12530SOL    HW249650   2.745   1.941   2.650  0.6701 -2.9447  1.3716
12531SOL     OW49651   2.189   7.255   7.391  0.5036 -0.5534  0.1213
12531SOL    HW149652   2.156   7.165   7.363  0.8463 -0.1883 -1.4920
12531SOL    HW249653   2.112   7.318   7.398 -0.0416 -1.5057  3.4683
12532SOL     OW49654   0.594   5.595   0.784  0.1558 -0.1731  0.1515
12532SOL    HW149655   0.559   5.687   0.803  2.3820  0.4489  1.3797
12532SOL    HW249656   0.517   5.531   0.777 -1.4522  1.8078 -1.0467
12533SOL     OW49657   4.730   1.281   8.426 -0.2518 -0.1033 -0.2533
12533SOL    HW149658   4.679   1.236   8.499  0.3406  0.1942  0.3453
12533SOL    HW249659   4.713   1.380   8.430  1.4706  0.1595  0.8254
12534SOL     OW49660   8.890   5.461   2.385  0.0672 -0.7653  0.6398
12534SOL    HW149661   8.965   5.398   2.363  1.6895  1.0155  0.8929
12534SOL    HW249662   8.897   5.489   2.481 -0.5124 -0.0826  0.4894
12535SOL     OW49663   8.610   2.019   5.139 -0.1400 -0.9057 -0.1980
12535SOL    HW149664   8.681   1.980   5.197 -0.6135 -1.7328 -0.1659
12535SOL    HW249665   8.536   1.952   5.127 -0.7863 -0.1566 -0.4467
12536SOL     OW49666   6.561   6.108   1.608 -0.1951 -0.0629 -1.0016
12536SOL    HW149667   6.585   6.079   1.701  0.1457  0.4952 -0.9112
12536SOL    HW249668   6.484   6.173   1.612  1.8582  2.4453 -0.8278
12537SOL     OW49669   9.082   5.579   8.252 -0.0858  0.1404 -0.0154
12537SOL    HW149670   9.007   5.518   8.277  1.0245 -0.5101  1.8220
12537SOL    HW249671   9.070   5.667   8.298  0.7379 -0.2765  1.0241
12538SOL     OW49672   8.119   2.920   1.303  0.4498  0.1011  0.1363
12538SOL    HW149673   8.096   3.002   1.356  0.7285  0.1449  0.1882
12538SOL    HW249674   8.122   2.943   1.206 -0.4403 -0.0628  0.0633
12539SOL     OW49675   0.019   3.628   2.699  0.4926 -0.5475 -0.1022
12539SOL    HW149676  -0.041   3.703   2.728 -0.0409 -0.8948 -0.3086
12539SOL    HW249677   0.063   3.588   2.780  0.1245 -0.5678  0.0890
12540SOL     OW49678   3.072   7.312   7.215 -0.1615  0.1613  0.1521
12540SOL    HW149679   3.039   7.259   7.137  1.3547 -0.6462  0.0383
12540SOL    HW249680   2.998   7.323   7.282 -0.1383 -3.3735  0.8520
12541SOL     OW49681   0.168   4.994   2.805 -0.1700 -0.3633 -0.6580
12541SOL    HW149682   0.204   4.922   2.865 -1.5343 -0.8284 -0.3749
12541SOL    HW249683   0.131   5.068   2.860  1.7706  0.8525 -0.9553
12542SOL     OW49684   5.182   8.542   5.138 -0.0543  0.4843 -0.4820
12542SOL    HW149685   5.118   8.492   5.195  0.7800 -0.9864 -0.8255
12542SOL    HW249686   5.140   8.562   5.049  0.6384 -2.2660 -1.4667
12543SOL     OW49687   4.804   8.883   6.561 -0.0134 -0.2874 -0.2128
12543SOL    HW149688   4.819   8.816   6.634  0.9336  2.2715  2.0273
12543SOL    HW249689   4.717   8.929   6.576  0.7880  1.1556  0.0517
12544SOL     OW49690   5.747   5.141   1.300  0.1729  0.6221  0.1719
12544SOL    HW149691   5.678   5.119   1.232 -1.7768  2.8004  1.3929
12544SOL    HW249692   5.811   5.208   1.262  0.1952  0.4388 -0.1198
12545SOL     OW49693   1.016   9.058   8.680 -0.3352  0.8089 -0.4776
12545SOL    HW149694   1.088   9.042   8.748  0.3274  2.7040 -0.6999
12545SOL    HW249695   0.935   9.095   8.725 -0.5868  0.2423 -0.4602
12546SOL     OW49696   9.920   8.977   8.473  0.5024  0.6477 -0.1387
12546SOL    HW149697   9.888   9.051   8.532 -0.0002  1.1161 -1.0006
12546SOL    HW249698   9.844   8.942   8.418  1.0195  0.3614 -0.6811
12547SOL     OW49699   3.258   2.934   5.381 -0.2585 -0.5895 -0.4197
12547SOL    HW149700   3.321   2.941   5.458 -0.2215 -2.6565 -0.2368
12547SOL    HW249701   3.289   2.862   5.319 -0.9767  0.2066 -1.7206
12548SOL     OW49702   7.760   9.748   2.242  0.5083 -0.1910 -0.6496
12548SOL    HW149703   7.695   9.807   2.290  0.0853 -0.4761 -0.8724
12548SOL    HW249704   7.796   9.680   2.306  0.6325  0.0009 -0.5137
12549SOL     OW49705   7.891   8.900   3.456 -0.1509  0.2310 -0.1320
12549SOL    HW149706   7.901   8.910   3.555 -0.7531  0.6082 -0.1078
12549SOL    HW249707   7.865   8.988   3.416 -2.3192 -0.4591 -0.3253
12550SOL     OW49708   6.811   2.837   9.387 -0.1409  0.0966  0.4005
12550SOL    HW149709   6.807   2.778   9.467 -1.2707 -0.7619 -0.2848
12550SOL    HW249710   6.725   2.887   9.378 -0.7398 -1.2285 -1.3455
12551SOL     OW49711   8.284   0.219   9.561 -0.1174 -0.1610 -0.1293
12551SOL    HW149712   8.302   0.199   9.657  0.6986  0.1972 -0.2073
12551SOL    HW249713   8.276   0.318   9.548 -0.4161 -0.2199 -0.3962
12552SOL     OW49714   2.680   6.386   5.163 -0.0767 -0.9974  0.0827
12552SOL    HW149715   2.735   6.350   5.088 -0.8670 -0.0756 -0.9562
12552SOL    HW249716   2.621   6.314   5.199 -0.5013 -1.1658 -0.9306
12553SOL     OW49717   6.691   4.083   0.574 -0.2378  0.0784  0.1432
12553SOL    HW149718   6.591   4.074   0.574 -0.3395  1.1299 -0.3840
12553SOL    HW249719   6.731   4.004   0.526 -0.8455 -0.0566 -0.1607
12554SOL     OW49720   7.230   4.012   0.646  0.1678 -0.0858  0.3740
12554SOL    HW149721   7.225   3.957   0.562  0.4680 -0.1905  0.4223
12554SOL    HW249722   7.326   4.020   0.674 -0.0781 -1.6265  1.7370
12555SOL     OW49723   6.201   0.961   6.592 -0.0081 -0.1063  0.1211
12555SOL    HW149724   6.175   0.873   6.633  0.3927 -0.7783 -1.0297
12555SOL    HW249725   6.118   1.008   6.562 -0.1280 -0.8118 -0.6785
12556SOL     OW49726   3.735   8.190   3.541  0.5132 -0.6413 -0.3335
12556SOL    HW149727   3.671   8.238   3.481 -1.1557 -1.6971  0.5512
12556SOL    HW249728   3.736   8.235   3.631  0.3237 -1.1533 -0.0714
12557SOL     OW49729   3.612   9.050   6.709 -0.6814  0.8848  0.4161
12557SOL    HW149730   3.568   9.135   6.681  0.6276  2.3216  2.6036
12557SOL    HW249731   3.615   9.045   6.809  0.9567 -0.8440  0.3077
12558SOL     OW49732   9.218   5.961   4.585  0.2055 -0.7518  0.5082
12558SOL    HW149733   9.170   6.048   4.577 -0.9918 -1.3738  0.8699
12558SOL    HW249734   9.217   5.914   4.497 -2.0842 -1.9147  1.1213
12559SOL     OW49735   3.250   7.779   4.032  0.5696 -0.2681 -0.1271
12559SOL    HW149736   3.206   7.803   3.945 -0.9601 -0.4582  0.5690
12559SOL    HW249737   3.309   7.700   4.019  0.9408  0.1668 -1.1468
12560SOL     OW49738   7.316   4.581   2.869 -0.3161 -0.3419  0.5351
12560SOL    HW149739   7.365   4.494   2.875 -0.2821 -0.3780 -0.2590
12560SOL    HW249740   7.334   4.634   2.952  0.0033 -0.9088  0.8389
12561SOL     OW49741   2.145   8.003   7.148 -0.5453 -0.6970 -0.0927
12561SOL    HW149742   2.132   8.016   7.050 -0.4385 -1.4661 -0.2083
12561SOL    HW249743   2.096   7.921   7.178 -1.3306  0.0263  0.6692
12562SOL     OW49744   1.555   6.729   4.454 -0.2434 -0.5534 -0.2207
12562SOL    HW149745   1.522   6.648   4.503  0.1099 -0.2794  0.4605
12562SOL    HW249746   1.532   6.811   4.506 -0.5725 -0.2107 -0.9001
12563SOL     OW49747   2.841   8.602   3.273  0.0603 -0.3858  0.2063
12563SOL    HW149748   2.800   8.596   3.182 -0.1699 -0.1704  0.2935
12563SOL    HW249749   2.881   8.514   3.298  0.9892 -0.1715 -0.5101
12564SOL     OW49750   2.286   2.984   8.850  0.1064  0.1211  0.2943
12564SOL    HW149751   2.359   3.052   8.850 -1.0182  1.3331 -0.0738
12564SOL    HW249752   2.198   3.028   8.864 -0.8265 -1.0403 -1.6583
12565SOL     OW49753   6.497   0.469   8.937  0.3755 -0.1771  0.0667
12565SOL    HW149754   6.416   0.438   8.887  0.6196 -1.1722  0.2615
12565SOL    HW249755   6.470   0.532   9.009 -0.5363 -2.4270  1.7535
12566SOL     OW49756   7.746   1.476   8.466  0.4427 -0.1553  0.2488
12566SOL    HW149757   7.721   1.450   8.559  1.6961  0.9650  0.9040
12566SOL    HW249758   7.757   1.393   8.411  1.8823 -0.9402  1.6686
12567SOL     OW49759   4.719   2.388   5.782  0.1431  0.0275 -0.0292
12567SOL    HW149760   4.677   2.401   5.692 -0.4189  1.4207  0.4206
12567SOL    HW249761   4.703   2.295   5.813 -0.4737 -0.1804 -0.9499
12568SOL     OW49762   9.797   7.874   5.412  0.4373 -0.0961 -0.0058
12568SOL    HW149763   9.786   7.885   5.314  1.8542 -0.9073 -0.2761
12568SOL    HW249764   9.755   7.788   5.441 -2.1454  1.2826  0.5313
12569SOL     OW49765   3.075   6.157   5.440 -0.4262 -0.2580  0.2444
12569SOL    HW149766   3.075   6.255   5.459  0.7583 -0.0973 -0.5192
12569SOL    HW249767   3.149   6.113   5.492  0.4074 -0.4047 -1.0358
12570SOL     OW49768   1.267   0.722   2.370 -0.3328  0.9674 -0.4502
12570SOL    HW149769   1.315   0.762   2.447  0.6911  1.0436 -1.1180
12570SOL    HW249770   1.288   0.624   2.365 -0.1933  1.0154 -0.7897
12571SOL     OW49771   6.866   8.683   3.556 -0.1781  0.0172  0.0070
12571SOL    HW149772   6.943   8.690   3.619 -0.9450 -0.3676  0.9899
12571SOL    HW249773   6.780   8.682   3.607 -0.7541 -1.7667 -0.9464
12572SOL     OW49774   9.741   8.172   3.141  0.1049  0.4527  0.9448
12572SOL    HW149775   9.665   8.149   3.080  0.2403 -0.1970  1.0193
12572SOL    HW249776   9.727   8.264   3.178 -1.2651 -0.1367  1.9058
12573SOL     OW49777   3.222   9.629   5.331 -0.7791  0.0842 -0.1623
12573SOL    HW149778   3.245   9.657   5.237  0.7801 -0.9103 -0.0998
12573SOL    HW249779   3.197   9.532   5.331 -0.9716  0.1354  0.4206
12574SOL     OW49780   2.719   4.858   2.189 -0.0366 -0.3459 -0.7615
12574SOL    HW149781   2.729   4.815   2.099  0.6429  0.4586 -1.0796
12574SOL    HW249782   2.664   4.942   2.179  1.5140  0.6876 -0.7291
12575SOL     OW49783   2.681   3.982   5.963  0.7055  0.0244  0.3039
12575SOL    HW149784   2.654   3.901   6.016  0.4436  1.0682  1.8000
12575SOL    HW249785   2.780   3.985   5.954  0.6461 -1.1420 -0.8705
12576SOL     OW49786   1.187   7.520   0.364 -0.0539 -0.2809 -0.0534
12576SOL    HW149787   1.266   7.464   0.387 -0.2880 -0.5917 -0.0028
12576SOL    HW249788   1.117   7.511   0.435 -0.2876 -0.3024 -0.2826
12577SOL     OW49789   3.296   1.254   7.438  0.2173  0.3142  0.2682
12577SOL    HW149790   3.223   1.239   7.505  0.1964 -0.8617 -0.0008
12577SOL    HW249791   3.351   1.171   7.429 -0.2788  0.1751 -1.7719
12578SOL     OW49792   9.517   0.240   5.530  0.7103  0.1808 -0.3732
12578SOL    HW149793   9.593   0.221   5.592  0.5713  1.3189  0.1639
12578SOL    HW249794   9.451   0.165   5.533  1.2508 -0.2773  0.0179
12579SOL     OW49795   0.083   7.892   3.844 -0.5653  0.0017 -0.0836
12579SOL    HW149796   0.125   7.963   3.787  0.4737 -1.3868 -1.0757
12579SOL    HW249797   0.136   7.808   3.837 -0.6242 -0.3003  2.6856
12580SOL     OW49798   9.532   2.352   1.045  0.1586  0.6810 -0.0620
12580SOL    HW149799   9.472   2.364   1.124  0.8155 -0.3152  0.5996
12580SOL    HW249800   9.519   2.260   1.007  0.8969  0.6322 -0.2095
12581SOL     OW49801   4.605   5.270   7.389 -0.0227  0.6193  0.7892
12581SOL    HW149802   4.641   5.275   7.482 -3.0561  2.6518  1.9046
12581SOL    HW249803   4.530   5.205   7.386  0.2823  0.3075 -0.3450
12582SOL     OW49804   9.037   1.424   9.594 -0.2709  0.7487  0.5734
12582SOL    HW149805   9.109   1.361   9.566 -1.1320  1.6597 -4.1869
12582SOL    HW249806   8.949   1.378   9.589 -0.5511  1.2866  0.5533
12583SOL     OW49807   8.536   7.171   7.369  0.4713  0.5878 -0.5956
12583SOL    HW149808   8.612   7.166   7.305  1.1265 -0.6287  0.2762
12583SOL    HW249809   8.569   7.201   7.459  0.4988 -2.8938  0.6438
12584SOL     OW49810   7.641   8.800   7.291  0.2711  0.0295  0.8649
12584SOL    HW149811   7.615   8.837   7.202  0.1204 -2.1314 -0.0377
12584SOL    HW249812   7.572   8.734   7.321  1.0606 -0.3496  1.8778
12585SOL     OW49813   7.259   6.044   7.132  0.1760  0.3371 -0.9493
12585SOL    HW149814   7.276   6.018   7.227  0.0166  2.8824 -0.1970
12585SOL    HW249815   7.308   5.981   7.071  2.4910  0.2920  0.8880
12586SOL     OW49816   5.703   7.960   3.189 -0.0400 -0.2527 -0.6559
12586SOL    HW149817   5.664   8.007   3.268 -0.5885  1.6915 -2.0347
12586SOL    HW249818   5.756   7.881   3.219  1.6013  1.7218  1.7935
12587SOL     OW49819   9.542   1.874   7.535  0.5842  0.0946  0.2295
12587SOL    HW149820   9.493   1.843   7.617 -0.3999  0.3243 -0.2669
12587SOL    HW249821   9.510   1.824   7.455 -0.8331  2.1686 -0.5401
12588SOL     OW49822   9.920   5.594   0.854  0.4836  0.5815 -0.1471
12588SOL    HW149823  10.010   5.582   0.896  1.8305  0.4938 -2.9172
12588SOL    HW249824   9.896   5.511   0.804 -0.7482  0.9273 -0.1345
12589SOL     OW49825   4.009   9.609   2.057  0.0505  0.2768  0.3221
12589SOL    HW149826   4.079   9.538   2.049 -0.4577 -0.1308 -0.5641
12589SOL    HW249827   3.965   9.602   2.147 -0.1683 -0.6997  0.1453
12590SOL     OW49828   8.340   4.338   8.376 -0.1562  0.3364 -0.0949
12590SOL    HW149829   8.262   4.303   8.324  0.4313 -1.2708  0.0563
12590SOL    HW249830   8.326   4.319   8.474  0.3080  0.2422 -0.0450
12591SOL     OW49831   6.837   2.452   4.751  0.0425 -0.8334  0.1987
12591SOL    HW149832   6.865   2.498   4.835 -1.2882 -1.0650  0.7863
12591SOL    HW249833   6.744   2.416   4.762 -0.9207  0.8380 -2.0395
12592SOL     OW49834   9.742   8.961   0.960 -1.3302  0.4880  1.1394
12592SOL    HW149835   9.762   9.032   1.027  0.2398  0.1277  1.0700
12592SOL    HW249836   9.701   8.882   1.006 -1.5918  0.8089  1.4576
12593SOL     OW49837   1.605   7.617   2.650  0.3433 -0.0291 -0.0122
12593SOL    HW149838   1.621   7.666   2.564 -0.0243 -4.0723 -2.5213
12593SOL    HW249839   1.509   7.587   2.653  0.6389 -0.8610  1.2876
12594SOL     OW49840   5.519   4.069   2.056 -0.1872  0.1027  0.0735
12594SOL    HW149841   5.518   3.969   2.056 -1.5422  0.0159 -3.3681
12594SOL    HW249842   5.601   4.102   2.009 -0.8489  0.5214 -0.8170
12595SOL     OW49843   9.176   9.049   3.872  0.0720 -0.2803 -0.4606
12595SOL    HW149844   9.114   9.127   3.880  1.1125  0.6205 -0.9479
12595SOL    HW249845   9.251   9.060   3.937  0.2639 -0.8406 -0.5867
12596SOL     OW49846   9.524   8.843   9.991  0.6446  0.0547  0.1099
12596SOL    HW149847   9.466   8.817  10.068 -0.9434  0.4600 -0.9175
12596SOL    HW249848   9.618   8.817  10.009 -0.1057 -1.9838  1.1833
12597SOL     OW49849   8.586   0.876   2.440 -0.1795 -0.8664  0.2343
12597SOL    HW149850   8.663   0.859   2.502 -0.7083 -2.0912  0.5554
12597SOL    HW249851   8.554   0.970   2.452  1.8764 -0.0054 -0.5810
12598SOL     OW49852   0.763   6.569   6.975  0.1557  0.3636  0.4088
12598SOL    HW149853   0.830   6.562   6.901  0.3896 -1.5673  0.7617
12598SOL    HW249854   0.809   6.562   7.063 -0.3154  0.8273  0.6945
12599SOL     OW49855   6.041   1.143   0.266 -0.5127  0.6063  0.3777
12599SOL    HW149856   6.106   1.149   0.342 -0.2405  1.0745  0.1090
12599SOL    HW249857   5.953   1.181   0.295 -1.0880 -1.3372  1.1992
12600SOL     OW49858   3.173   0.392   0.195 -0.0377  0.0987  0.1607
12600SOL    HW149859   3.122   0.345   0.267 -0.6708  1.8360  0.8624
12600SOL    HW249860   3.271   0.387   0.214 -0.1801  0.2230  0.9294
12601SOL     OW49861   0.472   4.715   8.246 -0.3094  0.3820 -0.2156
12601SOL    HW149862   0.540   4.687   8.314 -0.0431 -0.4865 -0.8318
12601SOL    HW249863   0.446   4.636   8.191 -1.8125  0.7142  0.0015
12602SOL     OW49864   8.938   3.245   7.643 -0.1539  0.3663  0.1753
12602SOL    HW149865   8.979   3.268   7.555 -1.6109 -0.3196 -0.7123
12602SOL    HW249866   8.840   3.228   7.630 -0.2567 -0.3631  1.8143
12603SOL     OW49867   8.477   8.810   9.195  0.9454  0.2788 -0.3555
12603SOL    HW149868   8.408   8.758   9.245  0.2368  2.1915  0.7265
12603SOL    HW249869   8.432   8.884   9.145  1.9423 -0.0743 -1.8020
12604SOL     OW49870   1.023   3.064   2.905 -0.1835  0.1129 -0.0116
12604SOL    HW149871   0.956   2.996   2.935 -0.8618  0.3247 -0.9965
12604SOL    HW249872   1.047   3.124   2.981 -1.5657  0.3985  0.2126
12605SOL     OW49873   5.365   7.978   6.993 -0.8694 -0.3023  0.0570
12605SOL    HW149874   5.291   7.993   6.927 -1.9812 -0.6332  1.2092
12605SOL    HW249875   5.389   7.881   6.995  0.8971  0.0544 -1.6521
12606SOL     OW49876   5.184   0.142   3.618 -0.0562 -0.6373 -0.8145
12606SOL    HW149877   5.228   0.110   3.533 -0.4741  0.5987 -1.5056
12606SOL    HW249878   5.196   0.240   3.627  0.2417 -0.8056  0.7372
12607SOL     OW49879   2.797   8.287   5.319 -0.0233  0.2020  0.4059
12607SOL    HW149880   2.706   8.324   5.299 -0.1632 -0.1975  0.2865
12607SOL    HW249881   2.795   8.187   5.309  0.0370  0.0424  1.9026
12608SOL     OW49882   3.844   6.489   2.864  0.6948  0.1415 -0.0116
12608SOL    HW149883   3.797   6.401   2.873  1.5316 -0.4141 -0.8975
12608SOL    HW249884   3.825   6.527   2.773 -0.7492  1.5269  0.8589
12609SOL     OW49885   0.210   4.333   8.685 -0.0945 -0.2302  0.1689
12609SOL    HW149886   0.123   4.312   8.642  0.5420 -1.7531 -0.4200
12609SOL    HW249887   0.232   4.430   8.671 -0.2764 -0.5027 -2.2709
12610SOL     OW49888   7.808   9.555   3.862 -0.3223 -0.3467 -0.2755
12610SOL    HW149889   7.714   9.585   3.844  0.2661  1.5256 -0.3459
12610SOL    HW249890   7.819   9.461   3.831 -2.7204 -1.2679  1.4591
12611SOL     OW49891   0.606   2.471   3.161  0.5196  0.1155  0.8100
12611SOL    HW149892   0.575   2.379   3.188  0.9087 -0.2528  0.0138
12611SOL    HW249893   0.531   2.522   3.121  0.7006 -0.4423 -0.2544
12612SOL     OW49894   0.417   4.027   1.221 -0.1879 -0.2525  0.6667
12612SOL    HW149895   0.406   3.975   1.306 -2.3523 -0.4403  0.2840
12612SOL    HW249896   0.511   4.014   1.187  0.3369 -1.1587  2.3664
12613SOL     OW49897   0.646   4.899   8.715 -0.6019  0.3085  0.0516
12613SOL    HW149898   0.573   4.907   8.783  0.0807  0.1354  0.8069
12613SOL    HW249899   0.606   4.871   8.627 -1.6444  1.6694  0.0545
12614SOL     OW49900   3.123   3.331   6.114 -0.3615 -0.5280 -0.2204
12614SOL    HW149901   3.146   3.385   6.033 -0.0154 -0.9084 -0.3774
12614SOL    HW249902   3.178   3.362   6.191 -1.8257  0.9094  0.2758
12615SOL     OW49903   2.839   2.580   8.007  0.0220  0.0805  0.0961
12615SOL    HW149904   2.892   2.556   8.088 -0.6414  1.2372  0.9018
12615SOL    HW249905   2.791   2.500   7.973 -0.2414 -0.2673  1.2702
12616SOL     OW49906   4.439   6.361   1.594 -0.5013 -0.5118  0.0769
12616SOL    HW149907   4.452   6.433   1.663 -3.5303  0.1260  0.0470
12616SOL    HW249908   4.350   6.317   1.608  0.1437 -2.4144 -1.6041
12617SOL     OW49909   4.316   7.583   3.637  0.0411 -0.3346  0.1506
12617SOL    HW149910   4.382   7.544   3.701  1.5750  2.1594  0.1480
12617SOL    HW249911   4.249   7.638   3.687  1.7674  2.3502 -0.4002
12618SOL     OW49912   6.662   2.105   8.776  0.2130  0.5086  0.2962
12618SOL    HW149913   6.586   2.163   8.744 -0.3553 -1.0689 -1.2908
12618SOL    HW249914   6.626   2.016   8.805  1.4763 -0.3032 -0.5903
12619SOL     OW49915   3.779   9.630   9.097  0.2411 -0.1959 -0.4948
12619SOL    HW149916   3.707   9.663   9.159 -0.4886 -0.4188 -1.2108
12619SOL    HW249917   3.867   9.629   9.145 -0.4947 -1.3542  0.8684
12620SOL     OW49918   4.711   3.506   3.633  0.3641 -0.5863  0.4841
12620SOL    HW149919   4.706   3.590   3.687 -0.4060  0.9028 -1.8218
12620SOL    HW249920   4.740   3.528   3.540 -0.8714 -2.7448 -0.4526
12621SOL     OW49921   5.955   8.285   4.908 -0.5725 -0.0495  0.0388
12621SOL    HW149922   6.038   8.230   4.896 -0.5190 -0.3830  1.6970
12621SOL    HW249923   5.875   8.227   4.896 -0.5670  0.1788 -1.1447
12622SOL     OW49924   7.284   5.875   1.799 -0.2480  0.3814 -0.1613
12622SOL    HW149925   7.232   5.960   1.807 -0.0360  0.5014 -0.0478
12622SOL    HW249926   7.339   5.862   1.882 -0.9451 -0.3106  0.1972
12623SOL     OW49927   2.293   6.781   7.973 -0.2561 -0.2189  0.0456
12623SOL    HW149928   2.282   6.873   8.010  1.5781 -0.1017  0.3274
12623SOL    HW249929   2.282   6.784   7.874  2.3179  0.7825 -0.2586
12624SOL     OW49930   1.284   3.518   3.652  0.0027 -0.3864 -0.0597
12624SOL    HW149931   1.259   3.471   3.567  0.2572  1.7459 -1.3629
12624SOL    HW249932   1.201   3.541   3.703 -0.2309 -0.5677 -0.3554
12625SOL     OW49933   1.049   7.585   0.991  0.3026 -0.4259  0.0951
12625SOL    HW149934   1.057   7.527   0.911  0.1289 -0.1204 -0.1416
12625SOL    HW249935   1.030   7.679   0.963 -1.0711 -0.5650  0.5464
12626SOL     OW49936   0.443   7.654   3.064 -0.2271 -0.0712 -0.3129
12626SOL    HW149937   0.489   7.705   3.137  1.9048 -0.9377 -0.9952
12626SOL    HW249938   0.449   7.556   3.084  0.6030 -0.3318 -1.7334
12627SOL     OW49939   9.696   6.462   3.103  0.0096  0.4344 -0.4919
12627SOL    HW149940   9.658   6.548   3.137 -0.1015  0.0428  0.3786
12627SOL    HW249941   9.627   6.415   3.047 -0.2502  0.4610 -0.1932
12628SOL     OW49942   0.284   0.142   6.937 -0.7572 -0.0802 -0.5805
12628SOL    HW149943   0.231   0.084   6.999  0.4873  0.5073  1.0610
12628SOL    HW249944   0.330   0.085   6.869 -2.4554 -0.6954 -1.2250
12629SOL     OW49945   3.769   4.346   2.309 -0.1190 -0.4860  0.0769
12629SOL    HW149946   3.867   4.331   2.320 -0.2442 -1.1354  0.3333
12629SOL    HW249947   3.731   4.273   2.252 -0.7550 -1.2110  1.3971
12630SOL     OW49948   4.043   1.006   1.205  0.5218  0.3514  0.1860
12630SOL    HW149949   3.969   0.939   1.208  1.8096 -1.1002  0.3805
12630SOL    HW249950   4.011   1.089   1.160 -0.9082 -0.6693 -0.7267
12631SOL     OW49951   0.519   0.168   4.400 -0.1198 -0.0697 -0.4287
12631SOL    HW149952   0.538   0.102   4.327  0.0150 -1.3014  0.7082
12631SOL    HW249953   0.595   0.233   4.406  0.5604 -0.8628 -0.4082
12632SOL     OW49954   3.060   0.597   9.676 -0.7001  0.3585 -0.1674
12632SOL    HW149955   3.149   0.576   9.716  0.1107  1.1342 -1.5352
12632SOL    HW249956   2.989   0.544   9.723  0.7404 -1.9492 -0.5191
12633SOL     OW49957   2.397   6.405   9.551  0.5226 -0.6830 -0.1211
12633SOL    HW149958   2.435   6.417   9.459 -0.7056 -0.0085 -0.5547
12633SOL    HW249959   2.467   6.428   9.619  1.6491 -1.8550 -0.8754
12634SOL     OW49960   7.517   7.327   5.123  0.3291 -0.3016  0.3369
12634SOL    HW149961   7.603   7.277   5.129  0.3054 -0.4360 -0.3742
12634SOL    HW249962   7.478   7.338   5.215  1.7435  0.9025  0.7979
12635SOL     OW49963   8.573   4.370   1.535  0.2539 -0.0287 -0.1115
12635SOL    HW149964   8.652   4.310   1.528  1.2081  1.1184  0.7070
12635SOL    HW249965   8.489   4.315   1.538  1.0996 -1.2983  0.3663
12636SOL     OW49966   8.422   7.161   3.788  0.2332 -0.3507 -0.0381
12636SOL    HW149967   8.488   7.183   3.715 -1.0756 -0.6848 -1.3527
12636SOL    HW249968   8.402   7.063   3.785 -0.8158 -0.1351 -0.0721
12637SOL     OW49969   1.705   1.121   3.402  0.3755  0.2151 -0.1963
12637SOL    HW149970   1.688   1.024   3.417  0.4761  0.0048 -1.3651
12637SOL    HW249971   1.645   1.175   3.461 -0.5467 -0.5561 -0.4151
12638SOL     OW49972   8.163   4.954   9.264  0.0351 -0.0581  0.3340
12638SOL    HW149973   8.088   4.978   9.326 -0.1422 -0.9062  0.4490
12638SOL    HW249974   8.150   5.003   9.177 -0.7522 -0.3259  0.2924
12639SOL     OW49975   2.716   0.676   3.527 -0.4732  0.0041  0.2965
12639SOL    HW149976   2.617   0.669   3.537 -0.5998  0.0559 -0.7915
12639SOL    HW249977   2.761   0.652   3.613 -1.4186 -0.2950  0.7103
12640SOL     OW49978   0.091   1.120   8.891  0.1561 -0.3290 -0.1875
12640SOL    HW149979   0.170   1.061   8.907  0.8988  0.4425 -0.9158
12640SOL    HW249980   0.015   1.091   8.948  0.2450 -2.5148 -1.1434
12641SOL     OW49981   3.252   5.533   0.698  0.5744  0.4354 -0.8701
12641SOL    HW149982   3.349   5.543   0.676  0.4852 -1.5866 -2.3839
12641SOL    HW249983   3.210   5.468   0.634 -1.2407 -0.5647  1.2698
12642SOL     OW49984   3.913   6.433   9.283  0.5611 -0.8908 -0.2082
12642SOL    HW149985   3.845   6.503   9.265  1.1893 -0.5175 -1.1322
12642SOL    HW249986   3.974   6.423   9.204  1.0001 -1.8774  0.2394
12643SOL     OW49987   2.578   0.685   2.758  0.1083  1.0843 -0.1732
12643SOL    HW149988   2.567   0.701   2.660 -1.2915  0.8020 -0.0777
12643SOL    HW249989   2.667   0.644   2.775 -0.1470 -0.0478 -1.4702
12644SOL     OW49990   9.007   1.014   6.450  0.3637 -0.2216  1.0447
12644SOL    HW149991   8.913   1.048   6.439  0.0810 -0.4826  2.5954
12644SOL    HW249992   9.065   1.089   6.483  0.5080 -0.3125  0.9958
12645SOL     OW49993   0.905   5.594   8.492  0.0424 -0.9016  0.2853
12645SOL    HW149994   0.979   5.585   8.425  0.0707 -1.1667  0.3515
12645SOL    HW249995   0.845   5.514   8.487  0.7773 -1.5607  1.4570
12646SOL     OW49996   8.359   9.318   3.316 -0.3808 -0.4023  0.0309
12646SOL    HW149997   8.270   9.298   3.276 -0.0407  0.9653 -1.4411
12646SOL    HW249998   8.431   9.298   3.248  0.2869  0.6025  0.4389
12647SOL     OW49999   0.133   8.287   2.150 -0.0889 -0.1143 -0.2274
12647SOL    HW150000   0.147   8.235   2.235 -0.5151 -0.4124 -0.3403
12647SOL    HW250001   0.080   8.232   2.086 -0.6242  0.4963 -0.3105
12648SOL     OW50002   3.567   0.071  10.035 -0.9822 -0.2713 -0.6144
12648SOL    HW150003   3.493   0.077   9.968 -1.5024 -1.7870 -0.1932
12648SOL    HW250004   3.652   0.047   9.988 -0.5349  2.3839 -1.2253
12649SOL     OW50005   5.170   7.335   3.469  0.1520 -0.2870  0.1412
12649SOL    HW150006   5.126   7.274   3.403 -0.6232 -1.2644  1.5294
12649SOL    HW250007   5.257   7.295   3.499 -0.0558 -0.4201  0.5772
12650SOL     OW50008   8.659   2.893   3.833 -0.1494 -0.2734  0.3362
12650SOL    HW150009   8.655   2.962   3.905  1.7300  0.7789 -0.5290
12650SOL    HW250010   8.716   2.927   3.758  1.3004 -3.0038  0.1601
12651SOL     OW50011   8.996   2.310   9.264  0.0729 -0.2053 -0.5873
12651SOL    HW150012   9.056   2.244   9.219  1.8465  0.5274  0.6456
12651SOL    HW250013   8.902   2.277   9.260  0.7053 -1.9962 -1.4507
12652SOL     OW50014   8.076   1.542   6.358  1.0037  0.2082  0.3151
12652SOL    HW150015   8.105   1.472   6.424  0.2129 -1.4072 -1.0067
12652SOL    HW250016   7.986   1.578   6.385  0.2122 -1.1867 -0.4068
12653SOL     OW50017   4.047   6.539   3.616  0.5470  0.4006  0.2246
12653SOL    HW150018   4.110   6.464   3.597 -0.4465 -0.5404  0.5831
12653SOL    HW250019   4.086   6.625   3.582  2.2932 -0.0668  1.0242
12654SOL     OW50020   7.582   3.272   8.229  0.0912  0.3928 -0.4209
12654SOL    HW150021   7.550   3.178   8.228 -1.7584  0.9344  1.5816
12654SOL    HW250022   7.680   3.275   8.248 -0.2999 -1.0640  2.0159
12655SOL     OW50023   9.587   2.565   7.838  0.0519 -0.0833  0.1001
12655SOL    HW150024   9.580   2.522   7.748  2.4173 -0.2450 -0.0445
12655SOL    HW250025   9.614   2.661   7.827  0.2420 -0.0729  0.6300
12656SOL     OW50026   3.507   5.793   5.001 -0.0811  0.0445  0.3810
12656SOL    HW150027   3.535   5.867   4.939  0.6320 -2.0713 -1.9131
12656SOL    HW250028   3.407   5.792   5.007 -0.1549  0.4323 -0.5515
12657SOL     OW50029   0.388   0.733   5.378 -0.3441 -0.4274 -0.3792
12657SOL    HW150030   0.292   0.742   5.407 -0.0223  0.9002  0.3620
12657SOL    HW250031   0.396   0.661   5.310 -2.0169 -0.0156 -1.0507
12658SOL     OW50032   9.082   4.689   7.932  0.3053  0.4893  0.0480
12658SOL    HW150033   9.013   4.624   7.900  2.1682 -0.3989 -2.3020
12658SOL    HW250034   9.173   4.650   7.919  1.3925  2.9191  0.1697
12659SOL     OW50035   5.995   8.597   5.837 -0.4539 -0.0688 -0.2713
12659SOL    HW150036   6.054   8.567   5.761 -0.3654 -0.1015 -0.1894
12659SOL    HW250037   5.993   8.526   5.908  1.3756  0.9631  0.8431
12660SOL     OW50038   3.829   0.437   5.019  0.8947  0.2389  0.1220
12660SOL    HW150039   3.778   0.523   5.021 -1.8172 -1.2659 -0.3176
12660SOL    HW250040   3.818   0.389   5.106  1.8016  0.0187  0.1187
12661SOL     OW50041   8.639   8.706   1.513  0.0999 -0.0395  0.1072
12661SOL    HW150042   8.652   8.804   1.504  0.0379  0.0836  1.2386
12661SOL    HW250043   8.648   8.662   1.423  0.1944  0.9821 -0.3885
12662SOL     OW50044   3.106   0.911   0.355  0.3355 -0.1050  0.2400
12662SOL    HW150045   3.146   0.977   0.292 -3.4059  0.9990 -1.1264
12662SOL    HW250046   3.088   0.825   0.306  1.7862 -0.8669  1.0441
12663SOL     OW50047   4.728   6.542   3.383 -0.0201  0.2073 -0.2938
12663SOL    HW150048   4.683   6.529   3.295 -0.3627  0.6027 -0.1786
12663SOL    HW250049   4.790   6.620   3.378 -0.5486  0.6498  0.0109
12664SOL     OW50050   3.225   1.351   2.153  0.1941  0.0042 -0.3901
12664SOL    HW150051   3.163   1.294   2.207 -0.7737  0.7903 -0.6562
12664SOL    HW250052   3.316   1.309   2.150 -0.1522 -0.8156  0.5627
12665SOL     OW50053   9.991   9.223   6.786  0.1629 -0.0426 -0.0709
12665SOL    HW150054  10.007   9.141   6.840  1.0466  1.3052  1.7440
12665SOL    HW250055  10.040   9.215   6.699  0.3421 -1.3777  0.1381
12666SOL     OW50056   6.815   1.731   2.054 -0.3506  0.0405  0.2438
12666SOL    HW150057   6.845   1.824   2.035  0.8900 -0.5055 -0.5100
12666SOL    HW250058   6.756   1.699   1.980 -0.5585  0.1243  0.3717
12667SOL     OW50059   5.688   0.479   3.487  0.0836  0.3046 -0.4836
12667SOL    HW150060   5.708   0.381   3.486 -1.3393  0.0019  0.2925
12667SOL    HW250061   5.604   0.496   3.538  1.4771  2.1517  1.2641
12668SOL     OW50062   4.370   9.420   2.901  0.3554  0.2392 -0.1498
12668SOL    HW150063   4.394   9.329   2.936  0.4253 -0.3016 -1.5845
12668SOL    HW250064   4.433   9.446   2.828 -0.5533  0.8032 -0.7499
12669SOL     OW50065   8.126   7.667   1.071  0.1745  0.0293 -0.1714
12669SOL    HW150066   8.221   7.697   1.070  0.2204 -0.1363 -1.2829
12669SOL    HW250067   8.067   7.740   1.037  0.1408 -0.6288 -1.5497
12670SOL     OW50068   8.834   5.246   7.646 -0.0177  0.0565 -0.7024
12670SOL    HW150069   8.892   5.193   7.584 -0.1257 -0.1155 -0.6544
12670SOL    HW250070   8.866   5.236   7.740 -1.2333 -1.5284 -0.4385
12671SOL     OW50071   4.221   7.763   0.217 -0.7001  0.2034  0.2129
12671SOL    HW150072   4.320   7.757   0.224 -0.5850  0.0688 -1.2659
12671SOL    HW250073   4.179   7.678   0.249 -0.2410 -0.3617 -0.6720
12672SOL     OW50074   9.059   4.408   8.924  0.3187 -0.3441 -0.5950
12672SOL    HW150075   9.023   4.444   9.010  0.1675 -0.5120 -0.5882
12672SOL    HW250076   9.159   4.403   8.930  0.2978 -0.5330 -0.3569
12673SOL     OW50077   6.124   1.162   2.467  0.2989 -0.2930 -0.2771
12673SOL    HW150078   6.094   1.188   2.375  1.6366  0.1323 -0.5948
12673SOL    HW250079   6.070   1.084   2.498 -0.4107 -0.2114 -1.2701
12674SOL     OW50080   9.760   7.964   5.135 -0.1918  0.7504 -0.3242
12674SOL    HW150081   9.783   7.911   5.053 -0.9792 -0.7309  0.3864
12674SOL    HW250082   9.663   7.990   5.132 -0.2993  0.4209  0.2840
12675SOL     OW50083   7.719   9.028   7.425  0.4397 -0.9039  0.2334
12675SOL    HW150084   7.811   9.004   7.455  1.4891  1.9499 -0.6205
12675SOL    HW250085   7.673   8.945   7.392  1.7973 -2.8053  2.8860
12676SOL     OW50086   2.943   9.584   5.761  0.0837  0.2712  0.5401
12676SOL    HW150087   2.969   9.491   5.735 -0.7755  0.8767 -2.8368
12676SOL    HW250088   2.947   9.594   5.860  0.1164 -3.3793  0.9753
12677SOL     OW50089   8.077   2.825   0.135 -0.4855  0.2312 -0.3371
12677SOL    HW150090   7.981   2.809   0.158 -0.6310  1.8762  0.2892
12677SOL    HW250091   8.129   2.740   0.146 -1.9938 -0.8634 -1.4220
12678SOL     OW50092   6.582   9.078   6.851  0.1008 -0.1523  0.1238
12678SOL    HW150093   6.581   9.030   6.763 -0.2722  1.6109 -0.8496
12678SOL    HW250094   6.654   9.148   6.851  0.0221 -0.0620  1.1754
12679SOL     OW50095   1.525   9.857   4.422  0.7924  0.3500 -0.3264
12679SOL    HW150096   1.427   9.880   4.425  0.9852  1.1155  0.5159
12679SOL    HW250097   1.542   9.776   4.478  0.5987  0.0438 -0.7063
12680SOL     OW50098   1.297   6.809   6.633  0.1294  0.2286 -0.0542
12680SOL    HW150099   1.281   6.726   6.687  3.7453 -0.5176  0.0132
12680SOL    HW250100   1.328   6.783   6.542  1.0419  1.4879 -0.1119
12681SOL     OW50101   2.252   1.994   5.167 -0.2664  0.0778  0.1810
12681SOL    HW150102   2.192   1.914   5.173  0.9969 -0.8765  0.3424
12681SOL    HW250103   2.322   1.987   5.238  1.8139 -0.3232 -1.8687
12682SOL     OW50104   7.599   6.762   1.917  0.3141 -0.0459 -0.7048
12682SOL    HW150105   7.620   6.735   1.823  0.2654  1.2563 -1.0890
12682SOL    HW250106   7.676   6.740   1.976  0.3587 -0.8338 -1.0483
12683SOL     OW50107   1.293   8.819   8.775  0.4510 -0.1352  0.0739
12683SOL    HW150108   1.345   8.884   8.830  0.4191  1.5331 -1.7937
12683SOL    HW250109   1.196   8.828   8.794  0.3678  1.0442 -0.8377
12684SOL     OW50110   4.270   5.034   1.455  0.2548  0.0780 -0.3631
12684SOL    HW150111   4.280   5.015   1.357 -0.0318 -0.3468 -0.3108
12684SOL    HW250112   4.358   5.024   1.500  0.2107 -0.6180 -0.4273
12685SOL     OW50113   8.248   2.591   0.116 -0.1592 -0.1714 -0.4080
12685SOL    HW150114   8.249   2.497   0.084  1.7416 -0.2921 -0.0326
12685SOL    HW250115   8.287   2.596   0.208 -1.8697  0.7411  0.3013
12686SOL     OW50116   8.655   9.085   6.268  0.4558  0.0528 -0.7345
12686SOL    HW150117   8.660   9.061   6.365  1.0229  2.0335 -0.2496
12686SOL    HW250118   8.600   9.017   6.219 -1.0398 -0.1724  1.2368
12687SOL     OW50119   6.885   1.991   4.931  0.0398 -0.4106  0.1490
12687SOL    HW150120   6.818   1.927   4.894  1.1093 -0.3445 -1.9514
12687SOL    HW250121   6.842   2.080   4.943 -0.8486 -0.9348  0.9610
12688SOL     OW50122   1.195   9.638   9.881 -0.5969  0.1507 -0.1333
12688SOL    HW150123   1.124   9.572   9.856 -1.5116  0.1889  2.2909
12688SOL    HW250124   1.160   9.731   9.872  0.4385  0.3202 -2.7674
12689SOL     OW50125   3.664   9.060   0.938 -0.0926 -0.3065  0.0374
12689SOL    HW150126   3.700   8.978   0.894 -0.9023  0.5268 -2.2504
12689SOL    HW250127   3.579   9.038   0.985 -0.1445 -0.8573 -0.3064
12690SOL     OW50128   5.485   2.975   2.475 -0.4557 -0.2299 -0.4775
12690SOL    HW150129   5.492   2.888   2.425  1.5701  0.1991 -0.9660
12690SOL    HW250130   5.569   2.990   2.528 -1.6441  0.4335  1.2749
12691SOL     OW50131   3.806   6.915   7.001  0.3889 -0.2559  0.2905
12691SOL    HW150132   3.858   6.993   6.967  0.2971 -0.1040  0.4951
12691SOL    HW250133   3.708   6.935   6.996  0.3774 -0.1951  0.7305
12692SOL     OW50134   4.461   3.049   8.102  0.2793  0.0279  0.0034
12692SOL    HW150135   4.442   3.120   8.170 -0.5372  0.4957 -0.7171
12692SOL    HW250136   4.510   3.088   8.025  1.3469 -0.5399  0.3823
12693SOL     OW50137   1.966   6.968   9.209  0.2678 -0.2209  0.0806
12693SOL    HW150138   2.014   6.883   9.232  1.1537  0.3030  0.1824
12693SOL    HW250139   1.960   7.026   9.291 -0.5360 -0.2782  0.0661
12694SOL     OW50140   8.424   8.276   2.938  0.1823 -0.1361  0.1295
12694SOL    HW150141   8.383   8.354   2.984  0.6649 -0.2494  0.7528
12694SOL    HW250142   8.439   8.298   2.841  1.6350  1.0552  0.6190
12695SOL     OW50143   7.990   7.845   2.525 -0.0051 -0.4263  0.1548
12695SOL    HW150144   7.913   7.792   2.562  0.4238 -0.9488  0.3122
12695SOL    HW250145   8.071   7.831   2.583  0.1530  0.2905  0.1161
12696SOL     OW50146   4.117   0.967   3.957 -0.5304  0.1431  0.1284
12696SOL    HW150147   4.078   1.021   4.032 -2.2203  1.7838 -1.8351
12696SOL    HW250148   4.110   1.020   3.872 -0.8127 -2.5842 -1.6014
12697SOL     OW50149   7.012   2.419   0.970  0.4260  0.2638  0.4911
12697SOL    HW150150   6.916   2.443   0.974  0.3716  0.1752 -0.1503
12697SOL    HW250151   7.067   2.502   0.954  0.3139  0.0951 -0.8200
12698SOL     OW50152   3.694   6.747   7.186 -0.4625  0.1140  0.3419
12698SOL    HW150153   3.734   6.660   7.154 -0.3172  0.1117  0.5298
12698SOL    HW250154   3.723   6.821   7.125 -0.7620 -0.0034  0.0558
12699SOL     OW50155   0.188   4.751   9.526 -0.0695 -0.2387 -0.5500
12699SOL    HW150156   0.156   4.832   9.477 -0.6496  0.4748  0.9876
12699SOL    HW250157   0.111   4.691   9.546  0.0422 -0.1331  0.2047
12700SOL     OW50158   4.294   2.069   7.254  0.0773 -0.4348 -0.1727
12700SOL    HW150159   4.352   2.141   7.293 -1.1740  0.8378 -0.6066
12700SOL    HW250160   4.302   1.986   7.309 -0.0088  0.6614  1.5238
12701SOL     OW50161   2.736   0.566   9.177 -0.4374 -0.0064  0.4231
12701SOL    HW150162   2.714   0.475   9.142 -2.7092  0.6801 -0.0176
12701SOL    HW250163   2.728   0.633   9.104  1.5111  0.5316  0.6788
12702SOL     OW50164   0.969   2.565   4.848 -0.4986 -0.2329 -0.2250
12702SOL    HW150165   0.875   2.578   4.818  0.3280 -0.5844 -3.1873
12702SOL    HW250166   1.014   2.654   4.855 -1.4692  0.0526  2.7585
12703SOL     OW50167   7.864   3.667   0.938  0.2638  0.4484  0.3419
12703SOL    HW150168   7.884   3.595   0.871 -0.4875  0.5052  0.0463
12703SOL    HW250169   7.917   3.748   0.917  0.7480  0.1437  0.3820
12704SOL     OW50170   4.367   9.551   5.822  0.1772 -0.4306 -0.2448
12704SOL    HW150171   4.398   9.554   5.917 -2.6730  2.0846  0.6764
12704SOL    HW250172   4.390   9.462   5.782  1.3572 -1.5413  2.7927
12705SOL     OW50173   2.235   1.232   3.093 -1.1583  0.0137 -0.0545
12705SOL    HW150174   2.141   1.205   3.113 -1.1855 -0.1595 -0.4070
12705SOL    HW250175   2.259   1.203   3.000 -1.0635  0.8675 -0.2973
12706SOL     OW50176   6.906   6.574   8.138  0.3174  0.5636  0.5295
12706SOL    HW150177   6.829   6.593   8.077  0.0314 -0.1866  0.6536
12706SOL    HW250178   6.957   6.495   8.103  0.6412  0.6483  0.8084
12707SOL     OW50179   5.839   4.752   2.066 -0.4333  0.1296 -0.4478
12707SOL    HW150180   5.842   4.652   2.053  0.2016  0.0962 -0.1033
12707SOL    HW250181   5.933   4.788   2.066 -0.6320  0.6556 -0.0679
12708SOL     OW50182   8.123   5.402   6.771 -0.6783 -0.7916 -0.4989
12708SOL    HW150183   8.094   5.497   6.763  0.4241 -0.5141 -1.4320
12708SOL    HW250184   8.176   5.390   6.856  1.1030 -0.0297 -1.4682
12709SOL     OW50185   9.844   1.223   2.121  0.1218  0.2968 -0.1264
12709SOL    HW150186   9.867   1.294   2.188 -0.5559  1.2677 -0.9025
12709SOL    HW250187   9.809   1.266   2.038  0.9080 -0.8912 -1.0972
12710SOL     OW50188   7.509   7.557   6.178 -0.0513  0.9821  0.5082
12710SOL    HW150189   7.600   7.589   6.154  0.1821  1.1589  1.6295
12710SOL    HW250190   7.475   7.607   6.257 -1.1741  1.0052  0.0249
12711SOL     OW50191   2.579   8.291   4.623  0.1667 -0.2214 -0.3814
12711SOL    HW150192   2.516   8.260   4.552  0.1715 -2.3178  0.4770
12711SOL    HW250193   2.533   8.354   4.684 -0.0901  0.9099 -1.7143
12712SOL     OW50194   1.179   6.020   2.715 -0.4820  0.6977 -0.3702
12712SOL    HW150195   1.234   6.009   2.798  0.0705 -2.2414 -1.0666
12712SOL    HW250196   1.090   6.058   2.738 -0.7397 -1.1194  1.7386
12713SOL     OW50197   7.090   0.626   1.864  0.0586  0.1641 -0.1314
12713SOL    HW150198   7.026   0.549   1.866  1.2749 -0.8498  0.4962
12713SOL    HW250199   7.045   0.708   1.900 -0.5781 -0.7661  1.2208
12714SOL     OW50200   8.148   8.108   6.128  0.0099  0.0862 -0.0639
12714SOL    HW150201   8.221   8.043   6.152 -1.7340 -1.3697  1.4722
12714SOL    HW250202   8.127   8.165   6.208  0.9744  2.0509 -1.1721
12715SOL     OW50203   2.946   0.498   1.979  0.0614  0.1814 -0.3545
12715SOL    HW150204   2.916   0.583   1.936  2.8399 -0.2845 -3.3881
12715SOL    HW250205   3.019   0.517   2.045 -0.3317  0.2791  0.0585
12716SOL     OW50206   7.873   5.654   8.700  0.5516  0.6504 -0.0102
12716SOL    HW150207   7.911   5.598   8.773 -0.6790  2.0265  1.7564
12716SOL    HW250208   7.939   5.724   8.673  1.9410 -1.3451 -1.9526
12717SOL     OW50209   5.069   8.552   2.623 -0.1929 -0.5641  0.0566
12717SOL    HW150210   5.012   8.472   2.640  0.6497 -1.5411 -1.5670
12717SOL    HW250211   5.139   8.559   2.693 -0.4948 -1.0369  0.4096
12718SOL     OW50212   0.631   6.471   5.280  0.1409 -0.5269  0.2679
12718SOL    HW150213   0.610   6.546   5.342 -0.5203 -1.2054  0.8682
12718SOL    HW250214   0.592   6.386   5.316 -1.1934 -0.7382 -1.6098
12719SOL     OW50215   2.230   9.891   0.053 -0.1484 -0.5187  0.0988
12719SOL    HW150216   2.143   9.934   0.030 -0.3520 -1.3191 -0.6322
12719SOL    HW250217   2.235   9.877   0.152  0.3258  2.0390  0.4738
12720SOL     OW50218   4.613   7.515   2.368  0.4450  0.1940 -0.4373
12720SOL    HW150219   4.699   7.558   2.394  0.5473 -0.5102  0.3876
12720SOL    HW250220   4.612   7.501   2.269  0.9930  0.8111 -0.5381
12721SOL     OW50221   1.758   9.120   2.906  0.0183 -0.2288  0.2931
12721SOL    HW150222   1.781   9.049   2.973  0.1221  0.2549  0.7773
12721SOL    HW250223   1.779   9.210   2.944  0.1524  0.0508 -0.4232
12722SOL     OW50224   2.643   2.491   3.018  0.2063 -0.5736 -0.1369
12722SOL    HW150225   2.704   2.463   2.943 -1.4723 -0.9858 -1.3765
12722SOL    HW250226   2.645   2.421   3.090  1.5142 -0.3769  0.0340
12723SOL     OW50227   8.205   5.156   3.397  0.5467 -0.6519 -0.0817
12723SOL    HW150228   8.190   5.077   3.337 -2.4696  0.8563 -1.3702
12723SOL    HW250229   8.159   5.140   3.484 -0.1104 -0.2631 -0.3638
12724SOL     OW50230   1.246   9.910   1.034  0.5031 -0.5067 -0.2570
12724SOL    HW150231   1.304   9.879   0.958 -0.2967 -2.1671 -0.2172
12724SOL    HW250232   1.195   9.832   1.071 -0.5854  0.6433  0.7196
12725SOL     OW50233   9.445   1.998   6.661  0.4117 -0.5613 -0.0631
12725SOL    HW150234   9.395   2.078   6.695 -0.2372 -0.9988  0.0125
12725SOL    HW250235   9.537   1.997   6.702  0.0510 -0.4399  0.7655
12726SOL     OW50236   0.263   2.042   3.677 -0.0929 -1.0525  0.2580
12726SOL    HW150237   0.191   2.102   3.712 -0.3579 -0.9675 -0.4242
12726SOL    HW250238   0.289   2.071   3.585  1.9784 -0.0658  1.1198
12727SOL     OW50239   3.362   4.093   1.723 -0.5835 -0.2015  0.5418
12727SOL    HW150240   3.372   4.185   1.760 -0.2760  0.1714 -0.4638
12727SOL    HW250241   3.313   4.097   1.636 -0.0641 -0.9282  0.2116
12728SOL     OW50242   0.355   8.645   5.791 -0.5120  0.2861 -0.4213
12728SOL    HW150243   0.439   8.662   5.739  0.2726  0.0946  0.7493
12728SOL    HW250244   0.338   8.547   5.796  1.3455  0.0456  2.5787
12729SOL     OW50245   0.320   2.183   0.205 -0.1173 -0.0232  0.1592
12729SOL    HW150246   0.331   2.188   0.304  1.5148  1.2938 -0.0692
12729SOL    HW250247   0.368   2.102   0.170 -0.0577 -0.0717  0.3550
12730SOL     OW50248   9.876   6.359   9.841 -0.2783 -0.5140  0.2737
12730SOL    HW150249   9.941   6.431   9.821  0.5480 -1.3270 -0.0065
12730SOL    HW250250   9.844   6.318   9.755 -1.7492  0.3898  0.3733
12731SOL     OW50251   3.858   8.489   4.066 -0.6350 -0.0988 -0.4499
12731SOL    HW150252   3.759   8.472   4.071 -0.7604  0.5549 -0.6930
12731SOL    HW250253   3.874   8.587   4.058  0.0967 -0.0644  1.2733
12732SOL     OW50254   8.270   4.967   6.735 -0.4546  0.0759  0.5886
12732SOL    HW150255   8.286   4.906   6.657 -2.1700 -0.2137  0.4492
12732SOL    HW250256   8.241   4.913   6.814 -1.1527  0.6342  0.7153
12733SOL     OW50257   9.253   4.215   0.040 -0.4335 -0.5062 -0.1849
12733SOL    HW150258   9.189   4.174  -0.024 -0.2420  0.4882 -1.0423
12733SOL    HW250259   9.216   4.302   0.074  0.8845  0.6250 -1.5260
12734SOL     OW50260   8.162   6.704   4.446 -0.0250 -0.2451 -0.2167
12734SOL    HW150261   8.236   6.736   4.504  0.8726  1.3449 -2.1824
12734SOL    HW250262   8.079   6.691   4.501  0.6863  1.5647  1.3177
12735SOL     OW50263   3.306   3.361   9.690  0.2630  0.4635 -0.2501
12735SOL    HW150264   3.240   3.328   9.623 -0.4309  0.4058  0.4449
12735SOL    HW250265   3.265   3.437   9.742  0.4654 -0.0678  0.7007
12736SOL     OW50266   5.374   2.841   5.638 -0.1161 -0.6306  0.6076
12736SOL    HW150267   5.301   2.784   5.676  0.4923 -0.1969  2.5167
12736SOL    HW250268   5.441   2.783   5.592 -0.9948 -1.1595 -0.0261
12737SOL     OW50269   4.692   7.233   2.403 -0.2387 -0.4532 -0.2583
12737SOL    HW150270   4.665   7.327   2.422 -2.4772 -0.7137 -1.9514
12737SOL    HW250271   4.725   7.190   2.487 -0.4824  1.4099  0.8100
12738SOL     OW50272   6.738   6.999   7.928 -0.5588 -0.5040 -0.6042
12738SOL    HW150273   6.690   6.919   7.964 -0.5261 -0.9354 -1.4985
12738SOL    HW250274   6.714   7.011   7.832 -3.6839  2.9214  0.4916
12739SOL     OW50275   8.066   3.902   9.282 -0.2088 -0.2728 -0.0638
12739SOL    HW150276   7.990   3.938   9.337 -1.2114 -0.8139 -1.0869
12739SOL    HW250277   8.080   3.806   9.304 -0.4690 -0.4330 -0.5910
12740SOL     OW50278   6.276   0.159   5.643 -0.2679  0.2339  0.7631
12740SOL    HW150279   6.295   0.166   5.741  2.9859 -0.0235  0.2146
12740SOL    HW250280   6.274   0.063   5.617 -1.3705  0.2963  0.5942
12741SOL     OW50281   8.888   8.650   2.465 -0.3258 -0.7692  0.3671
12741SOL    HW150282   8.888   8.728   2.528 -0.8617 -0.4241 -0.0502
12741SOL    HW250283   8.800   8.645   2.419  0.8804  0.4983 -2.1989
12742SOL     OW50284   2.972   0.690   1.470 -0.0094  0.1224 -0.0292
12742SOL    HW150285   2.981   0.775   1.419  3.1180  0.5911  1.1953
12742SOL    HW250286   2.931   0.620   1.412 -1.3324  2.0612 -1.4824
12743SOL     OW50287   0.539   7.522   1.039  0.3146 -0.2266 -0.4994
12743SOL    HW150288   0.558   7.424   1.044 -0.1296 -0.2795  0.1995
12743SOL    HW250289   0.466   7.546   1.103  0.0372  0.4700 -1.0619
12744SOL     OW50290   7.956   8.891   4.495  0.1044  0.4304 -0.0408
12744SOL    HW150291   7.936   8.855   4.403  0.9590  0.6096 -0.3012
12744SOL    HW250292   8.018   8.969   4.487  1.8018 -0.7997  0.8119
12745SOL     OW50293   5.965   0.263   1.696  0.2242  0.2457  0.5152
12745SOL    HW150294   5.870   0.294   1.689  0.0777 -0.0670  1.1334
12745SOL    HW250295   5.969   0.178   1.747  0.7693 -0.1106 -0.1124
12746SOL     OW50296   7.402   9.294   5.704  0.4338 -0.3474  0.2409
12746SOL    HW150297   7.413   9.296   5.605 -0.8296  1.2403  0.0983
12746SOL    HW250298   7.488   9.266   5.747  0.5908 -2.4042 -1.3439
12747SOL     OW50299   6.357   4.071   3.001 -0.1113 -0.0947  0.0690
12747SOL    HW150300   6.289   4.049   3.071  0.2512 -0.0556  0.4361
12747SOL    HW250301   6.446   4.036   3.029 -0.0649 -0.5456 -0.6208
12748SOL     OW50302   0.974   3.481   9.507  0.1643 -0.2823 -0.3225
12748SOL    HW150303   0.920   3.525   9.435  0.8393  0.2281 -0.5276
12748SOL    HW250304   0.943   3.512   9.596 -0.3749 -0.5640 -0.4120
12749SOL     OW50305   2.608   8.861   8.118 -0.0678 -0.6416  0.6087
12749SOL    HW150306   2.629   8.910   8.203  0.1472  0.8848 -0.2994
12749SOL    HW250307   2.521   8.813   8.129 -0.9826  1.0533  1.1077
12750SOL     OW50308   5.280   7.201   6.898 -0.6702 -0.1263  0.1091
12750SOL    HW150309   5.213   7.166   6.833  0.1104 -1.3772 -0.0347
12750SOL    HW250310   5.348   7.257   6.851 -0.1628 -0.9503 -0.1513
12751SOL     OW50311   6.570   4.506   8.558 -0.0050 -0.2201 -0.2576
12751SOL    HW150312   6.503   4.454   8.612 -1.4314  0.8576 -0.9532
12751SOL    HW250313   6.543   4.602   8.554  1.4213  0.1708 -0.8345
12752SOL     OW50314   5.660   1.606   0.277  0.0423  0.2580  0.2921
12752SOL    HW150315   5.583   1.561   0.322 -1.2214  0.1137 -1.9398
12752SOL    HW250316   5.632   1.638   0.186  2.5400  0.4147 -0.4715
12753SOL     OW50317   4.884   5.458   0.650  0.0574  0.3787 -0.6507
12753SOL    HW150318   4.924   5.463   0.558 -1.5062 -1.0428 -1.4568
12753SOL    HW250319   4.809   5.524   0.657 -1.1006 -0.8505 -1.0989
12754SOL     OW50320   5.243   3.732   9.589 -0.5431  0.0913 -0.5334
12754SOL    HW150321   5.150   3.696   9.593 -0.5360  0.0360 -0.8384
12754SOL    HW250322   5.243   3.828   9.616 -0.6324 -0.0049 -0.1788
12755SOL     OW50323   3.791   8.104   1.304 -0.0962 -0.1616  0.2346
12755SOL    HW150324   3.731   8.069   1.376  0.0380  1.8047  1.3420
12755SOL    HW250325   3.785   8.203   1.302  2.5925  0.0141 -0.1235
12756SOL     OW50326   4.853   0.939   4.743  0.4449  0.1319  0.1583
12756SOL    HW150327   4.899   0.878   4.678 -0.4718  1.8642 -2.2024
12756SOL    HW250328   4.755   0.919   4.744  0.1539  1.4631 -0.5502
12757SOL     OW50329   3.783   9.848   5.591 -0.4176 -0.1900 -0.4429
12757SOL    HW150330   3.708   9.905   5.558 -0.2514  0.6175  0.5417
12757SOL    HW250331   3.844   9.903   5.647  1.0626 -0.7791 -1.4510
12758SOL     OW50332   1.863   2.863   7.506  0.1701 -0.4026 -0.2771
12758SOL    HW150333   1.836   2.829   7.596  1.2927 -1.4052 -0.3079
12758SOL    HW250334   1.804   2.939   7.480 -0.9775 -0.9331  0.7489
12759SOL     OW50335   5.415   2.652   0.640  0.2599 -1.0522  0.0750
12759SOL    HW150336   5.484   2.580   0.650  1.1138 -0.0523  1.6861
12759SOL    HW250337   5.461   2.741   0.642 -0.9449 -0.4227 -0.3260
12760SOL     OW50338   8.273   7.516   6.188 -0.0540 -0.2057  0.4587
12760SOL    HW150339   8.225   7.430   6.170  1.4015 -1.3422  1.7893
12760SOL    HW250340   8.333   7.504   6.267 -0.0324  2.1323  0.8347
12761SOL     OW50341   7.196   0.391   2.493 -0.4334 -0.5009  0.2868
12761SOL    HW150342   7.191   0.446   2.576 -0.4535 -0.1364  0.0409
12761SOL    HW250343   7.166   0.297   2.514  1.1454 -0.8574  1.0882
12762SOL     OW50344   0.409   9.778   6.866 -0.6529 -0.4254 -0.1631
12762SOL    HW150345   0.453   9.823   6.788  0.2465 -0.3283  0.3948
12762SOL    HW250346   0.340   9.713   6.833  1.0250 -1.7544 -1.0975
12763SOL     OW50347   3.955   4.563   1.982 -0.1033 -0.0868  0.2226
12763SOL    HW150348   3.930   4.577   1.886  1.4710 -0.5695 -0.2761
12763SOL    HW250349   4.002   4.475   1.991 -1.2949 -0.5971  1.6504
12764SOL     OW50350   3.585   4.553   3.025  0.4422 -0.1789 -0.4132
12764SOL    HW150351   3.594   4.552   3.124  0.9599  0.8460 -0.4461
12764SOL    HW250352   3.533   4.473   2.995  0.2695 -0.4749  0.6818
12765SOL     OW50353   5.011   2.973   6.135 -0.4097  0.4343 -0.1827
12765SOL    HW150354   5.085   3.028   6.097  0.0703  0.5521  0.8989
12765SOL    HW250355   5.049   2.887   6.170 -0.7992  0.4409  0.2611
12766SOL     OW50356   6.379   8.684   6.343 -0.3977 -0.1316 -0.4702
12766SOL    HW150357   6.307   8.740   6.384  0.9040  1.6527 -0.5306
12766SOL    HW250358   6.425   8.632   6.415  0.3737  1.2324  0.0457
12767SOL     OW50359   1.019   0.461   0.252 -0.1178  0.0724 -0.3856
12767SOL    HW150360   0.959   0.399   0.200  0.2850 -0.6994  0.0572
12767SOL    HW250361   1.094   0.491   0.193  0.6251 -1.2110 -0.1264
12768SOL     OW50362   1.708   0.466   6.636  0.3176 -0.2700 -0.0087
12768SOL    HW150363   1.771   0.534   6.598 -0.4294  0.9886  0.9639
12768SOL    HW250364   1.647   0.433   6.564 -0.0642  0.9363 -0.2585
12769SOL     OW50365   7.049   5.575   2.764  0.1387 -0.0271 -0.0108
12769SOL    HW150366   7.067   5.486   2.723  0.6602 -0.4980  1.2243
12769SOL    HW250367   7.114   5.592   2.838 -1.1383  0.5654  0.9924
12770SOL     OW50368   2.807   1.741   3.183 -0.3258 -0.2133 -0.1330
12770SOL    HW150369   2.778   1.652   3.148 -0.1321 -0.5333  0.5052
12770SOL    HW250370   2.885   1.775   3.130  0.5725 -1.1314  0.5980
12771SOL     OW50371   1.385   5.943   0.965 -0.0169 -0.0178 -0.1632
12771SOL    HW150372   1.305   5.888   0.944 -0.3806  1.0207 -1.5941
12771SOL    HW250373   1.360   6.016   1.030 -0.1101 -0.0252 -0.1913
12772SOL     OW50374   1.816   2.494   6.977  0.4277  0.0971  0.6789
12772SOL    HW150375   1.860   2.405   6.965  2.3815  1.3783 -2.1156
12772SOL    HW250376   1.730   2.496   6.926 -0.7760 -0.8946  2.5803
12773SOL     OW50377   1.086   0.096   0.269 -0.5389  0.7691 -0.5609
12773SOL    HW150378   1.081   0.181   0.322  0.2096 -0.9972  2.4323
12773SOL    HW250379   0.996   0.074   0.232 -1.0965  1.9895  0.0280
12774SOL     OW50380   6.677   6.489   1.229 -0.3208  0.0357 -0.0461
12774SOL    HW150381   6.685   6.473   1.327 -0.1510  0.7984  0.0686
12774SOL    HW250382   6.766   6.475   1.185 -0.6193 -1.2781 -0.2384
12775SOL     OW50383   8.058   5.022   4.293 -0.2779  0.1724  0.0055
12775SOL    HW150384   8.057   5.021   4.393 -1.8035  0.3623  0.0052
12775SOL    HW250385   8.083   5.113   4.260 -2.6959  0.9735  0.2449
12776SOL     OW50386   1.436   2.558   9.081 -0.5501 -0.3627  0.5485
12776SOL    HW150387   1.516   2.582   9.135 -0.2986 -1.2537  0.5787
12776SOL    HW250388   1.434   2.459   9.066 -2.1118 -0.4638  1.2998
12777SOL     OW50389   8.697   7.643   5.711 -0.0473  0.5074 -0.0311
12777SOL    HW150390   8.737   7.720   5.760  0.5455  0.3817 -0.3154
12777SOL    HW250391   8.630   7.597   5.769 -0.3031  1.1533  0.1856
12778SOL     OW50392   9.338   5.634   3.429  0.6418  0.1971 -0.0652
12778SOL    HW150393   9.350   5.687   3.513  0.0775 -0.1564  0.2377
12778SOL    HW250394   9.386   5.547   3.439 -0.9615 -0.6181  0.5970
12779SOL     OW50395   4.058   9.030   6.375 -0.1992 -0.2543  0.0199
12779SOL    HW150396   3.991   9.074   6.315  0.2896  0.4093 -0.0357
12779SOL    HW250397   4.140   9.006   6.323 -0.2923 -0.8627  0.1400
12780SOL     OW50398   1.207   1.213   8.358  0.0320 -0.2863  0.0882
12780SOL    HW150399   1.116   1.204   8.397  0.3885 -1.6927  0.6249
12780SOL    HW250400   1.224   1.308   8.333 -0.9089  0.2824  1.6040
12781SOL     OW50401   2.840   8.264   9.396 -0.4053 -0.2204  0.1422
12781SOL    HW150402   2.884   8.228   9.314 -1.1210 -2.0070  0.5164
12781SOL    HW250403   2.848   8.364   9.397 -0.2110 -0.1927 -1.9788
12782SOL     OW50404   5.190   4.560   9.664  0.0895  0.0082 -0.2499
12782SOL    HW150405   5.203   4.524   9.756  2.6011  0.9421 -0.1785
12782SOL    HW250406   5.277   4.554   9.614 -0.7117  1.4002 -1.8718
12783SOL     OW50407   9.832   5.977   3.042 -0.3855 -0.1481  0.2054
12783SOL    HW150408   9.757   5.964   2.978 -0.0710  0.6489 -0.3346
12783SOL    HW250409   9.829   6.070   3.079  1.4138  0.5105 -1.2360
12784SOL     OW50410   7.495   0.376   2.749  0.3167  0.2159  0.0770
12784SOL    HW150411   7.486   0.405   2.654  0.8942  1.3384  0.3550
12784SOL    HW250412   7.579   0.413   2.788  1.2327 -2.0571  0.3904
12785SOL     OW50413   3.651   8.974   0.486  0.5409 -0.0231 -0.2694
12785SOL    HW150414   3.604   9.061   0.476  2.4852  1.2066  0.8877
12785SOL    HW250415   3.749   8.987   0.470  1.0111 -1.7536  1.0487
12786SOL     OW50416   6.034   1.533   0.328  0.2739 -0.0694  0.8336
12786SOL    HW150417   5.999   1.492   0.244  0.5128 -2.3586  1.8313
12786SOL    HW250418   6.118   1.486   0.356  1.1532  1.7913  1.4578
12787SOL     OW50419   1.654   4.600  10.048 -0.5318  0.8838 -0.1803
12787SOL    HW150420   1.742   4.582  10.005  0.2644  0.1162  1.6981
12787SOL    HW250421   1.586   4.620   9.978  1.0059  0.9588 -1.6879
12788SOL     OW50422   7.887   0.309   7.162  0.1503 -0.2788 -0.1844
12788SOL    HW150423   7.811   0.363   7.127  1.1002  0.4513 -1.1422
12788SOL    HW250424   7.852   0.226   7.205 -1.3358  1.1441  1.4389
12789SOL     OW50425   2.062   3.190   2.950 -0.0216 -0.2588 -0.2424
12789SOL    HW150426   2.137   3.140   2.992  0.7220  0.7654 -0.3135
12789SOL    HW250427   2.094   3.235   2.867 -1.1793 -1.3017 -1.2773
12790SOL     OW50428   5.993   1.608   4.560 -0.3312 -0.3976 -0.8186
12790SOL    HW150429   6.001   1.508   4.567 -1.6952 -0.4714 -0.2214
12790SOL    HW250430   6.017   1.650   4.647 -2.5165 -0.4015 -0.1708
12791SOL     OW50431   3.261   2.522   3.454 -0.2227  0.1752  0.3782
12791SOL    HW150432   3.325   2.554   3.523 -0.2845 -0.9829  0.9791
12791SOL    HW250433   3.188   2.589   3.443 -0.2734  0.3090  1.5119
12792SOL     OW50434   8.159   5.041   0.451  0.1692 -0.2609  0.2402
12792SOL    HW150435   8.254   5.055   0.479  0.5541 -0.3964 -0.9610
12792SOL    HW250436   8.120   4.965   0.502  1.2866 -1.3912 -0.5719
12793SOL     OW50437   1.416   6.333   2.092 -0.2639 -0.0778 -0.3911
12793SOL    HW150438   1.448   6.248   2.134 -1.6299 -0.1005  0.6214
12793SOL    HW250439   1.419   6.324   1.993  0.1189 -1.1060 -0.2955
12794SOL     OW50440   2.878   9.239   4.664 -0.4078  0.6007  0.0942
12794SOL    HW150441   2.871   9.336   4.687 -0.0342  0.6264  0.0898
12794SOL    HW250442   2.820   9.220   4.584 -0.3190  0.8579 -0.0311
12795SOL     OW50443   2.810   1.208   8.454 -0.1032  0.2647 -0.1271
12795SOL    HW150444   2.898   1.255   8.455 -0.1019  0.2618  0.3419
12795SOL    HW250445   2.738   1.271   8.426 -0.2137  0.7613  1.2265
12796SOL     OW50446   5.022   0.995   4.963  0.0272 -0.3890  0.1980
12796SOL    HW150447   5.100   1.042   4.921 -1.1156  2.0072  0.6655
12796SOL    HW250448   4.953   0.976   4.893 -0.5681  0.8807  0.4218
12797SOL     OW50449   3.618   0.016   2.805 -0.4526 -0.3778 -0.2210
12797SOL    HW150450   3.630   0.112   2.782  1.0368 -0.5818 -0.3290
12797SOL    HW250451   3.641  -0.040   2.726 -1.6524 -0.8236 -0.2712
12798SOL     OW50452   9.855   8.789   6.788 -0.3498 -0.3738 -0.4805
12798SOL    HW150453   9.860   8.708   6.730 -0.1810  0.4455 -1.6356
12798SOL    HW250454   9.947   8.824   6.804 -0.4886  0.1476 -0.8017
12799SOL     OW50455   9.057   4.889   8.382  0.0803  0.1444 -0.0035
12799SOL    HW150456   8.985   4.882   8.313 -0.2351 -1.2378  0.4441
12799SOL    HW250457   9.121   4.813   8.372  0.4306  0.3272  0.7891
12800SOL     OW50458   3.774   2.054   6.088  0.0143 -0.3568  0.2030
12800SOL    HW150459   3.749   2.040   5.992  1.7792  0.5319 -0.4195
12800SOL    HW250460   3.828   2.138   6.096 -0.3298 -0.2965  2.0152
12801SOL     OW50461   1.654   8.753   2.675 -0.1547  0.0144 -0.0271
12801SOL    HW150462   1.586   8.685   2.701 -0.4786  0.9959  1.8011
12801SOL    HW250463   1.737   8.707   2.643 -0.6409 -1.2221  0.4647
12802SOL     OW50464   1.676   2.697   6.339  0.1235 -0.1174  0.8733
12802SOL    HW150465   1.735   2.630   6.385 -2.1017 -2.4113  0.4986
12802SOL    HW250466   1.694   2.693   6.240  0.4644  0.3275  0.9166
12803SOL     OW50467   4.879   5.076   1.992 -0.2807 -0.6214  0.2680
12803SOL    HW150468   4.889   5.079   1.893  0.0979 -2.9225  0.2112
12803SOL    HW250469   4.960   5.116   2.036  0.9255 -2.3490 -0.3406
12804SOL     OW50470   2.387   4.595   6.707  0.2516  0.2971 -0.2868
12804SOL    HW150471   2.466   4.534   6.714  0.8844  1.2365  1.2253
12804SOL    HW250472   2.303   4.542   6.714  0.7731 -0.5912 -0.6887
12805SOL     OW50473   8.330   1.816   4.889 -0.0241 -0.2167  0.8009
12805SOL    HW150474   8.283   1.903   4.871  0.6056 -0.0377  0.0382
12805SOL    HW250475   8.354   1.811   4.986 -0.7904  0.1019  1.0110
12806SOL     OW50476   0.736   0.956   7.074 -0.0362 -0.3297  0.6014
12806SOL    HW150477   0.827   0.919   7.090 -0.4006 -1.3153  0.4271
12806SOL    HW250478   0.723   1.039   7.129  0.7763 -0.4707  1.0041
12807SOL     OW50479   5.671   0.001   4.194 -0.4996 -0.1190 -0.4201
12807SOL    HW150480   5.677  -0.080   4.253  1.6062 -0.9172 -1.7042
12807SOL    HW250481   5.575   0.019   4.173 -1.1303 -1.1069  1.4652
12808SOL     OW50482   0.635   4.270   2.968  0.0264 -0.1065 -0.1112
12808SOL    HW150483   0.687   4.239   2.888 -0.5942 -0.1253 -0.5184
12808SOL    HW250484   0.693   4.325   3.028  0.7300 -0.8023 -0.1512
12809SOL     OW50485   0.746   5.661   4.784  0.4358 -0.5606  0.4097
12809SOL    HW150486   0.808   5.641   4.860  1.2092  0.6654  0.1136
12809SOL    HW250487   0.667   5.712   4.817  0.4814 -0.5399  0.4870
12810SOL     OW50488   4.233   6.368  10.044 -0.4085 -0.0864 -0.4349
12810SOL    HW150489   4.271   6.421   9.968  0.3851  0.4487  0.3256
12810SOL    HW250490   4.195   6.430  10.113 -0.1828 -0.5347  0.0977
12811SOL     OW50491   9.856   9.030   3.000  0.4361  0.6512  1.0123
12811SOL    HW150492   9.891   9.066   3.086  1.5639  0.0940  0.7948
12811SOL    HW250493   9.891   8.938   2.985  1.3510  1.2446 -0.6840
12812SOL     OW50494   1.607   7.444   3.813 -0.2496 -0.3670 -1.0298
12812SOL    HW150495   1.670   7.404   3.880 -0.7342  0.2060 -0.2191
12812SOL    HW250496   1.657   7.463   3.728  0.8122  0.5765 -0.2207
12813SOL     OW50497   9.951   8.499   7.040  0.4649 -0.5168 -0.1955
12813SOL    HW150498   9.998   8.567   7.095 -1.2039 -0.5673  1.3298
12813SOL    HW250499   9.875   8.542   6.992  0.8262 -0.8401 -1.0726
12814SOL     OW50500   9.011   0.096   2.598  0.2628  0.4805 -0.2972
12814SOL    HW150501   9.030   0.119   2.503 -0.6969 -1.6760 -1.0363
12814SOL    HW250502   8.946   0.162   2.636  1.8973  2.3025 -0.6173
12815SOL     OW50503   1.128   8.047   4.732  1.0546  0.2717  0.3308
12815SOL    HW150504   1.079   7.982   4.673  0.7570  0.5971  0.2206
12815SOL    HW250505   1.189   8.103   4.676  1.3376  0.0613  0.4309
12816SOL     OW50506   1.993   0.960   8.165 -0.4206 -0.2754  0.4770
12816SOL    HW150507   1.922   0.890   8.177 -0.0485 -0.7026  0.2061
12816SOL    HW250508   1.970   1.019   8.088  0.4088 -1.5278 -0.7517
12817SOL     OW50509   4.264   4.937   1.187  0.1045  0.0194  0.0230
12817SOL    HW150510   4.269   4.837   1.196  1.5487 -0.2433 -3.0522
12817SOL    HW250511   4.278   4.962   1.091  1.7816  3.2844  1.0552
12818SOL     OW50512   6.386   5.978   2.280 -0.2369  0.0616 -0.0319
12818SOL    HW150513   6.410   6.046   2.211  0.2799 -0.5012 -0.4111
12818SOL    HW250514   6.461   5.971   2.347  0.2128 -0.9525 -0.6359
12819SOL     OW50515   7.509   2.148   0.080  0.3711 -0.2608  0.6041
12819SOL    HW150516   7.527   2.186   0.171 -0.5249 -0.9106  1.0690
12819SOL    HW250517   7.410   2.142   0.066  0.5052 -0.7046 -0.1808
12820SOL     OW50518   1.946   6.695   5.812 -0.0297  0.5642  0.0759
12820SOL    HW150519   1.932   6.772   5.875 -2.1663 -1.3898  2.0724
12820SOL    HW250520   1.863   6.640   5.808  1.4955 -1.7021 -1.2616
12821SOL     OW50521   2.217   9.730   8.831  0.2854 -0.3946 -0.1608
12821SOL    HW150522   2.233   9.801   8.900 -1.2096  0.2831 -0.5053
12821SOL    HW250523   2.160   9.766   8.758 -2.1559 -2.5076  0.6516
12822SOL     OW50524   3.402   5.158   9.461  0.6874  0.4419 -0.5715
12822SOL    HW150525   3.487   5.194   9.421  1.0468  0.8294  0.5123
12822SOL    HW250526   3.324   5.206   9.422  1.0830  1.4282 -0.1635
12823SOL     OW50527   0.550   9.476   4.367  0.7893 -0.5955  0.0236
12823SOL    HW150528   0.632   9.429   4.335 -0.0174 -1.0602 -1.4188
12823SOL    HW250529   0.559   9.574   4.349  1.3487 -0.5503  0.5619
12824SOL     OW50530   5.749   8.922   2.657  0.6171 -0.3254  0.3589
12824SOL    HW150531   5.693   8.927   2.739 -1.0080 -2.2491 -0.5766
12824SOL    HW250532   5.774   9.014   2.627 -2.1110  0.5689  0.7733
12825SOL     OW50533   9.548   7.370   1.533  0.3411  0.3439  0.0297
12825SOL    HW150534   9.522   7.311   1.457 -0.7802  0.8400  0.0263
12825SOL    HW250535   9.549   7.466   1.502 -1.9625  0.7325  1.1191
12826SOL     OW50536   7.800   5.082   7.017 -0.2092 -0.0482  0.3343
12826SOL    HW150537   7.808   5.083   6.917 -0.9318 -1.4187  0.2490
12826SOL    HW250538   7.871   5.024   7.055 -0.9297 -0.8207  0.5063
12827SOL     OW50539   0.127   4.093   6.517  0.0965 -0.3114 -0.0332
12827SOL    HW150540   0.197   4.041   6.469 -0.0089  1.0194 -1.6566
12827SOL    HW250541   0.037   4.053   6.500  0.1071 -0.0923 -0.6053
12828SOL     OW50542   3.982   9.842   8.116  0.4045 -0.4278  0.6182
12828SOL    HW150543   4.024   9.781   8.049 -1.4776  0.8333 -1.8121
12828SOL    HW250544   3.916   9.790   8.171 -1.1256 -0.6627 -1.3758
12829SOL     OW50545   7.361   7.199   4.951 -0.5196  0.0941 -0.0338
12829SOL    HW150546   7.406   7.229   5.035 -1.2669 -1.3055  0.9022
12829SOL    HW250547   7.400   7.112   4.921 -0.7529  0.2230 -0.7322
12830SOL     OW50548   5.193   3.615   2.696  0.6164  0.0306  0.4760
12830SOL    HW150549   5.149   3.529   2.669  2.0866 -1.0490  1.4394
12830SOL    HW250550   5.143   3.656   2.772 -0.6864  0.5794 -0.6488
12831SOL     OW50551   4.995   7.507   7.302 -0.0576 -0.2768  0.4130
12831SOL    HW150552   4.909   7.528   7.348 -0.8816  0.5811 -1.4491
12831SOL    HW250553   5.001   7.408   7.286 -1.2094 -0.2292 -0.3982
12832SOL     OW50554   7.906   7.909   3.602 -0.1993 -0.1739  0.4380
12832SOL    HW150555   7.939   7.887   3.693  0.1802  0.3645  0.4305
12832SOL    HW250556   7.936   8.001   3.576  1.7346 -1.1888 -1.1566
12833SOL     OW50557   3.883   1.395   7.040 -1.2033 -0.3306  0.4794
12833SOL    HW150558   3.904   1.414   7.136 -0.3166  0.3474  0.1644
12833SOL    HW250559   3.833   1.472   7.001 -1.3877 -0.5186  0.3489
12834SOL     OW50560   0.415   3.305   7.952 -0.0303  0.0695  0.0429
12834SOL    HW150561   0.431   3.391   7.902  0.4533 -0.2277 -0.3110
12834SOL    HW250562   0.338   3.257   7.910 -0.2299  0.2741  0.1709
12835SOL     OW50563   5.570   4.727   9.584 -0.0481 -0.2970 -0.0244
12835SOL    HW150564   5.504   4.796   9.613  0.1673  0.2549 -0.8379
12835SOL    HW250565   5.638   4.768   9.524  0.2374 -1.1551 -0.3009
12836SOL     OW50566   5.194   0.380   8.247  0.5612  0.0681  0.1294
12836SOL    HW150567   5.133   0.428   8.310 -0.1031 -1.0748  0.3605
12836SOL    HW250568   5.200   0.284   8.272  1.3634 -0.1187 -0.7332
12837SOL     OW50569   3.714   2.105   8.987  0.1643 -0.2315 -0.6618
12837SOL    HW150570   3.697   2.200   8.962 -2.0133 -0.3781  0.1441
12837SOL    HW250571   3.660   2.081   9.068  0.6120 -2.1745 -0.8987
12838SOL     OW50572   5.583   1.295   2.153  0.8343  0.2840 -0.0683
12838SOL    HW150573   5.631   1.309   2.066 -1.4656  0.4523 -1.3572
12838SOL    HW250574   5.503   1.237   2.137  0.9572 -0.5188  2.1520
12839SOL     OW50575   2.965   8.154   0.837  0.3441  0.1060 -0.1303
12839SOL    HW150576   3.025   8.216   0.787  1.9351 -0.8411  0.5895
12839SOL    HW250577   3.011   8.122   0.919 -1.2614 -0.4107  0.5849
12840SOL     OW50578   0.241   2.486   8.858 -0.0751  0.3979 -0.1433
12840SOL    HW150579   0.340   2.490   8.875 -0.1818  1.7597  0.1612
12840SOL    HW250580   0.200   2.575   8.877 -1.0906  0.3478 -1.9917
12841SOL     OW50581   2.151   0.922   8.392  0.1112  0.4224 -0.6383
12841SOL    HW150582   2.113   0.976   8.316  0.3712  1.1178 -0.2800
12841SOL    HW250583   2.199   0.983   8.455  1.1092 -0.3415 -0.6470
12842SOL     OW50584   8.186   2.291   1.919  0.4359 -0.0499 -0.5222
12842SOL    HW150585   8.175   2.192   1.910 -0.5415  0.0124 -0.0734
12842SOL    HW250586   8.131   2.324   1.995  1.4561  0.7241 -0.1056
12843SOL     OW50587   3.073   3.705   6.651  0.5119 -0.0011 -0.1247
12843SOL    HW150588   3.003   3.773   6.672  0.2328 -0.2350 -0.3037
12843SOL    HW250589   3.044   3.649   6.573  0.9119 -0.0725 -0.2237
12844SOL     OW50590   8.910   2.508   4.986 -0.0765  0.0672  0.2189
12844SOL    HW150591   9.001   2.545   5.006 -0.2427 -0.4843  2.0771
12844SOL    HW250592   8.910   2.409   4.999 -0.9266  0.0507  0.1546
12845SOL     OW50593   3.195   4.798   8.292 -0.5287 -0.4084 -0.4954
12845SOL    HW150594   3.118   4.860   8.277 -1.8482 -1.9777 -0.3118
12845SOL    HW250595   3.169   4.705   8.267  0.0242 -1.6269  3.0842
12846SOL     OW50596   7.596   2.182   5.167  0.2842  0.4782  0.3488
12846SOL    HW150597   7.684   2.201   5.212  0.9027 -0.7026 -0.3277
12846SOL    HW250598   7.609   2.183   5.068 -0.0964 -1.3198  0.2617
12847SOL     OW50599   6.760   1.208   2.547 -0.0437  0.2764 -0.2619
12847SOL    HW150600   6.702   1.191   2.627  0.1771  1.4841  0.1701
12847SOL    HW250601   6.756   1.129   2.485  1.0016 -1.3531  1.6780
12848SOL     OW50602   9.685   1.251   6.776  0.2489 -0.4976  0.1831
12848SOL    HW150603   9.774   1.289   6.755  0.0165 -0.6997 -1.2147
12848SOL    HW250604   9.690   1.151   6.777 -0.0578 -0.5210 -0.3568
12849SOL     OW50605   3.557   7.371   0.457 -0.0993 -0.3234  0.2584
12849SOL    HW150606   3.644   7.420   0.468 -0.2553  0.0437 -0.1159
12849SOL    HW250607   3.488   7.434   0.421 -0.7006 -0.4310  1.1840
12850SOL     OW50608   1.078   4.987   5.205 -0.4319 -0.4347  0.1046
12850SOL    HW150609   1.124   4.982   5.294 -0.9965 -1.0893  0.3619
12850SOL    HW250610   1.085   4.899   5.159 -2.3516 -0.8872  0.6167
12851SOL     OW50611   3.407   3.670   5.877  0.1235 -0.4152 -0.1192
12851SOL    HW150612   3.418   3.708   5.969  2.1758  0.2759 -0.6377
12851SOL    HW250613   3.362   3.581   5.883  1.4844 -1.0126  1.6817
12852SOL     OW50614   4.164   1.701   1.472  0.2259 -0.1698  0.0789
12852SOL    HW150615   4.120   1.760   1.539 -0.7728  1.0650 -1.6231
12852SOL    HW250616   4.208   1.623   1.518  0.8544  1.4534  2.2602
12853SOL     OW50617   8.774   7.131   9.073  0.3761  0.1665 -0.1702
12853SOL    HW150618   8.871   7.117   9.054  0.5220 -1.2314  1.4600
12853SOL    HW250619   8.735   7.048   9.113 -1.4627  0.7606 -0.6647
12854SOL     OW50620   3.382   5.630   5.395  0.2001  0.6714  0.5748
12854SOL    HW150621   3.428   5.564   5.336 -0.9177 -0.7834  1.2763
12854SOL    HW250622   3.448   5.671   5.458  1.1287  1.1609 -0.6951
12855SOL     OW50623   4.539   3.581   6.369  0.1341 -0.0710 -0.0347
12855SOL    HW150624   4.569   3.529   6.449  0.8965 -1.6776 -1.3303
12855SOL    HW250625   4.618   3.606   6.314 -0.3716  1.1707 -0.2005
12856SOL     OW50626   2.386   7.784   5.092 -0.0105  0.0209  0.1402
12856SOL    HW150627   2.337   7.705   5.056  0.3803 -0.2617  0.2287
12856SOL    HW250628   2.408   7.768   5.188  1.2110 -0.3057 -0.1957
12857SOL     OW50629   1.616   1.126   9.106 -0.0310  0.9945  0.1837
12857SOL    HW150630   1.518   1.105   9.111 -0.0216  0.8770 -0.1155
12857SOL    HW250631   1.634   1.184   9.027  0.4927 -1.0525 -1.2494
12858SOL     OW50632   0.788   2.417   6.792 -0.2044 -0.5777 -0.0594
12858SOL    HW150633   0.786   2.479   6.870  1.0122 -0.8957  0.2326
12858SOL    HW250634   0.861   2.350   6.804  0.1346 -0.5010 -1.5568
12859SOL     OW50635   8.481   6.990   0.236  0.4565  0.4489 -0.0978
12859SOL    HW150636   8.395   6.998   0.286 -0.1636 -1.7250 -0.7988
12859SOL    HW250637   8.546   6.936   0.289 -0.1138 -1.6399 -1.4925
12860SOL     OW50638   7.069   5.112   9.284 -0.3686  0.1905 -0.0481
12860SOL    HW150639   7.029   5.179   9.346 -0.1129 -0.9996  1.4050
12860SOL    HW250640   7.149   5.152   9.239  0.1099  0.6666  1.2233
12861SOL     OW50641   9.251   2.099   3.231 -0.3184 -0.2019  0.4095
12861SOL    HW150642   9.288   2.192   3.232  0.6871 -0.5971  0.8053
12861SOL    HW250643   9.313   2.038   3.280 -0.0064 -1.4395 -1.4586
12862SOL     OW50644   8.583   8.112   8.644  0.3076 -0.1993 -0.2180
12862SOL    HW150645   8.518   8.052   8.691  1.1347  0.2235  1.5402
12862SOL    HW250646   8.619   8.179   8.710  3.6691 -1.3859 -0.7392
12863SOL     OW50647   9.405   9.928   8.208 -0.1233 -0.1361 -0.2631
12863SOL    HW150648   9.420   9.998   8.137 -0.1048 -0.0540 -0.1779
12863SOL    HW250649   9.401   9.972   8.297  1.4108 -0.4072 -0.0533
12864SOL     OW50650   6.430   5.739   0.530  0.1294 -0.3170  0.1091
12864SOL    HW150651   6.520   5.744   0.488  1.0064  0.7246  2.0207
12864SOL    HW250652   6.374   5.815   0.498  0.1865 -0.5354 -0.5125
12865SOL     OW50653   9.378   7.590   4.209  0.0839 -0.2364 -0.7450
12865SOL    HW150654   9.357   7.674   4.257  0.5884 -0.5545  0.0436
12865SOL    HW250655   9.338   7.593   4.117 -0.2297  0.6893 -0.5829
12866SOL     OW50656   3.871   1.048   6.093  0.3213  0.3713  0.3538
12866SOL    HW150657   3.855   1.098   6.008  0.6618 -0.8817 -0.4556
12866SOL    HW250658   3.967   1.057   6.120  0.4672 -0.1667  0.0066
12867SOL     OW50659   5.797   8.151   5.563 -0.2380  0.3471  0.2767
12867SOL    HW150660   5.787   8.172   5.466 -1.2884 -0.5210  0.1791
12867SOL    HW250661   5.708   8.125   5.600  0.5210 -1.2835  0.9916
12868SOL     OW50662   6.411   2.511   1.646 -0.2241 -0.0930 -0.3357
12868SOL    HW150663   6.415   2.464   1.734 -0.7091  0.9885  0.2759
12868SOL    HW250664   6.316   2.515   1.614 -0.0164 -0.7134 -1.0362
12869SOL     OW50665   7.968   9.980   8.769 -0.5573 -0.2571 -0.0669
12869SOL    HW150666   8.055   9.931   8.772  0.5528  1.6171 -0.7838
12869SOL    HW250667   7.985  10.075   8.745 -2.6744  0.4946  1.3402
12870SOL     OW50668   9.459   0.017   8.875 -0.0782  0.1865  0.0852
12870SOL    HW150669   9.475   0.067   8.790  1.6585  0.5707  0.6192
12870SOL    HW250670   9.496   0.069   8.952 -1.2703 -0.3504  1.0407
12871SOL     OW50671   7.289   0.128   4.477  0.0622 -0.5514  0.3149
12871SOL    HW150672   7.269   0.153   4.383  1.5822  0.8014  0.3246
12871SOL    HW250673   7.213   0.156   4.536  0.2303  0.9675 -0.1627
12872SOL     OW50674   2.771   0.468   5.289 -0.0990 -0.4300  0.0337
12872SOL    HW150675   2.788   0.559   5.250 -2.8858 -0.5688 -1.6197
12872SOL    HW250676   2.684   0.469   5.339 -0.7668 -2.4976 -1.0544
12873SOL     OW50677   7.231   5.085   1.918 -0.5949  0.2560 -0.6324
12873SOL    HW150678   7.330   5.089   1.905 -0.4190 -3.4759 -0.8641
12873SOL    HW250679   7.210   5.093   2.015 -0.0641  0.6638 -0.5483
12874SOL     OW50680   2.095   5.563   8.115  0.4479 -0.5904  0.2483
12874SOL    HW150681   2.188   5.547   8.148  0.2520  0.3044  1.2393
12874SOL    HW250682   2.037   5.485   8.140  0.9222 -1.1678 -0.4013
12875SOL     OW50683   7.955   3.326   6.312 -0.4086 -0.4461  0.2621
12875SOL    HW150684   7.988   3.235   6.287 -0.9861 -0.3679 -0.8258
12875SOL    HW250685   7.943   3.381   6.229  1.4690  1.1536  1.0317
12876SOL     OW50686   9.408   5.257   0.687  0.5528  0.3354 -0.3071
12876SOL    HW150687   9.484   5.318   0.663  2.0719 -0.8046  1.5179
12876SOL    HW250688   9.394   5.257   0.786 -2.0705  0.7732 -0.6346
12877SOL     OW50689   9.064   9.248   4.822 -0.2840  0.0717  0.2039
12877SOL    HW150690   9.009   9.216   4.900 -1.6661  0.3121 -0.6518
12877SOL    HW250691   9.086   9.345   4.835 -1.4823  0.4106 -0.2371
12878SOL     OW50692   4.320   4.022   2.948  0.3370  0.1730  0.2105
12878SOL    HW150693   4.367   3.992   2.865 -2.2693 -0.5859 -1.0301
12878SOL    HW250694   4.296   4.119   2.940  0.1184  0.1093  0.0966
12879SOL     OW50695   1.661   4.295   6.562  0.9931  0.0742  0.2808
12879SOL    HW150696   1.605   4.236   6.620  1.2017 -1.5048 -1.0949
12879SOL    HW250697   1.756   4.263   6.565  0.9180 -0.3138 -1.3006
12880SOL     OW50698   3.622   8.408  10.021 -0.5534 -0.7361  0.3547
12880SOL    HW150699   3.562   8.477   9.981 -0.1064 -0.5197  0.0607
12880SOL    HW250700   3.569   8.325  10.040 -1.1407 -0.2213  0.9546
12881SOL     OW50701   8.266   0.599   0.356 -0.4184 -0.7421 -0.5790
12881SOL    HW150702   8.249   0.670   0.424  0.2570 -0.2551 -0.9082
12881SOL    HW250703   8.180   0.571   0.314 -0.7471 -0.4936 -0.0803
12882SOL     OW50704   9.234   0.616   7.244 -0.4825  0.0209  0.0470
12882SOL    HW150705   9.139   0.624   7.215 -0.1765 -0.9956 -1.2885
12882SOL    HW250706   9.274   0.532   7.205  0.8088  0.1821  0.9893
12883SOL     OW50707   8.935   1.291   5.467  0.3979  0.3555 -0.0871
12883SOL    HW150708   9.007   1.268   5.402  0.2414 -1.0398  0.2182
12883SOL    HW250709   8.973   1.298   5.559  0.1912 -0.0780  0.0299
12884SOL     OW50710   3.028   2.647   4.279  0.4668 -0.4886 -0.1130
12884SOL    HW150711   2.967   2.629   4.357  2.7057 -1.2398  1.5176
12884SOL    HW250712   3.027   2.745   4.258 -0.1329 -0.2666  0.8894
12885SOL     OW50713   8.643   1.584   8.193 -0.2589 -0.5943 -0.3828
12885SOL    HW150714   8.582   1.506   8.206  0.5027 -0.8850  1.7461
12885SOL    HW250715   8.607   1.662   8.245  1.1009 -0.7402  0.7950
12886SOL     OW50716   3.456   2.944   5.584 -0.3720 -0.0023  0.5483
12886SOL    HW150717   3.554   2.960   5.596 -0.7596  1.2205  2.2765
12886SOL    HW250718   3.410   2.949   5.673 -2.1913  0.7276 -0.3979
12887SOL     OW50719   0.467   2.283   1.441  0.0568  0.2218 -0.1040
12887SOL    HW150720   0.369   2.286   1.457 -0.1901 -0.5319 -1.3390
12887SOL    HW250721   0.493   2.358   1.380 -0.0698 -0.6650 -1.2690
12888SOL     OW50722   4.376   1.414   8.170 -0.2314  0.5265  0.8946
12888SOL    HW150723   4.359   1.501   8.215 -0.7071  0.5945  0.5880
12888SOL    HW250724   4.312   1.403   8.094 -0.3395 -0.1980  1.0852
12889SOL     OW50725   8.452   0.498   6.770  0.0800  0.4234 -0.1293
12889SOL    HW150726   8.430   0.510   6.674  0.3444 -0.6560 -0.3265
12889SOL    HW250727   8.422   0.408   6.801  2.0905 -0.1701  0.1880
12890SOL     OW50728   4.432   7.616   2.819  0.2288 -0.1858  0.4462
12890SOL    HW150729   4.474   7.670   2.747 -1.5124  0.8433  0.1532
12890SOL    HW250730   4.430   7.669   2.904 -1.0611  0.0550  0.2787
12891SOL     OW50731   5.722   0.726   4.145  0.3532 -0.0470 -0.3120
12891SOL    HW150732   5.698   0.639   4.102 -0.4107  0.6438 -1.2854
12891SOL    HW250733   5.797   0.768   4.095  0.1572  0.2634 -0.3416
12892SOL     OW50734   7.939   2.916   8.819  0.5437 -0.1565  0.3988
12892SOL    HW150735   7.865   2.850   8.805  0.5126 -0.6092  2.5063
12892SOL    HW250736   7.981   2.938   8.732 -0.1740 -2.1221 -0.4657
12893SOL     OW50737   9.932   7.520   1.903 -0.0256 -0.1936  0.3312
12893SOL    HW150738   9.914   7.584   1.978  0.3732  1.6928 -1.1435
12893SOL    HW250739   9.878   7.437   1.916 -0.3573  0.3400  2.4247
12894SOL     OW50740   0.065   4.576   6.685  0.6423 -0.3148 -0.0893
12894SOL    HW150741  -0.016   4.592   6.628  0.3559  0.1994  0.4527
12894SOL    HW250742   0.112   4.494   6.653  1.7691  1.1947 -2.4971
12895SOL     OW50743   3.058   1.853   8.500  0.0437  0.4738 -0.1979
12895SOL    HW150744   3.076   1.762   8.462 -0.7976  0.0325  0.4168
12895SOL    HW250745   3.068   1.922   8.429  0.5751 -0.1180 -0.7045
12896SOL     OW50746   0.522   8.400   1.178  0.1080 -0.8798 -0.3291
12896SOL    HW150747   0.483   8.357   1.097  0.9438 -0.0868 -1.1521
12896SOL    HW250748   0.595   8.463   1.152 -0.0881 -0.0761  0.9689
12897SOL     OW50749   0.459   8.296   3.967 -0.1568 -0.1527 -0.2555
12897SOL    HW150750   0.391   8.359   4.004  0.1944  1.1463 -1.7385
12897SOL    HW250751   0.487   8.328   3.876  0.0979 -2.4157 -0.9870
12898SOL     OW50752   1.650   5.315   9.146  0.2538  0.3587 -0.0199
12898SOL    HW150753   1.687   5.290   9.236  0.0615 -1.8645 -0.5315
12898SOL    HW250754   1.724   5.311   9.079  0.0414  0.3866 -0.2511
12899SOL     OW50755   3.507   4.272   3.927 -0.3093  0.1709 -0.0597
12899SOL    HW150756   3.462   4.342   3.871  0.3486  0.4607 -0.2263
12899SOL    HW250757   3.562   4.213   3.868  0.5074  0.5722  0.3005
12900SOL     OW50758   4.163   5.301   3.469  0.1415  0.6616 -0.3152
12900SOL    HW150759   4.226   5.226   3.446  0.4772  1.5220 -2.3735
12900SOL    HW250760   4.069   5.266   3.471  0.4995 -0.2643  1.0050
12901SOL     OW50761   3.916   8.783   8.722 -0.2597  0.0648  0.1803
12901SOL    HW150762   3.992   8.827   8.675  2.0856 -3.6884  0.3496
12901SOL    HW250763   3.923   8.801   8.820 -0.1272  0.4679  0.0983
12902SOL     OW50764   6.701   1.669   0.160 -0.1751 -0.4128  0.2130
12902SOL    HW150765   6.642   1.634   0.087 -1.0064  2.2722 -0.4598
12902SOL    HW250766   6.645   1.702   0.236  0.5172  0.2217  0.4595
12903SOL     OW50767   6.864   6.867   7.402  0.6998 -0.3195 -0.0500
12903SOL    HW150768   6.825   6.777   7.386  0.3801  0.1629 -2.1068
12903SOL    HW250769   6.873   6.916   7.315  2.6037  0.9308  0.8203
12904SOL     OW50770   3.271   3.191   8.043 -0.0961 -0.0980 -0.0750
12904SOL    HW150771   3.178   3.218   8.069  0.4872  2.2694 -0.3505
12904SOL    HW250772   3.330   3.194   8.123 -0.0703 -0.7568 -0.0703
12905SOL     OW50773   3.900   6.043   2.908  0.6390 -0.1373 -0.3514
12905SOL    HW150774   3.850   5.997   2.981  0.5564 -0.7521 -0.7946
12905SOL    HW250775   3.998   6.038   2.927  0.5826  0.3160  0.0744
12906SOL     OW50776   4.207   8.172   9.269  0.6580  0.0798 -0.5307
12906SOL    HW150777   4.165   8.258   9.297 -0.8512 -0.5098 -0.9115
12906SOL    HW250778   4.303   8.171   9.296  0.0977  0.9115  1.6486
12907SOL     OW50779   9.265   3.721   5.843  1.1517 -0.9198  0.1987
12907SOL    HW150780   9.275   3.813   5.882 -4.4035  0.6176 -1.4163
12907SOL    HW250781   9.333   3.708   5.771  2.9867  1.3792  1.4487
12908SOL     OW50782   2.694   9.879   9.950  0.0260  0.3700 -0.4817
12908SOL    HW150783   2.599   9.910   9.953 -0.6943 -1.6409 -1.5569
12908SOL    HW250784   2.741   9.922   9.874  0.2541  2.0395  0.5616
12909SOL     OW50785   8.040   1.209   0.871  0.4494  0.3230 -0.8373
12909SOL    HW150786   8.088   1.226   0.785 -0.1120 -0.6547 -1.3508
12909SOL    HW250787   7.955   1.160   0.853  0.7898 -0.7270  0.3686
12910SOL     OW50788   0.706   7.379   8.531 -0.0521  0.3445  0.0746
12910SOL    HW150789   0.612   7.378   8.566  0.5294 -0.0989  1.6585
12910SOL    HW250790   0.720   7.461   8.476 -0.5762  1.7968  2.0485
12911SOL     OW50791   4.609   9.291   5.474  0.1687  0.0736 -0.0482
12911SOL    HW150792   4.692   9.322   5.429  0.1848 -0.3173 -0.2929
12911SOL    HW250793   4.534   9.288   5.408 -0.5834  2.4945  0.6395
12912SOL     OW50794   8.066   9.436   4.606  0.0865 -0.8417 -0.7258
12912SOL    HW150795   8.035   9.520   4.650 -0.7627 -0.9169 -1.1727
12912SOL    HW250796   8.153   9.408   4.645 -0.6578 -0.9148  0.8928
12913SOL     OW50797   2.975   9.611   6.032 -0.6721 -0.0058  0.0478
12913SOL    HW150798   2.954   9.516   6.057  1.5032 -1.1329 -2.1316
12913SOL    HW250799   3.046   9.647   6.093 -0.4962 -0.2637 -0.0035
12914SOL     OW50800   1.122   0.122   4.572 -0.0671 -0.0410  0.4288
12914SOL    HW150801   1.025   0.143   4.555 -0.1376  0.4665  1.3952
12914SOL    HW250802   1.178   0.197   4.539  0.0309 -0.4932 -0.4532
12915SOL     OW50803   6.222   1.786   0.655  0.8756  0.3409  0.1446
12915SOL    HW150804   6.133   1.768   0.697  1.2091  0.7955  1.0658
12915SOL    HW250805   6.215   1.773   0.556  0.2634 -1.4452  0.4015
12916SOL     OW50806   7.955   1.305   4.265 -0.5121  0.1345  0.0842
12916SOL    HW150807   7.989   1.258   4.184 -0.0555 -2.3786  1.6597
12916SOL    HW250808   7.909   1.239   4.325 -1.8647  2.1556  1.3227
12917SOL     OW50809   8.375   3.901   1.303  0.8320 -0.0617 -0.7477
12917SOL    HW150810   8.321   3.818   1.284 -0.5798 -0.0850  2.8983
12917SOL    HW250811   8.314   3.973   1.337  2.7082  0.9379  0.5411
12918SOL     OW50812   7.742   9.926   8.064 -0.6869 -0.5111  0.6382
12918SOL    HW150813   7.698   9.878   7.988  0.9493 -1.2902  0.1687
12918SOL    HW250814   7.727   9.874   8.149 -2.0918  0.1058  0.7889
12919SOL     OW50815   3.916   1.130   6.765  0.3923  0.3128 -0.2566
12919SOL    HW150816   3.861   1.134   6.848  0.4988 -0.2845 -0.1560
12919SOL    HW250817   4.009   1.102   6.787  0.5927  0.7790 -0.4986
12920SOL     OW50818   9.577   5.267   5.549 -0.7847 -0.5358  0.5738
12920SOL    HW150819   9.521   5.194   5.588 -1.4370  0.0014  0.6417
12920SOL    HW250820   9.630   5.310   5.623 -1.9900  0.4540  0.8845
12921SOL     OW50821   0.559   2.192   8.323  0.3854 -0.4175  0.2816
12921SOL    HW150822   0.536   2.144   8.239 -1.7648 -2.2623  1.8746
12921SOL    HW250823   0.561   2.127   8.399  2.0040  1.2605  1.7247
12922SOL     OW50824   7.716   6.247   5.661 -0.1999 -0.4494 -0.3787
12922SOL    HW150825   7.779   6.246   5.583  2.7635  1.6401  1.8622
12922SOL    HW250826   7.653   6.324   5.652 -0.2748 -0.5805 -1.0010
12923SOL     OW50827   9.926   0.751   0.813  0.0344 -0.0435 -0.5123
12923SOL    HW150828   9.929   0.847   0.784 -0.7511  0.5717  1.3758
12923SOL    HW250829   9.858   0.702   0.759 -1.1421  0.9938  0.0132
12924SOL     OW50830   9.180   4.762   1.336 -0.7377 -0.9702 -0.4115
12924SOL    HW150831   9.208   4.732   1.427  0.6597  0.9417 -0.1822
12924SOL    HW250832   9.237   4.719   1.266  0.1770 -0.1193 -0.1902
12925SOL     OW50833   2.949   6.583   1.818  0.1266 -0.3711 -0.1995
12925SOL    HW150834   2.986   6.565   1.727 -0.4715  1.6131 -0.8634
12925SOL    HW250835   2.994   6.663   1.857 -1.9799  0.8247 -0.1549
12926SOL     OW50836   6.023   1.445   8.988  0.0336  0.4442 -0.3087
12926SOL    HW150837   5.948   1.460   9.053 -0.9222 -1.8630 -0.8252
12926SOL    HW250838   5.985   1.416   8.900  1.4967  0.1040 -0.8389
12927SOL     OW50839   7.510   8.842   4.652  0.1348  0.0047  0.4444
12927SOL    HW150840   7.445   8.774   4.616 -0.8704  0.5505  1.2225
12927SOL    HW250841   7.590   8.795   4.688 -0.4467 -0.7594  0.7549
12928SOL     OW50842   4.905   4.489   2.370  0.2151  0.5700 -0.1857
12928SOL    HW150843   4.859   4.493   2.458 -0.4747  1.2860 -0.5712
12928SOL    HW250844   4.837   4.487   2.296  0.7393 -2.4539 -0.6504
12929SOL     OW50845   2.790   6.285   8.099 -0.2262  0.4255 -0.4981
12929SOL    HW150846   2.718   6.240   8.152 -0.5146 -0.5619 -1.7183
12929SOL    HW250847   2.868   6.224   8.090 -0.1675  0.5963 -1.1820
12930SOL     OW50848   7.244   6.021   6.156  0.1832 -1.1361  0.0708
12930SOL    HW150849   7.267   5.995   6.249  0.4007  0.8601  0.5952
12930SOL    HW250850   7.200   6.111   6.156 -0.7920 -1.5836 -1.6465
12931SOL     OW50851   3.492   5.355   7.449 -0.8538 -0.2032 -0.8855
12931SOL    HW150852   3.584   5.348   7.411 -0.0825  1.0574  0.7295
12931SOL    HW250853   3.469   5.270   7.497  0.2490  0.2305  0.4250
12932SOL     OW50854   1.093   8.555   0.003  0.3566 -0.1404  0.3661
12932SOL    HW150855   1.185   8.557   0.042  0.2104  1.1616  0.6728
12932SOL    HW250856   1.059   8.649  -0.007  0.0540 -0.4908 -2.0962
12933SOL     OW50857   9.726   9.243   8.117 -0.5456  0.0090  0.1576
12933SOL    HW150858   9.804   9.202   8.165 -1.4695 -1.1089  0.7202
12933SOL    HW250859   9.650   9.178   8.114 -1.7095  1.3341  0.2253
12934SOL     OW50860   8.309   6.783   5.210 -0.7080  0.3096 -0.1201
12934SOL    HW150861   8.383   6.793   5.277 -0.5845 -1.8520  0.0959
12934SOL    HW250862   8.224   6.820   5.248 -0.1492  1.1097  0.3582
12935SOL     OW50863   1.208   8.409   1.046 -0.2076 -1.0065  0.5414
12935SOL    HW150864   1.149   8.374   0.973 -1.9507  1.5776  0.6396
12935SOL    HW250865   1.244   8.332   1.099  0.0186 -2.8646 -2.1718
12936SOL     OW50866   5.959   9.293   6.425  0.0944 -0.1243  0.2237
12936SOL    HW150867   5.877   9.298   6.481  0.2105 -2.6826  0.6959
12936SOL    HW250868   6.033   9.345   6.469 -0.2975 -0.7143  1.6189
12937SOL     OW50869   1.590   9.235   9.030  0.2637 -0.2561 -0.5933
12937SOL    HW150870   1.565   9.304   8.962  0.6381 -1.7983 -2.3106
12937SOL    HW250871   1.510   9.178   9.051 -0.2764  1.1838  1.4598
12938SOL     OW50872   7.703   1.222   8.354  0.0021  0.1173 -0.3818
12938SOL    HW150873   7.672   1.185   8.266 -0.2966 -1.5623  0.4109
12938SOL    HW250874   7.653   1.178   8.428  1.2090  0.5386  0.7011
12939SOL     OW50875   5.146   4.400   8.311  0.2853  0.3582  0.3309
12939SOL    HW150876   5.128   4.426   8.406  0.4771 -0.3262  0.5541
12939SOL    HW250877   5.205   4.469   8.268 -0.9382  1.4027  0.2834
12940SOL     OW50878   8.859   5.233   4.705  0.2368  0.1205  0.1567
12940SOL    HW150879   8.956   5.212   4.721 -0.0298 -0.7166  0.6986
12940SOL    HW250880   8.818   5.265   4.790 -0.3068 -0.8932  0.2840
12941SOL     OW50881   8.190   6.415   5.271  0.0747  0.1957  0.2161
12941SOL    HW150882   8.177   6.406   5.173  0.4019  1.7533  0.0273
12941SOL    HW250883   8.288   6.406   5.293 -0.0052 -0.2274  0.4195
12942SOL     OW50884   5.428   1.941   1.760 -0.1105 -0.0798 -0.1114
12942SOL    HW150885   5.389   1.852   1.736 -0.5905  0.4641 -1.3900
12942SOL    HW250886   5.415   2.005   1.684 -0.0105  1.1633  0.9042
12943SOL     OW50887   7.771   1.511   6.748 -0.3202  0.1184 -0.0670
12943SOL    HW150888   7.827   1.587   6.781  0.6261 -0.3080 -0.6700
12943SOL    HW250889   7.676   1.541   6.741  0.3395  1.9115 -2.2157
12944SOL     OW50890   0.523   7.849   1.641 -0.0687  0.3404  0.3530
12944SOL    HW150891   0.586   7.820   1.569  0.4750 -0.5332  1.1676
12944SOL    HW250892   0.573   7.859   1.727 -0.9198  0.3120  0.8550
12945SOL     OW50893   8.367   3.163   2.986  0.0915 -0.4036 -0.0035
12945SOL    HW150894   8.374   3.142   2.888  0.5867 -0.6734  0.0877
12945SOL    HW250895   8.297   3.234   3.000 -0.8177 -1.2130 -0.4237
12946SOL     OW50896   6.150   9.152   3.010 -0.2221  1.0074 -0.5007
12946SOL    HW150897   6.243   9.115   3.006  0.1279  1.6543  1.1554
12946SOL    HW250898   6.084   9.077   3.007  0.3725  0.4939 -0.8764
12947SOL     OW50899   0.972   2.140   5.449  0.0981 -0.0354 -0.0407
12947SOL    HW150900   1.005   2.055   5.407 -1.0700  0.5605 -2.1800
12947SOL    HW250901   0.873   2.148   5.435 -0.5384 -0.3205  3.7198
12948SOL     OW50902   6.837   1.300   3.556  0.2736  0.4839 -0.3484
12948SOL    HW150903   6.757   1.331   3.608 -0.4715  0.1398 -1.2654
12948SOL    HW250904   6.839   1.200   3.556  0.9186  0.4921 -0.0296
12949SOL     OW50905   0.155   8.401   6.873 -0.2691  0.8961 -0.3368
12949SOL    HW150906   0.140   8.322   6.813  0.6739 -1.0408  1.8597
12949SOL    HW250907   0.074   8.414   6.931 -0.9623  2.4121 -1.6309
12950SOL     OW50908   0.659   6.387   4.173 -0.0439 -0.1761 -0.1183
12950SOL    HW150909   0.635   6.290   4.180  0.9088 -0.3106  1.8612
12950SOL    HW250910   0.652   6.428   4.264  2.2532  0.9521 -0.4350
12951SOL     OW50911   9.279   0.576   2.121  0.5669 -0.2206  0.2077
12951SOL    HW150912   9.279   0.477   2.105 -0.4452 -0.1962  0.0514
12951SOL    HW250913   9.229   0.622   2.047  0.8543  0.3923  0.3889
12952SOL     OW50914   4.696   9.513   5.668 -0.2853  0.2635 -0.6980
12952SOL    HW150915   4.747   9.453   5.729 -1.2942  0.5389  0.4358
12952SOL    HW250916   4.599   9.488   5.670 -0.4801  0.9427 -1.3990
12953SOL     OW50917   3.503   7.772   1.362  0.4393  0.1134 -0.3420
12953SOL    HW150918   3.569   7.713   1.407 -0.6430  0.3634  1.6365
12953SOL    HW250919   3.478   7.732   1.273  2.2128 -0.6599 -0.5055
12954SOL     OW50920   4.350   7.792   7.863 -0.6988 -0.1269  0.5233
12954SOL    HW150921   4.338   7.823   7.769  0.4676  0.6682  0.6325
12954SOL    HW250922   4.369   7.694   7.863  0.2061  0.0509 -0.1281
12955SOL     OW50923   0.609   0.725   9.681  0.0243  0.2642  1.0384
12955SOL    HW150924   0.614   0.753   9.585 -0.7163  0.9162  1.1865
12955SOL    HW250925   0.694   0.680   9.707  0.2360  0.1007  0.0802
12956SOL     OW50926   9.288   2.540   0.329 -0.2638 -0.0382 -0.3318
12956SOL    HW150927   9.332   2.506   0.412 -2.3945 -3.5318 -0.5343
12956SOL    HW250928   9.246   2.629   0.347  0.4614 -0.1221  1.9045
12957SOL     OW50929   2.381   5.375   7.648  0.1435 -0.0706  0.1546
12957SOL    HW150930   2.437   5.304   7.690  0.7579  0.6125  0.5047
12957SOL    HW250931   2.350   5.439   7.718 -0.3889  0.0137 -0.1571
12958SOL     OW50932   9.682   9.336   5.672 -0.6356 -0.3909  0.2064
12958SOL    HW150933   9.747   9.399   5.715 -0.5292  0.5341 -1.2605
12958SOL    HW250934   9.723   9.245   5.667  0.3916  0.0897 -0.3167
12959SOL     OW50935   9.759   1.483   4.427 -0.7798  0.1007 -0.1399
12959SOL    HW150936   9.793   1.408   4.484  1.2939 -0.7638 -2.4474
12959SOL    HW250937   9.682   1.452   4.373 -1.8715  0.5334  1.1356
12960SOL     OW50938   0.813   6.131   3.047 -0.2182  0.8095  0.1320
12960SOL    HW150939   0.847   6.210   3.098  1.6371 -0.2395  0.5771
12960SOL    HW250940   0.815   6.051   3.106  1.3014 -0.2931 -1.3788
12961SOL     OW50941   1.136   0.996   4.050  0.3409 -0.1013 -0.0635
12961SOL    HW150942   1.051   1.046   4.031 -1.2658 -1.7455  2.4307
12961SOL    HW250943   1.202   1.057   4.094 -0.6628  0.4760  0.6564
12962SOL     OW50944   5.185   9.864   6.362  0.3036  0.2493  0.2769
12962SOL    HW150945   5.274   9.908   6.352  0.3932 -0.6178 -3.7429
12962SOL    HW250946   5.118   9.910   6.304 -1.1925 -0.8340  1.1091
12963SOL     OW50947   7.579   2.902   4.941  0.3641  0.0374  0.6406
12963SOL    HW150948   7.674   2.885   4.915  0.9414  1.2522  1.9154
12963SOL    HW250949   7.574   2.922   5.039 -1.1940  0.0451  0.5706
12964SOL     OW50950   0.761   7.997   6.987 -0.0552  0.0912 -0.0097
12964SOL    HW150951   0.807   7.997   6.898  0.6781  0.3635  0.3599
12964SOL    HW250952   0.684   7.933   6.985 -1.0882  1.3446 -1.3669
12965SOL     OW50953   8.006   8.974   8.797 -0.0516 -0.2061 -0.3282
12965SOL    HW150954   8.077   8.994   8.730  0.9936 -0.3247  0.7152
12965SOL    HW250955   8.038   8.900   8.857 -1.6156 -1.2150 -0.7030
12966SOL     OW50956   2.806   7.266   3.008 -0.1461 -0.1408 -0.1165
12966SOL    HW150957   2.799   7.243   3.105 -1.3818 -1.8816 -0.5997
12966SOL    HW250958   2.899   7.298   2.988 -0.0175  0.6663  1.7143
12967SOL     OW50959   1.764   3.740   1.439 -0.2084  0.0219  0.1046
12967SOL    HW150960   1.665   3.724   1.441 -0.1547 -0.2153  0.8398
12967SOL    HW250961   1.803   3.725   1.530  0.2291  1.8819  0.2525
12968SOL     OW50962   0.505   5.520   9.966 -0.1230  0.2599 -0.0603
12968SOL    HW150963   0.574   5.567  10.022 -0.8044  2.4183 -0.9726
12968SOL    HW250964   0.550   5.449   9.912  1.4389  1.6557 -0.6636
12969SOL     OW50965   9.807   9.497   0.436  0.5000  0.8436  0.8595
12969SOL    HW150966   9.781   9.453   0.522 -0.4554  0.5309  0.4163
12969SOL    HW250967   9.750   9.460   0.361  0.9522  1.5023  0.1901
12970SOL     OW50968   7.168   4.513   9.651 -0.1005  0.1239 -0.1620
12970SOL    HW150969   7.183   4.593   9.593 -0.3201  1.5104  1.6592
12970SOL    HW250970   7.116   4.539   9.733  0.4775 -1.7264  0.8413
12971SOL     OW50971   1.782   8.089   7.951  0.3860 -0.7529 -0.1390
12971SOL    HW150972   1.863   8.084   8.009 -0.3114 -2.0856  0.7775
12971SOL    HW250973   1.749   8.183   7.947  1.2662 -0.4099  0.4794
12972SOL     OW50974   4.128   6.769   3.529 -0.6934 -0.0406 -0.3004
12972SOL    HW150975   4.041   6.808   3.499 -0.2880  0.1237 -1.2682
12972SOL    HW250976   4.176   6.728   3.452 -0.2557 -0.8164  0.3682
12973SOL     OW50977   2.212   8.580   0.257  0.2437  0.3372  0.6301
12973SOL    HW150978   2.311   8.581   0.248  0.3175 -4.1258 -0.0305
12973SOL    HW250979   2.171   8.613   0.172  1.1127  0.8314  0.3926
12974SOL     OW50980   7.360   2.808   9.128 -0.0249 -0.3049 -0.0732
12974SOL    HW150981   7.396   2.776   9.215  0.3352  0.6925  0.1608
12974SOL    HW250982   7.287   2.874   9.144 -1.9851 -2.3050 -0.5546
12975SOL     OW50983   6.502   6.627   0.837 -0.2377  0.1928 -0.1036
12975SOL    HW150984   6.432   6.607   0.769  0.2330 -1.0148 -0.2464
12975SOL    HW250985   6.481   6.714   0.882 -1.0016  0.5860 -1.1963
12976SOL     OW50986   2.620   1.009   7.485 -0.3101  1.1516 -0.0910
12976SOL    HW150987   2.543   0.946   7.497  0.4956  0.4624  1.5920
12976SOL    HW250988   2.648   1.044   7.574  1.2927  1.4690 -0.7093
12977SOL     OW50989   8.440   0.530   7.039 -0.3753 -0.4293 -0.3400
12977SOL    HW150990   8.446   0.524   6.939 -0.2731  1.5889 -0.4830
12977SOL    HW250991   8.345   0.547   7.065 -0.1316  0.7907 -0.2182
12978SOL     OW50992   1.674   2.191   3.543 -0.4338 -0.1043 -0.4836
12978SOL    HW150993   1.695   2.204   3.640 -0.7071  0.2788 -0.4738
12978SOL    HW250994   1.647   2.278   3.503 -0.6675 -0.3309 -0.8214
12979SOL     OW50995   9.081   7.416   1.053  0.4112 -0.3172  0.1635
12979SOL    HW150996   9.114   7.425   0.959 -0.3110  0.9667  0.0206
12979SOL    HW250997   9.101   7.499   1.104 -0.4783 -0.4420  0.7361
12980SOL     OW50998   4.342   9.404   7.006  0.3803 -0.5760 -0.7422
12980SOL    HW150999   4.390   9.425   7.091 -0.6839  0.3229 -0.3541
12980SOL    HW251000   4.339   9.305   6.993  1.5282 -0.6725 -0.3121
12981SOL     OW51001   6.236   5.310   8.770  0.4837  0.4986 -0.5380
12981SOL    HW151002   6.301   5.275   8.704  1.2093  0.8293 -0.0012
12981SOL    HW251003   6.274   5.390   8.816  0.2570 -0.1078  0.7388
12982SOL     OW51004   8.321   0.647   4.901  0.0565  0.5033 -0.4503
12982SOL    HW151005   8.280   0.726   4.854 -2.9687 -0.6855  0.0298
12982SOL    HW251006   8.305   0.655   5.000 -0.2424 -0.6745 -0.3940
12983SOL     OW51007   3.742   6.007   9.682  0.1093 -0.5832  0.1037
12983SOL    HW151008   3.838   6.036   9.686 -0.2368  0.6666 -0.2587
12983SOL    HW251009   3.708   5.990   9.775  0.4120 -0.0812  0.3120
12984SOL     OW51010   8.449   8.107   0.132  0.7246  0.1175  0.0112
12984SOL    HW151011   8.382   8.173   0.166  0.4219 -1.0410  1.7140
12984SOL    HW251012   8.497   8.065   0.209  0.4912 -2.0863 -1.0007
12985SOL     OW51013   7.966   7.738   7.854  0.3524  0.3488 -0.2742
12985SOL    HW151014   7.951   7.741   7.953 -0.9722  0.4203 -0.4610
12985SOL    HW251015   8.034   7.806   7.828 -0.1836  1.1733  0.4470
12986SOL     OW51016   8.847   9.580   3.246 -0.4199  0.0180 -0.1654
12986SOL    HW151017   8.905   9.653   3.211 -1.3336  2.6959  3.6420
12986SOL    HW251018   8.904   9.505   3.279  0.6767  0.7419 -0.4032
12987SOL     OW51019   7.218   1.327   2.993  0.3158  0.1343 -0.3520
12987SOL    HW151020   7.219   1.323   3.093  1.2677 -1.7101 -0.4000
12987SOL    HW251021   7.166   1.407   2.963 -0.0127  0.6917  1.6097
12988SOL     OW51022   8.296   4.440   5.128 -0.1993 -0.3179 -0.3099
12988SOL    HW151023   8.315   4.351   5.169 -3.7006 -0.8069  0.3361
12988SOL    HW251024   8.255   4.428   5.038 -1.7048  0.5946  0.2338
12989SOL     OW51025   4.222   8.927   2.741  1.1092 -0.3407  0.4605
12989SOL    HW151026   4.202   9.025   2.741  0.7920 -0.4079  0.6914
12989SOL    HW251027   4.291   8.908   2.810  2.0155 -0.1085 -0.3556
12990SOL     OW51028   2.680   4.007   9.502 -0.3690 -0.3995  0.9859
12990SOL    HW151029   2.598   4.058   9.478 -0.2255 -0.1628  0.9966
12990SOL    HW251030   2.699   4.020   9.600  0.6810  0.9905  0.6156
12991SOL     OW51031   7.227   6.324   6.228  0.6191 -0.1032 -0.0356
12991SOL    HW151032   7.156   6.330   6.157 -0.6414  0.7730  1.2565
12991SOL    HW251033   7.258   6.416   6.251  1.2435 -0.4058  0.3232
12992SOL     OW51034   1.010   5.391   3.432  0.6001  0.0937  0.2802
12992SOL    HW151035   1.006   5.376   3.333 -0.2778 -0.5281  0.4106
12992SOL    HW251036   0.926   5.358   3.474  0.7425  0.8605  1.1723
12993SOL     OW51037   3.654   2.824   5.356  0.1956  0.0085  0.3860
12993SOL    HW151038   3.636   2.879   5.274  1.1524  1.1957  0.9536
12993SOL    HW251039   3.670   2.885   5.433 -0.0310 -1.1041  1.3138
12994SOL     OW51040   0.907   2.907   8.979  0.2079  0.3352  0.5334
12994SOL    HW151041   1.001   2.873   8.980  0.3424  0.6432 -0.9681
12994SOL    HW251042   0.902   2.989   8.922 -0.9558  0.3894  0.7013
12995SOL     OW51043   6.599   8.831   6.681 -0.1190  0.2181 -0.4653
12995SOL    HW151044   6.573   8.737   6.663  1.3842  0.0881 -2.0504
12995SOL    HW251045   6.592   8.885   6.597  0.4380  1.1979  0.1010
12996SOL     OW51046   3.445   3.297   5.190 -0.2460  0.4422 -0.1776
12996SOL    HW151047   3.370   3.361   5.207 -1.3884 -0.8742 -0.2131
12996SOL    HW251048   3.412   3.221   5.133  0.4883 -1.4073  1.8108
12997SOL     OW51049   1.272   1.339   6.560 -0.1167  0.2442 -0.7181
12997SOL    HW151050   1.182   1.383   6.557 -1.0646 -1.4996  0.9997
12997SOL    HW251051   1.262   1.245   6.592  1.9275 -1.1354 -3.8968
12998SOL     OW51052   4.328   9.142   9.466  0.6581  0.1140  0.0564
12998SOL    HW151053   4.247   9.198   9.479  1.4822  1.4761 -0.6274
12998SOL    HW251054   4.318   9.087   9.382  0.8738  1.0426 -0.5803
12999SOL     OW51055   7.833   8.600   7.212  0.7318  0.1610 -0.3298
12999SOL    HW151056   7.772   8.678   7.228  3.1144  1.6641  1.7232
12999SOL    HW251057   7.801   8.522   7.265  1.7794  1.6084  2.5763
13000SOL     OW51058   8.351   8.951   5.824  0.0478  0.3582  0.2319
13000SOL    HW151059   8.415   9.025   5.805 -1.2513  1.2192 -0.9432
13000SOL    HW251060   8.274   8.986   5.876 -0.5068 -0.1871 -0.2149
13001SOL     OW51061   6.117   9.639   8.536  0.8700  0.6972  0.3099
13001SOL    HW151062   6.171   9.705   8.484  0.0489  1.1538  0.0241
13001SOL    HW251063   6.081   9.569   8.474  2.6514 -0.6601  0.7759
13002SOL     OW51064   2.414   2.347   8.200  0.1045 -0.4299 -0.2259
13002SOL    HW151065   2.442   2.251   8.202 -1.4570 -0.8689  2.4409
13002SOL    HW251066   2.385   2.375   8.291 -0.6047  2.2505 -1.2389
13003SOL     OW51067   6.759   4.521   1.339 -0.1755  0.2260 -0.3810
13003SOL    HW151068   6.707   4.436   1.338  1.4210 -0.8699  3.0113
13003SOL    HW251069   6.790   4.542   1.246 -0.8689 -2.6962 -1.3337
13004SOL     OW51070   7.324   1.273   3.696 -0.2157  0.2221 -0.0544
13004SOL    HW151071   7.294   1.368   3.688 -0.1913  0.1222 -1.3371
13004SOL    HW251072   7.282   1.218   3.624 -1.0045 -0.9508  1.2664
13005SOL     OW51073   6.536   0.652   2.315  0.0018  0.2973  0.1484
13005SOL    HW151074   6.623   0.651   2.265  0.0522 -2.0337  0.2257
13005SOL    HW251075   6.480   0.728   2.284  0.7346 -0.0990 -2.2463
13006SOL     OW51076   4.962   1.675   1.936  0.2171  0.3908  0.2189
13006SOL    HW151077   4.970   1.575   1.937 -0.1886  0.3494 -0.2654
13006SOL    HW251078   4.873   1.700   1.897  0.2445  0.9367  0.5067
13007SOL     OW51079   3.870   1.694   2.918  0.7173 -0.1659 -0.0197
13007SOL    HW151080   3.832   1.771   2.970  0.8216  0.0964 -0.3337
13007SOL    HW251081   3.954   1.723   2.872 -1.1710  0.6324 -3.1542
13008SOL     OW51082   8.463   3.667   1.609  0.5242 -0.7476  0.1497
13008SOL    HW151083   8.366   3.675   1.586  0.3995 -1.3475  0.4540
13008SOL    HW251084   8.472   3.629   1.702  1.0514 -1.1441 -0.0604
13009SOL     OW51085   3.339   0.407   2.735  0.2400  0.5921 -0.5171
13009SOL    HW151086   3.398   0.482   2.767  0.2305  1.0484 -1.5630
13009SOL    HW251087   3.257   0.445   2.693 -1.1893 -0.0441  1.6089
13010SOL     OW51088   5.358   3.413   1.622 -0.1006  0.2062 -0.3917
13010SOL    HW151089   5.398   3.458   1.542 -0.4291 -0.2107 -0.7988
13010SOL    HW251090   5.370   3.314   1.612  1.5205  0.2448  0.9775
13011SOL     OW51091   3.172   1.593   7.619  0.1292 -0.0447 -0.3071
13011SOL    HW151092   3.100   1.661   7.630  0.3402  0.2438 -0.6827
13011SOL    HW251093   3.200   1.558   7.709  0.3744  0.7416 -0.0777
13012SOL     OW51094   2.065   0.350   6.042  0.0148 -0.5796  0.0579
13012SOL    HW151095   2.075   0.289   5.964  0.7484 -0.3127 -0.0606
13012SOL    HW251096   2.125   0.429   6.030  0.6099 -0.8437  1.1806
13013SOL     OW51097   2.227   6.778   5.970 -0.3711 -0.1004  0.2368
13013SOL    HW151098   2.279   6.747   5.891  0.4958 -1.0097  1.1611
13013SOL    HW251099   2.205   6.875   5.959  0.7107  0.0550 -0.5913
13014SOL     OW51100   4.522   7.777   2.488  0.7041 -0.4021  0.0763
13014SOL    HW151101   4.566   7.840   2.424  0.2455 -0.8045 -0.6598
13014SOL    HW251102   4.490   7.697   2.437 -1.0966 -0.0010  0.5151
13015SOL     OW51103   2.369   4.373   5.908 -0.0505  0.1733  0.2257
13015SOL    HW151104   2.401   4.293   5.959  0.9007  1.8524  2.3435
13015SOL    HW251105   2.269   4.370   5.902  0.0179 -1.5204 -0.3395
13016SOL     OW51106   4.816   1.020   9.140 -0.2073  0.0120 -0.5471
13016SOL    HW151107   4.837   1.113   9.168 -1.7975  0.9728 -2.4211
13016SOL    HW251108   4.800   1.017   9.041  0.2674 -2.3287 -0.5908
13017SOL     OW51109   4.495   8.911   8.360 -0.8465 -0.0524  0.4406
13017SOL    HW151110   4.458   8.860   8.437 -0.2327 -0.0721  0.7186
13017SOL    HW251111   4.590   8.883   8.343 -0.7311  0.4994  0.1624
13018SOL     OW51112   7.552   8.532   6.337 -0.1679  0.4465  0.6257
13018SOL    HW151113   7.571   8.496   6.245  2.2335  0.1368  1.1894
13018SOL    HW251114   7.500   8.617   6.330  0.2153  0.5570 -1.0415
13019SOL     OW51115   6.223   3.916   2.175 -0.0719 -0.3999 -0.6364
13019SOL    HW151116   6.323   3.923   2.175 -0.2113  1.7941 -1.1339
13019SOL    HW251117   6.191   3.909   2.270  0.5993 -2.1735 -0.5185
13020SOL     OW51118   1.075   9.376   8.828 -0.1280 -0.5172 -0.3321
13020SOL    HW151119   1.129   9.373   8.744 -1.1275  0.1292 -1.0058
13020SOL    HW251120   1.003   9.307   8.825  0.7574 -1.5058  0.6474
13021SOL     OW51121   2.856   3.861   9.218 -0.3553 -0.1928 -0.4215
13021SOL    HW151122   2.812   3.935   9.167 -1.9947 -0.8369  0.0624
13021SOL    HW251123   2.956   3.870   9.208 -0.5453  1.7666 -0.8012
13022SOL     OW51124   1.008   0.548   9.316  0.4785 -0.2675 -0.0237
13022SOL    HW151125   1.046   0.569   9.406  0.4876 -1.2819  0.2231
13022SOL    HW251126   1.083   0.530   9.252  0.4414 -1.6804  0.3136
13023SOL     OW51127   4.662   3.601   5.907 -1.0156 -0.5476  0.0476
13023SOL    HW151128   4.760   3.602   5.888 -0.4486  2.6108  2.4691
13023SOL    HW251129   4.616   3.534   5.849  2.4338 -1.4246 -1.7807
13024SOL     OW51130   5.630   8.793   8.156  0.4423 -0.0663  0.1456
13024SOL    HW151131   5.633   8.811   8.058  0.0192  0.8522  0.2877
13024SOL    HW251132   5.691   8.717   8.178 -0.6440 -1.2806 -1.0304
13025SOL     OW51133   6.147   5.290   2.680 -0.1464  0.4660 -0.0603
13025SOL    HW151134   6.155   5.248   2.589  1.0833 -1.4050  0.8766
13025SOL    HW251135   6.100   5.227   2.741  1.0459  0.7550  1.1783
13026SOL     OW51136   9.048   8.468   2.587 -0.2283  0.1316  0.3545
13026SOL    HW151137   8.988   8.541   2.555  0.2239  0.9725  1.3909
13026SOL    HW251138   9.116   8.447   2.516  0.1563  1.2976  0.3642
13027SOL     OW51139   1.612   7.756   7.243 -0.1384 -0.1414 -0.1601
13027SOL    HW151140   1.646   7.790   7.331  1.0200 -2.8307  0.4634
13027SOL    HW251141   1.531   7.699   7.259 -1.8980  1.9696 -1.1796
13028SOL     OW51142   8.527   9.068   4.097  0.0483  0.0991 -0.5338
13028SOL    HW151143   8.527   9.019   4.010  1.9475  0.0265 -0.5279
13028SOL    HW251144   8.501   9.006   4.171 -0.9032 -0.0128 -0.9599
13029SOL     OW51145   8.040   4.013   1.823 -0.1752  0.1037 -0.4082
13029SOL    HW151146   7.979   3.941   1.793  0.8148 -0.6957 -0.5405
13029SOL    HW251147   8.053   4.080   1.749 -0.9365  0.3070 -0.3532
13030SOL     OW51148   2.960   0.874   9.159  0.0149  0.2056 -0.1266
13030SOL    HW151149   3.022   0.943   9.197 -0.7189  0.1611  1.1586
13030SOL    HW251150   2.942   0.803   9.227 -1.4540  0.2202 -0.4767
13031SOL     OW51151   5.618   9.266   5.335  0.0132  0.0352 -0.0331
13031SOL    HW151152   5.697   9.308   5.379  0.1097  2.2334 -2.1439
13031SOL    HW251153   5.539   9.269   5.396  0.6917  0.9783  0.8009
13032SOL     OW51154   9.892   5.026   5.675 -0.0958 -0.0539 -0.1744
13032SOL    HW151155   9.835   4.952   5.640 -1.7593  1.3729 -0.5655
13032SOL    HW251156   9.986   4.994   5.687 -1.2755 -2.8767  1.8777
13033SOL     OW51157   0.378   8.213   9.210 -0.3513 -0.1172 -0.2486
13033SOL    HW151158   0.347   8.286   9.271  0.0254  0.2761 -0.5236
13033SOL    HW251159   0.422   8.141   9.264  0.0044  0.2405 -0.0592
13034SOL     OW51160   9.220   1.809   8.410  0.3783  0.1951 -0.2610
13034SOL    HW151161   9.307   1.806   8.362  0.6588 -0.8914  0.3033
13034SOL    HW251162   9.228   1.869   8.490  1.0856 -1.1296  0.6870
13035SOL     OW51163   8.398   7.848   3.177 -0.2021  0.2029 -0.3858
13035SOL    HW151164   8.360   7.788   3.248  0.1386 -0.9655 -1.1830
13035SOL    HW251165   8.497   7.837   3.174  0.0167  1.7294  0.2864
13036SOL     OW51166   1.519   2.914   2.129 -0.1927  0.0516  0.3705
13036SOL    HW151167   1.497   2.843   2.062 -1.5478  1.9769 -1.2804
13036SOL    HW251168   1.603   2.961   2.102  2.3487 -2.7549  3.0137
13037SOL     OW51169   8.127   6.549   5.512  0.2162 -0.1399 -0.5870
13037SOL    HW151170   8.170   6.588   5.594  0.5298 -0.4946 -0.5802
13037SOL    HW251171   8.197   6.524   5.446 -0.0660  0.5315 -1.1411
13038SOL     OW51172   4.372   4.688   2.167 -0.0421 -0.0121  0.1041
13038SOL    HW151173   4.304   4.760   2.156 -1.5077 -1.5449 -1.1367
13038SOL    HW251174   4.431   4.685   2.086  0.4507  0.2376  0.4528
13039SOL     OW51175   8.717   2.060   5.759 -0.5855  0.3983  0.4828
13039SOL    HW151176   8.742   2.130   5.825 -0.9673  1.8953 -0.9472
13039SOL    HW251177   8.784   1.985   5.763 -1.2086 -0.0590  3.2960
13040SOL     OW51178   3.116   4.410   4.122 -0.0131  0.2178  0.2441
13040SOL    HW151179   3.189   4.341   4.121 -0.1038  0.1302 -1.5785
13040SOL    HW251180   3.148   4.492   4.169  0.8622 -0.2385  0.4595
13041SOL     OW51181   0.109   1.579   1.705 -0.9057  0.3634 -0.0179
13041SOL    HW151182   0.066   1.668   1.688  0.0064  0.9043  0.4454
13041SOL    HW251183   0.122   1.567   1.804 -2.7261 -1.1069  0.0720
13042SOL     OW51184   4.653   6.192   1.507  0.0031 -0.3599 -1.0076
13042SOL    HW151185   4.634   6.103   1.548  1.0701  0.2736  0.9553
13042SOL    HW251186   4.587   6.259   1.541  1.3922  0.3458  0.3573
13043SOL     OW51187   1.325   9.716   4.771  0.0734  0.9920  0.1521
13043SOL    HW151188   1.237   9.680   4.804  1.5532  0.4242  3.8082
13043SOL    HW251189   1.323   9.816   4.773 -0.4376  0.9789  0.4773
13044SOL     OW51190   9.733   6.225   4.044  0.0277 -0.1940  0.1236
13044SOL    HW151191   9.648   6.243   4.093  0.4543  0.7735  0.5222
13044SOL    HW251192   9.793   6.169   4.100 -0.2603 -0.6978 -0.0716
13045SOL     OW51193   5.534   0.689   1.268  0.0467  0.0408 -0.1380
13045SOL    HW151194   5.511   0.763   1.205  1.5726 -0.8212 -1.7615
13045SOL    HW251195   5.622   0.708   1.311  0.3334 -0.6971 -0.3863
13046SOL     OW51196   1.091   4.060   8.935 -0.1541  0.0393 -0.1637
13046SOL    HW151197   1.001   4.103   8.942  0.0952  0.6640 -0.6837
13046SOL    HW251198   1.161   4.131   8.941  0.2805 -0.3664 -0.4744
13047SOL     OW51199   8.973   4.194   9.243  0.5841  0.3356  0.5335
13047SOL    HW151200   9.034   4.273   9.236 -0.3038  1.0089  0.3458
13047SOL    HW251201   8.885   4.222   9.281  0.6372 -0.7755  1.5072
13048SOL     OW51202   0.808   0.377   4.657  0.7053  1.2443  0.0267
13048SOL    HW151203   0.888   0.344   4.707 -0.8893 -0.3656  1.5852
13048SOL    HW251204   0.737   0.403   4.722 -0.5808  1.2797 -1.3611
13049SOL     OW51205   4.439   8.808   4.973 -0.0781 -0.2320 -0.0144
13049SOL    HW151206   4.495   8.762   5.041 -0.3033 -1.9930 -0.9799
13049SOL    HW251207   4.497   8.857   4.909  0.2123  0.0646  0.4741
13050SOL     OW51208   4.020   4.045   1.756 -0.5087  0.0406 -0.1119
13050SOL    HW151209   4.037   4.025   1.852  1.4316 -0.0664 -0.4607
13050SOL    HW251210   3.964   4.127   1.748 -1.6140 -0.5845  1.1267
13051SOL     OW51211   8.600   7.893   6.534  0.1904  0.4769 -0.0074
13051SOL    HW151212   8.696   7.891   6.563 -0.1970 -0.6081  1.2769
13051SOL    HW251213   8.543   7.860   6.609 -1.1662  0.8654 -0.8619
13052SOL     OW51214   9.645   9.736   1.120  0.2410  0.0381  0.0790
13052SOL    HW151215   9.578   9.769   1.187 -0.4093  0.2315 -0.6543
13052SOL    HW251216   9.669   9.810   1.058 -1.0279 -0.7705 -1.4092
13053SOL     OW51217   5.265   6.347   0.385 -0.2290  0.3413  0.4937
13053SOL    HW151218   5.256   6.404   0.466 -0.3976  1.2130 -0.1336
13053SOL    HW251219   5.222   6.392   0.306  0.4818 -0.2025 -0.2214
13054SOL     OW51220   3.473   3.073   2.155 -0.1986  0.5099 -0.5171
13054SOL    HW151221   3.506   3.092   2.063 -0.7995  0.9720 -0.6422
13054SOL    HW251222   3.373   3.081   2.157 -0.2691 -0.4414 -0.0462
13055SOL     OW51223   0.288   7.182   3.606 -0.1842 -0.2956  0.0683
13055SOL    HW151224   0.286   7.086   3.633  1.6555  0.1149  1.7286
13055SOL    HW251225   0.195   7.220   3.612 -1.0163 -2.0466 -1.0399
13056SOL     OW51226   0.332   8.060   3.877  0.2101  0.6765 -0.6672
13056SOL    HW151227   0.283   8.077   3.792  2.7577 -1.0359 -2.5554
13056SOL    HW251228   0.363   8.147   3.915  1.6266  1.2919 -3.1154
13057SOL     OW51229   0.991   8.965   8.247 -0.4572 -0.1680  0.0312
13057SOL    HW151230   0.983   9.058   8.284 -0.0246 -0.4542  0.8754
13057SOL    HW251231   0.927   8.905   8.294 -1.9961  0.0374 -1.7296
13058SOL     OW51232   5.875   8.518   4.808 -0.2594 -0.3853 -0.3839
13058SOL    HW151233   5.890   8.603   4.858  0.1387 -0.3474 -0.5625
13058SOL    HW251234   5.919   8.442   4.856  0.5740 -0.2619 -0.9476
13059SOL     OW51235   7.126   7.812   8.420 -0.1696  0.1382 -0.0753
13059SOL    HW151236   7.208   7.868   8.407 -0.1426 -0.3038 -1.8802
13059SOL    HW251237   7.150   7.716   8.412 -0.9951  0.0324 -1.4839
13060SOL     OW51238   8.752   3.891   0.194 -0.5282  0.1504  0.0067
13060SOL    HW151239   8.701   3.969   0.159  0.5481  0.9965  0.2861
13060SOL    HW251240   8.838   3.882   0.142 -0.6226 -0.8203  0.0040
13061SOL     OW51241   4.573   2.434   6.062  0.4529 -0.2242 -0.4692
13061SOL    HW151242   4.623   2.369   6.004 -1.0663 -1.4172 -0.4512
13061SOL    HW251243   4.483   2.451   6.024 -0.2034 -0.2689  1.0240
13062SOL     OW51244   4.200   3.561   9.718  0.2517 -0.7396 -0.1014
13062SOL    HW151245   4.263   3.483   9.722  0.8569 -0.5527 -3.9185
13062SOL    HW251246   4.247   3.644   9.748  0.4885 -1.3135  1.1519
13063SOL     OW51247   7.987   1.604   9.317  0.4344 -0.3299 -0.3958
13063SOL    HW151248   7.952   1.523   9.270 -0.9445  0.0228  0.0144
13063SOL    HW251249   8.049   1.654   9.256 -0.3332 -0.5641 -1.3690
13064SOL     OW51250   0.719   4.442   2.430  0.0939  0.2175 -0.0229
13064SOL    HW151251   0.812   4.406   2.417 -0.6072 -1.4326 -0.6014
13064SOL    HW251252   0.721   4.542   2.422  1.9294  0.2577  0.6864
13065SOL     OW51253   5.494   0.991   5.105  0.0480 -0.5634 -0.4727
13065SOL    HW151254   5.469   1.086   5.086  0.7597 -0.5319 -1.2901
13065SOL    HW251255   5.582   0.971   5.061 -0.7579 -2.0020 -1.4223
13066SOL     OW51256   8.090   3.419   6.592 -0.4613  0.0960  0.1050
13066SOL    HW151257   8.089   3.429   6.493  1.3740 -0.3191  0.0273
13066SOL    HW251258   8.021   3.353   6.620 -1.3856  0.6549 -0.8390
13067SOL     OW51259   7.233   6.231   7.788 -0.4168  0.0822 -0.0352
13067SOL    HW151260   7.291   6.216   7.708  2.2539  1.4452  1.6117
13067SOL    HW251261   7.227   6.146   7.841 -0.3637 -0.1884 -0.4565
13068SOL     OW51262   0.312   1.339   4.107  0.2537 -0.1210  0.2454
13068SOL    HW151263   0.399   1.370   4.144 -0.4637  0.9975  1.0180
13068SOL    HW251264   0.240   1.350   4.175 -0.2818 -2.2419  0.0707
13069SOL     OW51265   0.696   0.718   5.387 -0.3064 -0.1345 -0.2927
13069SOL    HW151266   0.600   0.739   5.371 -0.2454 -0.5976 -1.3203
13069SOL    HW251267   0.708   0.684   5.480 -0.8846  1.4144  0.3675
13070SOL     OW51268   1.740   7.465   1.499 -0.0031 -0.0414 -0.2832
13070SOL    HW151269   1.762   7.390   1.563  1.7674  0.6525 -0.0462
13070SOL    HW251270   1.708   7.544   1.551  0.7075  0.2651 -0.3066
13071SOL     OW51271   3.790   8.372   1.314 -0.3534 -0.0075  0.2466
13071SOL    HW151272   3.878   8.392   1.357  0.4573 -1.9866 -0.4389
13071SOL    HW251273   3.718   8.372   1.384 -0.0213  2.6545  0.6563
13072SOL     OW51274   3.265   1.530   2.382  0.3084  0.0847  0.3746
13072SOL    HW151275   3.260   1.538   2.282 -1.9112 -0.1890  0.4418
13072SOL    HW251276   3.296   1.438   2.406  1.2747  0.2924 -0.0678
13073SOL     OW51277   7.322   9.882   7.036  0.0219  0.0190 -0.1310
13073SOL    HW151278   7.409   9.931   7.026  0.9357 -1.3391  0.9659
13073SOL    HW251279   7.292   9.850   6.946  0.8192  0.2303 -0.4839
13074SOL     OW51280   3.509   4.862   7.448 -0.0423 -1.0018 -0.6009
13074SOL    HW151281   3.419   4.821   7.435 -0.8904  0.6072  0.0706
13074SOL    HW251282   3.499   4.957   7.475  1.8436 -1.3346  1.4080
13075SOL     OW51283   7.233   0.470   2.737  0.2470  0.3391  0.3537
13075SOL    HW151284   7.325   0.432   2.745  0.2515  0.3987  0.6026
13075SOL    HW251285   7.222   0.544   2.803 -0.6811 -1.0674  1.8061
13076SOL     OW51286   6.328   3.435   9.897  0.1602 -0.1605  0.1481
13076SOL    HW151287   6.409   3.437   9.955  0.1687 -0.6103  0.1480
13076SOL    HW251288   6.330   3.513   9.835  0.6959 -0.2868  0.0057
13077SOL     OW51289   9.476   4.298   8.058  0.2891 -0.0503  0.5734
13077SOL    HW151290   9.405   4.357   8.096  0.7282  0.9942 -0.1950
13077SOL    HW251291   9.565   4.345   8.065  0.9952 -1.5784  2.0642
13078SOL     OW51292   3.212   7.528   5.904 -0.1454  0.3811 -0.6098
13078SOL    HW151293   3.146   7.602   5.916 -0.1168  0.4599 -0.9340
13078SOL    HW251294   3.256   7.508   5.992 -0.6138  0.3136 -0.3899
13079SOL     OW51295   9.741   3.712  10.015 -0.5234 -0.2688 -0.5396
13079SOL    HW151296   9.715   3.636   9.955  1.6654 -2.8036  1.5692
13079SOL    HW251297   9.787   3.783   9.961 -0.1896 -1.6647 -2.1418
13080SOL     OW51298   2.651   2.757   6.608 -0.5248 -0.3783 -0.1270
13080SOL    HW151299   2.608   2.749   6.698 -0.9591 -0.9872 -0.3879
13080SOL    HW251300   2.591   2.807   6.546  0.9170  2.4544  0.6608
13081SOL     OW51301   2.139   8.331   3.021 -0.0673  0.0977  0.2599
13081SOL    HW151302   2.070   8.294   3.082 -1.5335  0.2892 -1.2526
13081SOL    HW251303   2.192   8.401   3.069 -0.5055 -0.4641  1.5974
13082SOL     OW51304   7.065   6.144   0.687  0.2971 -0.1235 -0.4962
13082SOL    HW151305   7.127   6.202   0.635  0.7036 -0.3250 -0.2413
13082SOL    HW251306   7.051   6.058   0.637  1.5776 -0.7845  0.2453
13083SOL     OW51307   9.617   1.251   8.547 -0.2599  0.7396 -0.5223
13083SOL    HW151308   9.596   1.173   8.488 -0.5544  0.0130  0.5328
13083SOL    HW251309   9.540   1.315   8.546 -0.4865  0.4656 -0.4983
13084SOL     OW51310   2.340   1.456   3.941 -0.3951 -0.7788 -0.5737
13084SOL    HW151311   2.422   1.418   3.985 -1.2735  0.4804  2.2670
13084SOL    HW251312   2.368   1.526   3.876  0.9553 -2.8694 -2.3225
13085SOL     OW51313   9.475   0.630   2.317  0.0184  0.1122  0.2263
13085SOL    HW151314   9.409   0.628   2.241 -0.7336 -0.0753  0.8801
13085SOL    HW251315   9.532   0.712   2.309 -0.4103  0.3707 -0.2443
13086SOL     OW51316   3.246   0.350   7.507  0.3032  0.7784 -0.1039
13086SOL    HW151317   3.193   0.430   7.537  1.6906  1.3646  0.8098
13086SOL    HW251318   3.342   0.374   7.499  0.6524 -0.6467 -0.4175
13087SOL     OW51319   8.257   7.513   6.644 -0.5304  0.4345 -0.2060
13087SOL    HW151320   8.197   7.460   6.583 -2.1598  1.6623  0.3205
13087SOL    HW251321   8.211   7.528   6.731  0.4405  1.6259  0.1109
13088SOL     OW51322   6.482   4.895   1.565 -0.2104  0.0146 -0.0818
13088SOL    HW151323   6.495   4.892   1.466 -0.2345 -1.8382 -0.0321
13088SOL    HW251324   6.568   4.873   1.611 -0.7382 -1.3329  0.2867
13089SOL     OW51325   3.280   1.378   9.082 -0.2821 -0.0344 -0.0097
13089SOL    HW151326   3.334   1.316   9.139 -1.0877  0.3101  1.1345
13089SOL    HW251327   3.299   1.473   9.108  1.2652  0.2723 -2.0338
13090SOL     OW51328   0.728   6.904   8.699  0.0043  0.3463 -0.0004
13090SOL    HW151329   0.767   6.821   8.739 -0.8678  1.3824  3.1330
13090SOL    HW251330   0.634   6.887   8.670 -0.4034  0.4078  1.2699
13091SOL     OW51331   6.433   0.157   2.670 -0.2077  0.0684 -0.2003
13091SOL    HW151332   6.373   0.189   2.742 -0.6023  0.0702 -0.5284
13091SOL    HW251333   6.381   0.146   2.585  0.4142  0.8560 -0.6894
13092SOL     OW51334   4.170   0.662   4.135  0.4044  0.0393  0.1858
13092SOL    HW151335   4.179   0.573   4.178 -1.8257 -0.4938 -0.3738
13092SOL    HW251336   4.110   0.720   4.190  2.0879  1.3114  0.7070
13093SOL     OW51337   8.347   9.724   6.338 -0.3861 -0.1547  0.2008
13093SOL    HW151338   8.315   9.663   6.411  1.0460 -0.9789  0.1684
13093SOL    HW251339   8.417   9.677   6.285 -1.7095  0.2785 -1.9836
13094SOL     OW51340   9.246   2.712   0.650 -0.1666  0.3995  0.3500
13094SOL    HW151341   9.319   2.771   0.616  0.3286 -0.6198 -0.4003
13094SOL    HW251342   9.170   2.711   0.585 -0.9104  1.5241  1.1681
13095SOL     OW51343   9.280   3.779   8.910  0.0024  0.2265  0.2035
13095SOL    HW151344   9.190   3.745   8.939  0.3386  0.5234  1.6550
13095SOL    HW251345   9.270   3.834   8.827 -1.3448  1.2571  1.0268
13096SOL     OW51346   3.893   6.176   1.296  0.2423  0.6649  0.3744
13096SOL    HW151347   3.867   6.092   1.344  2.3862  0.5315  1.3698
13096SOL    HW251348   3.976   6.160   1.243  0.6470  2.1523  0.5295
13097SOL     OW51349   2.323   7.971   9.894  0.2621  0.2619 -0.4429
13097SOL    HW151350   2.292   8.064   9.917  0.0824  0.0669  0.1104
13097SOL    HW251351   2.284   7.906   9.958 -1.0639 -0.4270 -1.9163
13098SOL     OW51352   8.257   2.283   8.792 -0.1931 -0.0427 -0.0745
13098SOL    HW151353   8.322   2.219   8.751 -1.0076 -1.2699  0.5122
13098SOL    HW251354   8.307   2.360   8.832  0.8006 -0.2899 -0.8227
13099SOL     OW51355   8.851   7.427   0.741  0.3760 -0.9495  0.9696
13099SOL    HW151356   8.949   7.445   0.752  0.7161 -0.4021 -2.5702
13099SOL    HW251357   8.837   7.330   0.719  0.3035 -0.5866 -0.5920
13100SOL     OW51358   1.433   7.984   1.735  0.5018 -0.0202  0.1264
13100SOL    HW151359   1.435   8.056   1.804 -1.1314  0.6987 -0.5585
13100SOL    HW251360   1.515   7.990   1.678  0.7646  0.7752  0.5860
13101SOL     OW51361   7.649   5.501   7.862 -0.1903  0.6236 -0.0720
13101SOL    HW151362   7.566   5.491   7.808 -0.9673  0.5060  1.1280
13101SOL    HW251363   7.647   5.588   7.911 -0.1267  0.1336  0.8203
13102SOL     OW51364   6.254   3.598   1.969 -0.0645 -0.0992 -0.3593
13102SOL    HW151365   6.263   3.515   1.913 -0.9420 -1.3698  1.3579
13102SOL    HW251366   6.168   3.644   1.947 -0.1525 -0.3039 -0.4450
13103SOL     OW51367   9.972   0.691   0.448  0.1158 -0.1750  0.0593
13103SOL    HW151368  10.040   0.622   0.474 -0.0527 -0.1430  0.5955
13103SOL    HW251369  10.012   0.782   0.459 -0.0310 -0.1551  0.4165
13104SOL     OW51370   9.900   2.739   8.751 -0.2819 -0.7865 -0.1177
13104SOL    HW151371   9.960   2.735   8.831 -0.5221  1.1498  0.1861
13104SOL    HW251372   9.947   2.703   8.671  2.0141  2.3927 -0.2978
13105SOL     OW51373   3.224   5.788   0.363 -0.1896 -0.2102  0.3361
13105SOL    HW151374   3.126   5.805   0.369 -0.5190 -0.5250 -3.1539
13105SOL    HW251375   3.240   5.690   0.351  0.4836 -0.0268 -0.2833
13106SOL     OW51376   8.160   9.941   6.615 -0.3102  0.3040  0.6301
13106SOL    HW151377   8.177   9.846   6.642  1.0484  0.2671 -0.3269
13106SOL    HW251378   8.247   9.987   6.600 -0.9374  2.0230  2.1313
13107SOL     OW51379   9.225   7.137   6.388  0.2497 -0.1928  0.3207
13107SOL    HW151380   9.243   7.152   6.485 -0.8477 -0.7538  0.6055
13107SOL    HW251381   9.193   7.044   6.373 -1.4685  0.4862 -0.3281
13108SOL     OW51382   8.612   6.919   6.027  0.5418  0.4327 -0.5746
13108SOL    HW151383   8.630   7.009   6.066 -4.1957  1.4369 -0.3808
13108SOL    HW251384   8.562   6.930   5.941  0.1813 -2.0032 -0.7058
13109SOL     OW51385   1.116   6.087   0.505  0.0994  0.0759 -0.3201
13109SOL    HW151386   1.023   6.116   0.485 -0.3860 -0.8186  0.6204
13109SOL    HW251387   1.162   6.159   0.558  0.4088  1.1169 -1.9673
13110SOL     OW51388   2.843   5.708   1.052 -0.1165 -0.4323  0.5509
13110SOL    HW151389   2.908   5.691   1.126  2.7256 -0.7457 -1.9397
13110SOL    HW251390   2.849   5.634   0.985 -1.4419  0.7014 -0.8432
13111SOL     OW51391   9.125   2.927   9.262 -0.2969 -0.2049  0.0707
13111SOL    HW151392   9.155   2.903   9.169  0.5193 -0.3711  0.3735
13111SOL    HW251393   9.055   2.862   9.292 -0.9760  0.1871 -0.6424
13112SOL     OW51394   7.513   2.597   1.639 -0.4235  0.1257 -0.0073
13112SOL    HW151395   7.432   2.586   1.582 -0.4277  1.9897 -0.3928
13112SOL    HW251396   7.497   2.668   1.707  0.9903  0.7665 -0.3134
13113SOL     OW51397   1.625   5.876   8.839 -0.3358  0.5492 -0.8134
13113SOL    HW151398   1.598   5.943   8.908 -1.6273  0.0125 -0.7869
13113SOL    HW251399   1.671   5.799   8.883 -1.9217 -0.1997 -0.4280
13114SOL     OW51400   7.008   2.088   8.488 -0.2426  0.1877 -0.0847
13114SOL    HW151401   7.104   2.116   8.490 -0.9904  2.9352  0.7773
13114SOL    HW251402   6.970   2.107   8.398 -0.8073  2.3002  0.5651
13115SOL     OW51403   2.101   0.790   9.686  0.3759 -0.2468  0.3847
13115SOL    HW151404   2.163   0.749   9.619  0.8509  0.7935  0.1632
13115SOL    HW251405   2.014   0.810   9.642  0.3709 -0.4143  0.3178
13116SOL     OW51406   9.128   4.085   2.535  0.1051  0.1936  0.1659
13116SOL    HW151407   9.184   4.003   2.546 -1.3772 -1.0691 -1.4104
13116SOL    HW251408   9.154   4.153   2.604  1.1440 -1.7078  1.7009
13117SOL     OW51409   2.215   6.145   0.745 -0.3008 -0.1209 -0.1732
13117SOL    HW151410   2.295   6.173   0.798 -0.0645 -1.8050  0.3766
13117SOL    HW251411   2.240   6.138   0.648 -0.3967  1.6577 -0.3405
13118SOL     OW51412   8.478   9.425   9.677 -0.1923  0.2935 -0.4674
13118SOL    HW151413   8.465   9.481   9.758 -1.5769  0.4959 -0.8117
13118SOL    HW251414   8.418   9.458   9.603  0.1552 -0.6316 -1.1801
13119SOL     OW51415   0.490   2.766   8.118  0.4315  0.1100 -0.0218
13119SOL    HW151416   0.516   2.681   8.074 -0.5202 -1.3131  2.0616
13119SOL    HW251417   0.562   2.793   8.184 -0.6707 -0.7662  1.5702
13120SOL     OW51418   0.628   0.440   9.132 -0.0963  0.7191 -0.2504
13120SOL    HW151419   0.572   0.379   9.076 -0.0371  1.3216 -0.9707
13120SOL    HW251420   0.690   0.386   9.189 -0.2879  0.0992 -0.6270
13121SOL     OW51421   2.385   7.603   3.316 -0.4749  0.5945  0.2162
13121SOL    HW151422   2.354   7.620   3.409  0.9468  1.2059  0.5800
13121SOL    HW251423   2.333   7.661   3.253 -0.8877  0.7531  0.6981
13122SOL     OW51424   9.511   2.716   8.135  0.1674  0.2347 -0.5202
13122SOL    HW151425   9.525   2.706   8.037 -0.2291 -1.3497 -0.4217
13122SOL    HW251426   9.557   2.641   8.183 -1.9216 -0.5416  0.3175
13123SOL     OW51427   9.646   2.658   8.714  0.2998  0.3490  1.0658
13123SOL    HW151428   9.571   2.723   8.728  0.8880  0.5691  3.4200
13123SOL    HW251429   9.733   2.705   8.721  0.6832 -0.0000 -1.1829
13124SOL     OW51430   4.831   5.869   9.795 -0.1757 -0.3324 -0.3080
13124SOL    HW151431   4.914   5.831   9.837 -1.1416 -2.4731 -0.3019
13124SOL    HW251432   4.752   5.815   9.822 -1.6906  1.9892  0.1004
13125SOL     OW51433   0.174   1.985   2.270  0.2321 -0.2915  0.2436
13125SOL    HW151434   0.179   2.016   2.175  0.8396 -0.1720  0.3097
13125SOL    HW251435   0.094   1.927   2.282 -0.0915  0.0470 -0.2387
13126SOL     OW51436   8.021   2.508   8.197  0.5499 -0.0615  0.4757
13126SOL    HW151437   8.092   2.523   8.265  1.5611 -3.7083  0.2987
13126SOL    HW251438   7.931   2.518   8.241  1.1370  1.8328  1.3195
13127SOL     OW51439   8.947   2.705   3.172  0.7606  0.1264  0.0012
13127SOL    HW151440   8.924   2.716   3.076 -0.5823  0.9307  0.3979
13127SOL    HW251441   8.894   2.628   3.210  1.2028 -0.1199  0.1305
13128SOL     OW51442   2.335   0.167   3.643  0.5445  0.0906  0.2354
13128SOL    HW151443   2.389   0.131   3.567 -0.0168 -0.9013  0.3009
13128SOL    HW251444   2.342   0.106   3.722  0.7992  0.9045  0.8508
13129SOL     OW51445   7.145   8.085   8.024  0.1640 -0.2470  0.3211
13129SOL    HW151446   7.066   8.039   7.983  0.3015  0.4701 -0.7782
13129SOL    HW251447   7.229   8.044   7.989  0.2895  0.9386 -0.8205
13130SOL     OW51448   0.382   3.929   1.483 -0.1949  0.7622  0.1861
13130SOL    HW151449   0.456   3.965   1.540  1.0438 -1.0148 -0.2596
13130SOL    HW251450   0.296   3.974   1.507  0.6094  1.2247  2.2973
13131SOL     OW51451   8.844   2.463   8.771 -0.0863 -0.4277  0.3739
13131SOL    HW151452   8.845   2.522   8.851  0.0998  0.2995 -0.1538
13131SOL    HW251453   8.750   2.450   8.739 -0.2841 -1.7945  1.4805
13132SOL     OW51454   1.796   2.918   5.884  0.1915  0.4094  0.1338
13132SOL    HW151455   1.820   2.922   5.981  0.0156 -0.6987  0.2339
13132SOL    HW251456   1.709   2.965   5.869 -0.2304 -0.1813  0.6756
13133SOL     OW51457   8.533   1.694   9.115  0.2717  0.2748 -0.1424
13133SOL    HW151458   8.513   1.762   9.045  1.0093 -0.5324 -1.1484
13133SOL    HW251459   8.514   1.733   9.205 -0.1793  1.4988 -0.7516
13134SOL     OW51460   6.969   3.937   9.788  0.0346  0.3563 -0.1471
13134SOL    HW151461   7.043   3.993   9.751 -1.0204  0.5576 -1.9801
13134SOL    HW251462   6.893   3.934   9.723 -0.8609 -1.3115  0.9408
13135SOL     OW51463   5.019   1.298   8.576 -0.0780  0.1421  0.0616
13135SOL    HW151464   5.009   1.199   8.571 -1.3628  0.2999 -0.6187
13135SOL    HW251465   5.087   1.328   8.509 -1.0122 -0.0993 -1.0179
13136SOL     OW51466   5.012   1.135   4.642  0.5515  0.2257  0.6353
13136SOL    HW151467   5.088   1.120   4.705 -0.1110 -2.0462  0.9225
13136SOL    HW251468   4.929   1.095   4.680 -0.2006  0.2324 -0.9673
13137SOL     OW51469   4.149   9.410   5.942 -0.1557  0.2460 -0.7894
13137SOL    HW151470   4.174   9.314   5.948 -2.0071 -0.2332 -0.5680
13137SOL    HW251471   4.060   9.419   5.898 -0.1497  1.8300 -0.5125
13138SOL     OW51472   1.965   0.187   4.840  1.0701 -0.0782 -0.3969
13138SOL    HW151473   2.051   0.224   4.876  0.1699  1.0460  0.6306
13138SOL    HW251474   1.940   0.105   4.892  1.6718 -0.5781 -0.8918
13139SOL     OW51475   2.038   0.405   9.146 -0.1689 -0.6551 -0.2543
13139SOL    HW151476   2.113   0.460   9.183 -0.0040  0.3540 -2.0370
13139SOL    HW251477   1.982   0.462   9.086 -0.2132 -2.3507 -1.8476
13140SOL     OW51478   8.255   9.881   2.465 -0.1557  0.0062 -0.6705
13140SOL    HW151479   8.214   9.792   2.446 -0.9788 -0.0099  1.0798
13140SOL    HW251480   8.353   9.870   2.481 -0.1185 -0.4790 -1.2279
13141SOL     OW51481   0.455   9.366   5.871 -0.8585  0.0863  0.3615
13141SOL    HW151482   0.458   9.448   5.814  1.4557  1.1822  1.9839
13141SOL    HW251483   0.530   9.305   5.845 -1.9667 -1.0930 -0.1557
13142SOL     OW51484   8.711   4.886   1.365 -0.4819 -0.0610 -0.0843
13142SOL    HW151485   8.745   4.823   1.435  1.0307 -1.4247 -2.0003
13142SOL    HW251486   8.680   4.834   1.285 -1.6463  1.4949 -0.6714
13143SOL     OW51487   1.892   6.981   2.336 -0.0398 -0.2909 -0.1346
13143SOL    HW151488   1.815   6.951   2.278  1.2517 -3.4479 -0.3363
13143SOL    HW251489   1.870   7.069   2.378 -3.1248 -0.3998 -1.3866
13144SOL     OW51490   8.918   0.023   9.334  0.3856  0.2374 -0.0268
13144SOL    HW151491   8.890  -0.025   9.417  0.6490 -0.6068 -0.4196
13144SOL    HW251492   9.008   0.063   9.347  0.3496  0.2593  0.1608
13145SOL     OW51493   3.455   7.431   3.573 -0.1146 -0.1478  0.3582
13145SOL    HW151494   3.442   7.518   3.620 -0.4410  0.7767 -1.3841
13145SOL    HW251495   3.550   7.422   3.544 -0.2407 -0.0251 -0.1040
13146SOL     OW51496   7.709   8.734   8.169  0.3957  0.0107  0.1929
13146SOL    HW151497   7.727   8.771   8.078  0.3555 -1.0365 -0.2533
13146SOL    HW251498   7.714   8.634   8.166 -0.9936 -0.0944  1.0477
13147SOL     OW51499   7.101   2.428   8.766  0.2624 -0.2178 -0.1058
13147SOL    HW151500   7.172   2.375   8.813 -2.4346 -2.1707  1.9337
13147SOL    HW251501   7.029   2.367   8.736 -1.0270  1.8534 -1.3264
13148SOL     OW51502   6.177   1.807   1.088 -0.0105 -0.7767 -0.5964
13148SOL    HW151503   6.254   1.745   1.104 -0.3000 -1.1103 -0.4959
13148SOL    HW251504   6.198   1.867   1.010  2.0305  1.8571  1.8415
13149SOL     OW51505   2.058   3.048   9.875  0.3454  0.4481 -0.2978
13149SOL    HW151506   2.114   2.977   9.833 -1.0220 -0.6783 -0.2575
13149SOL    HW251507   2.050   3.030   9.973 -1.6015 -0.4746 -0.5965
13150SOL     OW51508   4.039   9.068   5.052 -0.0799  0.8001  0.1493
13150SOL    HW151509   4.015   9.100   4.960 -0.0228  0.0180 -0.1405
13150SOL    HW251510   4.138   9.051   5.057 -0.0751  0.8934  0.3671
13151SOL     OW51511   9.401   2.566   8.409  0.1550 -0.0284  0.1684
13151SOL    HW151512   9.370   2.654   8.445  0.3685  0.0876  0.0719
13151SOL    HW251513   9.326   2.521   8.361 -0.5175 -0.7890  1.8838
13152SOL     OW51514   8.843   9.232   3.534 -0.5215 -0.0828  0.0681
13152SOL    HW151515   8.922   9.225   3.594 -1.8377 -0.6355  1.7748
13152SOL    HW251516   8.873   9.258   3.442  1.6665 -0.7452  0.5707
13153SOL     OW51517   4.769   4.150   3.128  0.6724 -0.1231  0.5548
13153SOL    HW151518   4.771   4.165   3.227  1.1633 -1.8610  0.8395
13153SOL    HW251519   4.703   4.078   3.107  1.6566 -0.8187 -0.2060
13154SOL     OW51520   1.453   7.296   4.433  0.0972  0.7294 -0.9662
13154SOL    HW151521   1.431   7.371   4.371 -0.8703 -0.8328 -2.5179
13154SOL    HW251522   1.517   7.233   4.389  0.5697  0.3884  0.1776
13155SOL     OW51523   9.905   4.625   5.096  0.3954  0.2223  0.5491
13155SOL    HW151524   9.855   4.539   5.093  1.7873 -0.5812 -0.0453
13155SOL    HW251525   9.861   4.687   5.162 -1.4701 -0.3761 -0.1088
13156SOL     OW51526   4.134   3.861   4.510  0.0646 -0.1171  0.0375
13156SOL    HW151527   4.067   3.786   4.507 -0.9924  0.8427 -1.0656
13156SOL    HW251528   4.086   3.948   4.500  1.4230  0.6220 -0.0562
13157SOL     OW51529   5.937   1.967   1.541 -0.3597 -0.2998 -0.2604
13157SOL    HW151530   5.964   1.966   1.445 -0.4766  2.1445 -0.3342
13157SOL    HW251531   6.003   1.915   1.595  0.9480  0.2141 -1.3433
13158SOL     OW51532   3.596   0.882   1.264 -0.1832  0.4652 -0.4811
13158SOL    HW151533   3.497   0.889   1.252 -0.4006 -1.6250 -0.2039
13158SOL    HW251534   3.623   0.929   1.347 -1.2828 -0.8326  0.6460
13159SOL     OW51535   1.799   9.226   4.803 -0.3196  0.6407 -0.8446
13159SOL    HW151536   1.859   9.289   4.852 -0.2836  0.6534 -0.9063
13159SOL    HW251537   1.843   9.197   4.718 -0.6963  1.2184 -1.2511
13160SOL     OW51538   9.003   5.163   1.657 -0.1858  0.9430  0.0234
13160SOL    HW151539   8.999   5.204   1.748  3.0893  0.0741  0.5904
13160SOL    HW251540   9.091   5.117   1.644 -1.5800 -1.1420 -2.6482
13161SOL     OW51541   8.852   2.058   6.762 -0.3886 -0.2690 -0.2619
13161SOL    HW151542   8.914   2.108   6.701 -2.4245  0.7438 -1.5586
13161SOL    HW251543   8.792   1.999   6.708 -1.0683 -0.6799  0.9150
13162SOL     OW51544   0.870   4.504   8.414 -0.1264  0.4596  0.1944
13162SOL    HW151545   0.911   4.515   8.324 -2.3035  0.6707 -0.8121
13162SOL    HW251546   0.901   4.418   8.455  1.2597  0.6045 -0.5412
13163SOL     OW51547   7.740   3.702   1.903 -0.3429 -0.4622 -0.1605
13163SOL    HW151548   7.659   3.751   1.873  1.3770  2.9416  0.5458
13163SOL    HW251549   7.735   3.607   1.872 -2.7309  0.6743 -3.5095
13164SOL     OW51550   5.754   0.415   7.864  0.2571 -0.3479  0.4126
13164SOL    HW151551   5.786   0.413   7.958  1.0941 -1.4037  0.1109
13164SOL    HW251552   5.716   0.325   7.840 -1.9657  0.5599  0.4311
13165SOL     OW51553   0.943   8.836   1.532  0.3156  1.0094 -0.0444
13165SOL    HW151554   0.926   8.787   1.447 -1.0751 -0.0899  0.8312
13165SOL    HW251555   0.877   8.911   1.541  0.3109  0.9781  0.1761
13166SOL     OW51556   7.705   5.622   3.713  0.2656  0.5176 -0.4999
13166SOL    HW151557   7.722   5.618   3.811 -0.6330  0.9086 -0.3233
13166SOL    HW251558   7.628   5.562   3.690  1.8562 -1.2960 -1.2963
13167SOL     OW51559   9.341   8.944   9.290 -0.5328  0.0732 -0.0082
13167SOL    HW151560   9.441   8.946   9.296 -0.3883 -0.1148 -1.8450
13167SOL    HW251561   9.308   8.851   9.303 -0.4426  0.0794  0.2607
13168SOL     OW51562   9.513   3.759   1.695 -0.3395 -0.1971 -0.1933
13168SOL    HW151563   9.610   3.773   1.712 -0.1597  0.9513 -2.0952
13168SOL    HW251564   9.459   3.805   1.766  0.4598  0.6751 -0.1488
13169SOL     OW51565   9.091   4.213   1.644 -0.1360  0.4757  0.1785
13169SOL    HW151566   9.153   4.137   1.626  0.1770  0.5438  0.9243
13169SOL    HW251567   9.022   4.184   1.711  0.3589  1.0233  0.9385
13170SOL     OW51568   0.161   2.568   5.313 -0.3386 -0.6458 -0.5342
13170SOL    HW151569   0.203   2.554   5.403 -3.2359  0.6903  1.1276
13170SOL    HW251570   0.166   2.484   5.260  1.8793 -1.3127  0.6766
13171SOL     OW51571   4.857   4.277   7.698  0.4815  0.5184 -0.3882
13171SOL    HW151572   4.878   4.260   7.601 -0.0881  1.7689 -0.7390
13171SOL    HW251573   4.903   4.361   7.727 -0.6407  1.0035 -0.0049
13172SOL     OW51574   4.715   2.825   1.544 -0.1471 -0.0907  0.4150
13172SOL    HW151575   4.724   2.755   1.473  1.6053 -0.1804  0.6993
13172SOL    HW251576   4.709   2.915   1.501  1.1206 -0.1278  0.1417
13173SOL     OW51577   4.383   2.733   9.310  0.3253 -0.2592 -0.1322
13173SOL    HW151578   4.312   2.676   9.352 -0.0331  0.7262  0.5996
13173SOL    HW251579   4.429   2.680   9.239 -0.4480 -1.2513  0.0869
13174SOL     OW51580   4.391   3.447   5.337 -0.1305  0.0009 -0.0601
13174SOL    HW151581   4.396   3.539   5.298  1.3699  0.5310  1.3179
13174SOL    HW251582   4.390   3.453   5.437 -0.2818 -1.4675  0.0382
13175SOL     OW51583   8.794   3.614   8.246 -0.1005  0.4155  0.2024
13175SOL    HW151584   8.732   3.674   8.196 -0.6416  0.2736  0.7014
13175SOL    HW251585   8.767   3.610   8.342 -0.3161 -0.9560  0.0991
13176SOL     OW51586   1.869   0.213   4.553 -0.7171  0.2100  0.2339
13176SOL    HW151587   1.888   0.196   4.650 -0.4785 -0.9494 -0.0087
13176SOL    HW251588   1.770   0.222   4.540 -0.8172 -0.5022  0.4570
13177SOL     OW51589   4.441   1.416   0.297  0.4622  0.0053 -0.1764
13177SOL    HW151590   4.520   1.454   0.344 -1.0185 -0.5627  2.9398
13177SOL    HW251591   4.449   1.316   0.294  0.8119  0.0729 -1.6666
13178SOL     OW51592   8.612   6.906   9.137  0.1531  0.1231 -0.0733
13178SOL    HW151593   8.536   6.899   9.073  0.7551 -0.4204 -0.7512
13178SOL    HW251594   8.691   6.856   9.100  0.3733 -0.5860  1.3037
13179SOL     OW51595   7.513   6.104   0.670 -0.5417 -0.1045 -0.7009
13179SOL    HW151596   7.496   6.151   0.583 -1.5615 -0.6720 -0.8129
13179SOL    HW251597   7.487   6.008   0.662  1.3813 -0.6781 -0.4123
13180SOL     OW51598   7.621   6.492   8.255  0.0877 -0.3002  0.3315
13180SOL    HW151599   7.574   6.574   8.219  0.4721 -0.4690 -0.5767
13180SOL    HW251600   7.654   6.438   8.178  0.2040 -1.0985  0.9496
13181SOL     OW51601   8.995   4.255   0.185 -0.6199  0.0325 -0.1782
13181SOL    HW151602   9.052   4.181   0.220  1.5232  0.6989 -2.1402
13181SOL    HW251603   8.976   4.320   0.259  0.0661 -0.8656  0.8064
13182SOL     OW51604   7.029   6.896   7.628  0.2704 -0.0095 -0.0114
13182SOL    HW151605   6.956   6.890   7.559 -0.1968 -0.6917  0.5333
13182SOL    HW251606   7.073   6.985   7.622 -0.0426  0.0896 -0.9245
13183SOL     OW51607   1.020   4.156   3.215 -0.4699 -0.4026  0.2979
13183SOL    HW151608   1.108   4.110   3.203 -1.0521 -1.5489  0.3762
13183SOL    HW251609   1.035   4.255   3.219  0.9012 -0.6312  1.1799
13184SOL     OW51610   3.420   9.707   6.349  0.2538 -0.2860  0.2511
13184SOL    HW151611   3.492   9.699   6.419  1.6031  2.3936 -0.7391
13184SOL    HW251612   3.454   9.673   6.262  0.0702  0.2435 -0.0343
13185SOL     OW51613   4.909   7.532   6.843  0.5256  0.0411  0.0117
13185SOL    HW151614   4.927   7.438   6.873 -1.8948  0.2552  2.3537
13185SOL    HW251615   4.810   7.548   6.844  0.9343  2.7134 -0.0917
13186SOL     OW51616   9.683   5.347   2.106 -0.1066 -0.4320 -0.3128
13186SOL    HW151617   9.728   5.415   2.164 -1.1760 -0.6904  0.8473
13186SOL    HW251618   9.729   5.259   2.115  0.0069 -0.3628 -0.2220
13187SOL     OW51619   2.976   8.317   2.606 -0.1489 -0.5578  0.3197
13187SOL    HW151620   2.922   8.237   2.582  1.4955 -1.5946 -0.0140
13187SOL    HW251621   3.073   8.292   2.613  0.3346  1.2823  0.7459
13188SOL     OW51622   0.998   7.891   4.993  0.2077  0.1503 -0.3009
13188SOL    HW151623   1.002   7.977   5.045 -0.4737  0.0650 -0.0982
13188SOL    HW251624   1.081   7.839   5.008  0.5535  0.7035 -0.2904
13189SOL     OW51625   1.800   6.278   4.977  0.0634  0.2707 -0.1928
13189SOL    HW151626   1.789   6.326   4.890 -0.0272  1.6172  0.5328
13189SOL    HW251627   1.778   6.341   5.052 -0.5404 -1.0710  0.7760
13190SOL     OW51628   4.049   3.819   7.986  0.6648  0.3001  0.2705
13190SOL    HW151629   3.982   3.754   8.024  0.1278  0.5082 -0.3018
13190SOL    HW251630   4.041   3.819   7.886  1.9697 -0.1460  0.1550
13191SOL     OW51631   3.130   3.890   2.242 -0.0543 -0.2257 -0.0458
13191SOL    HW151632   3.203   3.898   2.174 -0.4084 -2.0244 -0.6596
13191SOL    HW251633   3.162   3.831   2.317 -1.4789 -2.4308 -1.1555
13192SOL     OW51634   3.280   8.326   4.959  0.1341 -0.5710  0.0559
13192SOL    HW151635   3.242   8.397   4.899 -1.0197 -1.3690 -0.1850
13192SOL    HW251636   3.206   8.286   5.014  1.0078 -0.6005  1.2284
13193SOL     OW51637   8.093   0.283   4.378  0.1892 -0.3253 -0.3136
13193SOL    HW151638   8.117   0.204   4.322  1.7775 -1.1537  1.4811
13193SOL    HW251639   8.176   0.333   4.401 -0.6539  1.0605 -0.2344
13194SOL     OW51640   0.688   6.506   3.004  0.9368 -0.3542 -0.4437
13194SOL    HW151641   0.776   6.474   2.969  1.1446 -0.0270 -0.2207
13194SOL    HW251642   0.626   6.428   3.012  1.5126 -0.7572  0.2965
13195SOL     OW51643   0.190   5.006   2.288  0.3460  0.0531  0.3307
13195SOL    HW151644   0.206   5.038   2.381  2.6561 -2.0527  0.7158
13195SOL    HW251645   0.117   4.938   2.288 -0.3479  0.7861  0.4241
13196SOL     OW51646   1.449   2.945   1.826  0.3219  0.0042  0.3409
13196SOL    HW151647   1.447   2.874   1.896  0.6395 -2.1182 -1.7235
13196SOL    HW251648   1.542   2.955   1.791  0.2578  1.3720  0.5372
13197SOL     OW51649   6.271   9.832   8.412 -0.0489  0.2404  0.4260
13197SOL    HW151650   6.357   9.852   8.365  0.1092 -0.7178  0.2923
13197SOL    HW251651   6.206   9.907   8.396  0.8423  1.0938  0.7484
13198SOL     OW51652   4.970   8.489   6.103 -0.8131 -0.1862 -0.1125
13198SOL    HW151653   4.973   8.589   6.106 -2.0363 -0.1531  0.2627
13198SOL    HW251654   4.875   8.458   6.114 -0.4764 -1.3786 -0.4936
13199SOL     OW51655   2.308   8.368   4.958 -0.8893  0.0081 -0.4740
13199SOL    HW151656   2.340   8.289   5.011 -1.3291  0.4751  0.4906
13199SOL    HW251657   2.360   8.449   4.984 -0.4611  0.0520 -1.4412
13200SOL     OW51658   8.861   7.216   5.785 -0.2343  0.0700 -0.5469
13200SOL    HW151659   8.918   7.134   5.775 -0.6370 -0.2530 -0.1881
13200SOL    HW251660   8.766   7.194   5.764 -0.4372  0.3123  0.1108
13201SOL     OW51661   1.236   8.125   6.054 -0.1236  0.8004 -0.1696
13201SOL    HW151662   1.173   8.124   6.131 -0.1088 -1.7351 -0.1785
13201SOL    HW251663   1.265   8.220   6.037 -0.5194  1.4570  2.5743
13202SOL     OW51664   0.882   1.093   6.644 -0.1408  0.0645 -0.2999
13202SOL    HW151665   0.861   1.076   6.548 -0.3212 -0.1602 -0.2218
13202SOL    HW251666   0.811   1.052   6.701  1.4918 -2.3674  0.0523
13203SOL     OW51667   6.110   1.545   4.313 -0.1474  0.4453  0.1004
13203SOL    HW151668   6.066   1.543   4.223 -0.4902 -0.6776  0.2834
13203SOL    HW251669   6.050   1.591   4.378  0.0835  1.2220 -0.2300
13204SOL     OW51670   0.544   6.705   9.840  0.3006 -0.2900  0.2905
13204SOL    HW151671   0.446   6.686   9.836  0.6370 -1.7649 -2.8332
13204SOL    HW251672   0.560   6.803   9.828 -0.7164 -0.2484 -0.8038
13205SOL     OW51673   1.064   6.114   2.060 -0.5195 -0.3582 -0.6215
13205SOL    HW151674   1.011   6.106   1.975 -0.5942  1.4136 -0.7694
13205SOL    HW251675   1.144   6.054   2.056 -0.4194 -0.1367 -2.0255
13206SOL     OW51676   5.613   8.621   6.826  0.0891  0.3449  0.2648
13206SOL    HW151677   5.582   8.600   6.919 -1.4690 -1.1982 -0.5936
13206SOL    HW251678   5.692   8.564   6.803 -0.8845 -0.8653 -0.1398
13207SOL     OW51679   2.624   5.107   3.643  0.1600 -0.1859 -0.3101
13207SOL    HW151680   2.577   5.033   3.691  0.4859 -0.4355 -0.3755
13207SOL    HW251681   2.573   5.192   3.656  1.3220  0.1920  2.2623
13208SOL     OW51682   8.946   7.876   8.116 -0.2598  0.1895  0.0691
13208SOL    HW151683   8.871   7.937   8.093  0.2955  0.4838 -0.9638
13208SOL    HW251684   8.932   7.788   8.070 -0.2583  0.0549  0.3248
13209SOL     OW51685   9.764   0.154   5.625  0.7758  0.1611 -0.2150
13209SOL    HW151686   9.794   0.165   5.531  1.4341  1.1305  0.1086
13209SOL    HW251687   9.839   0.118   5.680 -0.0714 -1.9547 -0.3731
13210SOL     OW51688   2.424   4.845   7.069  0.5549 -0.2836 -0.2540
13210SOL    HW151689   2.330   4.860   7.038  0.6800  0.5775 -0.2234
13210SOL    HW251690   2.487   4.857   6.992  0.6517 -0.8179 -0.2650
13211SOL     OW51691   8.155   5.864   2.958 -0.0525  0.1381  0.2816
13211SOL    HW151692   8.211   5.817   2.891 -1.5275 -1.1284 -0.1013
13211SOL    HW251693   8.208   5.936   3.003  2.2218 -1.8195  0.7969
13212SOL     OW51694   8.715   2.611   7.472  0.1343  0.5774  0.0436
13212SOL    HW151695   8.788   2.634   7.408  0.5201  2.2239  1.0470
13212SOL    HW251696   8.693   2.691   7.528 -1.1228 -0.4486  1.0528
13213SOL     OW51697   8.464   7.692   6.072 -0.1034  0.6150 -0.6776
13213SOL    HW151698   8.531   7.721   6.140 -0.3529  0.7116 -0.4700
13213SOL    HW251699   8.406   7.620   6.110 -0.5799  1.0337 -0.6061
13214SOL     OW51700   8.276   8.749   3.346  0.5005  0.4524 -0.1065
13214SOL    HW151701   8.189   8.761   3.298  1.3050  1.5478 -1.3459
13214SOL    HW251702   8.348   8.730   3.279  0.8787 -2.5170  1.0713
13215SOL     OW51703   8.462   1.087   6.278 -0.0836  0.1787 -0.0994
13215SOL    HW151704   8.444   1.001   6.325 -0.8387  0.3985  0.0199
13215SOL    HW251705   8.426   1.084   6.185  2.1312 -0.5539 -0.9711
13216SOL     OW51706   0.072   1.893   6.327 -0.3093 -0.1088 -0.3022
13216SOL    HW151707   0.053   1.797   6.304 -0.3898 -0.1024 -0.2615
13216SOL    HW251708   0.170   1.904   6.344 -0.6771 -0.8049  2.5903
13217SOL     OW51709   1.773   8.721   8.918 -0.2391 -0.3635  0.1795
13217SOL    HW151710   1.684   8.752   8.950 -0.1594  0.0844 -0.0263
13217SOL    HW251711   1.775   8.719   8.818 -0.2474 -1.0524  0.1905
13218SOL     OW51712   5.667   2.471   1.948 -0.0477 -0.6314  0.2913
13218SOL    HW151713   5.609   2.551   1.957 -0.0518 -0.6876  0.7958
13218SOL    HW251714   5.635   2.414   1.873 -0.1568 -0.2541  0.0526
13219SOL     OW51715   3.661   5.201   4.094 -0.3517  0.1650 -0.5959
13219SOL    HW151716   3.683   5.278   4.034 -0.2404  1.0704  0.5921
13219SOL    HW251717   3.562   5.197   4.108 -0.2269  1.0681  0.6117
13220SOL     OW51718   4.329   1.990   6.970  0.7072 -0.3788 -0.1321
13220SOL    HW151719   4.322   2.031   7.061  3.0343 -0.3569  0.0698
13220SOL    HW251720   4.324   1.891   6.978  0.1082 -0.3512 -0.0903
13221SOL     OW51721   0.907   1.928   7.175 -0.0228  0.0130 -0.2324
13221SOL    HW151722   0.823   1.887   7.140  0.8533  0.5191 -3.0565
13221SOL    HW251723   0.985   1.897   7.121  1.2182  2.0178  0.3299
13222SOL     OW51724   6.918   6.514   4.965  0.3971  0.0482  0.0520
13222SOL    HW151725   6.846   6.580   4.988  1.3097  1.2486 -0.5010
13222SOL    HW251726   6.939   6.520   4.868  1.8328  0.2855  0.3720
13223SOL     OW51727   4.864   0.964   3.930  0.2297  0.2486  0.0372
13223SOL    HW151728   4.789   0.946   3.867  1.4658 -2.3496 -0.7577
13223SOL    HW251729   4.840   0.933   4.021  1.3907 -3.4115 -0.8174
13224SOL     OW51730   7.959   7.078   2.696 -0.1716  0.1888  0.1777
13224SOL    HW151731   7.962   7.065   2.795 -0.0202  1.2135  0.3128
13224SOL    HW251732   7.952   6.989   2.651 -0.9123 -0.2527  1.1346
13225SOL     OW51733   1.711   5.115   8.149  0.5045 -0.1791  0.2619
13225SOL    HW151734   1.641   5.165   8.201  0.4839 -1.2104  1.2609
13225SOL    HW251735   1.702   5.017   8.168  1.0905 -0.4775 -0.9968
13226SOL     OW51736   7.176   0.692   2.895  0.2423  0.1809 -0.0434
13226SOL    HW151737   7.210   0.785   2.911  0.9504 -0.2583  1.0307
13226SOL    HW251738   7.108   0.669   2.965 -0.3031  0.0745 -0.6085
13227SOL     OW51739   8.656   5.959   6.542 -0.5628 -0.0086  0.5601
13227SOL    HW151740   8.574   5.945   6.598 -0.0443 -2.3826  0.7788
13227SOL    HW251741   8.729   5.996   6.599 -0.8981  0.2488  0.8235
13228SOL     OW51742   6.370   4.409   1.935 -0.2244  0.4600 -0.2582
13228SOL    HW151743   6.358   4.505   1.908 -0.3187  0.7808  0.8722
13228SOL    HW251744   6.467   4.389   1.944 -0.2024  0.4310 -0.5479
13229SOL     OW51745   2.531   7.042   7.026  0.1924 -0.2566  0.0070
13229SOL    HW151746   2.593   7.070   6.952 -1.1949 -0.0973 -1.1134
13229SOL    HW251747   2.539   7.106   7.102  1.8303 -0.5681  0.1060
13230SOL     OW51748   0.377   4.325  10.066  0.4756  0.2336  0.2881
13230SOL    HW151749   0.361   4.280   9.978  1.6574 -1.4799  0.9142
13230SOL    HW251750   0.398   4.421  10.052  2.4239 -0.4072 -1.4397
13231SOL     OW51751   6.851   4.224   0.164  0.3059 -0.1581  0.2280
13231SOL    HW151752   6.937   4.199   0.209  0.9930 -0.9963 -1.5343
13231SOL    HW251753   6.778   4.164   0.198  1.2933 -2.4293 -1.4838
13232SOL     OW51754   9.886   9.920   9.696  0.5757 -0.2646 -0.2329
13232SOL    HW151755   9.965   9.978   9.679  1.2751 -1.0311  0.3545
13232SOL    HW251756   9.881   9.848   9.627  0.5596 -0.3975 -0.0933
13233SOL     OW51757   1.160   0.263   3.270  0.0135  0.0812  0.3814
13233SOL    HW151758   1.221   0.312   3.208  1.6988 -1.4547  0.8023
13233SOL    HW251759   1.210   0.235   3.352 -0.5861 -3.2467 -0.3030
13234SOL     OW51760   0.913   6.186   1.022 -0.0794  0.4490  0.1513
13234SOL    HW151761   0.878   6.280   1.022 -0.5618  0.2711  0.0805
13234SOL    HW251762   0.994   6.180   0.964 -0.7623  0.5548 -0.8233
13235SOL     OW51763   4.112   8.170   2.292 -0.1583  0.3515  0.4949
13235SOL    HW151764   4.139   8.266   2.283 -1.2797  0.7232  0.9678
13235SOL    HW251765   4.046   8.147   2.221  0.5122 -0.2159  0.0592
13236SOL     OW51766   5.295   8.806   4.594  0.5829  0.5246 -0.7987
13236SOL    HW151767   5.359   8.785   4.668  0.2357 -0.1710 -0.6870
13236SOL    HW251768   5.288   8.905   4.583  2.0684  0.5876 -1.1678
13237SOL     OW51769   4.754   0.899   7.114  0.4194 -0.3042  0.7980
13237SOL    HW151770   4.785   0.976   7.058 -0.6884 -0.5788 -0.2256
13237SOL    HW251771   4.781   0.814   7.070 -1.2231 -0.5350  0.2116
13238SOL     OW51772   8.068   9.447   7.926  0.1407  0.3704  0.0414
13238SOL    HW151773   8.008   9.409   7.995  0.5780  0.2137  0.3375
13238SOL    HW251774   8.154   9.478   7.968 -0.4925  2.3666 -0.0652
13239SOL     OW51775   1.643   0.208   6.001  0.7941  0.1896 -0.3983
13239SOL    HW151776   1.690   0.119   6.004  0.7066  0.0543 -2.6955
13239SOL    HW251777   1.544   0.193   5.995  0.8347  0.4365 -1.6836
13240SOL     OW51778   1.500   8.024   6.141 -0.3046  0.1935 -0.1418
13240SOL    HW151779   1.481   7.928   6.118 -0.6903  0.3568 -0.5045
13240SOL    HW251780   1.415   8.076   6.139 -0.5081  0.0385  2.5969
13241SOL     OW51781   6.931   2.836   0.765  0.0149 -0.4004  0.4012
13241SOL    HW151782   6.896   2.756   0.815 -1.5027 -0.3539 -0.5823
13241SOL    HW251783   7.029   2.846   0.784 -0.1104 -1.5660  1.7773
13242SOL     OW51784   8.659   1.474   2.121  0.4645  0.0599 -0.0355
13242SOL    HW151785   8.600   1.451   2.043  0.8603  0.3972 -0.4457
13242SOL    HW251786   8.738   1.526   2.087  1.3165 -0.9351  0.4282
13243SOL     OW51787   1.019   5.474   5.925 -0.0521  0.0683 -0.6170
13243SOL    HW151788   0.986   5.566   5.905  0.2523  0.1782 -0.6295
13243SOL    HW251789   1.114   5.465   5.893  1.2393  0.9767  2.7754
13244SOL     OW51790   2.443   2.429   6.170  0.0417  0.2555  0.1958
13244SOL    HW151791   2.489   2.389   6.249 -0.5324  0.2804  0.5485
13244SOL    HW251792   2.366   2.371   6.142 -0.9683  1.2234  0.8887
13245SOL     OW51793   9.208   2.227   1.691 -0.0179 -0.0159 -0.0741
13245SOL    HW151794   9.304   2.251   1.703 -0.1012  0.9472 -1.2084
13245SOL    HW251795   9.153   2.276   1.759  0.2242 -0.0228  0.1278
13246SOL     OW51796   0.456   3.491   0.620  0.0581  0.0458 -0.2352
13246SOL    HW151797   0.425   3.417   0.679 -0.2318  0.6508  0.3814
13246SOL    HW251798   0.379   3.550   0.597  0.7032  1.5141  1.2504
13247SOL     OW51799   0.951   4.149   9.920  0.0042 -0.2674 -0.1455
13247SOL    HW151800   0.997   4.174  10.005  0.5142 -0.0098 -0.4921
13247SOL    HW251801   0.852   4.147   9.935  0.1235 -0.8518  0.6117
13248SOL     OW51802   0.628   4.253   9.312  0.6792  0.1762  0.4621
13248SOL    HW151803   0.726   4.262   9.297  0.5033 -0.6077 -1.3223
13248SOL    HW251804   0.601   4.157   9.301 -0.2159  0.2941  1.4713
13249SOL     OW51805   0.270   0.154   4.125 -0.1621  0.6070  0.6367
13249SOL    HW151806   0.277   0.249   4.096 -2.1723  0.8941  1.0710
13249SOL    HW251807   0.322   0.096   4.061  3.7000  2.2738  2.1108
13250SOL     OW51808   6.666   4.949   1.907  0.4193 -0.1858 -0.3559
13250SOL    HW151809   6.684   4.860   1.948 -1.8572 -1.3861 -1.8131
13250SOL    HW251810   6.568   4.956   1.885  0.5483  2.7182 -0.1603
13251SOL     OW51811   4.540   2.325   9.853  0.3668 -0.0750  0.4788
13251SOL    HW151812   4.485   2.407   9.871  0.5326  0.2054 -0.2467
13251SOL    HW251813   4.636   2.344   9.874  0.6003  0.3354 -0.8708
13252SOL     OW51814   9.577   9.115   0.044 -0.2734 -0.1541  0.1860
13252SOL    HW151815   9.573   9.032  -0.013  0.3156  0.5715 -0.9288
13252SOL    HW251816   9.590   9.089   0.140 -1.3930 -1.3960  0.0168
13253SOL     OW51817   1.174   8.555   0.572  0.0007  0.2461 -0.1640
13253SOL    HW151818   1.130   8.594   0.491 -0.2264  0.2836 -0.0232
13253SOL    HW251819   1.257   8.606   0.592  0.3857 -0.1480 -0.7346
13254SOL     OW51820   1.196   9.425   6.214 -0.1642 -0.3916  0.6410
13254SOL    HW151821   1.227   9.406   6.121 -1.5431 -1.3863  0.3614
13254SOL    HW251822   1.143   9.509   6.215  1.7499  0.8489  0.9647
13255SOL     OW51823   8.033   9.869   9.448  0.4058 -0.0487  0.5050
13255SOL    HW151824   8.092   9.850   9.527 -0.7966 -1.8709  0.9854
13255SOL    HW251825   7.959   9.802   9.445 -0.0178  0.4949 -1.7307
13256SOL     OW51826   6.548   3.032   8.459  0.5069 -0.0588  0.1362
13256SOL    HW151827   6.553   2.988   8.549 -2.5739 -0.4242  0.1497
13256SOL    HW251828   6.496   3.116   8.466  1.2180  0.5010 -1.1236
13257SOL     OW51829   9.285   1.111  10.008  0.3708  0.3840  0.3428
13257SOL    HW151830   9.322   1.188  10.059  0.0189  0.6512  0.2023
13257SOL    HW251831   9.319   1.114   9.914 -0.8833  1.2675 -0.0943
13258SOL     OW51832   1.924   6.428   8.610 -0.1552  0.3815  0.1409
13258SOL    HW151833   1.854   6.483   8.656 -0.8557  0.7084 -1.2839
13258SOL    HW251834   1.950   6.351   8.669 -2.8090 -0.6210  0.0869
13259SOL     OW51835   0.889   6.238   7.807 -0.1532 -0.1806 -0.3885
13259SOL    HW151836   0.987   6.218   7.813 -0.0703  0.5467  1.1885
13259SOL    HW251837   0.874   6.334   7.832 -1.2695 -0.2986 -0.6054
13260SOL     OW51838   3.016   2.342   0.046 -0.0418 -0.2039 -0.9994
13260SOL    HW151839   2.986   2.434   0.019  0.8871  0.5907  0.6477
13260SOL    HW251840   3.036   2.289  -0.036 -1.5222  0.7309 -2.0082
13261SOL     OW51841   2.973   6.493   9.967  0.2023  0.7082  0.0448
13261SOL    HW151842   2.969   6.587  10.003  3.0663  0.6763  0.5021
13261SOL    HW251843   3.028   6.437  10.028 -1.1229 -1.2031 -0.4785
13262SOL     OW51844   6.948   4.305   7.736  0.6123 -0.2671  0.0028
13262SOL    HW151845   6.900   4.252   7.807  2.1816  0.5092  1.6606
13262SOL    HW251846   7.021   4.249   7.697 -0.4925 -0.8345 -1.3346
13263SOL     OW51847   8.997   5.156   1.260 -0.6219 -0.0220 -0.1509
13263SOL    HW151848   8.990   5.067   1.215 -0.7393 -0.6627  1.0991
13263SOL    HW251849   8.989   5.229   1.192  0.4104 -0.9760 -1.3087
13264SOL     OW51850   0.890   4.757   0.298  0.3117 -0.1750 -0.1755
13264SOL    HW151851   0.912   4.684   0.362 -0.9329 -0.1976  0.2375
13264SOL    HW251852   0.846   4.833   0.347  0.5208  0.3462 -0.7867
13265SOL     OW51853   6.776   0.060   7.237 -0.6213  0.2396  0.1010
13265SOL    HW151854   6.710  -0.013   7.218 -1.2450  0.9579 -0.4896
13265SOL    HW251855   6.760   0.096   7.329 -1.0690  0.4320 -0.0516
13266SOL     OW51856   2.029   5.353   9.138 -0.0415 -0.1887 -0.2863
13266SOL    HW151857   2.126   5.333   9.119  0.3240  1.6785 -0.5043
13266SOL    HW251858   1.976   5.337   9.055  0.5426  1.5465 -1.0232
13267SOL     OW51859   8.931   6.339   3.072 -0.1294 -0.1443 -0.4521
13267SOL    HW151860   9.029   6.324   3.058  0.0308  0.3423  0.1048
13267SOL    HW251861   8.905   6.304   3.162 -0.7821 -1.6229 -1.2082
13268SOL     OW51862   6.195   0.122   6.931  0.4558  0.2340 -0.0751
13268SOL    HW151863   6.137   0.044   6.909  0.6199  0.5020 -1.5007
13268SOL    HW251864   6.157   0.172   7.008 -1.5018  0.7101 -1.3259
13269SOL     OW51865   4.223   2.833   0.951 -0.3370 -0.0532 -0.1051
13269SOL    HW151866   4.129   2.800   0.950 -0.3809  0.0760 -0.7262
13269SOL    HW251867   4.286   2.755   0.946 -0.4213 -0.1111 -0.2921
13270SOL     OW51868   0.087   3.163   1.765 -0.4100 -0.6112 -0.0597
13270SOL    HW151869   0.164   3.101   1.777 -0.1276  0.1390  2.3315
13270SOL    HW251870   0.007   3.126   1.813 -0.4494  0.4612  0.7261
13271SOL     OW51871   4.556   0.257   3.844  0.0138  0.2311 -0.1844
13271SOL    HW151872   4.528   0.341   3.797  0.1570  0.8722  0.8435
13271SOL    HW251873   4.623   0.281   3.915  0.9209 -0.9016 -0.6560
13272SOL     OW51874   4.732   4.289   9.833 -0.0334  0.2680  0.3422
13272SOL    HW151875   4.831   4.278   9.837  0.0445  0.9559  0.3730
13272SOL    HW251876   4.697   4.310   9.924 -0.1373  0.5834  0.2314
13273SOL     OW51877   4.149   8.783   8.112  0.3210  0.1495 -0.4822
13273SOL    HW151878   4.221   8.727   8.153  0.0771 -0.1199 -0.4160
13273SOL    HW251879   4.071   8.788   8.175  0.5923  1.1027 -0.2048
13274SOL     OW51880   2.581   4.287   4.580 -0.0967  0.5853 -0.3653
13274SOL    HW151881   2.555   4.222   4.508 -0.5080  0.8329 -0.4409
13274SOL    HW251882   2.608   4.374   4.538  0.9740  0.2954 -0.2950
13275SOL     OW51883   2.589   2.940   3.306 -0.1909  0.7221 -0.5790
13275SOL    HW151884   2.592   2.898   3.397 -0.5467  2.3595  0.1911
13275SOL    HW251885   2.495   2.964   3.283 -0.1399  0.0524 -1.5081
13276SOL     OW51886   6.137   4.652   7.614 -0.0144 -0.3690 -0.6696
13276SOL    HW151887   6.177   4.592   7.544 -1.7632  0.4018 -2.3778
13276SOL    HW251888   6.050   4.689   7.581 -0.6788  0.3462  1.7759
13277SOL     OW51889   9.773   7.319   1.047 -0.1803 -0.4207 -0.5213
13277SOL    HW151890   9.759   7.269   1.132  0.0482 -0.6396 -0.6089
13277SOL    HW251891   9.717   7.402   1.046 -0.1342 -0.3852 -0.1322
13278SOL     OW51892   6.529   9.557   4.435 -0.0551  0.2310  0.0754
13278SOL    HW151893   6.554   9.533   4.529  0.3779  0.6580  0.0722
13278SOL    HW251894   6.573   9.493   4.371 -1.5891 -1.0232  0.2295
13279SOL     OW51895   4.341   2.102   2.066 -0.2376 -0.0161  0.1184
13279SOL    HW151896   4.356   2.146   1.978  2.3748  0.9613  1.0238
13279SOL    HW251897   4.359   2.004   2.058  0.3044  0.1240 -0.3539
13280SOL     OW51898   6.504   8.038   3.311  0.1263 -0.5354 -0.0690
13280SOL    HW151899   6.454   7.985   3.242  0.2071 -0.6424 -0.0449
13280SOL    HW251900   6.541   8.121   3.269 -1.0640  0.1335  0.1803
13281SOL     OW51901   1.580   0.326   9.917 -0.2280  0.2106  0.0140
13281SOL    HW151902   1.517   0.378   9.860 -0.7341  0.6733  0.9857
13281SOL    HW251903   1.530   0.254   9.964  0.2470 -0.3686 -0.3559
13282SOL     OW51904   0.041   3.120   8.739 -0.2177  0.4718 -0.1543
13282SOL    HW151905  -0.057   3.131   8.722 -0.1961  0.9923  0.0554
13282SOL    HW251906   0.080   3.056   8.672 -1.0491 -1.1163  0.8376
13283SOL     OW51907   9.237   8.966   0.642 -0.0270 -0.2586 -0.0104
13283SOL    HW151908   9.161   9.029   0.657  1.3579  1.6899 -0.9644
13283SOL    HW251909   9.282   8.948   0.729  0.0717  0.7413  0.1570
13284SOL     OW51910   8.820   1.350   7.451 -0.7314 -0.4506  0.2682
13284SOL    HW151911   8.796   1.376   7.358 -0.7322 -1.0284  0.1053
13284SOL    HW251912   8.739   1.316   7.498 -0.7593 -0.0349  0.5231
13285SOL     OW51913   5.453   5.341   1.887  0.5487  0.4139 -0.0668
13285SOL    HW151914   5.543   5.312   1.855  0.7191  1.5875 -0.6703
13285SOL    HW251915   5.460   5.432   1.929 -0.4287  0.6901 -0.4918
13286SOL     OW51916   1.158   0.120   0.004  0.0877 -0.1701  0.0622
13286SOL    HW151917   1.169   0.091   0.099 -0.4687  1.0596  0.5099
13286SOL    HW251918   1.122   0.044  -0.051 -0.6713 -0.5470  1.0691
13287SOL     OW51919   4.894   8.511   9.658 -0.4249  0.3127 -0.0721
13287SOL    HW151920   4.840   8.592   9.684 -2.0889 -0.7568 -0.1140
13287SOL    HW251921   4.916   8.516   9.561  1.0072  1.5822  0.3050
13288SOL     OW51922   9.559   8.294   4.862 -0.1559 -0.5885  0.0830
13288SOL    HW151923   9.584   8.205   4.824 -0.8512 -1.0460  0.6922
13288SOL    HW251924   9.614   8.312   4.944  2.5252  1.1199 -1.9843
13289SOL     OW51925   7.341   6.578   6.520 -0.4095 -0.1228  0.3881
13289SOL    HW151926   7.304   6.494   6.560 -0.3275 -0.1156  0.4784
13289SOL    HW251927   7.324   6.654   6.582  0.9962 -0.3572  1.0765
13290SOL     OW51928   0.587   1.950   1.285  0.0216  0.0126 -0.7711
13290SOL    HW151929   0.636   2.021   1.335 -0.2894  1.0298 -1.8836
13290SOL    HW251930   0.593   1.864   1.335  0.0485  0.9097  0.8149
13291SOL     OW51931   5.521   9.615   6.705 -0.2377  0.3998 -0.1107
13291SOL    HW151932   5.613   9.654   6.701  0.7379 -1.3902  2.9748
13291SOL    HW251933   5.470   9.660   6.778 -1.2316  0.1616 -0.6532
13292SOL     OW51934   2.412   1.111   4.118  0.1762 -0.1338  0.2999
13292SOL    HW151935   2.364   1.024   4.103 -0.0213  0.1375 -0.6833
13292SOL    HW251936   2.420   1.159   4.032  0.9365  0.5004  0.7235
13293SOL     OW51937   2.564   9.447   3.705  0.5152 -0.3435 -0.3750
13293SOL    HW151938   2.577   9.546   3.706 -1.2230 -0.1108 -0.3045
13293SOL    HW251939   2.555   9.413   3.799  2.1996 -0.7366 -0.3328
13294SOL     OW51940   9.458   7.257   4.775  0.2658 -0.5472 -0.0484
13294SOL    HW151941   9.479   7.354   4.787 -0.3835 -0.4705  0.5333
13294SOL    HW251942   9.361   7.247   4.753 -0.0489 -1.1529  1.5086
13295SOL     OW51943   8.722   6.201   4.369  0.0500 -0.0950  1.1326
13295SOL    HW151944   8.772   6.232   4.450  0.7626  2.3736 -0.2081
13295SOL    HW251945   8.718   6.274   4.302 -1.3856 -1.7848 -0.6980
13296SOL     OW51946   0.699   0.001   1.733 -0.1037 -0.3343  0.1407
13296SOL    HW151947   0.604  -0.029   1.724  0.6800 -3.3314  1.1784
13296SOL    HW251948   0.759  -0.079   1.736  2.2328  1.3965  1.8645
13297SOL     OW51949   0.455   9.174   1.185 -0.3719  0.2692 -0.2501
13297SOL    HW151950   0.457   9.240   1.260  0.5605 -2.3733  2.1035
13297SOL    HW251951   0.548   9.144   1.165 -0.8392 -0.6844 -1.0053
13298SOL     OW51952   4.104   8.404   8.032  0.0315 -0.0161  0.4053
13298SOL    HW151953   4.138   8.363   8.117  0.1613  0.0285  0.3757
13298SOL    HW251954   4.171   8.390   7.959  0.1540  0.4005  0.4389
13299SOL     OW51955   2.106   1.175   0.910  0.9001 -0.5060  1.1558
13299SOL    HW151956   2.197   1.189   0.870  0.7825 -0.9294  0.7392
13299SOL    HW251957   2.073   1.262   0.949  1.0459 -0.1014  0.3967
13300SOL     OW51958   1.748   1.183   4.152  0.2229 -0.3689  0.1283
13300SOL    HW151959   1.695   1.108   4.111 -1.1035  0.8487 -0.4455
13300SOL    HW251960   1.809   1.221   4.083  1.7139 -1.6409  0.7332
13301SOL     OW51961   8.757   5.894   3.183 -0.0881  0.2660 -0.3956
13301SOL    HW151962   8.768   5.795   3.191  2.0401  0.2095 -3.2537
13301SOL    HW251963   8.842   5.938   3.213 -0.2262  1.1113 -1.2542
13302SOL     OW51964   2.343   6.802   8.854  0.5398 -0.2077 -0.1250
13302SOL    HW151965   2.348   6.732   8.783 -1.6981 -0.3483 -0.1896
13302SOL    HW251966   2.280   6.875   8.825 -0.1473 -0.1056  1.5442
13303SOL     OW51967   7.223   7.930   5.399  0.2318  0.2683  0.2132
13303SOL    HW151968   7.268   7.847   5.431 -0.0736  0.2158  0.5071
13303SOL    HW251969   7.283   7.979   5.336 -0.1679 -0.9383 -1.1346
13304SOL     OW51970   8.045   9.016   5.885  0.0085  0.1312  0.0970
13304SOL    HW151971   8.055   9.023   5.984  0.2856  0.2421  0.0602
13304SOL    HW251972   7.964   8.961   5.863 -0.5633  0.8448  0.3914
13305SOL     OW51973   0.646   1.407   6.994 -0.6764 -0.1904  0.0619
13305SOL    HW151974   0.725   1.468   6.991 -1.1550  0.5428  1.6136
13305SOL    HW251975   0.642   1.353   6.910  0.6522  0.7910 -0.6550
13306SOL     OW51976   8.506   9.708   5.103  0.2277  0.7452  0.4010
13306SOL    HW151977   8.464   9.620   5.124 -0.5933  1.3077  1.1546
13306SOL    HW251978   8.438   9.769   5.064  0.5631  1.3686  0.7795
13307SOL     OW51979   9.765   6.512   7.520  0.5209 -0.1392  0.4821
13307SOL    HW151980   9.795   6.476   7.431  1.3000 -1.3010  1.1928
13307SOL    HW251981   9.828   6.480   7.591 -0.5942  0.0627  1.5717
13308SOL     OW51982   8.546   1.671   6.207  0.3747 -0.2579 -0.4008
13308SOL    HW151983   8.453   1.639   6.225  0.4150 -0.1664 -0.0140
13308SOL    HW251984   8.602   1.595   6.173  0.5758 -0.7058  0.8885
13309SOL     OW51985   3.770   4.116   1.393  0.2108 -0.3666 -0.4278
13309SOL    HW151986   3.847   4.060   1.424 -0.0533  0.8201  2.5640
13309SOL    HW251987   3.686   4.084   1.437 -0.3496  0.7612 -0.6717
13310SOL     OW51988   4.632   2.236   9.599  0.1573  0.0930  0.4091
13310SOL    HW151989   4.539   2.204   9.581 -0.1125  0.1928  1.5743
13310SOL    HW251990   4.634   2.285   9.686  1.2603  0.2760  0.2890
13311SOL     OW51991   3.052   0.541   9.979 -0.0333 -0.6264  0.0773
13311SOL    HW151992   3.037   0.449  10.014  0.0271 -0.7813 -0.3053
13311SOL    HW251993   3.148   0.565   9.987  0.4637 -1.6762 -2.4461
13312SOL     OW51994   2.130   1.329   5.545  0.0193 -0.2813  0.2702
13312SOL    HW151995   2.076   1.282   5.475  0.7398  0.1785 -0.6076
13312SOL    HW251996   2.185   1.401   5.502  0.7349 -0.2275  1.2532
13313SOL     OW51997   2.003   9.984   9.353  0.5402  0.1263  0.5879
13313SOL    HW151998   2.022  10.047   9.278  2.8665  1.2261  2.0452
13313SOL    HW251999   1.952   9.905   9.318  1.2893  0.7634 -2.0557
13314SOL     OW52000   9.314   1.842   7.714 -0.2134 -0.0532 -0.6347
13314SOL    HW152001   9.255   1.815   7.639  0.9373 -0.3153 -1.4693
13314SOL    HW252002   9.302   1.940   7.733 -0.7130 -0.0519 -0.9716
13315SOL     OW52003   4.952   9.023   3.544  0.1315 -0.0794  0.1886
13315SOL    HW152004   4.964   9.026   3.445  2.2058  2.1951  0.4691
13315SOL    HW252005   4.950   8.928   3.575  0.4960 -0.7847 -1.8960
13316SOL     OW52006   3.746   8.853   0.773  0.5472  0.0563  0.5917
13316SOL    HW152007   3.686   8.869   0.695  0.2258  0.1360  0.8548
13316SOL    HW252008   3.750   8.755   0.792 -0.7503  0.1802  1.5554
13317SOL     OW52009   6.843   7.911   8.419  0.1960 -0.2322  0.0259
13317SOL    HW152010   6.782   7.841   8.383  1.6298 -1.8413  0.6679
13317SOL    HW252011   6.935   7.874   8.427  0.5253  1.0388  2.4679
13318SOL     OW52012   5.246   4.074   1.065 -0.3032 -0.4990  0.0086
13318SOL    HW152013   5.233   4.026   0.979  0.1594  1.1092 -0.9869
13318SOL    HW252014   5.294   4.160   1.048  0.4587 -0.5060  1.9684
13319SOL     OW52015   4.540   1.125   5.800  0.2668 -0.3208 -0.3704
13319SOL    HW152016   4.510   1.183   5.875 -1.5618 -0.6234 -0.8599
13319SOL    HW252017   4.547   1.030   5.831  0.7498 -0.2522 -0.2592
13320SOL     OW52018   5.217   0.186   7.946  0.1849 -0.2279  0.2611
13320SOL    HW152019   5.156   0.182   8.025 -0.1664 -3.5594 -0.0782
13320SOL    HW252020   5.278   0.106   7.948  0.8049  0.1454 -2.3468
13321SOL     OW52021   3.179   1.176   8.315  0.6943 -0.2674 -0.1929
13321SOL    HW152022   3.264   1.226   8.301  0.5748 -0.2443 -0.8529
13321SOL    HW252023   3.116   1.232   8.369  0.4681  0.4036 -1.1317
13322SOL     OW52024   2.146   6.911   2.415 -0.1703 -0.2326 -0.1274
13322SOL    HW152025   2.048   6.926   2.409 -0.2124 -0.2878  0.3914
13322SOL    HW252026   2.172   6.837   2.352 -0.3998  0.0357 -0.5414
13323SOL     OW52027   4.070   0.497   7.121 -0.2373 -0.1002  0.3756
13323SOL    HW152028   4.002   0.500   7.048 -0.1038 -0.6427  0.2295
13323SOL    HW252029   4.024   0.485   7.209 -0.1652 -3.3358  0.0038
13324SOL     OW52030   6.051   8.636   7.708  0.1840  0.2095  0.3006
13324SOL    HW152031   6.121   8.609   7.642  1.8498  0.4189  1.9478
13324SOL    HW252032   5.980   8.566   7.711  1.3440 -1.0055  0.0451
13325SOL     OW52033   7.502   0.402   6.798  0.1547 -0.6874  0.8129
13325SOL    HW152034   7.494   0.500   6.784  0.5543 -0.7700 -0.0043
13325SOL    HW252035   7.446   0.354   6.730  1.3508 -1.0633  0.0728
13326SOL     OW52036   4.556   9.042   8.898  0.3123  0.1285  0.2231
13326SOL    HW152037   4.457   9.033   8.888  0.1596  1.2670  0.6825
13326SOL    HW252038   4.596   8.951   8.910 -0.8943 -0.1813  2.0859
13327SOL     OW52039   2.996   4.270   6.407  0.9829 -0.7977  0.1487
13327SOL    HW152040   2.925   4.337   6.386 -0.5374 -2.4486 -0.1186
13327SOL    HW252041   3.068   4.276   6.338  1.7759  1.7455  1.1171
13328SOL     OW52042   3.388   2.711   0.255 -0.3712 -0.2778 -0.1482
13328SOL    HW152043   3.402   2.645   0.330 -0.5225  0.3596  0.4437
13328SOL    HW252044   3.385   2.662   0.168 -1.9892 -1.2250  0.4164
13329SOL     OW52045   3.564   2.930   4.357 -0.5126  0.1844  0.0992
13329SOL    HW152046   3.472   2.946   4.319  0.7582 -1.6329 -4.0260
13329SOL    HW252047   3.579   2.832   4.367  1.4123  0.4199 -0.4107
13330SOL     OW52048   0.393   8.807   9.772 -0.6229  0.0284  0.4102
13330SOL    HW152049   0.354   8.874   9.710 -1.2306 -0.9409 -0.2797
13330SOL    HW252050   0.386   8.716   9.731  1.7657 -0.2557  0.5543
13331SOL     OW52051   4.682   5.561   3.860  0.1369  0.4273 -0.2014
13331SOL    HW152052   4.725   5.501   3.792 -1.0930  1.8095 -2.2436
13331SOL    HW252053   4.609   5.511   3.907  1.4317 -0.7411  0.6048
13332SOL     OW52054   1.652   0.016   2.592 -0.3499  0.2152 -0.0513
13332SOL    HW152055   1.701   0.061   2.517 -2.6862 -0.9001 -2.3449
13332SOL    HW252056   1.557   0.048   2.594 -0.2865  0.3748  2.6084
13333SOL     OW52057   8.894   3.170   4.525  0.0808 -0.4416  0.7631
13333SOL    HW152058   8.968   3.199   4.586  0.4998 -3.1862  1.6365
13333SOL    HW252059   8.808   3.213   4.554  0.7501  0.2663  1.7180
13334SOL     OW52060   3.983   9.118   5.574 -0.3665 -0.2028  0.4191
13334SOL    HW152061   4.066   9.139   5.523  0.1831  0.6172  1.6419
13334SOL    HW252062   3.904   9.162   5.531 -0.1917 -1.0387 -0.7797
13335SOL     OW52063   7.147   6.833   7.865  0.1172  0.1352  0.3654
13335SOL    HW152064   7.151   6.923   7.911 -1.8973  0.6881 -0.5078
13335SOL    HW252065   7.102   6.843   7.777 -1.1608 -1.9611  0.7718
13336SOL     OW52066   4.510   0.383   4.364  0.1271  0.4613  0.0022
13336SOL    HW152067   4.583   0.337   4.415  0.6925  0.9648 -0.3511
13336SOL    HW252068   4.464   0.317   4.304 -1.0824 -0.3313  1.7373
13337SOL     OW52069   7.336   9.256   8.772 -0.6148  0.4695 -0.1156
13337SOL    HW152070   7.390   9.279   8.853 -1.0127  1.8223 -0.2241
13337SOL    HW252071   7.396   9.220   8.701 -0.0988  0.3604  0.3714
13338SOL     OW52072   0.998   1.699   6.549 -0.5241  0.3022  0.7477
13338SOL    HW152073   1.020   1.602   6.537 -1.6195  0.0457  0.7682
13338SOL    HW252074   0.948   1.732   6.468 -3.3855 -0.0953  2.3151
13339SOL     OW52075   2.152   4.041   6.566  0.0932 -0.0800  0.6333
13339SOL    HW152076   2.206   4.024   6.648 -0.6148 -1.3498  0.8395
13339SOL    HW252077   2.201   4.106   6.507  2.3397 -2.0140  0.3129
13340SOL     OW52078   5.824   6.087   1.942 -0.3478 -0.1325  0.2546
13340SOL    HW152079   5.776   6.000   1.953 -1.6922  0.6366  0.4989
13340SOL    HW252080   5.919   6.076   1.971 -0.6751 -1.3494  0.9078
13341SOL     OW52081   0.411   1.319   1.978 -0.3321  0.2059  0.3205
13341SOL    HW152082   0.333   1.370   1.940 -1.2005  1.6114  3.7872
13341SOL    HW252083   0.378   1.257   2.049  1.5101 -0.5820  0.5006
13342SOL     OW52084   9.811   3.767   5.879 -0.2150  0.4408 -0.4467
13342SOL    HW152085   9.838   3.703   5.808 -0.6653  1.3716 -1.4847
13342SOL    HW252086   9.731   3.732   5.927  0.2551 -0.3206 -0.2219
13343SOL     OW52087   0.761   5.940   2.000  0.2118  0.3268 -0.2590
13343SOL    HW152088   0.823   5.861   1.993  0.2331  0.5104 -2.1747
13343SOL    HW252089   0.669   5.908   2.023  0.4362 -0.1734 -0.0449
13344SOL     OW52090   1.046   1.472   1.503 -0.3010 -0.0011 -0.0580
13344SOL    HW152091   0.993   1.461   1.587  0.9073  0.2215  0.7473
13344SOL    HW252092   1.100   1.389   1.487  1.2849  0.8575  0.6922
13345SOL     OW52093   2.132   7.038   6.188 -0.2010  0.2079  0.0240
13345SOL    HW152094   2.174   7.127   6.205  0.9935 -0.4161  0.4772
13345SOL    HW252095   2.107   6.996   6.275  1.5934 -0.9739  0.0079
13346SOL     OW52096   0.448   3.553   2.912  0.5802  0.4051  0.1728
13346SOL    HW152097   0.378   3.556   2.840  0.7379  1.2324  0.0442
13346SOL    HW252098   0.480   3.646   2.931 -0.1751  0.3079  2.0147
13347SOL     OW52099   4.343   1.069   5.102  0.1983 -0.0205  0.5417
13347SOL    HW152100   4.425   1.126   5.091 -0.2492  0.2872 -1.3243
13347SOL    HW252101   4.287   1.074   5.020 -2.3182  0.7065  2.2254
13348SOL     OW52102   5.000   5.539   8.787  0.6465  0.3498 -0.0415
13348SOL    HW152103   5.012   5.439   8.787  1.5998  0.4567  0.6241
13348SOL    HW252104   4.912   5.562   8.745 -0.2229 -0.8468  1.0907
13349SOL     OW52105   9.344   2.246   6.241 -0.1599  0.2756  0.4600
13349SOL    HW152106   9.427   2.291   6.207  0.3026 -0.4955  0.5642
13349SOL    HW252107   9.314   2.177   6.175 -0.7629  0.6050  0.3875
13350SOL     OW52108   9.706   4.858   5.486 -0.8539  0.5329  1.3153
13350SOL    HW152109   9.624   4.914   5.474 -0.9381  0.3234  0.9198
13350SOL    HW252110   9.682   4.770   5.527 -0.7476  0.6990  1.7395
13351SOL     OW52111   2.354   7.155   9.542 -0.7123 -0.4501 -0.3988
13351SOL    HW152112   2.307   7.230   9.589  1.5050  0.5320  0.3375
13351SOL    HW252113   2.342   7.166   9.443 -3.6399 -1.3433 -0.1823
13352SOL     OW52114   3.228   9.684   9.000 -0.1771  0.3768 -0.1183
13352SOL    HW152115   3.179   9.724   8.922 -1.2003  0.1832  0.4266
13352SOL    HW252116   3.245   9.755   9.068 -0.2393  0.3090 -0.0339
13353SOL     OW52117   3.888   3.626   8.083  0.6744  0.0791  0.3171
13353SOL    HW152118   3.795   3.663   8.088  0.4973 -0.3619  0.2779
13353SOL    HW252119   3.930   3.628   8.174  0.0378 -1.2412  0.6561
13354SOL     OW52120   5.902   2.001   0.450 -0.3020  0.4524 -0.0196
13354SOL    HW152121   5.922   2.062   0.527 -0.9527  0.3571  0.2267
13354SOL    HW252122   5.885   2.055   0.368 -1.1563  0.6222  0.2628
13355SOL     OW52123   4.800   8.950   4.435 -0.3449  0.1994 -0.5799
13355SOL    HW152124   4.843   9.016   4.498 -0.7840  0.9195 -1.0224
13355SOL    HW252125   4.867   8.920   4.368 -0.6418  1.6796 -1.5585
13356SOL     OW52126   5.439   9.135   2.424 -0.5856 -0.5339  0.0997
13356SOL    HW152127   5.438   9.140   2.524 -0.9727  0.6497  0.0493
13356SOL    HW252128   5.444   9.040   2.395 -0.4574 -0.8810  1.2501
13357SOL     OW52129   8.397   7.153   3.046  0.0845  0.3464 -0.2349
13357SOL    HW152130   8.433   7.185   3.134 -0.8172  2.5402 -0.6549
13357SOL    HW252131   8.398   7.053   3.045  2.3755  0.3111  1.3322
13358SOL     OW52132   4.084   0.282   0.027 -0.3078 -0.1587 -0.1661
13358SOL    HW152133   4.090   0.322  -0.065 -2.9975  0.8591  0.0585
13358SOL    HW252134   4.017   0.333   0.081  0.9855 -0.9686  2.2737
13359SOL     OW52135   4.589   3.270   7.955  0.4407 -0.1796  0.0841
13359SOL    HW152136   4.606   3.335   8.030  0.0943 -0.3813  0.3378
13359SOL    HW252137   4.659   3.282   7.885  0.9182 -0.1631  0.5570
13360SOL     OW52138   8.200   2.680   1.406 -0.7443  0.1236 -0.1792
13360SOL    HW152139   8.299   2.677   1.390 -0.8303 -2.3717 -0.4329
13360SOL    HW252140   8.162   2.764   1.367  1.4070  1.5814  0.7811
13361SOL     OW52141   9.744   4.252   4.538 -0.0700 -0.0310 -0.5437
13361SOL    HW152142   9.647   4.261   4.562 -0.2071 -1.3412 -0.5618
13361SOL    HW252143   9.799   4.250   4.621 -0.3392 -2.2940 -0.4029
13362SOL     OW52144   9.606   5.306   5.041 -0.3901 -0.1419  0.1450
13362SOL    HW152145   9.644   5.282   5.130  2.1286  0.4154 -0.7326
13362SOL    HW252146   9.628   5.401   5.020  1.3642 -1.0157 -2.1875
13363SOL     OW52147   4.924   9.895   5.637  0.4882  0.8000  0.2032
13363SOL    HW152148   4.901   9.917   5.543  1.1869 -0.5017 -0.2868
13363SOL    HW252149   4.857   9.831   5.675  1.4724 -0.5016 -0.1918
13364SOL     OW52150   5.929   0.434   8.906 -0.0437 -0.4677 -0.0244
13364SOL    HW152151   5.990   0.442   8.827 -1.1446  1.9024 -0.6818
13364SOL    HW252152   5.901   0.339   8.917  0.7827 -0.9676 -1.9858
13365SOL     OW52153   8.115   4.695   0.217  0.3135 -0.3006 -0.2346
13365SOL    HW152154   8.097   4.642   0.300  1.4700 -0.4649 -0.0861
13365SOL    HW252155   8.050   4.668   0.146 -2.4017  1.6506  1.3897
13366SOL     OW52156   4.775   0.115   1.990  0.8711  0.1803 -0.3495
13366SOL    HW152157   4.847   0.180   1.961  1.4215 -0.4121 -0.3224
13366SOL    HW252158   4.812   0.054   2.060 -0.4801  1.6722  1.7305
13367SOL     OW52159   9.573   2.487   7.178  0.4715 -0.4256 -0.3143
13367SOL    HW152160   9.532   2.549   7.111  0.4096  1.6232  1.5590
13367SOL    HW252161   9.500   2.432   7.219  0.4708 -1.4723 -1.6760
13368SOL     OW52162   3.809   3.063   4.902 -0.2368  0.0079 -0.2156
13368SOL    HW152163   3.790   3.157   4.929 -0.1533 -0.2182  0.6419
13368SOL    HW252164   3.833   3.060   4.805  0.2397  0.9277 -0.1256
13369SOL     OW52165   0.352   3.268   4.169 -0.2841 -0.6225  0.1724
13369SOL    HW152166   0.367   3.171   4.153  0.1128 -0.5663  0.1985
13369SOL    HW252167   0.414   3.300   4.241  0.8467  0.0430 -1.0822
13370SOL     OW52168   9.914   7.863   8.709 -0.3068 -0.6355  0.2993
13370SOL    HW152169   9.834   7.831   8.759 -2.6041 -0.6201 -3.1470
13370SOL    HW252170   9.907   7.962   8.696  0.1269 -0.6736 -0.2468
13371SOL     OW52171   5.625   8.895   7.120 -0.0620 -0.2502 -0.4957
13371SOL    HW152172   5.549   8.851   7.167  0.6527 -0.4576  0.4982
13371SOL    HW252173   5.617   8.994   7.128 -1.5923 -0.1755 -2.6005
13372SOL     OW52174   8.040   9.167   4.423 -0.1646 -0.0243 -0.3718
13372SOL    HW152175   7.970   9.233   4.449  0.8983  1.7499 -1.8869
13372SOL    HW252176   8.031   9.145   4.326  1.5893  0.4838 -0.6575
13373SOL     OW52177   3.911   2.037   6.709  0.0615 -0.1452 -0.5034
13373SOL    HW152178   3.863   2.007   6.792 -1.4131 -3.3490 -2.4172
13373SOL    HW252179   4.009   2.046   6.729  0.2150 -3.8154  0.9141
13374SOL     OW52180   0.721   7.077   8.266 -0.2644  0.0544 -0.0873
13374SOL    HW152181   0.674   7.142   8.325  0.4765 -1.0161  1.7164
13374SOL    HW252182   0.791   7.028   8.319  1.5461  0.2309 -2.2336
13375SOL     OW52183   0.522   6.165   4.421  0.6882 -0.0085  0.0258
13375SOL    HW152184   0.500   6.245   4.476 -0.8525 -0.4044  0.0162
13375SOL    HW252185   0.467   6.166   4.337  0.5499 -1.1267  0.0885
13376SOL     OW52186   3.571   9.450   0.368 -0.1056  0.1671  0.2772
13376SOL    HW152187   3.653   9.396   0.350 -1.0052 -0.6943 -1.3068
13376SOL    HW252188   3.540   9.434   0.462 -0.1760 -1.8154 -0.0634
13377SOL     OW52189   7.791   1.056   6.369 -0.6025 -0.8750  0.6821
13377SOL    HW152190   7.773   0.973   6.420 -0.6796 -0.7642  0.8371
13377SOL    HW252191   7.804   1.034   6.272  0.2372 -1.1587  0.8631
13378SOL     OW52192   5.103   9.223   1.989 -0.0927  0.1642  0.4787
13378SOL    HW152193   5.061   9.145   2.036  0.4145 -0.7279 -0.5276
13378SOL    HW252194   5.202   9.210   1.987  0.0082  0.9543  0.4991
13379SOL     OW52195   3.159   5.532   7.143 -0.3037 -0.5952  0.4917
13379SOL    HW152196   3.253   5.499   7.155  0.1135  0.2336 -0.4206
13379SOL    HW252197   3.153   5.627   7.172 -0.9733 -0.7848  0.9799
13380SOL     OW52198   7.656   5.354   0.716  0.1423  0.7324 -0.0036
13380SOL    HW152199   7.641   5.312   0.805 -0.5864 -1.4374 -1.1287
13380SOL    HW252200   7.746   5.399   0.715 -0.2541  1.6028  2.1142
13381SOL     OW52201   6.802   9.338   7.126  0.3444  0.2221  0.7207
13381SOL    HW152202   6.846   9.254   7.159 -1.3041 -0.8838  0.1747
13381SOL    HW252203   6.862   9.382   7.060  0.9037 -0.9611  0.4162
13382SOL     OW52204   1.840   8.951   8.162  0.1285  0.0583 -0.1556
13382SOL    HW152205   1.910   8.890   8.200 -0.5122  0.0213  0.9849
13382SOL    HW252206   1.883   9.037   8.135  0.6561 -0.0442  0.3371
13383SOL     OW52207   5.052   7.167   5.120  0.0592 -0.0833  0.4501
13383SOL    HW152208   5.149   7.145   5.121  0.3429  0.9597 -1.5801
13383SOL    HW252209   5.029   7.221   5.201  1.3586  0.4246  0.4891
13384SOL     OW52210   2.001   4.949   2.448  0.5862  0.8494  0.4526
13384SOL    HW152211   2.048   4.861   2.456  1.4385  1.2029 -0.4767
13384SOL    HW252212   1.929   4.943   2.379  1.5653  1.2532 -0.6178
13385SOL     OW52213   8.713   2.015   8.400 -0.4277  0.0704 -0.1750
13385SOL    HW152214   8.769   1.988   8.478  0.2178  0.9675 -0.3251
13385SOL    HW252215   8.631   2.061   8.432 -0.2618  0.2570 -0.0254
13386SOL     OW52216   5.551   0.478   2.012  1.2364  0.3668 -0.6945
13386SOL    HW152217   5.484   0.506   1.943 -1.3748  0.5971  1.8684
13386SOL    HW252218   5.587   0.559   2.058  0.4278  0.0419  0.5289
13387SOL     OW52219   5.045   0.046   7.247 -0.2410  0.4314 -0.1640
13387SOL    HW152220   5.025   0.057   7.345  0.4612 -2.1694  0.3101
13387SOL    HW252221   5.111   0.116   7.219  0.6378  0.3275  1.5761
13388SOL     OW52222   8.972   3.356   8.939 -0.0498 -0.6823 -0.1603
13388SOL    HW152223   9.020   3.382   9.022 -0.7046 -2.0527  0.6621
13388SOL    HW252224   8.875   3.376   8.948 -0.2370 -1.5019 -0.3085
13389SOL     OW52225   9.654   2.630   9.694  0.1687  0.3997  0.0329
13389SOL    HW152226   9.664   2.558   9.626 -1.2469 -2.0383  2.2925
13389SOL    HW252227   9.743   2.670   9.715  0.7326  0.5213 -2.5100
13390SOL     OW52228   8.734   8.553   2.898  0.3046  0.1407 -0.5649
13390SOL    HW152229   8.767   8.459   2.891 -0.4955 -0.1684 -0.2929
13390SOL    HW252230   8.689   8.579   2.812 -3.5832 -1.3424  0.8953
13391SOL     OW52231   2.960   4.462   3.874  0.0812 -0.2742  0.1796
13391SOL    HW152232   2.915   4.551   3.878  0.6343 -0.0310  0.9391
13391SOL    HW252233   3.016   4.449   3.955  1.9235 -0.2978 -1.0786
13392SOL     OW52234   6.750   1.444   2.390 -0.6325 -0.9185  0.2787
13392SOL    HW152235   6.847   1.437   2.367 -0.3319  1.2275  0.8472
13392SOL    HW252236   6.731   1.385   2.469  0.2188 -1.2649  0.2363
13393SOL     OW52237   3.972   3.268   6.970 -0.0033 -0.0243 -0.0569
13393SOL    HW152238   4.045   3.298   7.031 -0.7956  0.6282  0.5991
13393SOL    HW252239   4.010   3.236   6.884  0.9122  2.5726 -0.6558
13394SOL     OW52240   0.618   0.642   4.435  0.5693 -0.1269 -0.3353
13394SOL    HW152241   0.659   0.551   4.428 -0.1359 -0.2706 -3.4603
13394SOL    HW252242   0.546   0.640   4.504  0.1693 -2.1135 -0.7615
13395SOL     OW52243   1.317   6.026   2.963  0.3107 -0.0601  0.0912
13395SOL    HW152244   1.284   6.057   3.053 -1.1224 -0.2438 -0.3504
13395SOL    HW252245   1.392   6.084   2.933  2.1604 -1.2146  2.3147
13396SOL     OW52246   8.635   7.912   7.888 -0.9052  0.2033  0.2834
13396SOL    HW152247   8.612   7.829   7.938  2.0292 -1.2718 -0.7231
13396SOL    HW252248   8.691   7.971   7.946 -0.5332  0.1470 -0.0208
13397SOL     OW52249   7.875   6.450   8.538 -0.2874 -0.3517  0.1296
13397SOL    HW152250   7.916   6.538   8.565  2.6464 -1.7813  0.5367
13397SOL    HW252251   7.778   6.464   8.515  0.7009  3.4309 -2.2433
13398SOL     OW52252   0.973   9.792   1.587  0.0436  0.0873  0.0513
13398SOL    HW152253   0.983   9.769   1.490  0.2280  0.7404 -0.0881
13398SOL    HW252254   0.917   9.723   1.632 -1.0867  0.4364 -0.7886
13399SOL     OW52255   2.444   2.835   7.143  0.7186 -0.2179  0.0597
13399SOL    HW152256   2.375   2.834   7.070 -0.7787  0.5443  1.4214
13399SOL    HW252257   2.440   2.923   7.190  0.5969 -1.2638  2.0373
13400SOL     OW52258   2.801   6.238   3.263  0.1148 -0.0192 -0.1471
13400SOL    HW152259   2.734   6.218   3.191  0.7527  0.0452 -0.7574
13400SOL    HW252260   2.769   6.197   3.349 -1.6059  1.5597 -0.0075
13401SOL     OW52261   2.458   1.785   8.236 -0.3029  0.4405  0.2158
13401SOL    HW152262   2.417   1.733   8.311  0.1988  0.6159  0.6145
13401SOL    HW252263   2.402   1.775   8.154 -0.2279 -0.7255  0.2879
13402SOL     OW52264   8.506   0.747   5.689  0.6086 -0.5407  1.0258
13402SOL    HW152265   8.558   0.662   5.694  0.4037 -0.7360 -0.0195
13402SOL    HW252266   8.409   0.725   5.673  0.6485 -0.0984  0.1547
13403SOL     OW52267   7.617   1.735   4.599 -0.2062  0.0151  0.1561
13403SOL    HW152268   7.617   1.697   4.692  0.6969 -0.7408 -0.1553
13403SOL    HW252269   7.711   1.755   4.571 -0.6641  2.7787  0.4289
13404SOL     OW52270   1.552   8.807   3.206  0.2283  0.0787  0.1323
13404SOL    HW152271   1.495   8.870   3.258  2.2999 -0.3327  2.9820
13404SOL    HW252272   1.617   8.858   3.150  0.3490  0.5024  0.6616
13405SOL     OW52273   1.176   7.276   8.304 -0.0999  0.6717  0.2151
13405SOL    HW152274   1.247   7.291   8.373  0.0347 -1.9725  0.7001
13405SOL    HW252275   1.087   7.264   8.349  0.0021 -1.1495 -0.0388
13406SOL     OW52276   8.510   4.183   6.628 -0.1900 -0.2856 -0.0805
13406SOL    HW152277   8.497   4.094   6.584  0.7467 -0.2563 -0.4331
13406SOL    HW252278   8.489   4.176   6.725 -2.0520 -0.4130 -0.4584
13407SOL     OW52279   9.703   7.680   8.107  0.4443  0.4073  0.3144
13407SOL    HW152280   9.657   7.751   8.053  0.0800  1.1074  1.5308
13407SOL    HW252281   9.743   7.721   8.189 -0.2715 -0.8931  1.3237
13408SOL     OW52282   3.917   0.368   0.535 -0.5283  0.5359  0.3903
13408SOL    HW152283   3.914   0.375   0.435  0.9834 -1.0365  0.2048
13408SOL    HW252284   3.863   0.289   0.564  1.2911 -0.6996  0.5520
13409SOL     OW52285   0.976   8.263   8.338  0.4935  0.5555  0.0710
13409SOL    HW152286   1.024   8.322   8.403 -0.8820  2.0454 -0.2435
13409SOL    HW252287   1.042   8.223   8.274  1.3129  2.8466 -0.5635
13410SOL     OW52288   9.305   6.671   5.548  0.6678  0.6501  0.5490
13410SOL    HW152289   9.331   6.593   5.491  1.7905  1.0603  0.4933
13410SOL    HW252290   9.316   6.648   5.644 -0.6571  0.1603  0.5943
13411SOL     OW52291   3.626   7.976   1.491  0.6662  0.3561  0.0002
13411SOL    HW152292   3.560   8.042   1.525  1.2045  1.2928 -0.7404
13411SOL    HW252293   3.579   7.902   1.443  0.1766  1.1824 -0.7999
13412SOL     OW52294   7.163   7.862   7.533 -0.0916  0.1392  0.0199
13412SOL    HW152295   7.214   7.906   7.458  1.3432  0.3374  1.0856
13412SOL    HW252296   7.225   7.847   7.610 -1.4886 -0.3463  1.0541
13413SOL     OW52297   0.122   1.243   1.456 -0.0956  0.3937  0.3764
13413SOL    HW152298   0.134   1.204   1.365 -1.3110  0.8780  0.0057
13413SOL    HW252299   0.118   1.343   1.449  3.0310  0.6449  1.3112
13414SOL     OW52300   1.817   9.501   4.717 -1.0967 -0.2038 -0.0790
13414SOL    HW152301   1.767   9.460   4.793 -2.2093 -0.6702 -1.0404
13414SOL    HW252302   1.853   9.428   4.658  0.7546  0.1323  0.6275
13415SOL     OW52303   8.638   6.912   3.306 -0.7332 -0.4705  0.7301
13415SOL    HW152304   8.710   6.952   3.250 -3.9321  2.2960 -1.6207
13415SOL    HW252305   8.638   6.954   3.397  0.8851 -0.8430  0.9094
13416SOL     OW52306   1.433   8.644   8.638 -0.4129 -0.0710  0.2366
13416SOL    HW152307   1.403   8.554   8.672 -2.4290  0.6025  0.3062
13416SOL    HW252308   1.382   8.716   8.685  0.9790  1.1116 -0.0395
13417SOL     OW52309   7.032   9.688   6.965 -0.4058  0.0609  0.1656
13417SOL    HW152310   6.963   9.758   6.950  0.0076  0.2536 -0.8794
13417SOL    HW252311   7.048   9.638   6.880  0.0963 -0.5705  0.6266
13418SOL     OW52312   9.694   4.993   8.769 -0.2597 -0.6855  0.5327
13418SOL    HW152313   9.645   4.929   8.709 -0.0412 -1.2362  0.9379
13418SOL    HW252314   9.678   5.086   8.738  0.9822 -1.0388 -1.2153
13419SOL     OW52315   2.839   4.222   2.088  0.0064  0.2855  0.0560
13419SOL    HW152316   2.910   4.161   2.121 -1.9311 -1.4806  1.1042
13419SOL    HW252317   2.873   4.316   2.086  1.6947 -0.2354  2.5510
13420SOL     OW52318   2.151   8.740   1.713 -0.7107  1.0813  0.2521
13420SOL    HW152319   2.061   8.757   1.674 -0.8520  1.5960  0.7950
13420SOL    HW252320   2.213   8.814   1.686 -0.6601  1.1431  0.5438
13421SOL     OW52321   2.596   9.455   6.068  0.2427  0.0221  0.4245
13421SOL    HW152322   2.633   9.538   6.108  1.9932 -0.5591  0.0352
13421SOL    HW252323   2.665   9.383   6.070 -0.8469 -1.0676 -0.3591
13422SOL     OW52324   1.534   1.511   3.388  0.0588 -0.4761 -0.1255
13422SOL    HW152325   1.534   1.607   3.357 -0.4041 -0.4529 -0.0560
13422SOL    HW252326   1.563   1.507   3.484  0.8877 -0.4883 -0.3707
13423SOL     OW52327   6.050   8.048   7.785  0.0792 -0.3979 -0.5376
13423SOL    HW152328   6.122   8.113   7.760 -0.2830 -0.5269 -1.9295
13423SOL    HW252329   6.024   8.062   7.881  1.2090  0.3534 -0.3320
13424SOL     OW52330   0.958   1.599   4.452 -0.0156 -0.0310 -0.1367
13424SOL    HW152331   1.016   1.600   4.371 -0.7903  1.4178 -0.6898
13424SOL    HW252332   1.016   1.605   4.534  0.6038  2.6131 -0.7081
13425SOL     OW52333   8.642   5.781   9.413  0.0075 -0.3206  0.6899
13425SOL    HW152334   8.652   5.843   9.491  0.2839  0.3156  0.1561
13425SOL    HW252335   8.731   5.770   9.369 -0.2863 -0.1523  0.0644
13426SOL     OW52336   7.486   2.467   0.249 -0.1170  0.0523  0.5860
13426SOL    HW152337   7.571   2.488   0.200  0.2199 -1.1724  0.6371
13426SOL    HW252338   7.411   2.460   0.184  0.6653 -3.4474 -0.0411
13427SOL     OW52339   5.125   8.063   2.826  0.6415 -0.0443 -0.3568
13427SOL    HW152340   5.148   7.966   2.825 -0.3035 -0.2980 -3.4157
13427SOL    HW252341   5.038   8.077   2.779  0.4226  2.2036  0.6660
13428SOL     OW52342   2.690   1.830   9.600 -0.1418 -0.4086 -0.1326
13428SOL    HW152343   2.609   1.811   9.545 -1.1666 -0.4282  1.3552
13428SOL    HW252344   2.772   1.806   9.548 -1.0893 -0.5180 -1.6001
13429SOL     OW52345   7.581   7.003   5.151  0.0438  0.1540  0.5592
13429SOL    HW152346   7.603   7.016   5.054  2.2843  1.3440  1.2074
13429SOL    HW252347   7.648   6.941   5.192 -1.1969 -0.7476  1.2521
13430SOL     OW52348   4.223   1.304   0.857 -0.3482 -0.3354 -0.6511
13430SOL    HW152349   4.181   1.235   0.797 -0.3255  0.1369 -1.2162
13430SOL    HW252350   4.299   1.347   0.809  1.2123 -1.6328  0.5988
13431SOL     OW52351   3.400   2.390   5.936  0.3159 -0.3346  0.0151
13431SOL    HW152352   3.447   2.478   5.947  0.2407 -0.2380 -0.4369
13431SOL    HW252353   3.443   2.322   5.995 -0.3343  0.2819  1.2400
13432SOL     OW52354   1.972   6.161   1.368 -0.2638  0.4667 -0.5008
13432SOL    HW152355   2.036   6.087   1.343  0.1007  0.0308  1.6619
13432SOL    HW252356   2.024   6.243   1.392 -0.5265  0.3060  0.6442
13433SOL     OW52357   9.042   5.610   5.887 -0.0400 -0.1164 -0.0909
13433SOL    HW152358   8.972   5.662   5.837 -1.5446 -2.0458 -0.0654
13433SOL    HW252359   8.999   5.533   5.933  2.0452 -0.9988  0.4336
13434SOL     OW52360   9.829   0.217   7.741 -0.4282 -0.1685  0.0196
13434SOL    HW152361   9.751   0.156   7.727 -1.2384  0.8132  0.2048
13434SOL    HW252362   9.799   0.296   7.794  0.8466 -0.0922  0.6294
13435SOL     OW52363   0.144   3.907   7.846 -0.0407  0.0709  0.3932
13435SOL    HW152364   0.106   3.976   7.786  0.3448  0.2826  0.3873
13435SOL    HW252365   0.238   3.932   7.869  0.1509 -0.5253  0.2686
13436SOL     OW52366   2.144   2.712   6.471  0.1060  0.3805 -0.1289
13436SOL    HW152367   2.216   2.685   6.535 -0.7663  1.0442  1.1616
13436SOL    HW252368   2.127   2.637   6.407  0.0437 -0.8306  1.2676
13437SOL     OW52369   2.017   8.636   1.917  0.0167  0.3030 -0.0982
13437SOL    HW152370   2.075   8.650   1.837 -1.3071  0.5639 -1.0238
13437SOL    HW252371   1.966   8.551   1.907  1.3070 -0.6889  1.3893
13438SOL     OW52372   5.980   7.842   4.003  0.5102 -0.0044 -0.2797
13438SOL    HW152373   6.034   7.791   4.070  0.3219 -0.1195 -0.2152
13438SOL    HW252374   6.023   7.931   3.985  0.9277 -0.2553 -0.5193
13439SOL     OW52375   3.511   4.307   0.849  0.2798 -0.3364  0.1560
13439SOL    HW152376   3.412   4.299   0.857  0.0400  0.1698 -1.9414
13439SOL    HW252377   3.543   4.384   0.905 -0.3419 -1.1988  1.7363
13440SOL     OW52378   4.875   4.684   1.370 -0.6813 -0.2653  0.0979
13440SOL    HW152379   4.921   4.630   1.300 -0.8083  2.1278 -1.8735
13440SOL    HW252380   4.942   4.720   1.434 -0.2005  0.1600 -0.6396
13441SOL     OW52381   1.576   3.707   9.336  0.1001  0.1438 -0.3770
13441SOL    HW152382   1.499   3.769   9.350  0.4782  0.5935 -0.2864
13441SOL    HW252383   1.578   3.678   9.240  0.9153  1.6161 -0.8255
13442SOL     OW52384   8.162   1.503   5.888  0.0335  0.1488  0.2862
13442SOL    HW152385   8.080   1.551   5.859 -1.0645 -2.3134 -0.8282
13442SOL    HW252386   8.243   1.549   5.851 -0.9842  1.0940 -0.8014
13443SOL     OW52387   8.918   9.001   5.514 -0.0655  0.0900 -0.0835
13443SOL    HW152388   8.879   8.935   5.577 -1.8941  1.0521 -0.1608
13443SOL    HW252389   8.970   9.070   5.565 -0.5402  0.1987  0.2511
13444SOL     OW52390   9.197   0.523   6.136 -0.3152  0.2118  0.7184
13444SOL    HW152391   9.251   0.482   6.210 -3.0081 -1.8882  1.6325
13444SOL    HW252392   9.203   0.467   6.054  0.2431  0.8860  0.2979
13445SOL     OW52393   5.381   0.475   6.647  0.6049 -0.4881 -1.0068
13445SOL    HW152394   5.382   0.574   6.653  0.8853 -0.6471  2.7643
13445SOL    HW252395   5.473   0.439   6.661 -0.2815 -1.4123  3.2662
13446SOL     OW52396   3.106   4.684   9.247 -0.6181  0.6680  0.1120
13446SOL    HW152397   3.135   4.753   9.313  1.5034  1.8302 -1.9264
13446SOL    HW252398   3.127   4.716   9.154 -0.4259 -2.3377 -0.9339
13447SOL     OW52399   3.318   2.454   6.850 -0.1558  0.2291  0.7259
13447SOL    HW152400   3.354   2.465   6.943 -0.3028 -1.2759  0.9889
13447SOL    HW252401   3.289   2.542   6.814 -0.0802  0.8349  2.1143
13448SOL     OW52402   7.825   6.279   3.607 -0.1763 -0.9557  0.3523
13448SOL    HW152403   7.730   6.253   3.627  0.2912 -2.2972  0.9330
13448SOL    HW252404   7.858   6.343   3.676 -0.1380 -1.7675  1.0900
13449SOL     OW52405   4.408   2.604   4.207  0.4481  0.2960 -0.0121
13449SOL    HW152406   4.394   2.701   4.224  0.3169  0.1806  0.5457
13449SOL    HW252407   4.320   2.560   4.188  0.5298  0.3211 -0.4549
13450SOL     OW52408   0.041   2.555   3.932  0.2327 -0.4197  0.2543
13450SOL    HW152409   0.002   2.527   4.020 -0.5778  2.7939  1.0089
13450SOL    HW252410   0.126   2.606   3.948  0.6450 -0.7452 -0.8912
13451SOL     OW52411   4.708   5.307   4.251  0.3333 -0.5284 -0.4444
13451SOL    HW152412   4.717   5.401   4.286 -1.5683 -1.3924  2.5124
13451SOL    HW252413   4.653   5.308   4.168 -1.9942  0.7712  1.0350
13452SOL     OW52414   3.226   4.236   6.954  0.1165  0.4940 -0.5966
13452SOL    HW152415   3.214   4.171   7.029 -2.1551  0.3961 -1.0267
13452SOL    HW252416   3.253   4.325   6.992 -0.5268  0.3140  0.3031
13453SOL     OW52417   1.957   2.237   6.981  0.3880 -0.2704  1.1010
13453SOL    HW152418   1.946   2.157   6.921 -0.6098 -0.9940  2.2335
13453SOL    HW252419   2.054   2.263   6.984  0.5190 -0.4822 -0.4769
13454SOL     OW52420   0.847   4.719   9.224  0.0583 -0.1533  0.2114
13454SOL    HW152421   0.860   4.631   9.179  2.1784 -0.2004  0.8801
13454SOL    HW252422   0.926   4.778   9.206 -0.3345  0.8202  1.5990
13455SOL     OW52423   6.410   3.711   0.208 -0.1794 -0.7976  0.4991
13455SOL    HW152424   6.404   3.718   0.108 -2.6257 -2.1899  0.5043
13455SOL    HW252425   6.433   3.800   0.246  0.0462 -0.0737 -1.2658
13456SOL     OW52426   6.581   8.063   6.758  0.2246  0.0177  0.5182
13456SOL    HW152427   6.535   8.060   6.847  0.5082  0.0568  0.6648
13456SOL    HW252428   6.584   7.970   6.720 -2.7056  0.4455 -0.8798
13457SOL     OW52429   9.024   5.248   3.600 -0.0048 -0.2462  0.0743
13457SOL    HW152430   8.993   5.342   3.583  1.1290 -0.0433 -0.9881
13457SOL    HW252431   9.062   5.242   3.693 -0.0822  0.3494  0.1467
13458SOL     OW52432   3.768   3.016   0.726  0.4453  0.2755  0.1827
13458SOL    HW152433   3.729   3.107   0.744 -2.5497 -0.7568 -0.7598
13458SOL    HW252434   3.759   2.960   0.809 -1.0089 -0.2455 -0.3015
13459SOL     OW52435   2.231   5.594   4.344 -0.1562  0.2802  0.9850
13459SOL    HW152436   2.158   5.661   4.336 -0.5786 -0.1667  1.0642
13459SOL    HW252437   2.293   5.601   4.266 -1.1807 -0.4083  0.0838
13460SOL     OW52438   2.924   9.238   6.682  0.0983 -0.4605  0.4839
13460SOL    HW152439   2.867   9.156   6.678 -1.5000  0.7004 -1.1387
13460SOL    HW252440   3.009   9.221   6.632  0.2790 -1.4802  1.1048
13461SOL     OW52441   3.803   0.683   1.491  0.2590  0.0478 -0.4250
13461SOL    HW152442   3.720   0.634   1.462 -0.0200  0.8103 -0.9479
13461SOL    HW252443   3.852   0.714   1.410  1.1474 -0.5435 -0.1138
13462SOL     OW52444   8.229   7.288   8.032 -0.1591 -0.6552  0.6767
13462SOL    HW152445   8.178   7.285   8.118  0.1878 -0.0466  0.8995
13462SOL    HW252446   8.299   7.217   8.032  1.2311  0.7016  1.7538
13463SOL     OW52447   8.388   9.018   9.075  0.5236  0.2085 -0.3155
13463SOL    HW152448   8.438   9.014   8.988  0.8022  0.0101 -0.1476
13463SOL    HW252449   8.301   9.066   9.061 -0.3401 -1.5347 -1.1391
13464SOL     OW52450   8.634   2.044   5.498 -0.2320  0.5529  0.1337
13464SOL    HW152451   8.683   2.053   5.584  0.3393 -0.7219 -0.0340
13464SOL    HW252452   8.656   1.955   5.457 -1.2553  0.7383 -0.8428
13465SOL     OW52453   9.168   2.637   3.879 -0.2078 -0.9526  0.0581
13465SOL    HW152454   9.076   2.633   3.839 -0.3847  0.1039  0.3226
13465SOL    HW252455   9.174   2.573   3.956  0.2089 -3.1865 -1.7847
13466SOL     OW52456   0.756   9.551   5.311  0.7527 -0.1103  0.1059
13466SOL    HW152457   0.832   9.526   5.249  0.9567 -1.7196  0.9850
13466SOL    HW252458   0.786   9.542   5.406 -0.4674 -0.4830  0.4608
13467SOL     OW52459   9.628   2.999   8.925 -0.3409 -0.2635  0.0872
13467SOL    HW152460   9.636   2.918   8.983  0.9874 -0.3943 -0.2529
13467SOL    HW252461   9.579   3.071   8.974  1.5558 -0.0587  1.7380
13468SOL     OW52462   8.737   1.085   7.200 -0.2469  0.1098 -0.1027
13468SOL    HW152463   8.774   1.174   7.175 -0.3424 -0.5201 -2.5997
13468SOL    HW252464   8.800   1.039   7.262 -0.2205  1.9111  1.2575
13469SOL     OW52465   7.550   5.394   2.758 -0.0071  0.2952 -0.1714
13469SOL    HW152466   7.515   5.488   2.756 -1.2426 -0.1600 -1.5351
13469SOL    HW252467   7.618   5.385   2.831 -1.4125  1.6923  1.3569
13470SOL     OW52468   7.418   8.027   6.420 -0.1251  0.4207 -0.3566
13470SOL    HW152469   7.431   8.126   6.420  0.1864  0.3854  0.2084
13470SOL    HW252470   7.441   7.990   6.331 -0.4537  0.8869 -0.6377
13471SOL     OW52471   3.066   3.507   5.090 -0.5117 -0.4413 -0.2235
13471SOL    HW152472   3.030   3.600   5.103  0.8156 -0.1061  1.1600
13471SOL    HW252473   3.086   3.493   4.993  0.2605  1.0924 -0.3094
13472SOL     OW52474   5.570   0.125   4.883  0.2551  0.1208  0.4064
13472SOL    HW152475   5.537   0.215   4.911 -1.0528 -0.4617  0.7826
13472SOL    HW252476   5.511   0.055   4.922 -1.0862 -0.7695 -3.0940
13473SOL     OW52477   2.533   2.906   0.562 -0.3024 -0.3796  0.1048
13473SOL    HW152478   2.484   2.863   0.486 -1.2306 -0.3902  0.7032
13473SOL    HW252479   2.518   3.004   0.560 -0.9797 -0.4638  0.7277
13474SOL     OW52480   3.204   6.043   9.105  0.3073  0.3706  0.2035
13474SOL    HW152481   3.298   6.028   9.075  0.8058  2.0858  0.8688
13474SOL    HW252482   3.164   5.956   9.133  1.2467 -0.5842 -1.3115
13475SOL     OW52483   7.616   0.105   8.829  0.5934  0.5561 -0.0385
13475SOL    HW152484   7.643   0.053   8.748  1.5956 -0.1247  0.7127
13475SOL    HW252485   7.697   0.129   8.882  0.0766  2.3945 -0.0694
13476SOL     OW52486   7.179   4.769   2.309 -0.5971 -0.1603 -0.1981
13476SOL    HW152487   7.267   4.810   2.283  0.5020 -2.3791 -0.1078
13476SOL    HW252488   7.147   4.811   2.394  1.3508 -0.6673  0.8126
13477SOL     OW52489   1.952   4.241   6.554  0.0985  0.2794 -0.4852
13477SOL    HW152490   1.990   4.150   6.541  0.2253  0.0854  1.1370
13477SOL    HW252491   2.025   4.309   6.551  0.0311  0.3086 -1.4857
13478SOL     OW52492   2.133   3.390   3.754  0.0016  0.3835  0.6942
13478SOL    HW152493   2.082   3.475   3.770 -1.1971 -0.2577  0.3303
13478SOL    HW252494   2.070   3.319   3.724  1.2450 -0.2012 -0.5711
13479SOL     OW52495   9.712   8.556   6.645  0.5038 -0.4081 -0.3283
13479SOL    HW152496   9.747   8.603   6.564 -0.6313 -0.6199 -0.9476
13479SOL    HW252497   9.616   8.580   6.658  0.9535  0.4317  1.5488
13480SOL     OW52498   8.662   2.911   8.655  0.5877 -0.2563 -0.4413
13480SOL    HW152499   8.717   2.866   8.585  1.5479  0.1953  0.0138
13480SOL    HW252500   8.711   2.908   8.742 -2.4271 -4.7930  1.3402
13481SOL     OW52501   3.219   4.269   1.504 -0.3011  0.2880  0.0862
13481SOL    HW152502   3.269   4.265   1.418  2.4956 -2.0955  1.7242
13481SOL    HW252503   3.146   4.200   1.503  0.7692 -0.8753  0.1822
13482SOL     OW52504   1.101   7.471   9.075  0.2996  0.6009 -0.1505
13482SOL    HW152505   1.040   7.514   9.008 -2.1954  0.7300  2.1039
13482SOL    HW252506   1.113   7.374   9.052 -0.1889  0.7377 -1.0108
13483SOL     OW52507   9.378   3.181   0.710 -0.1279 -0.5185  0.5645
13483SOL    HW152508   9.464   3.185   0.660 -1.0922  0.3962 -1.0803
13483SOL    HW252509   9.351   3.086   0.725  0.8378 -0.7988  0.5172
13484SOL     OW52510   3.206   9.122   8.533 -0.2766 -0.1704 -0.2169
13484SOL    HW152511   3.290   9.152   8.579  0.6000 -0.3714 -1.6680
13484SOL    HW252512   3.182   9.186   8.461  0.3301 -1.7102 -1.8226
13485SOL     OW52513   8.913   7.118   3.558  0.2086 -0.3525  0.1886
13485SOL    HW152514   8.938   7.130   3.653  0.7105  2.3679 -0.2401
13485SOL    HW252515   8.986   7.070   3.509  0.9551  0.2411  0.7101
13486SOL     OW52516   5.702   6.318   1.276 -0.5141  0.1385 -0.1736
13486SOL    HW152517   5.767   6.242   1.261 -0.5557  0.2537 -0.9666
13486SOL    HW252518   5.751   6.395   1.317 -0.7518 -0.7915  1.8915
13487SOL     OW52519   4.311   1.720   7.081  0.2363  0.0166 -0.0398
13487SOL    HW152520   4.389   1.710   7.143 -1.7668  1.4023  2.8296
13487SOL    HW252521   4.226   1.709   7.132 -1.5048  1.1745 -2.5819
13488SOL     OW52522   5.334   2.797   8.484 -0.1193 -0.1100  0.1590
13488SOL    HW152523   5.368   2.781   8.576  0.0281  1.2237  0.3448
13488SOL    HW252524   5.244   2.753   8.473  0.3950 -1.2723  0.5454
13489SOL     OW52525   4.473   5.707   7.534  0.0923 -0.5402  0.0466
13489SOL    HW152526   4.409   5.700   7.457  1.4205  0.9900 -1.2267
13489SOL    HW252527   4.565   5.681   7.504  0.5388 -0.4190  1.2674
13490SOL     OW52528   0.096   3.014   0.311  0.2322  0.0394 -0.2785
13490SOL    HW152529   0.096   2.957   0.229 -3.3122  0.6880 -0.7880
13490SOL    HW252530   0.136   3.103   0.289 -0.1017 -0.0195 -1.1403
13491SOL     OW52531   6.922   4.237   2.401 -0.0916 -0.1121  0.3846
13491SOL    HW152532   6.967   4.227   2.490 -0.5315  0.9155  0.7275
13491SOL    HW252533   6.980   4.291   2.340 -0.2469  0.0519  0.3818
13492SOL     OW52534   7.267   4.791   8.500 -0.0427 -0.8275  0.3333
13492SOL    HW152535   7.355   4.763   8.460  0.8705 -0.1361  1.8210
13492SOL    HW252536   7.203   4.714   8.494  0.5691 -1.2541 -1.0131
13493SOL     OW52537   5.551   5.142   0.027  0.8350 -0.4920  0.3590
13493SOL    HW152538   5.539   5.102  -0.063  1.1400  0.0315  0.0776
13493SOL    HW252539   5.542   5.072   0.097  0.3282 -0.8485 -0.0640
13494SOL     OW52540   9.964   9.498   3.442  0.3256  0.3753  0.2945
13494SOL    HW152541   9.991   9.553   3.363  1.3238 -1.1417 -0.4606
13494SOL    HW252542  10.046   9.474   3.495 -0.2138  0.4914  1.1842
13495SOL     OW52543   8.148   3.586   4.641 -0.3559  0.2826 -0.3144
13495SOL    HW152544   8.156   3.675   4.687  0.1781 -0.3267  0.8155
13495SOL    HW252545   8.074   3.589   4.574 -0.6983  1.4202  0.0996
13496SOL     OW52546   7.432   1.372   9.195  0.3819  0.0307  0.9668
13496SOL    HW152547   7.346   1.402   9.235 -0.1718 -0.0250 -0.1758
13496SOL    HW252548   7.423   1.279   9.161  1.1280 -0.2594  1.5259
13497SOL     OW52549   1.470   9.983   5.441 -0.2444 -0.3185  0.1441
13497SOL    HW152550   1.392   9.921   5.437 -0.0136 -0.5141 -1.4133
13497SOL    HW252551   1.439  10.073   5.474 -1.1286 -0.3951 -0.4625
13498SOL     OW52552   2.529   2.774   6.880 -0.3974  0.4076 -0.0825
13498SOL    HW152553   2.429   2.779   6.883 -0.3045  1.6714  1.1855
13498SOL    HW252554   2.568   2.854   6.927  1.2070 -0.5728  0.2762
13499SOL     OW52555   0.564   4.468   9.875 -0.3620  0.0780 -0.0201
13499SOL    HW152556   0.662   4.449   9.877  0.0446  1.9596 -1.1618
13499SOL    HW252557   0.534   4.494   9.967  0.6925  1.7286 -0.1125
13500SOL     OW52558   8.554   4.795   4.217  0.0908  0.2338  0.0543
13500SOL    HW152559   8.527   4.744   4.135 -0.7307 -0.5061  0.7721
13500SOL    HW252560   8.484   4.864   4.238 -0.3049 -0.3975  0.8267
13501SOL     OW52561   3.423   4.882   6.735 -0.1236  0.0894  0.0136
13501SOL    HW152562   3.341   4.832   6.707  0.8984 -1.9736  0.5941
13501SOL    HW252563   3.488   4.882   6.660  0.4115 -0.6524  0.4661
13502SOL     OW52564   3.159   5.237   9.924 -0.3029  0.4530  0.3931
13502SOL    HW152565   3.111   5.238   9.836 -1.8187  0.0570  1.1883
13502SOL    HW252566   3.170   5.142   9.954 -0.0058  0.5949  0.7296
13503SOL     OW52567   3.069   8.753   0.247 -0.2769 -0.2096  0.5758
13503SOL    HW152568   3.012   8.834   0.233 -0.2372 -0.2216  0.3588
13503SOL    HW252569   3.094   8.714   0.159 -1.5352 -1.3298  0.7100
13504SOL     OW52570   5.724   2.789   2.880 -0.2237  0.4890  0.0701
13504SOL    HW152571   5.785   2.773   2.958 -1.1049 -1.6789  0.3705
13504SOL    HW252572   5.642   2.836   2.911  1.0317  2.9496 -0.2432
13505SOL     OW52573   7.005   8.750   3.328  0.1610  0.0381 -0.1868
13505SOL    HW152574   6.952   8.711   3.252  1.0781 -1.4367 -0.1024
13505SOL    HW252575   6.955   8.737   3.413  0.9032 -1.9662 -0.0111
13506SOL     OW52576   5.112   2.574   0.769 -0.1379  0.4424  0.0444
13506SOL    HW152577   5.061   2.622   0.697  0.0020 -0.6210 -0.7793
13506SOL    HW252578   5.103   2.624   0.855  0.7875  2.4738 -0.9960
13507SOL     OW52579   4.677   3.560   7.578 -0.1859 -0.1986 -0.4993
13507SOL    HW152580   4.686   3.582   7.675  0.4683  0.0434 -0.6107
13507SOL    HW252581   4.764   3.577   7.532 -0.2389 -1.1504 -0.9625
13508SOL     OW52582   1.855   7.860   6.932 -0.4650  0.5892 -0.4820
13508SOL    HW152583   1.925   7.811   6.983  0.8785  0.6291 -2.2419
13508SOL    HW252584   1.800   7.795   6.880 -1.0752  0.6551  0.0649
13509SOL     OW52585   4.868   2.721   4.886  0.3406 -0.5689  0.5020
13509SOL    HW152586   4.774   2.716   4.919 -0.0400 -1.8371 -0.7262
13509SOL    HW252587   4.882   2.808   4.838 -0.4176 -0.6693  0.0876
13510SOL     OW52588   2.967   6.349   1.241  0.2852  0.5568  0.0838
13510SOL    HW152589   2.997   6.442   1.264  0.8263  0.5873 -0.7549
13510SOL    HW252590   2.874   6.354   1.204 -0.2919  0.5896  1.4818
13511SOL     OW52591   4.392   9.579   5.298  0.2614  0.2476  0.1603
13511SOL    HW152592   4.296   9.576   5.271  0.7389  1.9907 -1.7686
13511SOL    HW252593   4.407   9.658   5.358  0.5981  0.2121  0.1205
13512SOL     OW52594   9.516   5.084   7.864 -0.0529 -0.6241  0.2121
13512SOL    HW152595   9.528   5.169   7.916  2.5786  0.4118 -1.9454
13512SOL    HW252596   9.540   5.101   7.768  1.1041 -3.9686 -0.1331
13513SOL     OW52597   4.781   9.483   8.338  0.1654  0.3330 -0.2500
13513SOL    HW152598   4.693   9.516   8.305 -0.9813 -2.5624 -0.2663
13513SOL    HW252599   4.846   9.480   8.263 -0.3645  0.4704 -0.7165
13514SOL     OW52600   3.015   7.291   5.358 -0.4148 -0.5344 -0.2578
13514SOL    HW152601   3.111   7.272   5.340 -0.6270 -1.1461 -0.7803
13514SOL    HW252602   3.007   7.360   5.429  0.4467  0.7212 -1.3525
13515SOL     OW52603   9.330   1.090   3.981 -0.1909  0.0262 -0.6971
13515SOL    HW152604   9.280   1.065   3.898 -0.0301 -0.1742 -0.7351
13515SOL    HW252605   9.428   1.092   3.962 -0.2372  1.2043 -0.8174
13516SOL     OW52606   2.326   4.447   2.002  0.6902 -0.0237 -0.1487
13516SOL    HW152607   2.290   4.357   1.977 -0.4482  0.8262 -1.6481
13516SOL    HW252608   2.331   4.454   2.102 -0.2021 -1.3577  0.0054
13517SOL     OW52609   3.552   2.608   0.943 -0.8783  0.5025 -0.5220
13517SOL    HW152610   3.577   2.559   1.027  0.3796 -2.0464 -2.2924
13517SOL    HW252611   3.453   2.602   0.930 -0.9341 -0.1782  0.1447
13518SOL     OW52612   3.912   4.890   3.701  0.0134  0.3466  0.0676
13518SOL    HW152613   3.986   4.847   3.649 -2.0097  0.0999 -2.7548
13518SOL    HW252614   3.934   4.986   3.716  0.2095  0.7004 -2.2313
13519SOL     OW52615   1.456   7.850   2.369  0.2419 -0.0042  0.7560
13519SOL    HW152616   1.383   7.783   2.377 -0.8855  1.0408 -0.6230
13519SOL    HW252617   1.426   7.938   2.407 -0.1054  1.0739 -1.8705
13520SOL     OW52618   9.247   9.307   6.005 -0.1947 -0.3901 -0.4890
13520SOL    HW152619   9.312   9.241   6.041 -0.2183 -1.4727 -2.3688
13520SOL    HW252620   9.292   9.394   5.990 -0.2383  0.1501  2.3072
13521SOL     OW52621   2.472   1.776   9.376 -0.5471  0.6112 -0.1123
13521SOL    HW152622   2.440   1.818   9.292  0.3456  1.4484 -0.0415
13521SOL    HW252623   2.511   1.686   9.356 -0.5250  0.7210 -0.5573
13522SOL     OW52624   0.737   6.673   4.305 -0.7422  0.1889 -0.4734
13522SOL    HW152625   0.751   6.693   4.401 -0.8978  1.3878 -0.6903
13522SOL    HW252626   0.824   6.653   4.261 -0.5169  0.9023 -0.3541
13523SOL     OW52627   0.243   2.251   2.999 -0.3978  0.3246  0.0552
13523SOL    HW152628   0.209   2.279   3.089 -0.1958  0.7365  0.0063
13523SOL    HW252629   0.190   2.297   2.928 -2.4742 -2.1854 -0.1046
13524SOL     OW52630   3.716   3.435   3.352 -0.5080  0.5018  0.4407
13524SOL    HW152631   3.804   3.433   3.400 -0.7925 -0.7522  0.9378
13524SOL    HW252632   3.711   3.516   3.294  0.7364  0.8884  0.8622
13525SOL     OW52633   2.359   1.706   7.029  0.2963 -0.5502 -0.2683
13525SOL    HW152634   2.391   1.625   6.981  0.9839 -0.3538 -0.1489
13525SOL    HW252635   2.382   1.699   7.126  0.8229  0.0097 -0.3430
13526SOL     OW52636   4.009   5.912   4.344  0.2316  0.4548  0.1880
13526SOL    HW152637   4.106   5.922   4.364  0.6621 -0.0773 -1.5516
13526SOL    HW252638   3.984   5.815   4.353 -0.4472  0.7622  1.8830
13527SOL     OW52639   9.376   8.297   8.265  0.3216 -0.1330  0.6568
13527SOL    HW152640   9.289   8.268   8.225  0.0371  0.9811  0.4485
13527SOL    HW252641   9.442   8.222   8.258  0.3711  0.1122 -2.1571
13528SOL     OW52642   8.827   5.199   2.909  0.6896  0.1737 -0.8515
13528SOL    HW152643   8.783   5.123   2.957  0.5523  1.1545  0.5869
13528SOL    HW252644   8.765   5.277   2.905  1.2729  0.6186 -1.2936
13529SOL     OW52645   9.459   2.033   1.635  0.3393  0.7068 -0.0978
13529SOL    HW152646   9.515   1.969   1.686  3.0613  1.9088 -1.4800
13529SOL    HW252647   9.480   2.127   1.665 -0.2998  1.2203 -1.2168
13530SOL     OW52648   1.982   9.213   2.221  0.0273 -0.4972 -0.1473
13530SOL    HW152649   1.890   9.236   2.190  0.5344 -0.2146 -1.4923
13530SOL    HW252650   1.980   9.124   2.266 -0.9904 -0.2667  0.2903
13531SOL     OW52651   6.581   2.122   2.607 -0.1372  0.1992 -0.1891
13531SOL    HW152652   6.638   2.054   2.560 -1.7055 -1.7098  0.5764
13531SOL    HW252653   6.594   2.113   2.706  0.4676  1.7819 -0.1119
13532SOL     OW52654   4.073   5.259   0.942 -0.1300 -0.4432  0.0495
13532SOL    HW152655   4.049   5.179   0.886 -1.5190 -0.9204  1.2846
13532SOL    HW252656   4.127   5.323   0.888 -0.5301 -1.3949 -1.5005
13533SOL     OW52657   5.802   8.583   8.171  0.2895 -0.0276 -0.7066
13533SOL    HW152658   5.896   8.556   8.192  0.6188  1.4695 -0.1727
13533SOL    HW252659   5.762   8.517   8.107  2.0448 -0.1334 -1.7426
13534SOL     OW52660   6.984   3.952   8.796 -0.8616 -0.1326 -0.1329
13534SOL    HW152661   7.077   3.921   8.780 -0.5507 -0.4501  2.1563
13534SOL    HW252662   6.929   3.876   8.830 -1.0330  0.8740  1.9300
13535SOL     OW52663   0.234   4.215   3.136  0.5358  0.1418  0.2043
13535SOL    HW152664   0.201   4.307   3.114 -0.3070  0.3295  2.1474
13535SOL    HW252665   0.309   4.222   3.202  0.3265 -0.5857  0.5213
13536SOL     OW52666   1.478   4.511   9.393 -0.7754 -0.0357  0.2891
13536SOL    HW152667   1.476   4.551   9.485 -2.4711 -0.5682  0.5047
13536SOL    HW252668   1.573   4.496   9.366 -0.2081  1.2126  1.4676
13537SOL     OW52669   7.524   1.661   3.214  0.2752  0.0236  0.4161
13537SOL    HW152670   7.561   1.568   3.211 -0.6464 -0.3607  0.8340
13537SOL    HW252671   7.592   1.723   3.255  1.0654 -0.3746 -0.2839
13538SOL     OW52672   8.675   2.674   3.547 -0.1180 -0.4679  0.5809
13538SOL    HW152673   8.625   2.748   3.503  0.4092 -0.1624  0.4789
13538SOL    HW252674   8.625   2.643   3.628  0.3864  1.0426  1.5003
13539SOL     OW52675   9.816   5.426   6.455 -0.0117  0.0474  0.0082
13539SOL    HW152676   9.763   5.465   6.530  1.6045  2.0269  0.1493
13539SOL    HW252677   9.779   5.458   6.368 -0.7642 -0.8079  0.0058
13540SOL     OW52678   3.756   4.029   0.016 -0.0600 -0.6888  0.1636
13540SOL    HW152679   3.789   4.019  -0.078 -2.0904 -2.4833 -0.3838
13540SOL    HW252680   3.820   3.985   0.079  0.2309 -1.3458 -0.5795
13541SOL     OW52681   1.638   5.720   6.836 -0.0901 -0.3461  0.0340
13541SOL    HW152682   1.540   5.702   6.825 -0.4774  1.2255  0.8158
13541SOL    HW252683   1.675   5.658   6.905  0.0604 -2.7898 -2.1490
13542SOL     OW52684   1.689   8.988   0.911  0.0259 -0.0329 -0.1075
13542SOL    HW152685   1.702   8.895   0.944 -1.0605 -0.4986 -0.9325
13542SOL    HW252686   1.592   9.012   0.915  0.0104  0.2923 -1.8557
13543SOL     OW52687   7.435   6.690   3.366 -0.4723 -0.0866 -0.2156
13543SOL    HW152688   7.486   6.776   3.358  3.0022 -1.9232  1.0758
13543SOL    HW252689   7.418   6.652   3.275  0.3044  0.6660 -0.6789
13544SOL     OW52690   2.297   0.584   6.223 -0.4383  0.7578 -0.5608
13544SOL    HW152691   2.268   0.655   6.159  2.7694  2.9183  0.3003
13544SOL    HW252692   2.364   0.524   6.179 -0.2178  0.6315 -0.0572
13545SOL     OW52693   0.821   1.356   6.724 -0.9007  0.6521  0.0557
13545SOL    HW152694   0.722   1.353   6.708 -0.6130  0.4280 -1.8434
13545SOL    HW252695   0.856   1.263   6.732 -0.7849  0.7219  0.3580
13546SOL     OW52696   5.618   0.346   7.060 -0.1363 -0.2209  0.1523
13546SOL    HW152697   5.665   0.313   6.978  0.2203 -1.4082  0.8157
13546SOL    HW252698   5.663   0.429   7.094 -0.0092  0.0170 -0.5910
13547SOL     OW52699   9.223   3.301   6.791  0.1899  0.1133  0.4360
13547SOL    HW152700   9.277   3.324   6.872 -0.4884  0.7100  0.7320
13547SOL    HW252701   9.263   3.343   6.710 -0.8739  2.1696  0.9300
13548SOL     OW52702   9.219   8.668   5.864  0.5489 -0.0438  0.4327
13548SOL    HW152703   9.214   8.642   5.960  1.5323 -0.9194  0.2575
13548SOL    HW252704   9.245   8.764   5.857  0.3222  0.0626  1.0444
13549SOL     OW52705   8.430   5.943   3.980 -0.1085 -0.5565 -0.1877
13549SOL    HW152706   8.462   5.857   4.019 -1.9646 -0.7730  0.9516
13549SOL    HW252707   8.360   5.925   3.912 -1.1756  0.0693  0.7204
13550SOL     OW52708   1.334   0.018   8.372 -0.3164 -0.5176  0.2208
13550SOL    HW152709   1.237   0.007   8.347 -0.0732 -2.1153 -0.0796
13550SOL    HW252710   1.345   0.101   8.427 -1.5867  0.6113 -1.1667
13551SOL     OW52711   0.690   8.223   2.809 -0.1414  0.5275  0.7934
13551SOL    HW152712   0.749   8.178   2.876 -0.0498  0.3903  0.6207
13551SOL    HW252713   0.717   8.319   2.800  1.1966  0.0489 -0.5684
13552SOL     OW52714   2.590   2.721   1.251  0.1458  0.5360  0.6948
13552SOL    HW152715   2.517   2.775   1.209  0.3457  0.7807  0.6595
13552SOL    HW252716   2.627   2.770   1.330 -0.6450 -0.1952  1.5459
13553SOL     OW52717   6.190   9.718   3.201  0.0823 -0.2407  0.5833
13553SOL    HW152718   6.199   9.648   3.272  0.9682 -1.2314 -0.4933
13553SOL    HW252719   6.280   9.758   3.183 -0.0290 -0.4421 -0.4281
13554SOL     OW52720   2.085   8.050   1.598  0.1085 -0.0453  0.7633
13554SOL    HW152721   2.140   7.967   1.597 -0.5640 -0.5134 -1.8055
13554SOL    HW252722   2.081   8.089   1.505 -2.6029  0.7964  1.1746
13555SOL     OW52723   8.553   1.520   0.461 -0.2113  0.1974 -0.3398
13555SOL    HW152724   8.510   1.527   0.371 -2.4623  0.6507  0.7178
13555SOL    HW252725   8.621   1.447   0.461 -1.3526 -0.8812 -1.9481
13556SOL     OW52726   1.001   5.656   0.592 -0.0139 -0.1055 -0.0287
13556SOL    HW152727   0.965   5.614   0.675 -0.4832  1.8840  0.8077
13556SOL    HW252728   1.064   5.729   0.616 -1.5079  1.6692 -1.3682
13557SOL     OW52729   4.139   3.739   2.937 -0.2399  0.8233 -0.2827
13557SOL    HW152730   4.190   3.653   2.932 -0.1666  0.8820 -0.5637
13557SOL    HW252731   4.041   3.719   2.926 -0.2115  0.7891 -0.4753
13558SOL     OW52732   0.558   8.007   9.299  0.0387 -0.3026  1.1481
13558SOL    HW152733   0.541   7.909   9.310  1.2664 -0.6438  0.1300
13558SOL    HW252734   0.656   8.026   9.309  0.0010  0.6119 -0.0555
13559SOL     OW52735   5.622   0.704   4.394  0.0523  0.3631  0.4043
13559SOL    HW152736   5.648   0.696   4.298  0.3035 -2.4459  0.6747
13559SOL    HW252737   5.575   0.791   4.408 -0.3946  0.6150 -2.3510
13560SOL     OW52738   4.861   7.329   6.302 -0.6147 -0.2415  0.3475
13560SOL    HW152739   4.893   7.399   6.365 -0.5945  1.7156 -1.7745
13560SOL    HW252740   4.930   7.257   6.295  0.8730  1.2009  0.0014
13561SOL     OW52741   4.842   8.084   4.456  0.9144 -0.7522 -0.6079
13561SOL    HW152742   4.816   8.017   4.525 -0.7576 -0.7479 -1.2079
13561SOL    HW252743   4.941   8.097   4.457  1.0547 -1.8750  0.7435
13562SOL     OW52744   2.344   6.848   6.988  0.4669 -0.2392  0.3307
13562SOL    HW152745   2.414   6.920   6.994  0.1761  0.0108  0.8587
13562SOL    HW252746   2.311   6.841   6.894 -0.9665  1.7509  0.6502
13563SOL     OW52747   0.152   0.701   6.629  0.4088  0.3317  0.3851
13563SOL    HW152748   0.139   0.611   6.587 -1.6945  0.7041  0.2210
13563SOL    HW252749   0.247   0.709   6.660  1.2640 -1.0131 -1.7706
13564SOL     OW52750   1.356   9.570   6.445 -0.2109  0.4080  0.0935
13564SOL    HW152751   1.343   9.540   6.351 -0.2328  0.7713 -0.0193
13564SOL    HW252752   1.275   9.618   6.477  0.1972  1.2018 -0.0540
13565SOL     OW52753   0.610   6.262   5.034  0.1932 -0.0831  0.2947
13565SOL    HW152754   0.666   6.180   5.038  1.5048  0.8320  1.4288
13565SOL    HW252755   0.514   6.237   5.018  0.7559 -1.7258 -0.6780
13566SOL     OW52756   9.217   6.754   4.091  0.3644  0.2081 -0.0083
13566SOL    HW152757   9.184   6.812   4.165  2.5669  2.1486 -0.4845
13566SOL    HW252758   9.307   6.718   4.115  0.3712 -0.4853 -1.0423
13567SOL     OW52759   2.489   6.185   5.260 -0.0449  0.5628 -0.0055
13567SOL    HW152760   2.481   6.104   5.318 -0.9507 -0.0325 -0.9241
13567SOL    HW252761   2.404   6.238   5.266 -0.5008  0.0281 -1.4267
13568SOL     OW52762   1.877   6.509   1.608 -0.8672  0.2884 -0.2447
13568SOL    HW152763   1.824   6.491   1.691 -1.9851  0.3263 -0.9285
13568SOL    HW252764   1.848   6.446   1.536 -0.0034  0.3440 -0.6475
13569SOL     OW52765   4.343   2.948   6.367  0.8670  0.2529 -0.2592
13569SOL    HW152766   4.391   2.873   6.322  0.6324  0.5627 -1.0345
13569SOL    HW252767   4.386   3.035   6.341 -0.6805  0.6125 -1.7209
13570SOL     OW52768   0.656   0.768   7.564  0.2361 -0.5043 -0.5454
13570SOL    HW152769   0.577   0.768   7.503  1.0333 -1.9180 -1.5892
13570SOL    HW252770   0.658   0.683   7.617  1.4438 -0.7974 -1.0428
13571SOL     OW52771   0.791   1.212   0.920 -0.2952  0.3763  0.3094
13571SOL    HW152772   0.817   1.309   0.917  1.0865 -0.0345 -1.8513
13571SOL    HW252773   0.849   1.164   0.986 -1.5643  1.1611  2.0344
13572SOL     OW52774   8.368   1.199   2.436  0.1968  0.0419  0.4231
13572SOL    HW152775   8.275   1.165   2.454  0.0610 -0.1565 -0.6245
13572SOL    HW252776   8.364   1.297   2.420  0.0945 -0.0625 -0.1798
13573SOL     OW52777   7.853   7.217   6.047  0.1400  0.2134 -0.1208
13573SOL    HW152778   7.948   7.187   6.051  0.4081  1.0176 -0.4432
13573SOL    HW252779   7.798   7.163   6.111  0.6923 -0.7014 -0.4156
13574SOL     OW52780   8.141   1.149   9.287 -0.1780  0.2376  0.1289
13574SOL    HW152781   8.236   1.132   9.313 -0.9107 -3.1257  0.7899
13574SOL    HW252782   8.133   1.147   9.187  0.1634 -1.0726  0.1302
13575SOL     OW52783   9.638   2.820   4.974  0.3133 -0.0339 -0.3284
13575SOL    HW152784   9.642   2.737   4.917 -0.6733  0.9594 -1.8832
13575SOL    HW252785   9.713   2.882   4.948  0.6089 -0.1126  0.3274
13576SOL     OW52786   4.549   6.682   3.533 -0.0474 -0.1917 -0.0016
13576SOL    HW152787   4.568   6.778   3.550 -0.5665 -0.0512 -0.1876
13576SOL    HW252788   4.628   6.639   3.489 -0.8280  0.8247 -2.4820
13577SOL     OW52789   1.818   8.927   5.443  0.3489 -0.3149 -0.3905
13577SOL    HW152790   1.747   8.926   5.373 -0.1154 -2.3382  0.0863
13577SOL    HW252791   1.786   8.976   5.524  0.7330  1.6621 -1.3908
13578SOL     OW52792   2.219   0.367   1.201 -0.4878 -0.9196 -0.1760
13578SOL    HW152793   2.208   0.297   1.130 -1.3067 -1.3652  0.3749
13578SOL    HW252794   2.165   0.341   1.281  0.0036 -0.1519  0.4103
13579SOL     OW52795   8.609   5.038   3.413 -0.4719 -0.3312 -0.0406
13579SOL    HW152796   8.707   5.046   3.429  0.3067 -2.0675 -3.5141
13579SOL    HW252797   8.578   5.114   3.355 -1.2854  0.4911  1.4570
13580SOL     OW52798   1.668   9.273   0.684  0.1741  0.2354 -0.4367
13580SOL    HW152799   1.688   9.371   0.684 -0.0101  0.2737 -0.6792
13580SOL    HW252800   1.725   9.227   0.752 -0.2242  0.6105  0.1472
13581SOL     OW52801   8.537   4.636   4.422 -0.4104 -0.2016 -0.2718
13581SOL    HW152802   8.473   4.691   4.476 -0.2171  0.8002 -1.0366
13581SOL    HW252803   8.563   4.687   4.340 -2.1209 -2.4344 -2.2742
13582SOL     OW52804   0.660   4.038   0.446  0.5231  0.0630  0.0870
13582SOL    HW152805   0.739   3.991   0.485  0.2946 -0.0345  0.4270
13582SOL    HW252806   0.692   4.110   0.384  0.8733 -0.7711 -0.7150
13583SOL     OW52807   8.801   4.975   7.411 -0.1558 -0.4950 -0.0481
13583SOL    HW152808   8.881   5.027   7.444  0.9683 -2.0076 -0.3573
13583SOL    HW252809   8.820   4.938   7.321 -0.8664 -1.6518  0.2695
13584SOL     OW52810   4.738   1.555   8.929  0.5256  0.4644  0.1366
13584SOL    HW152811   4.772   1.580   8.838  0.9041  0.2370  0.2149
13584SOL    HW252812   4.809   1.573   8.997  1.0985 -1.5257  0.1105
13585SOL     OW52813   7.320   3.807   8.897  0.7383 -0.5299  0.2674
13585SOL    HW152814   7.397   3.863   8.865 -0.5628  0.8199 -0.6127
13585SOL    HW252815   7.290   3.841   8.986 -0.2405  0.4032 -0.4007
13586SOL     OW52816   3.842   4.794   1.026 -0.3289 -0.0465 -0.1099
13586SOL    HW152817   3.890   4.711   1.055 -0.0065 -0.4260 -1.6795
13586SOL    HW252818   3.902   4.848   0.966 -0.9345  0.7655  0.0055
13587SOL     OW52819   1.110   1.356   2.418 -0.1822 -0.1554 -0.2694
13587SOL    HW152820   1.045   1.401   2.357 -1.1508 -0.0122  0.8579
13587SOL    HW252821   1.063   1.328   2.502  1.2238  0.0565  0.6049
13588SOL     OW52822   3.569   9.958   0.216 -0.4841 -0.0797  0.1350
13588SOL    HW152823   3.570   9.968   0.116 -0.9654 -1.5173 -0.0159
13588SOL    HW252824   3.489  10.005   0.253 -0.2178  0.5948 -0.1370
13589SOL     OW52825   8.829   3.324   5.255  0.2783 -0.4703  0.0481
13589SOL    HW152826   8.897   3.313   5.328  1.2874  0.9161 -0.6491
13589SOL    HW252827   8.753   3.379   5.289  0.5076 -0.2574  0.2269
13590SOL     OW52828   0.084   9.473   0.717  0.7318  0.0175 -0.1544
13590SOL    HW152829   0.088   9.546   0.649 -0.2931  0.9861  0.8119
13590SOL    HW252830   0.177   9.438   0.734  1.1915  0.9069 -0.8289
13591SOL     OW52831   9.746   4.137   8.695  0.5184  0.5402 -0.2609
13591SOL    HW152832   9.730   4.184   8.782 -0.6357 -0.3212  0.0061
13591SOL    HW252833   9.664   4.086   8.669  0.5751  1.4410 -2.2732
13592SOL     OW52834   3.633   8.786   8.154  0.4201  0.0220  0.0704
13592SOL    HW152835   3.724   8.746   8.142  0.3304 -0.5967  1.3797
13592SOL    HW252836   3.579   8.728   8.215 -0.6767  0.6649 -0.2824
13593SOL     OW52837   2.836   9.434   8.937  0.3197 -0.5055  0.6328
13593SOL    HW152838   2.764   9.382   8.893  0.7121  0.3511 -1.0595
13593SOL    HW252839   2.917   9.436   8.878  0.9169  0.5041  1.4627
13594SOL     OW52840   1.744   6.852   2.806 -0.6672 -0.0259 -0.1596
13594SOL    HW152841   1.744   6.902   2.719  1.6358 -0.0735 -0.2214
13594SOL    HW252842   1.732   6.916   2.881 -0.3403  0.3132 -0.3916
13595SOL     OW52843   0.608   0.193   8.163 -0.3280  0.3116  0.0860
13595SOL    HW152844   0.674   0.120   8.145  0.8043  0.8565  1.8356
13595SOL    HW252845   0.638   0.276   8.116 -1.4778 -0.2584 -1.6932
13596SOL     OW52846   7.934   9.055   0.007  1.1122 -0.4089  0.2720
13596SOL    HW152847   7.854   8.994   0.010  0.2606  0.5579 -1.8800
13596SOL    HW252848   8.013   9.008   0.046  0.2709 -2.6080 -0.5923
13597SOL     OW52849   0.349   9.191   1.569 -0.6380 -0.1894 -0.1050
13597SOL    HW152850   0.282   9.240   1.624 -1.1164 -1.6067  0.6143
13597SOL    HW252851   0.348   9.094   1.594  0.5932 -0.4966 -1.1741
13598SOL     OW52852   0.880   4.242   9.192 -0.6917 -0.3494 -0.3811
13598SOL    HW152853   0.936   4.324   9.182  1.0619 -1.4940 -0.1325
13598SOL    HW252854   0.832   4.223   9.106 -1.1856  0.9691 -0.4084
13599SOL     OW52855   5.194   9.492   4.945 -0.0981  0.0465  0.2913
13599SOL    HW152856   5.237   9.450   5.025  1.7140  0.8484 -0.2300
13599SOL    HW252857   5.129   9.562   4.975  0.4882  0.2636  1.0507
13600SOL     OW52858   2.621   4.515   4.463  0.0575 -0.0125  0.1393
13600SOL    HW152859   2.607   4.605   4.504  3.0870 -0.2135  1.7658
13600SOL    HW252860   2.669   4.525   4.376 -0.3101 -0.0115 -0.0644
13601SOL     OW52861   2.506   9.172   4.893  0.7718 -0.2181  0.1795
13601SOL    HW152862   2.500   9.084   4.847  2.0810  0.4321 -1.2846
13601SOL    HW252863   2.415   9.203   4.920  0.4029 -2.5510  1.7874
13602SOL     OW52864   2.853   5.801   1.560  0.5730 -0.4252 -0.4535
13602SOL    HW152865   2.768   5.747   1.563  0.1283  0.2722 -0.2865
13602SOL    HW252866   2.868   5.835   1.468  0.5769 -0.3992 -0.4436
13603SOL     OW52867   2.632   9.068   3.692  0.3981 -0.1324  0.4558
13603SOL    HW152868   2.690   9.136   3.647  1.3772 -1.0729  0.2790
13603SOL    HW252869   2.576   9.021   3.624 -1.2036  1.3433  0.7175
13604SOL     OW52870   4.419   1.795   9.937 -0.2774  0.4909 -0.2127
13604SOL    HW152871   4.395   1.718   9.996  0.1286  1.0878  0.7534
13604SOL    HW252872   4.363   1.875   9.962  0.3733  0.9412 -0.1737
13605SOL     OW52873   0.309   1.314   9.131  0.2941 -0.0947 -0.1948
13605SOL    HW152874   0.253   1.245   9.178  2.3074 -1.4666  0.2535
13605SOL    HW252875   0.365   1.270   9.061  0.6822  1.2810 -0.7740
13606SOL     OW52876   1.387   3.519   6.889  0.0062  0.1198  0.0704
13606SOL    HW152877   1.399   3.515   6.988  0.5524  1.8830  0.0861
13606SOL    HW252878   1.476   3.533   6.845 -0.3516  0.2777 -0.6105
13607SOL     OW52879   6.345   3.956   9.334  0.3861  0.1596  0.0677
13607SOL    HW152880   6.250   3.927   9.347  0.4790 -0.6855 -1.0738
13607SOL    HW252881   6.355   4.000   9.245  1.3241 -0.9068 -0.3706
13608SOL     OW52882   6.517   2.056   4.919 -0.8209  0.3285 -0.1578
13608SOL    HW152883   6.582   2.127   4.890  0.3369 -1.0667 -1.0246
13608SOL    HW252884   6.548   2.015   5.005 -1.2061  0.4974  0.0624
13609SOL     OW52885   0.976   1.160   1.562 -0.2349 -0.2585 -0.2913
13609SOL    HW152886   0.950   1.064   1.547 -0.4577 -0.4552  1.2669
13609SOL    HW252887   1.030   1.167   1.646 -0.4892  1.0365 -0.2300
13610SOL     OW52888   8.754   1.527   3.834 -0.0904  0.1543 -0.1757
13610SOL    HW152889   8.853   1.521   3.829 -0.0044  0.5980  0.8457
13610SOL    HW252890   8.718   1.570   3.751  0.3997 -1.8100 -1.4280
13611SOL     OW52891   6.520   8.720   3.249  0.0596  0.3838 -0.1627
13611SOL    HW152892   6.533   8.800   3.308  0.9703 -0.3385  0.6279
13611SOL    HW252893   6.422   8.699   3.244 -0.2459  1.8317 -0.7843
13612SOL     OW52894   8.342   6.318   2.604 -0.1556  0.1356  0.1699
13612SOL    HW152895   8.385   6.388   2.661  1.0686 -1.0819  0.7675
13612SOL    HW252896   8.391   6.312   2.517 -0.0536 -0.1951  0.2496
13613SOL     OW52897   0.802   4.214   4.035 -0.2436 -0.4393 -0.0669
13613SOL    HW152898   0.844   4.238   3.947 -1.0044 -2.2032 -0.9456
13613SOL    HW252899   0.703   4.207   4.024 -0.2336 -1.9151  0.6125
13614SOL     OW52900   7.516   6.454   7.403 -0.7756 -0.4383 -0.5016
13614SOL    HW152901   7.535   6.508   7.321 -1.7909  2.4762  1.1135
13614SOL    HW252902   7.585   6.473   7.472 -1.0990 -1.2933  0.0631
13615SOL     OW52903   3.370   8.030   6.301  0.4668 -0.1370 -0.0186
13615SOL    HW152904   3.464   8.022   6.268  0.6005 -0.7699  0.4987
13615SOL    HW252905   3.309   8.050   6.225  1.1618  1.3334 -0.2088
13616SOL     OW52906   7.660   2.880   3.895 -0.2916 -0.4218 -0.3168
13616SOL    HW152907   7.562   2.899   3.889 -0.5683 -1.0984  1.6157
13616SOL    HW252908   7.703   2.946   3.956  0.2706 -0.7567 -0.3471
13617SOL     OW52909   0.088   7.407   6.567  0.2339  0.1033 -0.6866
13617SOL    HW152910   0.166   7.435   6.511  0.3297  0.2666 -0.4745
13617SOL    HW252911   0.066   7.480   6.631 -0.0316  0.0158 -0.6805
13618SOL     OW52912   7.662   9.963   6.243  0.2598  0.3391  0.5044
13618SOL    HW152913   7.565   9.950   6.224  0.6439 -2.6937  0.4410
13618SOL    HW252914   7.674   9.984   6.340 -0.4317  0.5332  0.5513
13619SOL     OW52915   3.977   1.677   4.698  0.4444  0.3262  0.1608
13619SOL    HW152916   3.975   1.689   4.598  1.6080 -1.4341 -0.1039
13619SOL    HW252917   3.901   1.618   4.725 -0.8391  2.1223  0.5327
13620SOL     OW52918   1.209   6.143   3.346 -0.2794  0.4945  0.3139
13620SOL    HW152919   1.211   6.207   3.269 -1.0415 -0.1687 -0.2698
13620SOL    HW252920   1.156   6.062   3.321 -0.4429  0.2184  1.5027
13621SOL     OW52921   9.756   2.202  10.031 -0.3663 -0.1361  0.3220
13621SOL    HW152922   9.742   2.262  10.110 -0.7933  1.1742 -0.7348
13621SOL    HW252923   9.677   2.207   9.970  1.2352  1.2069 -1.7025
13622SOL     OW52924   3.519   4.859   5.392 -0.4266 -0.4081  0.2086
13622SOL    HW152925   3.500   4.935   5.330 -0.8244 -1.9094 -1.5707
13622SOL    HW252926   3.434   4.827   5.433 -0.3297 -0.2396  0.5430
13623SOL     OW52927   7.693   8.868   9.523  0.1178  0.6899 -0.8879
13623SOL    HW152928   7.640   8.875   9.608 -0.5091 -1.5670 -1.0568
13623SOL    HW252929   7.776   8.922   9.531 -0.7838  1.9130  0.5050
13624SOL     OW52930   2.104   0.180   8.854 -0.2519 -0.1979 -1.3617
13624SOL    HW152931   2.150   0.267   8.868 -0.3033 -0.2950 -0.5707
13624SOL    HW252932   2.165   0.118   8.804 -0.8036  0.8134 -3.3560
13625SOL     OW52933   0.307   1.569   2.897  0.3608 -0.3252  0.1942
13625SOL    HW152934   0.288   1.478   2.860 -0.5772  0.2505 -0.7351
13625SOL    HW252935   0.315   1.635   2.822  3.0350  0.0196  0.7159
13626SOL     OW52936   1.587   7.381   2.332 -0.0021  0.1362  0.2257
13626SOL    HW152937   1.506   7.394   2.390  1.6468  0.0684  2.6538
13626SOL    HW252938   1.565   7.318   2.258 -2.0796 -0.1756  1.0627
13627SOL     OW52939   4.052   4.021   7.279 -0.0230 -0.3131 -0.2594
13627SOL    HW152940   3.962   4.000   7.318 -0.4260  0.4845 -0.7572
13627SOL    HW252941   4.059   3.982   7.187  0.0932 -0.2502 -0.2777
13628SOL     OW52942   8.324   1.831   9.462  0.8898  0.2266  0.3213
13628SOL    HW152943   8.386   1.857   9.389  1.1900 -1.1345  0.0747
13628SOL    HW252944   8.236   1.878   9.450  1.3075  0.8625 -0.2694
13629SOL     OW52945   9.700   8.204   2.346  0.3633 -0.0751 -0.1190
13629SOL    HW152946   9.744   8.235   2.430  1.2286 -0.5259 -0.3935
13629SOL    HW252947   9.613   8.251   2.334  1.6612  2.2898 -0.5709
13630SOL     OW52948   6.557   8.715   8.313 -0.3355 -0.0046  0.1137
13630SOL    HW152949   6.460   8.725   8.333 -0.2666  0.9482 -0.0122
13630SOL    HW252950   6.575   8.622   8.278 -1.0319 -0.5005  1.0644
13631SOL     OW52951   9.606   8.938   2.928 -0.2649 -0.0615 -0.0271
13631SOL    HW152952   9.690   8.973   2.970  0.4037 -1.9621  0.2453
13631SOL    HW252953   9.550   8.892   2.997 -0.2478 -1.1852 -0.7476
13632SOL     OW52954   8.493   5.512   0.909  0.6659  0.6612  0.1366
13632SOL    HW152955   8.567   5.460   0.866  1.1247  1.9152 -0.6245
13632SOL    HW252956   8.417   5.521   0.845 -0.2894 -0.8974  1.0328
13633SOL     OW52957   9.047   3.396   2.817  0.4897 -0.2550  0.0853
13633SOL    HW152958   9.006   3.411   2.727 -2.0594 -2.7767  0.7811
13633SOL    HW252959   9.049   3.299   2.838  0.4557  0.3286  3.0391
13634SOL     OW52960   1.104   9.670   2.453 -0.5092 -0.6090  0.1792
13634SOL    HW152961   1.148   9.616   2.525  0.1896  0.3425  0.4716
13634SOL    HW252962   1.140   9.641   2.364  0.9228  0.3317  0.4292
13635SOL     OW52963   3.934   4.342   4.701 -0.4713 -0.6000  0.2026
13635SOL    HW152964   3.861   4.317   4.765  0.2708  1.2408  1.8216
13635SOL    HW252965   4.023   4.317   4.741 -0.1026 -1.2609 -1.0027
13636SOL     OW52966   4.151   4.038   8.977  0.7858  0.0498  0.1925
13636SOL    HW152967   4.215   3.965   8.950  1.6275  0.1856  1.7389
13636SOL    HW252968   4.199   4.125   8.977  0.3249  0.3027  0.3178
13637SOL     OW52969   1.650   4.190   4.765  0.3416  0.5208 -0.0378
13637SOL    HW152970   1.563   4.197   4.814  0.7551 -0.5389  0.8557
13637SOL    HW252971   1.696   4.279   4.766 -2.2154  1.9967 -3.3402
13638SOL     OW52972   4.640   4.518   5.551  0.2958 -0.5976  0.3105
13638SOL    HW152973   4.619   4.590   5.486  1.4215 -0.4953  0.0538
13638SOL    HW252974   4.555   4.485   5.594 -0.2980  0.2649 -0.2073
13639SOL     OW52975   0.479   4.512   3.387  0.0119  0.2558  0.4502
13639SOL    HW152976   0.495   4.492   3.484  2.3554  1.1495  0.2589
13639SOL    HW252977   0.487   4.610   3.371 -1.2815  0.2214 -0.4997
13640SOL     OW52978   4.369   4.252   0.061 -0.8065 -0.1389 -0.1040
13640SOL    HW152979   4.357   4.153   0.069  1.3348 -0.4554 -0.6605
13640SOL    HW252980   4.383   4.292   0.152  1.0188 -0.7148 -0.1243
13641SOL     OW52981   9.178   4.209   7.223 -0.5727 -0.0054 -0.1581
13641SOL    HW152982   9.214   4.136   7.283 -0.8398 -1.8394 -2.1628
13641SOL    HW252983   9.136   4.280   7.279  1.3173 -0.4846  1.9549
13642SOL     OW52984   4.830   1.127   9.932 -0.2511 -0.2571 -0.5103
13642SOL    HW152985   4.899   1.192   9.899 -0.7969  0.5049 -0.1695
13642SOL    HW252986   4.787   1.164  10.014 -2.3985  0.1579 -1.7957
13643SOL     OW52987   7.063   5.506   2.406 -0.4392  0.5509  0.1309
13643SOL    HW152988   7.015   5.431   2.360 -0.2704  0.4571  0.1048
13643SOL    HW252989   7.011   5.591   2.394 -0.2528  0.5812 -0.4822
13644SOL     OW52990   2.863   6.474   0.346  0.0653  0.0652 -0.1434
13644SOL    HW152991   2.908   6.556   0.311 -0.5826  1.2150  1.6172
13644SOL    HW252992   2.890   6.459   0.441 -1.7529 -0.3018  0.3504
13645SOL     OW52993   2.485   4.273   4.834  0.4599  0.0995  0.3756
13645SOL    HW152994   2.386   4.272   4.850  0.3959  2.6915  0.4050
13645SOL    HW252995   2.502   4.274   4.736  0.4449  0.2418  0.3746
13646SOL     OW52996   5.708   4.746   7.839 -0.0529 -0.4192  0.4288
13646SOL    HW152997   5.656   4.828   7.863  0.5559 -0.1591  0.8858
13646SOL    HW252998   5.685   4.718   7.746 -0.5370  0.0586  0.3987
13647SOL     OW52999   1.763   9.643   3.054  0.0599  0.1674  0.0241
13647SOL    HW153000   1.806   9.732   3.048 -0.4815  0.3551 -1.2206
13647SOL    HW253001   1.718   9.633   3.143  0.5519  0.9234  0.3575
13648SOL     OW53002   3.400   3.225   2.965 -0.7026 -0.0725 -0.1333
13648SOL    HW153003   3.308   3.209   2.928 -0.7831 -1.7461  0.7525
13648SOL    HW253004   3.392   3.255   3.060 -0.3535  0.7888 -0.3667
13649SOL     OW53005   2.465   0.317   1.616 -0.1773 -0.1123 -0.5761
13649SOL    HW153006   2.518   0.297   1.534  0.9286  0.7040 -0.0717
13649SOL    HW253007   2.419   0.234   1.646  0.8638 -0.8558 -0.9976
13650SOL     OW53008   1.626   6.007   7.109  0.0453  0.2532  0.1748
13650SOL    HW153009   1.668   5.981   7.196  0.1792  1.6118  0.5264
13650SOL    HW253010   1.538   6.051   7.125 -1.9328 -3.2639 -0.6063
13651SOL     OW53011   1.223   7.170   1.889 -0.1290 -0.3179  0.8705
13651SOL    HW153012   1.195   7.083   1.930  1.5770 -1.1966  0.2140
13651SOL    HW253013   1.149   7.204   1.831 -0.3310 -1.9703  0.1279
13652SOL     OW53014   4.547   2.101   8.121 -0.3514  0.4421  0.0139
13652SOL    HW153015   4.619   2.068   8.182  0.4148  0.4594 -0.8586
13652SOL    HW253016   4.553   2.052   8.034 -0.7219  1.2012 -0.4400
13653SOL     OW53017   3.036   7.022   0.639  0.2323 -0.2408 -0.1723
13653SOL    HW153018   2.987   7.042   0.724 -1.2479 -1.7379 -0.6518
13653SOL    HW253019   3.035   7.102   0.580  0.9810  0.7022  1.0806
13654SOL     OW53020   4.539   8.950   5.676 -0.1963 -0.0801  0.0210
13654SOL    HW153021   4.486   8.906   5.748 -1.4979 -0.2809 -1.0319
13654SOL    HW253022   4.601   9.017   5.716 -0.7082 -0.3878  1.3441
13655SOL     OW53023   6.113   3.632   9.253  0.4844 -0.4751 -0.2372
13655SOL    HW153024   6.049   3.568   9.296 -0.4848  0.0932 -0.8314
13655SOL    HW253025   6.202   3.587   9.241  0.0918 -1.3877  0.2458
13656SOL     OW53026   4.076   1.686   1.876  0.0877  0.2281 -0.1011
13656SOL    HW153027   4.074   1.588   1.856 -0.8084 -0.0408  1.2184
13656SOL    HW253028   3.992   1.729   1.844 -1.4760 -0.2556  3.1373
13657SOL     OW53029   9.886   1.502   0.445  0.0114  0.3706 -0.2143
13657SOL    HW153030   9.897   1.554   0.529 -0.5755  0.3109 -0.0994
13657SOL    HW253031   9.973   1.501   0.395 -0.0011  1.5682 -0.2859
13658SOL     OW53032   4.875   6.120   8.236  0.0655  0.8873 -0.6259
13658SOL    HW153033   4.905   6.158   8.149  0.5998 -1.2793 -1.4127
13658SOL    HW253034   4.941   6.052   8.268 -1.1969  0.1234  0.4077
13659SOL     OW53035   3.756   9.057   2.122 -0.1454  0.6379  0.7027
13659SOL    HW153036   3.778   9.110   2.040  0.6674  0.1897  0.6220
13659SOL    HW253037   3.816   9.085   2.197  1.5737 -1.4400  0.1499
13660SOL     OW53038   5.849   7.988   7.608 -0.2967  0.6382 -0.7213
13660SOL    HW153039   5.932   8.024   7.652  0.5792 -1.4773 -0.5822
13660SOL    HW253040   5.777   7.979   7.677  0.5828 -1.1788 -0.0107
13661SOL     OW53041   8.878   0.224   7.298  0.4064 -0.0170 -0.1310
13661SOL    HW153042   8.961   0.174   7.276  1.0908  1.2643 -0.5541
13661SOL    HW253043   8.840   0.264   7.214 -0.8157 -0.8476  0.0129
13662SOL     OW53044   1.517   7.871   5.387  0.6222  0.0676 -0.3512
13662SOL    HW153045   1.567   7.920   5.316  0.9185 -1.1575 -1.0090
13662SOL    HW253046   1.575   7.862   5.469  0.6224  0.6729 -0.2875
13663SOL     OW53047   9.887   8.763   2.471  0.2757 -0.2339  0.0154
13663SOL    HW153048   9.968   8.712   2.441  0.0304 -0.0214 -1.0187
13663SOL    HW253049   9.914   8.855   2.499  0.3007  0.0368 -0.9086
13664SOL     OW53050   9.316   9.853   6.739  0.4084 -0.0582 -0.3516
13664SOL    HW153051   9.371   9.925   6.697  0.6026 -0.8496 -1.4907
13664SOL    HW253052   9.367   9.811   6.814  1.3959 -0.7996 -1.4111
13665SOL     OW53053   6.115   0.572   7.585  0.1799  0.1360  0.0611
13665SOL    HW153054   6.018   0.551   7.603 -0.1290  1.5741  0.1366
13665SOL    HW253055   6.166   0.487   7.577 -1.2405 -0.6562 -0.7988
13666SOL     OW53056   7.054   0.377   7.704 -0.0188 -0.0412  0.2887
13666SOL    HW153057   7.008   0.462   7.727 -0.4997 -0.1535 -0.2453
13666SOL    HW253058   7.025   0.305   7.767  0.7110  0.2854  1.0088
13667SOL     OW53059   1.262   4.321   6.899 -0.0032 -0.1133  0.0965
13667SOL    HW153060   1.231   4.416   6.907  0.1090  0.0131 -0.9875
13667SOL    HW253061   1.338   4.306   6.963  2.1240  1.4323 -1.9659
13668SOL     OW53062   0.173   4.196   0.147 -0.1335  0.3446 -0.1421
13668SOL    HW153063   0.242   4.215   0.077 -0.1201  0.1135 -0.1936
13668SOL    HW253064   0.199   4.115   0.199 -0.4608  0.1420 -0.2887
13669SOL     OW53065   8.569   5.512   7.413  0.4369 -0.0353 -0.5379
13669SOL    HW153066   8.652   5.468   7.446 -0.1583 -0.1118  0.8820
13669SOL    HW253067   8.544   5.588   7.473 -1.1201 -0.6991 -0.3180
13670SOL     OW53068   7.025   4.799   0.830 -0.1944 -0.1890  0.0178
13670SOL    HW153069   6.932   4.788   0.796 -0.1225 -0.1100 -0.2093
13670SOL    HW253070   7.073   4.711   0.828 -0.2094 -0.1960 -0.0306
13671SOL     OW53071   3.276   7.601   4.422  0.0634  0.5759  0.0812
13671SOL    HW153072   3.201   7.655   4.459 -1.6459 -1.4415 -0.3402
13671SOL    HW253073   3.285   7.619   4.324  0.2941  1.0162  0.1841
13672SOL     OW53074   8.666   2.226   6.401 -0.4567  0.3102  0.2811
13672SOL    HW153075   8.757   2.266   6.413  0.0840 -0.5788 -0.7566
13672SOL    HW253076   8.667   2.132   6.436 -1.0024  0.3257  0.3373
13673SOL     OW53077   9.607   7.120   2.686  0.2442 -0.1147 -0.2263
13673SOL    HW153078   9.545   7.120   2.608  1.4940 -0.1665 -1.2439
13673SOL    HW253079   9.701   7.111   2.653  0.7403 -0.7161  1.3258
13674SOL     OW53080   1.969   5.019   3.118 -0.4628  0.0499  0.2189
13674SOL    HW153081   1.943   4.923   3.116 -0.7032  0.1310 -1.2434
13674SOL    HW253082   1.896   5.074   3.077  0.5063  0.6433 -0.7244
13675SOL     OW53083   5.006   7.679   7.059 -0.1177 -0.0398 -0.0468
13675SOL    HW153084   5.010   7.618   7.138  1.4553  0.6566  0.4413
13675SOL    HW253085   4.963   7.632   6.982 -0.6069 -1.1152  0.8689
13676SOL     OW53086   0.160   0.818   5.505  0.5300 -0.0459  0.3278
13676SOL    HW153087   0.104   0.736   5.518  0.4015  0.3082  2.1240
13676SOL    HW253088   0.185   0.856   5.594 -0.3251  2.4686 -0.4647
13677SOL     OW53089   4.391   5.067   7.803 -0.4673 -0.4140  0.0860
13677SOL    HW153090   4.309   5.088   7.750  0.3874 -1.8044 -1.8082
13677SOL    HW253091   4.382   4.978   7.846  0.4735 -1.0537 -1.0094
13678SOL     OW53092   0.279   0.491   2.415  0.1603  0.6706 -0.3725
13678SOL    HW153093   0.275   0.523   2.321  0.1925  0.3489 -0.4839
13678SOL    HW253094   0.205   0.533   2.468  0.2890  1.0350 -0.4839
13679SOL     OW53095   2.832   5.366   3.459 -1.1321  0.1026  0.3360
13679SOL    HW153096   2.751   5.391   3.406 -2.5182 -1.5889  1.5694
13679SOL    HW253097   2.876   5.448   3.496 -1.5410  1.1148 -1.4190
13680SOL     OW53098   3.902   4.615   0.203  0.2324  0.7193 -0.6406
13680SOL    HW153099   3.929   4.589   0.296  2.1032 -0.6023 -1.5385
13680SOL    HW253100   3.913   4.714   0.193  0.6821  0.7810  0.3366
13681SOL     OW53101   2.102   1.919   2.618  0.3405  0.5375  0.5101
13681SOL    HW153102   2.197   1.944   2.604 -0.2242  0.5543 -3.9241
13681SOL    HW253103   2.091   1.821   2.605 -0.2632  0.5574  0.8622
13682SOL     OW53104   9.719   6.468   0.123  0.7046 -0.0346 -0.2378
13682SOL    HW153105   9.781   6.397   0.092 -0.2962 -0.2776 -1.7637
13682SOL    HW253106   9.743   6.496   0.216  2.1256 -1.1888 -0.2474
13683SOL     OW53107   2.324   9.905   9.038  0.2625  0.5769  0.3074
13683SOL    HW153108   2.396   9.963   8.999  1.7865 -0.4631  1.4821
13683SOL    HW253109   2.294   9.944   9.125  1.0632 -0.2032  0.9425
13684SOL     OW53110   7.841   9.171   6.195 -0.6838 -0.0636  0.0449
13684SOL    HW153111   7.939   9.156   6.212 -0.6969 -2.2934 -1.5936
13684SOL    HW253112   7.830   9.231   6.115 -0.6281 -0.6810 -0.4362
13685SOL     OW53113   3.732   2.437   8.206 -0.3361  0.3787  0.4754
13685SOL    HW153114   3.781   2.375   8.267  0.2044  1.4889  1.1777
13685SOL    HW253115   3.640   2.453   8.242 -0.4029  0.1498  0.4059
13686SOL     OW53116   3.646   1.044   1.025  0.4245 -0.1640 -0.1524
13686SOL    HW153117   3.720   1.031   0.959  1.2656  1.3761  0.4556
13686SOL    HW253118   3.629   0.958   1.074  3.5191  0.0533  1.4404
13687SOL     OW53119   5.438   3.293   1.347  0.6575  0.1086 -0.3425
13687SOL    HW153120   5.500   3.268   1.274  0.1067  2.2323 -1.5980
13687SOL    HW253121   5.400   3.211   1.390  2.6581 -1.1569 -0.9807
13688SOL     OW53122   0.068   7.767   0.155  0.2072  0.4701  0.4685
13688SOL    HW153123  -0.025   7.764   0.120 -0.0723  2.5193  0.9720
13688SOL    HW253124   0.105   7.674   0.159 -1.8680 -0.3937  0.4432
13689SOL     OW53125   8.004   6.196   8.705 -0.1269 -0.2984 -0.1821
13689SOL    HW153126   7.949   6.240   8.634 -0.9595 -0.5378  0.3097
13689SOL    HW253127   8.057   6.265   8.755  2.4066 -0.3615 -2.6636
13690SOL     OW53128   5.567   5.827   8.843  0.0142 -0.8488 -0.1680
13690SOL    HW153129   5.557   5.772   8.761 -1.9354  1.1000 -1.2901
13690SOL    HW253130   5.487   5.815   8.902  0.7026 -1.0751  0.7286
13691SOL     OW53131   4.468   5.230   5.126 -0.5723 -0.5575 -0.2972
13691SOL    HW153132   4.492   5.154   5.187  1.3869 -0.1245 -0.5207
13691SOL    HW253133   4.513   5.313   5.157 -1.4283  0.1769 -1.0039
13692SOL     OW53134   7.688   3.765   1.211  0.2720 -0.0061 -0.4553
13692SOL    HW153135   7.613   3.747   1.148 -0.1422  0.3806 -0.0802
13692SOL    HW253136   7.768   3.712   1.184  0.2096  0.4149 -1.5065
13693SOL     OW53137   7.308   1.306   5.464  0.2225 -0.5798  0.0507
13693SOL    HW153138   7.334   1.232   5.525  2.9800  0.3100  0.0027
13693SOL    HW253139   7.275   1.268   5.377  1.2012 -1.7527  0.1877
13694SOL     OW53140   5.235   3.886   2.631  0.1226  0.1843  0.7720
13694SOL    HW153141   5.150   3.926   2.666 -0.6437  0.4119 -1.2890
13694SOL    HW253142   5.238   3.789   2.654 -1.1603 -0.0427  0.0188
13695SOL     OW53143   8.523   8.542   3.771 -0.1736 -0.0206  0.2238
13695SOL    HW153144   8.517   8.605   3.693 -1.1244  0.2852  0.5356
13695SOL    HW253145   8.436   8.495   3.782  0.2442 -0.7238  0.5628
13696SOL     OW53146   6.703   0.241   4.359  0.4324  0.2764  0.4641
13696SOL    HW153147   6.796   0.214   4.335 -0.0955 -0.6468 -0.5762
13696SOL    HW253148   6.639   0.167   4.337 -1.0417  2.2895 -2.3440
13697SOL     OW53149   1.522   0.821   8.111 -0.2847 -0.2978  0.3588
13697SOL    HW153150   1.546   0.893   8.046 -0.3587 -1.6448 -1.1995
13697SOL    HW253151   1.472   0.860   8.188 -0.1884  1.3256 -0.3912
13698SOL     OW53152   7.765   4.356   2.555  0.1744  0.3916  0.0032
13698SOL    HW153153   7.849   4.384   2.602  0.7167 -0.3881 -0.4958
13698SOL    HW253154   7.702   4.315   2.621  0.4523  0.3678  0.2542
13699SOL     OW53155   2.363   0.077   1.654  0.1898 -0.0876  0.3000
13699SOL    HW153156   2.438   0.042   1.598  0.6901 -0.3509  1.1368
13699SOL    HW253157   2.353   0.022   1.736 -0.9510 -0.0758  0.1852
13700SOL     OW53158   3.372   0.498   6.453 -0.4315  0.1240  0.5016
13700SOL    HW153159   3.448   0.514   6.516 -1.1895 -0.4341  1.5607
13700SOL    HW253160   3.336   0.406   6.467 -2.2290  0.8864  0.9926
13701SOL     OW53161   9.937   1.791   1.659  0.6466  0.4747 -0.2780
13701SOL    HW153162   9.934   1.870   1.720 -1.6590  0.6406 -0.5711
13701SOL    HW253163   9.903   1.816   1.569 -0.4299 -0.9233 -0.2750
13702SOL     OW53164   7.805   5.431   9.015 -0.3084 -1.0114 -0.7293
13702SOL    HW153165   7.896   5.469   8.996 -0.0686 -0.6559  1.0315
13702SOL    HW253166   7.799   5.407   9.112 -1.7476 -2.0056 -1.0570
13703SOL     OW53167   9.909   3.848   2.355 -0.0632 -0.2180 -0.5988
13703SOL    HW153168   9.950   3.760   2.332 -0.8914 -1.2544  1.6514
13703SOL    HW253169   9.978   3.907   2.396 -0.1692 -0.9686  0.7031
13704SOL     OW53170   5.018   5.278   6.913  0.7281  0.0569  0.3615
13704SOL    HW153171   4.923   5.273   6.942  0.7025  0.6654  0.3771
13704SOL    HW253172   5.024   5.319   6.822  0.8862 -0.9861 -0.1053
13705SOL     OW53173   0.329   6.883   1.292  0.1514 -0.0084  0.1157
13705SOL    HW153174   0.359   6.942   1.218  1.1458 -2.4382 -1.4875
13705SOL    HW253175   0.408   6.848   1.341 -0.3715 -0.6634  0.5068
13706SOL     OW53176   6.166   5.287   9.455  0.3302 -0.5692  0.3713
13706SOL    HW153177   6.257   5.245   9.449  1.6810  2.2781  0.3688
13706SOL    HW253178   6.105   5.241   9.391  2.1053 -1.6803 -0.5713
13707SOL     OW53179   1.716   8.743   1.978  0.3803 -0.4235  0.1916
13707SOL    HW153180   1.719   8.644   1.960  1.8795 -0.5608  1.1672
13707SOL    HW253181   1.794   8.787   1.933 -0.9452  0.5065 -1.2589
13708SOL     OW53182   2.638   4.010   9.123 -0.0683  0.7017 -0.1094
13708SOL    HW153183   2.719   4.057   9.086  1.3857 -0.9925  0.8863
13708SOL    HW253184   2.567   4.078   9.144  2.1608  2.5357  1.7389
13709SOL     OW53185   2.062   5.342   7.663 -0.3151  0.0234 -0.3632
13709SOL    HW153186   2.114   5.261   7.690 -1.2709 -0.1851  0.9666
13709SOL    HW253187   2.087   5.370   7.571  2.0355 -0.1469  0.1985
13710SOL     OW53188   3.653   3.753   8.214 -0.0840  0.4550  0.4148
13710SOL    HW153189   3.641   3.758   8.314 -1.3364  0.3228  0.2758
13710SOL    HW253190   3.637   3.842   8.174 -0.9586  0.1983  0.1887
13711SOL     OW53191   8.843   4.251   6.645 -0.7107  0.3383  0.4076
13711SOL    HW153192   8.917   4.281   6.585 -1.0245  1.7626  0.7278
13711SOL    HW253193   8.786   4.184   6.597 -0.3933  0.7435 -0.5330
13712SOL     OW53194   4.841   4.172   6.513 -0.0742  0.2888  0.2371
13712SOL    HW153195   4.879   4.083   6.489  0.6295  0.8514 -0.8168
13712SOL    HW253196   4.741   4.166   6.519  0.0281 -0.7222  0.8941
13713SOL     OW53197   9.854   2.530   7.981  0.0100 -0.1960 -0.5454
13713SOL    HW153198   9.758   2.525   7.951 -0.3913 -1.1389  0.8668
13713SOL    HW253199   9.914   2.519   7.901 -1.0603 -1.6780 -1.1734
13714SOL     OW53200   1.993   2.252   6.493  0.4710 -0.0661  0.2448
13714SOL    HW153201   2.028   2.186   6.427 -1.2032 -0.5602 -0.1569
13714SOL    HW253202   2.025   2.228   6.584  1.8068 -0.0554 -0.1934
13715SOL     OW53203   8.773   3.996   6.105 -0.1370  0.5309 -0.9202
13715SOL    HW153204   8.873   4.005   6.110 -0.0847  0.1871 -1.3057
13715SOL    HW253205   8.742   3.935   6.177 -0.2160  1.6956  0.0423
13716SOL     OW53206   1.749   9.527   2.690 -0.0720 -0.2760  0.0309
13716SOL    HW153207   1.728   9.603   2.628  0.9170 -0.9054 -1.1150
13716SOL    HW253208   1.837   9.545   2.735 -0.8792  0.2663  1.4148
13717SOL     OW53209   4.542   3.207   6.627  0.4681 -0.1783 -1.0041
13717SOL    HW153210   4.521   3.283   6.688  0.6455 -0.6118 -0.3949
13717SOL    HW253211   4.526   3.121   6.675  0.7908 -0.5228 -1.5105
13718SOL     OW53212   2.193   9.364   2.641  1.1510 -0.1543 -0.0715
13718SOL    HW153213   2.130   9.419   2.697 -1.8285 -2.1140 -1.4050
13718SOL    HW253214   2.174   9.379   2.544  4.1294  0.7454 -0.5598
13719SOL     OW53215   2.066   8.995   5.570  0.1956  0.0047  0.3266
13719SOL    HW153216   1.995   8.967   5.505 -1.6728  0.2259  2.2596
13719SOL    HW253217   2.134   8.921   5.578 -2.4022 -2.2888  2.1064
13720SOL     OW53218   8.522   3.177   5.355  0.2749  0.0608 -0.3702
13720SOL    HW153219   8.616   3.179   5.390 -0.5120  0.0954  1.8170
13720SOL    HW253220   8.515   3.108   5.283  1.7915 -0.4907 -0.0147
13721SOL     OW53221   0.675   5.817   5.127 -0.4405  0.4249  0.4168
13721SOL    HW153222   0.726   5.882   5.071  2.0118 -0.8848  1.0584
13721SOL    HW253223   0.603   5.776   5.071  1.0381  0.1949 -1.3911
13722SOL     OW53224   2.104   5.677   8.524 -0.2726  0.0081  0.6583
13722SOL    HW153225   2.132   5.764   8.482  0.4845 -0.6373 -0.2029
13722SOL    HW253226   2.016   5.649   8.487  0.0702 -0.2120  0.0009
13723SOL     OW53227   6.994   3.632   9.095  0.1189 -0.4976 -0.1077
13723SOL    HW153228   6.899   3.611   9.116 -1.3118  1.6358 -3.9518
13723SOL    HW253229   7.044   3.649   9.180 -3.3692  0.1371  1.9012
13724SOL     OW53230   5.496   0.789   1.791  0.1099 -0.0886 -0.2019
13724SOL    HW153231   5.424   0.729   1.825  0.5280  0.7416  2.2666
13724SOL    HW253232   5.457   0.852   1.723 -1.6435  0.6287  1.3896
13725SOL     OW53233   3.069   0.909   2.674  0.1321  0.0039 -0.2762
13725SOL    HW153234   3.029   0.926   2.765  2.4818 -0.5669  0.9026
13725SOL    HW253235   3.000   0.926   2.604 -2.4788 -1.9426  1.7238
13726SOL     OW53236   1.745   6.704   8.372  0.0567 -0.4952  0.3418
13726SOL    HW153237   1.784   6.787   8.333 -1.1083  0.9140  2.0782
13726SOL    HW253238   1.797   6.678   8.454  0.0522 -1.1688  0.1397
13727SOL     OW53239   9.246   8.887   9.813 -0.2503  0.3029 -0.0107
13727SOL    HW153240   9.235   8.812   9.749 -1.4790 -0.7717  1.4275
13727SOL    HW253241   9.343   8.896   9.838  0.0707  0.0293 -1.1536
13728SOL     OW53242   0.739   4.285   1.694  0.2833 -0.3315  0.1006
13728SOL    HW153243   0.802   4.240   1.756  0.3881 -0.4426 -0.0863
13728SOL    HW253244   0.676   4.343   1.746  0.4278 -0.3551  0.3005
13729SOL     OW53245   0.442   3.667   3.392 -0.5291 -0.2550 -0.3440
13729SOL    HW153246   0.492   3.582   3.373 -0.3938 -0.0966 -0.6826
13729SOL    HW253247   0.348   3.658   3.360 -0.5143 -0.2777 -0.3811
13730SOL     OW53248   0.528   4.435   1.777 -0.8577 -0.1978 -0.5786
13730SOL    HW153249   0.472   4.371   1.830  0.2973 -0.5880  0.1923
13730SOL    HW253250   0.493   4.439   1.683 -1.6822 -1.0431 -0.3226
13731SOL     OW53251   0.059   2.464   3.646 -0.9799 -0.4649  0.6603
13731SOL    HW153252   0.086   2.485   3.740 -0.9954 -0.5652  0.6868
13731SOL    HW253253  -0.040   2.479   3.636 -0.7869  0.6189  0.3690
13732SOL     OW53254   1.544   2.528   7.959  0.9694 -0.0635  0.1098
13732SOL    HW153255   1.516   2.503   8.052  0.2880 -0.4516 -0.1954
13732SOL    HW253256   1.487   2.603   7.926  0.7624 -0.3822 -0.2507
13733SOL     OW53257   1.297   8.444   5.797  0.2433  0.0948  0.2334
13733SOL    HW153258   1.281   8.421   5.893 -1.1928  0.9223  0.1997
13733SOL    HW253259   1.386   8.490   5.789  0.3788  0.0046  1.1671
13734SOL     OW53260   7.990   3.840   6.089 -0.0346 -0.3655 -0.0250
13734SOL    HW153261   8.049   3.785   6.031  1.2728 -0.1485  1.0677
13734SOL    HW253262   8.033   3.928   6.107 -1.5950  0.5933 -0.8310
13735SOL     OW53263   5.529   7.732   7.321  0.0033  0.0631 -0.3810
13735SOL    HW153264   5.547   7.688   7.409  1.8482 -1.3295 -1.3881
13735SOL    HW253265   5.499   7.663   7.255 -0.3467  0.8978 -1.1022
13736SOL     OW53266   9.921   6.997   6.120 -0.4116  0.1418 -0.1042
13736SOL    HW153267   9.993   6.947   6.169 -0.7826 -0.3610 -0.0719
13736SOL    HW253268   9.856   7.034   6.185 -0.2377  0.5152 -0.1416
13737SOL     OW53269   0.887   3.458   1.923  0.3204 -0.2114  0.0433
13737SOL    HW153270   0.960   3.463   1.992 -0.9604 -0.6942  1.4678
13737SOL    HW253271   0.924   3.424   1.837  2.0425  0.8090  0.3697
13738SOL     OW53272   1.270   0.653   1.365  0.1524  0.1433  0.6681
13738SOL    HW153273   1.179   0.620   1.389  0.6696 -0.6950  1.5167
13738SOL    HW253274   1.270   0.686   1.270 -0.7389 -0.9867  0.2603
13739SOL     OW53275   1.861   3.266   2.578  0.2343 -0.6048  0.1635
13739SOL    HW153276   1.780   3.214   2.551 -0.5294  0.5766  0.1573
13739SOL    HW253277   1.870   3.265   2.678 -0.8719  0.8760  0.2799
13740SOL     OW53278   2.399   1.662   7.301 -0.5739 -0.2950  0.3665
13740SOL    HW153279   2.387   1.639   7.398  0.3715  0.7521  0.7432
13740SOL    HW253280   2.445   1.586   7.255 -2.6868 -1.5904  0.3083
13741SOL     OW53281   0.330   5.731   0.226 -0.0021  0.7364 -0.4296
13741SOL    HW153282   0.264   5.720   0.151 -1.1242  0.9673  0.5138
13741SOL    HW253283   0.403   5.791   0.196  0.0890  0.0183 -1.6874
13742SOL     OW53284   7.492   8.389   4.422 -0.3600  0.2389 -0.2400
13742SOL    HW153285   7.425   8.322   4.456 -0.1027  0.2876  0.3755
13742SOL    HW253286   7.468   8.416   4.329 -0.3297 -0.8938 -0.5871
13743SOL     OW53287   2.980   9.254   2.584 -0.0452 -0.2134  0.5436
13743SOL    HW153288   3.060   9.229   2.639 -0.0327  0.5693  0.8877
13743SOL    HW253289   2.935   9.171   2.550  1.9165 -0.6535 -1.1113
13744SOL     OW53290   1.051   4.063   0.567 -0.2050  0.1719  0.3152
13744SOL    HW153291   1.111   3.989   0.598 -0.6145 -0.6942 -0.8909
13744SOL    HW253292   0.956   4.032   0.572 -0.3301  0.3230 -0.9459
13745SOL     OW53293   4.629   7.842   2.729 -0.0022  0.0404  0.6718
13745SOL    HW153294   4.686   7.768   2.764  0.1446 -0.6125 -0.8689
13745SOL    HW253295   4.601   7.820   2.635 -3.5446 -0.0676  1.7144
13746SOL     OW53296   7.211   9.219   3.515 -0.7877  0.1527  0.0492
13746SOL    HW153297   7.189   9.130   3.553 -0.9477 -0.4497 -1.4116
13746SOL    HW253298   7.241   9.208   3.420  0.2729  1.5362  0.2037
13747SOL     OW53299   4.477   7.474   3.231  0.0409 -0.1135 -0.5373
13747SOL    HW153300   4.391   7.521   3.254 -0.6491 -1.3445 -0.5367
13747SOL    HW253301   4.477   7.383   3.272  2.1243  0.5196  0.9303
13748SOL     OW53302   5.722   5.945   2.710  0.2523  0.3618 -0.9552
13748SOL    HW153303   5.814   5.979   2.731 -0.6244  1.4529  1.2578
13748SOL    HW253304   5.667   6.021   2.674 -0.7847  0.5599  1.0151
13749SOL     OW53305   3.419   1.516   6.183  0.0875  0.4207 -0.7389
13749SOL    HW153306   3.384   1.431   6.224  0.0258  1.3157  1.1355
13749SOL    HW253307   3.363   1.540   6.104  0.8454 -1.9081 -2.0383
13750SOL     OW53308   5.680   3.864   1.855 -0.3528 -0.3300 -0.0973
13750SOL    HW153309   5.749   3.935   1.840 -0.9452  0.1524 -0.5780
13750SOL    HW253310   5.717   3.776   1.824  0.5728 -0.3273  0.9769
13751SOL     OW53311   1.233   1.471   8.517 -0.4350  0.0932  0.0248
13751SOL    HW153312   1.256   1.386   8.564 -0.3888 -0.5678 -1.1623
13751SOL    HW253313   1.306   1.538   8.531  0.1813 -0.5336 -0.1694
13752SOL     OW53314   2.578   0.102   3.528 -0.0060  0.4331  0.3419
13752SOL    HW153315   2.656   0.155   3.561  1.0889 -1.1597  0.3531
13752SOL    HW253316   2.536   0.054   3.604  0.2315 -0.2793  0.0325
13753SOL     OW53317   1.403   2.798   7.971 -0.1732  0.2044  0.3313
13753SOL    HW153318   1.330   2.754   8.023 -1.3856  0.8506 -0.7741
13753SOL    HW253319   1.366   2.831   7.884  1.6510 -0.2717 -0.6511
13754SOL     OW53320   8.962   5.808   1.776  0.2926  0.3026 -0.4351
13754SOL    HW153321   9.044   5.752   1.787  0.5165  0.8600  0.7648
13754SOL    HW253322   8.985   5.889   1.722 -0.1158 -0.9170 -2.5022
13755SOL     OW53323   4.093   0.300   1.441  0.1610  0.0443  0.1715
13755SOL    HW153324   4.114   0.205   1.466 -3.1707 -1.1668 -1.2983
13755SOL    HW253325   4.061   0.350   1.522  0.8693 -0.4136  0.7349
13756SOL     OW53326   0.890   7.785   0.852 -0.4322 -0.2230  0.2018
13756SOL    HW153327   0.830   7.705   0.856  0.2782 -0.8147 -0.8208
13756SOL    HW253328   0.902   7.812   0.757  1.8015 -0.7831  0.2970
13757SOL     OW53329   5.050   1.484   4.696 -0.5122  0.1716 -0.1666
13757SOL    HW153330   5.104   1.479   4.613 -0.8961  2.2757 -0.5673
13757SOL    HW253331   4.987   1.406   4.700 -1.0050  0.4402 -2.2117
13758SOL     OW53332   0.965   3.403   3.299  0.1626 -0.3927  0.0270
13758SOL    HW153333   0.915   3.467   3.242 -0.5625 -0.6199  0.3996
13758SOL    HW253334   0.905   3.369   3.372  0.6579 -1.1805  0.0734
13759SOL     OW53335   6.353   9.508   7.686 -0.3296  0.0306  0.6933
13759SOL    HW153336   6.296   9.489   7.606 -0.4177  0.2465  0.7029
13759SOL    HW253337   6.438   9.455   7.680 -1.0695 -1.2309  1.3022
13760SOL     OW53338   0.318   3.314   0.783 -0.4516 -0.4370 -0.1701
13760SOL    HW153339   0.229   3.358   0.777 -1.2277 -2.0398 -0.8881
13760SOL    HW253340   0.330   3.274   0.873 -0.3747 -0.0389 -0.0050
13761SOL     OW53341   2.825   7.105   4.481  0.5202  0.1377 -0.6540
13761SOL    HW153342   2.854   7.135   4.390 -0.0248  0.5479 -0.6943
13761SOL    HW253343   2.898   7.051   4.523  0.9612  0.3509 -1.1413
13762SOL     OW53344   3.251   8.793   4.036  0.4213  0.1102  0.0011
13762SOL    HW153345   3.266   8.770   4.132  0.7299  0.8503  0.1370
13762SOL    HW253346   3.266   8.712   3.979 -2.2054 -0.9793  0.7886
13763SOL     OW53347   7.760   4.573   1.992  0.0369 -0.0555  0.0864
13763SOL    HW153348   7.695   4.526   2.052 -0.2869 -1.1739 -1.1353
13763SOL    HW253349   7.734   4.670   1.985  0.4083  0.2220  2.1956
13764SOL     OW53350   5.466   8.996   5.645 -0.3825 -0.0705  0.7753
13764SOL    HW153351   5.443   8.931   5.573  0.3997  1.0410 -0.5001
13764SOL    HW253352   5.518   8.949   5.716  1.3637 -0.5974 -0.7927
13765SOL     OW53353   8.889   0.032   4.406  0.0337 -0.2029  0.9507
13765SOL    HW153354   8.797   0.014   4.441 -0.3373  1.0014  0.6147
13765SOL    HW253355   8.909   0.130   4.416  0.5490 -0.1363 -0.7393
13766SOL     OW53356   4.324   1.669   6.231  0.2427  0.8464 -0.1734
13766SOL    HW153357   4.406   1.714   6.266 -0.2824  0.2265  1.9211
13766SOL    HW253358   4.350   1.606   6.157  2.0814 -1.4404  2.3184
13767SOL     OW53359   3.959   4.149   3.230  0.1935 -0.0939 -0.0862
13767SOL    HW153360   3.918   4.093   3.302 -0.7739 -0.0598 -0.6070
13767SOL    HW253361   4.058   4.151   3.243  0.0013  0.2635  1.4976
13768SOL     OW53362   9.891   4.081   0.158  0.0083  0.5136  0.5214
13768SOL    HW153363   9.978   4.114   0.123 -0.8801  2.2860 -0.0656
13768SOL    HW253364   9.816   4.120   0.105 -1.1430 -1.3239  0.7411
13769SOL     OW53365   7.748   1.899   2.475 -0.7444 -0.4083  0.9627
13769SOL    HW153366   7.809   1.893   2.396 -1.1555  1.6802  0.4588
13769SOL    HW253367   7.685   1.821   2.474 -0.3929 -0.6912 -0.4657
13770SOL     OW53368   2.403   3.490   5.739  0.3291 -0.5428  0.6282
13770SOL    HW153369   2.441   3.398   5.737 -1.3617 -1.2668 -0.4278
13770SOL    HW253370   2.317   3.490   5.790  0.1857  0.3847  0.4093
13771SOL     OW53371   5.025   7.865   6.688 -0.2898 -0.2700 -0.0400
13771SOL    HW153372   5.095   7.846   6.619  1.6888  0.7769  1.6048
13771SOL    HW253373   4.989   7.779   6.724 -0.9293 -0.8189 -1.9475
13772SOL     OW53374   5.507   4.805   1.622 -0.4690  0.3200 -0.6731
13772SOL    HW153375   5.463   4.724   1.661  0.4059  1.9744  4.0635
13772SOL    HW253376   5.448   4.884   1.635  0.2856  1.1080 -1.9540
13773SOL     OW53377   9.518   7.270   1.782 -0.4287 -0.1078  0.0177
13773SOL    HW153378   9.552   7.246   1.691  1.0257  0.6436  0.3497
13773SOL    HW253379   9.475   7.190   1.824  0.3860 -0.9097 -0.6648
13774SOL     OW53380   0.612   4.947   2.500  0.0815  0.0927  0.0277
13774SOL    HW153381   0.519   4.919   2.524  0.5348 -0.8089  0.7725
13774SOL    HW253382   0.657   4.871   2.452  0.1543  0.8266 -1.0700
13775SOL     OW53383   5.410   9.691   3.723 -0.3813 -0.1231  0.3359
13775SOL    HW153384   5.508   9.712   3.715 -0.4753  0.6044  1.0069
13775SOL    HW253385   5.379   9.646   3.640  0.4516 -0.0584 -0.0220
13776SOL     OW53386   1.802   5.158   1.206  0.1667  0.1319 -0.2230
13776SOL    HW153387   1.772   5.099   1.131 -0.3021 -1.8345  1.4702
13776SOL    HW253388   1.726   5.214   1.238 -0.2297 -0.6902  0.2824
13777SOL     OW53389   0.931   0.996   5.507  0.2857 -0.7027  0.1163
13777SOL    HW153390   0.980   1.052   5.440  1.1831 -0.6767  0.7848
13777SOL    HW253391   0.977   0.908   5.518 -0.2094 -0.9494  0.2555
13778SOL     OW53392   4.436   3.748   3.031  0.3220 -0.0299  0.0655
13778SOL    HW153393   4.355   3.801   3.006  1.3736  0.7044 -1.8819
13778SOL    HW253394   4.409   3.671   3.090 -1.8049  0.0512 -0.7597
13779SOL     OW53395   7.041   0.329   3.002  0.6193 -0.1531 -0.1335
13779SOL    HW153396   7.018   0.343   2.905  1.0512  2.2199  0.0580
13779SOL    HW253397   7.138   0.306   3.010  0.2965 -1.6406 -0.3360
13780SOL     OW53398   4.345   0.094   0.272  0.8388 -0.1940 -0.0323
13780SOL    HW153399   4.420   0.063   0.330  2.2349  1.6153 -0.8061
13780SOL    HW253400   4.271   0.129   0.329  2.1587  1.4936  0.6996
13781SOL     OW53401   9.064   2.869   9.935 -0.2952  0.0452  0.1178
13781SOL    HW153402   9.114   2.912   9.860 -0.8341  0.8253  0.1980
13781SOL    HW253403   9.027   2.940   9.995 -0.4645 -0.5560  0.7310
13782SOL     OW53404   0.620   8.773   3.890  0.0147  0.0527  0.2567
13782SOL    HW153405   0.667   8.755   3.804 -1.8985 -0.1587 -0.7693
13782SOL    HW253406   0.616   8.872   3.905  0.6406  0.0783  0.2669
13783SOL     OW53407   2.132   0.172   6.548 -0.0906  0.5838 -0.3572
13783SOL    HW153408   2.034   0.174   6.568  0.4580  3.4884  2.4900
13783SOL    HW253409   2.157   0.252   6.494  1.0157  1.0438  0.7991
13784SOL     OW53410   6.853   8.896   3.907  0.6764  0.2787 -0.3601
13784SOL    HW153411   6.938   8.885   3.855  0.3398 -1.3779 -0.6028
13784SOL    HW253412   6.858   8.840   3.990 -1.4413 -2.5344 -2.0106
13785SOL     OW53413   8.157   4.168   9.588 -0.1430  0.0413 -0.0258
13785SOL    HW153414   8.070   4.139   9.628  0.1313  0.5526  0.9440
13785SOL    HW253415   8.206   4.087   9.554 -0.9627 -0.2534 -0.5183
13786SOL     OW53416   8.381   8.907   0.123  0.4678 -0.4590 -0.5918
13786SOL    HW153417   8.439   8.964   0.066  0.9455 -1.3725 -1.0316
13786SOL    HW253418   8.426   8.819   0.140  0.8574  0.2052  2.1595
13787SOL     OW53419   8.080   0.260   5.948 -0.3413  0.3554  0.2949
13787SOL    HW153420   8.064   0.171   5.904 -2.6380  1.6173 -1.5384
13787SOL    HW253421   8.089   0.246   6.047  2.1847 -2.2100 -0.2004
13788SOL     OW53422   1.656   5.982   9.914  0.1615 -0.3537 -0.0494
13788SOL    HW153423   1.720   5.939   9.977  0.3414 -0.6060 -0.4073
13788SOL    HW253424   1.599   6.048   9.964 -0.3434 -1.2467  0.5538
13789SOL     OW53425   8.207   1.290   3.680 -0.5312  0.5521  0.1092
13789SOL    HW153426   8.108   1.283   3.663 -0.5951  0.3034  0.5694
13789SOL    HW253427   8.242   1.201   3.707  0.3283  0.0043 -2.6787
13790SOL     OW53428   1.980   6.794   5.333  0.3268 -0.4523 -0.1255
13790SOL    HW153429   1.978   6.838   5.243  1.0153  2.7637  1.3655
13790SOL    HW253430   2.073   6.797   5.369  0.0128 -1.5494  0.8229
13791SOL     OW53431   9.403   2.053   4.067 -0.5039  0.6212 -0.0937
13791SOL    HW153432   9.386   2.152   4.076  2.2471  1.3079 -1.7382
13791SOL    HW253433   9.501   2.036   4.073 -0.9257 -2.0140 -0.1538
13792SOL     OW53434   5.616   3.440   8.653 -0.2082 -0.8834 -0.2427
13792SOL    HW153435   5.592   3.425   8.749 -0.6854 -0.4668 -0.2948
13792SOL    HW253436   5.700   3.390   8.631  0.8560  0.3715  0.8592
13793SOL     OW53437   1.866   3.779   0.507  0.4366  0.6216  0.7175
13793SOL    HW153438   1.837   3.874   0.496  1.1114  0.8540  0.9192
13793SOL    HW253439   1.829   3.723   0.433  1.5538  1.3840 -0.4138
13794SOL     OW53440   9.624   6.880   1.265  0.0388  0.2593  0.2445
13794SOL    HW153441   9.714   6.873   1.221  0.5868  3.4313  0.7674
13794SOL    HW253442   9.564   6.937   1.210 -1.6293 -1.6770  0.0085
13795SOL     OW53443   1.592   3.496   4.920 -0.4405  0.3247  0.4124
13795SOL    HW153444   1.677   3.514   4.871  0.1135  1.1879  1.6568
13795SOL    HW253445   1.583   3.398   4.936  0.2212  0.2090  0.0816
13796SOL     OW53446   5.176   2.088   5.005 -0.1133  0.3210  0.4497
13796SOL    HW153447   5.118   2.008   5.020 -0.8982  0.5971 -0.9823
13796SOL    HW253448   5.240   2.069   4.930 -0.8705  1.3356 -0.4493
13797SOL     OW53449   4.346   8.895   3.987  0.0835 -0.1357  0.5335
13797SOL    HW153450   4.439   8.931   3.982  0.9008 -2.0319  1.3722
13797SOL    HW253451   4.338   8.814   3.928 -2.1135  2.1256 -2.4457
13798SOL     OW53452   2.648   9.050   6.355 -0.6374  0.3638 -0.0281
13798SOL    HW153453   2.624   9.147   6.365 -1.6037  0.3480 -1.8647
13798SOL    HW253454   2.595   8.995   6.418 -1.3181  0.8841 -0.1429
13799SOL     OW53455   4.214   8.450   1.689 -0.1749  0.2263  0.3840
13799SOL    HW153456   4.155   8.458   1.769 -0.4258  1.3808  0.0938
13799SOL    HW253457   4.158   8.443   1.607  0.0882 -0.4554  0.2534
13800SOL     OW53458   6.091   2.787   9.356 -0.5875 -0.0648 -0.5385
13800SOL    HW153459   6.113   2.707   9.300  1.6046 -0.4170  0.7622
13800SOL    HW253460   6.052   2.858   9.298  1.8321 -0.3384 -2.6037
13801SOL     OW53461   2.335   8.843   7.472 -0.2169 -0.1637  0.3373
13801SOL    HW153462   2.312   8.894   7.555 -0.4193 -1.2405  0.9563
13801SOL    HW253463   2.294   8.889   7.392  0.0942  0.9520  0.8064
13802SOL     OW53464   4.699   0.383   8.994 -0.1335  0.5206  0.6099
13802SOL    HW153465   4.760   0.370   9.072 -0.3379 -2.2022  0.3819
13802SOL    HW253466   4.660   0.474   8.996  0.4362  0.7271  3.2696
13803SOL     OW53467   5.330   2.395   2.490 -0.0462 -0.0086 -0.7750
13803SOL    HW153468   5.238   2.382   2.528  0.2381 -3.2353 -1.0154
13803SOL    HW253469   5.324   2.440   2.401 -1.1682  1.9958  0.2647
13804SOL     OW53470   8.486   6.075   1.425 -0.1508  0.0858 -0.3076
13804SOL    HW153471   8.407   6.127   1.392  0.5118  1.0332 -0.4261
13804SOL    HW253472   8.544   6.051   1.347 -0.4977 -0.9432 -0.2689
13805SOL     OW53473   7.495   4.152   9.035  1.4642 -0.1040  0.1918
13805SOL    HW153474   7.592   4.175   9.035  1.8394 -1.5168 -1.8368
13805SOL    HW253475   7.462   4.149   8.940 -0.2468 -0.9071  0.7940
13806SOL     OW53476   1.444   7.337   8.435 -0.3003 -0.2481 -0.0541
13806SOL    HW153477   1.523   7.348   8.495  0.0918 -0.5298 -0.5165
13806SOL    HW253478   1.475   7.323   8.341 -0.9445  2.6604 -0.7469
13807SOL     OW53479   0.641   2.540   6.072  0.0275  0.1535 -0.2507
13807SOL    HW153480   0.624   2.499   5.982 -1.4449  2.1005 -0.8968
13807SOL    HW253481   0.568   2.512   6.135  0.1507  0.1137 -0.1270
13808SOL     OW53482   6.721   7.310   5.679 -0.2318 -0.0027  0.4031
13808SOL    HW153483   6.733   7.226   5.732 -1.5814  1.1074  2.5708
13808SOL    HW253484   6.634   7.305   5.629 -0.0526 -0.1000  0.0973
13809SOL     OW53485   2.761   0.885   5.927  0.3485 -0.0425 -0.0935
13809SOL    HW153486   2.861   0.879   5.932  0.2626 -1.1758  0.3419
13809SOL    HW253487   2.725   0.912   6.016  0.0271 -3.2681  0.8195
13810SOL     OW53488   8.219   0.535   1.174  0.0693  0.1262 -0.0627
13810SOL    HW153489   8.169   0.572   1.252 -0.7954 -1.4494  0.1427
13810SOL    HW253490   8.271   0.455   1.203 -0.3713 -0.5530 -1.1282
13811SOL     OW53491   1.487   5.838   5.847 -0.1114 -0.3528 -0.2136
13811SOL    HW153492   1.515   5.931   5.822  0.1115 -0.3021  0.2363
13811SOL    HW253493   1.566   5.787   5.881  0.3118 -1.4977 -2.7983
13812SOL     OW53494   4.219   1.927   2.604 -0.3674  0.1334  0.3725
13812SOL    HW153495   4.242   1.851   2.543 -2.0878 -0.1276  0.0384
13812SOL    HW253496   4.296   1.991   2.607  0.5573 -0.9136 -0.4200
13813SOL     OW53497   8.767   5.689   4.928 -0.0661  0.4137  0.6773
13813SOL    HW153498   8.865   5.674   4.937 -0.0099  1.0403  1.1997
13813SOL    HW253499   8.745   5.715   4.833  0.3734  0.9684  0.7255
13814SOL     OW53500   9.015   6.785   0.376 -0.5392  0.3064  0.0897
13814SOL    HW153501   9.046   6.797   0.470  0.4420 -1.2484  0.0025
13814SOL    HW253502   8.931   6.730   0.374  0.0843 -0.6720  0.0235
13815SOL     OW53503   8.469   1.852   2.837  0.0268 -0.3078  0.2405
13815SOL    HW153504   8.467   1.760   2.876  1.7212 -0.6093 -0.3725
13815SOL    HW253505   8.438   1.849   2.742  1.2710 -0.4452 -0.1664
13816SOL     OW53506   1.247   5.128   4.823  0.6715 -0.0540 -0.0194
13816SOL    HW153507   1.235   5.170   4.912  1.7629 -0.1160  0.1583
13816SOL    HW253508   1.209   5.187   4.752  1.3826  0.8149  0.3169
13817SOL     OW53509   0.929   0.875   1.526  0.1964  0.1608 -0.1455
13817SOL    HW153510   0.837   0.851   1.559 -0.1868  0.8093 -0.7241
13817SOL    HW253511   0.997   0.825   1.579 -0.5800 -2.2908 -1.4208
13818SOL     OW53512   0.902   4.565   5.366  0.0946 -0.4125  0.0297
13818SOL    HW153513   0.916   4.470   5.395  2.7509 -0.0752 -0.0123
13818SOL    HW253514   0.944   4.627   5.433 -0.9384  0.7132 -0.3333
13819SOL     OW53515   3.167   9.285   8.312  0.4401  0.2803  0.5744
13819SOL    HW153516   3.255   9.331   8.310  1.0393 -0.8753 -0.8172
13819SOL    HW253517   3.152   9.238   8.225 -0.7099 -1.0806  1.4846
13820SOL     OW53518   1.007   5.074   8.843 -0.3461 -1.0890  0.3091
13820SOL    HW153519   0.947   5.056   8.766 -1.1950  1.6002  0.2825
13820SOL    HW253520   0.968   5.146   8.900  2.8728  0.8520  0.2109
13821SOL     OW53521   3.370   3.697   8.870 -0.1169  0.2303 -0.6045
13821SOL    HW153522   3.305   3.721   8.943 -1.2155 -2.2573 -0.7125
13821SOL    HW253523   3.357   3.602   8.845  1.2932  0.6563 -3.0356
13822SOL     OW53524   7.877   3.581   4.571  0.7114 -0.0878  0.4640
13822SOL    HW153525   7.846   3.619   4.659  0.1110 -1.2501  0.7736
13822SOL    HW253526   7.904   3.486   4.584 -0.1507 -0.5181 -0.7622
13823SOL     OW53527   4.124   9.532   4.528  0.5781 -0.7010  0.1731
13823SOL    HW153528   4.190   9.519   4.601  1.1280 -1.4350 -0.4451
13823SOL    HW253529   4.166   9.586   4.454 -0.2057  0.6682  0.7093
13824SOL     OW53530   8.042   7.295   2.515  0.3360 -0.6252 -1.0635
13824SOL    HW153531   8.018   7.223   2.581  2.0350  0.2036  0.4955
13824SOL    HW253532   8.102   7.257   2.445  0.2019 -1.0239 -0.9666
13825SOL     OW53533   9.120   2.919   3.653  0.0494 -0.4412  0.0600
13825SOL    HW153534   9.075   2.884   3.571 -0.8425 -0.2027  0.4437
13825SOL    HW253535   9.128   2.845   3.721 -0.0358 -0.4084  0.1064
13826SOL     OW53536   9.856   4.862   8.964  0.8754 -0.3165  0.1197
13826SOL    HW153537   9.951   4.882   8.941  0.5061  0.1904 -1.0482
13826SOL    HW253538   9.796   4.901   8.893 -0.4156  2.4487  2.6157
13827SOL     OW53539   0.238   0.383   0.852  0.0454 -0.4484 -0.6246
13827SOL    HW153540   0.222   0.307   0.915 -1.2967 -0.5326 -1.0637
13827SOL    HW253541   0.240   0.469   0.903 -2.0738 -0.4095 -0.5870
13828SOL     OW53542   8.355   1.858   2.535 -0.1353 -0.4577  0.2470
13828SOL    HW153543   8.316   1.937   2.488  1.1335  0.4666  0.7342
13828SOL    HW253544   8.404   1.801   2.469 -1.0864 -0.8560 -0.1123
13829SOL     OW53545   0.037   5.306   2.468 -0.1315  0.3543  0.2025
13829SOL    HW153546  -0.050   5.262   2.489  0.2550 -0.3882  0.2378
13829SOL    HW253547   0.112   5.241   2.479  0.3875  0.8520 -0.3092
13830SOL     OW53548   0.049   8.013   1.322 -0.1570  0.2939  0.1195
13830SOL    HW153549   0.141   8.052   1.332  0.2144 -0.2642 -0.9843
13830SOL    HW253550  -0.013   8.056   1.387  0.3790  2.3277 -0.6669
13831SOL     OW53551   5.112   4.564   0.276 -0.4974  0.3249  0.5723
13831SOL    HW153552   5.122   4.475   0.320 -0.9980 -0.0898 -0.1545
13831SOL    HW253553   5.103   4.552   0.178 -2.1096  1.0780  0.6114
13832SOL     OW53554   3.135   7.605   3.399  0.0277 -0.2054 -0.3045
13832SOL    HW153555   3.101   7.553   3.477  0.5354  0.5718  0.4508
13832SOL    HW253556   3.204   7.552   3.351 -0.0062 -0.5342  0.0104
13833SOL     OW53557   1.133   7.832   8.035 -0.1220 -0.1911 -0.4142
13833SOL    HW153558   1.150   7.734   8.030 -1.1817 -0.4719  1.0156
13833SOL    HW253559   1.100   7.865   7.947  0.7728 -1.0147 -1.0576
13834SOL     OW53560   0.663   1.526   2.857 -1.0090 -0.1021  0.5314
13834SOL    HW153561   0.576   1.526   2.905 -0.4761 -1.0815  1.5160
13834SOL    HW253562   0.734   1.568   2.914 -0.6503 -0.0870  0.0840
13835SOL     OW53563   0.471   1.818   0.965 -0.3387  0.3026  0.3494
13835SOL    HW153564   0.489   1.843   1.060 -0.7846  1.1538  0.2084
13835SOL    HW253565   0.506   1.725   0.948  3.2634  1.5838  0.2854
13836SOL     OW53566   9.177   7.557   8.133 -0.1892  0.6306 -0.0245
13836SOL    HW153567   9.255   7.620   8.137  0.4181 -0.1091  0.1105
13836SOL    HW253568   9.125   7.563   8.218 -0.6949  1.6482 -0.4071
13837SOL     OW53569   2.312   7.533   1.698 -0.4199  0.1296 -0.3209
13837SOL    HW153570   2.307   7.589   1.782 -3.0633 -1.8588  0.9210
13837SOL    HW253571   2.350   7.443   1.720 -0.0406 -0.0075 -1.5155
13838SOL     OW53572   9.215   5.546   5.685 -0.1260 -0.0822  0.0769
13838SOL    HW153573   9.161   5.565   5.767  0.2317 -1.2706  0.6043
13838SOL    HW253574   9.306   5.586   5.696  0.0774 -0.6545  0.4609
13839SOL     OW53575   9.332   0.929   3.339 -0.4944 -0.5862 -0.1597
13839SOL    HW153576   9.286   1.005   3.386 -4.1946 -2.2596 -0.9075
13839SOL    HW253577   9.394   0.883   3.403  0.0721  1.6226  0.9386
13840SOL     OW53578   8.774   4.711   8.794  0.3697  0.4375  0.3597
13840SOL    HW153579   8.780   4.745   8.887  0.7446 -1.2010  0.9552
13840SOL    HW253580   8.861   4.667   8.769 -0.3324 -0.7242 -0.1051
13841SOL     OW53581   2.462   9.141   2.070 -0.2039 -0.4182  0.1677
13841SOL    HW153582   2.542   9.091   2.103 -0.9877 -0.7221  1.6137
13841SOL    HW253583   2.444   9.219   2.130 -1.1469 -0.5037 -0.0016
13842SOL     OW53584   9.455   1.820   7.985  0.6369  0.2313 -0.1189
13842SOL    HW153585   9.382   1.818   7.916 -0.4536 -0.9201  1.0231
13842SOL    HW253586   9.432   1.887   8.056  1.1887  0.5961 -0.2878
13843SOL     OW53587   9.734   5.003   0.457  0.1628 -0.1703 -0.2142
13843SOL    HW153588   9.701   5.092   0.427  1.9106  0.2447 -0.9612
13843SOL    HW253589   9.675   4.931   0.419 -3.2123  0.7423  3.0104
13844SOL     OW53590   4.459   1.744   5.664  0.2445 -0.8765  0.1452
13844SOL    HW153591   4.369   1.731   5.622 -0.5787 -0.4341  1.7626
13844SOL    HW253592   4.475   1.673   5.731  0.4983 -0.1214  0.8919
13845SOL     OW53593   3.076   7.171   6.016 -0.5217 -0.3469 -0.1634
13845SOL    HW153594   2.987   7.127   6.026 -1.6571  2.0956  0.7307
13845SOL    HW253595   3.140   7.134   6.083 -1.3669 -0.8295  0.3760
13846SOL     OW53596   9.643   5.836   7.556  0.4097  0.6926 -0.1455
13846SOL    HW153597   9.548   5.808   7.540  1.0420  0.0302 -3.0889
13846SOL    HW253598   9.693   5.762   7.601  0.4146 -0.3990 -1.9038
13847SOL     OW53599   1.683   5.638   5.932  0.9423 -0.3477  0.0204
13847SOL    HW153600   1.783   5.640   5.943  0.8722 -0.3234  0.6499
13847SOL    HW253601   1.652   5.543   5.933  0.8269 -0.3032  1.0294
13848SOL     OW53602   5.800   0.180   4.413  0.1473 -0.5522 -1.1984
13848SOL    HW153603   5.788   0.149   4.507 -1.9623  2.5119 -0.3601
13848SOL    HW253604   5.760   0.114   4.350  0.2728 -1.9183  0.1364
13849SOL     OW53605   2.405   7.017   8.346  0.4616  0.1793 -0.1149
13849SOL    HW153606   2.494   7.048   8.311  0.2000  1.3983  0.2809
13849SOL    HW253607   2.393   7.051   8.439 -0.6035  0.3588 -0.3137
13850SOL     OW53608   0.987   6.506   3.176  0.4490 -0.0086  0.2071
13850SOL    HW153609   0.929   6.440   3.222 -0.8204  2.0235  1.6285
13850SOL    HW253610   0.940   6.594   3.171  2.3078  0.9511 -1.1110
13851SOL     OW53611   9.342   6.907   6.738  0.3673 -0.2217  0.7110
13851SOL    HW153612   9.386   6.831   6.689  1.5425  0.4755  0.6697
13851SOL    HW253613   9.375   6.910   6.832  0.3449  0.2554  0.7049
13852SOL     OW53614   5.543   8.082   5.651 -0.2980  0.0163  0.5079
13852SOL    HW153615   5.485   8.158   5.678  1.3430  0.5921  2.5297
13852SOL    HW253616   5.491   8.020   5.592 -2.4746  1.2849  1.0278
13853SOL     OW53617   3.680   3.555   9.676  0.4661 -0.4850 -0.4436
13853SOL    HW153618   3.702   3.652   9.690 -2.5378  0.1666  0.1404
13853SOL    HW253619   3.750   3.498   9.719  2.0902  1.3977 -0.4886
13854SOL     OW53620   5.352   5.760   9.344  0.1068 -0.0676  0.0358
13854SOL    HW153621   5.274   5.788   9.399 -0.3273  0.2760 -0.7443
13854SOL    HW253622   5.387   5.839   9.293 -0.0345 -0.5619 -0.8442
13855SOL     OW53623   6.080   7.077   5.694 -0.4486 -0.8865  0.0291
13855SOL    HW153624   6.078   7.022   5.778 -1.0686 -1.9794 -0.6914
13855SOL    HW253625   6.173   7.077   5.657 -0.4371 -1.4296  0.0534
13856SOL     OW53626   3.808   8.613   3.181 -0.3360  0.2144 -0.1220
13856SOL    HW153627   3.898   8.599   3.140  0.4097  0.3174  1.4472
13856SOL    HW253628   3.816   8.612   3.280 -2.2924 -1.1760  0.0522
13857SOL     OW53629   1.592   1.914   0.244  0.2247 -0.7754 -0.3245
13857SOL    HW153630   1.521   1.951   0.303  1.5917 -0.3428  1.0740
13857SOL    HW253631   1.599   1.969   0.161 -0.0789  0.0248  0.1839
13858SOL     OW53632   6.055   1.497   9.578  0.2699 -0.1971 -0.0991
13858SOL    HW153633   6.155   1.505   9.579  0.2371  0.2719 -0.8503
13858SOL    HW253634   6.020   1.526   9.489 -0.5973  0.2929  0.4046
13859SOL     OW53635   3.244   1.539   4.500 -0.0676 -0.0548 -0.0023
13859SOL    HW153636   3.160   1.485   4.497  1.1390 -2.1361  1.8489
13859SOL    HW253637   3.244   1.594   4.584  0.4923 -0.2386  0.1190
13860SOL     OW53638   7.615   2.113   2.314 -0.4112  0.4970 -0.3709
13860SOL    HW153639   7.595   2.053   2.237 -0.7652 -1.0400  0.8784
13860SOL    HW253640   7.619   2.059   2.398  1.5570  1.9039  0.4758
13861SOL     OW53641   3.206   9.001   3.263 -0.4256  0.1046 -0.7200
13861SOL    HW153642   3.294   9.047   3.252 -0.2780  0.0075  0.0179
13861SOL    HW253643   3.210   8.940   3.342 -0.4931 -1.4764 -1.9144
13862SOL     OW53644   1.388   4.970   7.033 -0.6727 -0.0418 -0.4513
13862SOL    HW153645   1.468   5.027   7.013 -1.4513  1.1879 -0.1444
13862SOL    HW253646   1.331   4.963   6.951 -0.9238  0.1826 -0.2949
13863SOL     OW53647   7.237   7.858   5.754 -0.3201 -0.1977  0.4418
13863SOL    HW153648   7.194   7.820   5.672  1.2245 -0.7168 -0.1623
13863SOL    HW253649   7.301   7.930   5.727 -0.1903 -0.0199  1.2328
13864SOL     OW53650   0.328   8.396   3.472  0.4785  0.7382  0.0295
13864SOL    HW153651   0.415   8.354   3.446  0.2382  0.9646 -1.1773
13864SOL    HW253652   0.335   8.495   3.459  0.3860  0.8653  0.9488
13865SOL     OW53653   0.849   5.903   8.470  0.0068 -0.1934  0.3570
13865SOL    HW153654   0.946   5.928   8.476 -0.7327  2.6366  1.2547
13865SOL    HW253655   0.834   5.817   8.519  2.0609 -0.7018  0.1534
13866SOL     OW53656   5.985   8.974   6.776  0.3166 -0.4327 -0.6130
13866SOL    HW153657   5.988   8.992   6.677 -1.6558  0.8270 -0.4703
13866SOL    HW253658   6.038   9.044   6.824 -0.0396 -0.1252 -0.6687
13867SOL     OW53659   7.449   4.108   7.899  0.5290 -0.2275  0.4392
13867SOL    HW153660   7.486   4.070   7.814 -2.0914  1.7584 -1.7001
13867SOL    HW253661   7.416   4.033   7.957  0.4460 -1.5342 -1.2431
13868SOL     OW53662   9.645   2.995   1.166 -0.0414  0.1973 -0.5337
13868SOL    HW153663   9.717   3.026   1.104  0.7013  0.5424  0.4944
13868SOL    HW253664   9.578   3.068   1.178  1.1916  1.0778  1.1162
13869SOL     OW53665   1.990   9.565   0.096 -0.4287 -0.3004  0.2779
13869SOL    HW153666   1.927   9.497   0.057  0.8601 -0.8391 -0.9108
13869SOL    HW253667   2.007   9.637   0.030 -0.5867  0.3831  0.9745
13870SOL     OW53668   9.111   1.242   2.607 -0.4351  0.2510 -0.5425
13870SOL    HW153669   9.026   1.194   2.626  0.1210 -1.0819 -1.2993
13870SOL    HW253670   9.100   1.302   2.528 -0.3570 -0.8753 -1.4335
13871SOL     OW53671   0.308   6.613   0.691 -0.0580  0.2430 -0.1747
13871SOL    HW153672   0.375   6.539   0.692 -0.6502 -0.3012  0.0516
13871SOL    HW253673   0.287   6.638   0.596 -0.9436 -0.8960 -0.2942
13872SOL     OW53674   1.181   2.131   0.201 -0.3613 -0.6906 -0.4099
13872SOL    HW153675   1.271   2.088   0.196 -0.5645 -1.1710  0.0227
13872SOL    HW253676   1.133   2.120   0.114  0.8734  1.5306 -1.4295
13873SOL     OW53677   2.750   1.435   6.021  0.2464 -0.7710 -0.2221
13873SOL    HW153678   2.651   1.449   6.018  0.0938 -1.5642  0.8157
13873SOL    HW253679   2.793   1.513   6.067  0.1470 -0.2329 -1.0390
13874SOL     OW53680   2.445   2.639   3.359 -0.6359 -0.0362  0.1616
13874SOL    HW153681   2.391   2.709   3.405 -1.4200 -0.2758 -0.3879
13874SOL    HW253682   2.385   2.583   3.301 -0.0749 -1.3605  0.8370
13875SOL     OW53683   0.111   3.132   3.798 -0.3922  0.2374  0.1671
13875SOL    HW153684   0.195   3.105   3.844 -0.9798 -0.2312  0.9736
13875SOL    HW253685   0.125   3.220   3.752 -0.5487  2.0745  3.4413
13876SOL     OW53686   1.851   1.039   5.728  0.7961  0.0887 -0.3827
13876SOL    HW153687   1.946   1.010   5.726  1.3819  1.9190 -0.6620
13876SOL    HW253688   1.846   1.136   5.753 -1.0253 -0.1120  0.1337
13877SOL     OW53689   3.514   8.575   5.436 -0.0661 -0.1774 -0.4602
13877SOL    HW153690   3.486   8.670   5.421  0.2487 -0.3769 -2.3605
13877SOL    HW253691   3.445   8.514   5.397 -1.3280 -0.7846  2.5959
13878SOL     OW53692   1.713   5.398   0.026  0.4480  0.2850 -0.0967
13878SOL    HW153693   1.621   5.438   0.025  0.6985  0.8583 -1.3016
13878SOL    HW253694   1.769   5.445   0.095  0.7414  2.0407 -1.4977
13879SOL     OW53695   1.532   6.013   1.865 -0.7961  0.1306  0.1775
13879SOL    HW153696   1.601   6.054   1.924 -0.1931 -1.6669  0.7484
13879SOL    HW253697   1.574   5.941   1.809 -2.2259 -1.0690  0.6169
13880SOL     OW53698   2.798   2.914   3.697  0.3802  0.0142  0.1730
13880SOL    HW153699   2.761   2.986   3.755 -0.3712 -0.1780 -0.0556
13880SOL    HW253700   2.897   2.922   3.691  0.3420  0.7243  0.5505
13881SOL     OW53701   9.658   1.866   6.957 -1.0449 -0.3845 -0.3840
13881SOL    HW153702   9.572   1.916   6.958 -0.7751  0.1044 -0.9162
13881SOL    HW253703   9.659   1.799   7.031 -2.0378 -0.6744 -0.6256
13882SOL     OW53704   0.448   2.480   2.804  0.4432  0.6380  0.1448
13882SOL    HW153705   0.449   2.546   2.879 -2.9763  0.5313  0.3528
13882SOL    HW253706   0.430   2.528   2.718  3.6259  0.6601 -0.5724
13883SOL     OW53707   0.820   1.300   2.816  0.2900  0.3993  0.1230
13883SOL    HW153708   0.762   1.381   2.828 -0.5437 -0.0571 -0.7831
13883SOL    HW253709   0.766   1.218   2.832  0.9236 -0.0073  0.1703
13884SOL     OW53710   6.172   4.405   2.352 -0.5630  0.2388  0.4338
13884SOL    HW153711   6.194   4.350   2.432 -0.0455  2.4531  1.8546
13884SOL    HW253712   6.181   4.502   2.374 -1.0837  0.9176 -2.1138
13885SOL     OW53713   8.216   3.708   9.924  0.2802  0.2775  0.0604
13885SOL    HW153714   8.205   3.715  10.023 -0.6724 -1.6785  0.1147
13885SOL    HW253715   8.151   3.641   9.888  1.2679  0.2730 -1.7586
13886SOL     OW53716   6.255   9.682   8.881  0.2712  0.3259  0.0610
13886SOL    HW153717   6.172   9.711   8.833 -0.0886 -0.1610  0.3789
13886SOL    HW253718   6.266   9.738   8.964  0.0844  0.1799  0.1844
13887SOL     OW53719   9.922   4.380   1.688  0.2546 -0.0464  0.6194
13887SOL    HW153720   9.925   4.388   1.588 -1.0750 -0.3957  0.5350
13887SOL    HW253721  10.015   4.370   1.724  0.7775  0.6198 -0.5362
13888SOL     OW53722   3.854   3.657   2.904 -0.0631  0.2174  0.0028
13888SOL    HW153723   3.875   3.579   2.845  1.6788  0.5992  0.0968
13888SOL    HW253724   3.791   3.719   2.856 -0.3192 -0.5101 -0.6228
13889SOL     OW53725   3.871   3.380   4.556  0.1282 -0.4477  0.0220
13889SOL    HW153726   3.937   3.450   4.584 -1.4235  0.5581  1.2499
13889SOL    HW253727   3.904   3.290   4.585  1.9820 -0.2101 -1.2723
13890SOL     OW53728   6.239   4.887   8.828  0.3407  0.1301 -0.5698
13890SOL    HW153729   6.339   4.893   8.819  0.3313 -0.0015 -0.7733
13890SOL    HW253730   6.202   4.977   8.850  0.4811  0.2254 -0.7255
13891SOL     OW53731   8.550   6.028   3.281 -0.3853 -0.9192  0.1466
13891SOL    HW153732   8.525   6.092   3.208 -1.5613 -1.9708 -0.3809
13891SOL    HW253733   8.623   5.968   3.249 -0.7316 -1.2199 -0.0793
13892SOL     OW53734   9.814   6.953   4.554 -0.8299  0.0746  0.2971
13892SOL    HW153735   9.810   6.858   4.586 -1.7656 -0.9187 -2.6712
13892SOL    HW253736   9.722   6.985   4.535 -0.2559  0.4099 -2.0153
13893SOL     OW53737   5.030   3.503   7.800  0.6746 -0.5212  0.0428
13893SOL    HW153738   5.002   3.486   7.894 -0.5435  0.2231 -0.1840
13893SOL    HW253739   5.005   3.424   7.743 -1.1766  0.2153 -0.1977
13894SOL     OW53740   4.202   2.063   3.735  0.2911 -0.2765  0.6120
13894SOL    HW153741   4.235   2.154   3.759 -1.1024  0.6817 -0.9562
13894SOL    HW253742   4.169   2.017   3.817 -0.5217  1.2813  1.1813
13895SOL     OW53743   2.897   9.526   3.697  0.0732 -0.1372  0.5238
13895SOL    HW153744   2.986   9.565   3.675 -0.8375  2.1335  0.7916
13895SOL    HW253745   2.825   9.590   3.672 -1.4961 -1.8348  0.5533
13896SOL     OW53746   4.524   7.794   1.403  0.1484  0.6272 -0.4324
13896SOL    HW153747   4.495   7.813   1.309 -0.5254 -2.0193 -0.8098
13896SOL    HW253748   4.495   7.701   1.429  3.2063  0.0507  1.2297
13897SOL     OW53749   3.049   1.910   5.548 -0.5936 -0.2709  0.0976
13897SOL    HW153750   3.061   1.819   5.509 -0.7898 -0.5718  0.7266
13897SOL    HW253751   3.126   1.931   5.608  0.6186  0.9162 -1.8132
13898SOL     OW53752   3.450   5.028   8.784  0.1652 -0.0408  0.2676
13898SOL    HW153753   3.438   4.947   8.841 -0.0459 -0.6041 -0.5632
13898SOL    HW253754   3.526   5.013   8.720 -0.5191 -0.0031 -0.5771
13899SOL     OW53755   0.689   6.095   6.660  0.0512  0.7346 -0.2013
13899SOL    HW153756   0.624   6.119   6.588 -1.7550 -0.5878  0.9393
13899SOL    HW253757   0.682   6.161   6.734 -1.3136 -0.3815  0.7046
13900SOL     OW53758   8.681   6.392   5.291 -0.2804  0.0919 -0.0851
13900SOL    HW153759   8.755   6.413   5.228 -0.8500  3.4882  0.3200
13900SOL    HW253760   8.709   6.412   5.384 -1.1891 -0.0532  0.2316
13901SOL     OW53761   0.551   3.494   1.560 -0.1318  0.2550 -0.3443
13901SOL    HW153762   0.497   3.414   1.588 -1.0449  0.4512 -1.4518
13901SOL    HW253763   0.495   3.551   1.499  0.4241  1.8829  0.6614
13902SOL     OW53764   4.206   0.339   9.320 -0.3711  0.7365  0.3356
13902SOL    HW153765   4.118   0.373   9.352  0.4123 -0.1458  3.6585
13902SOL    HW253766   4.260   0.415   9.283 -2.2300  1.3903 -1.0916
13903SOL     OW53767   9.058   4.980   1.963  0.9396 -0.3050 -0.3467
13903SOL    HW153768   8.978   4.934   1.925 -0.4739  0.3710  1.6758
13903SOL    HW253769   9.090   4.929   2.044  2.5460 -0.5439 -1.1081
13904SOL     OW53770   8.768   4.801   0.898 -0.0758  0.5601  0.2341
13904SOL    HW153771   8.760   4.900   0.906 -1.2603  0.4500  0.4151
13904SOL    HW253772   8.766   4.775   0.802 -1.1974  0.6006  0.2389
13905SOL     OW53773   8.127   7.912   6.732  0.0751 -0.0939  0.2366
13905SOL    HW153774   8.110   7.820   6.769 -1.1515  0.1621  0.3282
13905SOL    HW253775   8.077   7.922   6.646  1.1188  0.0983 -0.3519
13906SOL     OW53776   4.713   4.884   9.836  0.0232  0.6697 -0.4511
13906SOL    HW153777   4.798   4.891   9.784  1.0607  1.4027  1.3168
13906SOL    HW253778   4.733   4.858   9.930 -1.5104  3.0465  0.5842
13907SOL     OW53779   0.420   8.478   1.582 -0.6610  0.0657 -0.3171
13907SOL    HW153780   0.437   8.380   1.589  1.1890 -0.2180 -5.9047
13907SOL    HW253781   0.397   8.515   1.672  2.2018 -4.7696  2.6268
13908SOL     OW53782   9.236   1.383   2.816  0.4882 -0.2364  0.0007
13908SOL    HW153783   9.169   1.438   2.865  0.8381  0.2247 -0.0306
13908SOL    HW253784   9.195   1.349   2.731  0.7256  1.2354 -0.7314
13909SOL     OW53785   0.088   8.139   2.758 -0.0816  0.0253  0.0842
13909SOL    HW153786   0.120   8.096   2.843  0.7914  0.2083 -0.1505
13909SOL    HW253787   0.139   8.224   2.742  0.2072 -0.3354 -0.9570
13910SOL     OW53788   0.018   0.587   5.480  0.2757 -0.2403 -0.0422
13910SOL    HW153789  -0.082   0.577   5.483  0.4379 -1.5841  1.1974
13910SOL    HW253790   0.054   0.531   5.406  0.0679  0.7643 -0.9234
13911SOL     OW53791   3.867   2.062   0.648  0.0911  0.7096  0.2407
13911SOL    HW153792   3.803   1.987   0.630 -0.1501  0.9700  0.0243
13911SOL    HW253793   3.961   2.027   0.646 -0.0232  0.4085  0.1694
13912SOL     OW53794   3.584   4.931   1.086  0.3266 -0.6382 -0.6165
13912SOL    HW153795   3.663   4.881   1.052 -0.1380 -1.3590 -0.6420
13912SOL    HW253796   3.500   4.889   1.052 -0.0741  0.0559 -0.5046
13913SOL     OW53797   9.964   0.364   1.414 -0.0279  0.1165  0.1785
13913SOL    HW153798   9.911   0.424   1.474 -0.0306 -0.8508  1.1522
13913SOL    HW253799   9.909   0.283   1.391  0.3748 -0.0378 -0.2402
13914SOL     OW53800   8.123   9.931   8.272 -0.9722 -0.2431  0.2006
13914SOL    HW153801   8.095  10.002   8.208 -0.8050 -0.2424  0.1277
13914SOL    HW253802   8.179   9.863   8.225 -0.9992 -0.3375  0.3049
13915SOL     OW53803   3.592   4.684   9.933  0.3008 -0.2051 -1.0919
13915SOL    HW153804   3.495   4.702   9.921 -0.0317 -1.5605 -0.5547
13915SOL    HW253805   3.612   4.670  10.030  0.8322 -0.9761 -1.3054
13916SOL     OW53806   1.369   7.794   6.409 -0.3574  0.1958  0.2340
13916SOL    HW153807   1.333   7.841   6.489 -0.7841  1.3512 -0.6255
13916SOL    HW253808   1.464   7.822   6.394 -0.5369  0.6079 -0.1399
13917SOL     OW53809   1.586   2.688   1.189 -0.5725  0.0962  0.7988
13917SOL    HW153810   1.514   2.697   1.121 -0.9923 -2.1290  0.9376
13917SOL    HW253811   1.554   2.724   1.277 -0.7697  1.0221  0.3520
13918SOL     OW53812   0.864   7.181   1.219 -0.4666 -0.2097 -0.3545
13918SOL    HW153813   0.778   7.230   1.201 -0.8641 -0.5742  0.4985
13918SOL    HW253814   0.935   7.213   1.156 -1.8630 -1.6647 -2.7886
13919SOL     OW53815   3.500   5.147   0.894 -0.3330  0.4500  0.9454
13919SOL    HW153816   3.523   5.124   0.989 -1.6875  0.8534  1.3851
13919SOL    HW253817   3.576   5.122   0.835 -0.3598 -1.9551  1.8414
13920SOL     OW53818   2.049   5.910   8.392  0.0587 -0.1881 -0.5558
13920SOL    HW153819   2.092   5.996   8.418  0.2895 -0.6268  0.5196
13920SOL    HW253820   1.957   5.927   8.357 -0.0249  0.4625 -0.0137
13921SOL     OW53821   3.893   5.455   4.489 -0.8514  0.2776 -0.2717
13921SOL    HW153822   3.945   5.463   4.405 -1.4179  1.2692 -0.5310
13921SOL    HW253823   3.807   5.407   4.471  1.4531 -4.6009  0.8167
13922SOL     OW53824   7.663   7.463   6.580  0.2007  0.2678 -0.1868
13922SOL    HW153825   7.673   7.440   6.676  5.9443 -1.0216 -0.9421
13922SOL    HW253826   7.631   7.383   6.529 -3.9665  1.2670  0.6806
13923SOL     OW53827   8.355   1.007   8.398 -0.4612  0.0750  0.2762
13923SOL    HW153828   8.425   1.046   8.338  0.9462  0.6946  2.2727
13923SOL    HW253829   8.398   0.948   8.466 -1.9799 -0.3347  0.9065
13924SOL     OW53830   6.247   7.936   5.704  0.1938  0.1750 -0.0120
13924SOL    HW153831   6.152   7.964   5.689 -0.0661 -1.2916 -1.1657
13924SOL    HW253832   6.266   7.936   5.803 -0.4903  2.0401  0.1519
13925SOL     OW53833   2.337   8.788   8.128  0.0606 -0.4038  0.4236
13925SOL    HW153834   2.290   8.863   8.175  0.3912  0.6412 -0.8991
13925SOL    HW253835   2.325   8.704   8.181  0.0970  0.6643  2.1916
13926SOL     OW53836   3.912   6.591   1.568  0.1603  0.2933 -0.2919
13926SOL    HW153837   3.960   6.666   1.522  1.2490 -0.0306  0.2879
13926SOL    HW253838   3.963   6.506   1.555 -0.4318 -0.1148  0.0624
13927SOL     OW53839   7.625   4.818   8.424 -0.1424 -0.1205 -0.0360
13927SOL    HW153840   7.675   4.850   8.343  1.6065 -2.8285 -0.0818
13927SOL    HW253841   7.686   4.822   8.504 -1.2911  0.7886  0.8207
13928SOL     OW53842   7.591   5.525   0.990  0.1808  0.3701 -0.1991
13928SOL    HW153843   7.666   5.565   1.042  0.9358 -1.2787 -0.0048
13928SOL    HW253844   7.580   5.574   0.903  0.7904  1.2747  0.2374
13929SOL     OW53845   3.236   4.265   2.584  0.3685 -0.0616  0.3740
13929SOL    HW153846   3.153   4.215   2.561  0.4240 -0.5948  1.3040
13929SOL    HW253847   3.246   4.344   2.524 -0.6759 -0.1411  0.0962
13930SOL     OW53848   9.318   3.813   3.259 -0.2561  0.0991 -0.2978
13930SOL    HW153849   9.224   3.797   3.230 -0.2977  2.2531 -1.4952
13930SOL    HW253850   9.349   3.738   3.318 -2.3631 -1.1279 -0.7174
13931SOL     OW53851   8.883   9.768   1.294  0.0162  0.2062  0.2352
13931SOL    HW153852   8.808   9.732   1.239  1.4565 -1.7774 -0.4910
13931SOL    HW253853   8.970   9.745   1.250  1.1169  0.8856  2.0087
13932SOL     OW53854   6.805   0.338   4.671 -0.5435 -0.3606  0.0085
13932SOL    HW153855   6.873   0.371   4.738 -1.6348 -0.9340  1.4333
13932SOL    HW253856   6.834   0.364   4.579  1.8200 -0.9756  0.5461
13933SOL     OW53857   0.102   2.930   3.206  0.3075  0.3079  0.6776
13933SOL    HW153858   0.029   2.945   3.272 -0.1739  1.1021 -0.0293
13933SOL    HW253859   0.110   2.832   3.187 -1.5899  0.3311 -0.3871
13934SOL     OW53860   2.013   4.916   7.540  0.1473 -0.0345  0.0953
13934SOL    HW153861   2.032   4.904   7.443  0.0129 -1.5110  0.2422
13934SOL    HW253862   2.068   4.991   7.576  0.3083  0.4161 -1.0852
13935SOL     OW53863   2.846   1.204   6.439  0.1786 -0.4452 -0.1461
13935SOL    HW153864   2.888   1.202   6.348  0.2452 -0.4891 -0.1142
13935SOL    HW253865   2.756   1.248   6.433 -0.4556 -1.7623 -0.5063
13936SOL     OW53866   1.496   4.703   9.832  0.5625 -0.3641 -0.0138
13936SOL    HW153867   1.432   4.640   9.788  0.6544 -0.3722 -0.1386
13936SOL    HW253868   1.580   4.708   9.777 -0.0562  1.0812 -0.8414
13937SOL     OW53869   3.365   4.060   0.783  0.6427  0.5852 -0.3518
13937SOL    HW153870   3.358   3.972   0.829  1.5847 -0.1844 -1.6689
13937SOL    HW253871   3.282   4.114   0.801  0.2847 -0.3577  0.8569
13938SOL     OW53872   3.414   4.105   2.431 -0.1635 -0.2130  0.0652
13938SOL    HW153873   3.340   4.080   2.492 -0.0511  1.6435  0.9833
13938SOL    HW253874   3.401   4.199   2.398  1.0664 -0.3281 -0.8133
13939SOL     OW53875   2.556   6.689   8.196 -0.4944 -0.1275 -0.4021
13939SOL    HW153876   2.543   6.697   8.097  0.9399 -0.4765 -0.6318
13939SOL    HW253877   2.551   6.593   8.223  0.9719 -0.2351 -0.4347
13940SOL     OW53878   9.667   7.670   6.608 -0.0647  0.0464 -0.3024
13940SOL    HW153879   9.612   7.598   6.649 -0.6632  1.6277  1.7787
13940SOL    HW253880   9.690   7.646   6.514 -1.9018 -1.9338 -0.2703
13941SOL     OW53881   9.651   2.574   9.366  0.0596 -0.2206  0.6267
13941SOL    HW153882   9.672   2.499   9.428  1.0503 -0.4648 -0.0005
13941SOL    HW253883   9.552   2.592   9.368 -0.1946 -1.5798  0.7319
13942SOL     OW53884   6.961   5.854   1.963 -0.5449  0.1900  0.1135
13942SOL    HW153885   7.025   5.901   1.903 -1.3339  1.0755 -0.0520
13942SOL    HW253886   6.994   5.762   1.983 -0.3651 -0.1690 -1.7995
13943SOL     OW53887   8.601   9.247   4.641  0.4274 -0.0983 -0.1830
13943SOL    HW153888   8.531   9.230   4.572  0.4667 -1.5742  0.1240
13943SOL    HW253889   8.563   9.304   4.714  0.2569  1.0973 -1.1880
13944SOL     OW53890   6.828   5.939   2.217  0.2174 -0.3290 -0.0149
13944SOL    HW153891   6.857   5.915   2.125  0.1231  0.4578 -0.2505
13944SOL    HW253892   6.835   6.037   2.230 -0.3511 -0.3638  0.6162
13945SOL     OW53893   3.935   3.618   2.243  0.0733 -0.4617  0.5821
13945SOL    HW153894   4.007   3.678   2.278  0.3154  0.0585 -0.7577
13945SOL    HW253895   3.848   3.641   2.285  0.1905  0.7433  0.1688
13946SOL     OW53896   7.862   4.137   0.774 -0.5017  0.1957 -0.0914
13946SOL    HW153897   7.844   4.174   0.865 -0.7876  1.3064 -0.5919
13946SOL    HW253898   7.785   4.156   0.714 -0.4404 -0.7896 -0.4994
13947SOL     OW53899   3.098   3.676   2.481 -0.2629 -0.5218 -0.1191
13947SOL    HW153900   3.080   3.647   2.387 -2.2274  0.2078  0.0168
13947SOL    HW253901   3.075   3.602   2.544 -0.3532 -0.4823 -0.1066
13948SOL     OW53902   3.435   4.752   0.162  0.2868 -0.1295 -0.0536
13948SOL    HW153903   3.523   4.706   0.156 -0.1303 -1.0945  1.0462
13948SOL    HW253904   3.394   4.759   0.072  1.2953 -0.0396 -0.5120
13949SOL     OW53905   1.906   0.780   2.442  0.1324 -0.2622  0.4735
13949SOL    HW153906   1.852   0.831   2.509  0.0793 -0.0055  0.2392
13949SOL    HW253907   1.953   0.845   2.382  1.0247 -0.4816  0.9319
13950SOL     OW53908   3.981   6.729   3.137  0.5705  0.1473 -0.0988
13950SOL    HW153909   3.992   6.641   3.183 -3.0072 -0.3409 -0.0052
13950SOL    HW253910   3.996   6.717   3.039  1.9050 -0.1727  0.1406
13951SOL     OW53911   6.191   8.038   4.610  0.3395  0.2031 -0.3952
13951SOL    HW153912   6.112   8.097   4.593  1.9866  2.1748 -1.4001
13951SOL    HW253913   6.262   8.058   4.543  1.8369 -1.3067  0.7145
13952SOL     OW53914   6.221   0.663   6.109  0.0271 -0.0923  0.0219
13952SOL    HW153915   6.144   0.726   6.108 -0.1100 -0.2503 -2.0235
13952SOL    HW253916   6.292   0.695   6.047  1.3373 -0.3059  1.3698
13953SOL     OW53917   2.118   4.323   0.126 -0.2588 -0.5688 -0.0091
13953SOL    HW153918   2.142   4.318   0.029 -0.8907 -0.9214 -0.1487
13953SOL    HW253919   2.202   4.332   0.181  0.1438 -1.0969 -0.5351
13954SOL     OW53920   8.230   3.687   2.895 -0.4067 -0.6437 -0.2641
13954SOL    HW153921   8.306   3.625   2.911 -2.4132 -2.4754  2.6811
13954SOL    HW253922   8.265   3.775   2.863  2.8608 -1.6804  0.2905
13955SOL     OW53923   3.944   8.222   8.803 -0.5079 -0.0299  0.4554
13955SOL    HW153924   3.996   8.205   8.719  1.8414  2.1182  1.3887
13955SOL    HW253925   4.002   8.205   8.882 -2.5420 -1.5305  1.6544
13956SOL     OW53926   3.008   3.443   9.224  0.3082 -0.0420  0.6427
13956SOL    HW153927   2.930   3.466   9.281 -0.9808  2.2825 -1.9773
13956SOL    HW253928   3.089   3.493   9.256 -0.1149  0.3107  1.1694
13957SOL     OW53929   4.974   8.822   5.578  0.3235  0.1419 -0.0109
13957SOL    HW153930   4.885   8.817   5.535  0.3926  1.6719 -0.3925
13957SOL    HW253931   4.982   8.753   5.649 -1.5694  0.6917  0.7544
13958SOL     OW53932   1.806   9.495   4.076 -0.2675  0.1894  0.0193
13958SOL    HW153933   1.757   9.581   4.093  0.6408  0.5038  1.1635
13958SOL    HW253934   1.810   9.443   4.161 -0.0594 -0.5899 -0.4675
13959SOL     OW53935   1.050   8.498   2.322  0.7152  0.1118  0.2719
13959SOL    HW153936   1.129   8.559   2.320  0.4419  0.5210  1.4303
13959SOL    HW253937   0.991   8.523   2.398 -1.4824  1.0089 -1.6522
13960SOL     OW53938   3.934   5.159   3.105  0.1809  0.1190  0.1171
13960SOL    HW153939   4.027   5.172   3.070  0.4923  0.4154  1.0484
13960SOL    HW253940   3.871   5.217   3.054  0.4510 -0.2975 -0.7188
13961SOL     OW53941   0.175   0.377   4.957  0.0441  0.2641  0.4058
13961SOL    HW153942   0.121   0.314   4.902 -1.3902  0.2215  1.8280
13961SOL    HW253943   0.270   0.345   4.962  0.0412 -0.0558 -1.4879
13962SOL     OW53944   9.323   4.416   7.051 -0.3139  0.8114 -0.3490
13962SOL    HW153945   9.292   4.336   7.102 -0.6522  1.5290  0.5788
13962SOL    HW253946   9.422   4.411   7.037 -0.2159  0.6245  0.4027
13963SOL     OW53947   6.454   9.687   4.171  0.2260 -0.3096  0.3581
13963SOL    HW153948   6.520   9.752   4.134  0.8468 -1.5752 -0.7710
13963SOL    HW253949   6.484   9.658   4.262  2.2613 -2.3461 -0.9262
13964SOL     OW53950   2.403   6.324   6.332  0.4379  0.3656  0.5377
13964SOL    HW153951   2.469   6.268   6.381 -0.4083  0.6365  2.0067
13964SOL    HW253952   2.437   6.418   6.325  1.4968 -0.1293 -1.2332
13965SOL     OW53953   1.228   2.052   3.855  0.0460  0.4667 -0.5489
13965SOL    HW153954   1.194   2.076   3.946 -1.9242 -1.1334 -0.8444
13965SOL    HW253955   1.155   2.062   3.788  0.4263 -1.9612 -1.3689
13966SOL     OW53956   9.680   2.343   0.191  0.5995 -0.0307 -0.3615
13966SOL    HW153957   9.614   2.412   0.160 -0.8338 -1.3855 -0.4143
13966SOL    HW253958   9.642   2.294   0.270  2.0666 -0.0120  0.3660
13967SOL     OW53959   4.933   8.890   7.430  0.5451 -0.2235  0.0708
13967SOL    HW153960   4.871   8.865   7.355  0.2923 -1.3944  0.6526
13967SOL    HW253961   5.026   8.895   7.396  0.2866  0.3419 -0.5571
13968SOL     OW53962   5.531   1.565   5.540 -0.4959  0.6797  0.0165
13968SOL    HW153963   5.624   1.591   5.516 -0.5917  0.2013 -0.8955
13968SOL    HW253964   5.510   1.597   5.632  0.0243  2.1568 -0.3718
13969SOL     OW53965   0.899   1.540   6.918 -0.0015  0.0295 -0.6071
13969SOL    HW153966   0.986   1.495   6.942 -0.2563 -1.0233 -1.6444
13969SOL    HW253967   0.877   1.521   6.823 -2.3658 -1.3473  0.1896
13970SOL     OW53968   4.101   1.619   0.411  0.5995 -0.8044  0.1468
13970SOL    HW153969   4.095   1.653   0.317  2.1102  0.0408  0.3337
13970SOL    HW253970   4.195   1.629   0.444  0.3437 -2.2011  1.3393
13971SOL     OW53971   9.254   6.232   6.673  0.6595  0.0435 -0.4103
13971SOL    HW153972   9.247   6.319   6.625 -1.4955  0.6347  0.8924
13971SOL    HW253973   9.171   6.178   6.656  0.6351 -0.4584  1.2149
13972SOL     OW53974   8.512   2.251   3.474  0.0263  0.0121  0.6628
13972SOL    HW153975   8.579   2.204   3.531  1.8088 -0.6994 -1.9099
13972SOL    HW253976   8.438   2.188   3.451  1.7248 -1.1938 -1.6665
13973SOL     OW53977   2.073   3.388   8.851  0.3796  0.0361  0.0286
13973SOL    HW153978   1.973   3.382   8.852  0.2433  1.5418 -1.9078
13973SOL    HW253979   2.105   3.435   8.933 -0.6135  0.8826 -0.0699
13974SOL     OW53980   6.820   7.527   5.449  0.4521  0.2581  0.0295
13974SOL    HW153981   6.891   7.515   5.518 -0.0591  3.1214  1.1332
13974SOL    HW253982   6.732   7.494   5.485  0.4375  0.5225  0.2348
13975SOL     OW53983   9.720   1.855   9.841  0.5589 -0.6616  0.4740
13975SOL    HW153984   9.696   1.827   9.934 -0.1540 -0.6317  0.3009
13975SOL    HW253985   9.794   1.797   9.807 -1.5358 -2.9854 -0.2318
13976SOL     OW53986   8.408   4.037   1.043  0.9789  0.3556 -0.1160
13976SOL    HW153987   8.394   3.978   1.122  0.6817 -0.5103 -0.8076
13976SOL    HW253988   8.497   4.016   1.002  0.9822  0.5637 -0.2159
13977SOL     OW53989   1.153   7.836   1.561  0.3613 -0.1160 -0.1014
13977SOL    HW153990   1.206   7.806   1.640  0.8257  0.3611 -0.2246
13977SOL    HW253991   1.092   7.762   1.531 -0.1094 -0.1518  0.9419
13978SOL     OW53992   2.503   8.466   7.724  0.1787  0.3328  0.5282
13978SOL    HW153993   2.470   8.392   7.666 -1.7155  2.3208 -1.0143
13978SOL    HW253994   2.574   8.517   7.677 -0.3110  1.0339  0.5342
13979SOL     OW53995   6.057   9.268   9.158  0.0627 -0.4225  0.3325
13979SOL    HW153996   6.124   9.210   9.111 -0.6414 -1.9561  1.1776
13979SOL    HW253997   6.046   9.354   9.108  1.2611 -0.9430 -0.8454
13980SOL     OW53998   1.795   3.805   4.620 -0.4858 -0.0441 -0.3808
13980SOL    HW153999   1.816   3.876   4.687 -0.6544 -0.6040  0.2718
13980SOL    HW254000   1.726   3.838   4.556 -2.2440 -0.3981  1.2856
13981SOL     OW54001   2.975   0.031  10.003 -0.9687  0.8747  0.6169
13981SOL    HW154002   2.953   0.031   9.906 -1.0027  2.5647  0.6208
13981SOL    HW254003   2.958   0.121  10.042  0.8910  0.7715  1.7663
13982SOL     OW54004   2.038   8.650   7.703  0.0720  0.7392 -0.4380
13982SOL    HW154005   2.093   8.699   7.771 -0.9266  0.6777  0.4261
13982SOL    HW254006   1.991   8.716   7.645 -0.2541  0.7986 -0.1067
13983SOL     OW54007   8.182   9.284   2.634  0.0988  0.4074  0.2835
13983SOL    HW154008   8.226   9.214   2.577 -1.3829 -0.7467  0.5080
13983SOL    HW254009   8.198   9.263   2.730  2.1755  2.0761  0.3297
13984SOL     OW54010   1.740   5.573   2.184  0.5327  0.2350 -0.0648
13984SOL    HW154011   1.722   5.603   2.278 -0.5388  0.9087 -0.4844
13984SOL    HW254012   1.686   5.490   2.165  0.6734  0.1563 -0.1226
13985SOL     OW54013   2.549   5.365   2.362 -0.2376 -0.0723 -0.0912
13985SOL    HW154014   2.635   5.326   2.328  0.3466  0.6230  0.5714
13985SOL    HW254015   2.476   5.347   2.296  0.6184  0.1682 -1.1195
13986SOL     OW54016   0.622   8.994   2.282 -0.2125  0.4073  0.3689
13986SOL    HW154017   0.689   8.921   2.295  1.0978  1.2778 -1.3849
13986SOL    HW254018   0.569   8.978   2.199 -0.0365  1.3736  0.0665
13987SOL     OW54019   2.836   3.105   3.200  0.6391 -0.6173  0.1053
13987SOL    HW154020   2.754   3.139   3.154  0.7833 -1.8159 -1.0764
13987SOL    HW254021   2.858   3.164   3.277 -1.1284 -0.0707  0.2135
13988SOL     OW54022   3.464   4.696   0.926  0.4492  0.2820  0.0530
13988SOL    HW154023   3.546   4.643   0.949 -0.4383 -0.8289  0.6962
13988SOL    HW254024   3.438   4.678   0.831 -0.3677 -1.1474  0.5392
13989SOL     OW54025   1.186   2.708   8.203 -0.5526  0.1117  0.3566
13989SOL    HW154026   1.206   2.692   8.299 -1.0658 -0.8711  0.3016
13989SOL    HW254027   1.159   2.622   8.159 -1.3462  0.7418 -0.4151
13990SOL     OW54028   5.841   8.037   6.717 -0.2291 -0.0241  0.1449
13990SOL    HW154029   5.813   7.989   6.634 -0.0250  0.4615 -0.2087
13990SOL    HW254030   5.761   8.076   6.761 -0.1571  1.1630 -0.7397
13991SOL     OW54031   5.629   2.314   1.317  0.5810 -0.2188  0.1387
13991SOL    HW154032   5.711   2.362   1.350  0.0056  1.0960 -0.3188
13991SOL    HW254033   5.618   2.332   1.219 -0.2860 -0.3589  0.2101
13992SOL     OW54034   2.086   9.973   7.214  0.4559  0.7828 -0.4300
13992SOL    HW154035   2.130  10.043   7.271 -0.2903 -0.0450  1.1846
13992SOL    HW254036   1.987   9.984   7.219  0.3680  0.3180 -1.1080
13993SOL     OW54037   6.792   1.741   6.078  0.3764  0.2342 -0.1073
13993SOL    HW154038   6.847   1.705   6.003  0.3010 -0.3194  0.1058
13993SOL    HW254039   6.737   1.668   6.119  0.0480  0.6296  0.1712
13994SOL     OW54040   2.241   5.421   0.642  0.4937 -0.4039  0.0628
13994SOL    HW154041   2.150   5.400   0.607 -0.3886  0.6297  1.6748
13994SOL    HW254042   2.250   5.390   0.737  0.9716  1.5903  0.7130
13995SOL     OW54043   4.208   6.588   9.305  0.3088 -0.0526 -0.2600
13995SOL    HW154044   4.146   6.665   9.325  2.7270  1.8445  0.1965
13995SOL    HW254045   4.188   6.512   9.366 -2.4041  0.0311 -0.9818
13996SOL     OW54046   2.172   9.931   1.496 -0.5412 -0.2989  0.2890
13996SOL    HW154047   2.240   9.994   1.537 -0.4312  0.9009 -1.6865
13996SOL    HW254048   2.209   9.839   1.496  0.7287  0.1964  0.0631
13997SOL     OW54049   5.217   3.848   0.574  0.1070  0.3190 -0.3106
13997SOL    HW154050   5.243   3.760   0.533  0.0827 -0.3560  1.0931
13997SOL    HW254051   5.300   3.899   0.599  0.1209 -0.5515  1.4711
13998SOL     OW54052   3.140   8.645   9.094 -0.2013  0.1066  0.4037
13998SOL    HW154053   3.220   8.593   9.123 -0.5612  0.1706  1.5271
13998SOL    HW254054   3.143   8.657   8.995  0.6021 -0.8497  0.2965
13999SOL     OW54055   7.472   3.874   2.280  0.3897  0.3385  0.5378
13999SOL    HW154056   7.430   3.862   2.190 -0.1165  3.1041  0.3860
13999SOL    HW254057   7.400   3.879   2.350  0.6495  1.1551  0.7450
14000SOL     OW54058   4.869   3.667   7.411  0.3100  0.6930  0.2523
14000SOL    HW154059   4.876   3.741   7.344 -2.7693  0.4209 -0.4560
14000SOL    HW254060   4.944   3.602   7.396 -0.2721  0.6660 -2.9512
14001SOL     OW54061   0.204   4.400   1.747 -1.2125 -0.7066  0.0803
14001SOL    HW154062   0.228   4.485   1.700 -2.7518 -0.9175 -1.1469
14001SOL    HW254063   0.285   4.362   1.791  0.1246 -0.0982 -1.7815
14002SOL     OW54064   0.491   3.312   1.750  0.3751  0.1864 -0.0726
14002SOL    HW154065   0.435   3.386   1.787 -1.0518 -0.4856 -0.8666
14002SOL    HW254066   0.521   3.253   1.825  0.4045  0.7983  0.4052
14003SOL     OW54067   5.191   7.763   3.564 -0.1391 -0.1458  0.2953
14003SOL    HW154068   5.278   7.752   3.516  0.5223  1.3078  1.1289
14003SOL    HW254069   5.194   7.712   3.650 -1.2597 -2.6048 -1.0734
14004SOL     OW54070   7.198   8.386   7.053  0.7219 -0.0492  0.6263
14004SOL    HW154071   7.119   8.446   7.068  0.3688  0.0291 -1.4014
14004SOL    HW254072   7.166   8.291   7.046  1.1716 -0.4055  2.8316
14005SOL     OW54073   4.665   1.304   4.622 -0.2477 -0.0877  0.2664
14005SOL    HW154074   4.632   1.387   4.578  0.2771  0.1722  0.3650
14005SOL    HW254075   4.638   1.303   4.718  1.2649  0.8057  0.7076
14006SOL     OW54076   9.319   2.612   8.704  0.3801 -0.7265  0.1189
14006SOL    HW154077   9.275   2.674   8.639 -0.4158 -2.4995 -1.0731
14006SOL    HW254078   9.370   2.666   8.771  1.1007  1.1507 -1.8684
14007SOL     OW54079   9.125   0.823   3.000  0.0727 -0.0397  0.9693
14007SOL    HW154080   9.177   0.901   3.035 -0.2031  0.1611  0.9330
14007SOL    HW254081   9.168   0.789   2.917 -0.0647  0.3628  0.7321
14008SOL     OW54082   1.318   7.288   0.021 -0.3935  0.0116  0.5756
14008SOL    HW154083   1.314   7.352  -0.055  0.4966 -0.5871  0.0175
14008SOL    HW254084   1.229   7.283   0.066 -0.2535  2.2546  1.1376
14009SOL     OW54085   6.530   7.562   4.842 -0.5553 -0.3228  0.1842
14009SOL    HW154086   6.608   7.584   4.783  1.3358 -1.9563  2.0075
14009SOL    HW254087   6.541   7.609   4.930 -0.1015 -2.8931  1.5261
14010SOL     OW54088   1.777   6.937   0.323 -0.0378 -0.4220 -0.1235
14010SOL    HW154089   1.826   6.924   0.409 -0.0426 -0.2084 -0.0885
14010SOL    HW254090   1.682   6.909   0.334 -0.3022  0.6116  0.2426
14011SOL     OW54091   7.901   3.165   9.217  0.8101 -0.6368  0.2124
14011SOL    HW154092   7.944   3.103   9.284 -0.0603  0.4549  1.8241
14011SOL    HW254093   7.950   3.160   9.130  2.1404 -1.8901  1.0166
14012SOL     OW54094   9.895   4.065   0.572  0.0416  0.2200  0.1911
14012SOL    HW154095   9.854   3.990   0.519 -2.0010  1.7597 -0.4530
14012SOL    HW254096   9.991   4.043   0.590  0.6202 -0.7004 -3.5169
14013SOL     OW54097   1.425   9.793   3.378 -0.1115 -0.0032  0.0179
14013SOL    HW154098   1.451   9.877   3.426  1.5149 -0.1453 -0.5700
14013SOL    HW254099   1.448   9.802   3.281  0.4729 -1.2687  0.0213
14014SOL     OW54100   3.804   8.576   1.677 -0.5301  0.2805  0.4102
14014SOL    HW154101   3.756   8.662   1.696  0.8368  1.0448  0.4657
14014SOL    HW254102   3.837   8.536   1.763 -0.7498 -0.0477  0.3412
14015SOL     OW54103   9.777   7.839   9.952  0.8569  0.4288 -0.0923
14015SOL    HW154104   9.858   7.892   9.927  1.4139 -0.6217 -0.5588
14015SOL    HW254105   9.804   7.761  10.008  0.4074 -0.9486 -1.7412
14016SOL     OW54106   1.648   8.729   5.919 -0.0223  0.2513  0.2211
14016SOL    HW154107   1.595   8.795   5.866 -2.0222  0.8284  2.8055
14016SOL    HW254108   1.643   8.639   5.875 -1.3995  0.7728 -0.7382
14017SOL     OW54109   0.565   7.727   7.063 -0.0381  0.2492 -0.2876
14017SOL    HW154110   0.574   7.629   7.081  1.4922  0.3566 -0.3520
14017SOL    HW254111   0.483   7.762   7.107  0.1788 -0.7892  0.9682
14018SOL     OW54112   2.371   0.195   0.873 -0.4564  0.1095 -0.1310
14018SOL    HW154113   2.291   0.184   0.932 -0.7318  0.9145 -0.3441
14018SOL    HW254114   2.376   0.290   0.841  2.2513  0.8303  2.2648
14019SOL     OW54115   1.612   1.415   7.901 -0.0398  0.9236 -0.7961
14019SOL    HW154116   1.579   1.439   7.810  0.7337 -0.9289 -1.5897
14019SOL    HW254117   1.558   1.338   7.937 -0.0753  1.3778  0.1526
14020SOL     OW54118   0.055   6.742   8.673 -1.0180  0.0277  0.2265
14020SOL    HW154119   0.133   6.792   8.711 -2.0856  0.3210  2.1345
14020SOL    HW254120   0.065   6.733   8.574  0.3370  1.9863  0.1662
14021SOL     OW54121   0.925   4.254   3.810  0.4870 -0.5213  0.0818
14021SOL    HW154122   1.009   4.230   3.858  1.6869  1.2534 -1.0969
14021SOL    HW254123   0.939   4.337   3.757 -2.3923  0.5123  0.8518
14022SOL     OW54124   2.789   2.005   6.433  0.4216 -0.0603  0.1650
14022SOL    HW154125   2.881   1.971   6.413 -0.2622 -2.7528  1.5047
14022SOL    HW254126   2.727   1.929   6.448 -2.1642  1.7165 -1.0871
14023SOL     OW54127   5.339   6.041   1.434  0.0543 -0.4793 -0.2710
14023SOL    HW154128   5.297   6.074   1.518  0.8182  0.5116 -0.2864
14023SOL    HW254129   5.374   6.118   1.381  2.0516 -1.3055 -0.1903
14024SOL     OW54130   2.706   8.126   7.598  0.3055  0.0975 -0.2121
14024SOL    HW154131   2.758   8.138   7.682 -0.1902 -1.5628  0.3448
14024SOL    HW254132   2.610   8.151   7.614  0.2163 -0.1910 -0.2974
14025SOL     OW54133   9.666   2.703   1.122  0.0627  0.6336  0.1768
14025SOL    HW154134   9.619   2.692   1.035  3.7490 -1.3234 -1.7285
14025SOL    HW254135   9.691   2.799   1.135  1.0816  0.6939 -1.8960
14026SOL     OW54136   3.546   2.672   4.175 -0.5332 -0.1297 -0.0991
14026SOL    HW154137   3.643   2.681   4.201 -1.1544  0.4471  2.1419
14026SOL    HW254138   3.529   2.578   4.146  0.0208 -1.1304  2.6269
14027SOL     OW54139   6.436   0.852   8.990  0.0574  0.2400 -0.5761
14027SOL    HW154140   6.340   0.873   9.012  0.5218  0.6960  1.0854
14027SOL    HW254141   6.460   0.895   8.902 -1.3758 -0.2548 -1.2302
14028SOL     OW54142   7.024   8.229   8.429  0.0994  0.5631 -0.2757
14028SOL    HW154143   7.047   8.325   8.444  1.5975  0.0163  1.1627
14028SOL    HW254144   7.022   8.181   8.517 -1.4608 -0.5465 -0.8958
14029SOL     OW54145   3.168   0.483   1.037  0.1248 -0.1715  0.1624
14029SOL    HW154146   3.172   0.414   0.965  3.1368  1.3863 -1.2582
14029SOL    HW254147   3.210   0.447   1.120 -0.6714 -0.9266  0.2488
14030SOL     OW54148   9.534   4.354   3.641  0.0823  0.0683  0.0967
14030SOL    HW154149   9.623   4.342   3.685 -1.2048 -1.5318  2.3276
14030SOL    HW254150   9.542   4.332   3.544  3.0014  3.7863 -0.6655
14031SOL     OW54151   9.482   7.254   3.465 -0.0259 -0.3086 -0.0533
14031SOL    HW154152   9.397   7.231   3.417  0.6354 -0.3177 -1.2390
14031SOL    HW254153   9.504   7.350   3.450  1.4131 -0.8659 -1.7608
14032SOL     OW54154   7.288   5.691   7.812 -0.7052  0.1389  0.3623
14032SOL    HW154155   7.308   5.613   7.872  0.5398 -0.1548 -0.4084
14032SOL    HW254156   7.194   5.721   7.826 -1.1364 -1.3864  0.8045
14033SOL     OW54157   7.072   5.229   0.375 -0.2216  0.5157 -0.0315
14033SOL    HW154158   7.104   5.229   0.281 -0.3994  0.2094 -0.0959
14033SOL    HW254159   7.000   5.160   0.385  0.9549 -0.6292  0.7172
14034SOL     OW54160   8.259   9.164   9.756 -0.2204  0.0502 -0.6905
14034SOL    HW154161   8.328   9.230   9.785  0.8147 -1.4834  0.3969
14034SOL    HW254162   8.214   9.197   9.672 -0.4213  2.5746  0.3788
14035SOL     OW54163   0.000   1.598   0.677 -0.0820  0.6025 -0.0309
14035SOL    HW154164   0.031   1.692   0.670  1.3033  0.2732  1.1901
14035SOL    HW254165  -0.036   1.582   0.769  1.0632 -0.4271  0.2574
14036SOL     OW54166   3.638   4.306   4.762 -0.2329  0.6514  0.5819
14036SOL    HW154167   3.636   4.303   4.662  0.6937  1.0913  0.5444
14036SOL    HW254168   3.600   4.221   4.799  0.9174 -0.2066 -0.1664
14037SOL     OW54169   1.197   8.843   8.407  0.7097  0.3488 -0.2929
14037SOL    HW154170   1.141   8.904   8.351 -0.9303 -2.1591 -1.4473
14037SOL    HW254171   1.161   8.840   8.500  1.1113  1.5222 -0.0912
14038SOL     OW54172   5.368   4.388   1.592 -0.6747 -0.4068  0.6990
14038SOL    HW154173   5.319   4.375   1.506  0.6591  0.0284 -0.1486
14038SOL    HW254174   5.333   4.469   1.639 -0.2083  0.4013 -0.3205
14039SOL     OW54175   0.535   0.679   0.587 -0.3645  0.2826  0.1052
14039SOL    HW154176   0.559   0.760   0.640  2.1399 -0.4101  0.0892
14039SOL    HW254177   0.521   0.602   0.649  0.9996 -0.1554 -0.1247
14040SOL     OW54178   0.836   1.126   9.126 -0.2159 -0.2591  0.1454
14040SOL    HW154179   0.813   1.094   9.218 -0.6494  0.6001  0.3456
14040SOL    HW254180   0.784   1.209   9.106  0.8292  0.2767 -0.3880
14041SOL     OW54181   8.883   7.711   0.746 -0.2707 -0.0502 -0.3347
14041SOL    HW154182   8.828   7.780   0.792 -0.7489  0.0511 -1.0751
14041SOL    HW254183   8.834   7.624   0.745  0.4687 -0.5139  0.9069
14042SOL     OW54184   8.843   4.758   2.969  0.0796  0.2646  0.0194
14042SOL    HW154185   8.766   4.780   2.909 -0.1117 -0.3471  0.0382
14042SOL    HW254186   8.842   4.819   3.048  0.6618  1.4521 -0.8761
14043SOL     OW54187   0.234   1.240   5.729  0.5228 -0.2252 -0.0028
14043SOL    HW154188   0.144   1.278   5.708  1.3668  2.0160  0.3492
14043SOL    HW254189   0.235   1.208   5.824 -0.4019 -1.8459 -0.5093
14044SOL     OW54190   2.080   3.727   3.159 -0.3740 -0.2865  0.5209
14044SOL    HW154191   2.121   3.664   3.094  2.3814  1.2486  0.7075
14044SOL    HW254192   2.080   3.685   3.250  1.0989 -0.2010  0.5758
14045SOL     OW54193   4.464   9.957   5.657  0.3849 -0.1424  0.0903
14045SOL    HW154194   4.513  10.021   5.598 -1.2027  1.8160  0.8086
14045SOL    HW254195   4.519   9.937   5.738  1.0195  0.0484 -0.2886
14046SOL     OW54196   1.269   5.145   2.153  0.2691 -0.0677  0.5943
14046SOL    HW154197   1.185   5.171   2.200 -0.2625 -1.2693  0.3503
14046SOL    HW254198   1.287   5.209   2.078 -0.4639  0.1654  0.6090
14047SOL     OW54199   5.460   1.620   0.908 -0.6723  0.1726  0.9944
14047SOL    HW154200   5.521   1.689   0.949  1.5324 -0.3238 -1.3205
14047SOL    HW254201   5.469   1.534   0.959 -0.1103  0.3647  1.2280
14048SOL     OW54202   3.097   3.588   7.122  0.0703 -0.2764 -0.4304
14048SOL    HW154203   3.016   3.639   7.149 -0.2444 -1.0660  0.1098
14048SOL    HW254204   3.104   3.588   7.022 -0.4378  0.0229 -0.4676
14049SOL     OW54205   8.500   6.593   2.316  0.0321 -0.0394  0.1330
14049SOL    HW154206   8.483   6.688   2.291 -3.4297 -0.0087  2.3758
14049SOL    HW254207   8.574   6.588   2.382  1.8081  0.8355 -1.7384
14050SOL     OW54208   5.479   0.025   6.086  0.1695 -0.3519 -0.2466
14050SOL    HW154209   5.577   0.014   6.105 -0.2243 -0.2515  1.9487
14050SOL    HW254210   5.450  -0.047   6.022  1.3790 -1.2388  0.1655
14051SOL     OW54211   4.098   4.533   7.301  0.4213 -0.1399  0.4725
14051SOL    HW154212   4.112   4.570   7.208  0.3402 -1.8353 -0.2201
14051SOL    HW254213   4.093   4.434   7.297  1.8996 -0.3227  2.4880
14052SOL     OW54214   1.531   1.117   3.791  0.1712  0.0310 -0.7609
14052SOL    HW154215   1.521   1.152   3.698  1.6633 -1.1028 -1.3810
14052SOL    HW254216   1.549   1.193   3.854  2.2682  0.5221 -1.9139
14053SOL     OW54217   8.950   1.685   4.505 -0.1138 -0.2167  0.2932
14053SOL    HW154218   8.851   1.691   4.503 -0.0446  1.0019  0.5560
14053SOL    HW254219   8.990   1.759   4.450  0.6371 -1.1777 -0.4896
14054SOL     OW54220   6.126   0.426   5.299 -0.0588 -0.8200 -0.3912
14054SOL    HW154221   6.109   0.345   5.242  0.4249 -1.1943 -0.0110
14054SOL    HW254222   6.151   0.397   5.391 -0.4351 -0.2219 -0.0967
14055SOL     OW54223   8.044   8.089   8.636  0.8197  0.4469  0.4299
14055SOL    HW154224   8.062   8.110   8.540  2.5382  1.5599  0.9917
14055SOL    HW254225   7.946   8.071   8.647  0.6589 -0.0794 -1.5940
14056SOL     OW54226   2.016   8.211   4.113 -0.4910 -0.3633 -0.1384
14056SOL    HW154227   1.995   8.266   4.194 -0.5039  2.2866 -1.9228
14056SOL    HW254228   2.017   8.269   4.032  0.6526 -2.7985 -1.9146
14057SOL     OW54229   1.471   6.627   1.381  0.3947  0.3377 -0.2857
14057SOL    HW154230   1.475   6.613   1.282  0.1161 -0.7578 -0.1515
14057SOL    HW254231   1.489   6.723   1.402  1.3437  0.4039 -1.3371
14058SOL     OW54232   9.399   1.800   5.554 -0.5341  0.4883 -0.5792
14058SOL    HW154233   9.484   1.746   5.553 -0.2343  0.9490 -0.1118
14058SOL    HW254234   9.330   1.754   5.497  0.1836  0.3781 -1.3708
14059SOL     OW54235   1.332   2.152   0.901  0.1857 -0.2943  0.1485
14059SOL    HW154236   1.337   2.086   0.826 -0.5006 -0.7910  0.5382
14059SOL    HW254237   1.277   2.114   0.976 -1.1934  1.1777 -0.0954
14060SOL     OW54238   0.289   1.536   4.523 -0.7306 -0.3105  0.4174
14060SOL    HW154239   0.282   1.438   4.505 -1.4317  0.0891 -1.6403
14060SOL    HW254240   0.339   1.580   4.448 -0.8524  0.9733  1.0743
14061SOL     OW54241   3.573   5.406   9.650  0.3923  0.5164 -0.4608
14061SOL    HW154242   3.573   5.492   9.701 -0.3492  0.6725 -0.7333
14061SOL    HW254243   3.602   5.332   9.712  1.2158  0.9839 -0.2790
14062SOL     OW54244   7.619   1.693   2.227 -0.1211 -0.2813 -0.3749
14062SOL    HW154245   7.590   1.673   2.133  2.2389 -2.3716 -0.6929
14062SOL    HW254246   7.715   1.720   2.227 -0.5608  1.4453  1.2794
14063SOL     OW54247   1.579   2.976   8.079 -0.0856  0.5125  0.3430
14063SOL    HW154248   1.542   3.013   8.165 -2.0650  0.8798 -0.6290
14063SOL    HW254249   1.507   2.927   8.031  0.8309  0.8463 -1.4071
14064SOL     OW54250   3.011   5.983   6.888  0.7458 -0.2851  0.3499
14064SOL    HW154251   3.051   5.906   6.838  1.0280  0.3914 -0.4743
14064SOL    HW254252   3.070   6.008   6.965  2.3149  1.1717 -1.2836
14065SOL     OW54253   2.584   4.503   0.478 -0.0608 -0.1026 -0.1128
14065SOL    HW154254   2.651   4.574   0.500  0.3246 -0.0078 -1.5313
14065SOL    HW254255   2.627   4.433   0.421 -1.5210  0.7583 -2.3610
14066SOL     OW54256   3.854   8.130   5.946  0.3966 -0.2912 -0.0504
14066SOL    HW154257   3.815   8.192   6.013  0.5798 -0.1758 -0.0503
14066SOL    HW254258   3.781   8.082   5.898  0.2625 -0.2600  0.1238
14067SOL     OW54259   8.501   7.416   7.750  0.2167 -0.0212  0.1850
14067SOL    HW154260   8.481   7.318   7.752  0.3321 -0.0693 -0.7531
14067SOL    HW254261   8.560   7.436   7.672  1.9635  0.4741  1.6049
14068SOL     OW54262   3.585   5.706   1.966  0.0217  0.3357 -0.4324
14068SOL    HW154263   3.659   5.650   2.005  0.2522  1.1349  0.2919
14068SOL    HW254264   3.497   5.667   1.992  0.1763  0.5695  0.4661
14069SOL     OW54265   2.401   3.337   2.124  0.2584  0.0615 -0.2327
14069SOL    HW154266   2.440   3.413   2.072 -0.6690 -0.0200 -1.0585
14069SOL    HW254267   2.432   3.343   2.219 -0.6185  2.0683 -0.0380
14070SOL     OW54268   7.935   7.624   2.816 -0.7342 -0.0575  0.0681
14070SOL    HW154269   8.023   7.620   2.769 -1.1080 -0.3305 -0.6302
14070SOL    HW254270   7.932   7.557   2.889 -1.0061 -1.2793 -1.0460
14071SOL     OW54271   3.697   0.449   5.896  0.2562  0.0998  0.0162
14071SOL    HW154272   3.785   0.445   5.943 -0.2456  0.9114  1.0428
14071SOL    HW254273   3.661   0.357   5.884  0.8381 -0.1757  0.3776
14072SOL     OW54274   7.279   1.552   1.508  0.2347  0.0112 -0.0143
14072SOL    HW154275   7.200   1.576   1.452 -0.2577 -1.1460  0.1671
14072SOL    HW254276   7.274   1.600   1.596 -0.9776 -1.0772  0.5296
14073SOL     OW54277   2.060   5.557   6.991  0.3742  0.7781  0.0475
14073SOL    HW154278   2.118   5.619   7.043 -0.3906  0.8404  0.8509
14073SOL    HW254279   2.113   5.476   6.965  1.1410  1.3843 -0.2743
14074SOL     OW54280   0.882   0.651   5.709 -0.6267 -0.2491 -0.2217
14074SOL    HW154281   0.797   0.605   5.685 -1.0595  0.4181  0.0227
14074SOL    HW254282   0.866   0.749   5.719 -0.2644 -0.3868  1.8681
14075SOL     OW54283   6.585   0.161   4.736 -0.1101  0.0565  0.1030
14075SOL    HW154284   6.678   0.187   4.761  0.5237 -0.5138 -1.5961
14075SOL    HW254285   6.587   0.103   4.655 -2.0250  1.1155 -0.7593
14076SOL     OW54286   3.440   8.961   1.056  0.8041  0.1772  0.1556
14076SOL    HW154287   3.435   9.055   1.091 -0.8250  0.4605 -0.8208
14076SOL    HW254288   3.369   8.906   1.099  0.7406 -0.2241 -0.4593
14077SOL     OW54289   2.138   1.925   8.370  0.5210 -0.1017 -0.6482
14077SOL    HW154290   2.190   1.849   8.408 -1.2847 -0.2151  1.7533
14077SOL    HW254291   2.188   2.011   8.384  0.5931 -0.3421  0.5649
14078SOL     OW54292   9.234   2.658   5.448  0.1786  0.2453  0.3036
14078SOL    HW154293   9.160   2.594   5.468 -0.2326  0.6136 -0.0144
14078SOL    HW254294   9.198   2.752   5.447  0.1979  0.2676 -1.9607
14079SOL     OW54295   5.250   4.557   2.635 -0.2549 -0.2595  0.2204
14079SOL    HW154296   5.347   4.535   2.643 -0.5296 -0.9948  1.7082
14079SOL    HW254297   5.214   4.583   2.725 -1.6542 -0.9839 -0.1050
14080SOL     OW54298   5.482   9.762   6.390 -0.1256 -0.1357 -0.3050
14080SOL    HW154299   5.581   9.747   6.388 -0.2621 -0.9526 -2.7598
14080SOL    HW254300   5.435   9.676   6.370 -1.3023  0.4615 -0.1445
14081SOL     OW54301   2.277   1.456   4.314 -0.3045  0.2160  0.0328
14081SOL    HW154302   2.372   1.430   4.331 -0.3835  0.7141  1.3563
14081SOL    HW254303   2.221   1.374   4.305 -0.3471 -0.1378  2.9124
14082SOL     OW54304   7.720   3.358   2.393 -0.2269 -0.0927  0.1999
14082SOL    HW154305   7.797   3.419   2.375 -0.1669 -0.3887 -0.6089
14082SOL    HW254306   7.735   3.272   2.343  0.4091 -1.3507  2.4649
14083SOL     OW54307   4.011   1.214   9.258 -0.5008 -0.0338 -0.6524
14083SOL    HW154308   4.025   1.138   9.195  0.7033  0.2265 -0.7062
14083SOL    HW254309   4.066   1.200   9.340 -0.9753  0.3359 -0.2663
14084SOL     OW54310   7.597   5.891   2.630 -0.3448  0.1041  0.0851
14084SOL    HW154311   7.694   5.868   2.640 -0.8570 -2.3684 -0.4718
14084SOL    HW254312   7.563   5.929   2.716  0.7557 -0.3425  0.7266
14085SOL     OW54313   0.565   2.318   6.970  0.6350 -0.2126  0.0191
14085SOL    HW154314   0.647   2.364   6.936  0.2579 -0.0258 -0.6337
14085SOL    HW254315   0.497   2.386   6.996  0.3126 -0.3913 -0.3623
14086SOL     OW54316   9.577   2.704   5.205  0.1403 -0.4452  0.2435
14086SOL    HW154317   9.566   2.764   5.284 -2.7794  0.1450 -0.5538
14086SOL    HW254318   9.634   2.749   5.136 -2.5617  1.7930 -0.6290
14087SOL     OW54319   2.831   8.228   1.325 -0.3528 -0.1192 -0.1646
14087SOL    HW154320   2.817   8.198   1.230 -0.4692 -1.5905  0.3199
14087SOL    HW254321   2.925   8.263   1.334 -0.3280  0.0041 -0.8145
14088SOL     OW54322   6.154   9.469   9.032  0.3486 -0.4832 -0.6762
14088SOL    HW154323   6.207   9.525   8.969  1.4877  1.0974  1.6483
14088SOL    HW254324   6.202   9.383   9.050  2.2765  0.9844  1.5053
14089SOL     OW54325   1.583   2.398   1.521 -0.0198 -0.1266 -0.5329
14089SOL    HW154326   1.538   2.311   1.500  0.8363 -0.4104 -1.2168
14089SOL    HW254327   1.641   2.425   1.444 -0.6194  1.2746 -0.5202
14090SOL     OW54328   5.845   1.202   4.766  0.4304  0.1853 -0.0923
14090SOL    HW154329   5.925   1.258   4.789  0.1851  0.3088  0.4480
14090SOL    HW254330   5.815   1.151   4.847  0.0151  0.0644 -0.3207
14091SOL     OW54331   3.051   7.957   3.127 -0.8606  0.8690  0.2637
14091SOL    HW154332   3.097   7.868   3.122  2.0004  2.4041 -2.2927
14091SOL    HW254333   3.020   7.973   3.221  0.6687 -1.7895  1.2722
14092SOL     OW54334   0.109   6.441   7.928  0.2983 -0.0160 -0.8713
14092SOL    HW154335   0.188   6.466   7.872 -0.1983 -0.1899 -1.6588
14092SOL    HW254336   0.129   6.356   7.977  0.4204 -0.3269 -1.4524
14093SOL     OW54337   3.975   8.152   2.056  0.0250 -0.1255 -0.1584
14093SOL    HW154338   3.933   8.241   2.035  0.9196  0.3118 -0.1077
14093SOL    HW254339   4.044   8.131   1.988  0.8855 -0.0635  0.6897
14094SOL     OW54340   5.867   8.966   8.939  0.6014  0.0646 -0.0437
14094SOL    HW154341   5.948   8.938   8.887  0.8233 -1.7842  1.2519
14094SOL    HW254342   5.894   9.024   9.016  0.6942 -0.5178  0.3633
14095SOL     OW54343   8.229   6.341   0.321  0.6989 -0.1353  0.0653
14095SOL    HW154344   8.178   6.338   0.407 -0.0751  0.0141 -0.3779
14095SOL    HW254345   8.166   6.326   0.244  1.8086 -3.0485 -0.3377
14096SOL     OW54346   9.376   0.308   1.798 -0.1594 -0.3807 -0.4737
14096SOL    HW154347   9.334   0.303   1.889  0.9938 -1.5338  0.0194
14096SOL    HW254348   9.322   0.369   1.740  0.2863  2.0978  1.6111
14097SOL     OW54349   6.508   4.308   9.156 -0.4195  0.5366  0.4780
14097SOL    HW154350   6.488   4.406   9.153  1.8322  0.9675 -4.0185
14097SOL    HW254351   6.594   4.293   9.205 -0.2357  0.9336  0.2796
14098SOL     OW54352   5.253   0.186   6.176 -0.5493  0.2945  0.1971
14098SOL    HW154353   5.334   0.140   6.140 -2.0969 -2.8720  0.6116
14098SOL    HW254354   5.272   0.219   6.269 -0.1704 -1.6573  0.8187
14099SOL     OW54355   9.882   0.633   8.826  0.3839 -0.8939  0.2600
14099SOL    HW154356   9.871   0.732   8.823 -0.4742 -1.0319 -1.6914
14099SOL    HW254357   9.801   0.591   8.867 -0.0144 -0.8993 -0.5235
14100SOL     OW54358   4.092   2.789   1.579  0.6013  0.1360  0.0018
14100SOL    HW154359   4.092   2.786   1.479 -0.2402 -0.2772  0.0086
14100SOL    HW254360   4.162   2.853   1.611  1.8668 -0.8236 -0.8174
14101SOL     OW54361   2.742   5.413   7.178  0.4053  0.0837  0.4355
14101SOL    HW154362   2.710   5.478   7.247  1.4485  0.9420  0.1201
14101SOL    HW254363   2.837   5.389   7.197  0.2694 -0.7339  0.0807
14102SOL     OW54364   1.215   1.915   4.338 -0.4391 -0.0963  0.4415
14102SOL    HW154365   1.217   1.989   4.271 -1.4036 -0.3009  0.1821
14102SOL    HW254366   1.181   1.832   4.293  1.3484 -0.8907  0.5268
14103SOL     OW54367   3.487   9.650   9.528 -0.3501 -0.2443 -0.2364
14103SOL    HW154368   3.495   9.617   9.622  1.0874  1.2109  0.1628
14103SOL    HW254369   3.410   9.714   9.523  0.8971  1.3166  0.4298
14104SOL     OW54370   4.241   1.431   1.563 -0.0519  0.2819  0.1498
14104SOL    HW154371   4.300   1.435   1.644 -0.1729  0.9238  0.2130
14104SOL    HW254372   4.266   1.353   1.507 -1.5604 -1.6313  2.0387
14105SOL     OW54373   9.990   4.474   9.011  0.3246  0.1477  0.0325
14105SOL    HW154374  10.036   4.486   9.098  0.4894  0.7237 -0.1322
14105SOL    HW254375  10.050   4.423   8.949  1.0687  1.5685 -0.4406
14106SOL     OW54376   0.806   8.416   0.784 -0.0699  0.3323  0.0099
14106SOL    HW154377   0.727   8.454   0.832 -0.3793 -0.0931 -0.1558
14106SOL    HW254378   0.782   8.401   0.688  0.2825  0.4153 -0.0895
14107SOL     OW54379   7.754   3.723   4.793  0.4787  0.3630 -0.2747
14107SOL    HW154380   7.824   3.750   4.859 -0.9356  0.5870  1.1783
14107SOL    HW254381   7.716   3.805   4.750  0.3539  0.3069 -0.2694
14108SOL     OW54382   5.004   8.887   9.165  0.0959 -0.1591 -0.3198
14108SOL    HW154383   5.002   8.806   9.107 -1.8516 -0.0229 -0.4685
14108SOL    HW254384   4.978   8.862   9.258  0.2747  0.1641 -0.1817
14109SOL     OW54385   2.578   9.327   7.462  0.4288  0.1952 -0.2682
14109SOL    HW154386   2.583   9.336   7.362  0.7793 -1.4301 -0.4156
14109SOL    HW254387   2.670   9.309   7.497 -0.0804 -1.9596  0.0387
14110SOL     OW54388   7.186   0.906   7.583 -0.2314 -0.2682  0.1995
14110SOL    HW154389   7.204   0.978   7.651  1.1673 -0.2356 -0.1872
14110SOL    HW254390   7.209   0.940   7.492 -1.6013 -0.4951 -0.2464
14111SOL     OW54391   9.127   7.616   5.343 -0.1834 -0.0286  0.9097
14111SOL    HW154392   9.176   7.703   5.336  1.6319 -1.1017  0.0100
14111SOL    HW254393   9.044   7.620   5.289  0.5496  0.7102 -0.1760
14112SOL     OW54394   6.546   8.450   4.344  0.4014 -0.2158  0.6888
14112SOL    HW154395   6.453   8.416   4.359  0.8343 -1.7227  0.0579
14112SOL    HW254396   6.559   8.469   4.246  0.7023  0.1449  0.7993
14113SOL     OW54397   9.927   8.485   3.133  0.4525 -0.0098 -0.1223
14113SOL    HW154398   9.955   8.523   3.221  1.0505  0.0117 -0.3199
14113SOL    HW254399   9.841   8.434   3.144 -0.2846  1.2814  0.1646
14114SOL     OW54400   7.889   1.255   7.140  0.0381  0.7009 -0.3224
14114SOL    HW154401   7.986   1.280   7.134 -0.2052  2.0793  1.3419
14114SOL    HW254402   7.834   1.336   7.159 -0.9241 -0.7354  3.5733
14115SOL     OW54403   9.056   3.693   9.044  0.0422  0.2268 -0.0413
14115SOL    HW154404   9.101   3.664   9.128 -1.0876 -0.7166  0.2533
14115SOL    HW254405   8.973   3.639   9.030  0.0232  0.6179 -1.5735
14116SOL     OW54406   8.452   3.172   9.699  0.0398  0.8702  0.4356
14116SOL    HW154407   8.438   3.180   9.798 -1.3891 -0.1261  0.3175
14116SOL    HW254408   8.443   3.262   9.657 -0.6904  1.0873  1.0480
14117SOL     OW54409   8.724   9.714   5.254  0.1791 -0.1571  0.0844
14117SOL    HW154410   8.647   9.706   5.190  0.6537  0.6334 -0.6034
14117SOL    HW254411   8.708   9.790   5.316  0.1805 -0.2912  0.2481
14118SOL     OW54412   2.535   0.427   5.710 -0.4771 -0.3534 -0.1592
14118SOL    HW154413   2.594   0.507   5.702 -0.6386 -0.1770  0.3716
14118SOL    HW254414   2.581   0.358   5.766 -0.7687 -0.2112  0.2643
14119SOL     OW54415   3.955   2.580   5.782 -0.4015 -0.7652  0.5341
14119SOL    HW154416   4.041   2.531   5.769 -0.7192 -1.4329  0.9287
14119SOL    HW254417   3.883   2.535   5.730 -0.4390  0.0257 -0.1155
14120SOL     OW54418   0.564   7.564   2.472  0.0862  0.1726 -1.0193
14120SOL    HW154419   0.588   7.622   2.394  0.6751 -1.2493 -1.9298
14120SOL    HW254420   0.620   7.587   2.551 -0.2610  1.3834 -1.1255
14121SOL     OW54421   6.140   0.863   8.983 -0.2098  0.9049 -0.3316
14121SOL    HW154422   6.137   0.943   8.924 -0.3731  2.2196  1.4275
14121SOL    HW254423   6.056   0.810   8.971 -0.6612  1.6720 -0.5873
14122SOL     OW54424   9.915   6.251   1.393 -0.3010 -0.2263 -0.0123
14122SOL    HW154425   9.944   6.346   1.387  0.3465 -0.2517  2.2277
14122SOL    HW254426   9.892   6.217   1.302 -0.0896  1.9229 -0.8876
14123SOL     OW54427   8.212   8.613   5.283 -0.0910  0.1677  0.7630
14123SOL    HW154428   8.216   8.709   5.253  0.0215  0.3907  1.4800
14123SOL    HW254429   8.301   8.570   5.269 -0.7291 -0.4815 -1.6451
14124SOL     OW54430   8.396   6.782   3.264 -0.0636 -0.1721 -0.3495
14124SOL    HW154431   8.401   6.691   3.305  0.7607 -0.5684 -1.3016
14124SOL    HW254432   8.483   6.830   3.279 -0.3312  0.2845 -0.2467
14125SOL     OW54433   4.340   0.215   3.465  0.0722  0.4499 -0.0779
14125SOL    HW154434   4.263   0.205   3.402  1.0065  1.4587 -1.4040
14125SOL    HW254435   4.306   0.248   3.553 -1.1668 -0.3749 -0.2210
14126SOL     OW54436   3.975   2.618   8.442 -0.1095 -0.1797  0.5925
14126SOL    HW154437   3.983   2.687   8.514  0.0519 -0.3329  0.7201
14126SOL    HW254438   3.939   2.661   8.359  1.9226  0.4925  0.0349
14127SOL     OW54439   8.996   4.914   4.199  0.6973  0.6253 -0.2241
14127SOL    HW154440   8.925   4.844   4.193  0.9391  0.4813 -1.6620
14127SOL    HW254441   9.006   4.959   4.110 -0.1332  3.1593  0.9009
14128SOL     OW54442   6.957   4.778   2.989 -0.1249 -0.5657  0.1299
14128SOL    HW154443   7.017   4.840   3.039 -0.2291 -2.1813  2.3459
14128SOL    HW254444   6.862   4.802   3.006 -0.1449 -0.1535 -0.5601
14129SOL     OW54445   4.536   5.269   0.950  0.3451  0.2381  0.2215
14129SOL    HW154446   4.473   5.310   0.884 -1.7238 -1.0112  1.3600
14129SOL    HW254447   4.526   5.314   1.039  0.1799 -0.7500  0.7145
14130SOL     OW54448   4.892   6.884   3.683  0.0891  0.1475  0.3519
14130SOL    HW154449   4.902   6.799   3.735 -1.8710 -0.2714  0.1024
14130SOL    HW254450   4.897   6.962   3.744  1.9010 -0.1449  0.5862
14131SOL     OW54451   3.182   0.180   5.566 -0.0360 -0.0875 -0.0647
14131SOL    HW154452   3.264   0.181   5.624 -0.8885 -0.5587  1.1634
14131SOL    HW254453   3.167   0.087   5.533  0.4531  0.1835 -1.0542
14132SOL     OW54454   4.390   7.249   1.827  0.4867 -0.6005 -0.5103
14132SOL    HW154455   4.391   7.158   1.869  1.9010 -0.9724 -1.3145
14132SOL    HW254456   4.433   7.315   1.888 -0.3524 -0.5154 -0.0146
14133SOL     OW54457   9.960   8.397   7.698  0.4280 -0.5848  0.2533
14133SOL    HW154458   9.995   8.490   7.698  0.8108 -0.7257 -0.5973
14133SOL    HW254459   9.908   8.381   7.614  2.5648 -1.9551 -0.8580
14134SOL     OW54460   9.905   9.712   9.893  0.0103 -0.6688  0.0997
14134SOL    HW154461   9.949   9.626   9.868  0.7208 -0.3642  0.2954
14134SOL    HW254462   9.915   9.777   9.817  1.0192 -0.1787  0.6509
14135SOL     OW54463   8.636   9.356   5.558  0.3765 -0.1982  0.1123
14135SOL    HW154464   8.542   9.347   5.591  0.1846  1.9004  0.2332
14135SOL    HW254465   8.652   9.291   5.484 -0.9552 -1.0294  0.5451
14136SOL     OW54466   2.891   6.846   3.218 -0.3697 -0.2069 -0.0568
14136SOL    HW154467   2.864   6.832   3.313 -0.8180  2.2592  0.2082
14136SOL    HW254468   2.821   6.899   3.170  0.7468  0.2198 -1.2503
14137SOL     OW54469   8.415   6.359   0.770 -0.1494 -0.0337  0.1853
14137SOL    HW154470   8.321   6.371   0.801  0.5699  2.6171  1.5309
14137SOL    HW254471   8.431   6.416   0.689 -0.1935 -1.9186 -1.1830
14138SOL     OW54472   9.440   1.616   3.970  0.4891  0.4500 -0.0157
14138SOL    HW154473   9.402   1.526   3.950 -1.0260  1.2407 -0.8504
14138SOL    HW254474   9.383   1.662   4.039 -0.4505  1.8899 -1.7139
14139SOL     OW54475   7.340   0.797   9.798  0.1479 -0.2001  0.1750
14139SOL    HW154476   7.372   0.745   9.877  0.6855  0.1636  0.1987
14139SOL    HW254477   7.407   0.868   9.775 -0.5773  0.4899  0.1487
14140SOL     OW54478   0.779   2.257   6.043 -0.2834 -0.1001  0.2117
14140SOL    HW154479   0.799   2.326   5.973 -0.0503  0.1851  0.5575
14140SOL    HW254480   0.799   2.166   6.007 -1.5551 -0.0724 -0.6019
14141SOL     OW54481   1.347   8.942   9.836  0.0072  0.3534 -0.5499
14141SOL    HW154482   1.424   8.960   9.897  0.7845  1.1382 -1.7410
14141SOL    HW254483   1.369   8.863   9.779 -0.2010  0.3831 -0.6718
14142SOL     OW54484   1.950   6.345   7.234  0.7766  0.6035  0.0423
14142SOL    HW154485   1.941   6.282   7.157 -1.9183 -0.5597  1.2350
14142SOL    HW254486   2.022   6.411   7.215  0.7730 -0.2184 -3.0868
14143SOL     OW54487   4.498   9.005  10.028 -0.9715  0.5768  0.5280
14143SOL    HW154488   4.545   9.093  10.027 -0.1652  0.1469 -0.3105
14143SOL    HW254489   4.549   8.941  10.086 -0.4849  0.0904 -0.4357
14144SOL     OW54490   6.163   8.534   8.115  0.0532  0.5947  0.6452
14144SOL    HW154491   6.237   8.480   8.076  0.9181  1.4138  1.1109
14144SOL    HW254492   6.160   8.624   8.071  0.1185  1.0028  1.4451
14145SOL     OW54493   4.634   5.064   7.686  0.0161  0.5391 -0.2346
14145SOL    HW154494   4.673   5.033   7.773  0.1219  0.1120 -0.4348
14145SOL    HW254495   4.545   5.107   7.703 -0.5041 -0.6030 -0.0484
14146SOL     OW54496   9.134   8.315   3.649  0.0097  0.3463  0.4324
14146SOL    HW154497   9.150   8.271   3.561  2.4551 -1.0648  1.5255
14146SOL    HW254498   9.037   8.309   3.672 -0.1784 -1.9483 -0.7823
14147SOL     OW54499   6.514   4.231  10.009 -0.3101 -0.0327 -0.6794
14147SOL    HW154500   6.458   4.231   9.926  0.3754 -0.8975 -1.1476
14147SOL    HW254501   6.559   4.142  10.019 -0.7988 -0.1199  0.8993
14148SOL     OW54502   9.697   3.063   4.566  0.3712 -0.4557  0.7641
14148SOL    HW154503   9.692   3.144   4.624  1.8380 -0.1665  0.5054
14148SOL    HW254504   9.621   3.064   4.501 -0.3497  0.0450  1.6029
14149SOL     OW54505   9.491   6.813   5.004  0.0750  0.5850  0.0884
14149SOL    HW154506   9.541   6.872   4.941  0.2900  2.5362  2.0141
14149SOL    HW254507   9.547   6.793   5.084 -0.6466 -0.8001  0.2655
14150SOL     OW54508   2.398   0.818   0.833  0.4242  0.2143  0.2844
14150SOL    HW154509   2.355   0.728   0.829  2.3182 -0.6272 -1.8560
14150SOL    HW254510   2.434   0.834   0.925  0.9699 -1.6388  0.4082
14151SOL     OW54511   0.442   2.036   4.277  0.6154 -0.1803 -0.3220
14151SOL    HW154512   0.508   2.025   4.203  1.4995  0.6386  0.3402
14151SOL    HW254513   0.427   2.134   4.294  0.5122 -0.3670  0.6651
14152SOL     OW54514   9.037   6.754   9.862  0.0058  0.1845  0.2613
14152SOL    HW154515   8.973   6.802   9.802  0.0015 -0.7245 -0.4825
14152SOL    HW254516   9.001   6.751   9.955  0.5594  2.6375  0.5749
14153SOL     OW54517   9.460   8.867   4.666 -0.3019  0.1782 -0.4582
14153SOL    HW154518   9.372   8.899   4.702  0.9286  0.4836  2.3320
14153SOL    HW254519   9.454   8.768   4.649 -0.7822 -0.0635  1.0251
14154SOL     OW54520   8.681   7.270   9.589  0.0774  0.0475  0.1077
14154SOL    HW154521   8.658   7.362   9.622  2.6566  0.6014  0.4417
14154SOL    HW254522   8.661   7.203   9.660  0.1482  0.5938  0.6492
14155SOL     OW54523   3.861   5.478   0.506  0.1063 -0.3171  0.0107
14155SOL    HW154524   3.926   5.530   0.560  0.5929 -1.2786  0.3575
14155SOL    HW254525   3.780   5.535   0.488  0.4757  0.4321  0.6717
14156SOL     OW54526   8.457   3.091   7.123  0.0530  0.0787  0.3204
14156SOL    HW154527   8.382   3.103   7.058  1.7707 -1.9089 -2.0979
14156SOL    HW254528   8.451   2.999   7.163  0.8980  0.1183  0.5377
14157SOL     OW54529   1.763   6.139   1.923  0.0073  0.4421  0.1401
14157SOL    HW154530   1.821   6.061   1.945  1.2232  1.7120  1.5824
14157SOL    HW254531   1.743   6.140   1.825  0.7126 -1.1590 -0.0334
14158SOL     OW54532   9.016   6.993   4.976  0.1569  0.0798 -0.0399
14158SOL    HW154533   9.102   7.039   4.998 -0.1516  0.2186  0.8990
14158SOL    HW254534   9.020   6.957   4.883  1.7197 -1.0862  0.4710
14159SOL     OW54535   9.175   3.444   5.925  0.3671  0.0204  0.1522
14159SOL    HW154536   9.159   3.542   5.924  0.0098 -0.0264 -2.3291
14159SOL    HW254537   9.255   3.423   5.980 -0.3745  1.5549  1.8378
14160SOL     OW54538   0.440   0.607   4.024 -0.3520 -0.1507 -0.0060
14160SOL    HW154539   0.480   0.581   3.936  1.2579  2.1551 -0.0056
14160SOL    HW254540   0.416   0.525   4.075  1.8330 -1.5896 -1.1928
14161SOL     OW54541   3.611   3.493   2.866  0.3020  0.2467  0.0718
14161SOL    HW154542   3.537   3.507   2.801 -1.4908  0.2585  2.0949
14161SOL    HW254543   3.626   3.576   2.920 -1.0868 -1.0748  2.5707
14162SOL     OW54544   7.007   9.679   5.346  0.0418 -0.6071 -0.1367
14162SOL    HW154545   7.095   9.726   5.336  0.4979 -1.4415 -0.0682
14162SOL    HW254546   6.933   9.741   5.320  0.6941 -0.1137 -0.8260
14163SOL     OW54547   0.801   7.659   2.963  0.0695  0.4549 -0.3946
14163SOL    HW154548   0.897   7.657   2.936  0.1305  0.5279 -0.1875
14163SOL    HW254549   0.776   7.571   3.004  0.5593  1.0743  1.2771
14164SOL     OW54550   6.191   7.432   7.621  0.1725  0.4591  0.3516
14164SOL    HW154551   6.165   7.478   7.706  0.5653  0.2571  0.5835
14164SOL    HW254552   6.115   7.433   7.557 -0.4901 -0.3330  1.1120
14165SOL     OW54553   9.840   6.842   6.835 -1.0503 -0.2248  0.4766
14165SOL    HW154554   9.792   6.904   6.772 -0.3548 -0.1893 -0.0302
14165SOL    HW254555   9.939   6.850   6.821 -0.9284 -0.9690  0.8623
14166SOL     OW54556   0.552   6.966   0.922 -0.1476 -0.5870 -0.0112
14166SOL    HW154557   0.623   6.947   0.990  0.6965 -0.1564 -0.7440
14166SOL    HW254558   0.508   6.880   0.895  0.0855 -0.8575  0.4667
14167SOL     OW54559   0.403   1.930   0.163  0.1619 -0.6163 -0.3853
14167SOL    HW154560   0.447   1.886   0.241  2.1071  1.4220 -0.2779
14167SOL    HW254561   0.307   1.901   0.158  0.3878 -1.8666  1.9056
14168SOL     OW54562   8.129   6.836   6.863  0.2052  0.1680  0.2398
14168SOL    HW154563   8.153   6.879   6.950  1.3576  0.5868 -0.2680
14168SOL    HW254564   8.206   6.780   6.831 -0.6752 -0.9677  0.0932
14169SOL     OW54565   7.645   0.204   9.198 -0.0292 -0.5405 -0.3834
14169SOL    HW154566   7.697   0.220   9.114 -0.4259  0.2262 -0.4907
14169SOL    HW254567   7.567   0.144   9.177  0.5184 -1.2852 -0.3232
14170SOL     OW54568   8.764   8.083   8.070 -0.4439 -0.3275 -0.2021
14170SOL    HW154569   8.760   8.180   8.046 -1.4543  0.1230  1.6304
14170SOL    HW254570   8.760   8.074   8.170 -1.3829 -2.2892 -0.3970
14171SOL     OW54571   2.707   1.952   2.030 -0.2465 -0.1478 -0.1179
14171SOL    HW154572   2.680   1.859   2.054  1.0271 -0.3476  0.5868
14171SOL    HW254573   2.744   1.998   2.111  2.2422 -0.1569 -1.2015
14172SOL     OW54574   1.452   6.399   9.619  0.4162 -0.2085 -0.4338
14172SOL    HW154575   1.484   6.448   9.538 -0.9547  1.2384 -0.1442
14172SOL    HW254576   1.367   6.350   9.597  0.4061 -0.3645 -0.0572
14173SOL     OW54577   1.686   7.653   1.141 -0.6309 -0.0817  0.8159
14173SOL    HW154578   1.767   7.668   1.197 -0.8723 -0.9168  1.4029
14173SOL    HW254579   1.704   7.580   1.075 -1.7123 -2.1009  2.6755
14174SOL     OW54580   9.967   3.445   7.329 -0.2270  0.6435 -0.6111
14174SOL    HW154581   9.963   3.346   7.319  1.2685  0.7128 -2.0818
14174SOL    HW254582  10.001   3.486   7.244  1.8874  2.1899  0.9372
14175SOL     OW54583   3.612   5.981   8.287  0.3917  0.2604 -0.3155
14175SOL    HW154584   3.678   5.985   8.362 -0.0702 -0.9972  0.1702
14175SOL    HW254585   3.624   5.895   8.236 -2.3042 -1.0306  1.1320
14176SOL     OW54586   9.647   1.895   6.019  0.1935  0.0803 -0.3738
14176SOL    HW154587   9.630   1.989   6.047  1.2306  0.9281 -2.4176
14176SOL    HW254588   9.633   1.887   5.920  0.6182 -1.8030 -0.3053
14177SOL     OW54589   9.451   1.244   3.114  0.0056 -0.4675  0.0609
14177SOL    HW154590   9.526   1.202   3.163 -0.1976 -1.0846 -0.1530
14177SOL    HW254591   9.480   1.263   3.020 -0.1531 -0.8366 -0.0621
14178SOL     OW54592   3.011   3.065   1.781  0.1145 -0.4110  0.4355
14178SOL    HW154593   3.040   3.135   1.846 -0.8095 -0.0603  0.4797
14178SOL    HW254594   3.090   3.031   1.731  0.5648  0.6949  0.3881
14179SOL     OW54595   7.035   0.289   8.249 -0.4191  0.3477  0.1138
14179SOL    HW154596   6.956   0.348   8.236 -1.5085 -1.1806 -0.3620
14179SOL    HW254597   7.064   0.293   8.345 -2.4025 -0.6966  0.7827
14180SOL     OW54598   3.823   9.019   4.485  0.1023 -0.2753 -0.4232
14180SOL    HW154599   3.904   8.971   4.453  0.9128 -0.0177  1.1789
14180SOL    HW254600   3.821   9.017   4.585 -1.4545  0.3980 -0.4339
14181SOL     OW54601   7.623   9.135   6.790  0.2968 -0.4897  0.3736
14181SOL    HW154602   7.567   9.057   6.761  0.3432 -0.0370 -1.0052
14181SOL    HW254603   7.686   9.159   6.716  0.1891  0.9434  0.7421
14182SOL     OW54604   6.982   0.864   0.733  0.4640  0.3337 -0.4084
14182SOL    HW154605   7.067   0.833   0.691 -0.3433 -1.6464 -0.6693
14182SOL    HW254606   6.925   0.907   0.663  0.6176  0.2703 -0.5741
14183SOL     OW54607   3.976   6.144   7.647  0.6904  0.2910  0.1962
14183SOL    HW154608   3.885   6.104   7.634 -0.2773  2.4806 -0.0104
14183SOL    HW254609   4.029   6.135   7.563 -0.2313  1.1816 -0.5011
14184SOL     OW54610   9.580   1.050   3.515 -0.3041 -0.4455  0.5756
14184SOL    HW154611   9.562   0.953   3.531  1.8298 -0.8330  0.7944
14184SOL    HW254612   9.641   1.085   3.586  1.6880  0.1911 -1.3994
14185SOL     OW54613   2.442   0.252   0.094  0.0083 -0.2505  0.5335
14185SOL    HW154614   2.473   0.222   0.185 -1.8633 -0.6671  1.0584
14185SOL    HW254615   2.438   0.173   0.033  1.5867  0.0843 -0.0245
14186SOL     OW54616   2.550   2.778   0.795  0.4787  0.4744 -0.4990
14186SOL    HW154617   2.552   2.825   0.706 -1.3506 -0.1003 -0.8490
14186SOL    HW254618   2.479   2.708   0.794  1.1864 -0.2724  1.0616
14187SOL     OW54619   5.651   1.604   4.749 -0.2963 -0.4203  0.5723
14187SOL    HW154620   5.691   1.655   4.826 -2.0662  1.9308 -0.0027
14187SOL    HW254621   5.658   1.659   4.666 -0.6563 -1.8861 -0.4405
14188SOL     OW54622   8.082   5.974   6.178  0.8520  0.5252  0.1767
14188SOL    HW154623   8.057   6.013   6.090  2.5354 -0.1584 -0.6412
14188SOL    HW254624   8.003   5.973   6.238 -0.5654  0.1418 -1.6534
14189SOL     OW54625   5.889   0.167   8.811 -0.1856 -0.0923 -0.2335
14189SOL    HW154626   5.885   0.079   8.858  0.0662 -0.2210 -0.4485
14189SOL    HW254627   5.814   0.173   8.746 -1.0115  0.4215  0.7591
14190SOL     OW54628   8.079   3.261   9.834  0.1832 -0.2613 -0.5525
14190SOL    HW154629   8.094   3.187   9.900 -0.5575  0.4010  0.3756
14190SOL    HW254630   7.989   3.249   9.791 -0.5122  0.8197  0.5711
14191SOL     OW54631   8.017   1.691   6.899  0.0901  0.3128 -0.1917
14191SOL    HW154632   8.048   1.777   6.859  0.1200  0.9182  1.1209
14191SOL    HW254633   7.975   1.708   6.988  0.4222 -1.0782  0.2471
14192SOL     OW54634   4.388   5.825   0.869 -0.0773  0.1203 -0.6168
14192SOL    HW154635   4.410   5.839   0.966 -1.4621 -1.1069 -0.0952
14192SOL    HW254636   4.410   5.908   0.818  0.7746  0.7518  0.7294
14193SOL     OW54637   1.050   8.601   7.137 -0.1275  0.0587 -0.1782
14193SOL    HW154638   1.084   8.512   7.167  1.0917 -0.2191 -2.2494
14193SOL    HW254639   1.104   8.673   7.180 -0.3601 -0.2194  0.5999
14194SOL     OW54640   8.485   4.836   4.751 -0.1021 -0.0143 -0.1496
14194SOL    HW154641   8.505   4.900   4.826 -1.6175  0.9033 -0.5084
14194SOL    HW254642   8.499   4.882   4.664 -0.7334 -0.3054 -0.4090
14195SOL     OW54643   8.899   9.936   2.209  0.2451  0.2093  0.0152
14195SOL    HW154644   8.937   9.963   2.121  1.1229 -0.1717  0.2642
14195SOL    HW254645   8.802   9.960   2.213 -0.3359 -1.6695 -1.8625
14196SOL     OW54646   1.620   4.093   5.515  0.1764 -0.5119  0.3101
14196SOL    HW154647   1.571   4.029   5.456  0.9768 -1.0203  0.1904
14196SOL    HW254648   1.567   4.178   5.523 -0.7669 -1.0825  0.2611
14197SOL     OW54649   4.105   9.890   7.055  0.1066  0.1796 -0.3266
14197SOL    HW154650   4.113   9.919   7.151 -1.1467 -0.1943 -0.0931
14197SOL    HW254651   4.022   9.834   7.045  0.7824 -0.6292 -1.4233
14198SOL     OW54652   4.254   3.186   1.662 -0.1773  0.5308  0.3235
14198SOL    HW154653   4.163   3.224   1.642  0.3286  2.0429  0.8774
14198SOL    HW254654   4.299   3.241   1.732  1.2499 -0.1086 -0.0705
14199SOL     OW54655   4.359   0.264   4.146 -0.5271  0.7160 -0.4510
14199SOL    HW154656   4.330   0.269   4.051  0.2037 -0.6602 -0.7633
14199SOL    HW254657   4.350   0.170   4.179 -0.6331  1.1507  0.7960
14200SOL     OW54658   3.138   5.123   5.788  0.1798 -0.3840  0.2763
14200SOL    HW154659   3.092   5.192   5.732 -2.1560 -1.4012  0.8764
14200SOL    HW254660   3.126   5.145   5.885  0.7113 -0.8176  0.4429
14201SOL     OW54661   0.964   5.339   7.211 -0.0786  0.5003  0.6235
14201SOL    HW154662   0.931   5.402   7.141 -1.3981 -0.3600  0.4540
14201SOL    HW254663   1.011   5.262   7.168 -0.4828  0.2053  0.7099
14202SOL     OW54664   8.661   7.690   9.396 -0.1601  0.1748  0.1073
14202SOL    HW154665   8.758   7.708   9.380 -0.0936  0.5961  0.9775
14202SOL    HW254666   8.637   7.601   9.356  0.3449  0.5247 -0.9841
14203SOL     OW54667   3.229   7.516   9.415  0.3405 -0.2584 -0.0249
14203SOL    HW154668   3.143   7.520   9.465  0.0127  0.3577 -0.6229
14203SOL    HW254669   3.239   7.599   9.360  0.0704 -1.4676 -1.9650
14204SOL     OW54670   9.839   9.871   0.535  0.3896 -0.1328  1.1050
14204SOL    HW154671   9.800   9.904   0.621 -1.1678  2.6277 -0.5602
14204SOL    HW254672   9.916   9.929   0.509 -0.7149  0.6309 -0.5660
14205SOL     OW54673   9.767   6.706   8.459 -0.0835  0.1310  0.4269
14205SOL    HW154674   9.720   6.787   8.425  1.8934  1.6503  1.1947
14205SOL    HW254675   9.866   6.719   8.450  0.2526 -2.3075  0.3412
14206SOL     OW54676   5.165   2.577   8.886 -0.4897 -0.1886  0.4286
14206SOL    HW154677   5.233   2.592   8.958  0.9035 -1.8652 -0.5089
14206SOL    HW254678   5.152   2.479   8.871 -0.7536  0.1321 -1.5903
14207SOL     OW54679   1.482   1.251   3.560 -0.0540 -0.1725  0.0723
14207SOL    HW154680   1.394   1.244   3.513  1.1040 -0.0763 -2.2113
14207SOL    HW254681   1.505   1.347   3.576 -1.2438 -0.2602  2.4514
14208SOL     OW54682   2.453   1.812   9.910  0.0137  0.2861 -0.3583
14208SOL    HW154683   2.408   1.811   9.821  0.6844 -2.0292 -0.6965
14208SOL    HW254684   2.527   1.745   9.911 -0.9760 -0.8464  2.4428
14209SOL     OW54685   3.872   1.275   8.347 -0.2266 -0.2850  0.3163
14209SOL    HW154686   3.853   1.271   8.249  2.1828  0.2091 -0.2082
14209SOL    HW254687   3.912   1.189   8.377 -0.0137 -0.0710  0.6515
14210SOL     OW54688   6.721   2.841   1.131  0.1031 -0.1187  0.5475
14210SOL    HW154689   6.649   2.777   1.158 -0.4355  0.1229 -0.2994
14210SOL    HW254690   6.696   2.933   1.160  0.5275 -0.1824  1.1106
14211SOL     OW54691   6.169   3.268   9.534 -0.3842  0.0997 -0.2021
14211SOL    HW154692   6.122   3.324   9.601  1.1886  1.9071 -0.5761
14211SOL    HW254693   6.266   3.259   9.559  0.2758  0.9837 -2.3229
14212SOL     OW54694   8.983   3.760   2.783  0.2905  0.3685 -0.3950
14212SOL    HW154695   8.971   3.700   2.704 -1.5029  1.0663 -0.6689
14212SOL    HW254696   8.949   3.714   2.865  0.0286  0.5326 -0.4104
14213SOL     OW54697   0.452   0.078   1.396 -0.1761 -0.1001 -0.0002
14213SOL    HW154698   0.385   0.148   1.371  0.1189  0.2673  0.2229
14213SOL    HW254699   0.543   0.110   1.371 -0.1519 -0.9308 -1.0227
14214SOL     OW54700   7.597   2.928   1.557  0.5386 -0.1468  0.0182
14214SOL    HW154701   7.583   2.896   1.651  1.2183  0.6575  0.3976
14214SOL    HW254702   7.683   2.890   1.522 -0.0038 -0.9203 -0.4933
14215SOL     OW54703   3.893   9.395   5.863  0.3138 -0.0416  0.2311
14215SOL    HW154704   3.902   9.481   5.812 -0.2345 -0.5165 -0.6864
14215SOL    HW254705   3.817   9.403   5.928  0.4744  0.2756  0.3851
14216SOL     OW54706   0.900   9.118   4.538 -0.2652 -0.0153  0.3723
14216SOL    HW154707   0.966   9.193   4.540 -2.4565  1.9333  1.7491
14216SOL    HW254708   0.927   9.048   4.603  1.3350 -0.0194 -0.2854
14217SOL     OW54709   8.625   3.821   4.041  0.3383 -0.0924 -0.2639
14217SOL    HW154710   8.527   3.805   4.054  0.3984 -0.1330  0.1428
14217SOL    HW254711   8.643   3.919   4.043  0.6157 -0.1677  1.9898
14218SOL     OW54712   1.317   9.496   0.548 -0.1110 -0.2051  0.5633
14218SOL    HW154713   1.230   9.476   0.505  0.1225  1.0908 -0.5361
14218SOL    HW254714   1.359   9.411   0.581 -1.1836 -0.9704 -0.0337
14219SOL     OW54715   9.785   8.063   1.506  0.2263 -0.4968 -0.5154
14219SOL    HW154716   9.688   8.042   1.496  0.5585 -1.7705 -1.1826
14219SOL    HW254717   9.798   8.162   1.506 -1.1137 -0.3097  0.0447
14220SOL     OW54718   5.162   0.506   6.829 -0.8191 -0.3812  0.3048
14220SOL    HW154719   5.241   0.516   6.768 -2.3264  2.4485 -1.3242
14220SOL    HW254720   5.132   0.411   6.829  0.0928 -0.7304 -2.2873
14221SOL     OW54721   7.336   7.491   6.838 -0.2901 -0.0538  0.0241
14221SOL    HW154722   7.392   7.524   6.914 -0.0821  0.5013 -0.3684
14221SOL    HW254723   7.381   7.412   6.795 -0.6354 -0.6559  0.7643
14222SOL     OW54724   8.107   2.039   1.983 -0.5653 -0.1759  0.4300
14222SOL    HW154725   8.011   2.023   1.964 -1.3751  2.6044  1.9482
14222SOL    HW254726   8.141   1.968   2.045 -0.8646 -2.7086 -2.2184
14223SOL     OW54727   1.993   4.871   5.723 -0.0498  0.1714 -0.0993
14223SOL    HW154728   2.034   4.785   5.752  0.4432  0.7909  1.0963
14223SOL    HW254729   2.065   4.935   5.695 -0.3819  0.3183 -0.6144
14224SOL     OW54730   7.711   4.053   6.476  0.1590 -0.1875  0.4489
14224SOL    HW154731   7.751   4.137   6.512 -0.6568  0.6503 -0.5950
14224SOL    HW254732   7.702   3.986   6.551 -2.6183  1.9338  2.0977
14225SOL     OW54733   1.069   9.266   9.315  0.3273  0.1398 -0.0670
14225SOL    HW154734   1.015   9.297   9.393  0.1146 -0.9369  0.2248
14225SOL    HW254735   1.100   9.345   9.262 -1.0458  0.8036  0.0842
14226SOL     OW54736   3.612   3.680   9.320 -0.0789 -0.1165 -0.4167
14226SOL    HW154737   3.703   3.724   9.320 -1.2310  2.4126  2.2252
14226SOL    HW254738   3.621   3.585   9.348  2.0993 -0.7587 -3.0710
14227SOL     OW54739   6.991   6.317   8.151  0.1784 -0.0284 -0.0427
14227SOL    HW154740   6.991   6.366   8.239  3.0680 -0.9783  0.5480
14227SOL    HW254741   6.935   6.235   8.159 -1.2950  0.9813  0.2415
14228SOL     OW54742   8.961   3.647   6.140 -0.7068 -0.2581  0.2108
14228SOL    HW154743   8.879   3.600   6.108 -0.2645 -0.1190 -1.1879
14228SOL    HW254744   8.997   3.705   6.066  1.6882 -1.7138  0.1823
14229SOL     OW54745   7.267   9.504   2.648 -0.0711 -0.2623  0.1600
14229SOL    HW154746   7.341   9.508   2.581 -0.1863 -0.5355  0.0156
14229SOL    HW254747   7.220   9.416   2.640 -1.2565  0.4376 -0.6469
14230SOL     OW54748   9.857   9.364   7.139 -0.1807  0.3436  0.0176
14230SOL    HW154749   9.909   9.438   7.094 -1.0083 -0.2847 -2.0313
14230SOL    HW254750   9.762   9.366   7.107 -1.2290  0.8660  2.9963
14231SOL     OW54751   7.512   0.817   7.530  0.7405 -0.1886 -0.1169
14231SOL    HW154752   7.461   0.820   7.444  0.5759  1.0611  0.0123
14231SOL    HW254753   7.564   0.902   7.540  2.3225 -1.1545  0.0803
14232SOL     OW54754   9.432   5.120   8.813 -0.6081  0.4689 -0.0880
14232SOL    HW154755   9.519   5.105   8.859 -1.8266 -0.6981  1.9789
14232SOL    HW254756   9.369   5.166   8.876 -1.7563  0.5164 -1.2408
14233SOL     OW54757   8.969   2.285   3.003 -0.7951 -0.0416 -0.5084
14233SOL    HW154758   8.893   2.346   2.983 -1.0537 -0.6795 -1.4989
14233SOL    HW254759   8.935   2.203   3.051 -0.8241 -0.6037 -1.4839
14234SOL     OW54760   7.688   3.503   5.178  0.0076  0.0337 -0.2392
14234SOL    HW154761   7.734   3.536   5.096  0.6878  2.2117  0.9559
14234SOL    HW254762   7.626   3.428   5.155  1.4755 -0.5322 -2.4380
14235SOL     OW54763   4.951   8.488   9.322  0.1611 -0.1262  0.0360
14235SOL    HW154764   4.923   8.583   9.334 -0.6514  0.2170 -3.9043
14235SOL    HW254765   4.871   8.432   9.303  0.9471 -1.1240 -0.3682
14236SOL     OW54766   1.141   2.433   5.974  0.4341  0.6848 -0.0696
14236SOL    HW154767   1.073   2.403   5.906  1.1885  0.1376 -0.5953
14236SOL    HW254768   1.127   2.530   5.995 -1.0959  0.3548  0.5262
14237SOL     OW54769   7.110   0.782   5.851 -0.0613  0.2501  0.1320
14237SOL    HW154770   7.129   0.784   5.949  1.2923  1.5267 -0.1498
14237SOL    HW254771   7.093   0.687   5.823 -0.1205 -0.1637  1.5246
14238SOL     OW54772   1.914   8.893   4.196 -0.7063  0.1779  0.0744
14238SOL    HW154773   1.907   8.900   4.097  0.2907  0.7875  0.0500
14238SOL    HW254774   1.872   8.974   4.238  0.0427  0.5406  0.1171
14239SOL     OW54775   1.989   9.588   5.295 -0.2124 -0.4700  0.1535
14239SOL    HW154776   2.035   9.637   5.221  2.3135 -0.1106  1.8734
14239SOL    HW254777   1.989   9.490   5.276  0.0247 -0.3431 -0.5152
14240SOL     OW54778   3.456   6.336   1.128 -0.3783 -0.2481  0.3983
14240SOL    HW154779   3.427   6.431   1.112  1.5213 -0.0210 -2.0295
14240SOL    HW254780   3.525   6.335   1.200  0.4434  0.4002 -0.3543
14241SOL     OW54781   9.532   2.999   5.184  0.0240 -0.0642  0.0323
14241SOL    HW154782   9.594   2.968   5.111  0.1828 -1.8004  0.8817
14241SOL    HW254783   9.554   3.093   5.209 -1.3663  1.3316 -3.5841
14242SOL     OW54784   3.385   4.132   9.340 -0.3309 -0.3611 -0.2316
14242SOL    HW154785   3.339   4.137   9.429  1.3328 -0.1945  0.6312
14242SOL    HW254786   3.357   4.048   9.293 -2.3489  0.2565 -0.2128
14243SOL     OW54787   6.218   5.586   8.867 -0.1179  0.0500  0.2356
14243SOL    HW154788   6.185   5.526   8.940  0.0321  1.2390  1.3168
14243SOL    HW254789   6.317   5.598   8.875  0.1222 -0.9424 -1.0476
14244SOL     OW54790   2.208   8.649   6.443  1.1200 -0.2345 -0.1958
14244SOL    HW154791   2.117   8.679   6.469  1.2940  1.0314 -1.0092
14244SOL    HW254792   2.201   8.584   6.367  0.9132  0.1006 -0.4633
14245SOL     OW54793   0.720   0.491   3.152 -0.3761 -0.0197 -0.2552
14245SOL    HW154794   0.654   0.544   3.099 -0.2207  0.7517  0.3091
14245SOL    HW254795   0.807   0.488   3.102 -0.0138  1.3107  0.2659
14246SOL     OW54796   2.455   2.687   6.283  0.4801 -0.0728 -0.6319
14246SOL    HW154797   2.432   2.614   6.219 -0.5531 -0.3920  0.0975
14246SOL    HW254798   2.515   2.753   6.237 -0.5740 -0.0806 -2.0511
14247SOL     OW54799   4.049   6.915   7.485  0.4738  0.4079 -0.0294
14247SOL    HW154800   3.989   6.849   7.530 -0.2034 -0.6943 -2.4648
14247SOL    HW254801   4.093   6.972   7.554 -3.0586  1.0150  1.8670
14248SOL     OW54802   4.160   1.970   1.642 -0.1149 -0.2047 -0.2044
14248SOL    HW154803   4.131   2.030   1.567 -0.8372 -0.1352  0.1238
14248SOL    HW254804   4.079   1.938   1.691  0.3214 -0.7704  0.1460
14249SOL     OW54805   3.351   9.755   3.279 -0.2670  0.2866  0.1272
14249SOL    HW154806   3.394   9.708   3.202  1.0839  1.8356 -0.0905
14249SOL    HW254807   3.260   9.716   3.295 -0.0887 -0.8518 -1.4771
14250SOL     OW54808   1.274   1.948   5.975  0.0725 -0.2560  0.8642
14250SOL    HW154809   1.275   2.040   6.015  0.2095 -0.2247  0.7896
14250SOL    HW254810   1.204   1.892   6.020 -0.1221 -0.0655  0.7994
14251SOL     OW54811   6.956   5.491   7.936  0.0382 -0.1059  0.3480
14251SOL    HW154812   6.947   5.555   7.859  0.9538 -0.7209 -0.2755
14251SOL    HW254813   6.867   5.449   7.954 -0.3307  0.5416  0.0593
14252SOL     OW54814   6.914   9.773   2.742  0.1322  0.4229 -0.1668
14252SOL    HW154815   7.012   9.777   2.762  0.0681 -1.3223  0.5859
14252SOL    HW254816   6.869   9.853   2.780  0.9414  0.1174  1.4868
14253SOL     OW54817   3.032   3.002   8.843 -0.8658  0.2967 -0.2912
14253SOL    HW154818   3.037   2.936   8.768 -1.0335  1.3949 -1.2889
14253SOL    HW254819   3.008   3.092   8.807 -2.5769  0.5142  1.2750
14254SOL     OW54820   5.434   3.589   0.648  0.2650  0.1361  0.3409
14254SOL    HW154821   5.462   3.504   0.693 -0.3512 -0.1397  0.2027
14254SOL    HW254822   5.515   3.646   0.631  0.6446 -0.2986  0.6862
14255SOL     OW54823   3.636   2.108   6.619  0.2865  0.0853  0.4949
14255SOL    HW154824   3.651   2.026   6.674 -0.2206  0.2125  0.8211
14255SOL    HW254825   3.660   2.089   6.524  0.7859 -0.2514  0.6822
14256SOL     OW54826   9.167   0.833   7.589  0.4097 -0.1172  0.0919
14256SOL    HW154827   9.256   0.803   7.556  0.8980  2.1126 -0.7189
14256SOL    HW254828   9.095   0.792   7.534  1.0484  0.2379 -1.0101
14257SOL     OW54829   0.216   0.189   5.869  0.1064  0.0192  0.3138
14257SOL    HW154830   0.241   0.149   5.781 -0.8295  1.4794 -0.6297
14257SOL    HW254831   0.180   0.118   5.929  0.8965 -1.0100 -0.4124
14258SOL     OW54832   9.984   8.473   4.025  0.2045  0.5545 -0.0289
14258SOL    HW154833  10.000   8.538   4.100  0.7765  0.1704  0.1909
14258SOL    HW254834   9.934   8.394   4.061 -1.5776  1.4168 -0.5578
14259SOL     OW54835   2.424   9.687   6.161  0.4068  0.0252 -0.4807
14259SOL    HW154836   2.399   9.608   6.104  1.0392 -1.2456  0.9790
14259SOL    HW254837   2.448   9.656   6.252  2.5288  1.7189 -0.4331
14260SOL     OW54838   9.273   0.401   6.892 -0.7205  0.2821 -0.1310
14260SOL    HW154839   9.243   0.390   6.987  0.1143  0.3683  0.1495
14260SOL    HW254840   9.290   0.498   6.874  1.5999  0.0143  0.4170
14261SOL     OW54841   4.277   8.554   7.148  0.5037 -0.3701 -0.0792
14261SOL    HW154842   4.304   8.469   7.102  0.7725 -0.4068  0.1488
14261SOL    HW254843   4.182   8.576   7.123  0.2085 -1.0967  0.3948
14262SOL     OW54844   2.106   1.423   6.904  0.1883  0.1814  0.1704
14262SOL    HW154845   2.125   1.453   6.998  1.1889  1.4813 -0.4204
14262SOL    HW254846   2.061   1.498   6.855 -1.5875 -0.9735 -0.0158
14263SOL     OW54847   9.865   2.060   9.716  0.2580 -0.0087  0.4670
14263SOL    HW154848   9.958   2.026   9.733 -0.7081 -2.2154  1.4118
14263SOL    HW254849   9.800   2.012   9.775 -1.3739  2.3012  0.6180
14264SOL     OW54850   3.853   5.657   0.790 -0.1146 -0.1301 -0.2451
14264SOL    HW154851   3.914   5.701   0.857 -0.5737 -0.8635  0.6626
14264SOL    HW254852   3.859   5.706   0.703 -0.7623  1.8466  0.7983
14265SOL     OW54853   2.437   2.183   8.758  0.1023  0.1540  0.1619
14265SOL    HW154854   2.410   2.107   8.816 -3.0192  1.8788  1.0996
14265SOL    HW254855   2.460   2.262   8.815  1.2661  0.5690 -0.8522
14266SOL     OW54856   1.174   8.337   3.922 -0.0837 -0.0192 -0.2047
14266SOL    HW154857   1.258   8.295   3.955  0.1522  0.7859  0.2391
14266SOL    HW254858   1.188   8.371   3.829 -0.7928 -2.4209 -1.2087
14267SOL     OW54859   0.813   6.122   8.673  0.0784 -0.4081  0.1096
14267SOL    HW154860   0.825   6.045   8.611 -1.3242 -0.1207 -0.5369
14267SOL    HW254861   0.738   6.179   8.641 -0.4812 -0.0974  1.9321
14268SOL     OW54862   7.312   3.085   1.231 -0.0554 -0.2571 -0.1599
14268SOL    HW154863   7.317   2.997   1.279 -0.4378 -0.6092 -0.7587
14268SOL    HW254864   7.358   3.155   1.285  1.1968 -1.0485 -0.1762
14269SOL     OW54865   1.101   0.310   7.105  0.0261 -0.1626 -0.4100
14269SOL    HW154866   1.043   0.382   7.143 -0.7843 -0.8211 -0.3923
14269SOL    HW254867   1.190   0.348   7.082 -0.0913  0.6438  0.4481
14270SOL     OW54868   4.017   4.916   9.414  0.9561  0.2685  0.3590
14270SOL    HW154869   4.026   4.924   9.513  0.3400  3.5416  0.1928
14270SOL    HW254870   3.925   4.941   9.386  1.2348 -0.2668 -1.1016
14271SOL     OW54871   7.414   0.757   8.802 -0.0908 -0.1167 -0.2689
14271SOL    HW154872   7.467   0.840   8.821  1.5369 -1.2477  0.2381
14271SOL    HW254873   7.428   0.691   8.876 -1.1159 -0.9691 -0.8250
14272SOL     OW54874   5.207   0.759   1.587 -0.1715  0.0873  0.0542
14272SOL    HW154875   5.109   0.758   1.567 -0.0897  0.8352 -0.3921
14272SOL    HW254876   5.250   0.680   1.542 -0.3340  0.5854 -0.9936
14273SOL     OW54877   2.663   9.284   1.201 -0.2052  0.7279 -0.2894
14273SOL    HW154878   2.633   9.254   1.291  0.4940 -0.2975 -0.4004
14273SOL    HW254879   2.760   9.310   1.204 -0.1163  0.4695 -0.8025
14274SOL     OW54880   0.109   0.682   1.240  0.2531 -0.1352 -0.4493
14274SOL    HW154881   0.131   0.778   1.222  2.1746 -0.3813  0.3698
14274SOL    HW254882   0.013   0.665   1.218  0.0348  1.8247 -1.1644
14275SOL     OW54883   2.359   2.591   6.577  0.7947 -0.2433 -0.3445
14275SOL    HW154884   2.393   2.554   6.490  0.5329 -3.4663  0.8686
14275SOL    HW254885   2.411   2.551   6.652 -1.1751  0.0164  1.1719
14276SOL     OW54886   8.153   5.274   0.009  0.2586  0.1571  0.1651
14276SOL    HW154887   8.135   5.216   0.089  0.1017  0.6420  0.4818
14276SOL    HW254888   8.225   5.232  -0.046  1.0589  0.3124  1.0730
14277SOL     OW54889   8.241   0.872   5.315  0.2402  0.0895 -0.1954
14277SOL    HW154890   8.147   0.869   5.348  0.3261 -1.2093 -0.0152
14277SOL    HW254891   8.304   0.889   5.391  0.4746 -3.3261  0.4803
14278SOL     OW54892   3.844   6.366   8.760 -0.2465 -0.0013 -0.1581
14278SOL    HW154893   3.940   6.339   8.767 -0.1378  0.4054 -0.1098
14278SOL    HW254894   3.800   6.352   8.849  0.2675  1.7535  0.3895
14279SOL     OW54895   3.954   1.075   8.096 -0.2439 -0.4225  0.3182
14279SOL    HW154896   3.983   1.005   8.032 -0.6377 -1.8342  1.6609
14279SOL    HW254897   3.862   1.106   8.074  0.4479  0.6566 -1.0928
14280SOL     OW54898   0.136   3.836   1.931  0.3173 -0.2601  0.3264
14280SOL    HW154899   0.139   3.827   1.831  0.0280  0.7886  0.2186
14280SOL    HW254900   0.165   3.928   1.957 -0.7348 -0.1497  1.1421
14281SOL     OW54901   0.664   2.302   9.082 -0.0344  0.1523  0.2977
14281SOL    HW154902   0.745   2.313   9.139  1.0899 -0.0591 -1.2320
14281SOL    HW254903   0.588   2.270   9.138  1.0257  0.0260  1.6847
14282SOL     OW54904   8.460   2.996   5.155  0.1583  0.1242 -0.0347
14282SOL    HW154905   8.380   2.937   5.146 -0.0695  0.3423  0.5564
14282SOL    HW254906   8.437   3.088   5.124  0.1161  0.2396  0.3369
14283SOL     OW54907   3.253   0.104   1.942  0.2996 -0.1057  0.1727
14283SOL    HW154908   3.218   0.194   1.918 -2.1606 -1.3910 -1.2338
14283SOL    HW254909   3.260   0.048   1.860  1.9143 -1.1809  1.0106
14284SOL     OW54910   9.793   6.433   0.995 -0.5153 -0.4901 -0.4005
14284SOL    HW154911   9.765   6.474   0.908 -0.0637  1.4001  0.3284
14284SOL    HW254912   9.830   6.503   1.055 -0.4493 -1.8472  1.1888
14285SOL     OW54913   0.020   0.552   8.382 -0.0265 -0.1341 -0.6853
14285SOL    HW154914  -0.021   0.486   8.319  1.5065 -0.9633 -0.8396
14285SOL    HW254915   0.072   0.619   8.329  1.0251 -0.6636 -0.3311
14286SOL     OW54916   4.273   3.849   0.902 -0.1818  0.6950  0.4679
14286SOL    HW154917   4.306   3.928   0.954  0.5342  1.0870 -0.5691
14286SOL    HW254918   4.349   3.788   0.883 -0.6670 -0.0598  0.9247
14287SOL     OW54919   8.780   9.935   6.931 -0.3343 -0.3926  0.0708
14287SOL    HW154920   8.765   9.882   7.014 -1.3587 -0.1920  0.0245
14287SOL    HW254921   8.759   9.878   6.851  0.7592 -0.6235 -0.0606
14288SOL     OW54922   7.979   7.760   6.362  0.3564 -0.7432 -0.4920
14288SOL    HW154923   7.946   7.768   6.268  0.1826 -1.3622 -0.4913
14288SOL    HW254924   8.060   7.700   6.364  0.1756 -0.9836 -0.2128
14289SOL     OW54925   4.296   8.782   7.876  0.1804  0.1731  0.1375
14289SOL    HW154926   4.255   8.770   7.966 -0.4592 -1.9167 -0.3954
14289SOL    HW254927   4.263   8.709   7.815  0.4705  1.6489 -1.8214
14290SOL     OW54928   9.380   9.965   7.320 -0.3127  0.4041  0.6213
14290SOL    HW154929   9.340  10.048   7.359 -1.5146  1.0444 -1.8842
14290SOL    HW254930   9.470   9.987   7.282 -0.6687  0.6022 -0.1221
14291SOL     OW54931   4.320   3.204   0.825  0.4043  0.5261 -0.1930
14291SOL    HW154932   4.334   3.302   0.833 -1.0384  0.6597  0.9429
14291SOL    HW254933   4.408   3.159   0.809  1.1837  1.9275  0.0729
14292SOL     OW54934   3.316   7.673   8.291  0.0955  0.0420 -0.2201
14292SOL    HW154935   3.383   7.628   8.232  1.1963  1.5289 -0.1429
14292SOL    HW254936   3.239   7.612   8.307  1.8173 -2.0264  0.3666
14293SOL     OW54937   1.731   9.281   7.131  0.1363 -0.0006  0.2093
14293SOL    HW154938   1.701   9.189   7.157 -2.3638  0.6994 -0.1302
14293SOL    HW254939   1.788   9.275   7.049  2.1023 -1.4738  1.6251
14294SOL     OW54940   0.710   3.501   2.929 -0.1551 -0.1753 -0.0149
14294SOL    HW154941   0.624   3.531   2.886 -0.3814  0.9279  1.1761
14294SOL    HW254942   0.780   3.570   2.915  0.9192 -1.6344 -2.0542
14295SOL     OW54943   4.400   5.486   9.520  0.3966  0.1534  0.6443
14295SOL    HW154944   4.395   5.495   9.421 -2.4137  0.7226  0.7983
14295SOL    HW254945   4.388   5.391   9.547 -0.3318  0.2101  0.5137
14296SOL     OW54946   1.286   0.003   4.780  0.4916  0.1626 -0.3847
14296SOL    HW154947   1.227   0.014   4.700 -2.2124  1.0776  1.6875
14296SOL    HW254948   1.360   0.070   4.776 -0.8398  1.6134 -1.0900
14297SOL     OW54949   8.175   2.344   5.448 -0.4380 -0.0899  0.1988
14297SOL    HW154950   8.094   2.353   5.390  0.7524  1.1912 -1.3286
14297SOL    HW254951   8.210   2.251   5.443 -0.7553 -0.1718 -0.6022
14298SOL     OW54952   9.347   6.728   5.216  0.4300 -0.5424 -0.1646
14298SOL    HW154953   9.395   6.766   5.136 -0.6699  1.3440  0.0439
14298SOL    HW254954   9.249   6.748   5.209  0.3564 -0.1502  1.7782
14299SOL     OW54955   8.049   8.651   7.637  0.2879  0.1583  0.2697
14299SOL    HW154956   8.033   8.574   7.699  0.1538 -0.4403 -0.4896
14299SOL    HW254957   8.063   8.616   7.544 -4.1955  1.2195 -0.9596
14300SOL     OW54958   0.181   7.270   8.021  0.3780 -0.6904 -0.5184
14300SOL    HW154959   0.240   7.350   8.021  1.4839 -1.4805 -2.5457
14300SOL    HW254960   0.228   7.194   8.067 -0.4144 -0.3945  0.8261
14301SOL     OW54961   6.899   1.029   0.514 -0.5386  0.6188  0.2922
14301SOL    HW154962   6.991   1.048   0.481  0.4595 -0.7524  2.1956
14301SOL    HW254963   6.846   0.983   0.443  0.6058  0.3731 -0.4100
14302SOL     OW54964   6.744   4.963   9.063  0.3818  0.2774  0.7591
14302SOL    HW154965   6.650   4.984   9.091  0.0336  0.9528 -0.8470
14302SOL    HW254966   6.787   5.046   9.026  1.2184 -0.3069  0.4056
14303SOL     OW54967   9.772   9.733   2.899  0.0640  0.2215 -0.3233
14303SOL    HW154968   9.692   9.766   2.850 -0.6150 -0.6867  0.1758
14303SOL    HW254969   9.768   9.765   2.994  0.1019 -0.1297 -0.2023
14304SOL     OW54970   2.875   1.981   5.737  0.0162 -0.4723 -0.1037
14304SOL    HW154971   2.920   2.069   5.723  0.6929 -0.6700  0.8571
14304SOL    HW254972   2.907   1.915   5.669 -0.8660  0.1499 -1.1490
14305SOL     OW54973   0.463   9.587   5.725 -0.3102  0.7911 -0.2174
14305SOL    HW154974   0.430   9.668   5.772  1.8412  1.0874  0.8570
14305SOL    HW254975   0.515   9.614   5.644  2.1735  0.6618  1.2530
14306SOL     OW54976   8.601   5.377   2.961  0.1170  0.2499 -0.6267
14306SOL    HW154977   8.635   5.471   2.970  0.9622 -0.1077 -0.1331
14306SOL    HW254978   8.514   5.379   2.911 -0.1875  1.3571 -0.0835
14307SOL     OW54979   9.283   3.001   9.787  0.2538 -0.0598 -0.1261
14307SOL    HW154980   9.356   2.992   9.855  1.6240  0.8807 -1.4569
14307SOL    HW254981   9.315   2.965   9.699 -0.9028  0.3153 -0.7029
14308SOL     OW54982   0.536   4.142   6.756 -0.4644 -0.9480 -0.1404
14308SOL    HW154983   0.603   4.215   6.774 -0.1570 -1.6428  1.6722
14308SOL    HW254984   0.584   4.055   6.749 -0.8848 -1.0481 -1.8239
14309SOL     OW54985   0.182   9.635   5.073 -0.5278 -0.0206  0.6049
14309SOL    HW154986   0.135   9.579   5.141 -3.0025  0.5627 -0.5670
14309SOL    HW254987   0.119   9.658   4.999  2.2703 -1.2017 -2.2906
14310SOL     OW54988   8.422   6.389   4.142  0.5870  0.5294  0.2088
14310SOL    HW154989   8.422   6.367   4.239 -0.9393 -0.7803 -0.0760
14310SOL    HW254990   8.347   6.450   4.121 -1.4274 -2.1842 -0.7660
14311SOL     OW54991   9.578   4.594   4.115 -0.2512 -0.2419 -0.0299
14311SOL    HW154992   9.556   4.506   4.073  0.6429 -0.4234 -0.1254
14311SOL    HW254993   9.542   4.596   4.209  0.4670 -1.0439  0.2696
14312SOL     OW54994   5.850   9.089   6.228  0.2040  0.1114  0.2963
14312SOL    HW154995   5.811   9.181   6.221 -0.0688  0.0369  0.8258
14312SOL    HW254996   5.840   9.056   6.322  1.3522  0.0074  0.3932
14313SOL     OW54997   1.165   5.400   0.973  0.3748  0.5601 -0.3701
14313SOL    HW154998   1.081   5.389   1.026  2.0401  0.0401  2.2456
14313SOL    HW254999   1.199   5.311   0.946  1.1801  0.6557  0.3325
14314SOL     OW55000   2.881   2.521   7.477 -0.0301 -0.0372 -0.2737
14314SOL    HW155001   2.859   2.511   7.380  0.9551 -4.0058 -0.1843
14314SOL    HW255002   2.980   2.525   7.489 -0.1038 -0.8829  0.6551
14315SOL     OW55003   8.114   9.233   3.234  0.3422  0.2251  0.2064
14315SOL    HW155004   8.073   9.186   3.312 -0.0428 -0.2403 -0.2687
14315SOL    HW255005   8.058   9.312   3.210  0.8689  0.7924  0.8665
14316SOL     OW55006   3.782   9.766   4.133  0.0950 -0.0205  0.6142
14316SOL    HW155007   3.716   9.695   4.157  0.9526 -1.7034 -1.8545
14316SOL    HW255008   3.830   9.795   4.216  0.6800 -3.2965  1.5142
14317SOL     OW55009   0.360   7.488   5.934  0.4066  0.2065  0.3850
14317SOL    HW155010   0.437   7.551   5.931  0.5525  0.0326  0.4825
14317SOL    HW255011   0.303   7.508   6.014 -0.0751  0.8366 -0.1146
14318SOL     OW55012   4.964   5.530   8.172  0.3737  0.2953  0.8122
14318SOL    HW155013   4.935   5.624   8.159 -0.6411 -0.1369 -0.1561
14318SOL    HW255014   4.961   5.482   8.084  0.8283 -0.6452  1.3044
14319SOL     OW55015   0.008   9.151   3.221  0.3681  0.2297 -0.2005
14319SOL    HW155016  -0.058   9.171   3.294 -0.4815  0.5300 -1.0459
14319SOL    HW255017   0.075   9.084   3.254 -2.2058 -2.4742 -0.3067
14320SOL     OW55018   8.406   9.450   4.386 -0.3021 -0.0671  0.3622
14320SOL    HW155019   8.502   9.428   4.369 -0.1533  0.3249  0.7061
14320SOL    HW255020   8.365   9.376   4.440  0.0671  0.2283  1.0656
14321SOL     OW55021   9.908   3.011   2.914 -0.6242 -0.0124  0.0637
14321SOL    HW155022   9.884   3.104   2.886  1.1616  0.1085 -1.1397
14321SOL    HW255023   9.885   2.947   2.841  0.4071 -0.1978 -0.1051
14322SOL     OW55024   8.948   7.275   0.147 -0.2103 -0.4960 -0.2723
14322SOL    HW155025   8.879   7.332   0.191  0.4501  0.7512 -0.8386
14322SOL    HW255026   8.956   7.189   0.196 -2.1894 -0.6746 -0.2162
14323SOL     OW55027   1.495   7.654   8.401 -0.3979 -0.0002 -0.4714
14323SOL    HW155028   1.576   7.604   8.434  0.0482 -0.0737 -1.6611
14323SOL    HW255029   1.412   7.609   8.434  0.0308  0.3067  1.1068
14324SOL     OW55030   3.299   1.066   2.695 -1.0959  0.4837  0.1935
14324SOL    HW155031   3.356   1.028   2.768 -0.9764  1.4279  0.6006
14324SOL    HW255032   3.233   0.998   2.664 -0.0366 -0.4719  0.0253
14325SOL     OW55033   3.294   5.046   8.403  0.1686  0.1523  0.3639
14325SOL    HW155034   3.393   5.063   8.402  0.3418 -0.7969  0.3923
14325SOL    HW255035   3.278   4.948   8.390 -0.8237  0.5077 -1.1106
14326SOL     OW55036   6.112   6.132   1.700  0.1729  0.1224 -0.0110
14326SOL    HW155037   6.165   6.141   1.615 -2.7311 -2.9873 -2.2716
14326SOL    HW255038   6.168   6.086   1.769  2.7812  3.2216  0.0778
14327SOL     OW55039   9.889   4.994   3.461 -0.1348  0.0634 -0.0622
14327SOL    HW155040   9.846   5.084   3.455  2.3343  1.2722 -0.3539
14327SOL    HW255041   9.986   5.002   3.438 -0.0752 -2.8581 -1.0902
14328SOL     OW55042   3.803   9.715   7.830  0.5560 -0.2217  0.2663
14328SOL    HW155043   3.777   9.770   7.752 -0.3330 -1.1430 -0.0923
14328SOL    HW255044   3.864   9.641   7.800  2.7183  1.2296  0.9193
14329SOL     OW55045   1.367   6.121   2.472 -0.1536  0.7239 -0.4015
14329SOL    HW155046   1.317   6.207   2.477 -0.6538  0.4759 -1.1108
14329SOL    HW255047   1.303   6.045   2.461  0.1985  0.1086  1.6924
14330SOL     OW55048   1.666   5.042   9.515 -0.3422  0.4863  0.1792
14330SOL    HW155049   1.711   5.039   9.604  0.2656  1.0481 -0.1074
14330SOL    HW255050   1.690   5.127   9.468  0.0796 -0.2348 -0.9150
14331SOL     OW55051   5.130   1.659   2.145 -0.3326  0.5066 -0.4717
14331SOL    HW155052   5.088   1.691   2.060  0.0862 -1.5651 -1.5073
14331SOL    HW255053   5.062   1.657   2.218 -1.0836  0.8284 -1.1549
14332SOL     OW55054   0.709   9.522   3.937  0.3100  0.2782  0.1807
14332SOL    HW155055   0.676   9.434   3.971  0.7253  0.0903  0.0967
14332SOL    HW255056   0.676   9.595   3.996  0.8469 -0.0249  0.8659
14333SOL     OW55057   7.599   6.975   5.802  0.0611  0.1997 -0.2580
14333SOL    HW155058   7.574   7.020   5.887  0.8427 -0.8431  0.5388
14333SOL    HW255059   7.520   6.975   5.740 -0.9577 -0.3121  1.0150
14334SOL     OW55060   7.862   4.669   7.080  0.6870  0.1749 -0.5838
14334SOL    HW155061   7.878   4.635   6.987  0.4905 -1.1258 -0.1556
14334SOL    HW255062   7.851   4.591   7.142 -0.7329  1.0392  0.2653
14335SOL     OW55063   9.396   1.568   6.282 -0.0414 -0.8383  0.4007
14335SOL    HW155064   9.319   1.536   6.336 -0.1622  0.2673  0.9029
14335SOL    HW255065   9.446   1.638   6.333  0.0766 -0.0561 -0.7430
14336SOL     OW55066   1.801   2.894   5.190  0.0126 -0.0991 -0.1306
14336SOL    HW155067   1.816   2.969   5.254 -0.8879  0.3738 -0.4580
14336SOL    HW255068   1.753   2.819   5.236 -0.5645  0.2082 -0.2252
14337SOL     OW55069   3.869   9.616  10.003 -0.0929 -0.3964 -0.4201
14337SOL    HW155070   3.909   9.668  10.078 -0.1786 -1.1381  0.1447
14337SOL    HW255071   3.940   9.591   9.938 -0.0500  0.4093 -0.6825
14338SOL     OW55072   4.943   5.151   9.963  0.1322 -0.1354 -0.4378
14338SOL    HW155073   5.009   5.217   9.928 -0.6323  0.1677 -1.3433
14338SOL    HW255074   4.952   5.143  10.062  2.1185 -0.7537 -0.6501
14339SOL     OW55075   4.375   5.345   0.725 -0.2748 -0.3119  0.1307
14339SOL    HW155076   4.432   5.381   0.652 -0.4763 -0.4933 -0.1151
14339SOL    HW255077   4.311   5.277   0.688 -0.5600 -0.2061  0.4256
14340SOL     OW55078   6.973   4.945   9.615 -0.5623  0.2618 -0.1872
14340SOL    HW155079   6.941   4.851   9.627  0.0182 -0.0997 -1.3690
14340SOL    HW255080   7.069   4.952   9.642 -0.5044  0.4335 -0.4327
14341SOL     OW55081   1.134   4.866  10.065  0.2198  0.0694 -0.2260
14341SOL    HW155082   1.109   4.952  10.110  0.0456  0.2163 -0.6021
14341SOL    HW255083   1.051   4.812  10.050  0.0952  0.6233 -1.6131
14342SOL     OW55084   0.875   0.367   0.935  0.0781  0.0401  0.8150
14342SOL    HW155085   0.871   0.440   0.867 -0.0235 -0.2988  0.4482
14342SOL    HW255086   0.956   0.378   0.992  0.5940 -0.1135  0.1197
14343SOL     OW55087   0.450   0.364   7.028  0.0978  0.0984  0.1495
14343SOL    HW155088   0.394   0.446   7.027  0.5728  0.4277  0.4089
14343SOL    HW255089   0.392   0.283   7.018 -0.3182  0.4913 -0.6328
14344SOL     OW55090   3.766   0.832   7.936 -0.1609 -0.3161  0.3040
14344SOL    HW155091   3.836   0.766   7.912 -1.5575 -0.9754 -2.1807
14344SOL    HW255092   3.777   0.914   7.880  0.3910  0.8128  2.0068
14345SOL     OW55093   0.540   6.333   5.931  0.1140  0.2080 -0.4267
14345SOL    HW155094   0.452   6.368   5.901 -0.9174 -2.2435 -0.3402
14345SOL    HW255095   0.527   6.249   5.984  2.4229  0.4032  0.5488
14346SOL     OW55096   7.230   8.378   6.622  0.0166 -0.2195 -0.0800
14346SOL    HW155097   7.144   8.369   6.673  0.7350 -2.7311  0.7979
14346SOL    HW255098   7.297   8.426   6.678 -0.3604  0.4034 -0.1648
14347SOL     OW55099   1.054   0.751   8.536 -0.0971  0.2344  0.1681
14347SOL    HW155100   0.972   0.806   8.518 -1.1274 -1.3583 -0.1176
14347SOL    HW255101   1.027   0.660   8.568  1.5966  0.1729  1.4964
14348SOL     OW55102   8.954   7.624   3.439 -0.1495 -0.5951 -0.2361
14348SOL    HW155103   8.957   7.613   3.538  0.8178  1.2964 -0.0378
14348SOL    HW255104   9.033   7.578   3.398  1.0443  1.0681  0.1426
14349SOL     OW55105   7.431   5.652   6.132 -0.6126  0.5917 -0.4088
14349SOL    HW155106   7.515   5.607   6.101  0.0132  2.4375 -1.4308
14349SOL    HW255107   7.403   5.720   6.065 -2.0514  1.0956  0.6894
14350SOL     OW55108   2.943   2.761   7.640 -0.2375  0.3101 -0.3303
14350SOL    HW155109   3.036   2.745   7.606 -0.1667  0.4068 -0.1820
14350SOL    HW255110   2.878   2.706   7.586 -0.0682  0.0503 -0.2711
14351SOL     OW55111   3.340   3.808   5.196 -0.3925  0.0317  0.0386
14351SOL    HW155112   3.392   3.793   5.112 -0.1022 -0.2032  0.2595
14351SOL    HW255113   3.279   3.887   5.184  1.1061  1.2334  0.3066
14352SOL     OW55114   9.773   6.079   8.519  0.6362 -0.1391 -0.2757
14352SOL    HW155115   9.704   6.140   8.480  0.9618  0.1592 -0.3821
14352SOL    HW255116   9.768   5.990   8.472  1.2014  0.3000 -1.1827
14353SOL     OW55117   4.884   2.745   9.374  0.1683 -0.9582  0.5179
14353SOL    HW155118   4.983   2.740   9.390  0.2599 -3.1710 -0.5616
14353SOL    HW255119   4.848   2.653   9.359 -1.9834 -0.1192  0.3872
14354SOL     OW55120   6.181   5.197   8.109  0.3143 -0.3707 -0.5592
14354SOL    HW155121   6.087   5.163   8.098  0.0417  0.4613 -0.8110
14354SOL    HW255122   6.206   5.197   8.205 -0.1026 -0.1715 -0.4506
14355SOL     OW55123   4.907   3.711  10.061 -0.0001 -0.0965  0.3328
14355SOL    HW155124   4.897   3.781  10.133 -1.6884  0.0179  0.0086
14355SOL    HW255125   4.827   3.713  10.001  0.7402 -1.1580 -0.7180
14356SOL     OW55126   2.458   4.131   1.825  0.4469  0.0341 -0.4936
14356SOL    HW155127   2.479   4.093   1.915  0.4310  2.6714  0.6570
14356SOL    HW255128   2.426   4.057   1.765  0.4471 -1.7671  1.6317
14357SOL     OW55129   8.844   6.655   9.265  0.5733  0.1158  0.0772
14357SOL    HW155130   8.825   6.744   9.307  0.6880  0.3417 -0.3461
14357SOL    HW255131   8.823   6.582   9.330 -0.8545  0.3926 -0.0718
14358SOL     OW55132   0.614   6.680   1.734 -0.7212  0.8708 -0.2151
14358SOL    HW155133   0.625   6.746   1.809  0.7490 -0.8686  1.1189
14358SOL    HW255134   0.519   6.648   1.731 -1.0311  1.7366  0.2193
14359SOL     OW55135   4.086   9.287  10.052  0.1647  0.0791  0.0858
14359SOL    HW155136   4.126   9.195  10.043 -0.2821 -0.1821  0.7456
14359SOL    HW255137   4.036   9.309   9.968  1.4076  0.2738 -0.6158
14360SOL     OW55138   7.504   7.967   5.202 -0.1515 -0.0763 -0.4021
14360SOL    HW155139   7.496   7.928   5.111  0.0059  3.8428 -2.1818
14360SOL    HW255140   7.600   7.984   5.224 -0.1716 -1.1592  0.6034
14361SOL     OW55141   4.062   9.195   4.264  0.5403  0.3932 -0.4947
14361SOL    HW155142   4.000   9.243   4.326 -1.1000  0.3899 -2.1054
14361SOL    HW255143   4.146   9.248   4.254 -0.5255  2.0585 -0.8558
14362SOL     OW55144   1.403   9.174   5.549 -0.1422 -0.0668  0.2521
14362SOL    HW155145   1.452   9.180   5.636  0.8216 -1.0235 -0.1984
14362SOL    HW255146   1.469   9.175   5.474 -0.9841  1.1261 -0.4997
14363SOL     OW55147   3.407   9.969   2.121 -0.0912  0.5074 -0.2288
14363SOL    HW155148   3.348  10.008   2.050 -0.0211 -1.2193 -1.2576
14363SOL    HW255149   3.426  10.039   2.190  0.0688  2.3192 -2.0404
14364SOL     OW55150   8.168   3.472   0.265 -0.0367 -0.3660  0.4057
14364SOL    HW155151   8.148   3.492   0.361 -0.0116 -0.0535  0.3454
14364SOL    HW255152   8.171   3.373   0.252  0.1258 -0.4081  0.7622
14365SOL     OW55153   9.696   7.364   3.293  0.2664 -0.5414  0.1422
14365SOL    HW155154   9.701   7.421   3.376 -1.5672 -1.6244  1.0225
14365SOL    HW255155   9.601   7.356   3.264  0.6864 -1.8363 -0.8984
14366SOL     OW55156   3.528   0.067   4.260 -0.2580 -0.8767 -0.2854
14366SOL    HW155157   3.447   0.123   4.272  0.0452 -0.8358  1.6900
14366SOL    HW255158   3.581   0.065   4.345  2.3095 -0.1339 -1.7984
14367SOL     OW55159   2.272   9.135   2.508  0.1548  0.2044 -0.2230
14367SOL    HW155160   2.236   9.195   2.579  0.4771 -0.0026  0.1167
14367SOL    HW255161   2.299   9.047   2.549 -4.2788 -1.8248 -1.3278
14368SOL     OW55162   3.269   0.656   0.076 -0.0690  0.1742 -0.0927
14368SOL    HW155163   3.183   0.647   0.127 -0.1004 -1.5237 -0.4237
14368SOL    HW255164   3.339   0.599   0.118  0.2254 -0.3430 -1.2699
14369SOL     OW55165   8.136   1.485   8.630  0.5704 -0.0212 -0.9089
14369SOL    HW155166   8.100   1.392   8.633  1.8711 -0.4998  1.4306
14369SOL    HW255167   8.067   1.549   8.664  1.3017 -0.7468  2.0682
14370SOL     OW55168   0.190   7.086   5.631  0.2142  0.0999  0.0800
14370SOL    HW155169   0.145   7.061   5.717 -2.6404  2.0176 -0.7870
14370SOL    HW255170   0.258   7.158   5.648  1.2390 -1.0603  1.0181
14371SOL     OW55171   0.432   3.779   8.953  0.3370 -0.2359  0.0805
14371SOL    HW155172   0.356   3.823   8.905 -2.2112 -2.2073  2.1709
14371SOL    HW255173   0.495   3.740   8.886 -1.3082  0.0521 -1.6855
14372SOL     OW55174   3.370   2.412   9.078 -0.5290 -0.3750 -0.3140
14372SOL    HW155175   3.299   2.479   9.101 -1.7146 -1.5880 -0.4028
14372SOL    HW255176   3.380   2.347   9.153 -1.3597 -1.7676 -1.4019
14373SOL     OW55177   3.659   7.623   1.553 -0.1770 -0.1156 -1.0387
14373SOL    HW155178   3.705   7.552   1.499 -0.0395 -0.5849 -0.3114
14373SOL    HW255179   3.727   7.678   1.601 -0.3593 -0.6950 -0.1065
14374SOL     OW55180   2.503   6.046   9.044 -0.1778  0.4787  0.2776
14374SOL    HW155181   2.534   5.960   9.086 -0.0785  0.5610  0.3732
14374SOL    HW255182   2.408   6.035   9.012 -0.6144  0.7301  1.4513
14375SOL     OW55183   3.250   5.432   5.216 -0.2511 -0.3173 -0.0137
14375SOL    HW155184   3.223   5.462   5.124  1.9426  3.0194  0.3206
14375SOL    HW255185   3.201   5.486   5.284 -0.1563 -1.1692  0.7399
14376SOL     OW55186   4.269   0.005   5.868  0.2685  0.1781  0.3155
14376SOL    HW155187   4.191   0.065   5.887 -0.0461  0.4352 -1.6613
14376SOL    HW255188   4.306   0.026   5.777  1.1035 -1.5878  0.2209
14377SOL     OW55189   9.097   0.902   6.774 -0.5779  0.1804 -0.1227
14377SOL    HW155190   9.140   0.924   6.687 -0.4194  1.2819  0.2299
14377SOL    HW255191   9.098   0.803   6.787  0.1020  0.0630 -1.0057
14378SOL     OW55192   2.177   5.112   8.722 -0.5581 -0.5638 -1.0607
14378SOL    HW155193   2.147   5.198   8.762 -1.0575 -1.4245  0.4826
14378SOL    HW255194   2.183   5.042   8.794  2.1242 -1.2208 -1.8466
14379SOL     OW55195   1.062   9.663   1.970  0.2005  0.3678 -0.2806
14379SOL    HW155196   1.143   9.659   1.912 -0.5793 -2.6450 -1.2230
14379SOL    HW255197   1.083   9.622   2.059 -0.4027 -0.9297 -0.7182
14380SOL     OW55198   1.624   4.931   4.200 -0.1423 -0.0216 -0.0083
14380SOL    HW155199   1.543   4.954   4.148  0.2683 -0.1992 -0.7336
14380SOL    HW255200   1.599   4.870   4.276 -0.8175  0.6746  0.3377
14381SOL     OW55201   2.861   9.518   4.537 -0.4138  0.5441  0.8322
14381SOL    HW155202   2.773   9.561   4.517  0.4759  1.3777 -1.4714
14381SOL    HW255203   2.899   9.479   4.454  1.3409  0.0838  1.8218
14382SOL     OW55204   6.131   2.697   8.967 -0.2146 -0.0049  0.4854
14382SOL    HW155205   6.046   2.747   8.955  0.0103  0.4142  0.6265
14382SOL    HW255206   6.139   2.664   9.061 -0.3384 -0.2687  0.4063
14383SOL     OW55207   0.630   3.979   7.470 -0.0777 -0.1339 -0.0508
14383SOL    HW155208   0.678   3.997   7.556  0.3366 -1.4407  0.0031
14383SOL    HW255209   0.532   3.981   7.486 -0.0045 -0.2630  0.4378
14384SOL     OW55210   8.313   4.726   5.964 -0.2624 -0.3722  0.2475
14384SOL    HW155211   8.391   4.774   5.925  0.5488 -0.7490  1.3725
14384SOL    HW255212   8.228   4.768   5.932  0.4121  0.9297  0.1310
14385SOL     OW55213   9.642   8.970   8.728 -0.0391  0.0270  0.2927
14385SOL    HW155214   9.547   8.984   8.758  0.0786  0.1738  0.5994
14385SOL    HW255215   9.676   9.054   8.685  0.2936  0.3056  1.1071
14386SOL     OW55216   0.746   8.328   8.853 -0.3941 -0.4945  0.0975
14386SOL    HW155217   0.664   8.316   8.908 -0.3678 -0.8229  0.0654
14386SOL    HW255218   0.813   8.382   8.904 -0.4098 -0.7091  0.3497
14387SOL     OW55219   0.715   1.677   5.355 -0.8296 -0.3420 -0.5527
14387SOL    HW155220   0.814   1.687   5.365 -0.7496 -2.2363  0.8634
14387SOL    HW255221   0.694   1.643   5.263 -0.1236 -0.5671 -0.6329
14388SOL     OW55222   1.769   0.909   7.549 -0.5052  0.0131 -0.2368
14388SOL    HW155223   1.750   0.841   7.620 -0.5241 -1.6981 -1.8206
14388SOL    HW255224   1.762   0.865   7.459 -1.7017  2.4288 -1.3575
14389SOL     OW55225   2.239   9.872   6.035 -0.1142 -0.2271 -0.4193
14389SOL    HW155226   2.283   9.797   6.085 -0.7941 -0.2114  0.2124
14389SOL    HW255227   2.145   9.884   6.068 -0.3769  0.1690 -1.2994
14390SOL     OW55228   7.940   9.107   2.843  0.3812  0.6650  0.4047
14390SOL    HW155229   7.953   9.180   2.775 -0.5764 -0.5160 -1.0710
14390SOL    HW255230   7.844   9.081   2.846  1.0414 -2.0659 -0.7073
14391SOL     OW55231   2.638   5.409   9.802 -0.0294 -0.3851  0.0246
14391SOL    HW155232   2.682   5.498   9.800 -0.4180 -0.1699  0.7907
14391SOL    HW255233   2.541   5.419   9.780 -0.4712 -0.3583  1.8662
14392SOL     OW55234   7.913   9.081   9.568 -0.0134  0.0800 -0.5330
14392SOL    HW155235   7.909   9.095   9.667 -0.3898  0.6635 -0.6318
14392SOL    HW255236   8.003   9.045   9.544 -0.2565 -1.0085  0.1383
14393SOL     OW55237   8.634   2.676   9.293  0.1208 -0.1831 -0.1768
14393SOL    HW155238   8.583   2.676   9.378  0.5746 -1.1281  0.1003
14393SOL    HW255239   8.576   2.709   9.219 -0.5822 -0.3292  0.3129
14394SOL     OW55240   0.673   7.174   7.272  0.2606  0.8517  0.2242
14394SOL    HW155241   0.719   7.088   7.246 -2.6455 -0.8695  0.5975
14394SOL    HW255242   0.651   7.227   7.190  0.6840  0.5119 -0.1116
14395SOL     OW55243   7.321   5.130   2.825 -0.5236  0.0588  0.5111
14395SOL    HW155244   7.401   5.168   2.779 -0.0461 -1.9353 -0.3306
14395SOL    HW255245   7.254   5.100   2.757 -0.5430 -1.3428  1.1269
14396SOL     OW55246   3.944   4.100   7.555  0.2795 -0.5370  0.2284
14396SOL    HW155247   3.919   4.087   7.651  2.1861  0.7631  0.9309
14396SOL    HW255248   4.042   4.114   7.548  0.1185 -0.3509 -1.9019
14397SOL     OW55249   0.900   2.910   0.020  0.3471  0.8127  0.1127
14397SOL    HW155250   0.967   2.862   0.077  1.1008  1.9189  0.1757
14397SOL    HW255251   0.903   3.008   0.041 -1.0512  0.9160 -0.1374
14398SOL     OW55252   5.787   2.481   9.859 -0.2771  0.1720 -0.6112
14398SOL    HW155253   5.792   2.563   9.917 -1.4591 -0.1735 -0.0116
14398SOL    HW255254   5.878   2.461   9.822  0.7400 -0.1956  1.9595
14399SOL     OW55255   8.529   0.015   7.595  0.6351  0.7559  0.0774
14399SOL    HW155256   8.484   0.096   7.558 -0.8581 -1.6486 -3.7311
14399SOL    HW255257   8.475  -0.021   7.671 -1.5270  0.4394 -1.5595
14400SOL     OW55258   2.192   3.354   8.246 -0.0388  0.2791  0.5944
14400SOL    HW155259   2.280   3.363   8.292 -0.0980  2.3821  0.3438
14400SOL    HW255260   2.173   3.257   8.228  3.2362 -0.0467 -1.3843
14401SOL     OW55261   1.790   6.973   3.740  0.0887  0.2322 -0.0886
14401SOL    HW155262   1.735   6.900   3.700  3.2202 -1.6756 -1.1216
14401SOL    HW255263   1.778   7.057   3.687 -0.8303 -0.5095 -1.0710
14402SOL     OW55264   5.577   9.162   7.144 -0.5663  0.2811  0.0606
14402SOL    HW155265   5.584   9.221   7.224  2.0716 -1.6161  1.2918
14402SOL    HW255266   5.643   9.191   7.075  0.6807 -1.1379  0.6360
14403SOL     OW55267   5.081   6.309   2.777  0.6542 -0.0888  0.1769
14403SOL    HW155268   5.096   6.394   2.727  3.0210 -0.4450  0.2326
14403SOL    HW255269   4.983   6.295   2.791  0.1746  1.8877 -1.0929
14404SOL     OW55270   9.285   8.208   4.030  0.3440  0.0078 -0.4538
14404SOL    HW155271   9.316   8.282   3.970 -0.0124  3.0531  2.9625
14404SOL    HW255272   9.364   8.165   4.073  0.4495 -0.4301 -1.0785
14405SOL     OW55273   1.044   4.595   9.637  0.4034 -0.1573 -0.4218
14405SOL    HW155274   1.078   4.668   9.697 -0.3279 -0.2009  0.0452
14405SOL    HW255275   1.056   4.507   9.682 -0.0275 -0.2022 -0.3942
14406SOL     OW55276   2.851   9.024   2.457 -0.3452  0.1435  0.2111
14406SOL    HW155277   2.931   8.981   2.415 -0.2438  0.2657  0.2783
14406SOL    HW255278   2.834   8.981   2.546 -0.3763  0.0937  0.1811
14407SOL     OW55279   0.769   8.992   5.524 -0.0101  0.5529  0.2815
14407SOL    HW155280   0.835   8.928   5.564 -0.4011 -1.0825 -1.5888
14407SOL    HW255281   0.678   8.975   5.562  0.1390  0.9425  0.8157
14408SOL     OW55282   2.254   7.944   4.339  0.0728 -0.0209  0.0571
14408SOL    HW155283   2.265   7.862   4.394 -1.7270  0.7092  1.5796
14408SOL    HW255284   2.307   7.936   4.255  1.1723 -2.0533  0.9242
14409SOL     OW55285   6.245   4.679   9.742 -0.4267 -0.2011 -0.4136
14409SOL    HW155286   6.208   4.586   9.738  0.1009 -0.4809  1.0475
14409SOL    HW255287   6.344   4.675   9.732 -0.2415  0.0573  1.2304
14410SOL     OW55288   9.053   9.839   2.405  0.4766  0.0395  0.4773
14410SOL    HW155289   9.007   9.882   2.327  1.7540 -1.0156 -0.8809
14410SOL    HW255290   9.008   9.867   2.490  0.7116  3.3842 -0.4073
14411SOL     OW55291   4.162   1.503   4.890  0.6281 -0.2329  0.1216
14411SOL    HW155292   4.200   1.430   4.834 -0.9273 -1.2155  0.3117
14411SOL    HW255293   4.130   1.578   4.832  0.3324 -0.6223 -0.2203
14412SOL     OW55294   8.854   0.342   4.306 -0.0775  0.1268 -0.3191
14412SOL    HW155295   8.891   0.279   4.238  0.4223 -0.6985  0.6866
14412SOL    HW255296   8.928   0.398   4.342 -0.4285  0.9142 -0.8269
14413SOL     OW55297   8.326   5.670   5.022  0.3105 -0.5442 -0.3489
14413SOL    HW155298   8.322   5.615   4.939 -1.8751 -3.4125  1.5630
14413SOL    HW255299   8.413   5.656   5.068  1.0026  0.0432 -1.4750
14414SOL     OW55300   4.437   1.221   6.895  0.3841  0.8125 -0.0696
14414SOL    HW155301   4.465   1.238   6.800 -0.2517  1.3216 -0.1719
14414SOL    HW255302   4.417   1.309   6.939 -0.2487  0.5121  0.2479
14415SOL     OW55303   3.010   8.207   4.216  0.0320  0.0219  0.2774
14415SOL    HW155304   3.088   8.209   4.153 -1.1338 -0.4841 -1.2168
14415SOL    HW255305   3.000   8.297   4.259  0.0050  0.8132 -1.3414
14416SOL     OW55306   4.711   8.081   8.501 -0.2567  0.0010  0.4832
14416SOL    HW155307   4.734   8.020   8.576  1.8978  0.9848  0.6673
14416SOL    HW255308   4.688   8.027   8.420  2.6786 -1.1056  0.3316
14417SOL     OW55309   0.052   5.342   1.067 -0.1143  0.1551 -0.2275
14417SOL    HW155310  -0.039   5.363   1.104 -0.1712  0.8408 -0.7581
14417SOL    HW255311   0.093   5.425   1.030  0.6129 -0.2139 -0.2539
14418SOL     OW55312   0.768   2.129   8.607  0.1789  0.4643  0.0604
14418SOL    HW155313   0.861   2.135   8.571  0.8318 -2.6470  1.0462
14418SOL    HW255314   0.714   2.066   8.550  0.0298 -1.3104  2.1270
14419SOL     OW55315   3.262   8.628   2.686 -0.3068 -0.6431 -0.1678
14419SOL    HW155316   3.318   8.673   2.756 -0.7737 -0.5242  0.1331
14419SOL    HW255317   3.311   8.549   2.650  0.0367 -0.5670  0.1272
14420SOL     OW55318   3.099   8.247   1.380  0.2136  0.3409 -0.2926
14420SOL    HW155319   3.097   8.157   1.422 -0.4517  0.4318 -0.1252
14420SOL    HW255320   3.113   8.317   1.451 -0.3357  0.4476 -0.2802
14421SOL     OW55321   7.474   9.931   3.465 -0.6116  0.1641 -0.7406
14421SOL    HW155322   7.527   9.993   3.407 -0.5842  0.7064 -0.1302
14421SOL    HW255323   7.513   9.929   3.557 -1.4608  0.3294 -0.3728
14422SOL     OW55324   6.849   5.391   2.076  0.0531  0.4507 -0.3902
14422SOL    HW155325   6.898   5.396   1.989 -0.1420 -1.3520 -0.6337
14422SOL    HW255326   6.775   5.323   2.068 -1.0548  1.5028  0.6569
14423SOL     OW55327   1.659   3.672   9.054  0.2755 -0.2508  0.2603
14423SOL    HW155328   1.724   3.639   8.986 -0.3518 -1.4781  0.2358
14423SOL    HW255329   1.644   3.770   9.041  1.7791 -0.0438 -0.0012
14424SOL     OW55330   9.249   5.862   0.446 -0.0777  0.8373 -0.0077
14424SOL    HW155331   9.178   5.839   0.512 -0.6738  0.0910 -0.9029
14424SOL    HW255332   9.331   5.895   0.495 -0.6910  0.7962  1.0635
14425SOL     OW55333   9.865   9.134   9.432  0.2695  0.2490 -0.0603
14425SOL    HW155334   9.906   9.082   9.507 -0.0990 -0.0564 -0.0697
14425SOL    HW255335   9.935   9.155   9.364  0.2156 -1.1363 -0.5624
14426SOL     OW55336   2.164   6.428   9.677 -0.6257 -0.1423  0.2390
14426SOL    HW155337   2.173   6.472   9.766 -2.5934  1.1032 -0.1356
14426SOL    HW255338   2.251   6.434   9.627  0.1491  0.1423  1.6135
14427SOL     OW55339   5.465   4.240   8.922  0.0204  0.1477  0.4292
14427SOL    HW155340   5.515   4.245   8.835 -0.2753 -0.0186  0.2468
14427SOL    HW255341   5.518   4.189   8.989  0.0154 -0.1802  0.1812
14428SOL     OW55342   5.329   9.291   4.257 -0.9888  0.3710 -0.1293
14428SOL    HW155343   5.247   9.312   4.204 -0.5842  2.3141 -0.0352
14428SOL    HW255344   5.325   9.341   4.344 -0.7823 -1.3356  0.8771
14429SOL     OW55345   3.425   8.034   8.536  0.1816  0.1637  0.5815
14429SOL    HW155346   3.327   8.053   8.532  0.0744 -0.5328 -0.3761
14429SOL    HW255347   3.445   7.977   8.616  0.1191  2.0160  1.9408
14430SOL     OW55348   8.566   1.635   4.316 -0.1788  0.1996 -0.3273
14430SOL    HW155349   8.570   1.734   4.307  0.8085  0.2496  0.5907
14430SOL    HW255350   8.635   1.593   4.256  0.7655  0.1646  0.7695
14431SOL     OW55351   0.154   3.583   4.396 -0.7371 -0.4439  0.2408
14431SOL    HW155352   0.070   3.636   4.407 -0.0369  0.7526 -0.0379
14431SOL    HW255353   0.147   3.525   4.315  1.0611  4.3202 -3.5879
14432SOL     OW55354   7.251   9.948   5.617 -0.3623  0.1373  0.1606
14432SOL    HW155355   7.346   9.919   5.631 -0.7809 -1.0745  0.5691
14432SOL    HW255356   7.242  10.044   5.642  0.7230  0.2117  0.2998
14433SOL     OW55357   4.275   0.790   8.977  0.3438  0.6532  1.0161
14433SOL    HW155358   4.186   0.831   8.957  0.6152 -0.0952 -1.9383
14433SOL    HW255359   4.268   0.691   8.970  1.4852  0.6095  0.4116
14434SOL     OW55360   3.173   8.238   9.589  0.4386 -0.0771 -0.3999
14434SOL    HW155361   3.163   8.288   9.503  1.5624  2.7397  1.0388
14434SOL    HW255362   3.140   8.145   9.577 -0.6301  0.6304 -3.5100
14435SOL     OW55363   8.587   9.100   7.842  0.5462 -0.1300 -0.6289
14435SOL    HW155364   8.498   9.096   7.797 -0.5030 -1.3957  1.5061
14435SOL    HW255365   8.645   9.026   7.807 -0.1568 -0.9160 -0.1715
14436SOL     OW55366   4.064   6.051   7.910 -0.1733 -0.4994  0.5044
14436SOL    HW155367   4.130   5.976   7.911 -0.1792 -0.4974  1.2232
14436SOL    HW255368   4.040   6.073   7.815  0.7714 -0.5705  0.2469
14437SOL     OW55369   1.126   0.528   2.816 -0.1435 -0.6667  0.7234
14437SOL    HW155370   1.124   0.574   2.905 -0.7511  1.8531 -0.5503
14437SOL    HW255371   1.085   0.587   2.747  1.0028 -2.2862 -1.3987
14438SOL     OW55372   3.980   4.729   7.435 -0.5253 -0.1244 -0.7043
14438SOL    HW155373   4.037   4.742   7.516 -1.7810 -0.0708  0.1831
14438SOL    HW255374   4.024   4.662   7.375  0.5914  0.0941 -0.1481
14439SOL     OW55375   8.831   9.823   7.926  0.2294  0.3208  0.0683
14439SOL    HW155376   8.767   9.880   7.977  0.1824  0.2418  0.0982
14439SOL    HW255377   8.827   9.729   7.960 -2.3908 -0.5456 -2.3818
14440SOL     OW55378   6.432   0.813   7.067 -0.0521 -0.0075 -0.3083
14440SOL    HW155379   6.484   0.802   7.152 -1.0566 -0.4443  0.2671
14440SOL    HW255380   6.351   0.754   7.070 -0.2092  0.1402 -1.4796
14441SOL     OW55381   4.702   4.839   6.149  0.2224 -0.6205 -0.0150
14441SOL    HW155382   4.675   4.875   6.059  0.1551  0.6816  0.5216
14441SOL    HW255383   4.674   4.743   6.155  0.5334 -0.8269 -1.5186
14442SOL     OW55384   3.680   1.974   1.615  0.4249 -0.4626  0.4426
14442SOL    HW155385   3.611   1.914   1.657  0.5080 -1.7435 -1.1974
14442SOL    HW255386   3.768   1.959   1.660  0.0629 -0.2692  1.2267
14443SOL     OW55387   9.986   2.517   0.966 -0.6070  0.0245 -0.2763
14443SOL    HW155388  10.030   2.478   0.885 -0.5839  0.8199 -0.6495
14443SOL    HW255389   9.897   2.555   0.941 -0.6230  0.2230  0.0847
14444SOL     OW55390   8.314   8.368   8.430  0.0786  0.1347  0.0715
14444SOL    HW155391   8.276   8.377   8.522  1.7704  1.3226  0.6845
14444SOL    HW255392   8.346   8.458   8.399  0.8239 -0.5370 -1.1039
14445SOL     OW55393   4.010   4.100   9.389 -0.1025 -0.4361  0.3266
14445SOL    HW155394   3.981   4.113   9.294  1.1822  0.4756  0.0438
14445SOL    HW255395   4.084   4.032   9.393 -2.0562 -2.5815  1.0127
14446SOL     OW55396   1.264   2.961   6.162  0.3092 -0.2463  0.4077
14446SOL    HW155397   1.315   2.937   6.244  1.2020 -0.3104 -0.1554
14446SOL    HW255398   1.230   2.877   6.118  0.7305 -0.2749  0.1406
14447SOL     OW55399   5.237   1.063   4.769 -0.5942 -0.8066  0.4088
14447SOL    HW155400   5.296   0.995   4.724 -2.1033 -0.0007 -2.9586
14447SOL    HW255401   5.285   1.151   4.773  0.1580 -1.2589  1.9386
14448SOL     OW55402   0.254   0.097   4.377  0.3341 -0.2848  0.0514
14448SOL    HW155403   0.231   0.124   4.284 -0.7851  0.3454  0.4994
14448SOL    HW255404   0.344   0.133   4.401  0.9048 -0.9813 -0.9923
14449SOL     OW55405   6.574   0.610   3.842 -0.2931 -0.8184  0.5266
14449SOL    HW155406   6.670   0.586   3.835 -0.1772 -1.2667  3.3193
14449SOL    HW255407   6.537   0.579   3.929 -2.9682 -0.5757 -0.4475
14450SOL     OW55408   4.802   3.945   9.655  0.3048 -0.0941  0.2780
14450SOL    HW155409   4.716   3.915   9.615  0.3195 -0.2688  0.3754
14450SOL    HW255410   4.824   4.037   9.624  1.6432 -1.2176 -2.2758
14451SOL     OW55411   2.263   1.780   2.323 -0.4287  0.4353  0.5365
14451SOL    HW155412   2.315   1.821   2.248 -1.3053  0.2326 -0.2020
14451SOL    HW255413   2.171   1.756   2.290 -1.2163  1.4000  1.9925
14452SOL     OW55414   2.926   6.788   7.556  0.4964 -0.0259  0.1789
14452SOL    HW155415   2.828   6.786   7.539  1.0403 -0.3707 -3.4531
14452SOL    HW255416   2.953   6.709   7.611 -1.0247 -0.9473 -0.3901
14453SOL     OW55417   4.247   8.925   0.632  0.2754  0.5886  0.1099
14453SOL    HW155418   4.277   8.830   0.639  0.4965  0.6251 -0.2835
14453SOL    HW255419   4.151   8.932   0.659 -0.4938 -0.1747 -2.2524
14454SOL     OW55420   8.984   6.105   9.775  0.2707 -0.2674  0.0993
14454SOL    HW155421   8.918   6.045   9.730  1.0765 -1.0835  0.0030
14454SOL    HW255422   9.046   6.051   9.831 -0.5597  0.7121  2.0147
14455SOL     OW55423   1.021   4.391   3.598 -0.1374 -0.4636  0.1742
14455SOL    HW155424   0.929   4.426   3.580  0.5084  1.2841  0.1084
14455SOL    HW255425   1.089   4.460   3.569  1.1846 -1.7398  0.1897
14456SOL     OW55426   0.885   5.498   8.983  0.2119  0.2935 -0.5066
14456SOL    HW155427   0.941   5.516   9.063 -1.8960  1.5945  0.7297
14456SOL    HW255428   0.877   5.582   8.928  1.5599 -0.5608 -2.0603
14457SOL     OW55429   0.711   2.881   5.621 -0.4340 -0.0776  0.1394
14457SOL    HW155430   0.716   2.978   5.595 -1.5355 -0.2982 -0.9528
14457SOL    HW255431   0.623   2.863   5.665 -0.5790 -0.7385 -0.4018
14458SOL     OW55432   5.679   5.424   9.755  0.3222 -0.0761  0.2647
14458SOL    HW155433   5.659   5.432   9.657  0.6680 -0.6760  0.1395
14458SOL    HW255434   5.593   5.413   9.805  0.2425 -1.3780 -0.1399
14459SOL     OW55435   4.115   8.738   4.385  0.3971 -0.0941  0.1226
14459SOL    HW155436   4.141   8.793   4.464  0.1974  0.6109 -0.2968
14459SOL    HW255437   4.103   8.797   4.305 -2.5043 -0.3917  0.2854
14460SOL     OW55438   8.067   5.907   6.756 -0.2571  0.0128 -0.0966
14460SOL    HW155439   8.062   5.809   6.775 -1.0116  0.1141  0.2308
14460SOL    HW255440   8.051   5.922   6.658 -0.9911 -0.1234 -0.0032
14461SOL     OW55441   4.357   5.705   9.689  0.4561 -0.3918  0.1561
14461SOL    HW155442   4.284   5.681   9.752 -1.0234 -0.4459 -1.5528
14461SOL    HW255443   4.382   5.624   9.634  1.0003 -0.0878 -0.0475
14462SOL     OW55444   7.820   9.693   8.867  0.4100  0.2088 -0.4608
14462SOL    HW155445   7.889   9.631   8.903  0.5486 -0.5851 -2.0241
14462SOL    HW255446   7.840   9.787   8.895  1.0045 -0.2707  0.7263
14463SOL     OW55447   7.270   9.658   5.076 -0.0705 -0.5111  0.3243
14463SOL    HW155448   7.224   9.727   5.020 -0.2156 -0.1180  0.9261
14463SOL    HW255449   7.338   9.703   5.135  0.7290 -1.0280 -0.1977
14464SOL     OW55450   2.000   0.864   4.468 -0.4951 -0.2162 -0.2293
14464SOL    HW155451   1.937   0.918   4.412 -0.9466 -0.7157 -0.2092
14464SOL    HW255452   2.063   0.924   4.516 -0.3487  0.2420 -0.9857
14465SOL     OW55453   1.091   5.395   7.765 -0.8742  0.2802 -0.1455
14465SOL    HW155454   1.082   5.379   7.667 -1.8870  0.7357 -0.1303
14465SOL    HW255455   1.139   5.318   7.807  0.9133  0.7836 -1.2276
14466SOL     OW55456   7.003   0.426   3.975  0.1076 -0.6745  0.2535
14466SOL    HW155457   6.930   0.400   4.039 -0.4034 -0.4490 -0.2277
14466SOL    HW255458   6.965   0.488   3.907  0.9328  0.0366  0.4382
14467SOL     OW55459   2.577   7.321   9.681  0.2728 -0.0445  0.4055
14467SOL    HW155460   2.531   7.407   9.657  0.8335 -0.2083 -1.3503
14467SOL    HW255461   2.538   7.246   9.627  2.0564 -0.3131 -0.5576
14468SOL     OW55462   2.624   2.174   4.715  0.3042 -0.3329  0.2608
14468SOL    HW155463   2.687   2.246   4.744 -1.3542  0.1555  2.9262
14468SOL    HW255464   2.535   2.215   4.694  0.5530 -1.1213 -2.4587
14469SOL     OW55465   7.672   5.111   6.482  0.0015  0.4057 -0.3070
14469SOL    HW155466   7.635   5.019   6.467  1.0460  0.1075 -1.1571
14469SOL    HW255467   7.608   5.179   6.448 -0.1817 -0.0680 -0.9176
14470SOL     OW55468   0.794   5.362   6.682 -0.0411  0.3029 -0.1637
14470SOL    HW155469   0.735   5.357   6.602 -0.1882  2.5329 -0.2165
14470SOL    HW255470   0.778   5.447   6.731  3.1571  1.0032 -0.2051
14471SOL     OW55471   3.180   9.705   6.220 -0.3888  0.4345  0.3135
14471SOL    HW155472   3.170   9.796   6.179 -0.5774 -0.0337 -0.6742
14471SOL    HW255473   3.271   9.698   6.263 -0.2034  0.9291  0.0023
14472SOL     OW55474   7.607   5.678   7.197  0.8004  0.1142 -0.4862
14472SOL    HW155475   7.545   5.642   7.267  0.3229  2.8204  0.5317
14472SOL    HW255476   7.699   5.639   7.211  0.1554 -1.1927  0.1654
14473SOL     OW55477   1.874   6.356   6.008  0.0730 -0.4567 -0.3854
14473SOL    HW155478   1.866   6.312   6.097 -0.1415 -1.0580 -0.7028
14473SOL    HW255479   1.923   6.443   6.018  3.2599 -2.2056 -0.2510
14474SOL     OW55480   1.558   2.235   5.275 -0.2407  0.2430  0.1055
14474SOL    HW155481   1.533   2.227   5.371 -2.0135  3.6742  0.0036
14474SOL    HW255482   1.650   2.198   5.261  0.1369 -0.0432  3.1501
14475SOL     OW55483   3.904   0.005   8.955  0.4887  0.3969 -0.3434
14475SOL    HW155484   3.825   0.026   9.013  0.5971 -0.3552  0.0887
14475SOL    HW255485   3.987   0.009   9.011  0.3126 -3.3788  0.3317
14476SOL     OW55486   5.340   4.295   0.931  0.4518  0.2977  0.2028
14476SOL    HW155487   5.331   4.266   0.836  0.3860  0.3582  0.1908
14476SOL    HW255488   5.417   4.358   0.940  2.0616 -1.6783  0.6392
14477SOL     OW55489   0.424   5.988   9.252 -0.5191 -0.2083 -0.0028
14477SOL    HW155490   0.403   5.956   9.160 -0.2430  0.0623 -0.1627
14477SOL    HW255491   0.512   5.951   9.281 -0.6193 -0.3152  0.1625
14478SOL     OW55492   9.862   6.236   9.574 -0.0545 -0.1050  0.1818
14478SOL    HW155493   9.878   6.141   9.548 -0.8902  0.1173 -1.2557
14478SOL    HW255494   9.936   6.293   9.539  0.4277 -0.2192  1.0123
14479SOL     OW55495   7.140   3.316   0.554  0.4665 -0.1310  0.7053
14479SOL    HW155496   7.216   3.271   0.601  0.4782 -0.3786  0.4447
14479SOL    HW255497   7.175   3.391   0.498  0.3911  0.5949  1.6047
14480SOL     OW55498   9.617   7.006   3.547  0.5619  0.2614 -0.3653
14480SOL    HW155499   9.658   7.014   3.637 -0.4195 -0.3484  0.1489
14480SOL    HW255500   9.602   7.097   3.509  0.1595  0.5543  0.4756
14481SOL     OW55501   6.495   2.388   0.621 -0.0661 -0.1363 -0.3000
14481SOL    HW155502   6.397   2.396   0.602 -0.2776  0.2214  0.9140
14481SOL    HW255503   6.538   2.477   0.607 -0.2564  0.1767  1.0497
14482SOL     OW55504   4.609   1.512   2.433 -0.1821 -0.0207  0.1362
14482SOL    HW155505   4.642   1.598   2.472 -2.8170 -0.4642  3.4743
14482SOL    HW255506   4.535   1.531   2.368  1.1874  0.3832 -1.3467
14483SOL     OW55507   4.390   2.162   8.941  0.6274 -0.8365 -0.1218
14483SOL    HW155508   4.359   2.256   8.928 -1.3486 -1.3675  0.4066
14483SOL    HW255509   4.486   2.161   8.966  0.9425  0.9686 -1.1911
14484SOL     OW55510   1.598   7.310   8.716  0.2202 -0.4355  0.3942
14484SOL    HW155511   1.506   7.307   8.754 -0.0724 -0.4195 -0.3129
14484SOL    HW255512   1.631   7.405   8.717 -0.0513 -0.3348 -0.0194
14485SOL     OW55513   3.004   6.085   5.063  0.6145  0.0454 -0.4581
14485SOL    HW155514   3.052   6.039   5.137  1.2742 -1.0940 -1.5690
14485SOL    HW255515   3.049   6.063   4.976  0.4427  2.1290 -1.1028
14486SOL     OW55516   7.212   0.622   6.765  0.2911  0.5342 -0.1684
14486SOL    HW155517   7.165   0.706   6.739  0.4601  1.0758  1.1845
14486SOL    HW255518   7.299   0.645   6.810  0.0544 -0.3364  0.7553
14487SOL     OW55519   6.808   0.164   8.658 -0.3247  0.1591 -0.5027
14487SOL    HW155520   6.832   0.072   8.627 -1.0297 -0.6038  1.1762
14487SOL    HW255521   6.888   0.224   8.648  0.2998 -0.7574 -1.0965
14488SOL     OW55522   3.886   9.509   6.908 -0.2038  0.2764  0.3090
14488SOL    HW155523   3.836   9.427   6.936 -0.2259 -0.1424 -0.8959
14488SOL    HW255524   3.962   9.525   6.971 -0.9531  0.0569  1.2849
14489SOL     OW55525   7.750   6.757   3.481 -0.0766  0.0121 -0.4194
14489SOL    HW155526   7.770   6.768   3.383  1.2910 -0.0876 -0.1594
14489SOL    HW255527   7.729   6.661   3.499 -1.6953  0.2675 -0.8458
14490SOL     OW55528   9.449   5.765   2.509  0.0683 -0.4897  0.2812
14490SOL    HW155529   9.449   5.851   2.458 -1.7313 -0.4400  0.3335
14490SOL    HW255530   9.539   5.750   2.549  0.7245  0.8023 -0.6780
14491SOL     OW55531   9.300   4.164   2.938 -0.3609  0.1262  0.2658
14491SOL    HW155532   9.221   4.168   3.000  0.7126 -0.1563  1.6813
14491SOL    HW255533   9.316   4.069   2.911 -1.1491  0.3115 -0.8836
14492SOL     OW55534   3.547   9.042   8.276  0.6955 -0.4217  0.2485
14492SOL    HW155535   3.564   8.956   8.230  1.8706 -0.2473  0.3592
14492SOL    HW255536   3.630   9.098   8.275 -0.3087  1.1170 -0.6952
14493SOL     OW55537   4.237   0.286   5.253  0.3298  0.0756  0.1431
14493SOL    HW155538   4.254   0.351   5.179 -1.8283 -1.6066 -1.9199
14493SOL    HW255539   4.161   0.320   5.310 -1.5980 -1.1183 -1.6381
14494SOL     OW55540   2.472   8.223   2.384 -0.3643  0.4211  0.2071
14494SOL    HW155541   2.486   8.271   2.297  1.7719  0.3355  0.4719
14494SOL    HW255542   2.531   8.263   2.454 -1.8622  0.3016  1.5654
14495SOL     OW55543   8.989   0.662   6.894  1.0415 -0.6334 -0.0505
14495SOL    HW155544   8.905   0.624   6.855  0.9447  0.9281 -1.3642
14495SOL    HW255545   9.065   0.599   6.877  0.9044 -0.2100 -2.3522
14496SOL     OW55546   8.186   1.257   6.984  0.1741  0.1751 -0.4382
14496SOL    HW155547   8.240   1.298   7.057  0.0105 -1.8718  0.8836
14496SOL    HW255548   8.229   1.171   6.956 -0.4076  0.3680 -1.9514
14497SOL     OW55549   4.225   9.361   3.117 -0.1727  0.0620  0.2481
14497SOL    HW155550   4.256   9.404   3.031  1.9992  1.2983  1.5968
14497SOL    HW255551   4.125   9.364   3.122 -0.2152  1.8990 -1.2666
14498SOL     OW55552   9.691   3.745   4.795  0.1518 -0.4456  0.2109
14498SOL    HW155553   9.699   3.804   4.715  1.7462  1.1002  1.4621
14498SOL    HW255554   9.607   3.769   4.845 -0.1476 -0.4898 -0.2653
14499SOL     OW55555   7.674   4.581   6.794  0.2554  0.6955 -0.2201
14499SOL    HW155556   7.628   4.616   6.876  1.8943  0.1589  0.9636
14499SOL    HW255557   7.750   4.641   6.770  1.2450 -0.4184  0.0702
14500SOL     OW55558   8.853   3.057   1.625  0.0207  0.3369 -0.5088
14500SOL    HW155559   8.774   3.065   1.685  0.6780  1.1194  0.2608
14500SOL    HW255560   8.874   2.960   1.612 -0.2915  0.1521  0.3040
14501SOL     OW55561   2.122   2.832   1.313 -0.0991  0.2396 -0.4861
14501SOL    HW155562   2.117   2.820   1.213  2.1167 -1.1070 -0.4558
14501SOL    HW255563   2.212   2.866   1.338 -0.5208  0.1951  1.0974
14502SOL     OW55564   4.890   4.522   7.505 -0.7777  0.3186  0.0522
14502SOL    HW155565   4.939   4.584   7.444 -0.0590 -0.2178  0.0782
14502SOL    HW255566   4.803   4.564   7.532  0.2568  1.8759  1.0622
14503SOL     OW55567   9.546   9.044   2.111  0.2663  0.0201 -0.3419
14503SOL    HW155568   9.582   8.976   2.047 -1.1838 -1.2489  0.1411
14503SOL    HW255569   9.571   9.018   2.205  1.5226  1.3223 -0.3021
14504SOL     OW55570   1.996   8.258  10.062  0.5463  0.0905 -0.0216
14504SOL    HW155571   1.938   8.322  10.012  2.0190  0.3816 -1.4040
14504SOL    HW255572   1.951   8.170  10.069  0.1160  0.1891 -1.4474
14505SOL     OW55573   2.192   3.163   0.128 -0.1606  0.2085  0.2273
14505SOL    HW155574   2.261   3.158   0.200 -1.6421 -1.0874  1.6020
14505SOL    HW255575   2.209   3.243   0.071  1.5673  0.7648  1.4709
14506SOL     OW55576   7.664   7.672   7.589  0.6186 -0.0398 -0.6125
14506SOL    HW155577   7.760   7.645   7.589  0.9717  1.1515  1.7453
14506SOL    HW255578   7.648   7.740   7.660 -2.1365 -0.7792 -0.4798
14507SOL     OW55579   3.623   7.294   3.956 -0.8249 -0.2525  0.6124
14507SOL    HW155580   3.603   7.297   4.054 -0.7564 -0.6782  0.6375
14507SOL    HW255581   3.539   7.311   3.905 -0.9118 -0.2929  0.7417
14508SOL     OW55582   0.472   4.996   7.548  0.8936  0.1589 -0.0420
14508SOL    HW155583   0.513   4.999   7.639  1.1664  0.4617 -0.1725
14508SOL    HW255584   0.396   5.061   7.544  1.0802  0.3739 -0.1239
14509SOL     OW55585   0.183   2.252   5.007  0.1773  0.2829 -0.1866
14509SOL    HW155586   0.148   2.325   4.949  0.0146  0.9906  0.7852
14509SOL    HW255587   0.115   2.179   5.015 -0.0960  0.5310 -0.2781
14510SOL     OW55588   3.707   3.928   5.999 -0.3211 -0.3244  0.2799
14510SOL    HW155589   3.669   3.909   6.089  1.5344 -0.0592  1.1340
14510SOL    HW255590   3.696   3.847   5.941  1.7579 -1.8157  1.8966
14511SOL     OW55591   4.705   2.951   1.119  0.3299  0.3354  0.0747
14511SOL    HW155592   4.720   2.995   1.208  1.5144  1.9053 -0.8851
14511SOL    HW255593   4.607   2.938   1.105  0.2150 -2.0292  2.5920
14512SOL     OW55594   2.988   3.594   8.871  0.0407 -0.8813  0.1302
14512SOL    HW155595   2.928   3.575   8.949  0.5888 -0.0596  0.7549
14512SOL    HW255596   2.957   3.541   8.792 -0.0732 -2.2953  1.1067
14513SOL     OW55597   3.750   2.467   7.607  0.5279  0.1443 -0.0994
14513SOL    HW155598   3.766   2.500   7.700 -0.1796 -0.1995  0.1470
14513SOL    HW255599   3.798   2.526   7.542  1.7462 -0.1249  0.5352
14514SOL     OW55600   5.191   2.069   0.789 -0.7232  0.2954 -0.2714
14514SOL    HW155601   5.147   2.148   0.745 -0.4007  0.2465 -0.6781
14514SOL    HW255602   5.203   1.996   0.722 -0.3815  0.1618 -0.0634
14515SOL     OW55603   4.368   3.955   0.100  0.3499  0.4592  0.4755
14515SOL    HW155604   4.284   3.927   0.053 -0.8904  2.2424  1.5601
14515SOL    HW255605   4.376   3.904   0.186  1.9277 -1.8321 -0.9871
14516SOL     OW55606   1.230   6.293   3.132  0.8541 -0.7190 -0.4137
14516SOL    HW155607   1.304   6.361   3.131 -0.6573  1.0945  2.0384
14516SOL    HW255608   1.158   6.321   3.068 -0.0282  0.4066  1.0054
14517SOL     OW55609   6.076   3.955   8.848  0.3221 -0.2037 -0.5258
14517SOL    HW155610   6.097   4.027   8.914 -1.3422  0.9922 -1.2678
14517SOL    HW255611   6.131   3.874   8.869 -0.2932  0.0923  2.4239
14518SOL     OW55612   9.652   2.842   5.718 -0.4066 -0.1273 -0.3361
14518SOL    HW155613   9.559   2.869   5.693 -0.7470 -1.2915 -0.3237
14518SOL    HW255614   9.664   2.744   5.702  0.7335 -0.0322 -0.0762
14519SOL     OW55615   0.903   9.955   0.639 -0.4450 -0.0514 -0.2655
14519SOL    HW155616   0.966   9.913   0.574 -0.9838  2.2441 -2.3406
14519SOL    HW255617   0.831   9.890   0.663  0.7462 -1.5156 -0.5902
14520SOL     OW55618   2.010   8.596   5.743 -0.6358 -0.1556 -0.1127
14520SOL    HW155619   2.005   8.681   5.795 -0.2296  0.2995 -0.8009
14520SOL    HW255620   2.105   8.577   5.719 -0.7191 -0.8487  0.1176
14521SOL     OW55621   0.248   5.229   4.555 -0.2862 -0.0228  0.0442
14521SOL    HW155622   0.175   5.162   4.568  0.1146 -0.7108 -1.1753
14521SOL    HW255623   0.324   5.208   4.616 -0.0366 -0.8741 -0.5512
14522SOL     OW55624   6.159   9.189   7.270  0.5365 -0.2715 -0.2095
14522SOL    HW155625   6.170   9.226   7.362 -1.8805  0.8959 -0.3524
14522SOL    HW255626   6.087   9.119   7.270 -2.1647  2.3881 -1.8515
14523SOL     OW55627   5.901   6.393   2.634  0.8665 -0.3684 -0.3973
14523SOL    HW155628   5.875   6.360   2.543  1.7700  3.7491 -2.2528
14523SOL    HW255629   5.999   6.410   2.637  1.0506 -1.6330  1.7899
14524SOL     OW55630   7.213   3.492   2.892  0.3603 -0.0203 -0.0625
14524SOL    HW155631   7.139   3.452   2.947 -0.3415  1.6977  0.2530
14524SOL    HW255632   7.212   3.591   2.901  1.2883  0.1744 -1.8764
14525SOL     OW55633   3.416   7.481   0.149  0.3301  0.1892 -0.6788
14525SOL    HW155634   3.348   7.486   0.075  0.8504  0.1779 -1.1600
14525SOL    HW255635   3.498   7.435   0.116  0.3846 -0.2404  0.0529
14526SOL     OW55636   7.411   7.729   5.314  0.4189  0.2468 -0.2044
14526SOL    HW155637   7.450   7.815   5.279  0.2229  0.4280  0.0190
14526SOL    HW255638   7.485   7.672   5.351  0.7269 -0.2961 -1.6374
14527SOL     OW55639   2.096   1.308   4.756  0.2537  0.0470 -0.5572
14527SOL    HW155640   2.067   1.249   4.831 -1.7192  0.1485 -1.1975
14527SOL    HW255641   2.195   1.303   4.746  0.3136 -1.6901  0.6077
14528SOL     OW55642   3.128   1.412   3.552  0.5995 -0.1155  0.4706
14528SOL    HW155643   3.122   1.409   3.452  1.5610  1.3989  0.3672
14528SOL    HW255644   3.223   1.405   3.580  0.4959  1.3935  1.2122
14529SOL     OW55645   9.033   9.045   2.761  0.9683 -0.0528  0.0397
14529SOL    HW155646   9.091   9.118   2.726 -0.3905  1.1843  0.2940
14529SOL    HW255647   8.975   9.081   2.835 -0.7713 -1.0018 -0.8244
14530SOL     OW55648   8.971   1.040   9.212 -0.8207 -0.5017 -0.2267
14530SOL    HW155649   8.994   0.944   9.225 -1.2254 -0.5342  0.2526
14530SOL    HW255650   8.941   1.055   9.118 -0.8072 -0.8539 -0.2868
14531SOL     OW55651   3.118   6.683   4.709 -0.1169  0.3783  0.2439
14531SOL    HW155652   3.019   6.667   4.700 -0.1064  1.2071 -1.6098
14531SOL    HW255653   3.156   6.619   4.776 -1.4077 -1.8925 -1.1156
14532SOL     OW55654   9.358   0.987   3.082 -0.3175 -0.5603 -0.2231
14532SOL    HW155655   9.365   1.086   3.073 -0.0146 -0.5080  0.5160
14532SOL    HW255656   9.357   0.963   3.179  0.7197 -1.3487 -0.3996
14533SOL     OW55657   6.765   1.283   3.246  0.2023 -0.1450  0.2893
14533SOL    HW155658   6.826   1.235   3.311  0.2080 -0.8834 -0.2523
14533SOL    HW255659   6.790   1.380   3.243  0.2151 -0.1053  1.3800
14534SOL     OW55660   4.118   5.092   8.122 -0.5432 -0.1794  0.5801
14534SOL    HW155661   4.065   5.035   8.059  0.8637 -1.5252  0.5870
14534SOL    HW255662   4.107   5.057   8.215 -1.9024  1.2649  0.9822
14535SOL     OW55663   0.240   9.738   1.102 -0.5026 -0.1562  0.2506
14535SOL    HW155664   0.223   9.641   1.122  1.9855 -0.8687 -0.7963
14535SOL    HW255665   0.168   9.772   1.042 -2.0909 -0.9878  1.6358
14536SOL     OW55666   2.444   5.224   8.052 -0.2211 -0.1066 -0.2791
14536SOL    HW155667   2.530   5.251   8.096 -0.9027  0.1022  0.9464
14536SOL    HW255668   2.462   5.149   7.988  1.1445  1.0580 -1.2950
14537SOL     OW55669   4.389   6.969   7.188 -0.4862  0.2233 -0.1874
14537SOL    HW155670   4.424   7.063   7.191  0.9390 -0.2936  0.2819
14537SOL    HW255671   4.405   6.930   7.098  0.2608 -0.0409  0.0521
14538SOL     OW55672   9.249   2.120   9.500  0.1435 -0.7670 -0.2831
14538SOL    HW155673   9.214   2.028   9.516 -1.1367 -0.5021 -1.4521
14538SOL    HW255674   9.235   2.145   9.404 -0.1107  0.8676  0.1565
14539SOL     OW55675   8.633   4.303   3.032  0.2079  0.0316  0.1459
14539SOL    HW155676   8.544   4.325   2.993  1.0437  0.9824 -1.2497
14539SOL    HW255677   8.671   4.384   3.076 -0.7270 -1.0215  3.0137
14540SOL     OW55678   2.587   5.412   3.331  0.8174  0.1222 -0.0211
14540SOL    HW155679   2.617   5.417   3.236  1.5546 -1.0021  0.1318
14540SOL    HW255680   2.493   5.377   3.335  0.3879  1.2386 -0.3889
14541SOL     OW55681   1.782   2.455   2.219  0.3653  0.1352 -0.0272
14541SOL    HW155682   1.708   2.438   2.285  1.1499  0.0268  0.8435
14541SOL    HW255683   1.808   2.551   2.222 -0.6825  0.4685 -1.3456
14542SOL     OW55684   8.118   6.853   8.311  0.2955  0.4745  0.3257
14542SOL    HW155685   8.178   6.896   8.378 -1.2325  2.0426  0.7231
14542SOL    HW255686   8.168   6.838   8.226  1.4680  1.0029  0.9204
14543SOL     OW55687   2.608   6.905   2.699 -0.5375  0.0506  0.0579
14543SOL    HW155688   2.689   6.919   2.756 -0.9333  3.1334 -0.0976
14543SOL    HW255689   2.529   6.950   2.740 -1.7036 -1.0430 -0.9367
14544SOL     OW55690   6.497   0.058   4.277  0.3575  0.0793 -0.3684
14544SOL    HW155691   6.537   0.030   4.190 -0.2851  0.8322 -0.9118
14544SOL    HW255692   6.399   0.074   4.265  0.3134  0.4258  0.4381
14545SOL     OW55693   8.911   5.439   9.128  0.2878 -0.4774 -0.1964
14545SOL    HW155694   9.008   5.456   9.147 -0.1508  2.1902 -0.2484
14545SOL    HW255695   8.891   5.465   9.033 -0.3915 -1.4805 -0.3330
14546SOL     OW55696   4.013   2.411   4.720  0.3905 -0.4440  0.0638
14546SOL    HW155697   3.933   2.453   4.762  0.3935 -0.9155  0.5375
14546SOL    HW255698   4.047   2.471   4.648  1.6530  1.4281  2.1338
14547SOL     OW55699   3.665   8.957   3.254 -0.2890  0.9567 -0.1938
14547SOL    HW155700   3.738   8.969   3.186 -1.1125  2.4829 -0.8402
14547SOL    HW255701   3.705   8.927   3.341  0.7311 -1.4021 -1.4333
14548SOL     OW55702   1.084   2.696   5.995 -0.2592  0.7198 -0.0342
14548SOL    HW155703   1.050   2.750   5.918 -0.2529  1.2069  0.2973
14548SOL    HW255704   1.008   2.672   6.055 -0.3882 -0.3983 -0.6444
14549SOL     OW55705   0.257   4.688   7.285  0.4316 -0.6603  0.0379
14549SOL    HW155706   0.215   4.600   7.308  2.2567 -1.0650  1.9031
14549SOL    HW255707   0.215   4.760   7.339 -0.5113 -0.4839 -0.9116
14550SOL     OW55708   2.233   1.422   2.504  0.2537 -0.2572 -0.6476
14550SOL    HW155709   2.192   1.438   2.413  0.1828  2.1498 -0.2343
14550SOL    HW255710   2.239   1.324   2.521 -0.0782 -0.7427 -3.1095
14551SOL     OW55711   6.271   3.895   9.912  0.1073 -0.8228 -0.0265
14551SOL    HW155712   6.354   3.864   9.959 -0.0289 -0.4385  0.4775
14551SOL    HW255713   6.190   3.857   9.958  0.0257 -1.7637 -0.9418
14552SOL     OW55714   6.218   0.473   6.923 -0.3163  0.2918 -0.2334
14552SOL    HW155715   6.259   0.393   6.965  2.6697  0.8588 -1.9378
14552SOL    HW255716   6.182   0.533   6.994  0.3634 -1.0054  1.2386
14553SOL     OW55717   0.268   7.152   2.471 -0.2712 -0.2656 -0.4335
14553SOL    HW155718   0.248   7.068   2.521 -0.7318  0.0282 -0.1085
14553SOL    HW255719   0.366   7.159   2.455 -0.2837 -1.1001 -0.8961
14554SOL     OW55720   8.808   5.583   2.147 -0.2535  0.1143  0.1474
14554SOL    HW155721   8.822   5.682   2.156 -3.3309  0.3566  2.9941
14554SOL    HW255722   8.828   5.539   2.235 -0.2060 -1.6554 -0.7353
14555SOL     OW55723   7.934   7.387   4.686 -0.3538 -0.6668  0.0779
14555SOL    HW155724   7.922   7.447   4.607 -0.1289 -0.7977 -0.0541
14555SOL    HW255725   8.010   7.324   4.670 -1.0749 -1.5000 -0.1026
14556SOL     OW55726   5.530   0.130   6.656 -0.2308  0.2720 -0.6860
14556SOL    HW155727   5.623   0.095   6.661 -0.0352  0.6983 -1.2258
14556SOL    HW255728   5.532   0.230   6.655 -0.5848  0.2777 -2.5026
14557SOL     OW55729   5.665   4.783   1.021  0.7488  0.1128 -0.2032
14557SOL    HW155730   5.763   4.801   1.012  0.3495  2.5248 -0.1094
14557SOL    HW255731   5.651   4.686   1.044  3.1830  0.0357  1.1946
14558SOL     OW55732   3.051   2.710   3.448  0.1185 -0.3934 -0.5941
14558SOL    HW155733   3.016   2.765   3.372 -0.3225 -0.2582 -0.2980
14558SOL    HW255734   3.055   2.765   3.531  0.9276 -0.4461 -0.5974
14559SOL     OW55735   9.727   4.225   7.883  0.0602 -0.0050 -0.0481
14559SOL    HW155736   9.788   4.148   7.901  1.6158  1.1793 -0.1917
14559SOL    HW255737   9.745   4.299   7.948  0.6732  1.4153 -1.7942
14560SOL     OW55738   5.719   0.307   3.012 -0.3790  0.1566 -0.9975
14560SOL    HW155739   5.637   0.364   3.011  0.7050  1.7920  0.4261
14560SOL    HW255740   5.800   0.365   3.017  0.7696 -1.5070  0.2926
14561SOL     OW55741   1.208   6.521   1.808 -0.0954  0.7245 -0.0882
14561SOL    HW155742   1.249   6.589   1.868  1.0655  0.8089 -0.9678
14561SOL    HW255743   1.252   6.432   1.822 -3.8254 -0.7306  3.4960
14562SOL     OW55744   0.754   8.243   5.290  0.1355 -0.7641  0.0724
14562SOL    HW155745   0.797   8.269   5.376  0.2669 -0.4376 -0.0912
14562SOL    HW255746   0.664   8.285   5.283  0.0559 -0.9240  0.1248
14563SOL     OW55747   9.115   0.238   3.376  0.5470  0.4473  0.1992
14563SOL    HW155748   9.096   0.263   3.281  1.1132 -0.4786 -0.1623
14563SOL    HW255749   9.164   0.151   3.379 -2.1621 -1.0700  1.4829
14564SOL     OW55750   7.230   7.268   3.512  0.5150  0.9771  0.5337
14564SOL    HW155751   7.329   7.256   3.510  0.1801 -2.2680 -1.7436
14564SOL    HW255752   7.191   7.202   3.577 -0.3786 -0.6504 -1.5776
14565SOL     OW55753   1.107   4.904   0.564  0.5201 -0.4386  0.1512
14565SOL    HW155754   1.111   4.948   0.474  0.1124  2.2794  1.4204
14565SOL    HW255755   1.200   4.888   0.597  0.6779  0.1014 -0.0258
14566SOL     OW55756   7.788   2.188   5.536 -0.3263  0.4136 -0.0379
14566SOL    HW155757   7.799   2.104   5.590 -0.4678 -0.7182 -1.7232
14566SOL    HW255758   7.699   2.228   5.555 -0.7014 -0.4108 -0.0305
14567SOL     OW55759   2.885   3.602   4.594  0.2211  0.3412 -0.5290
14567SOL    HW155760   2.933   3.514   4.596 -1.0192 -0.3622 -0.9677
14567SOL    HW255761   2.828   3.611   4.675 -0.2848  0.3698 -0.8809
14568SOL     OW55762   3.338   3.158   5.970  0.2235 -0.0158  0.4649
14568SOL    HW155763   3.424   3.124   5.932  0.4693  0.5112  0.5552
14568SOL    HW255764   3.342   3.154   6.070  0.1458  0.0239  0.4694
14569SOL     OW55765   9.125   5.898   4.833 -0.2375  0.4279 -0.1166
14569SOL    HW155766   9.145   5.893   4.736 -0.0506 -0.6373 -0.0242
14569SOL    HW255767   9.210   5.912   4.884 -0.1045 -0.8309  0.0250
14570SOL     OW55768   8.380   3.922   5.027  0.0534 -0.1935 -0.1179
14570SOL    HW155769   8.336   3.855   4.967  0.4155  1.2898 -2.1302
14570SOL    HW255770   8.460   3.881   5.070 -0.2462 -1.3205 -0.6192
14571SOL     OW55771   1.724   1.113   2.376  0.1942 -0.0020 -0.0462
14571SOL    HW155772   1.818   1.127   2.407 -0.3488 -0.6288  1.9238
14571SOL    HW255773   1.687   1.030   2.417 -1.6749  0.9564  0.2664
14572SOL     OW55774   7.750   6.887   7.816 -0.3792 -0.0515 -0.1685
14572SOL    HW155775   7.657   6.922   7.829 -0.3381 -0.4280  1.2090
14572SOL    HW255776   7.752   6.789   7.834  0.5159  0.1667  0.9701
14573SOL     OW55777   5.741   9.167   9.586 -0.6017  0.1619  0.4205
14573SOL    HW155778   5.812   9.119   9.534  0.6286  1.1498  1.1588
14573SOL    HW255779   5.709   9.108   9.661  2.3032  1.1354  2.5425
14574SOL     OW55780   7.293   8.811   8.142 -1.1288 -0.8027 -0.0521
14574SOL    HW155781   7.289   8.752   8.061 -1.9990 -1.9769  0.8400
14574SOL    HW255782   7.382   8.802   8.186 -1.5260 -2.0233  0.5077
14575SOL     OW55783   3.120   3.960   9.263 -0.1331  0.5768  0.5553
14575SOL    HW155784   3.135   3.925   9.355 -3.5171 -2.3950  0.0865
14575SOL    HW255785   3.058   4.038   9.267 -1.7435 -0.6761  0.7101
14576SOL     OW55786   9.500   5.605   5.629 -0.3005  0.1285 -0.5660
14576SOL    HW155787   9.537   5.605   5.536  2.5462  0.6672  0.5149
14576SOL    HW255788   9.564   5.558   5.690 -2.3800 -0.6702  1.0313
14577SOL     OW55789   2.373   1.021   1.895  0.0816  0.1687 -0.2783
14577SOL    HW155790   2.377   0.934   1.846  0.1408  0.5607 -0.9602
14577SOL    HW255791   2.279   1.055   1.896  0.0692  0.1311 -0.0639
14578SOL     OW55792   5.911   3.098   8.838  0.0659 -0.2938 -0.3967
14578SOL    HW155793   5.980   3.028   8.819 -0.5365 -0.8528 -0.5508
14578SOL    HW255794   5.826   3.054   8.867 -0.4742  0.3489 -0.9810
14579SOL     OW55795   2.452   3.579   9.110 -0.2461 -0.2901  0.3787
14579SOL    HW155796   2.510   3.506   9.074  0.0018  1.1931 -2.3833
14579SOL    HW255797   2.508   3.647   9.157  0.8017  2.4368 -4.4295
14580SOL     OW55798   8.721   5.307   5.694  0.4850 -0.4384  0.0783
14580SOL    HW155799   8.701   5.251   5.613 -0.8034 -0.3478  0.3110
14580SOL    HW255800   8.685   5.399   5.680 -0.0107 -0.5057  0.8557
14581SOL     OW55801   2.393   5.032   4.452  0.3083 -0.4401 -0.3712
14581SOL    HW155802   2.420   5.057   4.545 -3.0858 -1.9207  1.0785
14581SOL    HW255803   2.345   5.109   4.409 -1.2928 -0.9546  0.4500
14582SOL     OW55804   8.134   8.776   8.976  0.0452 -0.0115  0.3830
14582SOL    HW155805   8.151   8.686   9.015  0.7645  0.3372  0.8791
14582SOL    HW255806   8.101   8.838   9.047  1.6003  0.6910  0.5040
14583SOL     OW55807   3.890   3.230   2.958 -0.0090 -0.2381 -0.2739
14583SOL    HW155808   3.820   3.272   2.901 -0.8806 -0.6027  0.5041
14583SOL    HW255809   3.953   3.179   2.901  1.7043  2.9605 -1.3489
14584SOL     OW55810   2.105   0.564   7.759  0.7281  0.4186 -0.1892
14584SOL    HW155811   2.201   0.588   7.772 -0.0809  2.2825  3.0161
14584SOL    HW255812   2.071   0.516   7.840 -0.7220 -1.4688 -1.8485
14585SOL     OW55813   3.015   6.478   9.000 -0.0961  0.6643  0.0657
14585SOL    HW155814   2.916   6.466   8.991  0.2793 -2.0018 -0.8924
14585SOL    HW255815   3.050   6.416   9.070  1.4369 -1.2967 -2.3672
14586SOL     OW55816   4.068   0.042   3.503  0.7231  0.1601 -0.3673
14586SOL    HW155817   4.102  -0.025   3.437  1.0838 -0.4079  0.3879
14586SOL    HW255818   4.071   0.003   3.595 -2.9280 -0.3115 -0.3529
14587SOL     OW55819   1.108   3.087   6.401 -0.2371 -1.2855  0.3781
14587SOL    HW155820   1.163   3.145   6.461 -0.9007 -0.3778  0.1232
14587SOL    HW255821   1.168   3.041   6.335  0.2836 -0.8149  0.5200
14588SOL     OW55822   6.818   8.041   5.246  0.6216  0.5484 -0.3464
14588SOL    HW155823   6.744   7.977   5.224  3.2619 -2.5234 -0.5948
14588SOL    HW255824   6.841   8.094   5.164  0.4830 -0.3746 -0.9877
14589SOL     OW55825   8.282   3.219   0.159 -0.2931  0.1719  0.1260
14589SOL    HW155826   8.308   3.127   0.191  0.3926  0.9781  1.9644
14589SOL    HW255827   8.360   3.280   0.166 -0.2935  0.5358 -2.6456
14590SOL     OW55828   3.465   3.086   4.741  0.4400 -0.2423  0.4088
14590SOL    HW155829   3.447   3.099   4.644 -0.7008  0.9517  0.7737
14590SOL    HW255830   3.558   3.116   4.763  0.3920  0.3032 -0.1497
14591SOL     OW55831   4.406   3.938   7.928 -0.3010 -0.1507  0.6215
14591SOL    HW155832   4.392   3.891   8.015  1.2412 -0.5685  0.6591
14591SOL    HW255833   4.504   3.953   7.914 -0.5021 -0.5041 -1.2637
14592SOL     OW55834   6.979   6.069   7.047 -0.3061 -0.1958 -0.1324
14592SOL    HW155835   7.073   6.071   7.082  0.0945 -0.6889 -1.1769
14592SOL    HW255836   6.929   6.147   7.083  0.8021  0.6554 -0.3981
14593SOL     OW55837   1.754   0.017   3.732 -0.0649 -0.1688  0.4539
14593SOL    HW155838   1.770   0.095   3.792 -2.0949  0.7733 -0.1691
14593SOL    HW255839   1.836  -0.002   3.678  1.0815  0.2878  2.0080
14594SOL     OW55840   8.442   7.975   9.522  0.5021 -0.2087 -0.8256
14594SOL    HW155841   8.425   8.004   9.616  0.0076  0.4580 -1.1160
14594SOL    HW255842   8.537   7.994   9.498  0.5575 -0.1347 -0.5487
14595SOL     OW55843   3.928   8.539   7.674  0.2459  0.0807 -0.2666
14595SOL    HW155844   3.873   8.593   7.738 -0.2968 -0.1746 -0.5209
14595SOL    HW255845   3.899   8.444   7.677  0.1618  0.0899 -0.9660
14596SOL     OW55846   4.440   8.101   8.690  0.7039 -0.5069  0.0738
14596SOL    HW155847   4.497   8.143   8.620  0.4063  1.0868  0.7812
14596SOL    HW255848   4.402   8.015   8.655  2.6128 -1.0247 -0.7960
14597SOL     OW55849   3.674   6.574   8.278 -0.8181  0.1449 -0.1074
14597SOL    HW155850   3.631   6.518   8.207  0.7177  0.2009 -1.1014
14597SOL    HW255851   3.774   6.566   8.271 -0.6297  1.2304  1.1764
14598SOL     OW55852   8.565   1.602   3.635  0.2505 -0.5806  0.2314
14598SOL    HW155853   8.567   1.567   3.542  1.5327 -0.1154  0.0770
14598SOL    HW255854   8.471   1.629   3.659 -0.0046 -0.3211 -1.0539
14599SOL     OW55855   4.900   0.634   5.498 -0.1592  0.5207  0.0509
14599SOL    HW155856   4.883   0.700   5.426 -0.9019  0.3925  0.1056
14599SOL    HW255857   4.998   0.631   5.519 -0.0458  1.1211 -0.4051
14600SOL     OW55858   2.325   7.143   9.268 -0.4064 -0.6798 -0.0683
14600SOL    HW155859   2.387   7.066   9.254  0.6373  0.3339 -1.1152
14600SOL    HW255860   2.261   7.149   9.191  0.8432  0.7144 -1.0293
14601SOL     OW55861   3.592   3.153   1.903  0.4624  0.5905  0.0008
14601SOL    HW155862   3.595   3.142   1.804 -1.3397  1.0208 -0.1167
14601SOL    HW255863   3.672   3.206   1.933  0.0489  2.0907 -1.4441
14602SOL     OW55864   2.213   7.014   7.235 -0.1000 -0.0772  0.5089
14602SOL    HW155865   2.171   6.937   7.188 -0.9758 -0.2703  1.5667
14602SOL    HW255866   2.267   7.068   7.171  0.1992 -1.3464 -0.3184
14603SOL     OW55867   5.639   0.643   7.515 -0.6249 -0.7618  0.2479
14603SOL    HW155868   5.598   0.649   7.423 -1.3899 -1.2682  0.5443
14603SOL    HW255869   5.569   0.612   7.580  0.2629 -1.7160  0.7551
14604SOL     OW55870   6.815   2.299   9.548  0.3781 -0.2481  0.2875
14604SOL    HW155871   6.897   2.250   9.517  0.9033 -0.1537  1.4859
14604SOL    HW255872   6.820   2.312   9.647 -1.5008 -0.9801  0.4865
14605SOL     OW55873   0.064   7.425   4.281 -0.0545  0.3098  0.3817
14605SOL    HW155874   0.160   7.424   4.309  1.0616  1.2151 -3.1735
14605SOL    HW255875   0.038   7.517   4.253 -1.3139 -0.3912 -0.8343
14606SOL     OW55876   4.483   7.608   5.015  0.3368  0.2864 -0.4466
14606SOL    HW155877   4.442   7.693   5.047  0.2521 -0.2524  0.9127
14606SOL    HW255878   4.582   7.619   5.008  0.3132  0.5308 -0.3850
14607SOL     OW55879   0.988   2.103   1.653  0.2613 -0.0646  0.2865
14607SOL    HW155880   1.080   2.128   1.685  0.0918 -0.3911  1.0371
14607SOL    HW255881   0.982   2.004   1.642  0.9087  0.1674 -2.6155
14608SOL     OW55882   5.991   9.872   2.127  0.1037  0.4385  0.3263
14608SOL    HW155883   5.905   9.839   2.089  0.2179 -0.3822  0.7592
14608SOL    HW255884   5.995   9.972   2.121 -1.4416  0.5808  1.4740
14609SOL     OW55885   4.923   9.625   8.516  0.2986 -0.1452 -0.1734
14609SOL    HW155886   4.857   9.573   8.462 -1.9955 -0.2641  2.5867
14609SOL    HW255887   5.008   9.573   8.524 -0.4933 -1.5808 -0.9540
14610SOL     OW55888   0.403   8.683   0.783 -0.2333 -0.4477  0.8301
14610SOL    HW155889   0.327   8.618   0.776  0.4366 -1.2207  0.8264
14610SOL    HW255890   0.385   8.746   0.858 -1.0942 -0.3511  0.5556
14611SOL     OW55891   4.217   0.375   2.296  0.1746 -0.1057  0.4567
14611SOL    HW155892   4.224   0.389   2.197  1.2516 -2.1257  0.2205
14611SOL    HW255893   4.296   0.414   2.342 -0.4120  0.9901  0.5578
14612SOL     OW55894   1.460   2.978   9.788 -0.1682 -0.5424 -0.0030
14612SOL    HW155895   1.492   2.918   9.714 -0.1044 -2.7409  1.7638
14612SOL    HW255896   1.360   2.976   9.791 -0.3165  1.8242 -1.8377
14613SOL     OW55897   4.676   2.401   0.392 -0.1809  0.2838  0.2500
14613SOL    HW155898   4.694   2.444   0.481 -2.2430 -1.1742  1.3877
14613SOL    HW255899   4.720   2.312   0.388  1.3228  1.0354 -0.8765
14614SOL     OW55900   6.235   9.855   2.802  0.1306  0.3782  0.3725
14614SOL    HW155901   6.209   9.817   2.713  0.7853 -1.6917  1.0395
14614SOL    HW255902   6.190   9.802   2.875  1.8237  0.2499  1.3491
14615SOL     OW55903   7.525   2.525   0.655  0.2363 -0.5169  0.1453
14615SOL    HW155904   7.432   2.539   0.689 -0.2170 -0.8401 -0.9557
14615SOL    HW255905   7.540   2.581   0.574  1.3059  0.2127  0.8178
14616SOL     OW55906   1.626   9.973   2.878 -0.2543 -0.3519  0.4433
14616SOL    HW155907   1.560  10.040   2.914  1.8619  2.0354 -0.0234
14616SOL    HW255908   1.645   9.994   2.782  0.7229 -1.3945  0.4078
14617SOL     OW55909   0.843   3.659   8.436 -0.3282 -0.4674 -0.0209
14617SOL    HW155910   0.818   3.719   8.360 -0.4449 -0.0233  0.3617
14617SOL    HW255911   0.814   3.701   8.522 -0.0669 -0.8982  0.2789
14618SOL     OW55912   1.926   3.115   7.271 -0.0707  0.1375  0.2293
14618SOL    HW155913   1.866   3.177   7.322 -2.0218 -1.3432 -0.1948
14618SOL    HW255914   1.871   3.040   7.233  1.9647 -0.8715 -0.7728
14619SOL     OW55915   1.054   3.098   4.457 -0.0989 -0.1545 -0.5657
14619SOL    HW155916   1.115   3.031   4.415  2.0325  1.4067 -0.0717
14619SOL    HW255917   1.085   3.190   4.434 -1.5754  0.6832  0.6909
14620SOL     OW55918   4.579   4.374   2.866 -0.5540  0.0776 -0.2175
14620SOL    HW155919   4.555   4.451   2.807  0.9303  1.0858  0.4479
14620SOL    HW255920   4.678   4.373   2.880 -0.6775 -1.3589  0.5980
14621SOL     OW55921   8.324   9.573   1.825 -0.5929 -0.7707 -0.3025
14621SOL    HW155922   8.260   9.513   1.777 -0.3632 -1.7147  0.5662
14621SOL    HW255923   8.272   9.643   1.874 -0.9242 -1.0461 -0.2547
14622SOL     OW55924   2.436   5.672   8.994 -0.0038 -0.3454  0.2240
14622SOL    HW155925   2.376   5.737   9.041  0.9887  1.8101 -1.4090
14622SOL    HW255926   2.521   5.661   9.045  0.4775  0.8718 -0.3054
14623SOL     OW55927   7.157   7.272   8.547 -0.1235  0.0003 -0.8024
14623SOL    HW155928   7.099   7.343   8.507  1.6235  2.1210  0.3637
14623SOL    HW255929   7.171   7.290   8.644 -0.5832 -2.5992 -0.2042
14624SOL     OW55930   1.221   4.959   9.651 -0.4109 -0.0776 -0.1056
14624SOL    HW155931   1.213   4.895   9.575 -0.4522  0.6649 -0.7331
14624SOL    HW255932   1.247   4.909   9.734  1.3151 -0.6656 -0.9758
14625SOL     OW55933   5.308   9.392   7.984 -0.2355 -0.5339  0.6725
14625SOL    HW155934   5.278   9.399   7.889 -0.3047 -2.1516  0.5665
14625SOL    HW255935   5.302   9.482   8.027  2.3323  0.7803 -1.5681
14626SOL     OW55936   4.810   2.204   0.944 -0.7030 -0.2630  0.7375
14626SOL    HW155937   4.905   2.216   0.916 -0.2444 -0.8134  2.0416
14626SOL    HW255938   4.772   2.124   0.898 -0.0667 -0.9420  1.3807
14627SOL     OW55939   0.187   1.286   3.298  0.3406 -0.1678  0.1651
14627SOL    HW155940   0.138   1.371   3.280  0.5337  0.0719  0.7435
14627SOL    HW255941   0.246   1.298   3.378  0.8208 -0.6608 -0.1048
14628SOL     OW55942   3.754   4.460   9.901  0.0242 -0.5552 -0.5584
14628SOL    HW155943   3.686   4.534   9.904  0.7853  0.2092 -1.5143
14628SOL    HW255944   3.846   4.500   9.898  0.4289 -1.5255 -1.4765
14629SOL     OW55945   8.034   0.346   3.882 -0.0821 -0.0822  0.5524
14629SOL    HW155946   7.988   0.304   3.961  1.6078 -0.6224  1.2733
14629SOL    HW255947   8.060   0.275   3.818 -1.9678  0.4105 -0.8108
14630SOL     OW55948   5.255   2.070   1.540  0.1493  0.2435  0.4378
14630SOL    HW155949   5.195   2.130   1.593  0.2131  2.0273 -1.4174
14630SOL    HW255950   5.219   1.977   1.541 -1.0481  0.7041  1.7378
14631SOL     OW55951   4.820   2.246   0.177 -0.1863 -1.0249 -0.1152
14631SOL    HW155952   4.742   2.202   0.222 -2.2693  3.0867  0.4722
14631SOL    HW255953   4.883   2.281   0.246 -0.0100 -0.5765 -0.5022
14632SOL     OW55954   1.638   6.403   0.989 -0.2723 -0.2711  0.1123
14632SOL    HW155955   1.714   6.373   1.046 -0.0423  0.2388  0.0752
14632SOL    HW255956   1.580   6.324   0.966  0.0187 -0.5905  0.4723
14633SOL     OW55957   3.021   2.485   0.902 -0.0463  0.1604 -0.3995
14633SOL    HW155958   2.936   2.522   0.864 -0.1318 -1.0899 -1.4725
14633SOL    HW255959   3.032   2.515   0.997 -1.2447  1.0330 -0.5302
14634SOL     OW55960   0.130   8.042   7.822  0.0631 -0.1441 -0.0736
14634SOL    HW155961   0.103   8.123   7.875 -0.2939 -0.0337 -0.4208
14634SOL    HW255962   0.227   8.048   7.798  0.2577 -0.2501  0.6654
14635SOL     OW55963   0.624   2.359   9.782  0.3868 -0.3887 -0.1872
14635SOL    HW155964   0.542   2.308   9.807 -0.7101  1.1067 -0.6740
14635SOL    HW255965   0.636   2.355   9.683 -0.0819  0.8483 -0.2991
14636SOL     OW55966   2.125   1.137   9.809 -0.0648  0.2774  0.2105
14636SOL    HW155967   2.087   1.074   9.876 -0.9131 -1.2109 -1.6264
14636SOL    HW255968   2.059   1.150   9.734  1.2438  1.1276 -0.8161
14637SOL     OW55969   8.584   6.484   3.298 -0.1604  0.5751 -0.1103
14637SOL    HW155970   8.554   6.507   3.205  0.7418  0.3515 -0.4667
14637SOL    HW255971   8.521   6.418   3.338 -0.5780  0.7029 -0.5562
14638SOL     OW55972   6.797   9.878   6.917  0.8056 -0.0879  0.4280
14638SOL    HW155973   6.774   9.857   6.822  1.0420 -0.4019  0.4378
14638SOL    HW255974   6.718   9.859   6.975 -0.1682  2.4873 -0.0154
14639SOL     OW55975   2.852   2.391   2.359  0.0698  0.4195 -0.2673
14639SOL    HW155976   2.799   2.346   2.288 -0.8379  1.8960 -0.5395
14639SOL    HW255977   2.932   2.436   2.318 -0.6132  1.5199 -0.4045
14640SOL     OW55978   2.297   4.214   0.884  0.3921  0.0568  0.0902
14640SOL    HW155979   2.383   4.263   0.870  0.6837 -0.5966 -0.5001
14640SOL    HW255980   2.299   4.169   0.973  1.1971 -0.9910 -0.4412
14641SOL     OW55981   5.667   0.162   3.911 -0.4891 -0.5004  0.1115
14641SOL    HW155982   5.696   0.107   3.990 -0.3125 -1.1279 -0.3839
14641SOL    HW255983   5.567   0.167   3.910 -0.4231  1.6604  1.8136
14642SOL     OW55984   6.685   2.162   1.979  0.5176  0.2940  0.4508
14642SOL    HW155985   6.772   2.115   1.991  0.4063 -0.0261  0.0131
14642SOL    HW255986   6.634   2.120   1.904 -1.0015 -0.9600  2.1714
14643SOL     OW55987   6.151   3.887   8.575  0.1132  0.4836  0.1976
14643SOL    HW155988   6.123   3.919   8.666 -1.8975 -0.6313 -0.0083
14643SOL    HW255989   6.071   3.855   8.525  1.4097 -0.2285 -1.4560
14644SOL     OW55990   1.978   0.600   7.324  0.1617  0.8655  0.0846
14644SOL    HW155991   2.069   0.639   7.311  0.1623 -0.0998 -3.3287
14644SOL    HW255992   1.909   0.671   7.312  0.3106  0.6536 -2.2057
14645SOL     OW55993   7.441   4.193   0.997 -0.1516 -0.6306  0.0249
14645SOL    HW155994   7.345   4.191   1.025 -0.1876  1.1096  0.1118
14645SOL    HW255995   7.498   4.213   1.076  0.0460  0.8814 -0.4876
14646SOL     OW55996   2.008   6.701   9.937 -0.5170  0.2373  0.1307
14646SOL    HW155997   2.006   6.701  10.037  0.6169  2.8587  0.2098
14646SOL    HW255998   2.085   6.646   9.905 -1.1839 -1.0184  0.6806
14647SOL     OW55999   6.994   7.081   8.325 -0.0354  0.1367  0.2305
14647SOL    HW156000   7.063   7.122   8.385  0.5649 -1.4378  0.6495
14647SOL    HW256001   6.981   6.985   8.350 -1.6192  0.1295 -0.5385
14648SOL     OW56002   1.172   7.146   6.248  0.4043  0.2048  0.1636
14648SOL    HW156003   1.130   7.162   6.159  0.5841 -0.5963 -0.0747
14648SOL    HW256004   1.101   7.147   6.319 -0.1591 -1.8819 -0.3258
14649SOL     OW56005   0.128   7.229   4.670 -0.2457 -0.5465 -0.4600
14649SOL    HW156006   0.157   7.151   4.615  0.6340 -0.9625  0.5807
14649SOL    HW256007   0.028   7.228   4.681 -0.0079 -3.1652  1.9669
14650SOL     OW56008   0.699   3.982   1.253 -0.4357  0.6516 -0.4308
14650SOL    HW156009   0.665   3.921   1.181 -0.8000  1.4312 -0.9278
14650SOL    HW256010   0.787   4.021   1.225 -0.4197  0.7028 -0.3098
14651SOL     OW56011   3.889   1.223   0.660 -0.0099  0.0599  0.0383
14651SOL    HW156012   3.906   1.158   0.734  0.4505 -1.4699 -1.3685
14651SOL    HW256013   3.975   1.239   0.611  0.1517  2.6717  1.0702
14652SOL     OW56014   7.699   5.675   8.986 -0.3400 -0.0113 -0.1307
14652SOL    HW156015   7.733   5.588   9.023  0.6220  0.4797  0.1429
14652SOL    HW256016   7.718   5.749   9.051 -1.6520  0.3310 -0.1092
14653SOL     OW56017   7.034   6.598   2.092  0.2057  0.2586  0.9235
14653SOL    HW156018   7.019   6.522   2.156 -2.1350  0.4804  0.6899
14653SOL    HW256019   7.007   6.684   2.136  1.0188  0.7312  0.5122
14654SOL     OW56020   7.328   4.506   2.389  0.0293  0.0833 -0.3593
14654SOL    HW156021   7.408   4.544   2.436 -0.7831  0.2088  0.9645
14654SOL    HW256022   7.269   4.581   2.358  1.0889  0.0348 -2.5635
14655SOL     OW56023   0.572   1.524   0.067 -1.0712 -0.0572  0.0986
14655SOL    HW156024   0.539   1.590   0.000 -0.5248 -1.2757 -1.3927
14655SOL    HW256025   0.496   1.498   0.127 -1.6942  0.6277 -0.3813
14656SOL     OW56026   5.672   0.158   6.331  0.3856  0.2001  0.1969
14656SOL    HW156027   5.734   0.092   6.289  0.1665 -1.0313  1.7509
14656SOL    HW256028   5.579   0.120   6.335  0.4007  0.2799  1.7720
14657SOL     OW56029   7.991   5.558   2.886  0.1750  0.1890  0.5310
14657SOL    HW156030   7.946   5.639   2.923  1.0279  0.4706  0.9583
14657SOL    HW256031   7.976   5.554   2.787 -1.3805 -0.1061  0.7635
14658SOL     OW56032   1.047   4.523   6.919  0.1774  0.2097 -0.1393
14658SOL    HW156033   0.966   4.525   6.861 -0.6460  0.1971  1.0225
14658SOL    HW256034   1.021   4.521   7.015  1.5484  0.2842  0.2511
14659SOL     OW56035   6.990   3.666   0.543  0.3651 -0.0140 -0.2106
14659SOL    HW156036   6.988   3.595   0.473  1.8979  1.3295 -1.6634
14659SOL    HW256037   7.072   3.657   0.599 -1.0385 -1.3149  1.7211
14660SOL     OW56038   7.860   0.674   4.599  0.1793 -0.5312  0.3634
14660SOL    HW156039   7.877   0.665   4.697 -1.4648  0.8913  0.7931
14660SOL    HW256040   7.942   0.707   4.554  1.3266 -2.3315  1.0641
14661SOL     OW56041   8.893   4.255   7.299  0.0404  0.0144  0.1444
14661SOL    HW156042   8.876   4.252   7.200 -1.0916 -0.0202  0.3327
14661SOL    HW256043   8.878   4.349   7.332 -0.6883 -0.2156  0.4717
14662SOL     OW56044   3.943   7.648   7.006 -0.0067  0.1172  0.6139
14662SOL    HW156045   3.916   7.627   7.100  0.5328 -1.5048  0.4215
14662SOL    HW256046   3.978   7.565   6.962  2.9135  1.5980  0.0616
14663SOL     OW56047   5.568   5.354   2.806 -0.6963 -0.2738  0.3972
14663SOL    HW156048   5.528   5.439   2.773 -1.3645 -0.0099  1.8303
14663SOL    HW256049   5.624   5.313   2.734 -0.2627  1.4366 -0.2652
14664SOL     OW56050   9.693   0.869   6.541  0.2175  0.0624  0.2846
14664SOL    HW156051   9.778   0.857   6.488 -0.3115  0.4480 -0.6530
14664SOL    HW256052   9.647   0.781   6.549 -1.3081  0.5357 -2.6357
14665SOL     OW56053   7.062   8.695   4.273 -0.1112  0.1667  0.7245
14665SOL    HW156054   7.046   8.643   4.357 -0.4444  0.5918  0.9290
14665SOL    HW256055   7.106   8.781   4.296 -0.3369  0.3468  0.4766
14666SOL     OW56056   1.506   3.317   6.277  0.6003 -0.5458  0.0256
14666SOL    HW156057   1.506   3.411   6.245 -3.0326 -1.4812 -3.0788
14666SOL    HW256058   1.595   3.275   6.259  1.9130  1.9214  0.5343
14667SOL     OW56059   2.305   9.013   0.653  0.6361 -0.2683  0.1991
14667SOL    HW156060   2.376   9.067   0.700 -0.0914 -0.2159  1.2485
14667SOL    HW256061   2.341   8.981   0.565  1.6662  0.4912  0.3284
14668SOL     OW56062   4.094   5.641   8.667  0.1561 -0.2631  0.5007
14668SOL    HW156063   4.187   5.627   8.632  0.1350 -0.7513  0.6313
14668SOL    HW256064   4.097   5.693   8.752  0.0516  3.0495 -1.4582
14669SOL     OW56065   3.419   5.392   0.397  0.5920 -0.2490 -0.4817
14669SOL    HW156066   3.321   5.377   0.415 -0.1688  1.9539 -2.4346
14669SOL    HW256067   3.463   5.428   0.479 -0.5652  0.0704  0.0142
14670SOL     OW56068   0.874   8.547   4.948  0.3592  0.0304 -0.1045
14670SOL    HW156069   0.947   8.606   4.913  0.7931 -0.8035 -0.6125
14670SOL    HW256070   0.795   8.551   4.886  0.7837 -0.7344 -0.6972
14671SOL     OW56071   0.798   1.987   9.355 -0.1525  0.0503  0.3298
14671SOL    HW156072   0.868   1.917   9.374  0.4692 -0.1666 -2.5566
14671SOL    HW256073   0.790   2.048   9.434  1.6315 -1.3207  1.6261
14672SOL     OW56074   7.926   6.347   0.387 -0.0733 -0.4112 -0.0218
14672SOL    HW156075   7.972   6.345   0.476  0.7532 -0.4288 -0.4390
14672SOL    HW256076   7.828   6.361   0.400  0.0806 -0.1385  0.8751
14673SOL     OW56077   8.924   9.881   4.687 -0.2181 -0.0270  0.0541
14673SOL    HW156078   8.949   9.910   4.595 -0.3210 -0.9521 -0.2743
14673SOL    HW256079   9.007   9.856   4.737 -0.0321  1.8160  0.6901
14674SOL     OW56080   0.129   1.367   2.480  0.1209 -0.5793  0.5408
14674SOL    HW156081   0.202   1.390   2.415  1.4573  0.1484  2.2546
14674SOL    HW256082   0.151   1.280   2.524 -0.0388 -0.3690  1.0430
14675SOL     OW56083   4.529   3.861   9.617  0.4181 -0.3235  0.0680
14675SOL    HW156084   4.487   3.784   9.568  1.6762 -1.8685  1.3776
14675SOL    HW256085   4.479   3.945   9.595 -1.7932 -1.7056 -0.3689
14676SOL     OW56086   7.474   4.926   7.470  0.4543 -0.8920  0.6608
14676SOL    HW156087   7.384   4.938   7.512  0.5268 -1.4702  0.9994
14676SOL    HW256088   7.465   4.872   7.387  0.4389 -0.6197  0.4861
14677SOL     OW56089   2.337   4.359   7.055 -0.1061  0.0698 -0.1065
14677SOL    HW156090   2.394   4.282   7.028 -0.5447 -1.1095  2.2085
14677SOL    HW256091   2.394   4.434   7.086  0.2711  0.1011 -0.8624
14678SOL     OW56092   8.286   5.757   1.657 -0.3752  0.3127 -0.4822
14678SOL    HW156093   8.352   5.710   1.598 -0.5666  0.7178 -1.0162
14678SOL    HW256094   8.193   5.739   1.625 -0.5251 -0.0997  0.1577
14679SOL     OW56095   0.922   9.827   3.982 -0.2513 -0.3046  0.1150
14679SOL    HW156096   0.929   9.912   3.930  0.4110 -0.1450  0.4586
14679SOL    HW256097   1.014   9.792   4.002 -0.4185  0.8437  3.1261
14680SOL     OW56098   4.336   9.077   9.199 -0.2757  0.1251 -0.7040
14680SOL    HW156099   4.329   9.170   9.163  0.3762 -0.1777 -1.6349
14680SOL    HW256100   4.421   9.035   9.168  1.6608  0.7665  3.4266
14681SOL     OW56101   2.317   2.752   3.601  0.0857  0.2923  0.1511
14681SOL    HW156102   2.312   2.700   3.686  0.0008 -2.9255 -1.7298
14681SOL    HW256103   2.410   2.786   3.589  1.0269 -2.2530 -0.1156
14682SOL     OW56104   6.389   7.603   5.828 -0.3293  0.0872 -0.3231
14682SOL    HW156105   6.326   7.539   5.871  1.3001 -0.8988  0.6386
14682SOL    HW256106   6.445   7.647   5.898  0.8702  0.0684 -1.2468
14683SOL     OW56107   6.319   0.406   6.027  0.4533 -0.2006  0.5879
14683SOL    HW156108   6.277   0.471   6.091 -2.3270 -0.3850 -0.9614
14683SOL    HW256109   6.351   0.456   5.947 -0.7692 -0.5899 -0.1531
14684SOL     OW56110   3.276   8.342   4.366 -0.4524 -0.3549  0.0506
14684SOL    HW156111   3.213   8.299   4.430 -0.2537  1.0098  1.1854
14684SOL    HW256112   3.336   8.272   4.326 -0.5480 -1.2141  1.3937
14685SOL     OW56113   1.111   5.404   6.950  0.5587  0.3017 -0.2796
14685SOL    HW156114   1.105   5.487   6.895  2.5052  0.6073 -0.0562
14685SOL    HW256115   1.073   5.327   6.898  1.6299  0.7490 -1.7475
14686SOL     OW56116   2.221   9.280   1.786  0.1158  1.2648  0.1576
14686SOL    HW156117   2.275   9.211   1.835  0.2797  2.4707  1.6938
14686SOL    HW256118   2.283   9.339   1.734  0.0162  0.5933 -0.7283
14687SOL     OW56119   2.557   7.398   4.679 -0.0778  0.1579 -0.4238
14687SOL    HW156120   2.487   7.396   4.750  0.9870 -2.3484  0.6362
14687SOL    HW256121   2.639   7.443   4.715 -0.2268  0.6993 -0.7589
14688SOL     OW56122   1.964   6.724   8.550  0.2160 -0.1332 -0.5481
14688SOL    HW156123   2.040   6.756   8.493  0.7243 -0.2114  0.0852
14688SOL    HW256124   1.982   6.630   8.578  0.6665  0.3932  0.9488
14689SOL     OW56125   3.805   0.126   7.575  0.2298  0.1088  0.5294
14689SOL    HW156126   3.783   0.210   7.625 -0.8398 -0.7291  1.5160
14689SOL    HW256127   3.892   0.136   7.528  0.4779  1.5003  1.2745
14690SOL     OW56128   1.860   7.439   5.401  0.4270  0.0137 -0.1130
14690SOL    HW156129   1.933   7.482   5.347  2.0010  0.6534  2.4360
14690SOL    HW256130   1.898   7.363   5.453 -0.9507 -0.2430  0.5237
14691SOL     OW56131   5.110   5.969   3.558  0.0915  0.3343 -0.8040
14691SOL    HW156132   5.114   5.964   3.658  1.5200 -2.7481 -0.9396
14691SOL    HW256133   5.016   5.959   3.527 -0.0164 -1.8096  0.1578
14692SOL     OW56134   3.802   7.957   6.537  0.3847 -0.0201  0.5184
14692SOL    HW156135   3.844   7.930   6.451  0.2609 -0.6535  0.6522
14692SOL    HW256136   3.757   7.878   6.578 -0.1807  0.4487  0.8062
14693SOL     OW56137   1.665   0.375   1.201 -0.3232  0.0189  0.1552
14693SOL    HW156138   1.572   0.377   1.238 -0.0213  0.3159  0.9113
14693SOL    HW256139   1.673   0.302   1.134 -0.9126 -0.4746  0.6190
14694SOL     OW56140   9.802   0.711   7.403 -0.2963 -0.3094  0.5220
14694SOL    HW156141   9.863   0.790   7.409 -1.4875  0.7106 -0.5347
14694SOL    HW256142   9.707   0.743   7.396 -0.8708 -1.8563  1.1127
14695SOL     OW56143   6.940   0.050   4.059 -0.3054  0.3316 -0.1599
14695SOL    HW156144   6.858   0.087   4.016 -0.5483  1.0497  0.8917
14695SOL    HW256145   6.918   0.019   4.152  0.6393  0.6828  0.1917
14696SOL     OW56146   2.187   6.762   9.278  0.0828 -0.5254  0.3637
14696SOL    HW156147   2.239   6.838   9.316  0.1208  0.4877 -1.6428
14696SOL    HW256148   2.110   6.742   9.338  0.1248  1.0314  0.9758
14697SOL     OW56149   0.814   4.745   2.337 -0.0892 -0.1410  0.5191
14697SOL    HW156150   0.778   4.813   2.271  1.7040  1.0307  0.7186
14697SOL    HW256151   0.815   4.655   2.294 -0.4699  0.3269 -0.4972
14698SOL     OW56152   0.119   6.314   3.593 -0.3432 -0.0881 -0.3604
14698SOL    HW156153   0.050   6.379   3.626 -0.6464 -0.3160 -0.5454
14698SOL    HW256154   0.109   6.303   3.494 -0.2105 -0.3233 -0.3463
14699SOL     OW56155   3.331   9.233   8.776  0.2798  0.1280  0.3287
14699SOL    HW156156   3.289   9.149   8.809 -0.9667  0.5435 -0.1420
14699SOL    HW256157   3.367   9.286   8.853  0.4752 -0.5251  0.6849
14700SOL     OW56158   9.877   7.750   5.840 -0.1965  0.0983  0.3318
14700SOL    HW156159   9.825   7.796   5.911 -1.1421 -0.2096 -0.1546
14700SOL    HW256160   9.894   7.655   5.867 -2.1470 -0.5425 -0.6636
14701SOL     OW56161   0.840   6.164   0.491 -0.4003  0.1459 -0.2655
14701SOL    HW156162   0.803   6.223   0.420 -1.8982 -0.0929  0.2848
14701SOL    HW256163   0.769   6.147   0.560  1.5599  1.8844  2.2588
14702SOL     OW56164   9.166   0.996   1.211 -0.2600  0.0425  0.1183
14702SOL    HW156165   9.102   1.060   1.252 -0.3328 -0.0388  0.1308
14702SOL    HW256166   9.130   0.903   1.218 -0.4284  0.0660 -0.4261
14703SOL     OW56167   1.999   1.324   9.233 -0.0264 -0.3832 -0.1668
14703SOL    HW156168   2.060   1.261   9.185  1.2820  0.4566  0.3694
14703SOL    HW256169   2.053   1.395   9.279 -1.3087 -0.6441  1.7865
14704SOL     OW56170   2.700   8.984   9.311 -0.0170 -0.2423 -0.1848
14704SOL    HW156171   2.625   9.013   9.252  1.2666  0.6166 -1.4183
14704SOL    HW256172   2.787   9.011   9.270  1.0118 -1.9454  0.8197
14705SOL     OW56173   9.351   9.929   0.552  0.0397  0.3341  0.5185
14705SOL    HW156174   9.434   9.894   0.509  0.8678  1.4556  1.1795
14705SOL    HW256175   9.365  10.024   0.579 -1.1456  0.2468  1.4909
14706SOL     OW56176   2.632   7.218   8.345 -0.0757 -0.6712 -0.1461
14706SOL    HW156177   2.562   7.241   8.413  0.6109 -0.6319  0.5559
14706SOL    HW256178   2.710   7.175   8.391  0.4926 -0.4289 -0.8799
14707SOL     OW56179   3.614   6.074   0.517 -0.6430  0.5529 -0.5896
14707SOL    HW156180   3.685   6.040   0.580  1.2878  2.1157 -1.8560
14707SOL    HW256181   3.535   6.014   0.521  0.5214 -0.9186  1.3194
14708SOL     OW56182   4.576   0.822   8.892 -0.7603  0.4010  0.3602
14708SOL    HW156183   4.657   0.880   8.902 -0.2561 -0.1003 -0.7543
14708SOL    HW256184   4.504   0.856   8.951 -0.5907  2.4094 -0.5446
14709SOL     OW56185   6.322   4.599   7.792 -0.3397 -0.4203  0.2628
14709SOL    HW156186   6.397   4.573   7.731 -0.2958  0.4502 -0.0624
14709SOL    HW256187   6.241   4.624   7.737 -1.0130 -1.7742  0.6187
14710SOL     OW56188   8.512   5.725   0.622  0.6972 -0.1335 -1.0267
14710SOL    HW156189   8.439   5.785   0.590  3.1829  2.7176 -1.5622
14710SOL    HW256190   8.564   5.691   0.543  2.9054  1.7652 -0.4214
14711SOL     OW56191   5.193   0.226   7.127  0.0031 -0.0655  0.2407
14711SOL    HW156192   5.258   0.301   7.114  0.0874  0.0560  1.2849
14711SOL    HW256193   5.129   0.223   7.050  0.5095  0.5606 -0.2108
14712SOL     OW56194   2.495   1.830   1.391  0.3301 -0.2418  0.0269
14712SOL    HW156195   2.521   1.782   1.308 -3.4319 -0.7038 -1.0057
14712SOL    HW256196   2.549   1.913   1.401  2.6049 -1.5169 -1.4844
14713SOL     OW56197   9.469   0.556   3.448 -0.3493  0.0525 -0.5883
14713SOL    HW156198   9.374   0.530   3.463 -0.4649  0.6648 -0.2590
14713SOL    HW256199   9.502   0.514   3.363 -1.3280  0.9463 -1.4248
14714SOL     OW56200   5.909   5.556   9.675 -0.0673 -0.2859  0.5938
14714SOL    HW156201   5.835   5.491   9.686 -0.1134 -0.1865  0.8638
14714SOL    HW256202   5.883   5.644   9.714  0.5316 -0.4990  1.4814
14715SOL     OW56203   0.747   1.578   0.386 -0.4179 -0.1571  0.3388
14715SOL    HW156204   0.778   1.501   0.331 -0.1929  0.0906  0.1187
14715SOL    HW256205   0.802   1.585   0.469 -0.5192 -0.3097  0.4180
14716SOL     OW56206   2.618   7.737   2.848 -0.3423 -0.0255  0.7080
14716SOL    HW156207   2.566   7.652   2.858 -0.5029  0.2219  1.9748
14716SOL    HW256208   2.715   7.719   2.864 -0.0607 -0.4219 -1.3338
14717SOL     OW56209   1.535   2.219   7.946  0.0917  0.1447  0.4662
14717SOL    HW156210   1.471   2.163   7.894  0.5138 -0.7544  0.8983
14717SOL    HW256211   1.499   2.312   7.954 -0.6334 -0.0675 -0.2307
14718SOL     OW56212   2.153   7.530   3.092  0.0140 -0.5936  0.2700
14718SOL    HW156213   2.120   7.436   3.097  1.8379 -1.1540  2.6069
14718SOL    HW256214   2.081   7.592   3.125 -1.4113 -1.0534 -1.8377
14719SOL     OW56215   4.757   5.201   7.028  0.6178  0.3173 -0.0933
14719SOL    HW156216   4.746   5.121   7.087  2.6097 -1.1625 -1.6457
14719SOL    HW256217   4.770   5.282   7.084 -0.5999 -0.5462  1.5066
14720SOL     OW56218   4.359   4.594   1.200 -0.2304 -0.2860 -0.4963
14720SOL    HW156219   4.448   4.639   1.198 -0.2905 -0.1960 -1.9781
14720SOL    HW256220   4.307   4.625   1.280  0.4773  0.8034 -0.4496
14721SOL     OW56221   6.396   5.044   7.462 -0.3904  0.2876 -0.1695
14721SOL    HW156222   6.318   5.062   7.402 -0.9683  2.0363  1.0573
14721SOL    HW256223   6.364   5.002   7.547  0.0030  0.8325  0.2576
14722SOL     OW56224   6.538   0.452   9.434  0.4602  0.3845  0.2429
14722SOL    HW156225   6.584   0.448   9.523  0.1440  0.3548  0.4043
14722SOL    HW256226   6.607   0.454   9.362  0.7131 -1.8314  0.3844
14723SOL     OW56227   7.133   3.383   1.734  0.2689  0.1521  0.6462
14723SOL    HW156228   7.095   3.347   1.819 -1.3498 -1.9905 -0.9127
14723SOL    HW256229   7.059   3.422   1.679  1.2031  0.9588 -0.0495
14724SOL     OW56230   4.759   6.774   2.302  0.1433 -0.0924 -0.5403
14724SOL    HW156231   4.789   6.862   2.339 -1.0800  0.6111 -1.1877
14724SOL    HW256232   4.661   6.764   2.315  0.2743 -1.3742 -0.4695
14725SOL     OW56233   9.231   4.505   6.201 -0.1910  0.0089  0.1905
14725SOL    HW156234   9.317   4.548   6.229  0.3030 -2.2858  2.4461
14725SOL    HW256235   9.166   4.575   6.172  1.4990  2.0148  1.1183
14726SOL     OW56236   1.705   3.740   5.394 -0.3491 -0.2505 -0.0254
14726SOL    HW156237   1.645   3.746   5.315  2.3489 -4.7897 -2.6469
14726SOL    HW256238   1.674   3.666   5.455  0.0077  0.3713  0.9239
14727SOL     OW56239   3.884   1.875   1.798 -0.0579 -0.1200 -0.7192
14727SOL    HW156240   3.820   1.844   1.868 -1.1484  0.4248 -1.4605
14727SOL    HW256241   3.914   1.968   1.819 -0.5792  0.1379 -1.0945
14728SOL     OW56242   1.122   8.998   2.992  0.3468  0.0945  0.4743
14728SOL    HW156243   1.220   8.990   3.010  0.0971 -0.6143  1.5885
14728SOL    HW256244   1.102   9.088   2.955  1.4344  0.2080  0.1540
14729SOL     OW56245   9.223   8.530   1.311  0.6386 -0.2145 -0.1515
14729SOL    HW156246   9.161   8.578   1.374 -0.2795 -0.8093 -0.5893
14729SOL    HW256247   9.224   8.578   1.223 -1.3048 -1.7080 -1.0219
14730SOL     OW56248   7.824   6.300   6.181  0.0013  0.1433  0.1980
14730SOL    HW156249   7.732   6.315   6.216  0.6172 -0.9852  2.3803
14730SOL    HW256250   7.819   6.269   6.086 -1.7569  2.0588 -0.3656
14731SOL     OW56251   2.229   3.515   1.690  0.2407 -0.0100 -0.1940
14731SOL    HW156252   2.230   3.567   1.605 -0.5502 -2.4553 -1.7475
14731SOL    HW256253   2.320   3.479   1.708  0.2012 -0.2670 -0.5042
14732SOL     OW56254   0.537   2.128   5.758  0.6247  0.0483  0.9201
14732SOL    HW156255   0.460   2.168   5.807  0.7156 -0.0222  1.1193
14732SOL    HW256256   0.623   2.166   5.793  0.7163 -0.3827  1.1696
14733SOL     OW56257   7.606   4.988   2.775  0.2979  0.2769 -0.3370
14733SOL    HW156258   7.563   4.984   2.865  2.7198  1.3954  0.9097
14733SOL    HW256259   7.626   4.895   2.743 -1.3697 -0.1646 -0.1503
14734SOL     OW56260   0.788   8.996   3.340 -0.0147 -0.3524 -0.6442
14734SOL    HW156261   0.778   9.037   3.430 -2.6595 -2.0836 -0.0987
14734SOL    HW256262   0.866   8.933   3.340 -0.3561 -0.7772  0.5994
14735SOL     OW56263   8.487   8.543   5.299  0.2387  0.1857  0.5389
14735SOL    HW156264   8.562   8.580   5.244  1.2038 -0.2432  1.5481
14735SOL    HW256265   8.513   8.454   5.335 -0.3610  0.4694  1.7138
14736SOL     OW56266   0.566   5.210   1.965 -0.0233 -0.3864  0.1777
14736SOL    HW156267   0.612   5.238   2.049 -0.0153 -0.4237  0.1859
14736SOL    HW256268   0.470   5.193   1.983 -0.1998  0.4108  0.0034
14737SOL     OW56269   3.258   9.828   5.514 -0.2957 -0.2554 -0.0787
14737SOL    HW156270   3.248   9.764   5.437 -2.0604 -0.9214  0.6802
14737SOL    HW256271   3.168   9.847   5.553  0.5980  0.0099  1.8784
14738SOL     OW56272   5.907   9.879   4.762  0.1263  0.1179 -0.2690
14738SOL    HW156273   5.956   9.857   4.678 -0.5409 -0.6764 -0.4510
14738SOL    HW256274   5.888   9.796   4.813 -0.8222  0.4377 -0.0852
14739SOL     OW56275   6.243   5.870   9.050  0.5610 -0.5750  0.1488
14739SOL    HW156276   6.187   5.911   9.122 -1.0235  2.3675 -2.6143
14739SOL    HW256277   6.203   5.783   9.021 -0.4293 -0.3451  0.8083
14740SOL     OW56278   1.274   0.032   9.363  0.2858  0.4498  0.1907
14740SOL    HW156279   1.371   0.022   9.388  0.3911  0.2843 -0.2651
14740SOL    HW256280   1.242  -0.053   9.322  0.0202  0.5906  0.1048
14741SOL     OW56281   2.553   0.814   4.912 -0.0733  0.4491 -0.3737
14741SOL    HW156282   2.495   0.734   4.926 -0.1463  0.5641 -0.0060
14741SOL    HW256283   2.638   0.787   4.867  0.2297  0.0435  0.4316
14742SOL     OW56284   3.005   3.698   0.594  0.5942  0.0299  0.3784
14742SOL    HW156285   3.041   3.781   0.552 -0.1938  0.5946  0.7880
14742SOL    HW256286   2.934   3.659   0.535  0.0431  0.3848  0.7957
14743SOL     OW56287   7.503   2.853   3.226 -0.2557  0.1019 -0.4569
14743SOL    HW156288   7.442   2.775   3.242  0.3906 -0.3029  0.0099
14743SOL    HW256289   7.509   2.909   3.309  1.5756 -0.9474  0.1247
14744SOL     OW56290   8.156   6.374   0.841  0.1245  0.1395 -0.0627
14744SOL    HW156291   8.159   6.474   0.852  1.3061 -0.1518  2.6767
14744SOL    HW256292   8.065   6.340   0.865 -0.2666  0.5421 -0.9583
14745SOL     OW56293   4.692   4.937   7.922  0.0764  0.5567  0.2857
14745SOL    HW156294   4.739   4.851   7.903  0.2526  0.6880  0.1353
14745SOL    HW256295   4.602   4.917   7.962  0.3968  0.3135  0.8993
14746SOL     OW56296   0.067   8.692   4.164 -0.0203 -0.1756  0.3778
14746SOL    HW156297   0.147   8.748   4.185 -1.1254  1.3446  0.5612
14746SOL    HW256298   0.009   8.739   4.098 -0.5615 -1.4688 -0.0938
14747SOL     OW56299   8.825   1.808   5.200 -0.1443  0.4241  0.0666
14747SOL    HW156300   8.881   1.836   5.122 -0.0732 -0.8512 -0.3403
14747SOL    HW256301   8.872   1.736   5.250 -1.7389 -1.1483 -0.6773
14748SOL     OW56302   9.465   4.605   3.783 -0.5891 -0.0418  0.2084
14748SOL    HW156303   9.477   4.515   3.742 -0.2233 -0.0257  0.2753
14748SOL    HW256304   9.374   4.640   3.761 -0.0693  0.3639 -1.3857
14749SOL     OW56305   0.740   6.544   9.236 -0.6507  0.2974 -0.2131
14749SOL    HW156306   0.768   6.509   9.147 -1.1338  0.8160 -0.5775
14749SOL    HW256307   0.820   6.557   9.294 -0.3802 -0.5081 -0.4000
14750SOL     OW56308   7.962   2.145   1.248  0.4107  0.7832 -0.7212
14750SOL    HW156309   7.926   2.054   1.224  0.7653  0.9186 -1.8027
14750SOL    HW256310   7.896   2.192   1.307  0.4688 -0.3860  0.2966
14751SOL     OW56311   9.292   0.727   6.538 -0.5344 -0.1738  0.0860
14751SOL    HW156312   9.193   0.718   6.528 -0.5834  0.1485  0.2730
14751SOL    HW256313   9.327   0.789   6.468 -0.3444 -0.9736 -0.5267
14752SOL     OW56314   3.484   7.797   0.537  0.2814  0.3347 -0.8375
14752SOL    HW156315   3.423   7.740   0.591  1.9865 -1.1625 -0.4242
14752SOL    HW256316   3.467   7.781   0.440  0.4974 -0.6168 -0.7236
14753SOL     OW56317   0.354   4.644   9.244 -0.1430  0.0576 -0.6919
14753SOL    HW156318   0.399   4.666   9.330 -0.7505 -0.5606 -0.2059
14753SOL    HW256319   0.417   4.595   9.185  0.6267  1.4461 -1.0448
14754SOL     OW56320   4.059   0.451   9.562  0.3711 -0.8011 -0.3974
14754SOL    HW156321   4.073   0.352   9.559 -0.9246 -0.9663 -1.4349
14754SOL    HW256322   3.976   0.475   9.511  2.1565  1.1292 -2.5147
14755SOL     OW56323   2.852   4.870   5.219  0.1513 -0.8477 -0.0291
14755SOL    HW156324   2.788   4.934   5.177 -0.0008 -0.8583  0.1861
14755SOL    HW256325   2.856   4.786   5.166 -0.2226 -0.9554  0.1140
14756SOL     OW56326   3.327   9.272   2.561 -0.1537  0.2033 -0.1387
14756SOL    HW156327   3.377   9.350   2.601  1.3482 -0.9709  0.3164
14756SOL    HW256328   3.247   9.306   2.512  1.2525  2.1780 -1.1504
14757SOL     OW56329   4.120   9.818   7.779 -0.6959  0.1205  0.1209
14757SOL    HW156330   4.069   9.833   7.694  0.4639  1.7000 -0.3133
14757SOL    HW256331   4.125   9.903   7.831 -1.1795 -0.7751  1.6714
14758SOL     OW56332   3.955   4.267  10.015 -0.3593 -0.1015  0.5846
14758SOL    HW156333   4.029   4.320  10.058 -0.6548  0.1665  0.7667
14758SOL    HW256334   3.881   4.329   9.988 -1.0997 -0.5302  1.6089
14759SOL     OW56335   4.752   4.690   8.078  0.2136 -0.0176  0.0501
14759SOL    HW156336   4.815   4.703   8.001  1.3511  0.5295  1.0624
14759SOL    HW256337   4.767   4.762   8.146 -2.6596  1.1222 -0.4542
14760SOL     OW56338   4.951   9.052   7.061 -0.0413 -0.2702  0.6276
14760SOL    HW156339   5.006   8.978   7.099  0.8038 -0.4835 -0.9438
14760SOL    HW256340   4.998   9.091   6.981 -1.8700 -0.0276 -0.3708
14761SOL     OW56341   3.920   3.976   5.304 -0.5345 -0.3774 -0.9251
14761SOL    HW156342   3.982   3.905   5.270 -1.1364 -0.3388 -2.1432
14761SOL    HW256343   3.857   4.002   5.231  0.7104  2.5666 -1.0274
14762SOL     OW56344   1.389   1.782   1.067  0.9884  0.3640 -0.0985
14762SOL    HW156345   1.472   1.832   1.093  2.8857 -1.4488 -2.4173
14762SOL    HW256346   1.402   1.685   1.087 -0.5801  0.0631 -0.5045
14763SOL     OW56347   4.227   8.375   9.457  0.2866 -0.1978  0.0641
14763SOL    HW156348   4.298   8.367   9.527  2.1023  0.2532 -1.6811
14763SOL    HW256349   4.235   8.465   9.413 -1.1981 -0.2553 -0.3251
14764SOL     OW56350   8.850   2.547   0.192 -0.4276  0.3890  0.0101
14764SOL    HW156351   8.945   2.549   0.223 -0.1133  1.4203 -1.0002
14764SOL    HW256352   8.842   2.594   0.104 -1.7158 -0.4746 -0.3609
14765SOL     OW56353   0.966   1.532   5.068  0.6075 -0.2314 -0.0209
14765SOL    HW156354   0.878   1.545   5.113  0.6611  2.4861 -0.5661
14765SOL    HW256355   0.951   1.510   4.971  0.5307 -3.0014  0.5814
14766SOL     OW56356   6.085   0.533   5.794  0.3214 -0.2709 -0.4440
14766SOL    HW156357   6.135   0.580   5.866  0.7011  1.6889 -1.9440
14766SOL    HW256358   6.018   0.471   5.835  1.0386  0.2574  1.5721
14767SOL     OW56359   6.764   2.183   1.146  0.1286 -0.1967 -0.1120
14767SOL    HW156360   6.754   2.142   1.236 -1.0824 -0.2725 -0.2710
14767SOL    HW256361   6.825   2.126   1.090 -1.4805 -1.7846 -0.3080
14768SOL     OW56362   5.069   8.906   8.515  0.2031 -0.1765  0.1709
14768SOL    HW156363   5.141   8.899   8.584 -0.1152 -1.0271  0.4221
14768SOL    HW256364   4.981   8.917   8.560  0.3336  2.4159 -0.1649
14769SOL     OW56365   3.316   2.350   5.650  0.1331 -0.3939 -0.0200
14769SOL    HW156366   3.347   2.329   5.743 -3.2642 -0.3466  1.2090
14769SOL    HW256367   3.289   2.447   5.646 -0.3566 -0.5643 -0.8669
14770SOL     OW56368   5.333   3.136   1.569 -0.3928  0.2883 -0.4628
14770SOL    HW156369   5.399   3.096   1.634  0.0840  3.2999  1.0136
14770SOL    HW256370   5.279   3.063   1.527  1.4258 -1.9801  0.9928
14771SOL     OW56371   4.201   2.066   5.492 -0.1388 -0.0353  0.7061
14771SOL    HW156372   4.161   1.979   5.464  0.4914 -0.0512 -0.1574
14771SOL    HW256373   4.223   2.120   5.411 -0.4783  0.9098  1.2375
14772SOL     OW56374   8.602   4.596   3.338  0.2504  0.4111  0.0885
14772SOL    HW156375   8.595   4.528   3.265  1.2848  1.0204 -0.5787
14772SOL    HW256376   8.678   4.658   3.319  0.8418  0.2770  1.9288
14773SOL     OW56377   7.767   1.130   4.452 -0.7546 -0.0467 -0.6312
14773SOL    HW156378   7.738   1.084   4.368  0.2871 -0.9526 -0.5136
14773SOL    HW256379   7.735   1.225   4.451  1.5350  0.7841 -3.3426
14774SOL     OW56380   9.617   8.412   5.869 -0.1664  0.3282  0.5585
14774SOL    HW156381   9.673   8.331   5.890  2.0242  1.4849 -0.6029
14774SOL    HW256382   9.604   8.419   5.770 -3.3454 -0.5037  0.8622
14775SOL     OW56383   4.579   9.037   4.002  0.5078 -0.0828 -0.0822
14775SOL    HW156384   4.618   9.051   4.093  1.4101  1.0021 -0.6335
14775SOL    HW256385   4.551   9.124   3.963 -3.3284 -0.9065  0.6378
14776SOL     OW56386   4.634   9.615   2.597  0.2002 -0.2780 -0.6091
14776SOL    HW156387   4.566   9.543   2.583  1.5972 -1.5284 -1.0441
14776SOL    HW256388   4.635   9.675   2.517 -0.2058 -0.4054 -0.7119
14777SOL     OW56389   6.739   9.771   7.465 -0.3405  0.0141 -0.0698
14777SOL    HW156390   6.818   9.722   7.428 -0.9222 -0.7892 -0.2607
14777SOL    HW256391   6.770   9.834   7.537  0.3070 -1.3182  0.8364
14778SOL     OW56392   2.132   0.344   2.995 -0.7245 -0.3523  0.3391
14778SOL    HW156393   2.162   0.319   2.903 -0.5984 -1.5180  0.6927
14778SOL    HW256394   2.080   0.268   3.035 -1.4859  0.4611  0.9175
14779SOL     OW56395   8.115   6.423   3.274  0.1754 -0.1250 -0.7427
14779SOL    HW156396   8.105   6.509   3.324  0.5174  0.3968 -1.5530
14779SOL    HW256397   8.058   6.426   3.191 -0.0409 -0.7974 -0.6231
14780SOL     OW56398   0.527   6.418   2.000  0.0778 -0.2119  0.1182
14780SOL    HW156399   0.529   6.516   2.021  0.0083 -0.1074 -0.3516
14780SOL    HW256400   0.439   6.380   2.029 -0.0968 -0.0272 -0.1635
14781SOL     OW56401   9.153   9.024   3.096  0.5534 -0.1938  0.0584
14781SOL    HW156402   9.087   9.068   3.156 -0.3907  1.1355 -1.9107
14781SOL    HW256403   9.182   9.088   3.025  2.5325 -1.3584 -0.2219
14782SOL     OW56404   7.500   3.455   8.032 -0.1995 -0.1843  0.1375
14782SOL    HW156405   7.500   3.382   8.099 -0.7843 -1.7331 -1.5111
14782SOL    HW256406   7.566   3.434   7.959  1.1665  1.9430  0.6931
14783SOL     OW56407   3.913   4.948   6.871 -0.0967 -0.4889  0.3500
14783SOL    HW156408   3.882   4.900   6.953 -0.9627 -0.2021  0.1914
14783SOL    HW256409   3.964   4.884   6.813  0.5809 -0.6793  1.1286
14784SOL     OW56410   3.276   0.472   3.051 -0.4836 -0.4574 -0.6079
14784SOL    HW156411   3.271   0.524   3.136 -1.3681 -1.2880 -0.1400
14784SOL    HW256412   3.281   0.535   2.973 -0.0218  0.3057  0.0295
14785SOL     OW56413   2.577   5.210   1.676  0.3939 -0.2626  0.3670
14785SOL    HW156414   2.598   5.164   1.762  2.0154 -3.0685 -1.4728
14785SOL    HW256415   2.604   5.306   1.683  3.2476 -1.1078  2.0098
14786SOL     OW56416   5.213   3.734   8.598 -0.8393 -0.0399 -0.4741
14786SOL    HW156417   5.279   3.771   8.533 -0.5970 -0.4433 -0.4581
14786SOL    HW256418   5.258   3.667   8.657 -1.3309 -0.5155 -0.6401
14787SOL     OW56419   2.257   6.478   1.662  0.1078  0.0333 -0.6038
14787SOL    HW156420   2.179   6.532   1.693 -0.0082 -0.8793  0.7335
14787SOL    HW256421   2.324   6.470   1.737  0.4441 -1.0833 -1.0069
14788SOL     OW56422   3.920   6.760   9.391  0.1157 -0.1886 -0.0694
14788SOL    HW156423   3.829   6.757   9.433  0.4275  1.1577  0.7022
14788SOL    HW256424   3.911   6.763   9.291 -0.6797 -0.1741  0.0035
14789SOL     OW56425   4.877   2.874   8.235 -0.2333  0.1537  0.5820
14789SOL    HW156426   4.974   2.888   8.253  0.0204 -0.5865 -0.2508
14789SOL    HW256427   4.824   2.913   8.311  0.5705  3.3418 -0.4165
14790SOL     OW56428   8.124   3.867   8.331 -0.2963 -0.4311 -0.4900
14790SOL    HW156429   8.097   3.903   8.242 -0.5240  0.4506 -0.0675
14790SOL    HW256430   8.046   3.824   8.376 -0.3078 -0.3940 -0.4742
14791SOL     OW56431   8.976   9.424   8.864  0.0735 -0.2043 -0.2124
14791SOL    HW156432   8.927   9.449   8.780 -1.3237  1.8588  1.1743
14791SOL    HW256433   9.068   9.462   8.861 -0.2032  0.4596 -0.5373
14792SOL     OW56434   4.325   4.096   4.465 -0.0825 -0.3151  0.2340
14792SOL    HW156435   4.353   4.191   4.458  1.2821 -0.6599  0.9185
14792SOL    HW256436   4.246   4.080   4.406  0.4051  0.9594 -0.7781
14793SOL     OW56437   2.980   4.215   0.339  0.3882 -0.3431 -0.1847
14793SOL    HW156438   2.958   4.222   0.241  0.7229  0.1864 -0.2264
14793SOL    HW256439   3.079   4.229   0.351  0.4596 -1.0975  0.1601
14794SOL     OW56440   5.397   6.249   1.819 -0.0642 -0.0462  0.7942
14794SOL    HW156441   5.433   6.328   1.769  1.3470 -0.9408  0.3740
14794SOL    HW256442   5.368   6.279   1.910  2.1397  0.6656  1.3070
14795SOL     OW56443   0.096   6.630   2.381 -0.0314 -0.3680  0.1657
14795SOL    HW156444   0.175   6.570   2.391  0.4740  0.3805  0.7105
14795SOL    HW256445   0.013   6.575   2.374  0.3948 -1.1220  0.9431
14796SOL     OW56446   8.439   3.107   8.529 -0.4885  0.0844 -0.4917
14796SOL    HW156447   8.418   3.145   8.619  0.3906  0.0223 -0.2526
14796SOL    HW256448   8.528   3.061   8.532 -1.8502 -2.7165 -0.5468
14797SOL     OW56449   9.602   0.455   9.538  0.1513 -0.9778  0.9556
14797SOL    HW156450   9.552   0.534   9.503 -0.3279 -0.7792  2.0693
14797SOL    HW256451   9.685   0.485   9.585  1.6075 -1.3381 -1.3316
14798SOL     OW56452   5.952   7.920   7.352 -0.2522 -0.0014 -0.0802
14798SOL    HW156453   5.908   7.945   7.438 -0.2522  1.1695 -0.4174
14798SOL    HW256454   6.041   7.879   7.371 -0.5587 -0.4102  0.5028
14799SOL     OW56455   9.534   1.971   4.352  0.3020 -0.2277  0.1810
14799SOL    HW156456   9.503   1.892   4.406  0.7548 -0.4896  0.0606
14799SOL    HW256457   9.568   1.939   4.264 -1.7170  0.3149 -0.8215
14800SOL     OW56458   3.650   7.461   2.460  0.3315  0.1907  0.1453
14800SOL    HW156459   3.728   7.415   2.502  0.2070  0.1282  0.3102
14800SOL    HW256460   3.608   7.523   2.526  0.8795  1.0181 -0.2782
14801SOL     OW56461   7.576   9.896   3.702  0.0202 -0.8240 -0.4972
14801SOL    HW156462   7.507   9.936   3.762  0.3592 -2.1116  0.7693
14801SOL    HW256463   7.667   9.917   3.738  0.2219 -1.6348 -0.5345
14802SOL     OW56464   2.301   9.976   3.826 -0.5988  0.3668  0.0727
14802SOL    HW156465   2.221  10.029   3.854 -1.0830 -1.3701  2.1260
14802SOL    HW256466   2.276   9.879   3.819  0.8433  0.0749 -1.2115
14803SOL     OW56467   4.885   3.591   2.585  0.0879 -0.6427 -0.5201
14803SOL    HW156468   4.824   3.662   2.619  0.7287 -1.2417  1.9802
14803SOL    HW256469   4.839   3.540   2.511 -1.3951  0.5878 -0.4759
14804SOL     OW56470   3.146   7.352   5.714  0.3044  0.2462 -0.3725
14804SOL    HW156471   3.181   7.403   5.792  0.8267  0.2093 -0.5823
14804SOL    HW256472   3.114   7.262   5.745  3.3692 -1.0027 -0.6574
14805SOL     OW56473   2.784   9.882   6.228 -0.4579  0.1039  0.6465
14805SOL    HW156474   2.758   9.941   6.152 -0.8973 -0.4983  0.3292
14805SOL    HW256475   2.804   9.939   6.309 -0.0336  0.7408  0.1014
14806SOL     OW56476   3.858   0.548   1.064  0.6925 -0.1023 -0.3765
14806SOL    HW156477   3.892   0.624   1.009 -0.6436 -1.3516 -3.0481
14806SOL    HW256478   3.934   0.495   1.101  1.6024  0.6878 -1.1234
14807SOL     OW56479   9.102   9.364   4.356 -1.4734 -0.5612 -0.4084
14807SOL    HW156480   9.160   9.293   4.395 -1.3433 -0.2652 -0.0522
14807SOL    HW256481   9.006   9.336   4.360 -1.1452 -2.5035 -4.0035
14808SOL     OW56482   5.979   0.139   5.960 -0.6038 -0.0253  0.2490
14808SOL    HW156483   5.930   0.218   5.924  0.1071  0.2237 -0.1858
14808SOL    HW256484   6.029   0.165   6.042 -1.0256 -0.2272  0.5721
14809SOL     OW56485   1.455   3.346   5.225 -0.3305 -0.1204 -0.0988
14809SOL    HW156486   1.548   3.336   5.260  0.0078  3.1086  0.0268
14809SOL    HW256487   1.448   3.304   5.134  0.8468 -1.6146  0.4854
14810SOL     OW56488   1.742   6.346   3.762  0.2829  0.4578  0.1319
14810SOL    HW156489   1.833   6.331   3.724  0.6089  1.0992  0.6312
14810SOL    HW256490   1.674   6.351   3.688  0.6532 -0.0343 -0.2385
14811SOL     OW56491   8.396   9.276   0.916 -0.4004  0.0115 -0.1118
14811SOL    HW156492   8.436   9.188   0.942 -1.3566 -0.3828  0.0444
14811SOL    HW256493   8.344   9.266   0.831  2.3567  1.2074 -2.0164
14812SOL     OW56494   4.868   2.583   1.947 -0.0836 -0.4755  0.1274
14812SOL    HW156495   4.794   2.644   1.975  0.6426 -0.1074  1.2976
14812SOL    HW256496   4.831   2.507   1.894 -1.1519  0.3255 -0.2858
14813SOL     OW56497   4.053   5.182   6.356 -0.1329 -0.3557 -0.0832
14813SOL    HW156498   3.999   5.266   6.348  1.4590  1.0552  3.0146
14813SOL    HW256499   4.008   5.119   6.419  0.7173 -0.1088  0.7771
14814SOL     OW56500   3.590   8.512   4.743 -0.2246 -0.7957 -0.3212
14814SOL    HW156501   3.581   8.459   4.827  0.0051 -1.1301 -0.5024
14814SOL    HW256502   3.684   8.504   4.709 -0.2421 -0.4295 -0.4551
14815SOL     OW56503   7.533   1.081   2.712  0.3286  0.0876  0.1550
14815SOL    HW156504   7.463   1.070   2.641  0.6326 -2.0248  0.1548
14815SOL    HW256505   7.597   1.152   2.684 -1.1889  1.2833 -0.3486
14816SOL     OW56506   5.806   4.899   0.725  0.1616 -0.0382 -0.0988
14816SOL    HW156507   5.882   4.865   0.671  0.8788 -0.2776  1.0494
14816SOL    HW256508   5.823   4.882   0.822  0.2181  2.9160  0.4561
14817SOL     OW56509   3.332   9.065   5.431 -0.2881  0.0809  0.6609
14817SOL    HW156510   3.408   9.079   5.494  0.1589 -1.3579  0.4738
14817SOL    HW256511   3.360   9.002   5.358 -0.7215  1.8809 -1.1142
14818SOL     OW56512   3.642   7.782   3.951  0.0786  0.2439 -0.1604
14818SOL    HW156513   3.613   7.852   3.886  0.3140  0.9488  0.4837
14818SOL    HW256514   3.580   7.704   3.945 -2.2778  1.8809  1.4710
14819SOL     OW56515   9.576   1.634   3.118 -0.7122  0.0207 -0.0676
14819SOL    HW156516   9.573   1.734   3.112 -1.5150  0.0252  0.4744
14819SOL    HW256517   9.611   1.597   3.032  1.4307  0.8596  0.4039
14820SOL     OW56518   9.087   1.338   1.513  0.2564 -0.0533  0.6378
14820SOL    HW156519   9.057   1.431   1.535  0.6754  0.2563 -0.0752
14820SOL    HW256520   9.089   1.326   1.414 -1.0415 -1.2435  0.7383
14821SOL     OW56521   1.703   9.764   2.543  0.9849  0.0685 -0.0747
14821SOL    HW156522   1.611   9.730   2.522  1.3109 -1.1729  0.4733
14821SOL    HW256523   1.697   9.861   2.567  0.0340  0.3958 -1.5671
14822SOL     OW56524   5.163   0.485   7.255 -0.2241  0.2795 -0.5759
14822SOL    HW156525   5.258   0.480   7.225  0.2405  1.1689  0.6887
14822SOL    HW256526   5.157   0.544   7.336 -1.4112 -2.0255  1.0847
14823SOL     OW56527   9.238   9.730   0.022  0.0284  0.0642 -0.0572
14823SOL    HW156528   9.276   9.668  -0.046  0.7247 -0.0953  0.4701
14823SOL    HW256529   9.287   9.818   0.019  0.7568 -0.2932  0.9270
14824SOL     OW56530   4.636   0.512   4.148  0.4904 -0.2250 -0.1258
14824SOL    HW156531   4.596   0.454   4.219  2.2166 -0.7190  0.4536
14824SOL    HW256532   4.700   0.459   4.094  0.9142  0.7454 -0.5894
14825SOL     OW56533   4.614   3.885   3.861  0.0363 -0.1300  0.0505
14825SOL    HW156534   4.571   3.949   3.796  2.2376 -0.1022 -1.4260
14825SOL    HW256535   4.610   3.925   3.953 -3.2048 -0.2085  0.0319
14826SOL     OW56536   8.129   2.020   8.362  0.5113  0.0739  0.1714
14826SOL    HW156537   8.103   1.935   8.315  1.4526  0.4838 -1.1288
14826SOL    HW256538   8.084   2.097   8.317  1.6142  0.4973 -0.2197
14827SOL     OW56539   8.882   4.677   4.750  0.3485  0.0545  0.0010
14827SOL    HW156540   8.886   4.777   4.747 -1.6217  0.1158 -0.9899
14827SOL    HW256541   8.878   4.641   4.657  0.4065 -0.9314  0.3779
14828SOL     OW56542   6.435   0.575   5.812 -0.3611  0.8458 -0.1663
14828SOL    HW156543   6.524   0.616   5.829  0.8584 -2.4935  1.7669
14828SOL    HW256544   6.442   0.509   5.738 -0.7240 -0.9782  1.3990
14829SOL     OW56545   7.752   5.978   2.256 -0.0319  0.0451  0.0174
14829SOL    HW156546   7.847   5.947   2.250  0.0941  0.1550  1.4092
14829SOL    HW256547   7.730   6.031   2.174  1.1885  0.2276 -0.2098
14830SOL     OW56548   2.900   9.800   5.390  0.0237 -0.1192 -0.5570
14830SOL    HW156549   2.829   9.869   5.376 -1.2693 -1.5755 -1.3518
14830SOL    HW256550   2.955   9.791   5.307  0.6556  0.4585 -0.2054
14831SOL     OW56551   8.273   6.504   9.974  0.0600 -0.2065 -0.7589
14831SOL    HW156552   8.222   6.588   9.989  2.2837  1.0226  0.2967
14831SOL    HW256553   8.227   6.428  10.019 -1.3190  0.6775 -0.6643
14832SOL     OW56554   0.525   5.817   1.773 -0.3410  0.2050  0.3374
14832SOL    HW156555   0.495   5.896   1.719 -0.1197  0.3630  0.4407
14832SOL    HW256556   0.454   5.747   1.772 -0.8237  0.6868  0.8155
14833SOL     OW56557   0.272   4.787   8.429 -0.1987  0.3676 -0.0089
14833SOL    HW156558   0.271   4.883   8.458 -0.8391  1.0658 -2.2160
14833SOL    HW256559   0.343   4.774   8.361 -0.4113 -0.6317 -0.0393
14834SOL     OW56560   8.979   8.662   5.596  0.4141  0.3413 -0.7288
14834SOL    HW156561   9.070   8.668   5.553  0.3980 -0.2705 -0.8438
14834SOL    HW256562   8.974   8.728   5.671  1.1688 -0.0594 -0.3274
14835SOL     OW56563   8.471   6.157   8.792 -0.0523 -0.2180  0.0165
14835SOL    HW156564   8.549   6.113   8.836 -0.0333 -0.4141 -0.2096
14835SOL    HW256565   8.444   6.238   8.845 -0.6993 -1.0496  0.9803
14836SOL     OW56566   6.356   0.032   3.876  0.5129 -0.4608  0.2511
14836SOL    HW156567   6.391   0.124   3.856 -1.0229 -0.0016 -0.3610
14836SOL    HW256568   6.325   0.029   3.971  2.3767 -0.9426  0.8783
14837SOL     OW56569   3.318   2.451   1.434 -0.9561 -0.1987 -0.0844
14837SOL    HW156570   3.327   2.370   1.375 -0.1877 -0.8185  0.8652
14837SOL    HW256571   3.408   2.476   1.469 -1.3417  0.4512  0.4472
14838SOL     OW56572   9.029   0.402   2.179 -0.8326  0.4292  0.3426
14838SOL    HW156573   8.987   0.482   2.134 -0.1190 -0.1566 -1.4205
14838SOL    HW256574   8.967   0.325   2.174 -0.4407  0.1460 -0.3948
14839SOL     OW56575   0.492   8.704   7.361  0.0122  0.5203 -0.1115
14839SOL    HW156576   0.540   8.789   7.337  1.7640 -0.9480 -1.9187
14839SOL    HW256577   0.490   8.643   7.282 -1.6313 -0.9706  1.0457
14840SOL     OW56578   8.731   1.920   8.850  0.3735 -0.3317  0.3556
14840SOL    HW156579   8.640   1.880   8.845  0.6117 -1.3768  3.2553
14840SOL    HW256580   8.726   2.009   8.895  0.5248  0.6470 -1.5002
14841SOL     OW56581   9.976   6.912   7.732 -0.0592 -0.5469  0.3919
14841SOL    HW156582  10.026   6.845   7.677  1.2683  1.9355 -1.5236
14841SOL    HW256583   9.881   6.915   7.703  0.2830 -0.3568 -0.7075
14842SOL     OW56584   8.318   9.351   9.025 -0.0840  0.0278  0.0599
14842SOL    HW156585   8.240   9.289   9.015  0.4620 -0.6033 -0.3362
14842SOL    HW256586   8.393   9.319   8.968  0.9639 -0.1736  1.5272
14843SOL     OW56587   3.403   9.146   4.470  0.4873  0.1997  0.0035
14843SOL    HW156588   3.492   9.143   4.424  0.3552 -0.1196 -0.2273
14843SOL    HW256589   3.416   9.141   4.569  0.7360  0.3330 -0.0210
14844SOL     OW56590   9.234   0.762   2.765 -0.2448 -0.0102  0.2613
14844SOL    HW156591   9.318   0.712   2.787  0.0281  1.4795  2.7322
14844SOL    HW256592   9.173   0.702   2.711  2.4411 -1.0348 -1.7698
14845SOL     OW56593   0.377   8.893   7.931 -0.1140 -0.2716 -0.2743
14845SOL    HW156594   0.403   8.964   7.997 -1.3449 -1.4615  1.5260
14845SOL    HW256595   0.363   8.935   7.841 -0.0998  1.6561  0.5985
14846SOL     OW56596   1.349   6.243   1.836  0.3699  0.0968  0.4550
14846SOL    HW156597   1.416   6.168   1.837  1.6245  1.1837 -0.1846
14846SOL    HW256598   1.259   6.207   1.814  0.9480 -1.2426  0.2432
14847SOL     OW56599   4.796   2.761   9.807 -0.0581  0.0618 -0.1922
14847SOL    HW156600   4.867   2.820   9.845 -1.6522  1.2753  1.0026
14847SOL    HW256601   4.738   2.815   9.746 -0.9831 -0.4810  0.2048
14848SOL     OW56602   7.768   5.186   2.370 -0.5159 -0.3659 -0.4674
14848SOL    HW156603   7.805   5.259   2.428 -2.0335 -0.8464  1.1428
14848SOL    HW256604   7.730   5.113   2.428 -2.2067 -0.7949 -2.0682
14849SOL     OW56605   7.709   1.197   8.729  0.4732  0.2504  1.3811
14849SOL    HW156606   7.664   1.122   8.777 -0.4765 -0.8736 -1.1566
14849SOL    HW256607   7.803   1.170   8.708 -0.2340 -0.7787 -0.6085
14850SOL     OW56608   6.317   0.325   2.900  0.1519 -0.0482  0.1964
14850SOL    HW156609   6.282   0.418   2.911  0.4016  0.2348 -1.4169
14850SOL    HW256610   6.241   0.260   2.908 -0.3285  0.4084 -0.6099
14851SOL     OW56611   1.417   0.776   7.792  0.2590 -0.2261 -0.1492
14851SOL    HW156612   1.474   0.705   7.834 -0.2690 -0.0986  0.7902
14851SOL    HW256613   1.324   0.769   7.827 -0.4644 -0.8249 -2.1325
14852SOL     OW56614   4.277   5.100   4.179 -0.2983  0.0756  0.3000
14852SOL    HW156615   4.287   5.077   4.276  0.4692 -1.1945 -0.0681
14852SOL    HW256616   4.211   5.037   4.137 -0.6336  0.6284 -0.0067
14853SOL     OW56617   0.125   7.918   4.872 -0.2371  0.5679  0.2764
14853SOL    HW156618   0.125   7.819   4.859 -0.2774  0.8502 -2.2914
14853SOL    HW256619   0.218   7.949   4.889 -0.1676  0.1199  0.7178
14854SOL     OW56620   0.779   4.864   7.099 -0.2411  0.6901 -0.8155
14854SOL    HW156621   0.724   4.900   7.175  0.5317  1.0353 -0.4151
14854SOL    HW256622   0.744   4.775   7.071  1.3176 -0.8327  1.9421
14855SOL     OW56623   2.594   4.285   1.648 -0.4327  0.5150 -0.7403
14855SOL    HW156624   2.681   4.301   1.696 -0.1975  2.7534 -1.8626
14855SOL    HW256625   2.534   4.230   1.706  1.6721 -0.9562  0.1092
14856SOL     OW56626   3.380   4.256   6.454  0.1142 -0.1822 -0.1717
14856SOL    HW156627   3.352   4.229   6.546 -1.4344  2.5895  0.2188
14856SOL    HW256628   3.467   4.306   6.458  1.2218 -2.0302 -0.5093
14857SOL     OW56629   9.372   3.642   6.825  0.5447 -0.2029  0.4478
14857SOL    HW156630   9.365   3.596   6.736 -0.5284 -0.1284  0.4946
14857SOL    HW256631   9.373   3.574   6.898 -1.5009 -0.1592  0.5444
14858SOL     OW56632   7.147   8.058   7.343  0.1577  0.0893  0.0707
14858SOL    HW156633   7.049   8.060   7.359  0.3071 -2.0801  1.4077
14858SOL    HW256634   7.166   8.031   7.249 -0.5254  0.6500 -0.2263
14859SOL     OW56635   8.966   1.841   3.859 -0.0324  0.4188  0.2554
14859SOL    HW156636   9.007   1.751   3.847 -0.5368  0.2615 -0.3267
14859SOL    HW256637   8.971   1.891   3.773 -0.6472  0.5673  0.3033
14860SOL     OW56638   7.516   7.099   6.023 -0.0158  0.3642 -0.3002
14860SOL    HW156639   7.480   7.185   6.057 -0.9104 -0.9461  2.1814
14860SOL    HW256640   7.595   7.072   6.077  1.1669  0.3354 -2.0087
14861SOL     OW56641   1.659   7.518   3.541 -0.3656  0.0351 -0.0182
14861SOL    HW156642   1.695   7.550   3.453 -0.5256 -0.3627 -0.2352
14861SOL    HW256643   1.663   7.591   3.608 -0.3241  0.3728 -0.3867
14862SOL     OW56644   9.800   4.903   2.549  0.0869  0.6080 -0.0210
14862SOL    HW156645   9.895   4.872   2.558 -0.2280 -0.6573 -0.8422
14862SOL    HW256646   9.794   5.000   2.571  1.4528  0.5314  0.7247
14863SOL     OW56647   0.910   5.312   9.719 -0.0229  0.0382 -0.4375
14863SOL    HW156648   0.836   5.248   9.699  0.2768  0.0555 -1.7005
14863SOL    HW256649   0.915   5.329   9.817 -0.7953 -1.0455 -0.1996
14864SOL     OW56650   3.741   5.643   8.423 -0.3894 -0.0254 -0.1007
14864SOL    HW156651   3.740   5.583   8.343  1.1417 -0.0296 -0.1201
14864SOL    HW256652   3.752   5.738   8.394 -0.5433  0.0413  0.0607
14865SOL     OW56653   0.237   5.340   8.482 -0.0199  0.2598  0.1439
14865SOL    HW156654   0.156   5.352   8.426  0.1117 -0.6729 -0.2497
14865SOL    HW256655   0.310   5.298   8.428  1.1751  2.3391  0.1229
14866SOL     OW56656   6.829   8.957   7.256  0.4969  0.5636 -0.3452
14866SOL    HW156657   6.748   8.994   7.301 -0.6978 -1.0567 -1.1029
14866SOL    HW256658   6.841   8.999   7.166  0.1483  0.3904 -0.4744
14867SOL     OW56659   0.593   3.992   9.242 -0.1462 -0.0905 -0.5564
14867SOL    HW156660   0.665   3.954   9.300  1.0141 -0.3372 -2.1219
14867SOL    HW256661   0.504   3.967   9.278  0.5724 -2.7396 -0.5351
14868SOL     OW56662   7.032   4.965   8.534 -0.7363 -0.4934 -0.2481
14868SOL    HW156663   7.077   5.054   8.541 -1.2515 -0.2819  0.4865
14868SOL    HW256664   7.100   4.893   8.523 -0.1144 -0.3335  2.3233
14869SOL     OW56665   3.540   3.555   4.218  0.3372 -0.4996 -0.3866
14869SOL    HW156666   3.467   3.568   4.285 -0.2795  2.4915 -1.5619
14869SOL    HW256667   3.623   3.600   4.249  0.0288  0.9615 -1.6229
14870SOL     OW56668   1.251   3.795   8.819 -0.0218 -0.1551 -0.0481
14870SOL    HW156669   1.187   3.818   8.893  1.8790 -0.2174  1.6688
14870SOL    HW256670   1.231   3.704   8.785 -0.5729 -0.3510  0.7743
14871SOL     OW56671   2.080   4.846   6.551 -0.5568  0.2169  0.1974
14871SOL    HW156672   2.164   4.816   6.597 -0.6307 -0.8175 -0.3402
14871SOL    HW256673   2.013   4.872   6.620  0.5930  2.1898  0.6306
14872SOL     OW56674   1.578   3.523   5.541 -0.0388 -0.2043  0.3000
14872SOL    HW156675   1.533   3.512   5.629 -0.8564 -1.4654 -0.2651
14872SOL    HW256676   1.611   3.435   5.508  1.2628  0.4267 -0.1357
14873SOL     OW56677   0.776   5.305   6.045 -0.7615  0.0166 -0.5787
14873SOL    HW156678   0.842   5.376   6.023 -0.7063 -0.1822 -1.0563
14873SOL    HW256679   0.757   5.306   6.143 -0.5194  0.4781 -0.5362
14874SOL     OW56680   5.159   8.762   6.280  0.0545  0.4876 -0.2741
14874SOL    HW156681   5.167   8.670   6.318 -0.8451  0.2594 -0.6117
14874SOL    HW256682   5.134   8.826   6.352 -2.6380 -0.1098 -0.6349
14875SOL     OW56683   2.542   1.862   3.222  0.4047  0.4374  0.6182
14875SOL    HW156684   2.634   1.823   3.221  0.6050  0.8745  1.3145
14875SOL    HW256685   2.478   1.795   3.258  0.6650  0.5561  1.3225
14876SOL     OW56686   7.497   2.814   1.806  0.1000  0.0305 -0.1204
14876SOL    HW156687   7.420   2.864   1.846  0.1401 -0.0328  0.0369
14876SOL    HW256688   7.574   2.814   1.870  0.1265 -0.1645 -0.1512
14877SOL     OW56689   5.649   3.973   9.292 -0.0066  0.5254  1.0020
14877SOL    HW156690   5.603   4.026   9.364  1.3217  1.7369  0.9795
14877SOL    HW256691   5.708   3.904   9.333 -0.7331 -0.0796  1.0442
14878SOL     OW56692   5.659   8.974   8.784  0.3049  0.1972  0.0256
14878SOL    HW156693   5.676   8.919   8.702  1.9991  1.6016 -0.5853
14878SOL    HW256694   5.735   8.962   8.848  0.4494  1.4549  0.0910
14879SOL     OW56695   9.330   8.063   5.987  0.0053  0.4835  0.3822
14879SOL    HW156696   9.405   8.093   5.929 -0.5390  2.1996  0.5394
14879SOL    HW256697   9.247   8.054   5.933  0.0306 -0.2169  0.4498
14880SOL     OW56698   1.279   2.400   3.088 -0.6510  0.0075  1.2279
14880SOL    HW156699   1.259   2.496   3.072 -1.2721 -0.3748 -0.3126
14880SOL    HW256700   1.365   2.392   3.139 -1.9007  1.4707  3.6714
14881SOL     OW56701   8.711   5.368   4.887 -0.3547  0.3715 -0.2544
14881SOL    HW156702   8.704   5.355   4.986 -2.2585 -1.0919 -0.5518
14881SOL    HW256703   8.744   5.460   4.868  0.9253  0.3552  1.7556
14882SOL     OW56704   1.960   7.781   7.224  0.4153 -0.5227  0.1808
14882SOL    HW156705   1.937   7.742   7.313 -0.5320 -0.8573 -0.2113
14882SOL    HW256706   1.977   7.708   7.158  2.6072 -0.3038  0.4348
14883SOL     OW56707   3.795   2.979   4.474 -0.1343 -0.2004 -0.2347
14883SOL    HW156708   3.705   2.961   4.433  0.0966 -1.1020 -0.3602
14883SOL    HW256709   3.808   2.919   4.553 -0.9767  2.1853  1.7746
14884SOL     OW56710   6.415   2.949   9.975 -0.1285  0.5242 -0.0170
14884SOL    HW156711   6.484   2.928  10.044 -0.2946  0.8545  0.2473
14884SOL    HW256712   6.438   3.036   9.931 -0.7359  0.9481  0.5150
14885SOL     OW56713   4.533   7.999   8.273 -0.0905 -0.4006 -0.5546
14885SOL    HW156714   4.520   7.910   8.229  0.6134 -1.1449  0.7022
14885SOL    HW256715   4.445   8.032   8.307 -0.0416 -1.5879  0.7711
14886SOL     OW56716   1.281   2.366   7.118  0.3496 -0.5753  0.2489
14886SOL    HW156717   1.209   2.320   7.170  0.1224  0.3467  0.7617
14886SOL    HW256718   1.252   2.378   7.023  0.6785 -2.0746 -0.0634
14887SOL     OW56719   4.029   5.030   4.450 -0.1812  0.0662  0.6643
14887SOL    HW156720   4.084   4.951   4.476 -0.0899 -0.8857 -2.2543
14887SOL    HW256721   3.937   5.021   4.490  0.9010  0.3179  3.3049
14888SOL     OW56722   8.263   0.911   2.438  0.0745 -0.1155  0.2154
14888SOL    HW156723   8.225   0.822   2.412  1.2461 -1.2242  2.1612
14888SOL    HW256724   8.356   0.919   2.402  0.8761 -0.7275  2.0927
14889SOL     OW56725   8.275   3.387   9.016 -0.2486 -0.3153 -0.6918
14889SOL    HW156726   8.224   3.461   8.971 -0.1852  0.4134  0.4303
14889SOL    HW256727   8.229   3.362   9.101  2.3230  1.7704  1.4194
14890SOL     OW56728   4.428   3.325   1.873 -0.4138  0.2203 -0.1580
14890SOL    HW156729   4.466   3.418   1.881  1.7975 -0.6164 -0.5044
14890SOL    HW256730   4.368   3.307   1.951  0.1237  1.4984  0.5648
14891SOL     OW56731   3.501   0.381   4.537  0.5047  0.0968  0.7011
14891SOL    HW156732   3.480   0.451   4.468  1.0789  0.7681  1.2090
14891SOL    HW256733   3.451   0.401   4.621  1.3687  0.3957  1.1422
14892SOL     OW56734   1.267   1.987   9.028 -0.3177 -0.0136  0.4561
14892SOL    HW156735   1.338   1.927   8.992  1.5106  2.6757 -0.5351
14892SOL    HW256736   1.265   1.979   9.128 -0.5704 -2.1764  0.3101
14893SOL     OW56737   8.778   1.313   2.421  0.3293 -0.5348 -0.2300
14893SOL    HW156738   8.781   1.261   2.336 -2.3057  1.7655 -1.8379
14893SOL    HW256739   8.716   1.269   2.486 -4.1032  1.8461 -2.6089
14894SOL     OW56740   4.609   8.974   3.643  0.1198  0.0658 -0.4186
14894SOL    HW156741   4.606   8.949   3.546  0.2033  2.4670 -1.0595
14894SOL    HW256742   4.518   8.964   3.683 -0.2640  0.6418 -1.1475
14895SOL     OW56743   0.658   6.556   2.447 -0.1126 -0.3729 -0.2035
14895SOL    HW156744   0.753   6.537   2.422  0.8325 -1.0625  3.6494
14895SOL    HW256745   0.597   6.493   2.398  1.7199 -2.5195  0.2341
14896SOL     OW56746   9.028   6.775   0.080 -0.0151  0.4777  0.3121
14896SOL    HW156747   8.940   6.815   0.106 -0.4995  0.7662 -1.7174
14896SOL    HW256748   9.086   6.768   0.161 -1.8177  0.4737  1.6423
14897SOL     OW56749   1.689   4.021   0.083  0.5528  0.5024 -0.1820
14897SOL    HW156750   1.665   3.925   0.092 -1.2634  1.1545  2.2869
14897SOL    HW256751   1.779   4.037   0.124  0.4973  0.0345  0.1181
14898SOL     OW56752   5.854   1.305   1.549  0.1923 -0.2859 -0.1376
14898SOL    HW156753   5.862   1.325   1.451 -2.4725  1.1040 -0.1287
14898SOL    HW256754   5.881   1.384   1.602  2.5061 -1.3497  0.3027
14899SOL     OW56755   2.573   3.131   4.209  0.4131 -0.0997  0.4556
14899SOL    HW156756   2.506   3.088   4.269 -1.7266  1.6158 -0.6254
14899SOL    HW256757   2.575   3.229   4.226  3.2234 -0.2228  0.9877
14900SOL     OW56758   8.939   2.070   4.317 -0.0500 -0.3753 -0.0871
14900SOL    HW156759   9.009   2.116   4.371  0.7739 -0.4537 -1.0781
14900SOL    HW256760   8.965   1.976   4.300  0.2343 -0.0518 -1.5438
14901SOL     OW56761   0.263   2.921   1.500  0.3854  0.1801 -0.1480
14901SOL    HW156762   0.266   2.829   1.460 -2.2221  0.9303 -2.2259
14901SOL    HW256763   0.248   2.913   1.599  0.6266 -1.6251 -0.2322
14902SOL     OW56764   3.871   4.492   3.912 -0.4239  0.0915  0.0293
14902SOL    HW156765   3.812   4.567   3.883 -2.3141 -0.3151  2.6549
14902SOL    HW256766   3.962   4.527   3.933 -0.6190  1.2514 -1.0231
14903SOL     OW56767   4.533   4.084   5.302 -0.9385  0.5211 -0.5950
14903SOL    HW156768   4.467   4.071   5.376 -0.9491  2.0801 -0.3196
14903SOL    HW256769   4.508   4.027   5.224 -0.1201 -2.2741  1.1189
14904SOL     OW56770   6.174   2.153   1.270  0.1447 -0.2113  0.4962
14904SOL    HW156771   6.244   2.130   1.203  0.9171 -0.1537  1.2778
14904SOL    HW256772   6.153   2.250   1.266  1.1137  0.0266  1.2182
14905SOL     OW56773   2.819   8.071   3.039  0.2893 -0.4694 -0.0406
14905SOL    HW156774   2.759   7.992   3.045  0.2595 -0.3832  0.8502
14905SOL    HW256775   2.909   8.048   3.077 -0.0990  0.2832  1.3847
14906SOL     OW56776   4.248   8.975   6.190  0.1442 -0.7658  0.0302
14906SOL    HW156777   4.283   8.882   6.186 -2.0484 -1.5745 -1.0339
14906SOL    HW256778   4.250   9.017   6.099  0.9909  0.1823  0.4756
14907SOL     OW56779   3.829   7.543   8.172 -0.2796  0.1777 -0.3262
14907SOL    HW156780   3.863   7.543   8.078 -0.1674  1.9123 -0.3092
14907SOL    HW256781   3.770   7.464   8.187 -0.1361 -0.2155 -1.7886
14908SOL     OW56782   6.598   6.339   7.966  0.0057  0.6055 -0.3651
14908SOL    HW156783   6.609   6.438   7.968  1.4294  0.4719 -1.0067
14908SOL    HW256784   6.574   6.311   7.872 -0.4003  0.3371 -0.1836
14909SOL     OW56785   5.706   5.765   1.713 -0.3654  0.2363  0.1574
14909SOL    HW156786   5.638   5.717   1.659 -0.3299 -0.6769  0.9044
14909SOL    HW256787   5.741   5.844   1.662  0.3909 -1.1724 -1.5506
14910SOL     OW56788   9.577   6.875   8.152 -0.3205  0.4257 -0.5534
14910SOL    HW156789   9.481   6.901   8.144  0.4883  3.0405 -2.6928
14910SOL    HW256790   9.587   6.777   8.136 -2.3745  0.5601 -3.0077
14911SOL     OW56791   0.601   9.710   0.399 -0.0267  0.4491 -0.0855
14911SOL    HW156792   0.515   9.687   0.352 -1.6246  3.5687  1.1455
14911SOL    HW256793   0.674   9.717   0.332 -0.8549 -1.5894 -1.2542
14912SOL     OW56794   4.894   6.054   7.935  0.0660 -0.1439  0.3577
14912SOL    HW156795   4.821   5.986   7.941  0.7472 -0.8476  0.7436
14912SOL    HW256796   4.855   6.145   7.945 -0.7051 -0.5386  1.0372
14913SOL     OW56797   7.977   2.069   0.412 -0.4676 -0.0482  0.3833
14913SOL    HW156798   7.966   2.164   0.382 -0.9741 -0.6886 -1.5748
14913SOL    HW256799   7.887   2.028   0.426 -0.2400  0.1862  2.7261
14914SOL     OW56800   5.667   1.352   1.901 -0.0941  0.4918 -0.1035
14914SOL    HW156801   5.641   1.284   1.831  0.9287  1.7828 -1.7750
14914SOL    HW256802   5.601   1.427   1.900  1.1012  1.5538 -1.1944
14915SOL     OW56803   2.124   6.064   2.181 -0.1446  0.2634 -0.6007
14915SOL    HW156804   2.217   6.101   2.171 -0.5094  1.2261 -0.5125
14915SOL    HW256805   2.059   6.140   2.186 -0.7988 -0.3696  0.7306
14916SOL     OW56806   1.347   9.592   4.515  0.3722  0.2628  0.0519
14916SOL    HW156807   1.365   9.633   4.605 -1.5040  0.2533  0.4677
14916SOL    HW256808   1.356   9.492   4.522  0.6850  0.2934  0.1154
14917SOL     OW56809   5.282   0.098   3.139 -0.0347 -0.0232  0.0012
14917SOL    HW156810   5.216   0.170   3.119  0.4123  0.3570 -0.1028
14917SOL    HW256811   5.251   0.045   3.219 -0.4018  0.2298  0.0230
14918SOL     OW56812   0.056   1.204   9.596  0.3454 -0.6472 -0.4859
14918SOL    HW156813   0.107   1.290   9.598  1.1047 -1.1169  1.7886
14918SOL    HW256814   0.120   1.128   9.584  0.1046 -1.1571  1.3250
14919SOL     OW56815   4.146   7.052   1.496 -0.2167 -0.5228  0.3351
14919SOL    HW156816   4.131   6.957   1.468  0.9653 -1.7704  3.7100
14919SOL    HW256817   4.227   7.088   1.449 -0.6201 -1.2028 -0.8966
14920SOL     OW56818   9.684   7.616   8.710  0.3973 -0.3037  0.0520
14920SOL    HW156819   9.711   7.664   8.793  0.6562 -1.4987  0.6691
14920SOL    HW256820   9.602   7.561   8.728  0.3266 -0.4005 -0.5385
14921SOL     OW56821   6.040   4.455   1.869  0.0600 -0.0328 -0.2303
14921SOL    HW156822   6.044   4.486   1.964  0.7846  1.8061 -0.8476
14921SOL    HW256823   6.031   4.355   1.867  2.6764 -0.3676  1.7628
14922SOL     OW56824   2.867   3.109   9.177 -0.6199 -0.3869  0.6664
14922SOL    HW156825   2.818   3.024   9.197  1.2497 -1.4962  0.6418
14922SOL    HW256826   2.948   3.115   9.235 -1.1161  1.7528  1.1855
14923SOL     OW56827   0.404   0.225   8.760  0.0230  0.0248  0.2237
14923SOL    HW156828   0.305   0.211   8.756  0.1312 -0.7878  0.4396
14923SOL    HW256829   0.426   0.316   8.723 -0.7995  0.2055  0.1726
14924SOL     OW56830   4.052   0.733   9.519 -0.4202  0.2231 -0.4996
14924SOL    HW156831   3.960   0.748   9.482  0.1335  2.4432 -1.0843
14924SOL    HW256832   4.058   0.642   9.558 -2.5563 -0.3404 -1.4081
14925SOL     OW56833   6.641   9.634   6.514 -0.2139  0.0415  0.5908
14925SOL    HW156834   6.546   9.656   6.491 -0.8297 -1.0216  2.0321
14925SOL    HW256835   6.687   9.595   6.434 -1.1757 -0.0518  0.0782
14926SOL     OW56836   7.262   9.002   5.845  0.3075 -0.0729 -0.4096
14926SOL    HW156837   7.276   8.903   5.854  0.1455  0.0329  1.2410
14926SOL    HW256838   7.317   9.037   5.770  1.6272 -1.1726  0.0259
14927SOL     OW56839   9.337   0.211   7.778 -0.2719 -0.4249  0.0396
14927SOL    HW156840   9.240   0.203   7.754 -0.2430 -1.1291  0.1565
14927SOL    HW256841   9.393   0.194   7.696 -0.2568  0.5307 -0.1556
14928SOL     OW56842   0.568   0.652   8.992 -0.6221  0.0375 -1.1359
14928SOL    HW156843   0.583   0.584   9.064  0.1914 -1.3878 -2.6136
14928SOL    HW256844   0.649   0.711   8.984  0.3077 -1.3990 -2.5367
14929SOL     OW56845   0.336   9.861   0.665  0.3014 -0.4761 -0.0343
14929SOL    HW156846   0.302   9.789   0.604  0.5671 -1.1685  0.6300
14929SOL    HW256847   0.375   9.820   0.747  1.0654  0.3903  0.0544
14930SOL     OW56848   9.855   2.270   2.332  0.4269  0.1614  0.3085
14930SOL    HW156849   9.818   2.182   2.301  1.6174 -0.1030 -0.4024
14930SOL    HW256850   9.954   2.262   2.344  0.4828  1.2959  0.6595
14931SOL     OW56851   2.396   3.865   5.668 -0.4271  0.3656 -0.0456
14931SOL    HW156852   2.317   3.808   5.689  1.1582 -1.5299  0.9839
14931SOL    HW256853   2.435   3.837   5.581 -2.3371  3.0007 -1.8372
14932SOL     OW56854   8.032   9.829   6.301  0.5171  0.1762  0.0699
14932SOL    HW156855   8.040   9.815   6.400  1.8020  0.5193  0.0257
14932SOL    HW256856   7.967   9.764   6.263 -0.9605  0.8841  1.3403
14933SOL     OW56857   3.115   2.718   7.232  0.2400  0.6649  0.1291
14933SOL    HW156858   3.139   2.621   7.225 -1.5263  0.3691 -3.0764
14933SOL    HW256859   3.156   2.768   7.156 -1.4284  1.8351 -0.0216
14934SOL     OW56860   8.148   4.646   3.009 -0.2569 -0.3816  0.1140
14934SOL    HW156861   8.056   4.673   3.035 -0.2862  0.2749 -0.6492
14934SOL    HW256862   8.143   4.569   2.946 -0.2248 -1.2973  1.2256
14935SOL     OW56863   2.941   1.667   8.890 -0.8369 -0.6812  0.0396
14935SOL    HW156864   2.949   1.749   8.948  0.9816 -1.1016  0.3974
14935SOL    HW256865   2.977   1.588   8.939 -2.7636 -1.7511 -0.2323
14936SOL     OW56866   2.137   2.506   6.292  0.1974 -0.2018  0.0578
14936SOL    HW156867   2.218   2.502   6.233 -0.9429  2.3655 -1.7463
14936SOL    HW256868   2.114   2.414   6.323  2.2592 -1.2810 -1.5176
14937SOL     OW56869   6.158   9.009   3.422 -0.2806  0.1669  0.1263
14937SOL    HW156870   6.142   9.047   3.513 -1.3237 -1.8433  0.8196
14937SOL    HW256871   6.229   8.939   3.428 -0.6044 -0.2173 -0.5453
14938SOL     OW56872   7.983   7.746   0.698  0.2473 -0.4233  0.1845
14938SOL    HW156873   7.964   7.776   0.791  2.1152  0.3081  0.3344
14938SOL    HW256874   7.969   7.647   0.692  1.7890 -0.7463  1.6686
14939SOL     OW56875   0.391   8.143   2.183  0.3708 -0.2818  0.5138
14939SOL    HW156876   0.310   8.139   2.241  0.1105 -2.2520  0.0295
14939SOL    HW256877   0.367   8.182   2.094  0.2446  0.3874  0.8387
14940SOL     OW56878   9.743   4.335   6.436  0.5506 -0.1736 -0.1187
14940SOL    HW156879   9.768   4.239   6.420 -1.5526 -0.9692  1.1249
14940SOL    HW256880   9.668   4.360   6.375 -1.6848 -0.6227  2.3266
14941SOL     OW56881   5.536   5.986   0.107 -0.1857 -0.0578 -0.3532
14941SOL    HW156882   5.570   5.897   0.137 -0.3989 -0.3150 -0.8580
14941SOL    HW256883   5.532   5.988   0.007  0.8760  0.9094 -0.3942
14942SOL     OW56884   7.636   5.681   0.423  0.1536 -0.0721 -0.0979
14942SOL    HW156885   7.729   5.657   0.394  1.6188  1.2433  3.2334
14942SOL    HW256886   7.588   5.600   0.454  0.3642 -0.6834 -1.3490
14943SOL     OW56887   1.730   6.651   4.259  0.1169 -0.3036 -0.3620
14943SOL    HW156888   1.665   6.696   4.321  1.3545  0.6774  0.2356
14943SOL    HW256889   1.756   6.562   4.298  0.1944 -0.0926  0.0778
14944SOL     OW56890   0.896   5.921   3.798 -0.4308 -0.2135  0.1702
14944SOL    HW156891   0.977   5.899   3.852 -1.4266 -0.9418  1.3690
14944SOL    HW256892   0.871   6.017   3.813  0.2802  0.0624 -0.3306
14945SOL     OW56893   5.375   8.461   6.136 -0.1492  0.2041  0.1296
14945SOL    HW156894   5.295   8.436   6.190  1.0887 -2.3145  0.8660
14945SOL    HW256895   5.392   8.391   6.067  0.9884  1.0756 -0.4893
14946SOL     OW56896   1.815   3.066   6.688 -0.3247 -0.0662 -0.1049
14946SOL    HW156897   1.905   3.087   6.726  0.1476  0.7162 -1.5853
14946SOL    HW256898   1.793   2.970   6.703  0.5526 -0.1427  0.6913
14947SOL     OW56899   8.896   1.552   9.147  0.0873 -0.3511  0.0556
14947SOL    HW156900   8.827   1.570   9.216  0.4010 -0.1801  0.3274
14947SOL    HW256901   8.864   1.584   9.058 -0.2442 -0.4129  0.1531
14948SOL     OW56902   3.063   0.471   9.089  0.2823  0.1171 -0.2120
14948SOL    HW156903   3.012   0.459   9.175 -0.4026 -0.1862 -0.6540
14948SOL    HW256904   3.025   0.410   9.020 -0.4853  1.8170 -1.3169
14949SOL     OW56905   3.989   0.365   6.573  0.3366 -0.6383 -0.0903
14949SOL    HW156906   4.072   0.406   6.534 -0.5902  0.6767 -0.7366
14949SOL    HW256907   3.971   0.405   6.663 -1.6816  1.9999 -1.5597
14950SOL     OW56908   4.923   3.811   1.454 -0.7430 -0.1858 -0.4793
14950SOL    HW156909   4.899   3.895   1.501 -1.5637 -0.4786 -0.3616
14950SOL    HW256910   5.016   3.784   1.479 -1.2958 -0.5418  1.2916
14951SOL     OW56911   6.103   9.423   8.334  0.0142  0.1996  0.4489
14951SOL    HW156912   6.183   9.364   8.327  0.4576  0.9228 -0.7911
14951SOL    HW256913   6.025   9.370   8.366  0.7069 -0.7726  0.5557
14952SOL     OW56914   3.288   0.737   2.653  0.5533 -0.1012  0.3304
14952SOL    HW156915   3.347   0.717   2.732  0.5029  1.8566  0.8869
14952SOL    HW256916   3.203   0.780   2.685 -0.0734 -0.5796 -0.6790
14953SOL     OW56917   3.384   3.006   9.518  0.2340  0.1249 -0.6076
14953SOL    HW156918   3.481   3.028   9.528  0.0499  1.3590 -1.4801
14953SOL    HW256919   3.332   3.090   9.503 -1.0404 -0.4764  0.3357
14954SOL     OW56920   0.284   0.837   7.687  0.2957 -0.0465  0.4103
14954SOL    HW156921   0.308   0.741   7.680 -2.0557 -0.5965 -0.7613
14954SOL    HW256922   0.233   0.853   7.772 -0.7086 -0.1898 -0.1500
14955SOL     OW56923   9.810   5.181   2.559 -0.0331  0.4186 -0.2744
14955SOL    HW156924   9.813   5.235   2.643 -0.6732  0.4803 -0.2905
14955SOL    HW256925   9.723   5.196   2.513 -0.7717 -1.6429  0.4109
14956SOL     OW56926   9.751   1.685   6.141  0.9562 -0.1134 -0.0463
14956SOL    HW156927   9.684   1.612   6.156  1.1873 -0.0653  1.3057
14956SOL    HW256928   9.706   1.765   6.101  0.4938 -0.5939 -0.4966
14957SOL     OW56929   0.027   9.600   8.446 -0.1521 -0.4204 -0.7561
14957SOL    HW156930  -0.024   9.549   8.376 -0.0261  0.3559 -1.4246
14957SOL    HW256931   0.125   9.594   8.426 -0.1156 -0.2098 -0.6375
14958SOL     OW56932   0.823   7.105   3.007 -0.2297  0.3021 -0.5075
14958SOL    HW156933   0.799   7.008   3.002  1.0718 -0.1961  2.3069
14958SOL    HW256934   0.911   7.116   3.054  0.3128  2.7676 -1.9940
14959SOL     OW56935   4.264   2.544   0.872  0.9406  0.3445  0.5435
14959SOL    HW156936   4.171   2.517   0.845  1.0393 -0.8423  1.3405
14959SOL    HW256937   4.322   2.548   0.791  0.7405 -1.1689  0.3087
14960SOL     OW56938   3.232   6.333   9.131 -0.6606  0.2948  0.4446
14960SOL    HW156939   3.216   6.243   9.173 -1.1632 -0.0452 -0.4614
14960SOL    HW256940   3.259   6.321   9.036 -2.3738  1.1493 -0.1679
14961SOL     OW56941   9.543   7.026   4.594 -0.2514 -0.0677 -0.4549
14961SOL    HW156942   9.513   7.100   4.654  2.4435  0.4301  0.3781
14961SOL    HW256943   9.536   7.056   4.499  0.4861  1.1730 -0.1363
14962SOL     OW56944   1.776   0.138   7.831 -0.0066 -0.0324  0.6140
14962SOL    HW156945   1.709   0.066   7.848 -0.4411  0.4696  1.0335
14962SOL    HW256946   1.843   0.140   7.906  1.2375 -1.3799 -0.4386
14963SOL     OW56947   4.309   2.510   6.305  0.4119  0.1547  0.1778
14963SOL    HW156948   4.239   2.500   6.375  0.6194  0.1448  0.3849
14963SOL    HW256949   4.267   2.536   6.218 -0.1193 -2.1626 -0.2863
14964SOL     OW56950   5.043   8.637   4.928  0.2859  0.1053  0.1931
14964SOL    HW156951   4.953   8.612   4.962  1.1560 -0.3600  2.2345
14964SOL    HW256952   5.068   8.577   4.852 -1.0813  0.2070 -0.3529
14965SOL     OW56953   0.566   3.162   1.972  0.0311 -0.5313  0.7850
14965SOL    HW156954   0.604   3.085   1.922 -1.0472 -0.0739 -0.7808
14965SOL    HW256955   0.507   3.129   2.045 -0.5838 -1.1969 -0.0024
14966SOL     OW56956   0.199   0.125   4.740 -0.0468  0.2078 -0.5399
14966SOL    HW156957   0.182   0.118   4.838 -1.0181  1.2423 -0.6251
14966SOL    HW256958   0.117   0.098   4.689  0.3892 -0.1476 -1.0628
14967SOL     OW56959   0.844   6.956   6.713  0.4225  0.1891  0.7625
14967SOL    HW156960   0.938   6.965   6.745  1.2977  2.9214 -2.3527
14967SOL    HW256961   0.843   6.905   6.627 -0.9841 -0.0035  0.8833
14968SOL     OW56962   4.338   0.286   8.180 -0.3645 -0.3717  0.2199
14968SOL    HW156963   4.239   0.270   8.187 -0.0259 -1.8371  2.1610
14968SOL    HW256964   4.369   0.336   8.261  0.9197 -2.3637  0.9839
14969SOL     OW56965   9.638   5.244   0.401 -0.5978  0.0330  0.6402
14969SOL    HW156966   9.607   5.240   0.306 -0.9502 -1.0637  0.7932
14969SOL    HW256967   9.612   5.332   0.441 -1.9912 -0.1859  0.2425
14970SOL     OW56968   0.601   7.913   3.105  0.2488  0.0187 -0.0977
14970SOL    HW156969   0.630   7.824   3.070  2.2500  1.3415 -1.9797
14970SOL    HW256970   0.550   7.962   3.034 -0.2860  0.6225  0.6958
14971SOL     OW56971   8.688   6.485   4.306  0.0839  0.3425  0.0213
14971SOL    HW156972   8.786   6.500   4.295 -0.0063  1.5111  0.6954
14971SOL    HW256973   8.638   6.543   4.242 -0.1904  0.3594  0.2502
14972SOL     OW56974   1.701   6.242  10.039 -0.2923  0.0484  0.3818
14972SOL    HW156975   1.681   6.327   9.990 -0.1960 -0.3760 -0.3909
14972SOL    HW256976   1.791   6.249  10.083 -0.8325  0.8236  1.3732
14973SOL     OW56977   5.746   2.931   8.518 -0.3368  1.0588  0.0660
14973SOL    HW156978   5.727   2.969   8.427  1.4206 -1.9930 -1.6455
14973SOL    HW256979   5.836   2.961   8.548  0.2651 -0.2074 -0.4597
14974SOL     OW56980   8.643   1.241   7.922 -0.0171 -0.4560  0.2509
14974SOL    HW156981   8.559   1.241   7.977  0.1763  0.0843  0.5561
14974SOL    HW256982   8.691   1.154   7.933 -0.1189 -0.4536  0.7294
14975SOL     OW56983   7.835   2.215   7.178 -0.4958  0.5834  0.4116
14975SOL    HW156984   7.758   2.153   7.161 -1.1894  1.7533 -0.8408
14975SOL    HW256985   7.892   2.178   7.251 -0.3780 -1.9971 -0.9220
14976SOL     OW56986   5.741   7.033   1.597 -0.1455  0.1909  0.0225
14976SOL    HW156987   5.744   6.986   1.685  1.4057  0.2811  0.0278
14976SOL    HW256988   5.757   7.131   1.610 -2.8111  0.6895 -0.0567
14977SOL     OW56989   9.220   8.745   5.481  0.0617 -0.1736  0.4466
14977SOL    HW156990   9.257   8.713   5.393 -2.2320 -1.3093 -0.1489
14977SOL    HW256991   9.254   8.837   5.500  0.7094  0.0252 -1.5550
14978SOL     OW56992   1.371   4.845   1.582 -0.0357  0.1849  0.2893
14978SOL    HW156993   1.362   4.829   1.680  1.2884  1.2501  0.5933
14978SOL    HW256994   1.353   4.941   1.561  0.1584  0.0652 -0.4550
14979SOL     OW56995   4.033   7.513   5.490 -0.0394  0.4621 -0.2682
14979SOL    HW156996   3.958   7.450   5.512  2.2609 -1.9611  0.8736
14979SOL    HW256997   4.018   7.601   5.536 -2.5460  0.2768 -0.6813
14980SOL     OW56998   3.630   9.565   9.728 -0.1255  0.6856 -0.4086
14980SOL    HW156999   3.691   9.558   9.649 -1.1348 -1.4637 -1.0331
14980SOL    HW257000   3.665   9.507   9.801 -1.0722 -0.0640 -0.5450
14981SOL     OW57001   5.202   5.804   2.441  0.1979 -0.2945 -0.2078
14981SOL    HW157002   5.201   5.729   2.375 -0.2173 -0.1543 -0.3623
14981SOL    HW257003   5.142   5.783   2.518  3.0411 -1.8480  1.7033
14982SOL     OW57004   2.768   9.529   7.813  0.2037  0.0464  0.1181
14982SOL    HW157005   2.822   9.471   7.752 -0.1481  0.9752 -1.0804
14982SOL    HW257006   2.754   9.618   7.771 -1.8705 -0.0131  0.6429
14983SOL     OW57007   0.520   2.440   3.777 -0.4011 -0.3307 -0.4571
14983SOL    HW157008   0.515   2.392   3.689 -1.8111 -1.3650  0.1739
14983SOL    HW257009   0.454   2.516   3.776 -1.8585 -1.5669  0.4289
14984SOL     OW57010   3.372   1.519   2.795 -0.4410  0.4064  0.2391
14984SOL    HW157011   3.461   1.564   2.796 -0.0445 -0.3689  1.2627
14984SOL    HW257012   3.340   1.507   2.890 -1.6709  0.7565 -0.1211
14985SOL     OW57013   5.813   3.988   8.857 -0.0928 -0.4405  0.3209
14985SOL    HW157014   5.913   3.984   8.861 -0.0259 -0.9332 -1.4686
14985SOL    HW257015   5.785   4.071   8.810 -0.5277 -0.2795  0.8637
14986SOL     OW57016   1.906   7.461   0.185 -0.2808  0.1089  0.1535
14986SOL    HW157017   1.826   7.500   0.138 -1.0192  0.5156  1.7066
14986SOL    HW257018   1.876   7.389   0.248  0.6345 -0.0855  0.3779
14987SOL     OW57019   1.906   5.386   4.108 -0.3311 -0.8805 -0.1343
14987SOL    HW157020   1.859   5.410   4.192  0.2093  0.8367 -0.2882
14987SOL    HW257021   1.843   5.339   4.046 -1.2382 -0.5293  0.5083
14988SOL     OW57022   1.928   7.969   2.418 -0.5284  0.1260 -0.0102
14988SOL    HW157023   1.944   8.031   2.495  1.3895  2.5767 -2.2922
14988SOL    HW257024   1.995   7.895   2.421 -1.2508 -0.4878  1.3563
14989SOL     OW57025   2.063   5.329   9.980 -0.6375  0.7883  0.2285
14989SOL    HW157026   2.105   5.354  10.067 -1.7816  0.7387  0.8113
14989SOL    HW257027   1.974   5.374   9.973 -0.2247  1.4161 -1.2675
14990SOL     OW57028   0.931   4.887   6.448 -0.5177  0.0572 -0.0395
14990SOL    HW157029   1.020   4.845   6.460 -0.6035 -0.1158 -0.0104
14990SOL    HW257030   0.885   4.849   6.368 -0.3456  0.5246 -0.3662
14991SOL     OW57031   5.460   1.389   6.445  0.0815 -0.1690  0.4230
14991SOL    HW157032   5.494   1.377   6.352 -0.8819  1.9438 -0.2368
14991SOL    HW257033   5.518   1.454   6.493  0.1846 -0.7521  1.0958
14992SOL     OW57034   8.749   7.577   8.266 -0.2615  0.3785  0.0442
14992SOL    HW157035   8.785   7.484   8.268  1.7364  1.0880 -1.4988
14992SOL    HW257036   8.702   7.592   8.179  1.0364  1.3841 -0.4950
14993SOL     OW57037   0.457   4.526   6.282  0.1801  0.5986  0.2738
14993SOL    HW157038   0.524   4.494   6.349 -0.3128  1.1231  1.0403
14993SOL    HW257039   0.470   4.478   6.196  0.2161 -0.7862  1.0356
14994SOL     OW57040   2.311   4.976   5.014  0.2905  0.0464  0.6152
14994SOL    HW157041   2.342   5.062   5.055 -0.1331  0.3660  0.2771
14994SOL    HW257042   2.215   4.986   4.986  0.4975 -0.2589 -0.1963
14995SOL     OW57043   0.709   0.414   8.036 -0.4853 -0.4196  0.0008
14995SOL    HW157044   0.779   0.431   8.106 -0.4933 -1.2434  0.2047
14995SOL    HW257045   0.655   0.497   8.024  0.9514  0.4517 -0.6401
14996SOL     OW57046   3.087   5.051   3.522  0.0008 -0.1164  0.2885
14996SOL    HW157047   3.094   4.966   3.575  1.7390 -0.5276 -0.5759
14996SOL    HW257048   3.079   5.029   3.425 -0.0656  0.7045  0.1073
14997SOL     OW57049   5.002   0.529   1.117  0.1840  0.3740 -0.3381
14997SOL    HW157050   4.987   0.444   1.066  2.0532 -1.1688  1.6047
14997SOL    HW257051   4.918   0.555   1.164  0.2433 -1.7244  0.9654
14998SOL     OW57052   3.441   2.425   3.121 -0.2960 -0.1935 -0.5010
14998SOL    HW157053   3.408   2.381   3.204 -0.6050 -0.7077 -0.8942
14998SOL    HW257054   3.390   2.391   3.042 -0.3460  0.6602 -0.8430
14999SOL     OW57055   7.546   3.128   2.901 -0.4487 -0.1210 -0.1272
14999SOL    HW157056   7.577   3.039   2.868  1.0615 -0.0423  1.0317
14999SOL    HW257057   7.484   3.169   2.833 -0.2232 -1.5230 -1.2027
15000SOL     OW57058   5.889   2.195   1.747  0.0512  0.8284  0.5376
15000SOL    HW157059   5.904   2.122   1.679 -1.6738 -2.1930  3.2916
15000SOL    HW257060   5.972   2.251   1.753  0.9691 -0.0560 -2.5761
15001SOL     OW57061   9.864   4.009   6.516  0.7921  0.2341  0.0808
15001SOL    HW157062   9.886   3.939   6.448  0.0316 -0.2059  0.2781
15001SOL    HW257063   9.771   4.042   6.500  0.0759 -0.9120  1.7797
15002SOL     OW57064   2.713   3.335   3.557 -0.3605 -0.3395  0.3687
15002SOL    HW157065   2.702   3.328   3.656  0.6265 -1.6139  0.4059
15002SOL    HW257066   2.671   3.419   3.524  1.5715  1.3950  2.2088
15003SOL     OW57067   3.564   1.244   9.239  0.4535 -0.2879  0.1313
15003SOL    HW157068   3.528   1.306   9.309  0.8195 -1.4018  1.3328
15003SOL    HW257069   3.643   1.286   9.194  0.8399  0.0309  1.0951
15004SOL     OW57070   3.349   8.033   0.162  0.0053  0.4018  0.2355
15004SOL    HW157071   3.440   8.023   0.202  0.9701 -0.1194 -2.0032
15004SOL    HW257072   3.331   7.957   0.099 -0.0385  2.8789 -2.9133
15005SOL     OW57073   4.708   8.932   6.939 -0.5068 -1.1847  0.4450
15005SOL    HW157074   4.650   9.009   6.912 -0.0819 -0.7340  0.8059
15005SOL    HW257075   4.797   8.967   6.967  0.2605 -1.9519 -1.0031
15006SOL     OW57076   0.343   7.212   6.847 -0.4309 -0.2522  0.3235
15006SOL    HW157077   0.244   7.196   6.854 -0.4213 -0.3947  0.1443
15006SOL    HW257078   0.368   7.222   6.750 -0.7778  3.0314  0.5231
15007SOL     OW57079   0.004   6.641   0.049  0.1453 -0.0436 -0.3574
15007SOL    HW157080  -0.052   6.616  -0.029 -0.4063  0.3917 -0.1097
15007SOL    HW257081   0.059   6.562   0.079  0.9402  0.0057 -1.6532
15008SOL     OW57082   4.485   9.085   1.599  0.5341 -0.2501 -0.2322
15008SOL    HW157083   4.489   9.141   1.517  1.7768  1.7383  1.1514
15008SOL    HW257084   4.570   9.033   1.608  0.5184 -0.2382 -0.0180
15009SOL     OW57085   6.568   2.089   2.875 -0.4068 -0.5627 -0.3324
15009SOL    HW157086   6.547   2.143   2.956 -0.1079 -0.4331 -0.3398
15009SOL    HW257087   6.489   2.033   2.850 -0.2676 -1.1168  0.4491
15010SOL     OW57088   3.208   8.617   0.066 -0.2005 -0.3348 -0.0413
15010SOL    HW157089   3.287   8.669   0.100 -1.2945  1.3432 -0.0101
15010SOL    HW257090   3.232   8.572  -0.020  0.5062  0.9257 -0.5136
15011SOL     OW57091   1.999   5.214   6.613  0.2655 -0.0888 -0.2464
15011SOL    HW157092   2.024   5.138   6.674  0.3698 -0.1148 -0.3214
15011SOL    HW257093   2.045   5.297   6.643  1.1039 -0.3165 -0.8762
15012SOL     OW57094   9.182   1.742   7.494 -0.3464 -0.2199 -0.5654
15012SOL    HW157095   9.134   1.826   7.469 -0.3907 -0.2960 -0.7324
15012SOL    HW257096   9.207   1.692   7.412 -0.5138 -0.4814 -0.4576
15013SOL     OW57097   6.355   9.496   5.551  0.5986 -0.2502  0.1121
15013SOL    HW157098   6.309   9.577   5.513  0.7642  0.1481  0.7540
15013SOL    HW257099   6.411   9.524   5.629  1.2455 -0.8698 -0.1307
15014SOL     OW57100   3.274   3.990   0.118  0.1938  0.3777 -0.1069
15014SOL    HW157101   3.358   3.938   0.133  0.3646  0.9567  1.0672
15014SOL    HW257102   3.205   3.961   0.184  0.1664  1.3630  0.3110
15015SOL     OW57103   9.824   1.657   7.384 -0.9513  0.3983  0.0640
15015SOL    HW157104   9.887   1.724   7.424  0.3087 -1.0176  0.5279
15015SOL    HW257105   9.799   1.589   7.454  1.8065 -2.4947 -1.6410
15016SOL     OW57106   0.952   6.643   1.552  0.5636 -0.0797  0.1705
15016SOL    HW157107   1.047   6.631   1.581  0.4391  2.1557  1.6357
15016SOL    HW257108   0.892   6.590   1.613  0.8768 -1.6027 -0.8426
15017SOL     OW57109   2.419   0.095   7.965  0.2525  0.5463 -0.3679
15017SOL    HW157110   2.453   0.040   7.888  0.5514  0.6586 -0.3194
15017SOL    HW257111   2.461   0.062   8.049  2.2629  2.3580 -0.6209
15018SOL     OW57112   1.959   0.730   5.968 -0.8287  0.3252 -0.0345
15018SOL    HW157113   1.879   0.675   5.946  0.7236 -2.1879  0.4493
15018SOL    HW257114   1.974   0.730   6.067 -0.4451  1.0893 -0.0865
15019SOL     OW57115   9.523   8.837   6.447 -0.5125  0.3887 -0.1826
15019SOL    HW157116   9.587   8.813   6.374 -2.1309 -1.3612 -1.0564
15019SOL    HW257117   9.473   8.920   6.421 -0.9220 -0.0965 -0.9730
15020SOL     OW57118   7.943   2.821   9.491 -0.2039  0.6249  0.2595
15020SOL    HW157119   8.009   2.773   9.434  0.4715  1.8973 -0.0373
15020SOL    HW257120   7.967   2.918   9.496  0.9158  0.2283  4.3213
15021SOL     OW57121   7.600   3.433   4.699 -0.1546  0.2938  0.9451
15021SOL    HW157122   7.657   3.516   4.703  1.0602 -0.5524  1.6251
15021SOL    HW257123   7.601   3.388   4.789 -0.2300 -0.8233  0.3931
15022SOL     OW57124   7.655   4.921   6.064 -0.0149  0.1643 -0.3125
15022SOL    HW157125   7.735   4.863   6.049 -0.6760 -0.4035 -1.6507
15022SOL    HW257126   7.680   5.017   6.046  0.7266  0.1673  0.6628
15023SOL     OW57127   9.619   9.508   2.829  0.3083 -0.0426  0.6072
15023SOL    HW157128   9.643   9.516   2.732 -0.5420 -1.1743  0.2895
15023SOL    HW257129   9.691   9.549   2.885  0.5549  1.0848 -0.5236
15024SOL     OW57130   2.514   4.602   5.325  0.1443  0.5176 -0.2601
15024SOL    HW157131   2.487   4.584   5.420 -1.0336  1.2025 -0.4545
15024SOL    HW257132   2.567   4.525   5.290 -0.9214 -0.5275  0.3849
15025SOL     OW57133   0.746   2.252   7.173 -0.2855 -0.1152 -0.6755
15025SOL    HW157134   0.665   2.261   7.114 -1.8209 -0.0530  1.3630
15025SOL    HW257135   0.754   2.158   7.205 -0.1587  0.0994 -0.0640
15026SOL     OW57136   9.187   8.748   4.541  0.4436 -0.4903  0.0766
15026SOL    HW157137   9.119   8.821   4.543 -0.1018 -1.0029  0.2822
15026SOL    HW257138   9.166   8.681   4.611  1.9600  0.0537  1.0682
15027SOL     OW57139   5.820   1.406   4.375 -0.3324 -0.1320  0.0617
15027SOL    HW157140   5.844   1.451   4.289 -2.9836  1.7295  0.2290
15027SOL    HW257141   5.726   1.373   4.369 -0.2752 -0.6719  1.9912
15028SOL     OW57142   4.337   5.107   3.658  0.3151  0.7498  0.2017
15028SOL    HW157143   4.260   5.119   3.721  0.8575 -0.9985  1.2472
15028SOL    HW257144   4.411   5.169   3.682  0.4460  0.2225  1.2053
15029SOL     OW57145   1.809   7.655   2.846 -0.4233  0.3386 -0.4837
15029SOL    HW157146   1.764   7.697   2.925  0.5314 -0.0073  0.2414
15029SOL    HW257147   1.751   7.669   2.765 -1.6961  0.1726  0.3705
15030SOL     OW57148   5.521   6.930   1.458  0.1162 -0.2651 -0.6257
15030SOL    HW157149   5.600   6.971   1.504 -0.6285 -1.8658  2.2281
15030SOL    HW257150   5.465   7.002   1.416  2.3684  0.9813 -1.5404
15031SOL     OW57151   0.717   5.130   9.257  0.1832 -0.7384  0.1915
15031SOL    HW157152   0.788   5.099   9.321  1.9900 -0.0733 -1.4480
15031SOL    HW257153   0.637   5.161   9.309  0.4346 -2.9867  2.0274
15032SOL     OW57154   3.803   7.137   4.365  0.1778  0.5581  0.2489
15032SOL    HW157155   3.714   7.141   4.411  0.2315 -0.5451  0.4639
15032SOL    HW257156   3.790   7.106   4.271  0.2758  0.8846  0.1305
15033SOL     OW57157   7.330   4.434   4.063 -0.5038  0.2877 -0.7944
15033SOL    HW157158   7.315   4.366   3.991  0.7110 -2.4609  1.4645
15033SOL    HW257159   7.426   4.433   4.090 -0.7540  1.9808  0.2120
15034SOL     OW57160   9.500   9.345   9.325 -0.0949  0.2724 -0.7834
15034SOL    HW157161   9.444   9.378   9.402  0.9311 -1.6545  0.8369
15034SOL    HW257162   9.503   9.245   9.326  3.1344  0.2967 -0.9803
15035SOL     OW57163   8.081   4.776   1.373  0.3492  0.2647 -0.0635
15035SOL    HW157164   8.121   4.820   1.453  0.0166  2.5230 -1.1076
15035SOL    HW257165   8.150   4.769   1.301  0.2091 -0.3332 -0.1441
15036SOL     OW57166   0.102   6.301   2.600  0.0068  0.6472 -0.1661
15036SOL    HW157167   0.178   6.344   2.552 -1.4600  1.9391 -1.4114
15036SOL    HW257168   0.018   6.354   2.583 -1.2417 -0.9636  0.8430
15037SOL     OW57169   5.699   9.184   6.508  0.3701 -0.5633  0.0620
15037SOL    HW157170   5.701   9.100   6.563 -0.4840 -1.2252 -0.8944
15037SOL    HW257171   5.622   9.180   6.444  1.0549  0.4095 -0.8430
15038SOL     OW57172   3.988   6.653   1.012  0.0475 -0.0882 -0.2583
15038SOL    HW157173   3.959   6.743   1.045  0.4142 -0.1474  0.2307
15038SOL    HW257174   4.006   6.594   1.090  0.8361 -0.2591 -0.5680
15039SOL     OW57175   3.523   8.329   8.015 -0.0484  0.1660  0.4266
15039SOL    HW157176   3.546   8.346   7.919  0.4702 -0.5991  0.4130
15039SOL    HW257177   3.560   8.241   8.044 -0.8585  0.0358  1.1159
15040SOL     OW57178   1.226   0.289   4.888  0.2016  0.0373 -0.0382
15040SOL    HW157179   1.251   0.281   4.984 -1.5638 -1.6615  0.3076
15040SOL    HW257180   1.272   0.216   4.836 -0.7129 -0.5148 -0.0796
15041SOL     OW57181   9.937   0.160   9.952  0.0001  0.4695 -0.6237
15041SOL    HW157182   9.875   0.233   9.923 -0.5694  0.4637  0.5566
15041SOL    HW257183   9.922   0.140  10.049  1.1726 -0.2077 -0.5707
15042SOL     OW57184   6.735   6.524   0.907 -0.4957 -0.3755 -0.3396
15042SOL    HW157185   6.760   6.440   0.859  0.5310 -0.2163 -0.1085
15042SOL    HW257186   6.649   6.560   0.871 -0.4790 -1.0476 -1.0493
15043SOL     OW57187   8.270   3.615   8.531  0.4114 -0.0742 -0.2665
15043SOL    HW157188   8.344   3.606   8.598  0.1780  0.6864  0.0882
15043SOL    HW257189   8.306   3.659   8.448  1.4168 -3.5455 -1.7861
15044SOL     OW57190   1.118   3.767   7.455  0.2456  0.4223  0.2953
15044SOL    HW157191   1.140   3.672   7.477 -0.4456  0.3224  0.5610
15044SOL    HW257192   1.037   3.771   7.397 -0.7084  0.9151  1.6234
15045SOL     OW57193   2.629   4.584   7.944 -0.1103 -0.0734  0.6742
15045SOL    HW157194   2.682   4.599   8.027  1.1045 -1.0408  0.1012
15045SOL    HW257195   2.561   4.656   7.934  1.7577  1.7755  0.9077
15046SOL     OW57196   4.193   2.885   9.530 -0.5721  0.1103  0.4307
15046SOL    HW157197   4.160   2.865   9.623  0.1673 -1.1881  0.4263
15046SOL    HW257198   4.169   2.809   9.470 -2.0396  1.4444 -0.7112
15047SOL     OW57199   9.039   6.432   7.097 -0.8470 -0.4556  0.0309
15047SOL    HW157200   8.965   6.479   7.049 -0.9540  0.5222  1.1188
15047SOL    HW257201   9.011   6.339   7.118 -1.0183 -0.7085 -1.2738
15048SOL     OW57202   4.019   4.557   5.374 -0.2417 -0.0229 -0.0925
15048SOL    HW157203   4.067   4.549   5.287 -0.0247  0.4622 -0.0210
15048SOL    HW257204   3.926   4.589   5.358 -0.6216 -1.1744 -0.2502
15049SOL     OW57205   1.609   0.258   6.772 -0.3579  0.0116  0.4158
15049SOL    HW157206   1.652   0.225   6.857  0.4749 -0.8857 -0.3411
15049SOL    HW257207   1.663   0.333   6.735 -0.7478  0.4344  0.7034
15050SOL     OW57208   7.922   7.113   7.402  0.0643  0.6833 -0.0200
15050SOL    HW157209   8.014   7.077   7.386  0.9408  1.9856  1.8754
15050SOL    HW257210   7.865   7.041   7.442  0.5244  0.1419 -0.3369
15051SOL     OW57211   0.993   5.862   7.946  0.2483 -0.6368  0.4718
15051SOL    HW157212   1.078   5.859   7.999  0.1924  1.6145  0.7455
15051SOL    HW257213   1.004   5.809   7.862  1.8975 -0.4743  0.5684
15052SOL     OW57214   0.785   9.507   7.501  0.3703  0.0170 -0.1930
15052SOL    HW157215   0.721   9.505   7.424  1.1201  3.6431 -1.0133
15052SOL    HW257216   0.744   9.560   7.576  1.0929 -0.4564  0.5431
15053SOL     OW57217   6.866   5.629   8.640 -0.7728 -0.5123  0.1519
15053SOL    HW157218   6.827   5.676   8.719 -0.8410 -0.0950 -0.1250
15053SOL    HW257219   6.868   5.531   8.657 -2.4479 -0.5984 -0.0347
15054SOL     OW57220   9.962   1.758   2.285  0.0426 -0.4561  0.0381
15054SOL    HW157221   9.995   1.727   2.375  0.4638 -0.8902 -0.2656
15054SOL    HW257222   9.947   1.679   2.226 -1.9009 -0.2905  0.2884
15055SOL     OW57223   6.720   4.439   0.038 -0.3096  0.4053  0.0574
15055SOL    HW157224   6.654   4.385  -0.013  0.2915  0.4775 -0.8180
15055SOL    HW257225   6.762   4.383   0.110  0.9703 -0.5893 -1.4264
15056SOL     OW57226   0.396   8.372   5.545  0.3544 -0.0946  0.2527
15056SOL    HW157227   0.336   8.451   5.538 -1.0167 -1.2496 -1.3665
15056SOL    HW257228   0.356   8.304   5.606  0.3889 -0.5359 -0.2123
15057SOL     OW57229   3.578   2.668   3.144  0.0950 -0.0181 -0.2188
15057SOL    HW157230   3.551   2.573   3.129 -2.0242  0.1699  2.1058
15057SOL    HW257231   3.587   2.714   3.055 -0.6280 -1.9113 -1.3114
15058SOL     OW57232   7.822   0.436   8.467 -0.1175 -0.0222 -0.3490
15058SOL    HW157233   7.895   0.504   8.460  0.1454 -0.2642  0.0104
15058SOL    HW257234   7.861   0.349   8.499 -0.3984 -0.4313 -1.1048
15059SOL     OW57235   5.354   2.381   1.912  0.5445  0.5012  0.1692
15059SOL    HW157236   5.330   2.468   1.957 -1.4188  0.1076 -0.0814
15059SOL    HW257237   5.415   2.329   1.971  1.5214  1.9048  0.4503
15060SOL     OW57238   4.200   2.653   9.062 -0.4928  0.6836 -0.0971
15060SOL    HW157239   4.278   2.680   9.006  0.2494 -0.0407  0.5844
15060SOL    HW257240   4.186   2.719   9.135 -0.3001  0.6288 -0.0104
15061SOL     OW57241   2.102   7.379   4.865  0.4426 -0.5360 -0.0236
15061SOL    HW157242   2.120   7.376   4.963 -0.8595  1.3618  0.2964
15061SOL    HW257243   2.103   7.286   4.828  0.5624 -1.2981  1.8466
15062SOL     OW57244   7.144   8.127   7.017  0.4037 -0.2270 -0.3471
15062SOL    HW157245   7.200   8.082   6.948 -0.2099  0.2955 -1.2067
15062SOL    HW257246   7.054   8.083   7.021  0.6180 -0.6017  0.5105
15063SOL     OW57247   5.153   4.352   1.425 -0.1986 -0.5378 -0.2709
15063SOL    HW157248   5.148   4.281   1.354 -0.3016 -0.1287 -0.6742
15063SOL    HW257249   5.084   4.334   1.495  0.7364 -1.6558  0.3864
15064SOL     OW57250   2.045   0.975   3.368 -0.5238 -0.0321 -0.4247
15064SOL    HW157251   2.025   1.050   3.430  0.3772  0.7055 -1.0058
15064SOL    HW257252   2.144   0.970   3.353 -0.6696 -0.6774 -1.2031
15065SOL     OW57253   2.040   8.003   5.097  0.4127 -0.5586  0.1291
15065SOL    HW157254   2.025   7.933   5.167 -0.2817  0.7802  1.3586
15065SOL    HW257255   1.961   8.007   5.036  1.3620 -2.2727 -1.2343
15066SOL     OW57256   5.556   7.154   3.741  0.9595  0.1089  0.1150
15066SOL    HW157257   5.577   7.108   3.827  1.4973  2.7572  1.4418
15066SOL    HW257258   5.458   7.173   3.738  0.5180 -2.1711 -1.0031
15067SOL     OW57259   6.340   1.529   4.494 -0.2466  0.0445  0.0764
15067SOL    HW157260   6.257   1.538   4.439  0.4670  1.6106 -0.7680
15067SOL    HW257261   6.414   1.582   4.453  1.3179 -1.6795  0.5815
15068SOL     OW57262   9.253   5.033   9.424 -0.1948  0.2000  0.0113
15068SOL    HW157263   9.172   5.091   9.435 -1.2311 -0.9195 -1.4977
15068SOL    HW257264   9.228   4.937   9.439  0.6695 -0.2338 -1.2108
15069SOL     OW57265   0.609   5.762   8.894  0.0125  0.6006  0.5076
15069SOL    HW157266   0.608   5.743   8.992 -0.8530  0.8381  0.5502
15069SOL    HW257267   0.596   5.860   8.878  0.1152  0.5593  0.1553
15070SOL     OW57268   9.625   0.503   7.041  0.3514  0.4683  0.0532
15070SOL    HW157269   9.566   0.574   7.003  1.1014  1.2546  0.3039
15070SOL    HW257270   9.591   0.413   7.017  0.5200  0.9413 -2.0219
15071SOL     OW57271   0.308   4.934   1.907  0.3930  0.3644 -0.2178
15071SOL    HW157272   0.269   4.941   1.815 -0.9963  0.6332  0.3823
15071SOL    HW257273   0.319   5.025   1.945  3.2869  0.4155 -1.0413
15072SOL     OW57274   9.718   4.126   2.982  0.0726 -0.1584  0.1538
15072SOL    HW157275   9.803   4.091   3.023 -0.0889 -1.2226 -0.3911
15072SOL    HW257276   9.642   4.066   3.008  0.2590 -1.9474 -3.1272
15073SOL     OW57277   9.716   7.283   4.491  0.0485  0.1712 -0.3277
15073SOL    HW157278   9.742   7.276   4.588 -0.6102  0.3597 -0.1366
15073SOL    HW257279   9.792   7.251   4.434  0.2476 -0.4163  0.2643
15074SOL     OW57280   1.862   6.157   7.005 -0.3125  0.4477  0.1035
15074SOL    HW157281   1.818   6.241   6.976 -0.7738  0.1019 -0.2086
15074SOL    HW257282   1.794   6.094   7.043  0.1974  0.6400  1.3348
15075SOL     OW57283   4.594   9.786   0.699  0.4543 -0.2485 -0.5236
15075SOL    HW157284   4.499   9.762   0.719  0.9853 -2.0139 -0.0093
15075SOL    HW257285   4.647   9.792   0.784  1.0756 -0.5384 -0.8795
15076SOL     OW57286   8.712   3.186   8.671  0.1892  0.3567 -0.7300
15076SOL    HW157287   8.669   3.098   8.689  0.0169  0.4665 -0.5895
15076SOL    HW257288   8.807   3.173   8.643  0.7038  0.1908  0.9927
15077SOL     OW57289   7.564   2.055   3.630  0.4179  0.1910 -0.4150
15077SOL    HW157290   7.495   2.050   3.558  1.6435  1.4612 -1.7098
15077SOL    HW257291   7.559   1.973   3.687 -0.4604 -0.9118 -2.0443
15078SOL     OW57292   4.909   2.711   6.973 -0.2192  0.0443 -0.3721
15078SOL    HW157293   4.832   2.730   6.913 -0.6006 -0.0804  0.0735
15078SOL    HW257294   4.976   2.785   6.966 -0.0517 -0.1892 -1.2760
15079SOL     OW57295   8.167   1.252   0.639 -0.1593 -0.0023  0.1975
15079SOL    HW157296   8.189   1.190   0.563 -0.3405 -0.4074  0.4764
15079SOL    HW257297   8.226   1.333   0.633 -0.3303  0.0762 -0.5078
15080SOL     OW57298   6.480   4.878   9.987  0.3255  0.3579  0.6191
15080SOL    HW157299   6.462   4.785  10.018  1.3637  0.2573  0.9312
15080SOL    HW257300   6.514   4.876   9.893 -1.6170  0.5761 -0.1165
15081SOL     OW57301   3.824   3.717   7.517 -0.4935 -0.1565 -0.5683
15081SOL    HW157302   3.792   3.766   7.436  1.4298 -0.6464 -1.6532
15081SOL    HW257303   3.795   3.622   7.512 -3.9999  0.7417  1.4101
15082SOL     OW57304   0.543   1.798   2.939 -0.1219 -0.0650 -0.0161
15082SOL    HW157305   0.448   1.774   2.961 -0.8611  0.2648 -2.6535
15082SOL    HW257306   0.562   1.774   2.843  1.9416  1.3990 -0.0011
15083SOL     OW57307   1.601   1.705   6.697  0.4733 -0.3218  0.4573
15083SOL    HW157308   1.620   1.729   6.602  0.8385  0.7782  0.7971
15083SOL    HW257309   1.536   1.630   6.700 -0.0150  0.0445 -0.6654
15084SOL     OW57310   7.846   3.906   7.891 -0.2997 -0.1884  0.4386
15084SOL    HW157311   7.907   3.962   7.834 -1.3594 -0.3476 -0.8819
15084SOL    HW257312   7.811   3.830   7.836  0.0516 -1.3697  1.8253
15085SOL     OW57313   3.092   5.743   4.967 -0.2036  0.1445 -0.5428
15085SOL    HW157314   3.078   5.815   4.898  1.0308  1.3665  0.4291
15085SOL    HW257315   3.135   5.664   4.924  3.9568  2.2589 -0.6191
15086SOL     OW57316   4.561   2.819   6.009 -0.0671 -0.0304 -0.3007
15086SOL    HW157317   4.528   2.778   6.094  2.4326  2.3812  1.9328
15086SOL    HW257318   4.634   2.762   5.971 -0.7343 -0.7631 -0.4994
15087SOL     OW57319   2.843   3.327   5.496 -0.7216  0.1945 -0.2751
15087SOL    HW157320   2.784   3.396   5.538 -1.1462  1.2066 -2.4501
15087SOL    HW257321   2.865   3.355   5.403  3.9716  0.2601  0.7574
15088SOL     OW57322   0.006   0.190   2.784 -0.0626  0.0986 -0.0896
15088SOL    HW157323  -0.005   0.221   2.879 -0.3484 -1.2498  0.3272
15088SOL    HW257324  -0.067   0.126   2.761  0.4607 -0.1868 -0.9781
15089SOL     OW57325   0.023   6.944   7.991  0.9701 -0.0686 -0.5001
15089SOL    HW157326  -0.018   7.013   8.051 -3.6697 -3.7018  0.8073
15089SOL    HW257327  -0.013   6.954   7.898  1.3100  0.0587 -0.6203
15090SOL     OW57328   5.394   7.639   4.785  0.5002 -0.4054  0.1591
15090SOL    HW157329   5.297   7.630   4.806  0.5463 -0.4975  0.3355
15090SOL    HW257330   5.443   7.557   4.815  0.5830 -0.4916 -0.2164
15091SOL     OW57331   2.476   5.297   4.575 -0.1274  0.3201  0.0211
15091SOL    HW157332   2.463   5.323   4.479 -0.6780  1.0720  0.2890
15091SOL    HW257333   2.537   5.219   4.580  1.3722  1.4145 -0.8254
15092SOL     OW57334   3.300   3.538   5.247  0.0441 -0.0010 -0.2367
15092SOL    HW157335   3.230   3.512   5.180 -1.4589  1.8023  0.5888
15092SOL    HW257336   3.316   3.636   5.242  0.1553  0.1075  1.8046
15093SOL     OW57337   0.899   7.352   4.217 -0.5293 -0.4694 -0.0699
15093SOL    HW157338   0.933   7.446   4.215 -3.3241  0.6981  2.8162
15093SOL    HW257339   0.835   7.337   4.142  0.1436 -0.1665 -0.7059
15094SOL     OW57340   2.515   0.895   6.725  0.3790  0.1292 -0.1620
15094SOL    HW157341   2.570   0.827   6.677  0.4249 -0.0218  0.1014
15094SOL    HW257342   2.522   0.984   6.679  0.2953 -0.0519 -0.5222
15095SOL     OW57343   4.952   2.042   2.556  0.1076  0.1345 -0.2785
15095SOL    HW157344   4.904   2.078   2.636 -0.4531 -0.6861 -0.2423
15095SOL    HW257345   5.029   1.986   2.586 -0.8481 -1.2079 -0.2789
15096SOL     OW57346   7.960   3.623   0.513  0.5001  0.1376 -0.3559
15096SOL    HW157347   7.897   3.616   0.436  2.0775  1.9918 -1.8830
15096SOL    HW257348   7.923   3.687   0.580  0.2414  0.4086 -0.7498
15097SOL     OW57349   7.379   9.102   3.297 -0.2122  0.1982  0.1738
15097SOL    HW157350   7.404   9.010   3.268 -0.8078  0.0260  0.1998
15097SOL    HW257351   7.395   9.166   3.222  1.1999  0.2458  0.5011
15098SOL     OW57352   4.024   0.149   6.407  0.0761 -0.1296  0.6766
15098SOL    HW157353   4.032   0.072   6.471  4.3816 -2.2581 -2.1776
15098SOL    HW257354   4.014   0.234   6.459 -1.7858 -2.2437  3.9807
15099SOL     OW57355   2.699   3.312   9.166  0.4396 -0.0206  0.4732
15099SOL    HW157356   2.769   3.244   9.186 -0.7817 -1.4553 -0.0360
15099SOL    HW257357   2.664   3.350   9.252  1.3142  0.1887  0.7469
15100SOL     OW57358   0.115   3.970   0.896  0.3062 -0.4473 -0.6304
15100SOL    HW157359   0.050   3.900   0.926 -0.1518  0.1907 -0.1425
15100SOL    HW257360   0.144   3.950   0.802 -0.4105 -0.8696 -0.7646
15101SOL     OW57361   1.137   5.209   6.118 -0.7933 -0.1180  0.0598
15101SOL    HW157362   1.067   5.163   6.172  0.6118 -1.6432  0.5969
15101SOL    HW257363   1.152   5.159   6.033 -1.5459  1.1536 -0.8474
15102SOL     OW57364   6.458   1.790   1.700  0.0214 -0.5543 -0.1688
15102SOL    HW157365   6.410   1.765   1.616  0.2790  0.2587 -0.5621
15102SOL    HW257366   6.421   1.876   1.735  2.1756  0.8970 -1.3057
15103SOL     OW57367   1.533   7.001   7.351  0.0307  0.2016  0.5047
15103SOL    HW157368   1.434   6.986   7.350  0.1231 -0.4386  0.4365
15103SOL    HW257369   1.553   7.098   7.341 -0.6185  0.4352  1.4254
15104SOL     OW57370   1.030   2.926   8.593 -0.3763 -0.1354 -0.3029
15104SOL    HW157371   1.126   2.915   8.566 -0.5157 -1.1516 -0.3942
15104SOL    HW257372   0.984   2.837   8.590 -1.1496  0.2349  0.4039
15105SOL     OW57373   6.483   2.609   2.465 -0.3863  0.2700 -0.2793
15105SOL    HW157374   6.398   2.661   2.457 -0.2618  0.6085  0.5912
15105SOL    HW257375   6.461   2.512   2.478 -0.6206  0.1721 -1.3831
15106SOL     OW57376   1.314   2.160   5.049  0.3734 -0.5473  0.3775
15106SOL    HW157377   1.395   2.206   5.012  1.1504 -0.7689  1.7565
15106SOL    HW257378   1.234   2.186   4.995  1.3492 -0.3227 -1.0100
15107SOL     OW57379   1.270   0.520   7.641 -0.1623  0.1193 -0.1154
15107SOL    HW157380   1.179   0.521   7.599  0.2533  1.4323 -1.0090
15107SOL    HW257381   1.314   0.608   7.627  0.2968  0.3282  2.4524
15108SOL     OW57382   0.587   2.342   9.514 -0.1326  0.7565 -0.4728
15108SOL    HW157383   0.605   2.409   9.443 -0.0246  0.5911 -0.6002
15108SOL    HW257384   0.489   2.343   9.536  0.0713  1.8769  0.4505
15109SOL     OW57385   4.549   8.213   3.544 -0.5868  0.2716  0.1921
15109SOL    HW157386   4.621   8.185   3.480 -0.3179  0.2837  0.4918
15109SOL    HW257387   4.467   8.157   3.528 -0.1068 -0.5855  0.6761
15110SOL     OW57388   6.458   7.072   6.373 -0.3524 -0.2174  0.2665
15110SOL    HW157389   6.513   7.064   6.290 -0.1025  0.5328  0.3543
15110SOL    HW257390   6.510   7.038   6.452 -1.6256 -3.6115 -0.2768
15111SOL     OW57391   5.239   8.975   7.484 -0.5913  0.1739 -0.0137
15111SOL    HW157392   5.200   9.067   7.477 -2.3738 -0.5272  0.5408
15111SOL    HW257393   5.252   8.952   7.581  0.4998  0.0881 -0.1686
15112SOL     OW57394   9.425   1.198   6.143 -0.0060  0.0441 -0.0411
15112SOL    HW157395   9.340   1.149   6.122 -0.6860  0.6198  1.2863
15112SOL    HW257396   9.503   1.135   6.135 -0.0924  0.3927 -4.8786
15113SOL     OW57397   4.531   8.750   0.722  0.6895  0.3562  0.1243
15113SOL    HW157398   4.505   8.690   0.798  1.6498 -1.1171 -0.6657
15113SOL    HW257399   4.523   8.845   0.749 -2.2333 -0.0840  0.9855
15114SOL     OW57400   2.005   6.793   4.183 -0.0121  0.6397  1.1026
15114SOL    HW157401   1.917   6.746   4.190  0.2834 -0.2250 -0.7182
15114SOL    HW257402   2.005   6.872   4.243 -1.5254 -0.1419  2.1789
15115SOL     OW57403   9.338   6.636   5.825 -0.1429 -0.5571  0.0226
15115SOL    HW157404   9.421   6.686   5.852  0.0901 -0.9557  0.0525
15115SOL    HW257405   9.348   6.539   5.849 -0.5529 -0.6375 -0.1217
15116SOL     OW57406   0.499   5.473   4.594 -0.3201  0.1308  0.0365
15116SOL    HW157407   0.574   5.436   4.649  0.8983  1.5704 -0.6103
15116SOL    HW257408   0.537   5.517   4.512 -2.0187 -0.8091 -1.2697
15117SOL     OW57409   8.947   8.303   9.294 -0.0586  0.2629  0.1658
15117SOL    HW157410   9.035   8.350   9.287 -1.2802  2.4809 -0.7405
15117SOL    HW257411   8.917   8.301   9.389  0.2824  0.8016  0.2859
15118SOL     OW57412   5.530   5.935   9.560  0.0811 -0.4308  0.0422
15118SOL    HW157413   5.448   5.925   9.505  0.0794  0.4548 -0.1254
15118SOL    HW257414   5.532   6.026   9.602  1.0947 -0.3498 -0.1541
15119SOL     OW57415   2.493   6.781   0.537  0.2828  0.1044 -0.6676
15119SOL    HW157416   2.544   6.858   0.577  2.4394 -0.9272 -1.3408
15119SOL    HW257417   2.440   6.735   0.608  0.6797  0.9065  0.1537
15120SOL     OW57418   2.032   7.179   9.671 -0.0339 -0.1715 -0.2008
15120SOL    HW157419   2.046   7.188   9.769 -0.9362 -1.9702  0.0963
15120SOL    HW257420   2.061   7.089   9.640 -1.1553 -0.1597 -1.3368
15121SOL     OW57421   2.023   1.926   7.422 -0.0846  0.2870  0.5245
15121SOL    HW157422   2.089   1.984   7.469 -1.3194  0.6627  1.8415
15121SOL    HW257423   1.986   1.974   7.343  2.0417 -0.3659 -0.9142
15122SOL     OW57424   0.979   7.820   8.270  0.4284 -0.1238  0.1744
15122SOL    HW157425   0.922   7.899   8.249  1.2908  0.8961  1.6335
15122SOL    HW257426   1.049   7.810   8.199 -2.1790 -2.0646 -2.2676
15123SOL     OW57427   3.474   1.536   0.784  0.0297  0.3547  0.1001
15123SOL    HW157428   3.421   1.552   0.868  0.6219  2.9055  0.0101
15123SOL    HW257429   3.563   1.498   0.808  0.8215  2.5852  0.7631
15124SOL     OW57430   6.590   0.157   3.531 -0.6125 -0.0301 -0.4627
15124SOL    HW157431   6.624   0.193   3.444 -0.7572  0.9356 -0.1290
15124SOL    HW257432   6.518   0.091   3.514 -1.5875  1.1719 -1.0480
15125SOL     OW57433   9.014   5.146   0.219 -0.3485 -0.5600  0.3899
15125SOL    HW157434   9.029   5.059   0.173 -0.3428 -0.3636  0.0201
15125SOL    HW257435   8.921   5.179   0.199 -1.4987 -2.0114  3.0569
15126SOL     OW57436   4.644   5.573   4.533  0.1344  0.0528  0.0368
15126SOL    HW157437   4.616   5.494   4.588 -1.1209  0.8041  0.4993
15126SOL    HW257438   4.596   5.655   4.565 -0.4515  0.5452 -1.9988
15127SOL     OW57439   8.286   5.960   6.913 -0.1729  0.4170 -0.2151
15127SOL    HW157440   8.205   5.952   6.854 -0.7872  0.7838  0.5597
15127SOL    HW257441   8.368   5.943   6.860 -0.7591  0.1348 -1.0412
15128SOL     OW57442   8.792   1.364   3.439  0.2371  0.4439  0.1593
15128SOL    HW157443   8.779   1.463   3.441 -1.5913  0.2044  1.3458
15128SOL    HW257444   8.709   1.321   3.404  0.6412 -0.7390  0.6355
15129SOL     OW57445   2.388   4.336   5.385 -0.3023  0.2802  0.1202
15129SOL    HW157446   2.433   4.390   5.456 -2.4507  0.1687  1.6248
15129SOL    HW257447   2.409   4.239   5.399 -0.7672  0.2526  0.6593
15130SOL     OW57448   9.155   2.608   5.025 -0.1004  0.2565 -0.6794
15130SOL    HW157449   9.188   2.701   5.035 -1.2149  0.6367 -0.5007
15130SOL    HW257450   9.202   2.548   5.090 -1.3454  1.1907  1.0915
15131SOL     OW57451   6.333   5.982   6.754  0.5225 -0.1773 -0.2782
15131SOL    HW157452   6.303   6.031   6.672 -1.8298  2.0285  1.8183
15131SOL    HW257453   6.295   5.890   6.754 -2.0722  0.8529 -0.2037
15132SOL     OW57454   8.788   6.717   6.496 -0.0557  0.0684  0.4613
15132SOL    HW157455   8.693   6.721   6.527 -0.2047  2.9595 -0.2638
15132SOL    HW257456   8.835   6.801   6.523  1.5683 -0.1640 -1.5411
15133SOL     OW57457   5.684   2.232   2.269 -0.2294 -0.6740  1.1612
15133SOL    HW157458   5.654   2.310   2.325 -0.4719  0.4039 -0.4535
15133SOL    HW257459   5.721   2.161   2.329  0.1679  0.7473  2.6399
15134SOL     OW57460   3.270   8.433   8.030  0.5557  0.4030  0.0327
15134SOL    HW157461   3.355   8.382   8.043  0.5236  0.0712 -1.0647
15134SOL    HW257462   3.253   8.447   7.933 -0.9118  0.0340  0.2219
15135SOL     OW57463   0.560   7.862   5.725  0.6913  0.0895 -0.2681
15135SOL    HW157464   0.617   7.925   5.673  0.4004  1.4340  1.0199
15135SOL    HW257465   0.463   7.885   5.711  0.5907  0.0293  0.3163
15136SOL     OW57466   2.588   2.811   4.002 -0.1699 -0.0819 -0.2331
15136SOL    HW157467   2.569   2.900   3.961  0.3814  1.3841  2.5641
15136SOL    HW257468   2.686   2.796   4.007 -0.2017  0.1322  1.2852
15137SOL     OW57469   3.625   5.901   1.810  0.1443  0.9996  0.3000
15137SOL    HW157470   3.690   5.959   1.860  2.7083 -0.2136 -1.5459
15137SOL    HW257471   3.604   5.820   1.865  0.9237  0.9513  0.5375
15138SOL     OW57472   4.160   7.780   3.782 -0.3140 -0.1723 -0.2681
15138SOL    HW157473   4.089   7.833   3.734  1.1319  2.4757  0.4250
15138SOL    HW257474   4.168   7.812   3.876  1.0223 -1.2287 -0.0048
15139SOL     OW57475   0.571   9.800   4.620 -0.2307  0.2463  0.2214
15139SOL    HW157476   0.632   9.878   4.639  0.5059 -0.9341  2.8304
15139SOL    HW257477   0.476   9.832   4.617  0.1916  1.4957 -0.2187
15140SOL     OW57478   3.344   4.477   7.006  0.3623 -0.5613 -0.3798
15140SOL    HW157479   3.423   4.440   7.054 -0.1269  1.1349  1.7748
15140SOL    HW257480   3.373   4.549   6.943  0.3919  1.1558  1.5617
15141SOL     OW57481   9.934   7.693   2.127  0.4866  0.7532  0.3510
15141SOL    HW157482   9.861   7.760   2.118  0.0327  0.3463  0.9691
15141SOL    HW257483  10.011   7.733   2.177  0.1329  0.7445  0.9033
15142SOL     OW57484   3.546   6.093   3.457  0.0025  0.3905  0.3590
15142SOL    HW157485   3.516   6.037   3.534  0.9145 -0.9435 -0.2300
15142SOL    HW257486   3.466   6.132   3.411 -0.6563 -0.6272  0.6224
15143SOL     OW57487   1.051   5.847   6.935  0.8008 -0.2662 -0.3122
15143SOL    HW157488   1.128   5.880   6.990  0.3440 -1.1167  0.8665
15143SOL    HW257489   0.989   5.794   6.993 -0.4479  0.0297 -1.3517
15144SOL     OW57490   8.033   6.627   3.650  0.8960  0.2549  0.0388
15144SOL    HW157491   8.036   6.659   3.555 -3.9451 -1.9214 -1.0232
15144SOL    HW257492   8.078   6.537   3.655  2.2281  0.9185  0.0708
15145SOL     OW57493   3.347   4.711   3.375 -0.2726  0.2789  0.1526
15145SOL    HW157494   3.293   4.738   3.455 -0.4956 -0.4843  0.2638
15145SOL    HW257495   3.286   4.687   3.299 -0.0540  1.5333 -0.4256
15146SOL     OW57496   7.466   0.563   3.995 -0.4686 -0.3461 -0.0083
15146SOL    HW157497   7.460   0.529   3.901  1.2814 -2.1945  0.5219
15146SOL    HW257498   7.562   0.565   4.024 -0.7366  2.6782  0.8934
15147SOL     OW57499   1.769   4.732   6.782 -0.1314  0.0260 -0.3365
15147SOL    HW157500   1.865   4.707   6.794  0.0332  1.0086  0.4655
15147SOL    HW257501   1.758   4.785   6.698  0.0374 -0.0525 -0.4078
15148SOL     OW57502   2.969   1.855   9.058 -0.1926  0.1040 -0.1484
15148SOL    HW157503   3.050   1.831   9.112 -0.2708  1.6500  0.6817
15148SOL    HW257504   2.887   1.826   9.107 -0.2365  0.8528  0.2207
15149SOL     OW57505   8.816   7.257   1.709  0.3805  0.0380  0.2602
15149SOL    HW157506   8.785   7.271   1.615 -1.6190  0.5028  0.9737
15149SOL    HW257507   8.883   7.327   1.732 -1.9997  2.3155  0.4393
15150SOL     OW57508   2.655   8.073   1.890 -0.0793  0.0441 -0.3979
15150SOL    HW157509   2.582   8.022   1.934 -1.1361  0.9734 -1.0620
15150SOL    HW257510   2.706   8.012   1.829 -1.1323 -0.3040 -0.9466
15151SOL     OW57511   2.529   1.153   3.883 -0.0747  0.2796  0.0928
15151SOL    HW157512   2.612   1.209   3.887 -0.3032  0.6568 -0.4003
15151SOL    HW257513   2.554   1.059   3.859  0.3331  0.1101  1.1462
15152SOL     OW57514   3.256   0.937   1.254 -0.0935 -0.3837 -0.1150
15152SOL    HW157515   3.265   0.868   1.183  0.2327 -0.4907  0.0298
15152SOL    HW257516   3.161   0.970   1.257  0.1399  0.4406 -1.3672
15153SOL     OW57517   7.808   5.769   4.581  0.3765  0.1195 -0.0625
15153SOL    HW157518   7.897   5.806   4.606  0.4432  0.8334 -1.2912
15153SOL    HW257519   7.807   5.670   4.594  1.2598  0.1448  0.1941
15154SOL     OW57520   5.076   9.379   2.457  0.3362  0.3174  0.1035
15154SOL    HW157521   5.101   9.287   2.427 -0.9926  0.0618 -0.2894
15154SOL    HW257522   5.158   9.433   2.474  1.1201 -0.9782  0.4321
15155SOL     OW57523   0.300   9.912   4.597  0.3996  1.1794  0.4230
15155SOL    HW157524   0.285   9.986   4.663 -3.1558  0.7456  0.2062
15155SOL    HW257525   0.280   9.945   4.505  1.0239  0.5698  0.0683
15156SOL     OW57526   1.848   3.260   7.477 -0.4974 -0.1579 -0.3799
15156SOL    HW157527   1.797   3.261   7.563  1.2394 -1.1931  0.6887
15156SOL    HW257528   1.893   3.348   7.463  0.7176 -0.5825  0.7199
15157SOL     OW57529   6.002   9.540   7.655  0.7443 -0.0992 -0.1561
15157SOL    HW157530   5.943   9.620   7.664  1.9085  0.8032 -0.5071
15157SOL    HW257531   6.052   9.545   7.569  1.8393 -0.5170  0.4464
15158SOL     OW57532   2.666   8.530   2.044 -0.0909  0.4972  0.0788
15158SOL    HW157533   2.632   8.524   1.951 -1.3858 -0.7207  0.6121
15158SOL    HW257534   2.763   8.554   2.043  0.2114 -0.7495 -1.6158
15159SOL     OW57535   6.696   9.405   4.258  0.4811 -0.4619 -0.3365
15159SOL    HW157536   6.742   9.421   4.171  0.5393 -0.3529 -0.2857
15159SOL    HW257537   6.715   9.311   4.289 -1.0279 -1.1090 -1.3373
15160SOL     OW57538   9.760   0.511   4.508 -0.0094  0.8435  0.1363
15160SOL    HW157539   9.808   0.559   4.434 -1.1867  1.0377 -0.5078
15160SOL    HW257540   9.664   0.538   4.508 -0.1507  0.3525  1.3414
15161SOL     OW57541   1.489   4.404   0.116  0.0335 -0.0904 -0.1972
15161SOL    HW157542   1.528   4.489   0.080  1.4027 -0.7849 -0.3790
15161SOL    HW257543   1.437   4.425   0.199  0.7180  0.8896  0.0051
15162SOL     OW57544   0.526   4.434   3.664  0.0449  0.1281 -0.1307
15162SOL    HW157545   0.470   4.428   3.746  0.2623 -1.2097 -0.0668
15162SOL    HW257546   0.548   4.342   3.632  0.1530  0.6341 -1.5591
15163SOL     OW57547   3.026   0.699   6.107 -0.1566 -0.6654 -0.8874
15163SOL    HW157548   2.960   0.671   6.176 -0.7603 -0.7604 -1.4984
15163SOL    HW257549   3.041   0.624   6.043  1.4921 -1.0900 -0.0395
15164SOL     OW57550   1.635   3.131   2.557 -0.0581  0.2643 -0.4380
15164SOL    HW157551   1.593   3.075   2.486  1.2390  0.0395 -1.0264
15164SOL    HW257552   1.567   3.148   2.629 -0.8732 -0.9178 -0.9020
15165SOL     OW57553   2.876   1.144   3.302 -0.2701  0.1256  0.0349
15165SOL    HW157554   2.870   1.199   3.386 -1.1424  0.6966 -0.3987
15165SOL    HW257555   2.827   1.058   3.316  1.7668 -0.9268  0.9891
15166SOL     OW57556   9.420   8.600   2.006  0.2179  0.5558  0.0490
15166SOL    HW157557   9.371   8.660   2.070  0.0207  1.0036 -0.5193
15166SOL    HW257558   9.489   8.547   2.056 -0.8610 -0.1073  0.8667
15167SOL     OW57559   1.853   6.772   1.993 -0.1604 -0.3174  0.7273
15167SOL    HW157560   1.778   6.732   1.940 -0.1069 -0.3887  0.7045
15167SOL    HW257561   1.940   6.749   1.950 -0.0530 -1.2259  1.3931
15168SOL     OW57562   8.726   0.225   9.754 -0.8543 -0.7440  0.6385
15168SOL    HW157563   8.702   0.156   9.686  1.3567 -0.2940 -0.6561
15168SOL    HW257564   8.647   0.284   9.771 -1.5281 -1.0251 -1.3733
15169SOL     OW57565   4.180   3.636   3.307  0.6501  0.0666  0.0650
15169SOL    HW157566   4.254   3.583   3.346 -0.5619 -0.2816  1.9102
15169SOL    HW257567   4.125   3.579   3.246  0.3884 -0.3515  0.6910
15170SOL     OW57568   8.539   1.668   7.329 -0.6522 -0.0277  0.0557
15170SOL    HW157569   8.509   1.763   7.333 -0.4902  0.1109 -1.5212
15170SOL    HW257570   8.470   1.609   7.371 -1.1949  0.6835  0.1773
15171SOL     OW57571   3.995   7.657   9.643 -0.1084 -0.3077  0.2707
15171SOL    HW157572   3.956   7.569   9.615  2.4397 -2.2436  2.4552
15171SOL    HW257573   3.968   7.677   9.737  1.6615 -0.2437  0.7927
15172SOL     OW57574   4.347   1.627   5.136 -0.6316 -0.2120  0.3375
15172SOL    HW157575   4.308   1.632   5.044 -1.6458  1.4737  0.8440
15172SOL    HW257576   4.445   1.648   5.132 -0.5919 -0.5198 -0.3873
15173SOL     OW57577   8.528   9.077   1.034  0.5506 -0.5159 -0.4902
15173SOL    HW157578   8.556   8.982   1.022  0.7078 -0.4675 -0.5045
15173SOL    HW257579   8.530   9.100   1.131  2.7375  0.1574 -0.6667
15174SOL     OW57580   6.713   0.952   1.144  0.1251  0.0079  0.4438
15174SOL    HW157581   6.806   0.975   1.116  0.3323  0.3481  1.4234
15174SOL    HW257582   6.663   1.035   1.165 -0.3292 -0.1920  0.1658
15175SOL     OW57583   4.520   0.937   8.029 -0.3006 -0.0121  0.2174
15175SOL    HW157584   4.512   0.884   7.944  0.0192  1.0314 -0.4726
15175SOL    HW257585   4.436   0.989   8.044 -1.2453 -1.8929  1.7273
15176SOL     OW57586   0.140   2.760   8.919  0.4466 -0.1545 -0.4059
15176SOL    HW157587   0.129   2.832   8.987  1.8372  0.8459 -1.2109
15176SOL    HW257588   0.134   2.800   8.827  1.5948 -0.9974 -0.8636
15177SOL     OW57589   0.617   8.909   6.446 -0.1513 -0.4850  0.3086
15177SOL    HW157590   0.694   8.972   6.452 -0.4288 -0.0526 -0.5195
15177SOL    HW257591   0.579   8.894   6.537  0.0434  0.3902  0.5435
15178SOL     OW57592   8.792   0.712   8.222  0.4464 -0.3446 -0.4070
15178SOL    HW157593   8.871   0.667   8.265  0.1196 -1.4729 -0.9569
15178SOL    HW257594   8.736   0.643   8.175  0.6354  0.8021 -2.3899
15179SOL     OW57595   7.734   1.402   8.019 -0.1619  0.4765  0.3267
15179SOL    HW157596   7.689   1.342   8.087  0.8062 -0.7099 -0.0643
15179SOL    HW257597   7.770   1.346   7.945  0.2423  1.6250 -0.3447
15180SOL     OW57598   8.120   1.109   1.122 -0.5043  0.2329  0.5659
15180SOL    HW157599   8.164   1.181   1.175  0.4186  0.7507 -0.8735
15180SOL    HW257600   8.081   1.149   1.039  1.1659 -1.1181 -0.8999
15181SOL     OW57601   6.948   7.916   6.483 -0.8581  0.5922  0.4464
15181SOL    HW157602   6.899   7.899   6.397 -1.8158 -1.2896  1.3195
15181SOL    HW257603   6.887   7.896   6.560  0.8740 -0.5818  1.5642
15182SOL     OW57604   7.709   0.043   6.831  0.0875 -0.5571 -0.2723
15182SOL    HW157605   7.675   0.012   6.742  0.2142  1.0097 -0.8752
15182SOL    HW257606   7.809   0.047   6.829  0.1559 -1.6784  0.3402
15183SOL     OW57607   2.898   2.505   3.311  0.4638 -1.0522 -0.8644
15183SOL    HW157608   2.974   2.558   3.350 -0.3428 -0.6913  0.2548
15183SOL    HW257609   2.846   2.562   3.248 -0.5648 -0.3843  0.5423
15184SOL     OW57610   9.379   8.428   7.316  0.1098 -0.0223  0.0751
15184SOL    HW157611   9.421   8.358   7.258 -1.5154 -0.3860 -0.7031
15184SOL    HW257612   9.337   8.498   7.259  0.9152  1.0949  0.8469
15185SOL     OW57613   0.825   2.617   4.561  0.9265  0.1897  0.0273
15185SOL    HW157614   0.769   2.547   4.517 -0.0863  1.5535 -0.9068
15185SOL    HW257615   0.884   2.659   4.492  0.7136  1.0250  0.3481
15186SOL     OW57616   8.354   9.618   8.879 -0.0053  0.5723 -0.6188
15186SOL    HW157617   8.441   9.569   8.891  0.7636  1.8754 -0.8700
15186SOL    HW257618   8.304   9.577   8.802 -0.4980 -1.4125  0.7083
15187SOL     OW57619   4.641   1.767   7.518 -0.2900  0.5507 -0.5238
15187SOL    HW157620   4.563   1.761   7.580  0.3345  0.0382  0.2348
15187SOL    HW257621   4.698   1.686   7.529 -0.2241  0.4071 -1.8638
15188SOL     OW57622   4.428   7.959   0.730 -0.1994 -0.6214  0.1211
15188SOL    HW157623   4.399   8.001   0.644  1.4088  1.3637  0.5162
15188SOL    HW257624   4.363   7.886   0.754 -2.4429  0.8813 -1.1260
15189SOL     OW57625   2.889   4.631   6.581 -0.2532 -0.1579 -0.0855
15189SOL    HW157626   2.856   4.565   6.649 -0.4593  0.2229  0.1832
15189SOL    HW257627   2.866   4.724   6.610  0.9110  0.1020  0.0062
15190SOL     OW57628   0.274   4.255   4.667  0.3984  0.0005 -0.1566
15190SOL    HW157629   0.358   4.284   4.621  0.4184 -1.0052 -0.7705
15190SOL    HW257630   0.259   4.157   4.651 -2.1262  0.6275 -2.0967
15191SOL     OW57631   0.553   4.824   6.859 -0.5488  0.0589  0.2773
15191SOL    HW157632   0.513   4.737   6.829  0.1440 -0.6938  1.5083
15191SOL    HW257633   0.628   4.849   6.799 -2.9129  1.5717 -2.1763
15192SOL     OW57634   5.338   1.130   9.922  0.2382 -0.3012  0.2647
15192SOL    HW157635   5.355   1.044   9.875  0.4789  0.3368 -0.8438
15192SOL    HW257636   5.328   1.203   9.854  0.7654  0.6668  1.2207
15193SOL     OW57637   8.765   9.569   7.379  0.0105 -0.1332  0.0203
15193SOL    HW157638   8.721   9.642   7.431 -0.7980  0.3976 -1.3897
15193SOL    HW257639   8.862   9.590   7.367  0.2661 -0.3835  1.4966
15194SOL     OW57640   2.594   7.494   1.457 -0.1278  0.1780 -0.1639
15194SOL    HW157641   2.615   7.572   1.517 -1.4658  0.1441  0.3800
15194SOL    HW257642   2.502   7.461   1.477 -0.2247 -0.4579 -1.5901
15195SOL     OW57643   6.354   5.190   0.469 -0.4946 -0.3109  0.2769
15195SOL    HW157644   6.278   5.156   0.412  0.8054 -2.0994 -0.4338
15195SOL    HW257645   6.332   5.176   0.565 -1.5019  0.1269  0.1185
15196SOL     OW57646   6.334   8.441   5.463 -0.2315  0.1697 -0.1700
15196SOL    HW157647   6.391   8.521   5.483 -1.0219  0.7413 -0.1966
15196SOL    HW257648   6.240   8.458   5.493 -0.4470 -0.6725 -0.3527
15197SOL     OW57649   5.181   4.083   6.317  1.1436 -0.1472 -0.1110
15197SOL    HW157650   5.144   4.052   6.229  1.8882 -1.9667  0.1966
15197SOL    HW257651   5.175   4.183   6.322  0.6175 -0.0586 -2.0087
15198SOL     OW57652   7.393   5.467   2.133  0.1720  0.1338  0.2595
15198SOL    HW157653   7.478   5.417   2.148 -1.7462 -2.8372  1.7333
15198SOL    HW257654   7.386   5.493   2.036  3.1373  1.2470  0.2985
15199SOL     OW57655   0.226   9.081   0.519 -0.2275  0.7488  0.0198
15199SOL    HW157656   0.174   9.002   0.489 -1.7276  1.5465  0.4526
15199SOL    HW257657   0.255   9.135   0.440  2.1091 -1.0122 -0.3670
15200SOL     OW57658   3.027   1.496   4.304  0.5892 -0.3939 -0.4478
15200SOL    HW157659   3.001   1.457   4.392  0.3921 -0.1086 -0.3768
15200SOL    HW257660   3.040   1.423   4.237  2.2103 -0.6995  0.1951
15201SOL     OW57661   8.361   4.233   3.962  0.4592 -0.1877  0.1988
15201SOL    HW157662   8.326   4.259   3.872  0.0784 -2.4389 -0.3408
15201SOL    HW257663   8.284   4.214   4.023  0.7157 -0.6665  0.3774
15202SOL     OW57664   0.869   3.820   6.075  0.4286  0.0799  0.4982
15202SOL    HW157665   0.848   3.724   6.055  1.1864  0.0702 -0.2617
15202SOL    HW257666   0.792   3.861   6.124 -1.2365 -0.0206 -1.9787
15203SOL     OW57667   6.826   5.994   1.519  0.1223 -0.1898  0.0306
15203SOL    HW157668   6.759   6.062   1.549 -0.7287 -1.2111  0.4919
15203SOL    HW257669   6.829   5.993   1.419 -0.2332  0.1602  0.0148
15204SOL     OW57670   6.074   3.033   1.698 -0.3518 -0.2462 -0.1324
15204SOL    HW157671   6.127   2.962   1.744 -0.0408 -0.1633 -0.3665
15204SOL    HW257672   6.095   3.033   1.600  0.4435  0.8573  0.0220
15205SOL     OW57673   7.969   6.036   5.093 -0.0290  0.1402  0.1284
15205SOL    HW157674   7.956   6.048   5.192 -1.5013  0.1223 -0.0457
15205SOL    HW257675   7.891   5.985   5.055  1.6080 -1.8345 -0.6821
15206SOL     OW57676   5.475   3.077   2.059 -0.0441  0.1819  0.1303
15206SOL    HW157677   5.569   3.044   2.074 -0.3339 -0.1358  1.2534
15206SOL    HW257678   5.450   3.141   2.131 -0.9852 -0.3473  0.2828
15207SOL     OW57679   3.470   6.834   4.667  0.4864 -0.0798  0.0777
15207SOL    HW157680   3.544   6.844   4.601  1.4681  2.0752  1.4619
15207SOL    HW257681   3.509   6.820   4.758 -0.8143  0.7289  0.7626
15208SOL     OW57682   2.563   1.763   7.773 -0.0827 -0.2581 -0.0005
15208SOL    HW157683   2.496   1.807   7.832  0.4707 -0.6469  0.9280
15208SOL    HW257684   2.628   1.830   7.739 -0.4934 -0.0094 -0.3012
15209SOL     OW57685   2.969   9.228   5.363 -0.3213 -0.0488  0.4346
15209SOL    HW157686   2.960   9.277   5.449  0.3006  0.0091  0.4670
15209SOL    HW257687   3.052   9.258   5.315 -0.3964 -0.4365  0.0508
15210SOL     OW57688   5.029   3.398   6.577 -0.6161  0.2316  0.0618
15210SOL    HW157689   5.028   3.484   6.629 -1.1785  0.3563 -0.1537
15210SOL    HW257690   4.956   3.338   6.609  0.6973 -0.7824  1.2190
15211SOL     OW57691   9.908   5.573   6.084  0.3082 -0.0500 -0.2989
15211SOL    HW157692   9.829   5.538   6.133  0.5304  0.9221  0.7754
15211SOL    HW257693   9.992   5.538   6.125  0.4864  0.5040 -0.1745
15212SOL     OW57694   1.585   2.131   0.673 -0.4564 -0.1650  0.3194
15212SOL    HW157695   1.595   2.220   0.719 -0.8969  0.6548 -1.1473
15212SOL    HW257696   1.523   2.073   0.726 -0.7422  0.6694  0.9054
15213SOL     OW57697   4.724   3.984   8.089 -0.3778  0.2388  0.0878
15213SOL    HW157698   4.749   3.957   8.182 -1.0930  0.2780  0.2974
15213SOL    HW257699   4.707   3.902   8.034  0.9870  0.1917 -0.2830
15214SOL     OW57700   8.044   6.463   8.325  0.1423 -0.1614  0.1700
15214SOL    HW157701   8.011   6.462   8.419  1.4014 -1.0415  0.6117
15214SOL    HW257702   8.021   6.376   8.281  0.8181 -0.3109  0.1113
15215SOL     OW57703   6.401   1.592   6.280  0.1253  0.5296 -0.2659
15215SOL    HW157704   6.319   1.547   6.316 -0.7089  2.1133 -0.1041
15215SOL    HW257705   6.451   1.635   6.355 -0.9830  2.8243 -0.7610
15216SOL     OW57706   5.346   1.936   2.022 -0.1639 -0.0127 -0.3756
15216SOL    HW157707   5.357   1.896   1.931  0.4438 -0.7251  0.0066
15216SOL    HW257708   5.399   1.883   2.088 -0.6252  0.4858  0.3977
15217SOL     OW57709   4.066   7.658   0.518 -0.2041  0.0917  0.0824
15217SOL    HW157710   4.061   7.619   0.426  0.0058 -0.5457  0.3384
15217SOL    HW257711   4.062   7.758   0.512 -1.6670  0.0018 -0.5135
15218SOL     OW57712   4.667   0.647   8.535 -0.5259 -0.9676 -0.3495
15218SOL    HW157713   4.629   0.603   8.617  0.2665 -2.5961 -0.8277
15218SOL    HW257714   4.651   0.745   8.539  0.8978 -0.8114  2.5082
15219SOL     OW57715   4.942   5.786   2.912 -0.1937  0.4719  0.1152
15219SOL    HW157716   5.021   5.824   2.961 -1.6284  0.5502  2.4783
15219SOL    HW257717   4.906   5.708   2.963  0.4735 -1.7942 -2.7822
15220SOL     OW57718   2.883   8.859   3.104 -0.8472 -0.4905  0.6546
15220SOL    HW157719   2.934   8.812   3.031  0.0994  0.1945  0.8694
15220SOL    HW257720   2.853   8.792   3.171  1.6062 -0.6702  1.6289
15221SOL     OW57721   7.494   1.513   0.349  0.0094 -0.5851  0.2632
15221SOL    HW157722   7.405   1.477   0.377  0.8576 -1.8156  1.4690
15221SOL    HW257723   7.550   1.438   0.313  0.8700  0.0111  0.3535
15222SOL     OW57724   6.733   1.413   5.637  1.0172 -0.0451 -0.2091
15222SOL    HW157725   6.789   1.358   5.575 -0.0155 -1.5592  0.1680
15222SOL    HW257726   6.678   1.477   5.584  1.8256  0.2516 -0.6970
15223SOL     OW57727   3.058   9.394   9.984  0.0701  0.2651 -0.2297
15223SOL    HW157728   2.964   9.362   9.976  0.4705 -1.3891  1.4587
15223SOL    HW257729   3.090   9.428   9.895 -1.6317 -0.4861 -1.1364
15224SOL     OW57730   8.714   1.213   5.299 -0.4138 -0.1023  0.1001
15224SOL    HW157731   8.746   1.119   5.291 -0.8503 -0.3567  1.1935
15224SOL    HW257732   8.757   1.256   5.378  0.7044  1.0101 -1.0854
15225SOL     OW57733   6.035   1.726  10.042 -0.0837 -0.5732 -0.0911
15225SOL    HW157734   5.984   1.715   9.957  0.2455 -1.9858 -0.1114
15225SOL    HW257735   6.044   1.824  10.063  3.5727  0.0275 -3.9033
15226SOL     OW57736   7.408   9.978   9.618 -0.2420  0.2879  0.1429
15226SOL    HW157737   7.435   9.941   9.707 -0.5752  0.3580  0.2780
15226SOL    HW257738   7.391  10.076   9.627  2.0582  0.7768 -0.5380
15227SOL     OW57739   0.228   2.427   4.697 -0.1692  0.5232  0.0725
15227SOL    HW157740   0.319   2.468   4.700  0.6279 -0.8974 -2.5221
15227SOL    HW257741   0.163   2.492   4.658 -0.0711  1.1929  1.0085
15228SOL     OW57742   8.806   8.571   1.741 -0.2570  0.4692 -0.1087
15228SOL    HW157743   8.820   8.528   1.652 -1.7740 -2.2080  0.9194
15228SOL    HW257744   8.718   8.617   1.742 -0.3789  0.2289  0.1215
15229SOL     OW57745   7.462   9.090   3.751  0.0635  0.2449  0.2209
15229SOL    HW157746   7.449   9.118   3.656  1.5648 -2.3213 -0.7955
15229SOL    HW257747   7.380   9.043   3.784  0.4123 -0.9457 -0.5952
15230SOL     OW57748   1.727   3.735   0.865  0.2445  0.2045  0.0032
15230SOL    HW157749   1.677   3.687   0.937  1.2354 -0.2562  0.3950
15230SOL    HW257750   1.825   3.719   0.876  0.6147  2.4860  0.2495
15231SOL     OW57751   0.923   6.399   5.324 -0.2200  0.3956  0.2822
15231SOL    HW157752   0.944   6.317   5.270 -2.0565  0.2785 -0.2763
15231SOL    HW257753   0.833   6.434   5.298  0.1903  2.1090  1.1270
15232SOL     OW57754   2.419   9.143   5.673 -0.6947  0.4735 -0.2376
15232SOL    HW157755   2.490   9.168   5.739  0.1210 -0.3813 -0.7701
15232SOL    HW257756   2.383   9.225   5.629  1.2087  0.7955 -1.2252
15233SOL     OW57757   7.116   0.180   9.374  0.4613 -0.2847  0.3746
15233SOL    HW157758   7.145   0.174   9.470 -0.4765  0.4151  0.7059
15233SOL    HW257759   7.108   0.088   9.336  1.1434 -0.5548  0.8754
15234SOL     OW57760   8.024   2.897   8.570 -0.3647  0.2381  0.2446
15234SOL    HW157761   8.118   2.916   8.543 -0.5268  0.1382 -0.4173
15234SOL    HW257762   7.979   2.845   8.497 -0.1998 -1.8821  1.6345
15235SOL     OW57763   8.471   3.840   9.275 -0.5154  0.1487  0.4304
15235SOL    HW157764   8.493   3.872   9.183  0.7829 -1.9914 -0.0635
15235SOL    HW257765   8.555   3.807   9.319 -0.9419  2.0950  2.7958
15236SOL     OW57766   1.905   6.277   0.600  0.0885  0.1335  0.4645
15236SOL    HW157767   1.995   6.271   0.643 -0.3495 -0.1052  1.3536
15236SOL    HW257768   1.845   6.208   0.639 -0.3583 -0.0110 -0.4519
15237SOL     OW57769   7.561   0.773   7.080 -0.1422 -0.3098  0.6887
15237SOL    HW157770   7.611   0.812   7.157 -0.4136  2.1419 -0.3329
15237SOL    HW257771   7.463   0.770   7.102  0.1306 -2.6057  1.6558
15238SOL     OW57772   1.464   0.339   1.770 -0.1803  0.4459  0.1235
15238SOL    HW157773   1.483   0.257   1.823 -0.2242 -0.2059 -0.8466
15238SOL    HW257774   1.389   0.390   1.812  0.6256  0.6147  1.3901
15239SOL     OW57775   9.910   2.551   8.270 -0.4922 -0.3472  0.0162
15239SOL    HW157776  10.002   2.512   8.270 -1.2539 -2.2224  0.6422
15239SOL    HW257777   9.865   2.530   8.183 -1.2221 -1.7142  0.6966
15240SOL     OW57778   5.512   0.545   7.762  0.4735  0.6217 -0.1687
15240SOL    HW157779   5.426   0.496   7.751  0.6412  0.5670 -1.2872
15240SOL    HW257780   5.566   0.500   7.834  0.2594 -0.3288 -0.5911
15241SOL     OW57781   1.361   0.775   2.642 -0.1449  1.0314 -0.1098
15241SOL    HW157782   1.271   0.733   2.632  0.6325 -0.5122 -0.9618
15241SOL    HW257783   1.417   0.720   2.703  0.5124  1.4743 -0.3004
15242SOL     OW57784   1.436   4.561   0.382  0.4934 -0.3666  0.9082
15242SOL    HW157785   1.343   4.595   0.364  0.8789  1.9458  3.1057
15242SOL    HW257786   1.430   4.474   0.431 -0.5397  0.4081  2.2084
15243SOL     OW57787   0.554   7.662   5.378 -0.1971 -0.3002  0.1305
15243SOL    HW157788   0.476   7.725   5.376 -1.6664 -2.1044 -2.0554
15243SOL    HW257789   0.626   7.695   5.317 -1.2211 -1.0088 -1.4922
15244SOL     OW57790   3.391   7.701   7.233  0.3285  0.8423 -0.7369
15244SOL    HW157791   3.350   7.618   7.269 -0.5040  2.2893  1.8201
15244SOL    HW257792   3.466   7.678   7.171  1.6484 -1.8195  1.7161
15245SOL     OW57793   5.112   7.093   4.719 -0.2464  0.1708  0.3258
15245SOL    HW157794   5.114   7.190   4.695 -1.7136  0.7126  2.2678
15245SOL    HW257795   5.204   7.063   4.743  0.3686  0.8377 -1.0977
15246SOL     OW57796   7.678   1.245   2.355 -0.2520  0.5641  0.0137
15246SOL    HW157797   7.581   1.269   2.355 -0.2733  0.4733 -0.2138
15246SOL    HW257798   7.688   1.146   2.342 -0.1084  0.6464 -0.5140
15247SOL     OW57799   9.304   4.761   7.515 -0.0620  0.0216 -0.1690
15247SOL    HW157800   9.207   4.774   7.492  0.4445 -0.0470 -2.4978
15247SOL    HW257801   9.312   4.733   7.611 -2.3143  0.3842  0.1607
15248SOL     OW57802   0.577   5.950   9.886  0.0798  0.2244  0.1545
15248SOL    HW157803   0.592   6.048   9.874 -1.0272  0.4127  0.2284
15248SOL    HW257804   0.657   5.909   9.929  1.1210  0.8417 -1.1453
15249SOL     OW57805   1.920   1.288   8.926  0.3617 -0.1553 -0.1096
15249SOL    HW157806   1.977   1.295   9.008 -0.5386 -0.9100  0.5786
15249SOL    HW257807   1.964   1.226   8.860 -0.1656 -1.5665  0.8461
15250SOL     OW57808   1.749   1.708   5.784  0.2157 -0.0013 -0.1141
15250SOL    HW157809   1.820   1.727   5.852  0.7035  0.3104 -0.7009
15250SOL    HW257810   1.659   1.728   5.822  0.6007  1.8224 -0.1240
15251SOL     OW57811   2.291   3.774   9.391 -0.2241  0.4122 -0.0805
15251SOL    HW157812   2.382   3.762   9.353 -0.0314 -0.0427  0.5036
15251SOL    HW257813   2.229   3.808   9.321  0.0511 -0.6980 -0.8753
15252SOL     OW57814   4.637   0.674   8.047  0.0298  0.0918 -0.3057
15252SOL    HW157815   4.595   0.729   8.120  2.1399  0.7659  0.4295
15252SOL    HW257816   4.621   0.718   7.959 -0.4117  0.5834  0.0176
15253SOL     OW57817   9.525   8.527   8.321  0.2688 -0.1462 -0.1218
15253SOL    HW157818   9.594   8.534   8.248 -0.2401 -0.2865 -0.6197
15253SOL    HW257819   9.477   8.440   8.313 -0.0283 -0.0087  0.1745
15254SOL     OW57820   9.349   0.634   4.804 -0.6965  0.0985 -0.3458
15254SOL    HW157821   9.392   0.686   4.878 -2.8295  1.0566  0.2747
15254SOL    HW257822   9.397   0.548   4.791  0.3839  0.4089  1.4093
15255SOL     OW57823   2.987   8.742   2.856 -0.8678 -0.5595  0.6387
15255SOL    HW157824   3.023   8.670   2.798 -0.8391 -1.0968  1.3174
15255SOL    HW257825   3.062   8.782   2.910 -0.9637 -0.3568  0.6225
15256SOL     OW57826   8.943   7.094   3.821 -0.3382  1.0344  0.1862
15256SOL    HW157827   8.953   7.084   3.920 -1.3780  2.8985  0.5019
15256SOL    HW257828   8.886   7.019   3.786  1.3429 -0.5468  0.7292
15257SOL     OW57829   1.900   2.609   3.477 -0.2662  0.2070  0.9130
15257SOL    HW157830   1.845   2.685   3.442 -0.4074 -0.6761 -0.8614
15257SOL    HW257831   1.997   2.632   3.469 -0.2171 -0.6690 -1.8900
15258SOL     OW57832   0.356   9.826   9.232 -0.9350 -0.3773  0.0665
15258SOL    HW157833   0.417   9.854   9.306 -1.6526  0.0542  0.5063
15258SOL    HW257834   0.285   9.766   9.269 -0.9293 -0.6667 -0.3922
15259SOL     OW57835   8.352   7.342   0.357  0.1781  0.2783 -0.0171
15259SOL    HW157836   8.416   7.375   0.287  0.9608  0.1725  0.6451
15259SOL    HW257837   8.337   7.243   0.345 -0.1046  0.3615 -0.3613
15260SOL     OW57838   2.374   4.384   2.803 -0.0738 -0.5679 -0.1604
15260SOL    HW157839   2.309   4.312   2.827  0.2166 -0.6786  0.2974
15260SOL    HW257840   2.466   4.356   2.830  0.0374 -0.0163  0.0442
15261SOL     OW57841   3.653   6.489   4.459 -0.2986 -0.2069 -0.2076
15261SOL    HW157842   3.598   6.418   4.414 -0.0110  0.0950 -1.0373
15261SOL    HW257843   3.648   6.574   4.406  0.4525  0.0066  0.0601
15262SOL     OW57844   0.582   0.333   5.334 -0.0167 -0.8639 -0.2869
15262SOL    HW157845   0.578   0.233   5.330  0.2769 -0.7907 -3.2315
15262SOL    HW257846   0.675   0.364   5.316 -0.8477  0.0522 -3.2272
15263SOL     OW57847   0.753   1.107   0.325 -0.7452 -0.1377  0.3372
15263SOL    HW157848   0.692   1.130   0.250 -1.4140 -0.4743  0.7717
15263SOL    HW257849   0.845   1.139   0.304 -0.3013 -2.6824 -1.8829
15264SOL     OW57850   3.705   0.782   8.491  0.9069 -0.0514  1.0089
15264SOL    HW157851   3.732   0.816   8.401 -0.9612 -1.0231  0.0449
15264SOL    HW257852   3.780   0.731   8.532  0.9451 -1.7793 -1.1185
15265SOL     OW57853   1.936   2.719   2.646  0.1105 -0.1567 -0.0029
15265SOL    HW157854   2.013   2.656   2.659 -0.6888 -1.4979 -1.6697
15265SOL    HW257855   1.946   2.766   2.559  0.4197  1.6656  0.9922
15266SOL     OW57856   3.338   5.150   6.636  0.0313 -0.7642 -0.1191
15266SOL    HW157857   3.354   5.061   6.680  0.0875  0.3388  2.1780
15266SOL    HW257858   3.425   5.185   6.601  0.3175 -0.8104  0.5390
15267SOL     OW57859   3.463   8.673   8.344  0.3669  0.2505 -0.2288
15267SOL    HW157860   3.421   8.602   8.400  1.7162 -0.5510 -0.2314
15267SOL    HW257861   3.398   8.748   8.332 -0.2053  0.0941  1.7612
15268SOL     OW57862   3.821   3.827   2.594  0.4569 -0.1792 -0.0090
15268SOL    HW157863   3.755   3.897   2.566 -0.2476 -0.8512 -0.0667
15268SOL    HW257864   3.830   3.829   2.694  1.2004  0.6562 -0.0846
15269SOL     OW57865   3.608   1.907   8.809  0.0374 -0.4369  0.0004
15269SOL    HW157866   3.633   1.920   8.712 -2.4860  1.3436 -0.4626
15269SOL    HW257867   3.626   1.992   8.859 -1.7517 -0.2569  0.3688
15270SOL     OW57868   2.352   8.771   6.778 -0.3409 -0.5946  0.1808
15270SOL    HW157869   2.398   8.682   6.774 -0.4184 -0.7001  1.5965
15270SOL    HW257870   2.260   8.759   6.814 -0.5919 -0.0208 -0.2540
15271SOL     OW57871   0.947   8.559   7.483 -0.0409  0.1785  0.6087
15271SOL    HW157872   0.961   8.477   7.428 -2.0706  0.3980 -0.2981
15271SOL    HW257873   1.001   8.552   7.567 -0.6509 -2.3732  0.8507
15272SOL     OW57874   7.678   7.849   5.480 -0.0530 -0.3198  0.6509
15272SOL    HW157875   7.638   7.758   5.470  0.1850 -0.5472  1.7089
15272SOL    HW257876   7.778   7.842   5.480  0.0186  0.2181 -1.7100
15273SOL     OW57877   0.285   6.358   6.292 -0.0928 -0.1594 -0.7016
15273SOL    HW157878   0.351   6.317   6.355 -0.1648  1.6277  0.5720
15273SOL    HW257879   0.195   6.317   6.307  0.2040 -0.8272 -0.7195
15274SOL     OW57880   0.541   5.927   5.333  0.2207 -0.3019  0.3792
15274SOL    HW157881   0.444   5.911   5.315  0.4571 -0.3901 -0.8534
15274SOL    HW257882   0.596   5.873   5.270  1.0623  0.5993  0.3312
15275SOL     OW57883   0.219   0.619   5.906 -0.2497 -0.6910 -0.0457
15275SOL    HW157884   0.281   0.618   5.984  0.8199 -0.9298 -0.8926
15275SOL    HW257885   0.242   0.696   5.846 -2.2600  0.6162  0.8117
15276SOL     OW57886   9.756   9.128   6.400 -0.0043 -0.0016 -0.2358
15276SOL    HW157887   9.784   9.218   6.367 -2.2061  1.3870  1.5248
15276SOL    HW257888   9.733   9.134   6.497 -1.5487 -2.1358 -0.4250
15277SOL     OW57889   1.351   0.812   5.635 -0.5784 -0.3136 -0.0488
15277SOL    HW157890   1.435   0.773   5.673  0.8740  1.7157 -1.0877
15277SOL    HW257891   1.290   0.739   5.606  1.4291 -1.8181 -0.5758
15278SOL     OW57892   0.052   3.169   5.756  0.2397  0.0957  0.0708
15278SOL    HW157893   0.020   3.144   5.847  0.1165 -1.0390 -0.2734
15278SOL    HW257894   0.150   3.190   5.759  0.1922  0.2566  0.4964
15279SOL     OW57895   7.940   6.276   0.993  0.3360 -0.1077  0.6684
15279SOL    HW157896   7.885   6.354   1.022 -0.3314 -0.2088 -0.3339
15279SOL    HW257897   7.884   6.212   0.941  1.5981  0.1981 -1.0888
15280SOL     OW57898   3.146   3.350   9.011  0.0577  0.5730 -0.2385
15280SOL    HW157899   3.090   3.310   8.938  1.1948  1.3525 -1.5511
15280SOL    HW257900   3.086   3.384   9.083 -0.9719 -2.9632  0.6707
15281SOL     OW57901   4.281   7.581   4.833  0.5640  0.0869  0.1567
15281SOL    HW157902   4.343   7.609   4.907 -1.7762  0.5567  1.9829
15281SOL    HW257903   4.221   7.657   4.810 -1.0365 -1.1543  0.1702
15282SOL     OW57904   2.940   9.060   8.906 -0.0327  0.1603  0.1371
15282SOL    HW157905   2.851   9.022   8.929  0.3920 -1.0496 -0.1787
15282SOL    HW257906   3.011   9.015   8.961  0.6755 -0.7631 -1.4789
15283SOL     OW57907   8.814   8.951   7.806 -0.1678  0.0439  0.3556
15283SOL    HW157908   8.876   8.939   7.884  0.0387  0.9803  0.3396
15283SOL    HW257909   8.851   9.020   7.744 -1.5693  1.1039  0.6917
15284SOL     OW57910   6.142   0.077   2.931 -0.4179 -0.4625  0.0534
15284SOL    HW157911   6.091   0.035   3.005  0.2323 -0.2299  0.6402
15284SOL    HW257912   6.188   0.006   2.877  1.5171 -0.4694  1.6587
15285SOL     OW57913   2.788   0.927   4.069  0.1614 -0.2731  0.3759
15285SOL    HW157914   2.719   0.865   4.107 -0.4246 -0.5916 -1.1458
15285SOL    HW257915   2.766   1.021   4.095 -2.1509 -0.1230 -1.9214
15286SOL     OW57916   0.029   0.813   1.969 -0.6616 -0.0682 -0.3421
15286SOL    HW157917  -0.029   0.731   1.974 -0.4536 -0.1735  0.4115
15286SOL    HW257918   0.120   0.787   1.937 -0.6175 -0.1119 -0.1768
15287SOL     OW57919   5.817   2.126   0.143  0.2704  0.8341 -0.1952
15287SOL    HW157920   5.825   2.030   0.118  1.8195  0.4402  1.7097
15287SOL    HW257921   5.722   2.156   0.129 -0.2503 -0.9795 -0.7098
15288SOL     OW57922   5.280   5.872   2.765 -0.4549 -0.5864  0.5663
15288SOL    HW157923   5.272   5.954   2.709  0.9877 -0.5414  0.4181
15288SOL    HW257924   5.230   5.885   2.851 -2.3712 -0.5151 -0.5214
15289SOL     OW57925   0.671   6.830   7.467 -0.0431  0.1279  0.1338
15289SOL    HW157926   0.614   6.851   7.388  0.7954 -0.5203 -0.6517
15289SOL    HW257927   0.620   6.850   7.551 -0.8448  1.0732 -0.5598
15290SOL     OW57928   4.193   2.239   0.590 -0.2792  0.0597  0.3994
15290SOL    HW157929   4.262   2.256   0.521  0.5209  0.8903  1.3885
15290SOL    HW257930   4.146   2.325   0.613 -0.0763 -0.0786  1.3628
15291SOL     OW57931   8.893   5.555   7.255 -0.0201 -0.3102 -0.4579
15291SOL    HW157932   8.854   5.550   7.347 -0.0379 -0.0935 -0.4524
15291SOL    HW257933   8.925   5.648   7.238 -0.6284 -0.1839 -0.9215
15292SOL     OW57934   8.588   2.473   2.598 -0.0482 -0.5918  0.3301
15292SOL    HW157935   8.630   2.562   2.582  1.7401 -1.6523 -1.0552
15292SOL    HW257936   8.630   2.431   2.678 -1.0005 -0.1464  1.0774
15293SOL     OW57937   7.744   7.481   2.949 -0.2002  0.6428  0.2636
15293SOL    HW157938   7.664   7.445   2.995 -0.0446  2.6622  2.1914
15293SOL    HW257939   7.731   7.475   2.850 -2.1615 -0.2257  0.5528
15294SOL     OW57940   1.503   9.338   3.212 -0.6693  0.1516 -1.0075
15294SOL    HW157941   1.584   9.396   3.212 -0.0843 -0.5871  1.0168
15294SOL    HW257942   1.447   9.359   3.293 -1.7528 -0.3294 -1.6205
15295SOL     OW57943   9.832   7.551   6.944 -0.7428  0.0796  0.3640
15295SOL    HW157944   9.767   7.627   6.937  0.1972  0.9721  1.1600
15295SOL    HW257945   9.901   7.573   7.013  0.4273 -0.8408 -0.5038
15296SOL     OW57946   3.092   6.885   7.161 -0.0297 -0.3520 -0.3587
15296SOL    HW157947   3.006   6.936   7.168  0.1547  0.1660 -1.6865
15296SOL    HW257948   3.082   6.797   7.208 -0.0331  1.2620  2.7428
15297SOL     OW57949   7.472   4.472   3.242  0.0922  0.2588 -0.4394
15297SOL    HW157950   7.377   4.441   3.233  0.3173 -0.2948 -0.9341
15297SOL    HW257951   7.515   4.423   3.318  0.7246 -1.3667 -1.8030
15298SOL     OW57952   1.829   1.551   1.796  0.1574  0.4688 -0.4590
15298SOL    HW157953   1.828   1.636   1.744  1.1472 -0.2896 -1.7672
15298SOL    HW257954   1.903   1.493   1.762  0.1335 -0.4935  1.0985
15299SOL     OW57955   3.151   4.015   7.415  0.0403  0.3705  0.3162
15299SOL    HW157956   3.171   4.016   7.513  1.6546  1.1350 -0.0038
15299SOL    HW257957   3.225   3.967   7.367 -1.0700 -0.5776 -0.4672
15300SOL     OW57958   9.657   3.152   4.933  0.1017  0.2071  0.2422
15300SOL    HW157959   9.734   3.088   4.933 -0.1291 -0.0808 -0.5760
15300SOL    HW257960   9.576   3.106   4.896 -0.1688  0.8506  0.0421
15301SOL     OW57961   5.295   9.904   4.250 -0.3084  0.0399  0.2690
15301SOL    HW157962   5.332   9.996   4.243 -0.4746 -0.0458 -1.9220
15301SOL    HW257963   5.200   9.904   4.219 -0.5372 -0.7301  0.9645
15302SOL     OW57964   1.376   8.442   6.827  0.5149 -0.1384  0.3976
15302SOL    HW157965   1.409   8.370   6.767  0.9432  1.2204 -1.0465
15302SOL    HW257966   1.332   8.514   6.772  1.2386  1.3031  1.6544
15303SOL     OW57967   1.911   6.004   2.770 -0.3563 -0.5029  0.3159
15303SOL    HW157968   1.921   6.049   2.681  0.9446  0.6132  1.0183
15303SOL    HW257969   1.970   5.923   2.772 -0.4100 -0.5480  0.1590
15304SOL     OW57970   8.726   9.749   5.825 -0.3133 -0.2319  0.0429
15304SOL    HW157971   8.713   9.687   5.747 -1.1662  1.2959 -1.0569
15304SOL    HW257972   8.667   9.829   5.814  1.3453  1.1598  1.0209
15305SOL     OW57973   0.476   8.444   9.490  0.3330 -0.1716 -0.0207
15305SOL    HW157974   0.479   8.348   9.518 -2.8156 -0.5576 -0.7835
15305SOL    HW257975   0.552   8.464   9.429  1.0315 -2.1730  0.1574
15306SOL     OW57976   6.293   2.604   2.111  0.0814 -0.3977 -0.0920
15306SOL    HW157977   6.386   2.635   2.093  0.1991 -0.3481  0.5736
15306SOL    HW257978   6.294   2.539   2.187 -0.3147 -1.0991 -0.6790
15307SOL     OW57979   4.915   5.535   0.919  0.1347  0.0816  0.6424
15307SOL    HW157980   4.940   5.497   0.830  0.7257 -0.2822  0.9582
15307SOL    HW257981   4.824   5.575   0.914  0.0625 -0.1640 -0.0606
15308SOL     OW57982   8.064   2.791   3.211 -0.1360 -0.5320  0.2167
15308SOL    HW157983   8.105   2.862   3.154  0.7267  0.0718  1.5600
15308SOL    HW257984   8.043   2.828   3.301 -0.1622 -1.8353  0.7617
15309SOL     OW57985   9.328   6.653   9.918  0.4588  0.3169  1.0391
15309SOL    HW157986   9.380   6.737   9.902 -2.2893  2.4568  2.6514
15309SOL    HW257987   9.289   6.621   9.832 -0.4339  2.1149  0.7390
15310SOL     OW57988   6.850   1.039   4.934  0.1245 -0.5203 -0.5614
15310SOL    HW157989   6.918   0.983   4.982  0.2201 -1.0125 -1.2487
15310SOL    HW257990   6.780   0.979   4.895 -0.2304 -0.0845 -0.6009
15311SOL     OW57991   9.249   0.780   4.526 -0.3492  0.2603 -0.0750
15311SOL    HW157992   9.185   0.848   4.489 -0.5203 -0.3622 -0.9554
15311SOL    HW257993   9.203   0.726   4.596 -0.7706 -0.1124 -0.6258
15312SOL     OW57994   7.830   5.237   3.160  0.3103 -0.0792 -0.4104
15312SOL    HW157995   7.749   5.292   3.178 -1.1797 -2.2710 -0.2790
15312SOL    HW257996   7.910   5.284   3.197 -1.4352  0.1285  3.3227
15313SOL     OW57997   3.277   4.682   7.327 -0.1365 -0.5060  0.0614
15313SOL    HW157998   3.185   4.645   7.312 -0.9712  1.1939  0.7587
15313SOL    HW257999   3.306   4.660   7.420 -0.3150 -0.0676  0.2209
15314SOL     OW58000   9.615   3.286   2.089 -0.0920 -0.0498 -0.2359
15314SOL    HW158001   9.532   3.238   2.119 -0.3523  1.2664  1.2170
15314SOL    HW258002   9.614   3.295   1.989 -2.3573  1.0898 -0.1386
15315SOL     OW58003   6.367   9.268   8.503 -0.1484  0.2406 -0.1658
15315SOL    HW158004   6.410   9.347   8.546  0.0093  0.9846 -1.7033
15315SOL    HW258005   6.392   9.263   8.407 -0.3805 -1.5289 -0.1664
15316SOL     OW58006   7.989   2.221   7.866  0.7536 -0.5406 -0.7051
15316SOL    HW158007   7.927   2.281   7.817  1.5767  0.3390 -0.6720
15316SOL    HW258008   7.936   2.159   7.924 -0.0768  0.5519 -0.2787
15317SOL     OW58009   0.704   0.884   7.873 -0.5569  0.0164 -0.1008
15317SOL    HW158010   0.630   0.872   7.807 -0.9502 -0.5738  0.4369
15317SOL    HW258011   0.672   0.940   7.950  0.0854  1.2282 -0.6998
15318SOL     OW58012   9.663   7.813   7.022  0.3926 -0.3907  0.3341
15318SOL    HW158013   9.592   7.848   6.961  0.2787 -1.1136  0.0400
15318SOL    HW258014   9.735   7.882   7.034 -0.2395  0.2461  0.4342
15319SOL     OW58015   2.920   9.760   0.662  0.6567 -0.1456 -0.2840
15319SOL    HW158016   2.967   9.781   0.576  0.0570  2.1138 -0.0837
15319SOL    HW258017   2.822   9.777   0.651  0.6123  0.3981  0.9203
15320SOL     OW58018   3.688   3.829   9.624  0.2215 -0.6589  0.3917
15320SOL    HW158019   3.694   3.901   9.555  1.1514  1.9664  3.1052
15320SOL    HW258020   3.593   3.800   9.633 -0.0022 -0.6278 -1.5430
15321SOL     OW58021   8.714   0.382   2.542 -0.8721  0.2897  0.3886
15321SOL    HW158022   8.688   0.314   2.473  0.3515 -3.2243  3.1948
15321SOL    HW258023   8.641   0.392   2.609 -0.3681  0.4453  0.9235
15322SOL     OW58024   6.475   0.947   6.180 -0.7462  0.2313 -0.0609
15322SOL    HW158025   6.467   0.880   6.254 -0.1244 -0.9893 -1.0851
15322SOL    HW258026   6.446   0.905   6.094  1.4041  0.7059 -1.0316
15323SOL     OW58027   9.977   8.233   5.656 -0.2798  0.1378 -0.3472
15323SOL    HW158028  10.044   8.257   5.585  1.5035  0.9028  1.5542
15323SOL    HW258029   9.973   8.134   5.665  0.0302  0.0568 -0.9929
15324SOL     OW58030   5.431   1.993   2.510 -0.1675 -0.1553  0.7339
15324SOL    HW158031   5.440   2.065   2.579  0.3945 -0.1938  0.7057
15324SOL    HW258032   5.492   1.917   2.533  2.5812  1.2302 -1.5371
15325SOL     OW58033   8.793   9.276   8.687 -0.3421  0.0500 -0.2793
15325SOL    HW158034   8.730   9.248   8.760 -1.5422 -1.4568 -1.8363
15325SOL    HW258035   8.753   9.353   8.637  1.9411  3.2683  2.5902
15326SOL     OW58036   8.436   2.525   1.979 -0.3406  0.5427 -0.0687
15326SOL    HW158037   8.455   2.497   1.885  0.8191  0.6816  0.1168
15326SOL    HW258038   8.401   2.446   2.031 -1.6107  0.6271 -0.7717
15327SOL     OW58039   6.370   2.427   1.299 -0.0756  0.0746  0.2072
15327SOL    HW158040   6.428   2.423   1.381  0.8944 -1.3943 -0.5221
15327SOL    HW258041   6.275   2.409   1.324  0.1321  0.1586  1.0856
15328SOL     OW58042   0.244   2.649   1.387 -0.5077  0.0603  0.4453
15328SOL    HW158043   0.227   2.579   1.317 -1.6562  0.7925 -0.0408
15328SOL    HW258044   0.291   2.609   1.465 -1.2893 -1.2915  0.2304
15329SOL     OW58045   4.571   3.264   0.612  0.0077 -0.8028 -0.4373
15329SOL    HW158046   4.491   3.315   0.579  1.1591  1.8320  0.6823
15329SOL    HW258047   4.637   3.255   0.538 -0.4165 -1.0639 -0.7812
15330SOL     OW58048   1.635   4.355   0.801 -0.3145  0.2568  0.1506
15330SOL    HW158049   1.703   4.379   0.732  0.7502 -0.8998  0.7671
15330SOL    HW258050   1.646   4.414   0.881 -1.6909  1.7427 -0.7385
15331SOL     OW58051   0.981   2.366   2.054  0.2030 -0.7410  0.1303
15331SOL    HW158052   0.995   2.329   2.146 -0.0935 -1.1409  0.0135
15331SOL    HW258053   0.895   2.417   2.051  0.5855 -0.0838  0.2769
15332SOL     OW58054   6.030   6.427   1.531  0.1796 -0.4603 -0.1160
15332SOL    HW158055   6.127   6.451   1.518  0.3971 -1.9077 -1.3050
15332SOL    HW258056   5.999   6.371   1.454 -1.6481  0.0888  0.1992
15333SOL     OW58057   3.696   1.400   6.196  0.3530  0.0922 -0.6276
15333SOL    HW158058   3.610   1.440   6.228  0.3730 -0.3688  0.0087
15333SOL    HW258059   3.717   1.318   6.249  1.5545  0.5939 -0.3109
15334SOL     OW58060   4.781   0.727   5.715  0.0821  0.0359 -0.6603
15334SOL    HW158061   4.831   0.690   5.637 -0.0033  1.9719 -1.6707
15334SOL    HW258062   4.814   0.819   5.736  0.1541 -0.4698  1.6545
15335SOL     OW58063   9.895   3.567   5.668  0.2920 -0.3158  0.2064
15335SOL    HW158064   9.849   3.631   5.605  1.4448 -0.5295 -0.8710
15335SOL    HW258065   9.852   3.477   5.662 -0.3293 -0.0496  0.5784
15336SOL     OW58066   4.122   2.982   7.103  0.0484 -0.4045 -0.2515
15336SOL    HW158067   4.105   3.022   7.193 -0.1174 -0.9866 -0.0209
15336SOL    HW258068   4.206   3.020   7.065  1.5421 -2.0432  1.2684
15337SOL     OW58069   7.260   4.495   1.102  0.3848 -0.1200 -0.9400
15337SOL    HW158070   7.261   4.490   1.202 -2.0818  1.6242 -0.7921
15337SOL    HW258071   7.324   4.565   1.071  0.1753  0.2599 -0.5137
15338SOL     OW58072   2.373   9.462   1.650 -0.3472 -0.0554  0.4778
15338SOL    HW158073   2.325   9.537   1.606 -1.9973 -2.4893 -2.0499
15338SOL    HW258074   2.405   9.398   1.581  1.2544 -1.5565  2.5512
15339SOL     OW58075   0.832   7.487   9.155  0.1542 -0.4809 -0.2878
15339SOL    HW158076   0.832   7.545   9.237 -1.6664  0.3981 -0.8932
15339SOL    HW258077   0.883   7.403   9.174 -1.1290 -0.7691  2.0925
15340SOL     OW58078   8.452   0.107   6.024 -1.1158  0.2613  0.3868
15340SOL    HW158079   8.523   0.058   5.974 -1.2897  0.6235 -0.2193
15340SOL    HW258080   8.378   0.044   6.049 -0.7890 -0.0240  0.6278
15341SOL     OW58081   2.783   1.950  10.063 -0.3867 -0.3567 -0.2490
15341SOL    HW158082   2.710   2.005  10.103 -0.2111 -0.0311 -0.3747
15341SOL    HW258083   2.800   1.870  10.121  0.4154  0.5296  0.7734
15342SOL     OW58084   0.192   9.796   1.385 -0.3884  0.6091  0.0165
15342SOL    HW158085   0.102   9.839   1.394 -0.8860 -0.4639  0.2124
15342SOL    HW258086   0.219   9.796   1.288 -0.7981  0.5342 -0.0998
15343SOL     OW58087   3.137   3.069   1.036 -0.4560  0.1634 -0.5200
15343SOL    HW158088   3.210   3.100   0.976  0.2203 -0.6698 -0.1337
15343SOL    HW258089   3.157   3.097   1.130  0.0488 -1.2357 -0.2022
15344SOL     OW58090   4.738   1.257   8.863 -0.4438  0.5001  0.0726
15344SOL    HW158091   4.798   1.336   8.875  1.8479 -1.4622  2.0305
15344SOL    HW258092   4.675   1.251   8.940  0.0049 -0.0878  0.3969
15345SOL     OW58093   8.608   2.635   6.985 -0.1013  0.2036  0.5877
15345SOL    HW158094   8.684   2.661   7.044  1.2038 -2.1283 -0.0375
15345SOL    HW258095   8.637   2.637   6.889 -1.3002  0.8759  0.2289
15346SOL     OW58096   3.074   1.573   8.630  0.3903 -0.4357 -0.4499
15346SOL    HW158097   3.160   1.611   8.663  0.3322 -0.5379 -0.1744
15346SOL    HW258098   2.998   1.628   8.664  0.3419 -0.4043 -0.6085
15347SOL     OW58099   2.320   3.850   5.386  0.1755  0.1639  0.0419
15347SOL    HW158100   2.240   3.894   5.428 -1.2170  0.1632 -2.4902
15347SOL    HW258101   2.367   3.916   5.328  1.1754 -0.2613  0.3603
15348SOL     OW58102   9.701   1.462   8.741 -0.1032  0.3215  0.1845
15348SOL    HW158103   9.693   1.413   8.654  0.4624 -0.1926  0.4160
15348SOL    HW258104   9.739   1.400   8.810  0.3831  1.0236  0.5458
15349SOL     OW58105   3.683   0.755   1.708 -0.0294 -0.3875 -0.0441
15349SOL    HW158106   3.710   0.745   1.612  0.2871 -0.4170  0.0486
15349SOL    HW258107   3.763   0.778   1.763  0.1253 -2.0747  0.4803
15350SOL     OW58108   0.146   7.415   9.052  0.4911 -0.3134  0.2692
15350SOL    HW158109   0.217   7.347   9.071  0.7430 -0.1659 -0.1472
15350SOL    HW258110   0.063   7.391   9.102 -0.0299 -1.9781 -1.3276
15351SOL     OW58111   3.157   0.993   0.810 -0.1245 -0.4811 -0.0907
15351SOL    HW158112   3.224   1.021   0.741 -1.3226 -1.6462 -1.7851
15351SOL    HW258113   3.155   1.060   0.885  1.9530  0.2515 -0.6681
15352SOL     OW58114   2.142   0.417   2.346 -0.2767  0.0014 -0.1296
15352SOL    HW158115   2.166   0.361   2.267 -0.7616  1.1701 -1.1267
15352SOL    HW258116   2.055   0.463   2.329 -0.3409  0.3347  1.0463
15353SOL     OW58117   8.324   8.704   8.802 -0.3263 -0.6886  0.2023
15353SOL    HW158118   8.285   8.681   8.713 -1.0099  1.0347  0.0335
15353SOL    HW258119   8.255   8.752   8.857 -0.0502 -2.0986  1.8301
15354SOL     OW58120   7.385   2.156   6.193  0.0385 -0.0962 -0.0181
15354SOL    HW158121   7.297   2.119   6.162 -0.0986 -0.8789  1.2632
15354SOL    HW258122   7.441   2.179   6.114 -0.9463 -0.4801 -0.8463
15355SOL     OW58123   2.178   6.531   5.734 -0.7749 -0.2526 -0.1776
15355SOL    HW158124   2.104   6.581   5.778  0.3990  1.1806  0.1998
15355SOL    HW258125   2.265   6.577   5.752  0.1904 -1.8259 -0.7456
15356SOL     OW58126   3.371   2.420   2.847  0.5534 -0.1635  0.6185
15356SOL    HW158127   3.345   2.516   2.850 -0.5823 -0.4491  0.1808
15356SOL    HW258128   3.420   2.401   2.762 -1.7202 -0.5831 -0.6122
15357SOL     OW58129   4.003   1.485   0.034 -0.4235  0.1443 -0.3825
15357SOL    HW158130   3.967   1.502  -0.058  1.6045 -0.0091 -1.2149
15357SOL    HW258131   3.939   1.426   0.084 -1.3305 -0.1231 -1.8210
15358SOL     OW58132   2.134   0.132   9.718  0.2711  0.1434 -0.1123
15358SOL    HW158133   2.107   0.036   9.714 -1.1064  0.3965  2.0584
15358SOL    HW258134   2.228   0.142   9.687  1.3861 -2.3138  2.2511
15359SOL     OW58135   6.831   9.419   8.999  0.6825  0.0091 -0.1100
15359SOL    HW158136   6.833   9.382   9.092 -0.2351 -0.9965 -0.4754
15359SOL    HW258137   6.819   9.345   8.934 -1.4060  0.9408 -0.8419
15360SOL     OW58138   3.148   3.758   9.519 -0.2977  0.2361  0.0978
15360SOL    HW158139   3.177   3.804   9.603  0.2870  1.7925 -0.9307
15360SOL    HW258140   3.048   3.759   9.514 -0.3535 -0.3546  1.0397
15361SOL     OW58141   7.104   8.375   8.695 -0.2991 -0.1178 -0.0241
15361SOL    HW158142   7.044   8.455   8.692  0.6001  0.5278 -1.0334
15361SOL    HW258143   7.049   8.292   8.704 -1.2790  0.5387  0.1087
15362SOL     OW58144   7.423   0.241   9.574 -0.0351 -0.1088 -0.1512
15362SOL    HW158145   7.429   0.312   9.645 -1.9820  0.1878 -0.2567
15362SOL    HW258146   7.406   0.284   9.486  1.7597 -0.5244 -0.7020
15363SOL     OW58147   0.102   6.503   4.099  0.1574 -0.4823  0.3747
15363SOL    HW158148   0.018   6.556   4.095 -0.1315 -0.8909  0.9341
15363SOL    HW258149   0.180   6.561   4.075 -0.3395 -0.2389 -0.6437
15364SOL     OW58150   7.532   2.529   2.112 -0.3908 -0.0434  0.0652
15364SOL    HW158151   7.564   2.484   2.196  0.0295  0.2318  0.0525
15364SOL    HW258152   7.437   2.559   2.124 -0.5571 -0.6157  0.1998
15365SOL     OW58153   7.284   0.965   4.990  0.5140  0.2834  0.3518
15365SOL    HW158154   7.360   0.958   4.925  0.3164 -0.5767  0.2076
15365SOL    HW258155   7.253   1.060   4.994  2.4411  0.8854  1.4058
15366SOL     OW58156   0.991   4.930   3.785 -0.0756  0.0030  0.1915
15366SOL    HW158157   0.909   4.919   3.841  0.5374 -0.2498  1.0496
15366SOL    HW258158   1.007   4.847   3.732 -0.4519  0.1070 -0.0887
15367SOL     OW58159   1.569   3.707   1.107  0.1191  0.4953 -0.2881
15367SOL    HW158160   1.620   3.786   1.139  1.6921 -1.1265  1.3510
15367SOL    HW258161   1.484   3.699   1.160  0.5412  0.4111  0.3844
15368SOL     OW58162   1.994   3.117   4.652 -0.3408  0.0653  0.9144
15368SOL    HW158163   2.001   3.178   4.731 -1.2400  0.0727  0.9933
15368SOL    HW258164   1.939   3.160   4.581 -1.3045 -0.7939  1.1185
15369SOL     OW58165   8.786   2.616   9.018 -0.0514  0.0823  0.3292
15369SOL    HW158166   8.730   2.618   9.100  0.1233  1.7713  0.4304
15369SOL    HW258167   8.881   2.597   9.043  0.1752  1.5558  0.6460
15370SOL     OW58168   9.654   4.121   7.633  0.1297 -0.1008 -0.3497
15370SOL    HW158169   9.684   4.028   7.617 -0.7654 -0.6100  0.8420
15370SOL    HW258170   9.697   4.156   7.717 -0.7310 -0.0031  0.0583
15371SOL     OW58171   3.701   7.007   9.077 -0.0225  0.0924  0.2350
15371SOL    HW158172   3.684   7.095   9.034  0.5758 -0.1547 -0.5186
15371SOL    HW258173   3.615   6.956   9.085 -0.0996  0.0367 -0.9004
15372SOL     OW58174   1.543   1.818   5.892 -0.2091  0.1622  0.0052
15372SOL    HW158175   1.492   1.734   5.907 -1.3391  0.7737 -0.3955
15372SOL    HW258176   1.487   1.897   5.918 -0.0212  0.9127 -1.7913
15373SOL     OW58177   4.040   0.835   6.608  0.1383  0.2193 -0.4158
15373SOL    HW158178   4.071   0.741   6.621  0.4372  0.1662 -1.4040
15373SOL    HW258179   4.110   0.898   6.642 -0.6866  0.0883  1.5568
15374SOL     OW58180   6.770   8.835   6.885  0.2273 -0.2710 -0.5427
15374SOL    HW158181   6.705   8.839   6.809  0.7896 -0.7012 -1.0530
15374SOL    HW258182   6.733   8.777   6.958  0.6126 -1.6199 -1.3999
15375SOL     OW58183   5.125   2.704   1.932 -0.4411 -0.4060  0.0965
15375SOL    HW158184   5.038   2.670   1.895 -0.5121 -1.4533  1.2068
15375SOL    HW258185   5.143   2.795   1.895 -2.1754 -0.0398  0.1050
15376SOL     OW58186   0.040   7.064   5.413 -0.2221 -0.6139 -0.0031
15376SOL    HW158187   0.109   7.068   5.486 -1.0181 -0.8767  0.7744
15376SOL    HW258188   0.027   7.156   5.375  0.8978 -0.6488 -0.4788
15377SOL     OW58189   7.323   6.535   3.766 -0.2345  0.0173  0.1543
15377SOL    HW158190   7.416   6.546   3.732  0.1654 -2.6829  0.2429
15377SOL    HW258191   7.306   6.600   3.840  1.1332  1.3601 -0.6802
15378SOL     OW58192   5.503   8.857   5.886 -0.3935 -0.3584 -0.6831
15378SOL    HW158193   5.525   8.885   5.979 -0.7444  1.9557 -1.2432
15378SOL    HW258194   5.410   8.818   5.883 -0.6001  0.0875 -0.1541
15379SOL     OW58195   0.753   4.339   4.422  0.0884 -0.0230  0.1922
15379SOL    HW158196   0.826   4.312   4.484 -1.2653 -0.6392  1.5547
15379SOL    HW258197   0.791   4.390   4.344  2.0350 -1.1059  0.4265
15380SOL     OW58198   5.172   6.416   3.414  0.3272 -0.2740  0.0014
15380SOL    HW158199   5.255   6.455   3.374  0.4248 -0.8140 -0.3346
15380SOL    HW258200   5.097   6.422   3.348  0.7814 -2.2178 -0.7155
15381SOL     OW58201   0.309   0.433   0.066 -0.5700 -0.6395  0.5351
15381SOL    HW158202   0.220   0.411   0.028 -0.1233  0.1496 -1.0011
15381SOL    HW258203   0.328   0.531   0.052  0.2912 -0.6789  1.3644
15382SOL     OW58204   4.932   7.644   3.389 -0.3580 -0.4053  0.0435
15382SOL    HW158205   5.009   7.628   3.450 -0.4814  0.4118  0.4206
15382SOL    HW258206   4.954   7.609   3.298  0.6378  0.2135  0.0385
15383SOL     OW58207   1.150   7.641   4.375 -0.0103  0.0543  0.2313
15383SOL    HW158208   1.198   7.593   4.302 -0.0801  1.2536 -0.5968
15383SOL    HW258209   1.162   7.590   4.461  0.2874 -1.2109 -0.5452
15384SOL     OW58210   1.210   2.602   6.372  0.3544  0.0313  0.2952
15384SOL    HW158211   1.160   2.688   6.382 -0.1458 -0.2184 -0.0026
15384SOL    HW258212   1.292   2.617   6.317 -0.6583 -0.0268 -1.2545
15385SOL     OW58213   6.998   6.782   5.918 -0.1283 -0.0241 -0.1084
15385SOL    HW158214   6.927   6.722   5.883 -0.8157  0.9636 -0.4132
15385SOL    HW258215   7.072   6.791   5.851 -1.6507  2.2259 -1.5477
15386SOL     OW58216   4.918   0.986   1.620 -0.2873  0.2665  0.4721
15386SOL    HW158217   4.876   1.069   1.584  1.1325  0.4258 -0.9047
15386SOL    HW258218   4.934   0.922   1.545 -1.4947 -1.3261  1.5454
15387SOL     OW58219   2.758   9.993   9.265  0.2446 -0.3145  0.5310
15387SOL    HW158220   2.753   9.893   9.266 -2.2242 -0.3102 -2.0513
15387SOL    HW258221   2.801  10.023   9.180 -3.1034  0.8132 -0.8596
15388SOL     OW58222   1.309   3.408  10.023  0.1542  0.0069  0.4881
15388SOL    HW158223   1.213   3.418   9.998 -0.5741 -0.8724  2.8202
15388SOL    HW258224   1.344   3.320   9.990 -0.7522 -1.0746  2.3385
15389SOL     OW58225   0.786   3.822   8.632  0.4881  0.2609 -0.1116
15389SOL    HW158226   0.842   3.803   8.712  0.9556  0.0811 -0.4775
15389SOL    HW258227   0.696   3.854   8.661  0.6175  0.0917  0.4852
15390SOL     OW58228   2.925   3.240   3.405  0.5669  0.0665 -0.8296
15390SOL    HW158229   2.974   3.171   3.459  1.3415  1.4475  0.2845
15390SOL    HW258230   2.849   3.277   3.460  1.1343  1.2220 -0.8149
15391SOL     OW58231   6.728   0.276   3.768 -0.0758  0.5594  0.3458
15391SOL    HW158232   6.826   0.262   3.751 -0.4664  0.3846 -1.9132
15391SOL    HW258233   6.678   0.265   3.682 -2.4469 -2.2963  2.0292
15392SOL     OW58234   6.443   4.531   1.547  0.4733 -0.4036  0.5259
15392SOL    HW158235   6.498   4.607   1.581  1.3769 -1.2652  1.0340
15392SOL    HW258236   6.348   4.543   1.576  0.4268  0.9819 -0.1605
15393SOL     OW58237   1.982   8.467   9.824  0.3165 -0.4968 -0.0397
15393SOL    HW158238   1.927   8.395   9.782  1.4445 -1.4059  0.0132
15393SOL    HW258239   2.069   8.475   9.776  0.0843  1.0327 -0.2149
15394SOL     OW58240   8.987   9.147   0.526 -0.7524 -0.2062  0.3924
15394SOL    HW158241   8.926   9.224   0.508  0.2578  0.4561 -0.2193
15394SOL    HW258242   8.987   9.085   0.448 -0.3946 -0.0493  0.2715
15395SOL     OW58243   3.923   7.923  10.044  0.0671 -0.4600 -0.4087
15395SOL    HW158244   3.984   7.921  10.122 -0.1788 -1.4782 -0.2390
15395SOL    HW258245   3.836   7.964  10.071  0.8126  1.3807 -0.7604
15396SOL     OW58246   1.510   5.211   0.254 -0.3781 -0.1682 -0.1030
15396SOL    HW158247   1.522   5.118   0.217 -0.7394  0.1439 -1.0191
15396SOL    HW258248   1.413   5.228   0.268 -0.2107 -0.4534  1.4589
15397SOL     OW58249   0.383   7.219   2.890  0.4294  0.3001 -0.3287
15397SOL    HW158250   0.461   7.179   2.841  0.8921 -0.9908  1.4327
15397SOL    HW258251   0.298   7.187   2.848  0.8200 -1.0691 -0.1242
15398SOL     OW58252   1.634   4.401   4.540 -0.1239 -0.4377 -0.1710
15398SOL    HW158253   1.652   4.335   4.467 -0.7742 -1.1286  0.2775
15398SOL    HW258254   1.536   4.422   4.543 -0.0742 -0.2610  0.3703
15399SOL     OW58255   4.190   6.708   9.042 -0.5383 -0.4734  0.1827
15399SOL    HW158256   4.199   6.664   9.132  0.0056  0.2131  0.4663
15399SOL    HW258257   4.219   6.645   8.971  1.4099 -0.1583  0.6795
15400SOL     OW58258   2.467   7.648   8.477  0.4291 -0.1729 -0.1540
15400SOL    HW158259   2.407   7.599   8.414  0.7669  0.5605 -1.0529
15400SOL    HW258260   2.498   7.585   8.549 -1.4191 -0.5537  0.3316
15401SOL     OW58261   2.491   7.399   0.729  0.2170 -0.1146 -0.2375
15401SOL    HW158262   2.485   7.344   0.812  0.3631  1.2079  0.6675
15401SOL    HW258263   2.580   7.444   0.725 -0.1562  0.5983 -0.6134
15402SOL     OW58264   9.084   5.727   3.045  0.0915  0.0631 -0.4696
15402SOL    HW158265   9.115   5.650   2.989 -0.5425 -0.4794 -0.0770
15402SOL    HW258266   9.090   5.703   3.142  0.4959  0.7431 -0.3144
15403SOL     OW58267   2.560   6.180   3.564  0.4455 -0.0251  0.2327
15403SOL    HW158268   2.511   6.162   3.479  1.4705 -1.0291 -0.1540
15403SOL    HW258269   2.656   6.155   3.553  0.5860 -0.1420  1.6775
15404SOL     OW58270   8.823   7.016   1.035  0.6138 -0.6032 -0.0941
15404SOL    HW158271   8.844   7.013   0.937  0.0258 -1.8010 -0.2017
15404SOL    HW258272   8.875   7.089   1.078  0.4411  0.3142 -1.4062
15405SOL     OW58273   0.032   2.196   6.513  0.3938 -0.1953  0.9098
15405SOL    HW158274   0.025   2.230   6.419 -1.0361 -1.0581  0.6899
15405SOL    HW258275   0.107   2.243   6.560  1.2946  0.0426 -0.7368
15406SOL     OW58276   0.872   5.116   5.648 -0.0050 -0.5809  0.0712
15406SOL    HW158277   0.802   5.187   5.639  0.8133  0.1669 -0.4609
15406SOL    HW258278   0.837   5.030   5.612 -0.7263 -0.2609 -0.0046
15407SOL     OW58279   9.142   8.957   7.288  0.2584  0.0873 -0.2778
15407SOL    HW158280   9.223   8.941   7.232  0.0042 -1.4855 -0.2448
15407SOL    HW258281   9.068   8.897   7.256 -0.7093  1.1002  0.0511
15408SOL     OW58282   1.683   9.504   9.865 -0.0588  0.4561  1.0349
15408SOL    HW158283   1.770   9.469   9.829 -1.1318 -1.8045  0.5616
15408SOL    HW258284   1.665   9.594   9.827  1.9022  0.7906  0.8511
15409SOL     OW58285   7.182   2.966   1.579  0.2701 -0.1117  0.0976
15409SOL    HW158286   7.225   2.898   1.519 -0.6838 -1.4988  0.9721
15409SOL    HW258287   7.083   2.953   1.579  0.1994  0.3518  1.4008
15410SOL     OW58288   3.824   3.241   2.613 -0.8390  0.4562  0.0742
15410SOL    HW158289   3.782   3.233   2.523 -1.8819 -0.3527  0.6185
15410SOL    HW258290   3.753   3.238   2.684 -0.0299  0.9746  0.9287
15411SOL     OW58291   8.788   6.296   0.683 -0.7814 -0.1057 -0.1373
15411SOL    HW158292   8.743   6.208   0.690  2.6547 -2.0046 -0.9097
15411SOL    HW258293   8.852   6.295   0.605  1.2565  2.1345  1.4192
15412SOL     OW58294   3.868   1.045   9.543  0.4207 -0.2416  0.0272
15412SOL    HW158295   3.824   1.032   9.454  1.4445  0.5816 -0.6008
15412SOL    HW258296   3.825   0.984   9.610 -1.9802  0.8571 -0.4563
15413SOL     OW58297   1.609   2.292   6.963 -0.7430  0.1179  0.1735
15413SOL    HW158298   1.636   2.229   6.890 -1.4736  0.2697 -0.2382
15413SOL    HW258299   1.583   2.241   7.044  3.2334  0.0147  1.4972
15414SOL     OW58300   1.635   6.624   8.139  0.1695 -0.5511  0.0989
15414SOL    HW158301   1.604   6.709   8.096 -1.6391 -1.1276  0.2362
15414SOL    HW258302   1.667   6.644   8.232 -2.7682 -0.4078  1.1044
15415SOL     OW58303   7.826   6.025   6.328  0.2778 -0.0380 -0.2158
15415SOL    HW158304   7.814   6.119   6.295  0.2563 -0.2806 -0.9192
15415SOL    HW258305   7.739   5.992   6.364  0.6937  0.7917  1.6078
15416SOL     OW58306   1.972   5.357   0.503  0.2370  0.1344  0.3336
15416SOL    HW158307   1.909   5.299   0.451  0.7612 -1.8276  1.8279
15416SOL    HW258308   1.928   5.445   0.522 -1.4035 -0.5603 -0.1346
15417SOL     OW58309   6.659   3.686   8.818 -0.1975  0.2076 -0.0725
15417SOL    HW158310   6.756   3.664   8.803 -0.0569  1.0396 -0.4120
15417SOL    HW258311   6.609   3.678   8.732 -0.3770  0.0512  0.0468
15418SOL     OW58312   2.877   5.231   9.039 -0.1047 -0.2858  0.6554
15418SOL    HW158313   2.777   5.232   9.040 -0.1119  1.5895  1.3857
15418SOL    HW258314   2.909   5.154   8.984 -1.9332 -1.6852  1.4468
15419SOL     OW58315   8.058   5.680   8.291  0.2751 -0.0051  0.1747
15419SOL    HW158316   8.104   5.619   8.227  1.8559  1.3266  0.0003
15419SOL    HW258317   8.007   5.750   8.240  2.1914  1.5444  0.3134
15420SOL     OW58318   1.828   4.541   4.658  0.3530 -0.3696  0.0536
15420SOL    HW158319   1.839   4.634   4.623  0.8748  0.8859  3.4347
15420SOL    HW258320   1.747   4.500   4.616 -0.1619  1.7545 -1.1299
15421SOL     OW58321   7.202   3.464   9.427 -0.2433  0.3420 -0.5091
15421SOL    HW158322   7.229   3.452   9.332 -0.5763  3.8245 -1.1137
15421SOL    HW258323   7.105   3.485   9.432 -0.5259 -1.1509  0.7530
15422SOL     OW58324   2.231   3.929   3.532 -0.3111 -0.0353  0.6841
15422SOL    HW158325   2.197   4.012   3.487  0.8686 -0.4172 -0.9345
15422SOL    HW258326   2.157   3.862   3.537 -1.0265  0.7821  1.2108
15423SOL     OW58327   3.336   1.668   1.247 -0.1948 -0.3077 -0.2082
15423SOL    HW158328   3.295   1.618   1.322 -0.4908 -0.4138 -0.4406
15423SOL    HW258329   3.431   1.691   1.270 -0.3282 -0.2176  0.2501
15424SOL     OW58330   2.898   7.073   9.471 -0.0131 -0.2551  0.0360
15424SOL    HW158331   2.928   7.159   9.512 -0.4626  0.7157 -1.6196
15424SOL    HW258332   2.978   7.016   9.451  0.2729 -0.3287  1.3348
15425SOL     OW58333   5.799   1.793   2.154 -0.4627 -0.2028  0.2183
15425SOL    HW158334   5.879   1.848   2.129 -1.5097  1.6202  0.7546
15425SOL    HW258335   5.829   1.710   2.201  1.0853  0.9776  1.3669
15426SOL     OW58336   0.327   8.529   4.517 -0.6581  0.4405  0.2659
15426SOL    HW158337   0.367   8.475   4.443  0.6038  1.5952  0.0842
15426SOL    HW258338   0.325   8.475   4.601 -1.3147 -0.5876 -0.3968
15427SOL     OW58339   2.825   8.391  10.025 -0.1372 -0.2828 -0.7541
15427SOL    HW158340   2.744   8.370  10.080  1.0476 -0.5306  0.9541
15427SOL    HW258341   2.839   8.319   9.957 -0.9081 -0.6340 -0.5476
15428SOL     OW58342   9.256   0.600   5.120 -0.0231  0.2751 -0.4588
15428SOL    HW158343   9.156   0.593   5.125  0.1751 -1.9872  1.0307
15428SOL    HW258344   9.283   0.695   5.135 -1.9218  0.8197 -0.3225
15429SOL     OW58345   4.118   3.922   9.771 -0.7884  0.0303 -0.1411
15429SOL    HW158346   4.161   4.012   9.763 -0.9879  0.0825 -0.6420
15429SOL    HW258347   4.182   3.851   9.744 -0.3814 -0.0329  0.9912
15430SOL     OW58348   6.149   1.199   7.196 -0.4731  0.0285 -0.8315
15430SOL    HW158349   6.100   1.130   7.144 -2.8238  1.0885 -0.0872
15430SOL    HW258350   6.160   1.167   7.290  0.3469 -0.2365 -1.0137
15431SOL     OW58351   9.036   7.778   7.173  0.4227 -0.2483  0.0873
15431SOL    HW158352   9.105   7.711   7.145  0.3095 -0.7907  1.0860
15431SOL    HW258353   9.041   7.858   7.113 -0.0795 -1.5348 -1.6957
15432SOL     OW58354   1.982   0.349   7.216  0.4829 -0.1326  0.1745
15432SOL    HW158355   2.062   0.310   7.262 -0.2696  1.8908  3.3624
15432SOL    HW258356   1.971   0.445   7.244 -2.4381 -0.0550 -1.0562
15433SOL     OW58357   1.333   3.149   9.970  0.0157 -0.5177  0.3724
15433SOL    HW158358   1.305   3.068  10.021  0.0406 -1.3705 -0.9280
15433SOL    HW258359   1.414   3.127   9.914 -1.5487 -0.3897 -2.0340
15434SOL     OW58360   7.918   4.739   6.815  0.0619  0.1316 -0.2109
15434SOL    HW158361   7.996   4.781   6.860  0.2837  0.3422 -0.8009
15434SOL    HW258362   7.867   4.808   6.764 -1.6279  0.3888  1.7431
15435SOL     OW58363   2.458   2.470   1.671  0.4864 -0.2528 -0.4563
15435SOL    HW158364   2.441   2.418   1.755 -0.1283  0.1735 -0.3210
15435SOL    HW258365   2.397   2.549   1.667  1.3691  0.4192 -0.7072
15436SOL     OW58366   4.732   9.968   0.296 -0.6451  0.0806  0.5158
15436SOL    HW158367   4.806   9.906   0.271 -1.7248 -1.4394  0.9949
15436SOL    HW258368   4.770  10.056   0.325  0.9135 -0.3930 -0.0665
15437SOL     OW58369   6.261   0.739   5.598 -0.3162  0.7575  0.2854
15437SOL    HW158370   6.272   0.644   5.625  0.2259  0.5689 -0.5660
15437SOL    HW258371   6.346   0.789   5.617 -0.2105  0.8072 -0.3050
15438SOL     OW58372   7.494   1.547   6.738  0.6612 -0.4880 -0.4904
15438SOL    HW158373   7.474   1.523   6.643 -1.4306  0.0796 -0.2172
15438SOL    HW258374   7.432   1.498   6.799  1.3548 -0.1151  0.5339
15439SOL     OW58375   5.330   3.547   8.766 -0.1562  0.6471 -0.2549
15439SOL    HW158376   5.407   3.566   8.828  0.4939  2.9484 -1.6867
15439SOL    HW258377   5.245   3.550   8.818  0.6328 -1.1319  1.2015
15440SOL     OW58378   2.443   8.601   4.999  0.3170  0.3138 -0.3002
15440SOL    HW158379   2.423   8.696   5.023 -0.0972  0.7175 -2.1512
15440SOL    HW258380   2.518   8.568   5.056 -0.3185  1.3559  1.1853
15441SOL     OW58381   4.893   1.254   7.565 -0.0380 -0.5856  0.4062
15441SOL    HW158382   4.953   1.333   7.573 -0.3363 -0.1069 -1.8209
15441SOL    HW258383   4.929   1.191   7.496 -1.2849 -1.0387  0.1440
15442SOL     OW58384   0.110   6.361   7.541 -0.4340  0.3913  0.7414
15442SOL    HW158385   0.138   6.384   7.634 -2.1693  0.6720  1.1976
15442SOL    HW258386   0.143   6.431   7.478 -0.4956  0.9447  1.3252
15443SOL     OW58387   5.303   3.972   1.912  0.0487 -0.1436  0.0694
15443SOL    HW158388   5.356   4.024   1.979  1.8289 -0.9788 -0.6650
15443SOL    HW258389   5.272   3.886   1.954 -0.5621  0.2602  0.4439
15444SOL     OW58390   7.793   8.083   8.707 -0.2985  0.5018  1.1291
15444SOL    HW158391   7.698   8.089   8.677  0.2553  0.1330 -0.8135
15444SOL    HW258392   7.797   8.050   8.801 -2.1659  2.9297  2.1012
15445SOL     OW58393   9.754   3.787   6.637  0.2893  0.7786  0.4132
15445SOL    HW158394   9.654   3.794   6.628  0.1328 -1.4801  0.3257
15445SOL    HW258395   9.795   3.875   6.613 -1.3344  0.3647 -4.2664
15446SOL     OW58396   5.010   2.987   9.575 -0.1288 -0.1408 -0.6559
15446SOL    HW158397   5.033   3.049   9.499 -0.5940 -0.2683 -0.9002
15446SOL    HW258398   4.911   2.972   9.577  0.1014 -1.7190 -1.2360
15447SOL     OW58399   8.372   4.483   3.081  0.2530 -0.5691 -0.3203
15447SOL    HW158400   8.285   4.521   3.049 -0.6473 -2.9074 -0.7778
15447SOL    HW258401   8.357   4.432   3.166  1.3847 -0.0776  0.1822
15448SOL     OW58402   3.366   9.459   8.946  0.4198  0.1663 -0.1507
15448SOL    HW158403   3.308   9.534   8.978 -2.3955 -1.9565 -0.0857
15448SOL    HW258404   3.433   9.438   9.016 -0.5996  0.7721  1.0348
15449SOL     OW58405   7.816   4.982   3.698  0.6280 -0.2401  0.1841
15449SOL    HW158406   7.806   4.890   3.737  0.7686  0.3074  1.5207
15449SOL    HW258407   7.852   4.974   3.605 -0.1036 -1.5799  0.0013
15450SOL     OW58408   3.846   2.667   3.265 -0.5257 -0.0973  0.5733
15450SOL    HW158409   3.789   2.647   3.185  0.6627 -0.8527 -0.0963
15450SOL    HW258410   3.882   2.760   3.258 -0.2084 -0.2563  0.0999
15451SOL     OW58411   7.325   2.339   8.906  0.2694 -0.1019 -0.2956
15451SOL    HW158412   7.325   2.246   8.870  0.7377 -1.2611  2.5301
15451SOL    HW258413   7.419   2.374   8.907  0.0244  0.6240 -1.8580
15452SOL     OW58414   3.669   2.573   3.676 -0.6758  0.2619  0.1244
15452SOL    HW158415   3.729   2.537   3.604 -0.9846  2.7382 -1.4198
15452SOL    HW258416   3.596   2.508   3.694  0.7726 -1.4648 -0.0693
15453SOL     OW58417   2.515   5.156   6.019  0.0172 -0.2460  0.1054
15453SOL    HW158418   2.418   5.131   6.020  0.1143 -0.9236 -2.7974
15453SOL    HW258419   2.570   5.073   6.031  0.2513  0.0290  0.9415
15454SOL     OW58420   3.620   7.086   1.369  0.3446  0.2036 -0.8432
15454SOL    HW158421   3.599   7.131   1.456 -0.9734 -1.7894 -0.1089
15454SOL    HW258422   3.566   7.128   1.296 -0.4291  0.2251 -0.2623
15455SOL     OW58423   4.675   5.941   2.102 -0.0991 -0.4965 -0.3152
15455SOL    HW158424   4.722   5.927   2.188  2.6486 -2.4059 -2.0627
15455SOL    HW258425   4.727   6.006   2.045 -1.0857 -0.4106 -1.1505
15456SOL     OW58426   5.881   0.998   1.836  0.8614 -0.0689  0.3633
15456SOL    HW158427   5.893   0.900   1.824  2.4370  0.1627 -0.1664
15456SOL    HW258428   5.895   1.044   1.748 -4.4826  0.2867 -0.4351
15457SOL     OW58429   1.973   4.224   4.292  0.0657  0.2337 -0.2824
15457SOL    HW158430   2.001   4.312   4.329  2.7289 -0.4200 -0.6289
15457SOL    HW258431   2.026   4.203   4.210 -0.1097 -1.9313  0.1104
15458SOL     OW58432   5.864   9.654   4.901 -0.3123 -0.2268 -0.1710
15458SOL    HW158433   5.824   9.565   4.878  0.4597 -0.3105 -1.2020
15458SOL    HW258434   5.953   9.640   4.945  0.8636  0.0859 -2.4088
15459SOL     OW58435   7.165   4.827   7.958  0.4681  0.2065  0.0182
15459SOL    HW158436   7.152   4.919   7.995 -1.3667  0.0388 -0.1779
15459SOL    HW258437   7.141   4.759   8.028  0.9428 -0.1277 -0.1385
15460SOL     OW58438   3.111   3.439   4.825 -0.2638 -0.1519  0.2937
15460SOL    HW158439   3.197   3.395   4.799  0.0869 -0.1376  1.3868
15460SOL    HW258440   3.035   3.376   4.809  0.1310 -0.7819  0.8807
15461SOL     OW58441   7.015   1.361   1.150 -0.4321 -0.1339 -0.2973
15461SOL    HW158442   6.999   1.439   1.090 -0.8385  0.7135  0.8845
15461SOL    HW258443   6.957   1.370   1.232 -0.2386 -1.5010 -0.0024
15462SOL     OW58444   6.877   4.070   1.214 -0.7589 -0.2201  0.3532
15462SOL    HW158445   6.886   4.132   1.136 -2.1039 -0.1106  0.2635
15462SOL    HW258446   6.879   4.122   1.299  2.3243 -0.5080  0.4826
15463SOL     OW58447   5.599   7.378   7.491 -0.3739 -0.4911 -0.4922
15463SOL    HW158448   5.658   7.389   7.411 -0.0046  0.2603 -0.1192
15463SOL    HW258449   5.525   7.315   7.469 -0.9268  0.5797 -1.8048
15464SOL     OW58450   3.093   4.321   7.444  0.1334  0.8933 -0.4529
15464SOL    HW158451   3.115   4.225   7.428  1.0096  1.3214 -1.9545
15464SOL    HW258452   3.112   4.344   7.539 -0.3010 -0.4702 -0.0209
15465SOL     OW58453   2.244   3.429   8.634  0.5004 -0.4425  0.8756
15465SOL    HW158454   2.282   3.338   8.644 -2.3816 -1.8239 -0.1786
15465SOL    HW258455   2.166   3.440   8.696  0.0240  0.8360  0.0864
15466SOL     OW58456   7.780   8.209   4.025  0.0498 -0.1915 -0.2158
15466SOL    HW158457   7.863   8.170   3.983 -0.4475 -0.8651 -0.5877
15466SOL    HW258458   7.806   8.265   4.104  0.8121 -0.9642  0.0954
15467SOL     OW58459   7.237   9.755   9.542 -0.0658 -0.5643  0.7473
15467SOL    HW158460   7.264   9.662   9.517  0.5981  0.4414 -2.5881
15467SOL    HW258461   7.317   9.804   9.577 -0.5084 -1.3283  2.9012
15468SOL     OW58462   3.934   0.686   4.794 -0.0651 -0.2654 -0.3521
15468SOL    HW158463   3.861   0.661   4.858 -0.4549 -2.0652 -1.4558
15468SOL    HW258464   4.001   0.744   4.840 -0.6633 -1.0101  1.5057
15469SOL     OW58465   9.468   2.226   7.052 -0.2275  0.3767 -0.3031
15469SOL    HW158466   9.567   2.240   7.054  0.0692 -1.6099  0.5209
15469SOL    HW258467   9.443   2.159   7.121 -2.3672  1.9993  0.5455
15470SOL     OW58468   9.929   5.571   1.532  0.2666  0.4172  0.3475
15470SOL    HW158469  10.007   5.519   1.497 -0.0317  1.8592 -2.5788
15470SOL    HW258470   9.887   5.521   1.608  2.2948 -1.7346  0.1054
15471SOL     OW58471   1.152   5.058   2.785  0.2797  0.0059  0.5841
15471SOL    HW158472   1.205   5.019   2.860  0.1505 -0.7214  0.3007
15471SOL    HW258473   1.184   5.151   2.766  1.9276 -0.6708 -0.0427
15472SOL     OW58474   2.788   1.917   7.963 -0.5838 -0.3502  0.1425
15472SOL    HW158475   2.860   1.854   7.936 -0.4394 -0.2206  0.2235
15472SOL    HW258476   2.814   1.962   8.048 -1.2900 -1.1700  0.7967
15473SOL     OW58477   5.740   9.413   4.832  0.2237  0.1072 -0.0671
15473SOL    HW158478   5.763   9.325   4.790 -0.1097  0.1831 -0.4089
15473SOL    HW258479   5.683   9.397   4.913  1.6333 -0.0975  0.9047
15474SOL     OW58480   0.361   2.934   0.728 -0.2925 -0.1112 -0.1725
15474SOL    HW158481   0.262   2.946   0.724 -0.5183 -0.7052  2.5110
15474SOL    HW258482   0.395   2.901   0.640 -2.5166 -0.2048 -1.0133
15475SOL     OW58483   7.841   3.776   5.714 -0.1177  0.1363 -0.9147
15475SOL    HW158484   7.924   3.759   5.768  0.7345 -2.8501 -3.0858
15475SOL    HW258485   7.844   3.870   5.678  2.1803  0.1602 -0.7438
15476SOL     OW58486   9.363   7.076   5.316  0.6992 -0.0091  0.5416
15476SOL    HW158487   9.294   7.005   5.304  1.3610 -0.6406  0.4268
15476SOL    HW258488   9.448   7.034   5.348  0.6383  0.9279  1.9552
15477SOL     OW58489   8.738   6.102   1.238 -0.5043  0.5416 -0.1191
15477SOL    HW158490   8.830   6.106   1.277 -0.1073 -1.8262 -0.7313
15477SOL    HW258491   8.727   6.177   1.172  1.2868  0.3297 -0.6975
15478SOL     OW58492   3.674   5.273   1.895 -0.1829 -0.0223 -0.1692
15478SOL    HW158493   3.749   5.231   1.843  0.4635  0.2722  0.5127
15478SOL    HW258494   3.615   5.324   1.833 -0.2886 -0.9360 -0.8335
15479SOL     OW58495   7.662   9.660   9.967 -0.2961  0.4815 -0.3249
15479SOL    HW158496   7.659   9.580  10.027 -1.1700  0.3258 -0.5635
15479SOL    HW258497   7.755   9.672   9.931  0.1840  0.4622  0.8986
15480SOL     OW58498   0.232   6.743   7.950  0.3776 -0.3240 -0.0602
15480SOL    HW158499   0.142   6.704   7.972 -0.5033  0.7438 -1.5953
15480SOL    HW258500   0.219   6.831   7.903  2.1726 -1.1600 -2.2063
15481SOL     OW58501   9.746   1.406   7.516 -0.0744  0.4906 -0.4699
15481SOL    HW158502   9.690   1.354   7.452  1.2709 -1.2772 -0.2482
15481SOL    HW258503   9.843   1.392   7.495  0.3802  0.3372  1.5831
15482SOL     OW58504   3.804   5.482   1.467  0.5766  0.4023  0.3558
15482SOL    HW158505   3.845   5.537   1.539  1.2717  2.1448 -1.3184
15482SOL    HW258506   3.774   5.542   1.392 -0.7988 -1.2885 -0.4773
15483SOL     OW58507   5.066   0.667   5.880 -0.3166 -0.5817 -0.0778
15483SOL    HW158508   4.990   0.717   5.920 -0.0134  1.0587 -1.4655
15483SOL    HW258509   5.079   0.697   5.785 -0.1357 -3.3334 -0.9534
15484SOL     OW58510   8.145   4.778   4.678 -0.1939  0.2149  0.3077
15484SOL    HW158511   8.164   4.874   4.698  1.3588 -0.0108  0.0130
15484SOL    HW258512   8.131   4.728   4.764  0.5044  0.4154  0.5414
15485SOL     OW58513   1.958   2.388   8.668  0.1389  0.4777  0.1437
15485SOL    HW158514   1.957   2.318   8.596 -2.2662 -0.1274  0.6875
15485SOL    HW258515   1.955   2.479   8.627 -0.9308  0.1431 -0.5445
15486SOL     OW58516   3.533   3.719   4.523  0.2090 -0.8399  0.3207
15486SOL    HW158517   3.534   3.620   4.538  0.0150 -1.2803 -2.2779
15486SOL    HW258518   3.608   3.762   4.573  0.8378 -2.4220  0.7456
15487SOL     OW58519   8.459   1.396   5.998 -0.4649  0.4722 -0.3595
15487SOL    HW158520   8.430   1.484   5.961 -1.9457  0.8679  1.6573
15487SOL    HW258521   8.382   1.332   5.998  0.1628 -0.2985 -0.2343
15488SOL     OW58522   8.926   1.182   1.195 -0.1123 -0.1459  0.4048
15488SOL    HW158523   8.846   1.157   1.141 -1.1760  1.2197  1.3011
15488SOL    HW258524   8.926   1.132   1.282  0.2564 -0.4872  0.2095
15489SOL     OW58525   1.398   7.402   1.929  0.2294 -0.2323 -0.1826
15489SOL    HW158526   1.493   7.380   1.905  0.5009  0.5634  0.1402
15489SOL    HW258527   1.338   7.328   1.899  1.0069 -0.9437 -0.0114
15490SOL     OW58528   0.244   0.836   3.988  0.3172  0.3314  0.2328
15490SOL    HW158529   0.303   0.758   4.008  0.1665 -0.0178 -0.6509
15490SOL    HW258530   0.148   0.808   3.996  0.2452 -0.0333 -1.7282
15491SOL     OW58531   0.700   7.478   9.519  0.5177  0.5708  0.1445
15491SOL    HW158532   0.708   7.522   9.609 -0.8931  0.3227  0.4100
15491SOL    HW258533   0.610   7.434   9.512 -0.1747  2.2579 -2.1130
15492SOL     OW58534   2.273   0.437   8.055 -0.2783 -0.2152 -0.1594
15492SOL    HW158535   2.206   0.372   8.019 -1.8439  0.8090  0.8287
15492SOL    HW258536   2.364   0.414   8.021 -0.9605 -2.2978 -0.6458
15493SOL     OW58537   0.330   2.047   8.577 -0.1405  0.8507 -0.0001
15493SOL    HW158538   0.425   2.024   8.555 -0.4020  0.5224 -0.7900
15493SOL    HW258539   0.327   2.089   8.668  0.8196  1.2979 -0.1619
15494SOL     OW58540   2.465   1.032   4.717  0.4359 -0.0097 -0.2133
15494SOL    HW158541   2.527   1.052   4.642  1.3057 -2.0771 -0.0864
15494SOL    HW258542   2.497   0.951   4.766 -0.6835  0.7058  1.7564
15495SOL     OW58543   5.936   9.309   8.769 -0.2842 -0.5125 -0.2773
15495SOL    HW158544   5.877   9.295   8.848 -0.3353 -0.3633 -0.2897
15495SOL    HW258545   5.886   9.286   8.685 -0.1344 -0.9603 -0.2458
15496SOL     OW58546   4.800   5.368   0.258 -0.0682 -0.5135 -0.2953
15496SOL    HW158547   4.762   5.432   0.192 -0.5803 -0.7528 -0.2387
15496SOL    HW258548   4.727   5.337   0.319  0.4281 -0.1770  0.4757
15497SOL     OW58549   0.588   7.027   6.162  0.2425 -0.3110  0.0477
15497SOL    HW158550   0.573   7.100   6.096 -3.0744 -1.7629 -0.9506
15497SOL    HW258551   0.627   6.947   6.116  0.9428 -0.2365  0.5023
15498SOL     OW58552   1.667   0.497   7.302 -0.2998  0.1583 -0.3203
15498SOL    HW158553   1.742   0.431   7.300  0.6925  1.2788  0.1132
15498SOL    HW258554   1.634   0.508   7.396 -0.4288  0.3316 -0.3851
15499SOL     OW58555   6.610   0.266   6.535 -0.0865  0.5523 -0.1963
15499SOL    HW158556   6.556   0.186   6.563 -0.2694  0.4711 -0.7812
15499SOL    HW258557   6.555   0.349   6.548 -1.0294  0.3236 -2.4878
15500SOL     OW58558   5.620   5.739   0.812 -0.2823  0.1539 -0.3217
15500SOL    HW158559   5.642   5.691   0.727  0.0147  0.5846 -0.4878
15500SOL    HW258560   5.703   5.745   0.869 -0.7426 -1.1472  0.5013
15501SOL     OW58561   2.236   1.500   9.251  0.5200  0.2024 -0.1915
15501SOL    HW158562   2.301   1.444   9.201 -0.1525 -0.6536 -0.1055
15501SOL    HW258563   2.252   1.490   9.350  2.2596  2.3743 -0.2080
15502SOL     OW58564   1.018   0.647   3.094  0.1009 -0.1454 -0.4494
15502SOL    HW158565   0.970   0.707   3.030  0.7035 -0.3069 -1.0654
15502SOL    HW258566   1.023   0.691   3.184 -1.5454 -0.3043 -0.2608
15503SOL     OW58567   3.048   2.065   2.684  0.2126 -0.3632 -0.5766
15503SOL    HW158568   3.036   2.072   2.783  0.1404 -0.5934 -0.5670
15503SOL    HW258569   3.005   2.143   2.639  0.8846  0.1161 -0.3796
15504SOL     OW58570   7.429   9.247   3.066  0.0302  0.2724 -0.3809
15504SOL    HW158571   7.404   9.158   3.026 -0.4308 -0.8604  2.3332
15504SOL    HW258572   7.501   9.289   3.010  2.4850 -3.2568 -0.0135
15505SOL     OW58573   4.133   9.648   7.982  0.3107  0.4072  0.3958
15505SOL    HW158574   4.124   9.551   7.958  0.6533 -0.3748  3.2118
15505SOL    HW258575   4.133   9.703   7.898  0.9918 -2.0805 -1.3202
15506SOL     OW58576   9.093   7.289   3.379 -0.3157 -0.0964  0.5788
15506SOL    HW158577   9.103   7.240   3.466  1.6793 -0.1435  0.3558
15506SOL    HW258578   9.091   7.222   3.304  1.0074  0.0613  0.3823
15507SOL     OW58579   2.724   1.503   3.112  0.0985  0.0994 -0.2089
15507SOL    HW158580   2.706   1.505   3.014  1.9069 -0.8709 -0.5948
15507SOL    HW258581   2.698   1.413   3.149  2.8368 -0.8912 -0.5514
15508SOL     OW58582   0.882   6.534   1.280 -0.2973  0.1780 -0.6414
15508SOL    HW158583   0.971   6.578   1.268 -0.3902  0.3889 -0.5644
15508SOL    HW258584   0.849   6.550   1.373  0.0701 -0.7988 -0.3327
15509SOL     OW58585   6.871   0.618   7.606 -0.7451 -0.7261  0.1188
15509SOL    HW158586   6.825   0.539   7.565 -1.2635  0.3065 -1.3823
15509SOL    HW258587   6.902   0.679   7.533 -0.3869  0.4631  1.2473
15510SOL     OW58588   3.768   9.274   3.541 -0.3279  0.6706  0.4088
15510SOL    HW158589   3.807   9.275   3.449 -0.6330  0.0273  0.2696
15510SOL    HW258590   3.818   9.339   3.599  1.0696 -0.2457  0.2708
15511SOL     OW58591   7.810   5.787   4.942  0.3186  0.0465  0.1614
15511SOL    HW158592   7.897   5.794   4.894 -0.0386 -2.1475 -0.8579
15511SOL    HW258593   7.738   5.829   4.887  0.0987 -1.4824 -0.7335
15512SOL     OW58594   0.320   8.829   6.638 -0.1874  0.0700 -0.0101
15512SOL    HW158595   0.411   8.866   6.655 -0.8580  0.9970  1.8194
15512SOL    HW258596   0.319   8.732   6.660  0.4369 -0.0022 -0.2939
15513SOL     OW58597   2.489   0.701   4.433  0.1966  0.0347  1.0231
15513SOL    HW158598   2.399   0.665   4.405  0.3345 -0.1268  0.7777
15513SOL    HW258599   2.484   0.734   4.527 -0.3183  0.7179  0.7572
15514SOL     OW58600   7.136   0.360   2.217  0.3969 -0.1023 -0.2577
15514SOL    HW158601   7.039   0.338   2.230 -0.2672  2.2011 -1.1249
15514SOL    HW258602   7.171   0.405   2.299  0.2378  0.7420 -0.6531
15515SOL     OW58603   9.254   0.391   5.415 -0.0896  0.6368  0.6875
15515SOL    HW158604   9.301   0.379   5.328 -0.7489  0.4902  0.3496
15515SOL    HW258605   9.190   0.467   5.409 -2.2150 -1.1435  0.1392
15516SOL     OW58606   9.450   0.505   7.568  0.2216 -0.8962  0.3064
15516SOL    HW158607   9.546   0.517   7.594  0.1689 -0.8381  0.4755
15516SOL    HW258608   9.415   0.589   7.527  0.2300 -0.9024  0.2854
15517SOL     OW58609   5.613   1.333   4.711  0.0762 -0.0519 -0.2044
15517SOL    HW158610   5.691   1.272   4.727  1.0268  0.7302 -1.7184
15517SOL    HW258611   5.642   1.428   4.722 -0.8978  0.2167  0.1298
15518SOL     OW58612   3.502   9.502   2.563  0.4190 -0.5005 -0.4619
15518SOL    HW158613   3.576   9.485   2.628 -1.3220 -1.8480  1.2320
15518SOL    HW258614   3.479   9.599   2.564 -0.7344 -0.7392  2.2881
15519SOL     OW58615   7.494   1.889   0.006  0.5729  0.2811  0.4784
15519SOL    HW158616   7.502   1.823   0.081 -0.8051  1.4061  1.6445
15519SOL    HW258617   7.508   1.981   0.042 -1.3148  0.9309 -0.4152
15520SOL     OW58618   7.751   6.249   6.824  0.1774 -0.1713  0.0171
15520SOL    HW158619   7.688   6.233   6.900 -0.8182 -0.7897 -0.9165
15520SOL    HW258620   7.833   6.194   6.837 -0.7405 -1.6396 -0.2166
15521SOL     OW58621   1.105   8.396   1.350  0.1015  0.3013 -0.4307
15521SOL    HW158622   1.180   8.341   1.313 -1.8257 -1.7319 -1.4800
15521SOL    HW258623   1.076   8.463   1.282  0.1857  0.2851 -0.4820
15522SOL     OW58624   2.524   7.774   1.355  0.1841  0.0692  0.0356
15522SOL    HW158625   2.470   7.733   1.429 -0.0074  1.0467  0.4366
15522SOL    HW258626   2.621   7.757   1.371  0.1511  0.3713  0.5663
15523SOL     OW58627   1.964   7.115   7.076  0.2766 -0.6209  0.1244
15523SOL    HW158628   1.868   7.140   7.062  0.5511  0.2041 -0.3727
15523SOL    HW258629   1.987   7.037   7.018 -0.0187 -0.6300  0.0198
15524SOL     OW58630   3.639   2.547   2.861 -0.4483 -0.2540  0.1413
15524SOL    HW158631   3.718   2.488   2.880 -0.4061 -0.8353 -1.7631
15524SOL    HW258632   3.558   2.506   2.903 -0.7358 -2.6373 -2.6117
15525SOL     OW58633   2.812   8.017   1.102 -0.3864  0.3342 -0.1195
15525SOL    HW158634   2.748   7.983   1.034  0.2680 -0.0828 -0.5380
15525SOL    HW258635   2.819   7.950   1.177  1.0415 -0.5726 -1.0327
15526SOL     OW58636   4.332   8.518   8.454 -0.1461 -0.0364  0.2812
15526SOL    HW158637   4.296   8.561   8.537  1.1761  2.2394 -0.2708
15526SOL    HW258638   4.424   8.482   8.472  0.3413  0.8876 -0.2896
15527SOL     OW58639   4.087   6.619   2.638  0.5362 -0.2269  0.0043
15527SOL    HW158640   3.998   6.663   2.646  1.2779  1.4302 -0.5668
15527SOL    HW258641   4.078   6.521   2.653 -1.3145 -0.0164  0.3143
15528SOL     OW58642   7.375   2.727   0.941 -0.4796 -0.4323 -0.1448
15528SOL    HW158643   7.434   2.781   0.881  0.0294 -0.3518  0.4302
15528SOL    HW258644   7.405   2.631   0.940 -1.3841 -0.7166 -1.1667
15529SOL     OW58645   8.703   8.912   4.386 -0.0261 -0.1688  0.0540
15529SOL    HW158646   8.718   8.820   4.423  0.1338 -0.3411 -0.4276
15529SOL    HW258647   8.605   8.925   4.367 -0.3025  0.4350  1.8639
15530SOL     OW58648   7.733   2.219   9.578 -0.7046  0.1726  0.3130
15530SOL    HW158649   7.717   2.146   9.644 -0.3016  0.1965  0.4376
15530SOL    HW258650   7.707   2.188   9.487 -1.7182  0.3026  0.5501
15531SOL     OW58651   3.794   2.776   2.890  0.4948  0.5381  0.5171
15531SOL    HW158652   3.735   2.721   2.831  1.9386  0.2389 -0.6811
15531SOL    HW258653   3.750   2.863   2.909 -0.7786 -0.0819  0.4859
15532SOL     OW58654   7.710   1.390   4.104 -0.1665 -0.1128 -0.2072
15532SOL    HW158655   7.781   1.457   4.083 -0.7906  0.3342 -0.9200
15532SOL    HW258656   7.729   1.347   4.192 -0.4984  1.9834  0.9086
15533SOL     OW58657   3.076   7.689   1.605  0.7420 -0.1958  0.3936
15533SOL    HW158658   3.158   7.746   1.596  0.9404 -0.4742  0.4462
15533SOL    HW258659   3.050   7.684   1.702 -0.1380  1.0260  0.2313
15534SOL     OW58660   0.842   4.747   8.841 -0.2218  0.0772  0.2987
15534SOL    HW158661   0.761   4.786   8.796 -0.1444 -1.0999 -0.8870
15534SOL    HW258662   0.916   4.737   8.775  0.4291 -0.2119  1.0571
15535SOL     OW58663   1.100   1.332   8.076  0.1675  0.5662 -0.2805
15535SOL    HW158664   1.114   1.260   8.008  0.3355 -1.3515  1.7060
15535SOL    HW258665   1.189   1.368   8.105  0.2081 -0.1401  0.4837
15536SOL     OW58666   0.830   5.729   5.316 -0.5180 -0.5580  0.1226
15536SOL    HW158667   0.789   5.693   5.399 -0.6380  0.1374  0.3671
15536SOL    HW258668   0.758   5.764   5.255 -0.3548 -0.0165  0.2321
15537SOL     OW58669   5.625   9.087   7.508 -0.4887 -0.3136 -0.1026
15537SOL    HW158670   5.615   9.097   7.607  1.7456  0.7998  0.0561
15537SOL    HW258671   5.603   9.174   7.464  0.6519 -0.1621 -0.3845
15538SOL     OW58672   2.729   2.592   6.927 -0.4638 -0.1466 -0.0135
15538SOL    HW158673   2.763   2.573   7.019  1.7235  0.7797 -0.6079
15538SOL    HW258674   2.681   2.680   6.926 -1.0546 -0.4624  0.3711
15539SOL     OW58675   2.237   9.222   3.202  0.0785  0.2829 -0.0276
15539SOL    HW158676   2.301   9.198   3.129  2.5671  0.0183  2.1436
15539SOL    HW258677   2.223   9.143   3.261 -0.3275  1.0312  0.9001
15540SOL     OW58678   3.261   8.476   0.802 -0.2999 -0.4903  0.5070
15540SOL    HW158679   3.170   8.504   0.832 -0.6543  0.5461 -1.4326
15540SOL    HW258680   3.252   8.413   0.725  0.6222  0.0432 -0.0445
15541SOL     OW58681   0.483   8.723   2.390 -0.3631  0.1237 -0.2524
15541SOL    HW158682   0.518   8.762   2.475  1.2772  1.4013 -1.4819
15541SOL    HW258683   0.499   8.625   2.389 -0.5112  0.0879  0.9781
15542SOL     OW58684   1.177   8.925   6.106 -0.1639  0.6698 -0.5576
15542SOL    HW158685   1.257   8.969   6.147 -0.0558  0.3232 -0.3924
15542SOL    HW258686   1.161   8.837   6.151 -1.2942  1.2292  0.1557
15543SOL     OW58687   3.711   7.035   4.889  0.1096  0.2490 -0.0963
15543SOL    HW158688   3.710   6.935   4.877  3.7055  0.1897 -0.4627
15543SOL    HW258689   3.787   7.061   4.949  0.1936  2.8736 -1.2634
15544SOL     OW58690   7.704   8.399   5.088  0.2888  0.1856  0.4898
15544SOL    HW158691   7.745   8.357   5.170  0.8058  2.0644  1.2321
15544SOL    HW258692   7.767   8.389   5.011 -0.1885 -1.5749  0.3226
15545SOL     OW58693   3.296   3.025   0.319 -0.4226  0.4128  0.1987
15545SOL    HW158694   3.347   2.942   0.298 -0.9237 -0.1170  1.0300
15545SOL    HW258695   3.219   3.003   0.379 -0.9409  1.3797 -0.0952
15546SOL     OW58696   6.606   8.283   7.296  0.2487  0.1603  0.1168
15546SOL    HW158697   6.671   8.334   7.353  0.1662 -0.0924  0.4393
15546SOL    HW258698   6.574   8.342   7.222  2.0383 -0.2045 -0.9847
15547SOL     OW58699   5.308   0.453   5.609  0.3787  0.3976  0.1598
15547SOL    HW158700   5.340   0.377   5.553 -1.5741  0.0990 -0.6135
15547SOL    HW258701   5.308   0.426   5.706  0.6915 -0.2236 -0.0155
15548SOL     OW58702   4.144   7.202   4.083 -0.2917 -0.7460  0.6412
15548SOL    HW158703   4.207   7.278   4.073  1.2368 -1.9459  0.9441
15548SOL    HW258704   4.050   7.237   4.092  0.2837  1.0310 -0.1246
15549SOL     OW58705   9.320   6.474   0.629 -0.1865 -0.4544  0.4170
15549SOL    HW158706   9.272   6.502   0.546  0.1871  0.3582  0.4739
15549SOL    HW258707   9.274   6.512   0.709  0.8315  0.7531  0.4456
15550SOL     OW58708   2.298   3.039   3.208  0.0065  0.4479 -0.6206
15550SOL    HW158709   2.263   3.000   3.122  1.4029 -0.1393 -0.9318
15550SOL    HW258710   2.310   3.138   3.198 -0.4080  0.4696 -0.9035
15551SOL     OW58711   1.496   7.509   0.637 -0.0018 -0.2506 -0.0183
15551SOL    HW158712   1.446   7.463   0.563 -0.2928 -0.3253  0.2244
15551SOL    HW258713   1.433   7.529   0.712  0.5830 -1.4841  0.8172
15552SOL     OW58714   8.306   0.539   1.613  0.2494  0.3250 -1.1579
15552SOL    HW158715   8.328   0.486   1.530 -1.9472 -2.9041  0.2156
15552SOL    HW258716   8.227   0.597   1.595 -0.7963 -1.0560 -1.1024
15553SOL     OW58717   8.435   3.668   6.264  0.6642  0.1650  0.2416
15553SOL    HW158718   8.393   3.600   6.204  3.2214 -0.2001 -1.2278
15553SOL    HW258719   8.409   3.759   6.234 -0.8702 -0.0884  0.7552
15554SOL     OW58720   2.435   4.581   7.183 -0.5842 -0.5859 -0.0420
15554SOL    HW158721   2.525   4.575   7.225 -0.2341  1.2552 -0.4927
15554SOL    HW258722   2.432   4.659   7.120 -2.0319 -1.5051 -1.1595
15555SOL     OW58723   4.606   1.015   6.352  0.5180  0.1703  0.0213
15555SOL    HW158724   4.669   0.987   6.425 -0.0902 -1.7990 -0.1877
15555SOL    HW258725   4.620   0.958   6.271  0.3516  1.5419 -0.9923
15556SOL     OW58726   0.315   0.691   8.996 -0.7245  0.0608  0.3289
15556SOL    HW158727   0.412   0.665   8.988 -0.6602  0.8955 -2.0183
15556SOL    HW258728   0.260   0.634   8.935 -1.3616  1.3283 -0.2912
15557SOL     OW58729   1.030   4.029   2.081 -0.3913 -0.3156  0.1590
15557SOL    HW158730   1.080   4.083   2.148 -1.7734 -1.2944  2.0258
15557SOL    HW258731   1.087   3.953   2.050 -0.1254 -0.4877  1.0476
15558SOL     OW58732   2.835   3.369   7.858 -0.1935  0.4574  0.1454
15558SOL    HW158733   2.837   3.457   7.810 -2.4158  0.2994 -0.2873
15558SOL    HW258734   2.926   3.349   7.894  0.9590  1.7555 -1.8916
15559SOL     OW58735   9.971   8.631   0.011  0.0064 -0.1750  1.0471
15559SOL    HW158736   9.893   8.639   0.073 -1.4164 -2.1673 -0.4357
15559SOL    HW258737   9.998   8.535   0.003  0.9209  0.1904 -0.4902
15560SOL     OW58738   0.455   2.512   5.827  0.9342  0.4705 -0.1611
15560SOL    HW158739   0.388   2.496   5.900 -0.8613  2.2082 -1.3733
15560SOL    HW258740   0.425   2.464   5.744  4.6745 -4.3544  1.0025
15561SOL     OW58741   1.087   2.481   2.511  0.1955 -0.3320  0.1742
15561SOL    HW158742   1.147   2.549   2.470  0.0758  0.7072  1.6489
15561SOL    HW258743   1.070   2.407   2.446 -0.2209  1.3816 -1.7237
15562SOL     OW58744   2.578   8.702   2.245 -0.1353 -0.4292 -0.4689
15562SOL    HW158745   2.494   8.737   2.205 -1.3656 -3.9494 -1.1455
15562SOL    HW258746   2.614   8.627   2.189  1.8035 -0.9689  1.4010
15563SOL     OW58747   2.710   7.784   6.838  0.1398 -0.0531  0.6007
15563SOL    HW158748   2.627   7.751   6.882 -0.1318  1.2669  1.0865
15563SOL    HW258749   2.712   7.884   6.839  0.8931 -0.0298 -0.9711
15564SOL     OW58750   9.738   3.861   4.558 -0.3353 -0.2843  0.4732
15564SOL    HW158751   9.697   3.926   4.494 -1.9565 -1.6989  0.0187
15564SOL    HW258752   9.818   3.819   4.517  1.6156  2.4783  1.3407
15565SOL     OW58753   9.190   6.272   7.547 -0.4137 -0.4015  0.0186
15565SOL    HW158754   9.219   6.347   7.487 -0.7024  0.0025  0.3813
15565SOL    HW258755   9.248   6.271   7.629 -0.9400 -0.0482  0.4015
15566SOL     OW58756   9.247   9.246   1.392 -0.7492 -0.0398 -0.3796
15566SOL    HW158757   9.316   9.318   1.400 -0.0804 -0.6180 -0.8219
15566SOL    HW258758   9.250   9.189   1.475 -1.5636  0.6845  0.1531
15567SOL     OW58759   9.117   6.187   2.771  0.4062 -0.1011 -0.2082
15567SOL    HW158760   9.052   6.253   2.734  0.4485  0.2744  0.3851
15567SOL    HW258761   9.072   6.098   2.781  0.1395  0.0222 -0.3162
15568SOL     OW58762   8.220   8.506   9.648  0.1771 -0.7664 -0.5918
15568SOL    HW158763   8.150   8.575   9.669  1.6125  1.0894 -1.7203
15568SOL    HW258764   8.227   8.495   9.549  2.0071 -0.3152 -0.5403
15569SOL     OW58765   8.288   4.579   6.678 -0.1060 -0.3659 -0.6304
15569SOL    HW158766   8.244   4.600   6.591  2.4851 -1.2080 -2.1978
15569SOL    HW258767   8.284   4.481   6.694  0.6770 -0.3826 -0.5166
15570SOL     OW58768   3.818   6.447  10.024  0.1047 -0.0529  0.0722
15570SOL    HW158769   3.755   6.393   9.969 -0.0305  1.0449 -0.8698
15570SOL    HW258770   3.796   6.435  10.121  1.1086 -2.9659  0.0054
15571SOL     OW58771   9.708   9.502   2.569  0.5376 -0.5242  0.6486
15571SOL    HW158772   9.724   9.417   2.519  0.3330  0.8685 -1.8409
15571SOL    HW258773   9.785   9.564   2.555 -1.2772  1.4009 -1.2480
15572SOL     OW58774   8.415   2.898   9.677  0.1767  0.1763  0.4856
15572SOL    HW158775   8.357   2.882   9.757 -1.1037  1.2363 -0.2113
15572SOL    HW258776   8.454   2.990   9.683 -0.6657  0.6130 -0.5540
15573SOL     OW58777   7.451   6.307   3.053  0.2529  0.0819 -0.6973
15573SOL    HW158778   7.412   6.232   3.107 -0.8268  1.0866 -0.0717
15573SOL    HW258779   7.455   6.280   2.957 -0.7692 -0.5239 -0.5783
15574SOL     OW58780   5.003   4.066   7.893 -0.0234  0.4661  0.1153
15574SOL    HW158781   4.989   4.121   7.811  0.5598 -0.8482 -0.8786
15574SOL    HW258782   5.042   4.123   7.965 -0.1900  1.5443 -0.6329
15575SOL     OW58783   8.543   3.553   5.782 -0.4240  0.2371  0.1769
15575SOL    HW158784   8.555   3.454   5.783 -0.6983  0.2051  0.5918
15575SOL    HW258785   8.473   3.578   5.716  0.3885  0.2405 -0.6798
15576SOL     OW58786   1.818   6.580   6.201  0.2236 -0.7942  0.3207
15576SOL    HW158787   1.908   6.574   6.158  0.6260 -1.0907  1.2116
15576SOL    HW258788   1.807   6.506   6.267 -1.5509 -2.1425 -1.4148
15577SOL     OW58789   9.262   2.874   4.796  0.0592  0.1256 -0.2028
15577SOL    HW158790   9.182   2.921   4.759 -0.4117 -0.7004 -0.2400
15577SOL    HW258791   9.266   2.782   4.758  0.8532  0.0569  0.0509
15578SOL     OW58792   6.244   7.522   4.722 -0.3063 -0.2376  0.1450
15578SOL    HW158793   6.239   7.560   4.630 -2.7545  1.5355  0.9433
15578SOL    HW258794   6.322   7.562   4.770  0.5171 -0.5831 -0.8798
15579SOL     OW58795   6.272   2.453   2.974 -0.1865  0.1341  0.4787
15579SOL    HW158796   6.345   2.414   2.918  0.1944  0.5521  0.6861
15579SOL    HW258797   6.309   2.479   3.063 -0.5065  0.6972  0.4484
15580SOL     OW58798   2.551   1.321   9.439  0.2387  0.5283 -0.0392
15580SOL    HW158799   2.473   1.362   9.486 -0.9250 -1.4009 -0.2082
15580SOL    HW258800   2.599   1.260   9.501  1.5507  1.6159  0.0214
15581SOL     OW58801   2.010   2.304   9.334  0.0633  0.6830 -0.1842
15581SOL    HW158802   2.101   2.263   9.343  0.1115  0.3235 -2.0984
15581SOL    HW258803   1.961   2.259   9.260 -1.0602  2.0120 -0.2597
15582SOL     OW58804   2.496   5.369   4.307  0.4194  0.4012  0.3104
15582SOL    HW158805   2.556   5.449   4.297  0.3533  0.7275  2.3584
15582SOL    HW258806   2.440   5.360   4.225  1.6985  1.3880 -0.7050
15583SOL     OW58807   8.220   9.209   8.190 -0.5293 -0.0708 -0.3160
15583SOL    HW158808   8.122   9.211   8.172 -0.4355 -2.4576 -1.3209
15583SOL    HW258809   8.263   9.139   8.132  1.6584  0.4632  0.6078
15584SOL     OW58810   8.320   0.306   6.448  0.0624  0.5023 -0.4139
15584SOL    HW158811   8.246   0.297   6.515  0.0008 -0.3080 -0.5864
15584SOL    HW258812   8.321   0.398   6.411 -1.0035  0.4507 -0.5794
15585SOL     OW58813   6.346   0.802   2.174  0.6579  0.0687  0.2150
15585SOL    HW158814   6.287   0.793   2.254  1.3803 -0.1769  0.7284
15585SOL    HW258815   6.297   0.850   2.101 -0.2072 -0.2287  0.5942
15586SOL     OW58816   4.372   4.955   8.885 -0.1012 -0.6488 -0.5979
15586SOL    HW158817   4.397   4.967   8.981  0.5955 -0.0818 -0.8488
15586SOL    HW258818   4.281   4.995   8.869  0.0891 -0.1138 -0.3374
15587SOL     OW58819   0.892   7.309   8.708  0.3217  0.2101 -0.5208
15587SOL    HW158820   0.803   7.333   8.669 -0.4505 -1.6308  0.0523
15587SOL    HW258821   0.923   7.382   8.769 -1.2045  0.4822 -0.0576
15588SOL     OW58822   4.897   9.358   4.920 -0.3853  0.0851 -0.3652
15588SOL    HW158823   4.873   9.292   4.991  2.2307 -0.2717  0.2569
15588SOL    HW258824   4.996   9.356   4.905 -0.5126  2.4448 -1.7710
15589SOL     OW58825   9.539   7.641   0.289  0.4885 -0.4645 -0.6177
15589SOL    HW158826   9.535   7.604   0.196 -0.7079 -1.2834 -0.2578
15589SOL    HW258827   9.468   7.711   0.300  1.0660  0.1076 -0.5224
15590SOL     OW58828   2.233   7.160   3.847  0.1122  0.1044  0.5617
15590SOL    HW158829   2.289   7.124   3.922  0.3625  2.0890  1.3498
15590SOL    HW258830   2.145   7.112   3.845  0.4928 -0.6488  1.4909
15591SOL     OW58831   9.996   6.863   9.421 -0.1289  0.5096  0.3260
15591SOL    HW158832   9.948   6.790   9.373  1.4152 -1.6646  1.9637
15591SOL    HW258833  10.050   6.916   9.356 -0.6310 -0.3315 -0.7817
15592SOL     OW58834   3.662   1.125   7.318 -0.0816  0.4218  0.1041
15592SOL    HW158835   3.649   1.208   7.262  0.2651 -0.1664 -0.8583
15592SOL    HW258836   3.582   1.112   7.377 -0.8275  0.5983 -0.8570
15593SOL     OW58837   9.009   4.498   5.442  0.5696  0.5008  0.0364
15593SOL    HW158838   8.951   4.533   5.368 -1.8900 -1.8407  0.7657
15593SOL    HW258839   9.008   4.398   5.440  0.4120  0.4006  3.2735
15594SOL     OW58840   9.075   5.340   4.874 -0.0230 -0.1633 -0.7873
15594SOL    HW158841   9.165   5.306   4.900  0.8099  0.6187 -2.5349
15594SOL    HW258842   9.068   5.437   4.897 -1.7432 -1.0299  2.5693
15595SOL     OW58843   8.969   5.707   8.735 -0.0484 -0.2854  0.4252
15595SOL    HW158844   9.051   5.708   8.679  1.0084 -0.7332  1.9224
15595SOL    HW258845   8.902   5.771   8.698 -0.8193 -3.1501 -3.3847
15596SOL     OW58846   0.534   0.568   2.941  0.0555  0.0922  0.6996
15596SOL    HW158847   0.606   0.548   2.874  1.4525  1.1230  1.8425
15596SOL    HW258848   0.465   0.627   2.900  1.3877  1.4809  0.4312
15597SOL     OW58849   0.820   5.115   1.944  0.1622 -0.0344 -0.4430
15597SOL    HW158850   0.886   5.163   1.886  0.0626  1.7926  0.9192
15597SOL    HW258851   0.728   5.148   1.925 -0.1607 -1.2251 -0.9953
15598SOL     OW58852   0.251   2.540   5.575  0.4846 -0.0045  0.1607
15598SOL    HW158853   0.298   2.610   5.628  0.1894  0.9245 -0.7919
15598SOL    HW258854   0.310   2.459   5.567  1.0115  0.3040  0.8500
15599SOL     OW58855   9.183   0.585   4.179 -0.0853  0.3354  0.3239
15599SOL    HW158856   9.120   0.547   4.247  1.2614 -1.0650  0.8174
15599SOL    HW258857   9.206   0.514   4.112  0.6355  0.9704 -0.1073
15600SOL     OW58858   9.511   5.147   3.449  0.1540 -0.3546 -0.1901
15600SOL    HW158859   9.455   5.066   3.464 -0.0616  0.1084  1.6919
15600SOL    HW258860   9.590   5.145   3.510 -0.7834  1.6671  1.1638
15601SOL     OW58861   7.980   0.597   7.530 -0.1337  0.5703  0.4761
15601SOL    HW158862   7.892   0.621   7.570 -0.0916  2.7314 -0.6402
15601SOL    HW258863   8.043   0.673   7.540  0.8683 -0.0610 -0.8396
15602SOL     OW58864   5.429   4.776   2.926 -0.1873  0.2068  0.1193
15602SOL    HW158865   5.367   4.706   2.959 -0.0017  0.2224  0.5058
15602SOL    HW258866   5.388   4.867   2.938  0.9460  0.4003  2.7440
15603SOL     OW58867   1.173   9.789   9.264 -0.4668  1.0081  0.3458
15603SOL    HW158868   1.149   9.709   9.319  0.3064  1.2573  1.0410
15603SOL    HW258869   1.124   9.784   9.176  0.5928 -0.9020 -0.1664
15604SOL     OW58870   4.430   5.980   1.505 -0.3233  0.1724  0.3949
15604SOL    HW158871   4.487   5.917   1.557 -0.0946 -0.0475 -0.1227
15604SOL    HW258872   4.360   5.929   1.456  0.6620  0.1845 -1.0511
15605SOL     OW58873   5.260   2.548   2.092 -0.2952 -0.2517 -0.2931
15605SOL    HW158874   5.203   2.475   2.129  0.9763 -0.2237  1.8060
15605SOL    HW258875   5.203   2.611   2.038 -1.8138 -1.4471 -0.1193
15606SOL     OW58876   6.170   9.422   6.526  0.3054 -0.0480 -0.0276
15606SOL    HW158877   6.223   9.444   6.444  1.1779  0.5697  0.6905
15606SOL    HW258878   6.221   9.357   6.582 -0.0373 -0.0419  0.2912
15607SOL     OW58879   9.949   6.040   3.548  0.2558 -0.3661  0.4853
15607SOL    HW158880   9.907   6.111   3.605  0.5145 -0.9226  1.3808
15607SOL    HW258881  10.015   6.082   3.486  0.9445  0.0953  1.5200
15608SOL     OW58882   3.923   5.206   9.693 -0.3188 -0.3506  0.0051
15608SOL    HW158883   3.965   5.117   9.680  0.5256 -0.0001  0.2856
15608SOL    HW258884   3.980   5.276   9.651 -0.2109  0.2159  1.0675
15609SOL     OW58885   4.651   1.701   5.994 -0.5363  0.2255  0.4281
15609SOL    HW158886   4.681   1.725   5.901 -0.4444  0.2409  0.4611
15609SOL    HW258887   4.716   1.738   6.060 -0.2836 -0.3099  0.4712
15610SOL     OW58888   2.401   3.054   2.363  0.0149 -0.2132 -0.1552
15610SOL    HW158889   2.501   3.057   2.370  0.0582 -1.4302 -0.0791
15610SOL    HW258890   2.376   2.988   2.292 -0.7486 -0.1372  0.0478
15611SOL     OW58891   7.638   6.857   8.631 -0.1700 -0.2115 -0.1561
15611SOL    HW158892   7.584   6.799   8.571  1.0274 -0.4449 -1.0305
15611SOL    HW258893   7.608   6.845   8.726 -0.0542 -2.1297 -0.3449
15612SOL     OW58894   1.123   1.223   4.249 -0.1708  0.1310 -0.3770
15612SOL    HW158895   1.062   1.287   4.203  0.3374  0.8918  0.0032
15612SOL    HW258896   1.202   1.203   4.191 -2.2314 -3.2069 -2.1661
15613SOL     OW58897   2.409   4.831   1.346  0.3930 -0.2674  0.0567
15613SOL    HW158898   2.492   4.847   1.294  0.4347 -1.3649 -0.2249
15613SOL    HW258899   2.330   4.857   1.291  0.5162  0.1134  0.0607
15614SOL     OW58900   8.777   5.227   0.174  0.4701  0.3183  0.1760
15614SOL    HW158901   8.766   5.276   0.087  0.5405  0.5361  0.2900
15614SOL    HW258902   8.695   5.242   0.230  1.6722  2.6494  1.3820
15615SOL     OW58903   3.955   3.498   9.807 -0.1688 -0.5993 -0.0212
15615SOL    HW158904   4.042   3.537   9.775 -0.2863  0.4855  0.9121
15615SOL    HW258905   3.968   3.462   9.900 -0.9272  0.4230  0.4964
15616SOL     OW58906   1.097   3.467   4.642 -0.3554  0.2127 -0.7598
15616SOL    HW158907   1.106   3.381   4.591 -0.3029  0.1603 -0.6627
15616SOL    HW258908   1.169   3.530   4.613 -0.8799  0.5145 -1.4052
15617SOL     OW58909   3.617   1.976   5.591  0.5795  0.0484  0.0403
15617SOL    HW158910   3.575   1.893   5.553  0.4509 -0.2584  0.8376
15617SOL    HW258911   3.565   2.056   5.563 -0.1249 -0.2705  0.4394
15618SOL     OW58912   5.230   6.056   9.832  0.0180  0.1096  0.2707
15618SOL    HW158913   5.275   5.966   9.836 -0.8062 -0.3076  0.3880
15618SOL    HW258914   5.196   6.079   9.923 -0.7360  0.0327  0.0136
15619SOL     OW58915   9.814   3.520   3.976  0.3655  0.3637 -0.4025
15619SOL    HW158916   9.798   3.449   3.907  1.1683  0.7916 -1.0322
15619SOL    HW258917   9.911   3.539   3.983  0.2417  0.6940  0.4913
15620SOL     OW58918   3.542   1.609   8.333  0.0047 -0.2571 -0.1840
15620SOL    HW158919   3.490   1.690   8.362 -0.1650 -0.0371 -1.0850
15620SOL    HW258920   3.586   1.568   8.412  2.2352  2.2221 -0.0468
15621SOL     OW58921   6.998   7.085   3.430 -0.6286  0.3663  0.0094
15621SOL    HW158922   7.023   6.998   3.389  1.2032  0.1751  1.4851
15621SOL    HW258923   7.069   7.115   3.493 -1.6100  2.5274  0.1695
15622SOL     OW58924   2.013   7.921   2.117 -0.2743  0.1155 -0.0246
15622SOL    HW158925   1.969   7.969   2.192 -1.7547  1.1104 -1.5124
15622SOL    HW258926   2.104   7.958   2.102 -1.3006  2.2993 -0.9817
15623SOL     OW58927   9.307   3.964   0.156 -0.4618  0.4958 -0.5086
15623SOL    HW158928   9.304   4.063   0.142  1.4137  0.7195  0.5386
15623SOL    HW258929   9.397   3.929   0.129 -0.8754 -0.8332 -0.2126
15624SOL     OW58930   3.632   4.462   8.848 -0.2236  0.5106  0.1255
15624SOL    HW158931   3.585   4.392   8.793 -1.7621  1.1834  0.5547
15624SOL    HW258932   3.600   4.553   8.819  0.7541  0.9718  0.4994
15625SOL     OW58933   2.555   8.427   9.484  0.7933  0.2874  0.1889
15625SOL    HW158934   2.634   8.369   9.462  2.6736  2.1423  1.7450
15625SOL    HW258935   2.471   8.375   9.473  2.1905 -1.5849 -2.0846
15626SOL     OW58936   4.185   8.667   5.732 -0.5111  0.1765  0.0321
15626SOL    HW158937   4.150   8.574   5.742 -1.1476  0.2598 -1.2319
15626SOL    HW258938   4.109   8.732   5.739 -0.2243  0.5287 -0.1083
15627SOL     OW58939   2.079   1.358   5.802 -0.2479  0.5161  0.0608
15627SOL    HW158940   2.122   1.448   5.800 -1.5987  1.1887  0.3751
15627SOL    HW258941   2.083   1.317   5.711  1.7152  0.2335  0.2577
15628SOL     OW58942   0.963   5.055   4.937 -0.2132 -0.1259 -0.2472
15628SOL    HW158943   1.008   5.059   5.026  0.8978  0.0190 -0.8043
15628SOL    HW258944   0.985   5.137   4.885  0.7839 -1.1254 -1.4244
15629SOL     OW58945   7.522   2.695   0.436 -0.8718  0.0995 -0.6520
15629SOL    HW158946   7.586   2.746   0.378 -0.6943  0.4865 -0.1292
15629SOL    HW258947   7.461   2.640   0.379  1.1325 -1.7261 -1.0899
15630SOL     OW58948   9.972   5.749   8.529  0.1317 -0.0836  0.7605
15630SOL    HW158949  10.021   5.836   8.534  1.6428 -0.9557  1.1452
15630SOL    HW258950   9.910   5.751   8.450  0.6341  1.0958  0.3827
15631SOL     OW58951   0.955   4.924   3.368  0.3226 -0.0378  0.3151
15631SOL    HW158952   0.985   5.015   3.399  2.4199 -0.4669 -0.3614
15631SOL    HW258953   0.983   4.855   3.435 -0.3749 -0.3047  0.3349
15632SOL     OW58954   9.040   1.199   7.161  0.5234 -0.3683 -0.2760
15632SOL    HW158955   8.992   1.283   7.137  0.5996 -0.4022 -0.5512
15632SOL    HW258956   9.124   1.192   7.106 -0.0138 -1.1434 -1.0053
15633SOL     OW58957   2.674   3.448   6.253  0.2108 -0.2321  0.1997
15633SOL    HW158958   2.624   3.416   6.173  0.0035  0.9062 -0.1400
15633SOL    HW258959   2.758   3.494   6.224 -1.3701  2.9526  0.4018
15634SOL     OW58960   1.072   9.031   0.465 -0.5343 -0.2731 -0.1674
15634SOL    HW158961   1.085   8.937   0.495 -2.2626 -0.1467  1.0507
15634SOL    HW258962   1.035   9.085   0.541 -0.7772  1.0944 -1.2444
15635SOL     OW58963   9.361   0.758   1.844 -0.2170 -0.4042 -0.0683
15635SOL    HW158964   9.266   0.731   1.855 -0.2339 -0.5793 -0.6348
15635SOL    HW258965   9.420   0.691   1.891 -0.3365 -0.6566 -0.2768
15636SOL     OW58966   1.177   6.989   5.467  0.1610 -0.4083 -0.1212
15636SOL    HW158967   1.224   6.964   5.551  0.0019 -0.5634 -0.0766
15636SOL    HW258968   1.226   6.951   5.389  0.4721 -0.0164 -0.1181
15637SOL     OW58969   0.258   2.955   5.437  0.0270  0.2985 -0.1555
15637SOL    HW158970   0.274   2.892   5.361 -0.4471 -0.8461  0.6822
15637SOL    HW258971   0.161   2.976   5.444  0.1255  0.7666 -0.1493
15638SOL     OW58972   8.153   1.096   7.567 -0.3180  0.0032  0.4305
15638SOL    HW158973   8.223   1.047   7.619 -0.2547  0.8116  1.1154
15638SOL    HW258974   8.108   1.033   7.504  1.9078 -0.2614 -0.9569
15639SOL     OW58975   3.696   0.503   3.124 -0.1799 -0.1030  0.1017
15639SOL    HW158976   3.622   0.437   3.109  0.1806 -0.4461 -0.1617
15639SOL    HW258977   3.756   0.505   3.045 -0.1301  0.4699  0.1515
15640SOL     OW58978   2.688   0.932   3.365  0.2971  0.3223 -0.6537
15640SOL    HW158979   2.687   0.862   3.294 -0.7045 -1.1020  0.7240
15640SOL    HW258980   2.711   0.890   3.453  1.5354  2.0533 -0.1047
15641SOL     OW58981   0.297   9.214   3.276  0.0103  0.2688 -0.1788
15641SOL    HW158982   0.324   9.307   3.254  0.4056  0.1966  0.0004
15641SOL    HW258983   0.355   9.149   3.227  0.5026  0.1138  0.5983
15642SOL     OW58984   1.137   6.372   4.983  0.1313 -0.8217 -0.3569
15642SOL    HW158985   1.077   6.413   4.914 -0.4450  0.5839  0.9467
15642SOL    HW258986   1.230   6.367   4.947  0.7592  3.9830  0.2374
15643SOL     OW58987   2.119   3.941   1.095 -0.0665 -0.1965  0.1687
15643SOL    HW158988   2.059   3.878   1.143  0.5158  0.3018  1.5847
15643SOL    HW258989   2.087   3.954   1.002 -2.2980  0.2532  0.9716
15644SOL     OW58990   0.786   4.655   9.474  0.0885 -0.2429  0.5316
15644SOL    HW158991   0.793   4.703   9.387 -0.5577  0.2776  0.7638
15644SOL    HW258992   0.877   4.628   9.505  0.7510  3.0323  1.6402
15645SOL     OW58993   9.669   7.647   4.606  0.2288 -0.5040  0.4235
15645SOL    HW158994   9.647   7.631   4.510  0.8340  0.8700  0.0494
15645SOL    HW258995   9.767   7.658   4.617  0.1087 -0.0194  1.1067
15646SOL     OW58996   0.629   2.526   2.430 -0.1654 -0.8840  0.5112
15646SOL    HW158997   0.592   2.614   2.462  2.5134  0.4474  0.0863
15646SOL    HW258998   0.706   2.499   2.488  0.1711 -2.0492 -0.4637
15647SOL     OW58999   1.373   8.465   7.626 -0.5232 -0.3588  0.0442
15647SOL    HW159000   1.457   8.417   7.603  0.0921 -0.7132  2.9085
15647SOL    HW259001   1.366   8.549   7.571  1.7168 -0.2930 -0.1653
15648SOL     OW59002   7.909   7.559   7.656  0.1856  0.0597  0.2182
15648SOL    HW159003   7.872   7.473   7.689  2.9992 -1.2683  0.0346
15648SOL    HW259004   7.954   7.607   7.731 -0.5212  0.9304  0.0967
15649SOL     OW59005   8.594   8.625   6.448 -0.2613  0.0742  0.4324
15649SOL    HW159006   8.499   8.646   6.422 -0.2764 -0.8134 -0.2528
15649SOL    HW259007   8.651   8.623   6.365  0.1099 -0.6674  0.7066
15650SOL     OW59008   0.098   8.666   7.742  0.2970 -0.3113  0.2826
15650SOL    HW159009   0.096   8.744   7.680  0.7436 -1.5469 -1.3402
15650SOL    HW259010   0.052   8.689   7.828 -0.5297  1.3612 -0.6025
15651SOL     OW59011   5.737   8.013   6.370 -0.4959  0.1446  0.2189
15651SOL    HW159012   5.822   8.046   6.329 -0.6016 -1.2068 -1.1466
15651SOL    HW259013   5.665   8.081   6.355 -0.4853 -0.2263 -1.6990
15652SOL     OW59014   7.309   3.541   8.925  0.6527  0.1635 -0.3959
15652SOL    HW159015   7.303   3.641   8.921  1.4623  0.1510 -2.2819
15652SOL    HW259016   7.266   3.509   9.010 -0.3669  2.0382 -0.1703
15653SOL     OW59017   5.719   7.646   3.091  0.1969  0.1879 -0.2288
15653SOL    HW159018   5.787   7.694   3.146  0.0744  0.8962 -0.6872
15653SOL    HW259019   5.692   7.704   3.014 -0.3438 -0.4086 -0.4902
15654SOL     OW59020   2.991   0.405   4.912 -1.0570  0.2109  0.0584
15654SOL    HW159021   3.007   0.414   4.813  0.1879 -1.0593  0.1391
15654SOL    HW259022   2.965   0.494   4.949 -0.2267  0.9824 -1.1766
15655SOL     OW59023   8.791   5.904   8.646 -0.3703  0.0125 -0.5912
15655SOL    HW159024   8.755   5.905   8.553  0.5329  0.6357 -0.9428
15655SOL    HW259025   8.715   5.893   8.711 -1.2499  1.6426 -1.2981
15656SOL     OW59026   6.330   5.523   8.386  0.0575 -0.0651  0.2109
15656SOL    HW159027   6.275   5.440   8.375  3.1235 -2.0148 -1.0625
15656SOL    HW259028   6.334   5.572   8.299  0.5684 -0.0808  0.2271
15657SOL     OW59029   8.185   6.720   2.647  0.3610 -0.2290  0.5429
15657SOL    HW159030   8.283   6.704   2.635  0.1807 -1.0898  0.1988
15657SOL    HW259031   8.135   6.635   2.630 -0.3885  0.0289  1.4335
15658SOL     OW59032   8.620   9.587   2.224 -0.1679 -0.4709  0.3429
15658SOL    HW159033   8.626   9.678   2.181 -0.6822 -1.1850 -1.2596
15658SOL    HW259034   8.529   9.549   2.209  0.5640 -1.9403 -0.3559
15659SOL     OW59035   4.363   0.287   9.523  0.1073 -0.7279 -0.3938
15659SOL    HW159036   4.289   0.299   9.457  1.7451  3.1464 -1.6668
15659SOL    HW259037   4.443   0.247   9.477  0.2198 -0.9216 -0.0320
15660SOL     OW59038   0.053   4.124   5.019 -0.1292  0.5328 -0.0246
15660SOL    HW159039   0.131   4.062   5.013  1.2699  2.2857 -0.3040
15660SOL    HW259040   0.049   4.164   5.111 -0.6868  0.4712 -0.0191
15661SOL     OW59041   9.081   2.182   2.365 -0.4382  0.1357 -0.1430
15661SOL    HW159042   9.158   2.240   2.390 -0.5756 -0.8548  2.7851
15661SOL    HW259043   9.111   2.087   2.358 -0.9281  0.0604 -1.3390
15662SOL     OW59044   9.718   4.898   1.214  0.4558  0.2194  0.1959
15662SOL    HW159045   9.635   4.884   1.267  0.0244 -0.3132 -0.6020
15662SOL    HW259046   9.755   4.989   1.231 -0.9644  0.9159 -0.3723
15663SOL     OW59047   5.860   1.924   9.815  0.3155 -0.0800  0.1616
15663SOL    HW159048   5.841   1.828   9.796  1.4769 -0.3262  0.1939
15663SOL    HW259049   5.777   1.970   9.844 -0.3187 -0.9948 -0.2001
15664SOL     OW59050   1.652   4.838   0.811  0.3716  0.2525 -0.5012
15664SOL    HW159051   1.648   4.782   0.728 -2.2183  1.8717 -1.5428
15664SOL    HW259052   1.603   4.924   0.795 -0.2412  0.5557  2.7536
15665SOL     OW59053   2.886   0.061   4.032 -0.4208  0.0499  0.5213
15665SOL    HW159054   2.976   0.023   4.009 -0.7738 -1.1169  1.0300
15665SOL    HW259055   2.847   0.010   4.109 -0.9851  1.3512  1.1064
15666SOL     OW59056   7.087   5.599   9.563  0.0257 -0.4116  0.5566
15666SOL    HW159057   7.057   5.666   9.496 -0.0189 -3.1226 -2.2659
15666SOL    HW259058   7.023   5.596   9.639 -1.0285  1.2941 -0.2494
15667SOL     OW59059   8.728   3.821   1.133 -0.2045 -0.3454  0.1596
15667SOL    HW159060   8.674   3.843   1.214 -1.0943 -0.7411 -0.3183
15667SOL    HW259061   8.794   3.895   1.116  0.6476 -0.6984  1.7705
15668SOL     OW59062   3.394   6.109   5.117  0.0935 -0.3746  0.7445
15668SOL    HW159063   3.334   6.033   5.142  0.9143 -1.7260 -1.1980
15668SOL    HW259064   3.487   6.089   5.149  0.1909  0.0999  0.7564
15669SOL     OW59065   2.203   3.555   2.978  0.0877  0.0770  0.2622
15669SOL    HW159066   2.270   3.618   2.939 -1.6670  1.8397  0.0006
15669SOL    HW259067   2.122   3.551   2.918 -3.2335  3.8586  4.1833
15670SOL     OW59068   8.215   3.673   1.280  0.0269  0.4251 -0.5944
15670SOL    HW159069   8.125   3.630   1.273 -0.8455  1.7306  1.9181
15670SOL    HW259070   8.284   3.604   1.299 -1.3235 -0.0302  3.2244
15671SOL     OW59071   9.159   7.403   5.131 -0.0113  0.4002  0.7277
15671SOL    HW159072   9.079   7.410   5.072  1.0809  2.3076 -0.6055
15671SOL    HW259073   9.188   7.495   5.157  3.2632 -0.0979 -0.9195
15672SOL     OW59074   2.628   6.782   0.245 -0.4731  0.5947 -0.0802
15672SOL    HW159075   2.589   6.874   0.246 -0.3670  0.6656 -1.2426
15672SOL    HW259076   2.726   6.787   0.264  0.0196  1.0039 -2.4888
15673SOL     OW59077   2.375   4.298   1.382  0.1518 -0.6602 -0.0680
15673SOL    HW159078   2.340   4.391   1.392  0.8716 -0.3719 -0.2107
15673SOL    HW259079   2.397   4.261   1.473 -1.8496 -1.3701  0.1550
15674SOL     OW59080   3.408   1.744   9.382  0.5941  0.0501 -0.2545
15674SOL    HW159081   3.445   1.801   9.309  1.6895 -1.6595 -1.0700
15674SOL    HW259082   3.377   1.803   9.457 -1.1121  1.8595 -2.3025
15675SOL     OW59083   4.929   4.178   2.900 -0.0957 -0.3710  0.2209
15675SOL    HW159084   4.870   4.150   2.976 -0.0771 -1.6560 -0.2219
15675SOL    HW259085   4.999   4.241   2.934  0.3659 -1.5051  1.4273
15676SOL     OW59086   3.530   1.464   4.868  0.0254 -0.3245  0.4155
15676SOL    HW159087   3.551   1.535   4.935 -0.3736  0.3903 -0.2152
15676SOL    HW259088   3.484   1.388   4.914  1.2559 -0.5814  1.2500
15677SOL     OW59089   9.269   7.637   3.971 -1.1576  0.1078  0.3945
15677SOL    HW159090   9.223   7.601   3.890  1.2187 -0.2853 -0.8417
15677SOL    HW259091   9.295   7.732   3.955  1.1000 -0.5633 -0.1407
15678SOL     OW59092   9.385   3.005   9.078 -0.3895  0.1203  0.2926
15678SOL    HW159093   9.341   3.086   9.040 -1.8915 -1.2668 -1.0474
15678SOL    HW259094   9.327   2.925   9.062  1.2623 -1.2980  1.1695
15679SOL     OW59095   9.623   7.561   4.045 -0.1672 -0.0123 -0.4358
15679SOL    HW159096   9.545   7.578   4.104 -0.5748  2.4411 -1.6152
15679SOL    HW259097   9.658   7.468   4.061 -1.6436 -0.1907  1.9885
15680SOL     OW59098   7.029   7.661   3.677 -0.8807 -0.4164 -0.4749
15680SOL    HW159099   6.937   7.693   3.655 -1.3215 -1.7731 -0.5870
15680SOL    HW259100   7.081   7.737   3.718 -2.1680  0.2337 -0.0204
15681SOL     OW59101   1.046   7.553   2.940  0.2008  0.3688 -0.4213
15681SOL    HW159102   1.086   7.490   3.007  0.2945  1.0294  0.1506
15681SOL    HW259103   1.056   7.514   2.848 -0.7986 -0.9926  0.0279
15682SOL     OW59104   1.558   2.269   0.453 -0.1534  0.2517  0.5892
15682SOL    HW159105   1.565   2.202   0.527  1.1089  0.5683  0.7727
15682SOL    HW259106   1.479   2.327   0.468 -0.0333  0.1697  1.5753
15683SOL     OW59107   6.017   6.400   9.407 -0.1683  0.3804  0.7219
15683SOL    HW159108   6.038   6.305   9.385  2.8680  1.1754 -0.0401
15683SOL    HW259109   5.963   6.403   9.491 -0.3530 -2.0209  0.7274
15684SOL     OW59110   9.449   2.424   8.004  0.2467  0.1337 -0.3436
15684SOL    HW159111   9.499   2.479   7.938 -0.0094  1.8599  0.8717
15684SOL    HW259112   9.513   2.371   8.059  0.4622 -1.2686 -1.8992
15685SOL     OW59113   8.220   8.027   9.697 -0.3104 -0.4205 -0.0787
15685SOL    HW159114   8.208   8.120   9.734  2.6766 -0.7008  1.7269
15685SOL    HW259115   8.171   7.962   9.755 -0.6270 -0.2082 -0.1050
15686SOL     OW59116   6.651   9.183   4.930 -0.5863 -0.2797 -0.3103
15686SOL    HW159117   6.659   9.184   5.030  0.8724  0.3158 -0.4339
15686SOL    HW259118   6.570   9.236   4.903 -0.9913 -0.4479  0.5536
15687SOL     OW59119   2.216   2.996   4.621  0.4239 -0.5223  0.3956
15687SOL    HW159120   2.136   3.053   4.633 -1.4868 -2.9541 -0.3815
15687SOL    HW259121   2.253   2.971   4.711 -1.0552 -1.2081  0.8313
15688SOL     OW59122   7.826   9.564   1.998 -0.4472  0.0458  0.6192
15688SOL    HW159123   7.786   9.628   2.064 -0.7174  0.1600  0.3423
15688SOL    HW259124   7.845   9.612   1.913 -0.8045 -0.2790  0.3558
15689SOL     OW59125   8.678   6.896   4.146 -0.3913 -0.5905 -0.5453
15689SOL    HW159126   8.623   6.815   4.166 -0.4250  0.2008  2.9285
15689SOL    HW259127   8.618   6.973   4.125 -0.4282 -0.9094 -1.6327
15690SOL     OW59128   4.477   3.426   6.801  0.4661  0.1299  0.3807
15690SOL    HW159129   4.397   3.438   6.743  0.8458 -3.0922 -0.9694
15690SOL    HW259130   4.462   3.470   6.890 -2.2626  0.6449 -0.2957
15691SOL     OW59131   3.107   9.122   1.173  0.1724  0.4081 -0.3148
15691SOL    HW159132   3.205   9.139   1.160  0.1014  1.3270  0.2974
15691SOL    HW259133   3.074   9.059   1.103  1.4171 -0.6898  0.0741
15692SOL     OW59134   0.914   9.412   7.223  0.3326  0.0568 -0.2680
15692SOL    HW159135   0.941   9.342   7.289  0.9933  1.0487  0.5297
15692SOL    HW259136   0.964   9.398   7.138  0.4296 -0.4565 -0.1310
15693SOL     OW59137   1.734   0.202   9.034  0.4346  0.2223 -0.5885
15693SOL    HW159138   1.731   0.158   9.124  0.3847 -0.0159 -0.7058
15693SOL    HW259139   1.722   0.133   8.963 -0.3593  0.5283 -0.7535
15694SOL     OW59140   1.947   4.154   5.902 -0.0494 -0.0147  0.5154
15694SOL    HW159141   1.923   4.204   5.986 -0.4442  0.5114  0.0918
15694SOL    HW259142   1.864   4.130   5.853  0.2627  1.6644 -0.8776
15695SOL     OW59143   0.426   3.806   5.427 -0.0818  0.1652  0.2427
15695SOL    HW159144   0.438   3.903   5.448 -0.0722 -0.3129  2.5628
15695SOL    HW259145   0.330   3.781   5.433 -0.0069 -0.1087  0.3532
15696SOL     OW59146   6.615   8.497   2.837  0.4249 -0.3114 -0.4032
15696SOL    HW159147   6.672   8.532   2.762 -0.5640 -1.3130 -1.6598
15696SOL    HW259148   6.556   8.571   2.870 -0.1562 -0.2128 -1.6124
15697SOL     OW59149   9.312   9.162   3.583 -0.5819 -0.2187 -0.0424
15697SOL    HW159150   9.331   9.180   3.486  0.8923 -1.7869 -0.0831
15697SOL    HW259151   9.313   9.063   3.599 -0.9992  0.0182  1.5426
15698SOL     OW59152   4.122   7.961   1.366 -0.1835  0.3884 -0.3737
15698SOL    HW159153   4.111   8.028   1.293  1.3947  0.6564 -0.3787
15698SOL    HW259154   4.153   7.874   1.328  0.5033  0.4852 -0.0390
15699SOL     OW59155   8.838   5.460   8.301  0.3473  0.2166  0.2301
15699SOL    HW159156   8.768   5.524   8.334  1.6540  1.7524  0.0941
15699SOL    HW259157   8.857   5.392   8.372 -1.5971 -0.5093  0.0920
15700SOL     OW59158   8.499   8.999   7.530  0.0036  0.2053  0.2399
15700SOL    HW159159   8.456   9.038   7.449 -0.4467 -0.5868  0.0981
15700SOL    HW259160   8.431   8.994   7.604  0.5229  1.3408  0.8196
15701SOL     OW59161   0.249   3.374   2.107 -0.3410 -0.5058  0.2858
15701SOL    HW159162   0.170   3.364   2.047  0.2712 -0.6514 -0.5030
15701SOL    HW259163   0.330   3.397   2.053 -0.3944  2.4484  1.3687
15702SOL     OW59164   7.763   7.802   9.871 -0.4275  0.2279  0.0443
15702SOL    HW159165   7.665   7.801   9.891 -0.9857  1.9062 -2.2989
15702SOL    HW259166   7.783   7.879   9.810  2.1748 -0.7454 -0.3885
15703SOL     OW59167   4.874   4.300   0.140 -0.3908 -0.4036  0.4117
15703SOL    HW159168   4.784   4.342   0.126 -0.3520 -0.4763 -0.0610
15703SOL    HW259169   4.873   4.245   0.224 -1.5079 -2.4146 -0.8981
15704SOL     OW59170   2.455   7.917   7.437  0.5766 -0.3586 -0.0489
15704SOL    HW159171   2.426   7.997   7.385 -2.1172  0.7378  2.9381
15704SOL    HW259172   2.436   7.834   7.384  0.1415  0.8159 -1.7685
15705SOL     OW59173   1.809   5.812   0.012 -0.1978 -0.1437 -0.0597
15705SOL    HW159174   1.850   5.756  -0.060  0.0467  1.0765 -0.8730
15705SOL    HW259175   1.779   5.752   0.087  2.2850 -1.1517  0.1782
15706SOL     OW59176   1.022   3.191   4.822 -0.2833  0.1872 -0.7114
15706SOL    HW159177   0.969   3.276   4.830 -1.4025 -0.4341 -1.4260
15706SOL    HW259178   0.970   3.124   4.770  0.4695 -1.0550  0.1073
15707SOL     OW59179   5.638   1.484   5.933 -0.1917  0.4942 -0.2697
15707SOL    HW159180   5.674   1.396   5.901  0.1054  0.2063  0.8429
15707SOL    HW259181   5.604   1.475   6.027  0.0385  1.6126 -0.0666
15708SOL     OW59182   4.502   1.278   6.021  0.0654  0.0329  0.7659
15708SOL    HW159183   4.482   1.376   6.025  1.8696  0.4996 -0.6929
15708SOL    HW259184   4.542   1.248   6.107  0.6499  0.8540  0.7844
15709SOL     OW59185   6.810   1.116   0.080 -0.6572  0.3130  0.5035
15709SOL    HW159186   6.790   1.185   0.149 -1.4984  0.8217 -0.2207
15709SOL    HW259187   6.905   1.087   0.087 -0.3970  1.2731  1.0696
15710SOL     OW59188   2.725   1.117   1.917  0.1015 -0.0161 -0.2916
15710SOL    HW159189   2.638   1.095   1.963 -0.3143  1.9805 -0.0760
15710SOL    HW259190   2.762   1.201   1.955  2.3673 -1.0714 -0.1151
15711SOL     OW59191   1.735   3.056   0.575 -0.1403  0.1749 -0.2437
15711SOL    HW159192   1.824   3.101   0.581  0.5593 -1.4282  1.4851
15711SOL    HW259193   1.725   3.014   0.484 -0.5412  3.1927 -1.6622
15712SOL     OW59194   2.560   1.128   6.586  0.1664 -0.3309  0.3421
15712SOL    HW159195   2.591   1.203   6.528  2.2012 -1.9280 -0.7164
15712SOL    HW259196   2.475   1.154   6.632  0.8476  2.5974  0.0257
15713SOL     OW59197   9.260   5.866   8.718 -0.6104 -0.1447  0.0650
15713SOL    HW159198   9.198   5.938   8.747 -2.1114 -0.8312 -1.3461
15713SOL    HW259199   9.261   5.793   8.786  1.2656  1.3615  1.7275
15714SOL     OW59200   9.922   2.262   9.547 -0.4548  0.6083  0.1383
15714SOL    HW159201   9.904   2.190   9.615  3.5159  1.4607  2.2242
15714SOL    HW259202   9.975   2.224   9.471 -2.7100  0.2614 -1.3369
15715SOL     OW59203   3.331   4.554   1.340  0.0225 -0.2002 -0.6802
15715SOL    HW159204   3.424   4.531   1.311 -0.5277 -1.0832 -1.7483
15715SOL    HW259205   3.306   4.644   1.306  0.5989  0.1827 -0.1103
15716SOL     OW59206   6.802   6.793   1.009  0.7840 -0.1144 -0.4914
15716SOL    HW159207   6.779   6.704   0.969 -1.1448 -0.2122  0.7558
15716SOL    HW259208   6.834   6.780   1.103 -0.3879  0.5620  0.0144
15717SOL     OW59209   1.801   9.380   0.047 -0.0335  0.2306  0.3125
15717SOL    HW159210   1.742   9.394  -0.033  0.7282 -0.0741 -0.3137
15717SOL    HW259211   1.745   9.374   0.129 -0.8174  0.6798 -0.1843
15718SOL     OW59212   7.954   3.714   4.993  0.1256 -0.0561  0.0317
15718SOL    HW159213   7.947   3.615   4.977 -3.9818  0.4014 -1.6171
15718SOL    HW259214   7.952   3.732   5.091  2.5984 -1.6307  0.4289
15719SOL     OW59215   8.157   8.217   5.498 -0.2580 -0.0761 -1.1411
15719SOL    HW159216   8.199   8.151   5.560  0.7504 -0.0938 -1.8359
15719SOL    HW259217   8.166   8.309   5.535 -0.1095 -0.1434 -1.0113
15720SOL     OW59218   1.357   0.942   9.931  0.1696 -0.0113 -0.4212
15720SOL    HW159219   1.316   1.033   9.924 -1.2225 -0.7200 -1.9465
15720SOL    HW259220   1.440   0.946   9.987 -0.4199  1.9993  0.3254
15721SOL     OW59221   7.132   8.277   3.632 -0.1461  0.5100 -0.1786
15721SOL    HW159222   7.109   8.207   3.699 -1.5853  0.6820 -0.4623
15721SOL    HW259223   7.067   8.353   3.641  0.6705  1.2664 -0.6618
15722SOL     OW59224   0.156   5.621   0.985 -0.2573 -0.3889 -0.1313
15722SOL    HW159225   0.151   5.720   1.003 -1.2152 -0.4700  0.1066
15722SOL    HW259226   0.251   5.590   0.995 -0.1510  0.2756  1.0831
15723SOL     OW59227   7.077   8.070   4.607 -0.2567  0.5585  0.1493
15723SOL    HW159228   6.997   8.128   4.623  0.1903  0.6256  2.3111
15723SOL    HW259229   7.059   7.978   4.641  1.0702  0.9540  2.0652
15724SOL     OW59230   3.784   2.931   8.899 -0.1098  0.0136  0.4323
15724SOL    HW159231   3.820   3.023   8.885 -0.0914 -0.0595 -0.0349
15724SOL    HW259232   3.842   2.881   8.962  0.2293  0.1166  0.2015
15725SOL     OW59233   8.004   2.102   2.808 -0.5169 -0.0116  0.0774
15725SOL    HW159234   8.039   2.126   2.898 -1.4116 -0.7113  0.6268
15725SOL    HW259235   7.907   2.077   2.815 -0.7292  0.3978 -1.1557
15726SOL     OW59236   9.734   9.302   4.303  0.2694  0.5550 -0.0041
15726SOL    HW159237   9.815   9.254   4.268 -0.1561  0.2902 -0.6168
15726SOL    HW259238   9.651   9.257   4.269 -0.1456  2.9985 -2.3198
15727SOL     OW59239   4.675   7.381   4.399  0.8152  0.2575 -0.1248
15727SOL    HW159240   4.607   7.380   4.472  0.4749 -1.2896 -0.4602
15727SOL    HW259241   4.657   7.458   4.338 -1.4185 -0.8839 -0.9373
15728SOL     OW59242   1.353   4.732   4.629  0.7929 -0.3902 -0.3277
15728SOL    HW159243   1.318   4.639   4.616  0.1730 -0.8296  3.8351
15728SOL    HW259244   1.293   4.781   4.693  1.7070  2.5340 -1.6617
15729SOL     OW59245   4.383   5.805   8.150 -0.1735  0.1968 -0.1033
15729SOL    HW159246   4.424   5.714   8.159  0.0914  0.3530  0.2975
15729SOL    HW259247   4.290   5.796   8.116 -0.2293 -0.2426  0.1559
15730SOL     OW59248   9.651   2.911   0.636  0.0695  1.0821  0.0783
15730SOL    HW159249   9.693   2.824   0.608  0.6488  0.6835  2.0546
15730SOL    HW259250   9.718   2.985   0.626 -0.0599  1.1151 -0.5506
15731SOL     OW59251   2.894   4.787   4.847  0.0521 -0.1638 -0.7127
15731SOL    HW159252   2.917   4.770   4.751  0.1697  1.1097 -0.9122
15731SOL    HW259253   2.941   4.870   4.879  0.0855 -0.6234  0.4741
15732SOL     OW59254   6.726   5.944   0.185 -0.2083 -0.6642  0.2627
15732SOL    HW159255   6.737   5.845   0.190  0.6701 -0.5470  0.7791
15732SOL    HW259256   6.692   5.969   0.095  1.3067 -1.2845 -0.4985
15733SOL     OW59257   0.810   6.942   9.874  0.0790 -0.1295  0.1007
15733SOL    HW159258   0.741   6.918   9.942 -0.0693 -0.9091 -0.3167
15733SOL    HW259259   0.833   6.861   9.820 -2.4383  1.1506 -3.1398
15734SOL     OW59260   8.873   7.766   8.662  0.5577 -0.2715 -0.2006
15734SOL    HW159261   8.841   7.774   8.757 -1.5901  1.1924 -1.0108
15734SOL    HW259262   8.882   7.858   8.623 -0.9310 -0.9398 -2.1663
15735SOL     OW59263   6.810   4.800   2.372  0.5121 -0.1136 -0.2993
15735SOL    HW159264   6.763   4.730   2.317  0.3895 -1.6383  1.7017
15735SOL    HW259265   6.883   4.757   2.425  0.7079  1.3714  0.6605
15736SOL     OW59266   8.717   2.206   6.987  0.7706  0.4825 -0.0939
15736SOL    HW159267   8.751   2.175   6.898  0.6097 -1.2632  0.4338
15736SOL    HW259268   8.780   2.274   7.025  0.0984  2.3319 -2.1620
15737SOL     OW59269   0.831   1.595   8.909 -0.5207  0.0066  0.2134
15737SOL    HW159270   0.877   1.509   8.884  0.1520  1.0972 -2.3757
15737SOL    HW259271   0.900   1.667   8.920 -1.1396  0.3779  1.8631
15738SOL     OW59272   4.334   2.824   8.693  0.0936  0.8225 -0.1283
15738SOL    HW159273   4.305   2.772   8.613  0.2350  1.3801 -0.5465
15738SOL    HW259274   4.433   2.825   8.699  0.0943  1.0748 -0.1491
15739SOL     OW59275   6.069   2.382   9.826  0.4165 -0.5194 -0.1537
15739SOL    HW159276   6.048   2.297   9.873  1.2988 -1.0993 -0.7878
15739SOL    HW259277   6.142   2.366   9.759  0.6588  0.7480 -0.2108
15740SOL     OW59278   3.635   9.094   4.329  0.3012  0.3076  0.6138
15740SOL    HW159279   3.630   9.024   4.257  2.0220  2.0633 -1.3021
15740SOL    HW259280   3.710   9.073   4.391 -0.5796 -0.7107  1.3355
15741SOL     OW59281   3.069   9.740   8.370 -0.3391  0.2255  0.3184
15741SOL    HW159282   3.020   9.824   8.392  0.4323  0.6213  0.5522
15741SOL    HW259283   3.060   9.722   8.272 -3.2316 -1.1905  0.7956
15742SOL     OW59284   9.839   3.289   2.828 -0.5188 -0.2391  0.0664
15742SOL    HW159285   9.804   3.348   2.902  2.9830  1.2193  0.6457
15742SOL    HW259286   9.817   3.331   2.740 -0.3511  0.5831  0.4092
15743SOL     OW59287   3.905   3.601   4.148  0.4372 -0.4112 -0.5353
15743SOL    HW159288   3.855   3.607   4.062  0.9023  0.4757 -0.7462
15743SOL    HW259289   3.869   3.524   4.202  0.2671 -1.0807 -1.5877
15744SOL     OW59290   5.660   5.767   9.884 -0.1009  0.6385  0.3559
15744SOL    HW159291   5.615   5.751   9.796  0.3552  0.5690  0.1307
15744SOL    HW259292   5.612   5.718   9.956 -0.3337  0.4946  0.1038
15745SOL     OW59293   0.750   8.188   1.199 -0.0548 -0.3617  0.2230
15745SOL    HW159294   0.689   8.248   1.147  1.1470 -0.7615 -1.7049
15745SOL    HW259295   0.759   8.100   1.151  0.8948 -0.8355  1.2410
15746SOL     OW59296   3.230   8.875   2.561  0.1396  0.4151  0.3535
15746SOL    HW159297   3.218   8.785   2.602  0.0687  0.0816 -0.3977
15746SOL    HW259298   3.227   8.945   2.633 -0.9788 -0.0836  0.8012
15747SOL     OW59299   7.641   3.351   8.567 -0.5221 -0.5334  0.0074
15747SOL    HW159300   7.587   3.310   8.493 -0.3876  0.2367 -0.5296
15747SOL    HW259301   7.583   3.412   8.620 -0.3404 -0.1891 -0.1845
15748SOL     OW59302   1.702   7.090   1.050 -0.0578  0.4472  0.0480
15748SOL    HW159303   1.748   7.093   0.961  1.3348 -0.3369  0.7279
15748SOL    HW259304   1.683   7.184   1.080 -2.5986  0.6850 -2.0888
15749SOL     OW59305   3.978   8.907   0.626 -0.0996  0.2743 -0.4145
15749SOL    HW159306   3.888   8.889   0.666  0.6248 -1.2044  0.5933
15749SOL    HW259307   3.967   8.946   0.535 -1.7771 -1.8786 -1.1718
15750SOL     OW59308   3.365   4.224   6.726  0.3270 -0.7669  0.5700
15750SOL    HW159309   3.315   4.230   6.812  0.7819  1.2472  0.7269
15750SOL    HW259310   3.463   4.216   6.744  0.8638  3.8491  0.3367
15751SOL     OW59311   1.027   9.606   8.421  0.1533 -0.7222 -0.9201
15751SOL    HW159312   1.108   9.663   8.434 -1.0088  1.1664 -1.6603
15751SOL    HW259313   1.050   9.526   8.366  1.5493 -0.3148 -0.9363
15752SOL     OW59314   7.489   6.380   2.450 -0.0296 -0.1132  0.3919
15752SOL    HW159315   7.578   6.426   2.457  1.1613 -2.5384  1.9264
15752SOL    HW259316   7.503   6.281   2.441 -2.5785 -0.6994  2.1642
15753SOL     OW59317   4.239   9.050   0.019  0.8643 -0.0539 -0.5819
15753SOL    HW159318   4.236   8.994   0.101 -2.1450 -1.1607 -1.3951
15753SOL    HW259319   4.327   9.036  -0.027  1.7149 -1.0616  1.2906
15754SOL     OW59320   3.654   2.929   7.310  0.0280  0.2104  0.2844
15754SOL    HW159321   3.692   2.913   7.401 -0.4973  1.4145  0.7356
15754SOL    HW259322   3.717   2.987   7.258 -0.2060  0.4633  0.2841
15755SOL     OW59323   0.107   4.400   1.192 -0.3360  0.1187  0.2109
15755SOL    HW159324   0.176   4.331   1.170  1.8200  2.1309  0.3798
15755SOL    HW259325   0.110   4.421   1.290 -0.8284  0.5602  0.1357
15756SOL     OW59326   9.656   4.440   1.638 -0.3399 -0.2030  0.3910
15756SOL    HW159327   9.598   4.401   1.711 -0.1509 -1.6991 -0.2296
15756SOL    HW259328   9.748   4.403   1.646  0.0707  0.7842  0.2826
15757SOL     OW59329   1.729   4.188   2.130  0.1870 -0.1023 -0.8065
15757SOL    HW159330   1.802   4.218   2.193 -0.6877  2.4373 -0.9665
15757SOL    HW259331   1.759   4.105   2.082  2.5823  0.3434 -0.1530
15758SOL     OW59332   3.937   4.876   8.007 -0.5252  0.0881 -0.0953
15758SOL    HW159333   4.013   4.811   8.008  0.8639  1.7005  0.9033
15758SOL    HW259334   3.859   4.836   8.056  0.1479 -1.0287  0.0789
15759SOL     OW59335   2.491   0.797   8.975  0.2323  0.2478  0.2085
15759SOL    HW159336   2.479   0.784   8.877  0.5303  0.1901  0.1788
15759SOL    HW259337   2.589   0.804   8.996  0.0850  2.8290  0.1842
15760SOL     OW59338   2.945   6.843   6.518  0.1735  0.1111 -0.1397
15760SOL    HW159339   2.927   6.910   6.590 -0.7357  0.4298 -0.6409
15760SOL    HW259340   3.018   6.781   6.546  1.2322  1.4868  0.2306
15761SOL     OW59341   7.907   8.814   6.368 -0.1247  0.2313 -0.2206
15761SOL    HW159342   7.988   8.868   6.391 -0.4559  1.4349 -1.7799
15761SOL    HW259343   7.826   8.872   6.376 -0.6612 -0.5028 -0.2895
15762SOL     OW59344   9.279   0.715   5.790  0.1674 -0.7190  0.4330
15762SOL    HW159345   9.355   0.726   5.853 -0.3900 -0.3155  1.0367
15762SOL    HW259346   9.293   0.632   5.735  1.2029 -0.4721  0.3018
15763SOL     OW59347   1.809   0.450   3.985 -0.0133  0.9186 -0.1784
15763SOL    HW159348   1.723   0.483   4.023  0.4640  1.5128  0.3987
15763SOL    HW259349   1.841   0.516   3.916  0.1486  0.8721 -0.1471
15764SOL     OW59350   6.893   9.838   6.265  0.1546  0.1624  0.0608
15764SOL    HW159351   6.938   9.866   6.349  0.9504  1.6642 -0.8400
15764SOL    HW259352   6.829   9.910   6.237 -0.5513 -0.6000 -0.2968
15765SOL     OW59353   3.771   9.833   7.588 -0.8260  0.0288  0.1205
15765SOL    HW159354   3.858   9.812   7.544 -1.3873 -0.3413 -0.8152
15765SOL    HW259355   3.758   9.932   7.592 -0.1227  0.1027  0.7434
15766SOL     OW59356   0.350   2.794   4.690  0.4250  0.3306  0.6575
15766SOL    HW159357   0.274   2.857   4.705  0.8900  0.3502  3.0038
15766SOL    HW259358   0.436   2.844   4.698  0.7611 -0.3304  1.1457
15767SOL     OW59359   5.900   9.021   5.230  0.5762 -0.4349 -0.0776
15767SOL    HW159360   5.942   9.062   5.311  0.6143 -1.0607  0.2223
15767SOL    HW259361   5.806   8.996   5.251  0.5480 -0.4855 -0.2656
15768SOL     OW59362   4.675   5.441   9.980 -0.3211  0.1173  0.3235
15768SOL    HW159363   4.658   5.343   9.970 -0.8013  0.3442 -1.1653
15768SOL    HW259364   4.770   5.456  10.006  0.0151 -0.6870 -0.4532
15769SOL     OW59365   4.343   3.750   9.792  0.2769 -0.7154 -0.7975
15769SOL    HW159366   4.403   3.822   9.758  0.7570 -0.4019  0.6686
15769SOL    HW259367   4.375   3.719   9.882 -1.3964 -0.9620 -0.2604
15770SOL     OW59368   8.337   5.064   6.163  0.0503  0.0409  0.4185
15770SOL    HW159369   8.407   5.017   6.110 -0.4696  1.4275 -1.5612
15770SOL    HW259370   8.373   5.151   6.196 -0.3577  0.2322  0.3671
15771SOL     OW59371   8.022   3.837   7.284  0.2501 -0.5568 -0.0993
15771SOL    HW159372   8.014   3.842   7.184  0.5392 -0.9587 -0.1433
15771SOL    HW259373   7.962   3.765   7.319  0.9081 -1.0946 -0.0799
15772SOL     OW59374   6.184   0.868   1.615  0.2323  0.7527  0.5704
15772SOL    HW159375   6.224   0.788   1.571  0.4511  1.3016 -0.2489
15772SOL    HW259376   6.130   0.839   1.694  0.7882 -0.1444  0.6292
15773SOL     OW59377   1.746   6.709   3.666  0.9342 -0.0949 -0.6092
15773SOL    HW159378   1.830   6.661   3.690  0.2388 -1.8582 -1.5774
15773SOL    HW259379   1.673   6.679   3.728  0.5790  0.0188 -0.9731
15774SOL     OW59380   2.376   8.088   5.008  0.2063 -0.1153  0.0794
15774SOL    HW159381   2.371   8.022   5.083  0.1803  0.0184  0.1956
15774SOL    HW259382   2.312   8.061   4.937 -0.1992  0.0895  0.3682
15775SOL     OW59383   0.475   4.402   8.872  0.0526 -0.7479  0.0301
15775SOL    HW159384   0.498   4.461   8.950 -1.3443 -0.1095 -0.0310
15775SOL    HW259385   0.403   4.339   8.898 -2.4945  1.4249 -1.5680
15776SOL     OW59386   2.038   5.757   2.735 -0.0668  0.1059  0.1732
15776SOL    HW159387   2.128   5.714   2.736  0.2658  0.7351 -1.2853
15776SOL    HW259388   1.969   5.691   2.767  1.1692  0.3121  3.4588
15777SOL     OW59389   4.558   1.211   9.057  0.0191 -0.1331 -0.1068
15777SOL    HW159390   4.497   1.132   9.066 -1.2873  0.9073  0.3994
15777SOL    HW259391   4.580   1.246   9.148 -1.3439  1.5318 -0.4096
15778SOL     OW59392   3.075   3.812   2.941 -0.5163  0.5867  0.6311
15778SOL    HW159393   3.052   3.890   2.883  1.7103  0.4926 -0.4174
15778SOL    HW259394   3.048   3.831   3.036 -0.7419  2.2834  0.2345
15779SOL     OW59395   8.996   9.720   8.970 -0.9893  0.1039  0.0771
15779SOL    HW159396   9.022   9.643   9.028 -0.5219 -1.7841 -2.5234
15779SOL    HW259397   9.077   9.777   8.952 -0.5342 -0.8152 -0.8579
15780SOL     OW59398   6.461   7.656   6.128  0.2262 -0.4687 -0.1978
15780SOL    HW159399   6.517   7.711   6.066  0.1870 -1.0851 -0.7896
15780SOL    HW259400   6.420   7.715   6.197  1.1787  0.0668 -0.0764
15781SOL     OW59401   5.163   6.919   1.836  0.5702 -0.3715 -0.2682
15781SOL    HW159402   5.086   6.860   1.860 -0.2104  1.2989  1.4490
15781SOL    HW259403   5.236   6.864   1.794 -0.4667 -2.3887  0.5359
15782SOL     OW59404   1.414   9.004   8.397 -0.5269 -0.5349 -0.5527
15782SOL    HW159405   1.330   8.951   8.410 -1.0137  0.2809 -0.2827
15782SOL    HW259406   1.467   8.965   8.322 -1.0029 -1.2392 -0.5311
15783SOL     OW59407   0.384   2.980   4.164 -0.0828 -0.1957  0.5684
15783SOL    HW159408   0.455   2.911   4.151  1.0508  1.3307 -1.5165
15783SOL    HW259409   0.297   2.944   4.132  0.1396 -1.2868  1.1438
15784SOL     OW59410   8.815   8.656   8.730 -0.4448 -0.2834 -0.5847
15784SOL    HW159411   8.840   8.750   8.709  0.3783 -0.3171  0.1744
15784SOL    HW259412   8.795   8.648   8.828 -2.0451 -0.5725 -0.9284
15785SOL     OW59413   8.304   2.712   2.274  0.2142  0.0695 -0.3035
15785SOL    HW159414   8.368   2.725   2.198 -1.3065  0.8618 -1.4830
15785SOL    HW259415   8.281   2.801   2.313 -0.8820 -0.1333 -0.4879
15786SOL     OW59416   7.281   9.544   3.760  0.3297  0.4286 -0.1087
15786SOL    HW159417   7.212   9.496   3.706  1.7580  0.3809 -1.9399
15786SOL    HW259418   7.253   9.639   3.773 -0.7613  0.0398  0.3899
15787SOL     OW59419   0.356   1.282  10.059 -0.4420  0.3214 -0.0095
15787SOL    HW159420   0.341   1.203  10.000  1.5402  0.6593 -1.0195
15787SOL    HW259421   0.305   1.360  10.023  0.5692  0.4631 -1.1486
15788SOL     OW59422   3.857   3.593   7.186  0.4443  0.8749  0.0440
15788SOL    HW159423   3.789   3.655   7.226  0.3094  0.3506  0.6269
15788SOL    HW259424   3.811   3.514   7.146  0.7143  0.5555  0.3730
15789SOL     OW59425   0.689   2.562   5.186  0.3483 -0.2617  0.0477
15789SOL    HW159426   0.781   2.562   5.224  0.4533 -0.5101 -0.2012
15789SOL    HW259427   0.637   2.640   5.222  1.3715  1.1844 -1.5279
15790SOL     OW59428   1.547   4.528   6.470 -0.0732 -0.0719 -0.0545
15790SOL    HW159429   1.601   4.444   6.475 -0.8875 -0.6093 -0.1836
15790SOL    HW259430   1.505   4.546   6.559 -1.4055 -0.8267 -0.5041
15791SOL     OW59431   9.299   8.910   0.936 -0.7139 -0.2458 -0.4044
15791SOL    HW159432   9.396   8.897   0.914 -1.3765 -2.9874 -1.9184
15791SOL    HW259433   9.291   8.960   1.022  2.0574 -0.1058 -0.1863
15792SOL     OW59434   4.258   7.815   7.600  0.3937  0.0113 -0.6690
15792SOL    HW159435   4.310   7.757   7.538  0.2727 -0.9585  0.1184
15792SOL    HW259436   4.161   7.790   7.596  0.6815 -1.5570  1.5150
15793SOL     OW59437   5.611   1.863   6.058 -0.1758 -0.0999 -0.1172
15793SOL    HW159438   5.551   1.865   5.978  0.7390 -1.4282 -0.8567
15793SOL    HW259439   5.698   1.820   6.033  0.3968  0.1523  1.4077
15794SOL     OW59440   8.617   0.003   5.806 -0.1272 -0.6114 -0.5742
15794SOL    HW159441   8.709   0.029   5.836 -0.0333 -1.2345 -0.3141
15794SOL    HW259442   8.581   0.073   5.745  1.2696 -1.2704 -2.1807
15795SOL     OW59443   5.336   1.830   8.732  0.0425 -0.4694 -0.2157
15795SOL    HW159444   5.407   1.878   8.784 -0.2691  1.8475 -1.8357
15795SOL    HW259445   5.246   1.863   8.760 -0.1938 -0.2796 -1.2000
15796SOL     OW59446   3.990   3.693   0.834  0.3225 -0.3184 -0.2734
15796SOL    HW159447   3.975   3.790   0.852  0.7380 -0.3029 -0.0309
15796SOL    HW259448   3.967   3.640   0.915 -1.5187 -0.5704 -0.9251
15797SOL     OW59449   2.634   1.111   7.725  0.2488  0.6376  0.0178
15797SOL    HW159450   2.700   1.149   7.790  0.7816 -0.0370 -0.1268
15797SOL    HW259451   2.547   1.158   7.736  1.3308  3.0484 -1.2713
15798SOL     OW59452   8.899   6.017   5.833 -0.1997  1.0405  0.1705
15798SOL    HW159453   8.805   6.023   5.866 -0.1732 -0.9607  0.6533
15798SOL    HW259454   8.957   6.078   5.887 -0.8491  0.6806  1.2818
15799SOL     OW59455   1.266   5.417   5.800 -0.4639 -0.3294 -0.2290
15799SOL    HW159456   1.309   5.376   5.880  0.3818  0.2198 -0.3972
15799SOL    HW259457   1.282   5.515   5.799 -2.4507  0.0212  0.1433
15800SOL     OW59458   0.006   5.533   1.870 -0.1970 -0.1585  0.0926
15800SOL    HW159459   0.008   5.536   1.970 -1.2618 -0.8553  0.1355
15800SOL    HW259460  -0.078   5.489   1.839  0.8124 -1.2905 -1.0894
15801SOL     OW59461   4.703   7.363   6.089 -0.2084 -0.2964  0.5845
15801SOL    HW159462   4.694   7.285   6.027 -2.5446 -0.2755  0.8370
15801SOL    HW259463   4.771   7.342   6.159  0.6073 -1.3158 -0.4892
15802SOL     OW59464   8.116   9.244   5.730 -0.8793  0.0116  0.0022
15802SOL    HW159465   8.088   9.156   5.769  1.3617 -0.6769  0.1197
15802SOL    HW259466   8.096   9.317   5.795 -3.8531 -0.2136 -0.5687
15803SOL     OW59467   1.258   3.337   2.641 -0.1197  0.0956 -0.3060
15803SOL    HW159468   1.187   3.392   2.685  0.5147  0.5664  0.1516
15803SOL    HW259469   1.249   3.343   2.541 -0.6802  0.1989 -0.2472
15804SOL     OW59470   9.058   1.510   8.755 -0.0556 -0.1063  0.3009
15804SOL    HW159471   9.058   1.555   8.665  3.3250 -1.6508 -0.5543
15804SOL    HW259472   9.031   1.414   8.744 -0.6418 -0.0303  1.0855
15805SOL     OW59473   0.697   9.580   9.717 -0.2893 -0.0432  0.6358
15805SOL    HW159474   0.619   9.590   9.778 -0.8784  1.5181 -0.3182
15805SOL    HW259475   0.666   9.591   9.622  1.2047  1.5441  0.3016
15806SOL     OW59476   8.097   4.889   5.842  0.5795 -0.0834  0.8636
15806SOL    HW159477   8.071   4.821   5.775 -0.6145  0.1082  1.1225
15806SOL    HW259478   8.077   4.981   5.807 -1.4098 -0.0415  2.0332
15807SOL     OW59479   0.571   9.990   4.202 -0.4168  0.0823  0.2566
15807SOL    HW159480   0.519   9.979   4.118  1.3903  0.2442 -0.9178
15807SOL    HW259481   0.574   9.904   4.252 -1.9347  0.1207  0.4207
15808SOL     OW59482   1.276   8.175   4.521 -0.3718 -0.1510 -0.2703
15808SOL    HW159483   1.308   8.164   4.426  0.9107  0.7367  0.0361
15808SOL    HW259484   1.355   8.182   4.581 -1.1819  0.6155  0.7104
15809SOL     OW59485   7.162   8.128   5.837  0.3234 -0.4311 -0.4246
15809SOL    HW159486   7.096   8.055   5.853  0.5109 -0.9149 -1.7346
15809SOL    HW259487   7.238   8.119   5.901  0.5055 -1.6060 -0.7749
15810SOL     OW59488   0.388   6.678   7.344 -0.5860  0.2310 -0.0758
15810SOL    HW159489   0.472   6.714   7.304  0.4413 -2.1918 -0.1842
15810SOL    HW259490   0.322   6.752   7.354  1.2777  2.0408 -0.6757
15811SOL     OW59491   9.913   9.706   1.997  0.3046  0.3086 -0.3545
15811SOL    HW159492   9.897   9.657   2.083  0.3373  1.7448  0.4942
15811SOL    HW259493   9.917   9.641   1.922 -0.0483 -0.9472  0.6896
15812SOL     OW59494   3.223   2.797   2.060  0.5478  0.4457 -0.1219
15812SOL    HW159495   3.288   2.734   2.103  1.7529  0.9297 -1.1895
15812SOL    HW259496   3.194   2.761   1.971 -2.9062 -1.1588  1.5536
15813SOL     OW59497   0.421   8.988   4.083  0.0418  0.1334  0.2498
15813SOL    HW159498   0.519   9.008   4.081 -0.1329  0.8961 -1.1204
15813SOL    HW259499   0.407   8.895   4.118  1.3752 -0.6406 -1.1885
15814SOL     OW59500   4.766   4.486   2.658  0.1679 -0.0445  0.0089
15814SOL    HW159501   4.675   4.526   2.650 -0.4573 -1.0457  1.6962
15814SOL    HW259502   4.803   4.504   2.749 -0.6298 -4.1401  1.2813
15815SOL     OW59503   2.504   8.501   6.076  0.3522  0.1184 -0.1078
15815SOL    HW159504   2.503   8.468   5.982  0.1604  0.3548 -0.1918
15815SOL    HW259505   2.502   8.601   6.076  1.1230  0.1376  0.1397
15816SOL     OW59506   3.945   9.507   1.652  0.6394 -0.2118 -0.5528
15816SOL    HW159507   3.845   9.507   1.659  0.6042  0.4820 -1.0085
15816SOL    HW259508   3.982   9.584   1.703  0.8463  0.3903 -1.5917
15817SOL     OW59509   0.376   4.876   8.024 -0.0475 -0.3643  0.0399
15817SOL    HW159510   0.434   4.932   7.966 -0.3204 -1.1453 -1.0062
15817SOL    HW259511   0.431   4.835   8.097  0.0525  1.6648  1.1347
15818SOL     OW59512   5.108   1.826   2.629  0.2630  0.5234 -0.0880
15818SOL    HW159513   5.159   1.830   2.715 -0.9471  0.0459  0.6639
15818SOL    HW259514   5.162   1.779   2.560  1.5732  1.6135  0.1823
15819SOL     OW59515   8.796   0.308   6.316 -0.2140  0.1213  0.2735
15819SOL    HW159516   8.828   0.276   6.405 -0.4195  1.1167  0.7109
15819SOL    HW259517   8.829   0.402   6.300 -1.3852  0.4872 -0.0622
15820SOL     OW59518   3.297   2.914   5.782 -0.5059  0.0377 -0.2141
15820SOL    HW159519   3.248   2.998   5.803 -2.3711 -1.3274  1.0119
15820SOL    HW259520   3.324   2.868   5.867  0.0124 -0.8821 -0.8619
15821SOL     OW59521   8.582   8.237   3.634  0.2152  0.2623  0.1308
15821SOL    HW159522   8.529   8.156   3.609  1.5350 -0.9634  1.2097
15821SOL    HW259523   8.569   8.256   3.732  0.4978  0.9108  0.0448
15822SOL     OW59524   4.619   5.514   1.565 -0.1243 -0.0118  0.0453
15822SOL    HW159525   4.652   5.570   1.489  0.3100 -1.1974 -0.6576
15822SOL    HW259526   4.525   5.487   1.546 -0.2796  0.3390  0.3083
15823SOL     OW59527   3.227   3.433   0.391 -0.0318  0.1492  0.0799
15823SOL    HW159528   3.272   3.446   0.480  0.1238  2.3086 -0.2775
15823SOL    HW259529   3.133   3.402   0.406  0.1473  0.0145  0.9871
15824SOL     OW59530   3.581   6.318   1.543 -0.1378  0.1919 -0.3195
15824SOL    HW159531   3.554   6.402   1.592 -0.1203 -0.0004  0.0234
15824SOL    HW259532   3.509   6.250   1.553  0.5469 -0.3953  0.7696
15825SOL     OW59533   0.253   5.435   6.741 -0.6505 -0.2348 -0.1877
15825SOL    HW159534   0.213   5.492   6.814  2.1962  0.8838  0.5644
15825SOL    HW259535   0.230   5.339   6.758 -1.1948  0.1530  1.4204
15826SOL     OW59536   0.214   8.149   5.965  0.3599  0.2145 -0.3394
15826SOL    HW159537   0.267   8.084   6.020  0.6173  0.0409 -0.7837
15826SOL    HW259538   0.137   8.183   6.018 -0.8217 -1.8118 -0.6866
15827SOL     OW59539   2.598   9.844   1.847  0.2622 -0.3627  0.2977
15827SOL    HW159540   2.502   9.871   1.859  0.9143  2.9104 -1.3786
15827SOL    HW259541   2.606   9.792   1.761  0.3893  1.8206 -1.0590
15828SOL     OW59542   9.736   6.459   3.903 -0.0276 -0.6585  0.1149
15828SOL    HW159543   9.736   6.372   3.951  0.9422 -0.4489  0.5030
15828SOL    HW259544   9.775   6.530   3.962  1.6024 -0.4919 -1.1343
15829SOL     OW59545   5.223   8.228   7.125 -0.0694 -0.4807  0.3710
15829SOL    HW159546   5.221   8.305   7.061 -0.2481  0.1946  1.1791
15829SOL    HW259547   5.313   8.221   7.167  0.3327 -1.4989 -0.6341
15830SOL     OW59548   0.115   1.160   9.231  0.6347  0.4622  0.0187
15830SOL    HW159549   0.122   1.202   9.321 -2.1163 -0.0920  0.5588
15830SOL    HW259550   0.057   1.078   9.237 -0.1452  0.7823 -2.3549
15831SOL     OW59551   8.846   2.890   6.908  0.5120 -0.4201  0.2219
15831SOL    HW159552   8.942   2.873   6.884  0.3869 -1.0446  0.1661
15831SOL    HW259553   8.798   2.926   6.828  0.6470 -0.3264  0.1838
15832SOL     OW59554   3.010   5.889   7.855 -0.7593 -0.2579  0.1507
15832SOL    HW159555   3.043   5.912   7.763  2.7754 -1.2668  1.1235
15832SOL    HW259556   2.975   5.795   7.855  0.8676 -0.8739  0.2220
15833SOL     OW59557   1.320   4.734   7.587 -0.8875  0.5403 -0.5506
15833SOL    HW159558   1.281   4.696   7.671 -2.0835  0.0590 -1.3134
15833SOL    HW259559   1.252   4.790   7.541  0.0673  1.5618 -0.7322
15834SOL     OW59560   2.476   3.561   0.764 -0.6069  0.3071  0.1259
15834SOL    HW159561   2.451   3.477   0.813 -1.8239  0.0839 -0.8538
15834SOL    HW259562   2.558   3.544   0.709  1.6798  0.9851  3.1953
15835SOL     OW59563   3.577   2.576   6.660 -0.4197  0.3761 -0.1721
15835SOL    HW159564   3.628   2.543   6.581  0.4447 -0.3946  0.6961
15835SOL    HW259565   3.567   2.501   6.726 -1.2372  0.9808  0.3907
15836SOL     OW59566   1.179   5.543  10.066 -0.5028  0.8926  0.6229
15836SOL    HW159567   1.169   5.640  10.043 -1.2024  0.6073 -0.3074
15836SOL    HW259568   1.275   5.524  10.086 -0.3879  1.8100  0.9565
15837SOL     OW59569   3.116   3.088   6.320  0.5933  0.1745  0.0378
15837SOL    HW159570   3.086   3.183   6.332  0.4571  0.0586  0.6243
15837SOL    HW259571   3.071   3.030   6.388  2.1079 -0.0077  0.8941
15838SOL     OW59572   9.822   6.579   8.765 -0.0959  0.4709 -0.3499
15838SOL    HW159573   9.868   6.663   8.736 -0.2198  1.0068  0.9838
15838SOL    HW259574   9.728   6.599   8.791  0.2525  0.1569  1.2187
15839SOL     OW59575   7.223   1.067   7.791  0.0812  0.3053 -0.2866
15839SOL    HW159576   7.268   1.150   7.757  1.5723 -0.9119 -1.3703
15839SOL    HW259577   7.288   1.014   7.846 -1.1480  0.3020  1.1777
15840SOL     OW59578   1.936   8.901   1.917  0.2334 -0.1313  0.3459
15840SOL    HW159579   1.988   8.816   1.928  0.9532  0.1560 -0.6673
15840SOL    HW259580   1.990   8.978   1.952  1.5375  0.4682 -2.7869
15841SOL     OW59581   3.087   5.816   1.686  0.0423 -0.2193 -0.5754
15841SOL    HW159582   2.997   5.801   1.646  0.2077 -1.0793 -0.6371
15841SOL    HW259583   3.085   5.897   1.746 -1.0590 -0.9042  0.3246
15842SOL     OW59584   1.236   4.135   1.155  0.0750  0.8320  0.6261
15842SOL    HW159585   1.256   4.213   1.095 -0.4221  0.7459  0.3380
15842SOL    HW259586   1.262   4.050   1.109 -0.4965  0.7519  0.4380
15843SOL     OW59587   8.962   9.984   3.014 -0.2759 -0.1609 -0.2417
15843SOL    HW159588   8.912   9.968   2.929 -0.7194  0.6205 -0.1281
15843SOL    HW259589   8.973   9.897   3.063 -1.2324 -0.3880 -0.4265
15844SOL     OW59590   9.135   5.536   6.578  0.6598 -0.4633 -0.4333
15844SOL    HW159591   9.084   5.456   6.610 -1.6837  0.3308 -1.9756
15844SOL    HW259592   9.157   5.525   6.481  1.1912  0.3351 -0.4097
15845SOL     OW59593   5.181   2.413   0.302  0.1916 -1.2242  0.2410
15845SOL    HW159594   5.129   2.468   0.237  1.3573 -0.2986  0.0734
15845SOL    HW259595   5.200   2.323   0.262  0.5300 -0.8128 -0.5293
15846SOL     OW59596   4.919   5.008   9.705 -0.4193  0.1289 -0.1473
15846SOL    HW159597   4.954   5.072   9.636 -1.0335  0.3849 -0.2239
15846SOL    HW259598   4.883   5.059   9.783  0.6013 -0.1725  0.5274
15847SOL     OW59599   8.737   2.175   9.300 -0.0518 -0.9563  0.1037
15847SOL    HW159600   8.686   2.178   9.214  0.3466 -3.8150 -0.2612
15847SOL    HW259601   8.724   2.261   9.349 -2.3517 -0.2815 -1.6174
15848SOL     OW59602   8.375   0.246   2.219  0.0468 -0.2657  0.5663
15848SOL    HW159603   8.350   0.197   2.135  0.4009 -0.5375  0.6187
15848SOL    HW259604   8.354   0.343   2.208  0.0444 -0.3086  0.1790
15849SOL     OW59605   2.804   5.473   6.478 -0.3009 -0.0180 -0.1023
15849SOL    HW159606   2.840   5.382   6.456 -0.6966  0.2186 -1.8735
15849SOL    HW259607   2.821   5.494   6.574  0.0219 -1.8587  0.2606
15850SOL     OW59608   1.310   6.244   4.583  0.0041 -0.0853  0.0719
15850SOL    HW159609   1.355   6.156   4.568 -0.2268 -0.2217  0.1832
15850SOL    HW259610   1.304   6.293   4.496  0.6173  0.0530  0.1049
15851SOL     OW59611   2.458   0.302   0.551  0.0741 -0.7217  0.5762
15851SOL    HW159612   2.361   0.294   0.526 -0.1095  1.6267  0.4123
15851SOL    HW259613   2.466   0.344   0.641  0.9249 -0.3899  0.3522
15852SOL     OW59614   7.997   7.318   0.855 -0.2654  0.3715  0.2914
15852SOL    HW159615   8.037   7.382   0.790  1.0074  0.3025  0.9972
15852SOL    HW259616   7.998   7.226   0.816 -1.1784  0.6071 -0.3156
15853SOL     OW59617   7.796   2.810   5.955 -0.3517  0.0514  0.4361
15853SOL    HW159618   7.875   2.793   5.895 -1.0353  1.0911 -0.7976
15853SOL    HW259619   7.742   2.885   5.917 -0.5122  1.0912  2.6709
15854SOL     OW59620   4.281   3.088   2.267  0.4373  0.2497 -0.6056
15854SOL    HW159621   4.270   3.140   2.182  0.6385  0.2586 -0.6262
15854SOL    HW259622   4.227   3.004   2.262 -1.0727  1.1683  0.0141
15855SOL     OW59623   6.283   2.851   2.781 -0.2727 -0.4810  0.1821
15855SOL    HW159624   6.217   2.796   2.833 -1.2886  0.6900  0.1416
15855SOL    HW259625   6.373   2.845   2.825 -0.8810 -0.3833  1.4546
15856SOL     OW59626   8.414   6.818   1.199 -0.1274  0.0303  0.1427
15856SOL    HW159627   8.456   6.881   1.134 -0.5418 -0.1625 -0.3185
15856SOL    HW259628   8.473   6.737   1.209  0.7836  0.8282  1.3258
15857SOL     OW59629   9.318   0.909   8.055 -0.3791  0.1453 -0.0351
15857SOL    HW159630   9.354   1.001   8.041 -2.6183  1.0243 -0.1090
15857SOL    HW259631   9.366   0.845   7.994  0.1698  1.4904 -1.0371
15858SOL     OW59632   5.710   0.884   0.911 -0.5017  0.5088  0.0912
15858SOL    HW159633   5.617   0.881   0.874  0.1720  0.5707 -1.6964
15858SOL    HW259634   5.738   0.979   0.925  1.3020  0.8724 -4.8768
15859SOL     OW59635   0.624   3.480   3.704  0.0029 -0.0519  0.4401
15859SOL    HW159636   0.556   3.426   3.656 -0.0972  0.5526 -0.1072
15859SOL    HW259637   0.599   3.577   3.700  0.1172  0.0290  1.5107
15860SOL     OW59638   4.407   8.227   5.514  0.4313  0.0515  0.3515
15860SOL    HW159639   4.473   8.267   5.578  0.7021  0.6304 -0.2801
15860SOL    HW259640   4.327   8.286   5.507  0.1793 -0.2674  0.5412
15861SOL     OW59641   7.780   5.507   4.687 -0.3815  0.0929  0.1778
15861SOL    HW159642   7.792   5.416   4.647 -1.0509 -0.6626  1.6396
15861SOL    HW259643   7.860   5.530   4.742 -1.3348 -0.7705  1.9719
15862SOL     OW59644   1.265   1.339   1.974  0.1598  0.3885  0.3869
15862SOL    HW159645   1.228   1.296   2.056 -0.5804  0.2845  0.0064
15862SOL    HW259646   1.333   1.408   1.999  4.3086 -3.6534  0.8912
15863SOL     OW59647   9.019   2.567   9.170  0.7223 -0.3262 -0.3987
15863SOL    HW159648   8.967   2.489   9.203  1.2271 -0.9597 -1.0759
15863SOL    HW259649   9.116   2.555   9.193  0.5906  0.8074  0.7943
15864SOL     OW59650   8.897   9.975   6.569 -0.3199  0.1943  0.0658
15864SOL    HW159651   8.983   9.942   6.609  0.0014 -2.0815 -2.3868
15864SOL    HW259652   8.833   9.899   6.560 -1.7250  1.4093 -0.3391
15865SOL     OW59653   0.003   9.080   4.835  0.0518 -0.1456 -0.3074
15865SOL    HW159654  -0.007   9.179   4.821  0.5856 -0.2491 -1.4896
15865SOL    HW259655   0.081   9.062   4.894 -0.8744  0.1911  1.0645
15866SOL     OW59656   6.656   8.155   4.081 -0.1690 -0.3511 -0.6656
15866SOL    HW159657   6.616   8.247   4.074  0.4814 -0.1670 -2.2620
15866SOL    HW259658   6.591   8.088   4.045 -0.8130 -0.5896  0.8841
15867SOL     OW59659   2.487   0.595   1.636  0.1506 -0.3377  0.1383
15867SOL    HW159660   2.531   0.650   1.565 -0.0738 -0.8132 -0.3796
15867SOL    HW259661   2.487   0.498   1.608 -0.5798 -0.4324  0.4525
15868SOL     OW59662   9.472   5.809   6.956  0.1141 -0.1897  0.1037
15868SOL    HW159663   9.563   5.831   6.922  0.5410  0.0791  1.3688
15868SOL    HW259664   9.425   5.750   6.891  1.9739 -2.0471  0.3878
15869SOL     OW59665   0.450   9.766   3.674  0.2807 -0.5032 -0.1542
15869SOL    HW159666   0.535   9.736   3.631 -1.0704 -3.3091 -0.9748
15869SOL    HW259667   0.407   9.837   3.618  0.7797 -0.9516 -1.1100
15870SOL     OW59668   7.153   6.123   1.856  0.2590  0.4883 -0.0986
15870SOL    HW159669   7.122   6.171   1.938  3.0362  1.6512  0.2900
15870SOL    HW259670   7.163   6.188   1.781 -1.5286 -0.4537 -1.2060
15871SOL     OW59671   6.148   2.240   2.824 -1.5806  0.0981  0.1928
15871SOL    HW159672   6.175   2.305   2.895 -0.8317  0.5705 -0.5082
15871SOL    HW259673   6.204   2.157   2.833 -1.9736 -0.1226  0.5902
15872SOL     OW59674   1.446   0.351   9.544 -0.0498  0.3146 -0.2048
15872SOL    HW159675   1.524   0.317   9.493 -0.0544  0.0870 -0.0583
15872SOL    HW259676   1.478   0.407   9.620  0.0420 -1.6136  1.1939
15873SOL     OW59677   3.780   1.697   1.588  0.0747 -0.3211  0.2275
15873SOL    HW159678   3.689   1.657   1.600 -0.6644  1.2810  0.1357
15873SOL    HW259679   3.818   1.720   1.678 -0.3519  0.5850  0.1851
15874SOL     OW59680   6.749   9.634   4.837 -0.4550  0.1862 -0.0422
15874SOL    HW159681   6.772   9.637   4.934  0.4840  3.4552 -0.2930
15874SOL    HW259682   6.657   9.671   4.824 -0.8849 -0.9824 -0.3127
15875SOL     OW59683   5.068   4.519   9.320  0.0086 -0.4220 -0.3787
15875SOL    HW159684   4.979   4.546   9.357 -0.8362 -2.4021 -0.9311
15875SOL    HW259685   5.137   4.585   9.349 -1.6607  1.2240 -0.0774
15876SOL     OW59686   2.117   7.602   5.132  0.3132  0.0060  0.2167
15876SOL    HW159687   2.134   7.621   5.035 -1.2787  2.9634  0.4672
15876SOL    HW259688   2.099   7.504   5.144  1.3832 -0.5414 -2.3124
15877SOL     OW59689   2.399   1.437   6.946 -0.4856 -0.4953  0.1921
15877SOL    HW159690   2.443   1.424   7.035  1.3309  1.0340 -0.4515
15877SOL    HW259691   2.303   1.409   6.952 -0.0574 -1.6242  2.2740
15878SOL     OW59692   7.625   7.460   3.763 -0.2996  0.6250 -0.4399
15878SOL    HW159693   7.710   7.440   3.716 -0.4060 -0.4547 -0.1978
15878SOL    HW259694   7.643   7.480   3.859 -0.4971 -1.6831  0.1020
15879SOL     OW59695   6.339   0.005   3.520 -0.9178 -1.0225 -0.0130
15879SOL    HW159696   6.273   0.006   3.445 -1.2936 -3.2431  0.2308
15879SOL    HW259697   6.304  -0.054   3.593  1.3376 -2.2496  0.1032
15880SOL     OW59698   8.786   4.834   9.377  0.2741 -0.1033 -0.2712
15880SOL    HW159699   8.865   4.797   9.329  1.4537  1.1548  0.6749
15880SOL    HW259700   8.726   4.880   9.311  0.6720 -0.4400 -0.8795
15881SOL     OW59701   9.020   0.917   4.732 -0.4676 -0.0586  0.6325
15881SOL    HW159702   8.927   0.891   4.704  0.0129 -0.8121 -0.2690
15881SOL    HW259703   9.070   0.951   4.653  0.9565 -2.3497  0.5197
15882SOL     OW59704   7.907   9.833   5.546  0.2246 -0.3532 -0.1255
15882SOL    HW159705   7.857   9.864   5.465 -0.2559  0.5310  0.4954
15882SOL    HW259706   7.898   9.902   5.618  0.7050 -1.1061  0.6561
15883SOL     OW59707   9.368   0.495   7.853 -0.2121  0.1283 -0.5605
15883SOL    HW159708   9.274   0.505   7.886  0.2069  0.6406  0.4770
15883SOL    HW259709   9.375   0.410   7.800 -1.0860 -0.2554 -0.0750
15884SOL     OW59710   0.024   9.876   7.478 -0.4452 -0.3569 -0.3557
15884SOL    HW159711   0.043   9.870   7.576 -0.4992 -2.4870 -0.4530
15884SOL    HW259712   0.043   9.969   7.446 -1.3307  0.6059  1.8498
15885SOL     OW59713   8.068   9.281   6.569 -0.1632  0.6123 -0.3697
15885SOL    HW159714   8.099   9.354   6.509  0.1022 -0.5519 -1.6677
15885SOL    HW259715   8.123   9.280   6.652  0.6554  1.0799 -0.9080
15886SOL     OW59716   8.735   7.935   7.490 -0.0081 -0.3345  0.1654
15886SOL    HW159717   8.718   8.031   7.470  1.4442 -0.0624  0.1800
15886SOL    HW259718   8.654   7.894   7.531 -0.9272  0.6638 -0.6283
15887SOL     OW59719   2.098   2.298   0.104  0.0577  0.8556 -0.5695
15887SOL    HW159720   2.134   2.221   0.156  1.8818  2.1030  0.0821
15887SOL    HW259721   2.022   2.268   0.046  0.1044 -1.1974  0.4152
15888SOL     OW59722   2.410   8.995   2.809 -0.2251  0.2731  0.3592
15888SOL    HW159723   2.440   8.902   2.786  0.0945  0.5318 -0.2854
15888SOL    HW259724   2.489   9.051   2.834 -0.3110  0.6252 -0.1550
15889SOL     OW59725   1.479   8.631   5.592  0.3914 -0.1839  0.4923
15889SOL    HW159726   1.508   8.577   5.513  1.9183 -1.6987  2.0215
15889SOL    HW259727   1.422   8.707   5.562  0.2026 -1.2489 -1.9640
15890SOL     OW59728   5.263   9.858   7.362 -0.0053  0.5064 -0.8853
15890SOL    HW159729   5.262   9.794   7.439 -2.3992  0.7736 -0.6297
15890SOL    HW259730   5.187   9.923   7.373 -0.1195  0.8102 -3.2409
15891SOL     OW59731   1.974   2.122   8.011  0.7189  0.3000  0.5830
15891SOL    HW159732   1.983   2.113   7.912  1.3470  1.5668  0.5192
15891SOL    HW259733   1.878   2.139   8.034  0.6726  0.6270  0.1483
15892SOL     OW59734   8.535   1.224   6.978  0.2901  0.3988  0.2472
15892SOL    HW159735   8.474   1.166   7.032  0.8773  1.3050  1.9359
15892SOL    HW259736   8.490   1.312   6.960 -0.8155 -0.7378 -2.7759
15893SOL     OW59737   9.687   3.333   5.254  0.1734 -0.0937 -0.2843
15893SOL    HW159738   9.767   3.276   5.238  0.8607 -0.0326  2.5894
15893SOL    HW259739   9.681   3.403   5.183  1.4755 -1.3857 -1.6926
15894SOL     OW59740   2.133   8.856   3.802 -0.6877 -0.7124 -0.4026
15894SOL    HW159741   2.064   8.920   3.770 -0.4050 -0.8692 -1.3363
15894SOL    HW259742   2.193   8.902   3.869  0.6138  0.5478 -2.3824
15895SOL     OW59743   3.705   6.095   7.577 -0.3247  0.0936 -0.3766
15895SOL    HW159744   3.638   6.120   7.647 -0.3841 -0.6829 -0.1505
15895SOL    HW259745   3.667   6.024   7.517 -0.6617  1.4982 -1.8416
15896SOL     OW59746   7.548   4.258   2.181 -0.0119  0.1319 -0.0741
15896SOL    HW159747   7.585   4.209   2.102 -0.2399  0.0116 -0.1069
15896SOL    HW259748   7.604   4.239   2.262  0.8597  1.1164 -0.4383
15897SOL     OW59749   0.356   3.403   3.169  0.6968 -0.3876 -0.3989
15897SOL    HW159750   0.287   3.470   3.197  1.2852 -0.1879  0.5902
15897SOL    HW259751   0.389   3.425   3.077  0.7843  0.6057 -0.1345
15898SOL     OW59752   0.384   2.129   6.530 -0.5097  0.0860  0.7608
15898SOL    HW159753   0.349   2.222   6.541  3.5259  1.6667  1.3299
15898SOL    HW259754   0.370   2.079   6.616 -2.2853  0.2857  0.6095
15899SOL     OW59755   7.327   6.533   4.847 -0.2348  0.0116  0.1362
15899SOL    HW159756   7.308   6.600   4.775  0.6331 -0.5972 -0.6646
15899SOL    HW259757   7.375   6.578   4.922  0.3669  0.2978 -0.4123
15900SOL     OW59758   0.034   0.194   9.207 -0.0569 -0.2814  0.0363
15900SOL    HW159759  -0.003   0.274   9.253  1.7055  0.6177 -0.1147
15900SOL    HW259760  -0.019   0.113   9.234 -2.4178  1.0272 -0.5081
15901SOL     OW59761   4.300   9.047   1.298  0.7626  0.2280  0.2960
15901SOL    HW159762   4.226   9.069   1.362  1.8268  1.7345  1.0413
15901SOL    HW259763   4.379   9.105   1.318  3.0576 -3.0330  1.1265
15902SOL     OW59764   3.078   6.075   6.053  0.1859 -0.5132 -0.2037
15902SOL    HW159765   3.158   6.060   6.111 -0.7473  0.9880  1.4935
15902SOL    HW259766   3.008   6.007   6.073  0.0312 -0.2555  0.1365
15903SOL     OW59767   4.787   6.515   2.953  0.5485 -0.4694  0.0425
15903SOL    HW159768   4.804   6.420   2.925 -0.5786 -0.7095  0.1563
15903SOL    HW259769   4.713   6.518   3.020 -0.0778  0.5839 -0.6799
15904SOL     OW59770   7.747   2.016   2.719 -0.2062  0.1200  0.2071
15904SOL    HW159771   7.664   2.000   2.773  0.2030 -0.9388  0.5480
15904SOL    HW259772   7.738   1.972   2.630  0.3651 -0.8272  0.6088
15905SOL     OW59773   4.461   5.860   1.128 -0.4026 -0.1957  0.7541
15905SOL    HW159774   4.517   5.939   1.153  1.4042 -1.4651  0.7948
15905SOL    HW259775   4.385   5.852   1.193 -0.5855  1.4879  0.7651
15906SOL     OW59776   1.901   9.675   8.039  0.1234  0.5216 -0.5817
15906SOL    HW159777   1.988   9.677   7.991  0.6311  1.1530  0.3523
15906SOL    HW259778   1.835   9.621   7.986  1.7404 -1.9352 -0.1974
15907SOL     OW59779   9.468   0.661   0.022  0.1533  0.0988 -0.3657
15907SOL    HW159780   9.484   0.563   0.028 -0.2659  0.0580  0.0899
15907SOL    HW259781   9.556   0.708   0.009  0.2330 -0.4182 -1.7848
15908SOL     OW59782   5.020   4.284   9.867  0.1201  0.3464  0.2077
15908SOL    HW159783   4.978   4.205   9.911 -1.1499  1.5981  1.3181
15908SOL    HW259784   5.038   4.263   9.771  0.0321 -1.3620  0.5436
15909SOL     OW59785   9.029   0.885   0.233  0.2727 -0.2109 -0.9883
15909SOL    HW159786   9.105   0.893   0.169  0.0635 -0.7776 -1.3158
15909SOL    HW259787   8.976   0.970   0.232  0.9613  0.2212 -0.6753
15910SOL     OW59788   6.061   1.531   2.121 -0.3118 -0.5361  0.5127
15910SOL    HW159789   6.084   1.608   2.180  1.7231  0.2469 -1.2746
15910SOL    HW259790   6.076   1.445   2.171  0.9980  0.1264  1.2781
15911SOL     OW59791   1.469   4.439   2.524 -0.1910 -0.6762  0.4106
15911SOL    HW159792   1.522   4.390   2.594  0.3572 -0.1315  0.3752
15911SOL    HW259793   1.515   4.429   2.436  0.4805  0.7733  0.5888
15912SOL     OW59794   7.704   1.474   3.562 -0.3789 -0.2315 -0.7073
15912SOL    HW159795   7.722   1.519   3.649 -0.0188  1.1950 -1.4923
15912SOL    HW259796   7.632   1.405   3.574 -2.5782  2.0968  0.1317
15913SOL     OW59797   9.093   9.409   7.354  0.5388  0.1345  0.0006
15913SOL    HW159798   9.015   9.348   7.340  0.9013 -0.1721 -0.7434
15913SOL    HW259799   9.075   9.470   7.431 -1.0859  1.1086 -1.1205
15914SOL     OW59800   8.088   2.087   5.688 -0.4966 -0.2486  0.9518
15914SOL    HW159801   8.030   2.156   5.731 -0.8174  0.3395 -0.3953
15914SOL    HW259802   8.184   2.115   5.693 -0.6506  0.4207  0.1897
15915SOL     OW59803   7.127   9.328   7.313 -0.0488 -0.1742 -0.5418
15915SOL    HW159804   7.210   9.383   7.314  0.2234 -0.5887 -0.1820
15915SOL    HW259805   7.052   9.380   7.354  0.5768 -0.6474  1.2034
15916SOL     OW59806   4.717   3.647   7.825 -0.1631 -0.3828 -0.2268
15916SOL    HW159807   4.764   3.579   7.882  1.6831 -0.4535 -1.7680
15916SOL    HW259808   4.760   3.736   7.836 -1.1259  0.0531  0.0590
15917SOL     OW59809   2.648   5.160   8.896  0.7447 -0.6146  0.0633
15917SOL    HW159810   2.593   5.102   8.836 -1.0397 -1.2361  2.1962
15917SOL    HW259811   2.698   5.227   8.842 -2.4414  0.2561 -1.9762
15918SOL     OW59812   5.707   9.510   8.342 -0.1099 -0.3001  0.5351
15918SOL    HW159813   5.707   9.541   8.437 -1.9218  0.1503  0.4089
15918SOL    HW259814   5.795   9.530   8.300  0.7701 -0.6506  2.1579
15919SOL     OW59815   4.849   3.279   0.121 -0.5855 -0.2479  0.0136
15919SOL    HW159816   4.859   3.179   0.123 -0.8279 -0.2636  1.6773
15919SOL    HW259817   4.935   3.320   0.090 -0.4518 -0.9767 -0.5915
15920SOL     OW59818   9.754   1.524   0.039  0.0036  0.0617 -0.0839
15920SOL    HW159819   9.695   1.602   0.019  1.0695  0.4989 -1.6370
15920SOL    HW259820   9.717   1.442  -0.006  0.7437  0.4113 -1.3675
15921SOL     OW59821   9.500   5.748   6.289  0.2430 -0.0837  0.4566
15921SOL    HW159822   9.460   5.831   6.328 -0.3658 -0.0974 -0.1282
15921SOL    HW259823   9.519   5.763   6.192 -2.1412 -1.4127 -0.2606
15922SOL     OW59824   8.901   6.216   7.130  0.2801  0.7109 -0.6038
15922SOL    HW159825   8.944   6.134   7.165 -0.0248  0.0656 -1.7109
15922SOL    HW259826   8.815   6.192   7.084 -0.4700  1.7884  0.1906
15923SOL     OW59827   7.762   4.546   2.329  0.7316  0.6077  0.5189
15923SOL    HW159828   7.769   4.489   2.411 -1.4367  0.0257  0.3421
15923SOL    HW259829   7.679   4.522   2.279  0.2432  3.3009 -0.0476
15924SOL     OW59830   6.802   8.123   6.953  0.2512  0.1521 -0.6828
15924SOL    HW159831   6.707   8.143   6.927 -0.2238 -0.1784  0.7274
15924SOL    HW259832   6.847   8.208   6.981 -0.2404  0.0347  0.5138
15925SOL     OW59833   8.395   3.732   3.686 -0.3216  0.1540  0.2500
15925SOL    HW159834   8.487   3.695   3.696 -0.5543 -0.0060  2.0290
15925SOL    HW259835   8.328   3.662   3.710 -0.8478  0.7947  0.6816
15926SOL     OW59836   5.643   6.346   2.114  0.2063 -0.3943  0.0735
15926SOL    HW159837   5.699   6.356   2.032 -1.1012  0.6186 -0.7248
15926SOL    HW259838   5.661   6.258   2.156  2.2673 -0.1539 -0.2492
15927SOL     OW59839   7.175   4.133   7.655  0.0292  1.2210  0.3431
15927SOL    HW159840   7.233   4.179   7.587  0.8481 -0.4777 -0.1335
15927SOL    HW259841   7.232   4.074   7.712 -1.1317  0.2135  0.4610
15928SOL     OW59842   2.335   8.882   1.568  0.2510 -0.0565 -0.3201
15928SOL    HW159843   2.326   8.804   1.506  0.0129  0.2821 -0.7040
15928SOL    HW259844   2.428   8.918   1.562 -0.3694  1.2911 -2.0304
15929SOL     OW59845   0.045   2.598   6.765  0.6961 -0.5924 -0.3047
15929SOL    HW159846  -0.048   2.632   6.775  0.0624 -2.3861  0.1505
15929SOL    HW259847   0.094   2.609   6.851  0.5154 -0.7533 -0.1805
15930SOL     OW59848   8.687   6.634   6.902  0.2717  0.0547 -0.0519
15930SOL    HW159849   8.737   6.701   6.956  0.1953  0.4850 -0.5087
15930SOL    HW259850   8.732   6.545   6.908  0.8139  0.3275 -0.0643
15931SOL     OW59851   4.727   4.325   9.538  0.4810 -0.3184  0.0301
15931SOL    HW159852   4.730   4.292   9.633  0.8565  0.5704  0.3336
15931SOL    HW259853   4.755   4.252   9.476 -0.4493 -1.1236  0.5542
15932SOL     OW59854   7.678   0.987   0.200 -0.0896 -0.3572 -0.2197
15932SOL    HW159855   7.741   1.044   0.253  0.3332 -0.5123 -0.5560
15932SOL    HW259856   7.606   0.953   0.261  0.2514 -0.3265  0.2049
15933SOL     OW59857   9.500   9.871   3.874 -0.3957 -0.1197  0.4641
15933SOL    HW159858   9.559   9.952   3.875 -0.5666  0.0061  0.2276
15933SOL    HW259859   9.405   9.899   3.866 -0.3291 -0.4092 -1.7791
15934SOL     OW59860   2.892   7.105   5.532  0.8867 -0.5597  0.3832
15934SOL    HW159861   2.943   7.136   5.452  0.8466  0.0063  0.5702
15934SOL    HW259862   2.942   7.128   5.615 -0.3227  1.3172  0.6337
15935SOL     OW59863   3.245   0.843   4.380  0.2138  0.1067 -0.1054
15935SOL    HW159864   3.177   0.916   4.372 -0.1399 -0.0502  1.4000
15935SOL    HW259865   3.337   0.881   4.371  0.0408  0.7652  0.9237
15936SOL     OW59866   1.319   6.091   4.134  0.0532 -0.1421 -0.4163
15936SOL    HW159867   1.394   6.028   4.112 -0.5296 -0.8900 -0.2944
15936SOL    HW259868   1.279   6.125   4.049  0.3241  0.0183 -0.4828
15937SOL     OW59869   7.318   3.600   4.394 -0.1671  0.1892 -0.6201
15937SOL    HW159870   7.358   3.690   4.409 -0.5104  0.0230  1.3983
15937SOL    HW259871   7.283   3.564   4.480 -0.8595 -1.4890 -1.5749
15938SOL     OW59872   0.393   5.704   2.270  0.1537  0.2763 -0.2545
15938SOL    HW159873   0.425   5.745   2.355 -1.0366  1.5151 -0.3825
15938SOL    HW259874   0.360   5.611   2.287 -1.5717  1.0807  0.9751
15939SOL     OW59875   3.567   1.035   1.471  0.1688  0.5048  0.0216
15939SOL    HW159876   3.535   1.088   1.392  0.9037 -1.1782 -1.4403
15939SOL    HW259877   3.492   1.022   1.535 -0.2622  2.4798 -0.0598
15940SOL     OW59878   9.398   4.325   2.111  0.5054  0.3922  0.0340
15940SOL    HW159879   9.375   4.421   2.099  0.0867  0.5650  1.9758
15940SOL    HW259880   9.351   4.270   2.042 -1.2054  1.3237  0.4346
15941SOL     OW59881   4.816   4.270   8.101  0.7408  0.6589 -0.0129
15941SOL    HW159882   4.906   4.245   8.137  0.1495  1.3594  1.9862
15941SOL    HW259883   4.752   4.193   8.113  1.2523 -0.1678 -2.2289
15942SOL     OW59884   8.246   3.104   6.894  0.1161 -0.6329  0.3345
15942SOL    HW159885   8.269   3.186   6.946 -0.3214  0.4591 -1.1594
15942SOL    HW259886   8.162   3.119   6.843 -0.7312 -2.5131  1.1136
15943SOL     OW59887   8.945   5.815   3.519 -0.1308  0.0332  0.4381
15943SOL    HW159888   8.962   5.890   3.455 -0.6515 -0.0031  0.2580
15943SOL    HW259889   8.856   5.775   3.501  1.4487 -2.7811 -1.6428
15944SOL     OW59890   8.230   6.599   8.711  0.3367 -0.8354  0.0449
15944SOL    HW159891   8.194   6.545   8.788 -0.9387 -0.0870 -0.0228
15944SOL    HW259892   8.291   6.542   8.657  1.0956 -1.4460  1.4933
15945SOL     OW59893   8.911   3.149   4.107  0.0712  0.1076 -0.0162
15945SOL    HW159894   8.927   3.104   4.019 -0.3397  1.5651 -0.8718
15945SOL    HW259895   8.922   3.084   4.181  2.3680 -0.7057 -1.0221
15946SOL     OW59896   4.521   1.837   0.150  0.1827 -0.4687 -0.7649
15946SOL    HW159897   4.462   1.758   0.137  0.3340 -0.6512 -0.3243
15946SOL    HW259898   4.604   1.810   0.198 -0.0223  0.0737 -0.1007
15947SOL     OW59899   0.502   7.723   6.482  0.3795  0.4019  0.0543
15947SOL    HW159900   0.570   7.656   6.452  0.5592  0.4952  0.2472
15947SOL    HW259901   0.539   7.815   6.468 -0.1713  0.4742 -0.9243
15948SOL     OW59902   3.367   2.756   1.690 -0.3812 -0.3301  0.4564
15948SOL    HW159903   3.334   2.668   1.724  1.9584 -2.1924 -1.8429
15948SOL    HW259904   3.443   2.787   1.746  0.0455 -0.7655  0.1280
15949SOL     OW59905   2.180   9.672   2.692  0.2209 -0.3269  0.1128
15949SOL    HW159906   2.255   9.667   2.626  0.7399  1.5031  0.5153
15949SOL    HW259907   2.099   9.709   2.647  0.4294  0.4473  0.3571
15950SOL     OW59908   5.968   1.083   0.834 -0.2497 -0.5241  0.5082
15950SOL    HW159909   5.889   1.121   0.882 -1.2817 -0.3398 -1.2890
15950SOL    HW259910   5.972   0.984   0.848 -1.4152 -0.6886 -0.2163
15951SOL     OW59911   5.402   5.787   2.175  0.5762 -0.3529  0.4600
15951SOL    HW159912   5.322   5.727   2.168  0.6864 -0.3190 -1.4357
15951SOL    HW259913   5.373   5.882   2.170  0.7137 -0.3333  0.0549
15952SOL     OW59914   3.774   8.958   9.216 -0.0749  1.0853  0.2078
15952SOL    HW159915   3.784   9.008   9.302 -0.0135  0.4596  0.5734
15952SOL    HW259916   3.720   9.012   9.152 -2.6949  0.3027  1.6681
15953SOL     OW59917   2.189   3.546   4.253 -0.1886  0.6206  0.1028
15953SOL    HW159918   2.161   3.457   4.290  2.3433  0.0076  0.6622
15953SOL    HW259919   2.121   3.615   4.278 -0.6684 -0.5944  2.3016
15954SOL     OW59920   7.628   2.911   2.203 -0.2943  0.3654 -0.6183
15954SOL    HW159921   7.658   2.964   2.282  1.5027 -1.4315 -0.0587
15954SOL    HW259922   7.530   2.892   2.210  0.3029 -1.9310  2.4779
15955SOL     OW59923   1.408   5.473   0.521  0.5668  0.0878 -0.0410
15955SOL    HW159924   1.497   5.466   0.567  0.9998 -0.9647 -0.9960
15955SOL    HW259925   1.361   5.385   0.526 -1.0337  1.0045  1.6244
15956SOL     OW59926   0.122   1.862   8.562 -0.2333 -0.6608  0.4158
15956SOL    HW159927   0.047   1.901   8.614  0.9487  1.1289  0.7915
15956SOL    HW259928   0.202   1.921   8.567  0.9793 -2.1469 -0.6284
15957SOL     OW59929   7.251   6.781   7.504 -0.4685  0.6216 -0.1699
15957SOL    HW159930   7.243   6.690   7.462  1.4608  0.5479 -0.4366
15957SOL    HW259931   7.172   6.798   7.563  0.6267 -2.5456  2.3543
15958SOL     OW59932   2.958   3.365   3.719 -0.2661 -0.3013  0.1931
15958SOL    HW159933   2.896   3.375   3.797 -1.2737 -1.1404 -0.4859
15958SOL    HW259934   2.907   3.381   3.635  1.0047  1.4198 -0.2625
15959SOL     OW59935   8.713   1.877   6.127 -0.0357  0.2479 -0.5040
15959SOL    HW159936   8.649   1.949   6.101  0.1303  0.5099 -0.1868
15959SOL    HW259937   8.662   1.792   6.144 -0.2770  0.4007 -0.4582
15960SOL     OW59938   9.058   1.246   2.065  0.4176 -0.0158  0.9181
15960SOL    HW159939   9.119   1.275   2.139  1.6112 -0.0061 -0.0475
15960SOL    HW259940   9.098   1.166   2.019  0.7826  1.2751 -1.0773
15961SOL     OW59941   2.908   5.506   4.871  0.0407  0.3750  0.1447
15961SOL    HW159942   2.863   5.462   4.949  0.0173 -0.6915 -0.4563
15961SOL    HW259943   2.859   5.589   4.846 -1.1285 -0.3487  0.0029
15962SOL     OW59944   8.731   4.925   2.629  0.6083 -0.1724  0.1321
15962SOL    HW159945   8.754   4.848   2.570 -0.0682  0.3156 -0.7904
15962SOL    HW259946   8.704   4.891   2.719  1.8044 -0.9117  0.2226
15963SOL     OW59947   4.559   0.066   0.743 -0.2130  0.4073  0.1921
15963SOL    HW159948   4.476   0.091   0.692  0.6585 -0.5046 -1.7178
15963SOL    HW259949   4.555  -0.031   0.767  0.8341  0.0585 -0.9896
15964SOL     OW59950   9.403   1.731   6.769 -0.1719  0.5068 -0.0949
15964SOL    HW159951   9.341   1.694   6.700 -0.8356  0.7117  0.3880
15964SOL    HW259952   9.431   1.824   6.742  0.2553  0.2607 -0.5154
15965SOL     OW59953   0.405   1.104   6.137 -0.7207  0.1712  0.9326
15965SOL    HW159954   0.500   1.103   6.106 -1.2602 -4.7465 -0.9671
15965SOL    HW259955   0.395   1.042   6.215 -2.3944  0.5396  1.0233
15966SOL     OW59956   3.612   0.679   4.789  0.7144  0.1882  0.5835
15966SOL    HW159957   3.580   0.743   4.718 -0.5381  0.1063  1.0578
15966SOL    HW259958   3.556   0.596   4.785  1.3672 -0.2654  0.9476
15967SOL     OW59959   3.201   0.755   2.943  0.1611  0.1404 -0.2898
15967SOL    HW159960   3.209   0.755   3.043 -0.3178  1.0929 -0.2431
15967SOL    HW259961   3.138   0.827   2.915  0.8521  0.3493 -1.3323
15968SOL     OW59962   1.213   1.402   5.163 -0.8384 -0.0383 -0.3452
15968SOL    HW159963   1.288   1.468   5.163 -1.0367  0.2554  2.6618
15968SOL    HW259964   1.126   1.450   5.155 -0.9375 -0.0094  0.9119
15969SOL     OW59965   7.111   9.020   7.332  0.3671 -0.0463  0.1129
15969SOL    HW159966   7.124   9.118   7.346 -1.1177  0.4402 -1.8187
15969SOL    HW259967   7.020   9.002   7.296  1.0749 -2.0309 -0.7866
15970SOL     OW59968   0.727   7.546   4.958  0.0354  0.2011 -0.3908
15970SOL    HW159969   0.667   7.620   4.927 -0.8501 -0.3425  0.0151
15970SOL    HW259970   0.674   7.462   4.967  0.9388 -0.3705 -0.3792
15971SOL     OW59971   1.940   6.810   0.129 -0.7171  0.1060  0.3784
15971SOL    HW159972   1.893   6.831   0.214 -0.8055  0.4376  0.2520
15971SOL    HW259973   2.033   6.847   0.133 -1.3271  1.8129 -0.3925
15972SOL     OW59974   2.818   2.524   4.001 -0.2611  0.0095 -0.0876
15972SOL    HW159975   2.818   2.623   3.989 -2.1714  0.3539  2.4229
15972SOL    HW259976   2.755   2.483   3.935  0.7323  0.4184 -1.3080
15973SOL     OW59977   8.634   3.313   3.732  0.3208 -0.4054 -0.1542
15973SOL    HW159978   8.669   3.367   3.809  0.2656  1.1345 -1.1741
15973SOL    HW259979   8.562   3.252   3.764 -1.2381  1.7965  0.6413
15974SOL     OW59980   9.071   7.088   3.196 -0.3396  0.2332 -0.8972
15974SOL    HW159981   9.117   7.096   3.107 -0.8762 -0.8795 -1.2877
15974SOL    HW259982   8.980   7.049   3.182  0.7058 -2.8667  0.4299
15975SOL     OW59983   7.801   7.697   6.572  0.3044 -0.6854  0.1336
15975SOL    HW159984   7.869   7.712   6.500 -0.9507 -0.6925 -1.0636
15975SOL    HW259985   7.748   7.615   6.552 -0.3437 -0.4434  0.8443
15976SOL     OW59986   3.200   1.616   3.103  0.0808 -0.0995  0.3121
15976SOL    HW159987   3.297   1.635   3.085  0.0524 -1.3375 -1.3329
15976SOL    HW259988   3.144   1.670   3.040 -0.2154 -0.7706 -0.0077
15977SOL     OW59989   3.248   4.823   8.706  0.3371  0.0899 -0.3698
15977SOL    HW159990   3.156   4.791   8.683  0.1008  0.1821  0.4328
15977SOL    HW259991   3.262   4.915   8.670 -0.2621  0.4909  0.4319
15978SOL     OW59992   5.185   8.736   6.725  0.1516 -0.2645 -0.5881
15978SOL    HW159993   5.209   8.649   6.683  1.8982 -1.1232  2.0459
15978SOL    HW259994   5.089   8.735   6.752  0.3643 -1.7441  0.1792
15979SOL     OW59995   2.580   9.133   6.074  0.0360  0.4962 -0.9217
15979SOL    HW159996   2.617   9.098   6.160 -0.4909 -0.6514 -1.1440
15979SOL    HW259997   2.488   9.168   6.088 -0.7114 -1.2640 -1.3388
15980SOL     OW59998   5.855   9.899   5.912 -0.4369  0.0523  0.1662
15980SOL    HW159999   5.808   9.882   5.998  1.1975  0.0571  1.0742
15980SOL    HW260000   5.916   9.978   5.922  0.0888 -0.2098 -0.8534
15981SOL     OW60001   1.650   9.479   5.237 -0.0544  0.0013 -0.5598
15981SOL    HW160002   1.646   9.560   5.295 -4.4648 -1.2107  1.0033
15981SOL    HW260003   1.743   9.442   5.238  1.1567  2.9087  1.6182
15982SOL     OW60004   4.838   1.443   1.813 -0.4491 -0.3987 -0.1376
15982SOL    HW160005   4.758   1.484   1.769 -0.9418 -0.1066  1.0099
15982SOL    HW260006   4.809   1.389   1.892  0.4686 -0.4485  0.1749
15983SOL     OW60007   4.257   2.793   2.266 -0.4345 -0.2346 -0.1488
15983SOL    HW160008   4.287   2.712   2.317  1.2247  0.3347 -0.1921
15983SOL    HW260009   4.283   2.783   2.170 -2.0463 -0.5428 -0.5690
15984SOL     OW60010   5.062   9.304   3.560 -0.3755 -0.3694 -0.6818
15984SOL    HW160011   5.150   9.295   3.512  0.4523 -2.2571  1.0941
15984SOL    HW260012   5.002   9.228   3.532 -0.0584 -1.2070  0.8687
15985SOL     OW60013   4.637   5.892   1.676  0.2524  0.0548  0.0512
15985SOL    HW160014   4.658   5.803   1.718 -0.4803 -0.2477 -0.2209
15985SOL    HW260015   4.704   5.911   1.604  1.9654  0.9121  1.8118
15986SOL     OW60016   3.307   5.970   8.396 -0.2143 -0.0337 -0.1163
15986SOL    HW160017   3.336   5.879   8.367 -1.7118 -1.1222  1.6889
15986SOL    HW260018   3.347   5.992   8.484  0.5545  1.2941 -0.7823
15987SOL     OW60019   4.136   5.070   7.037  0.7884 -0.0198  0.5224
15987SOL    HW160020   4.094   5.145   7.088 -0.6359 -0.0418 -0.5926
15987SOL    HW260021   4.067   5.025   6.980  1.7946 -1.6762  0.5709
15988SOL     OW60022   6.315   9.943   7.855 -0.6056 -0.0998  0.0602
15988SOL    HW160023   6.284  10.000   7.930 -1.6387 -0.4244 -0.1189
15988SOL    HW260024   6.345   9.854   7.891  0.3502  0.2910  0.2560
15989SOL     OW60025   7.447   2.874   2.956  0.1962  0.8192 -0.4835
15989SOL    HW160026   7.478   2.897   3.048 -0.3377  1.3782 -0.4398
15989SOL    HW260027   7.357   2.916   2.939  1.0342  2.1128 -1.8596
15990SOL     OW60028   2.360   7.736   6.637  0.4920 -0.0689 -0.2867
15990SOL    HW160029   2.447   7.752   6.589 -0.1326  1.9030 -0.8264
15990SOL    HW260030   2.356   7.797   6.717 -0.4871  0.0155 -0.3992
15991SOL     OW60031   0.330   6.194   5.059  0.1794  0.1279 -0.2301
15991SOL    HW160032   0.301   6.271   5.117 -0.0804 -0.0272 -0.1536
15991SOL    HW260033   0.319   6.108   5.109  0.1320  0.0090 -0.4423
15992SOL     OW60034   8.722   7.879   7.201 -0.6141 -0.1071  0.1512
15992SOL    HW160035   8.748   7.861   7.295  3.1956  0.4599 -0.7050
15992SOL    HW260036   8.774   7.820   7.139 -0.4669  1.9260 -1.7555
15993SOL     OW60037   7.931   9.479   2.948 -0.0178  0.0301  0.1962
15993SOL    HW160038   8.015   9.505   2.900  0.3701 -0.8377  0.3968
15993SOL    HW260039   7.953   9.457   3.043 -0.5564  0.3247  0.3883
15994SOL     OW60040   2.677   0.836   9.519  0.1390 -0.4152  0.1356
15994SOL    HW160041   2.749   0.780   9.477 -1.3776 -1.8599 -0.6146
15994SOL    HW260042   2.601   0.846   9.454  0.0145  1.8309  0.5913
15995SOL     OW60043   4.053   9.673   6.770  0.4193  0.1252 -0.1838
15995SOL    HW160044   3.964   9.628   6.773 -0.5365  1.8180 -1.5465
15995SOL    HW260045   4.082   9.697   6.863 -1.0483  0.4680  0.2001
15996SOL     OW60046   9.329   6.810   2.351  0.0383 -0.0791 -0.5273
15996SOL    HW160047   9.289   6.727   2.391  0.4018 -0.2100 -0.4349
15996SOL    HW260048   9.427   6.798   2.340 -0.0369  0.0180 -1.3321
15997SOL     OW60049   0.442   3.292   8.218  0.0056  0.4925 -0.2415
15997SOL    HW160050   0.529   3.252   8.249 -0.3918  0.0570  0.3282
15997SOL    HW260051   0.437   3.287   8.118  0.2271 -0.3450 -0.2174
15998SOL     OW60052   3.114   7.320   3.210  0.4987  0.1003  0.1751
15998SOL    HW160053   3.095   7.248   3.143 -1.7249  0.4955  0.3519
15998SOL    HW260054   3.132   7.278   3.299 -1.3453 -0.2458  0.4055
15999SOL     OW60055   8.612   4.838   2.867 -0.1995 -0.0959 -0.0900
15999SOL    HW160056   8.527   4.787   2.850 -0.0890  0.2138 -1.5711
15999SOL    HW260057   8.595   4.906   2.938 -0.7893 -1.0511  0.7175
16000SOL     OW60058   2.492   9.570   4.269 -0.0628  0.0689 -0.2724
16000SOL    HW160059   2.412   9.547   4.213 -0.5901 -0.0578  0.5289
16000SOL    HW260060   2.569   9.512   4.242 -0.5036 -0.4634 -0.4092
16001SOL     OW60061   4.593   4.250   8.310 -0.3801  0.4943  0.0407
16001SOL    HW160062   4.502   4.289   8.322  0.1239  1.8911 -0.6433
16001SOL    HW260063   4.613   4.241   8.213 -0.7323 -2.0937  0.1577
16002SOL     OW60064   5.323   1.601   4.531  0.1533  0.0858 -0.0255
16002SOL    HW160065   5.256   1.628   4.462  1.5738 -1.4025 -2.0509
16002SOL    HW260066   5.409   1.576   4.486  1.4007 -0.0804  2.3612
16003SOL     OW60067   7.539   1.762   5.506  0.0583  0.4200 -0.4319
16003SOL    HW160068   7.482   1.813   5.442  0.8222  1.3809 -0.3513
16003SOL    HW260069   7.480   1.715   5.573 -0.6488  1.1403 -0.5437
16004SOL     OW60070   3.521   5.174   7.044 -0.1805 -0.2757  0.0641
16004SOL    HW160071   3.433   5.126   7.043 -0.0102 -0.5972  0.6635
16004SOL    HW260072   3.505   5.272   7.030 -0.8706  0.0303  2.7785
16005SOL     OW60073   3.195   2.266   0.255  0.0189  0.4832  0.1464
16005SOL    HW160074   3.139   2.238   0.333 -0.8898  0.2158 -0.5917
16005SOL    HW260075   3.136   2.289   0.178  0.9351 -0.6218 -0.9189
16006SOL     OW60076   4.609   5.685   9.150  0.3686 -0.3213  0.1419
16006SOL    HW160077   4.633   5.702   9.246 -0.0342  2.6578 -0.2397
16006SOL    HW260078   4.692   5.685   9.095  0.8755 -4.5384  0.7739
16007SOL     OW60079   2.039   6.946   3.926 -0.1844 -0.0536  0.3341
16007SOL    HW160080   2.058   6.861   3.975 -1.3006  0.2202  1.2580
16007SOL    HW260081   1.965   6.930   3.860 -1.7751  0.6562  1.8972
16008SOL     OW60082   2.104   7.553   5.881  0.0388  0.3572  0.0055
16008SOL    HW160083   2.179   7.613   5.910 -0.5928  1.1321  0.0782
16008SOL    HW260084   2.081   7.491   5.956  0.8335 -0.1158 -0.1402
16009SOL     OW60085   5.142   0.001   8.880 -0.0697  0.2692 -0.6505
16009SOL    HW160086   5.084  -0.042   8.810 -2.4822  0.9081  0.8975
16009SOL    HW260087   5.132  -0.048   8.966  0.8214  1.1076 -0.0682
16010SOL     OW60088   9.546   2.439   3.923  0.1160 -0.5464  0.0538
16010SOL    HW160089   9.563   2.466   4.017 -1.1786  0.6227 -0.0260
16010SOL    HW260090   9.459   2.390   3.917  0.1175 -0.4882 -0.5514
16011SOL     OW60091   2.396   2.781   4.239 -0.0440 -0.3312 -0.4136
16011SOL    HW160092   2.441   2.828   4.162  0.8559 -2.2159 -1.0748
16011SOL    HW260093   2.304   2.754   4.211  0.6823 -2.0231 -1.2708
16012SOL     OW60094   9.203   4.661   5.745  0.0985 -0.3900 -0.0593
16012SOL    HW160095   9.238   4.702   5.660  0.4367  0.4291  0.4734
16012SOL    HW260096   9.106   4.641   5.735 -0.0919  0.6443 -0.2798
16013SOL     OW60097   0.097   5.718   2.880  0.2091  0.1167  0.1599
16013SOL    HW160098   0.180   5.685   2.925 -0.4629  0.6619  1.8465
16013SOL    HW260099   0.018   5.696   2.938 -0.9003 -0.9573 -1.7110
16014SOL     OW60100   1.864   8.546   1.403  0.1010 -0.3429  0.0000
16014SOL    HW160101   1.765   8.537   1.415  0.2579 -1.7217  0.3083
16014SOL    HW260102   1.899   8.615   1.467 -0.8109  1.0037 -0.9004
16015SOL     OW60103   9.560   1.206   4.983 -0.4130  0.0678  0.5699
16015SOL    HW160104   9.608   1.129   4.940  0.8388  0.1557  1.7601
16015SOL    HW260105   9.623   1.284   4.990 -2.1674  1.8400 -2.2072
16016SOL     OW60106   3.964   5.080   2.782 -0.2227  0.2588  0.3181
16016SOL    HW160107   3.906   5.001   2.799 -2.4746  1.1646 -2.6679
16016SOL    HW260108   3.918   5.163   2.813  0.2917  0.8166 -0.3924
16017SOL     OW60109   9.133   5.820   7.734 -0.8052 -0.1098  0.2691
16017SOL    HW160110   9.058   5.765   7.772  1.1685 -1.7166  1.9759
16017SOL    HW260111   9.155   5.894   7.797 -0.8945  0.3128 -0.1949
16018SOL     OW60112   4.472   3.077   5.899 -0.4232 -0.1799 -0.4328
16018SOL    HW160113   4.557   3.130   5.895 -0.6552  0.2671  0.6077
16018SOL    HW260114   4.484   2.998   5.958 -1.2850  0.9047  1.2363
16019SOL     OW60115   6.055   7.816   6.467  0.4818  0.1909  0.0127
16019SOL    HW160116   6.034   7.761   6.386  0.5393 -0.7036  0.6000
16019SOL    HW260117   6.054   7.757   6.548  2.7058  0.6203  0.3789
16020SOL     OW60118   2.314   2.056   5.761  0.2618  0.4210 -0.2337
16020SOL    HW160119   2.295   1.986   5.691  1.3497  1.1655 -1.2920
16020SOL    HW260120   2.412   2.060   5.778  0.1019  1.0152  0.5391
16021SOL     OW60121   8.984   4.591   1.893  0.4789 -0.3230 -0.1216
16021SOL    HW160122   8.930   4.592   1.809 -1.1735  1.3173  0.9206
16021SOL    HW260123   8.924   4.574   1.972  1.9220 -1.2948  0.7947
16022SOL     OW60124   0.469   9.231   6.829  0.2007 -0.0852  0.1362
16022SOL    HW160125   0.445   9.190   6.916  0.7174  0.1145  0.3762
16022SOL    HW260126   0.526   9.312   6.844 -1.8829  1.4919 -0.2748
16023SOL     OW60127   7.983   7.483   4.327  0.3780  0.2060  0.2315
16023SOL    HW160128   8.077   7.453   4.315  0.7325  0.5769  1.9301
16023SOL    HW260129   7.921   7.409   4.300  1.1372 -0.1123 -0.6947
16024SOL     OW60130   4.854   3.526   8.372  0.2964 -0.5042 -0.6814
16024SOL    HW160131   4.918   3.514   8.296  0.4069  2.2031 -1.0415
16024SOL    HW260132   4.863   3.618   8.410 -3.5617  0.0472 -0.9324
16025SOL     OW60133   3.983   1.032   4.537  0.1786  0.7382  0.0363
16025SOL    HW160134   3.929   0.960   4.580  3.4758 -1.6095  0.4051
16025SOL    HW260135   3.966   1.033   4.439 -0.4336 -0.0610  0.1311
16026SOL     OW60136   9.450   5.226   9.531  0.5806 -0.4845 -0.1549
16026SOL    HW160137   9.384   5.159   9.496  0.1308 -0.0056 -0.2276
16026SOL    HW260138   9.463   5.213   9.629  0.7808 -0.9258 -0.2398
16027SOL     OW60139   0.387   8.020   4.877  0.4001  0.2018  0.4925
16027SOL    HW160140   0.443   7.990   4.954  1.9303 -0.7939 -0.9754
16027SOL    HW260141   0.432   8.097   4.830 -0.3468  0.5802  0.3849
16028SOL     OW60142   1.362   5.407   4.897 -0.2732  0.1158  0.0239
16028SOL    HW160143   1.421   5.370   4.826 -0.8234  0.0444 -0.4051
16028SOL    HW260144   1.417   5.436   4.975  0.3994  0.8905 -0.7324
16029SOL     OW60145   9.224   1.695   6.562 -0.3390 -0.9809  0.9429
16029SOL    HW160146   9.145   1.698   6.624  1.3811 -3.0010  3.3405
16029SOL    HW260147   9.227   1.606   6.517  1.2082 -1.3519  1.7638
16030SOL     OW60148   6.693   0.267   8.349  0.6933 -0.1139  0.1482
16030SOL    HW160149   6.715   0.214   8.431 -0.4776  0.4827  0.8742
16030SOL    HW260150   6.597   0.295   8.352  1.4137  2.5859  0.1366
16031SOL     OW60151   8.604   0.011   7.956 -0.3632 -0.2523 -0.1289
16031SOL    HW160152   8.564   0.063   8.031 -1.4255 -2.3991  0.8102
16031SOL    HW260153   8.531  -0.027   7.899  0.4146 -0.5229 -0.9555
16032SOL     OW60154   0.823   4.320   5.437  0.2004 -0.0389 -0.3316
16032SOL    HW160155   0.847   4.269   5.520  1.7051  2.3648  0.7418
16032SOL    HW260156   0.737   4.369   5.453 -0.5039 -1.0556 -0.8863
16033SOL     OW60157   8.366   3.751   8.330  0.0773 -0.5945  0.2336
16033SOL    HW160158   8.440   3.816   8.315 -0.0597 -0.7785 -1.3616
16033SOL    HW260159   8.278   3.798   8.321 -0.0130 -0.6202  0.9447
16034SOL     OW60160   4.347   2.642   2.625  0.2691 -0.9691 -0.6925
16034SOL    HW160161   4.306   2.731   2.607  1.0853 -0.5961 -0.7208
16034SOL    HW260162   4.288   2.590   2.688  0.1960 -0.1037 -0.0391
16035SOL     OW60163   7.643   1.763   9.065  0.2048  0.1819 -0.2200
16035SOL    HW160164   7.617   1.668   9.048 -1.7737  0.9007 -1.3153
16035SOL    HW260165   7.599   1.795   9.149 -0.6257  0.6915 -0.8432
16036SOL     OW60166   2.683   6.536   2.845  0.0844  0.2765  0.2328
16036SOL    HW160167   2.716   6.574   2.931 -0.3624  0.9312  0.1219
16036SOL    HW260168   2.734   6.453   2.824 -0.1463 -0.1614  1.3751
16037SOL     OW60169   4.863   7.334   2.647 -0.2234  0.3741 -0.2175
16037SOL    HW160170   4.943   7.275   2.654 -0.0775  0.3669 -1.9173
16037SOL    HW260171   4.891   7.430   2.652 -0.1719  0.3591 -0.2263
16038SOL     OW60172   8.980   9.244   3.887  0.3828  0.3753 -0.7344
16038SOL    HW160173   9.011   9.309   3.956 -0.5601  0.3365 -0.2732
16038SOL    HW260174   8.892   9.204   3.915  2.1572 -3.0303  0.2496
16039SOL     OW60175   3.928   8.450   3.437  0.3374  0.2997  0.1482
16039SOL    HW160176   3.934   8.351   3.423 -1.4883  0.0767  0.8166
16039SOL    HW260177   3.999   8.479   3.501  1.6695 -0.3743 -1.0042
16040SOL     OW60178   4.318   5.679   0.628  0.3507 -0.4899  0.0822
16040SOL    HW160179   4.349   5.694   0.722 -1.0077 -1.5346  0.7235
16040SOL    HW260180   4.379   5.726   0.565 -0.5826  3.0951  1.6667
16041SOL     OW60181   5.608   5.394   8.370 -0.3847 -0.1129 -0.1636
16041SOL    HW160182   5.647   5.451   8.443 -0.8160  0.6160 -0.4953
16041SOL    HW260183   5.630   5.434   8.281  0.4681 -1.2099 -0.4602
16042SOL     OW60184   2.821   1.177   4.850  0.0040 -0.2977 -0.0890
16042SOL    HW160185   2.743   1.178   4.913  0.3480 -0.4344  0.3392
16042SOL    HW260186   2.796   1.225   4.766 -1.1777 -1.9559 -0.7223
16043SOL     OW60187   5.492   2.283   4.995 -0.4777 -0.6871 -0.6793
16043SOL    HW160188   5.530   2.247   5.080 -0.3694  0.2789 -0.3127
16043SOL    HW260189   5.446   2.370   5.012 -2.8463 -1.8066 -1.1301
16044SOL     OW60190   3.311   2.874   0.796  0.5884 -0.4527  0.6581
16044SOL    HW160191   3.385   2.827   0.843 -0.2269 -3.5737 -0.9912
16044SOL    HW260192   3.266   2.810   0.733 -1.8767  2.0506 -0.2380
16045SOL     OW60193   2.113   2.194   2.581 -0.1134 -0.3393 -0.1916
16045SOL    HW160194   2.061   2.109   2.587 -0.5983 -0.0102  0.3123
16045SOL    HW260195   2.123   2.234   2.672 -1.0204  0.8167 -0.5827
16046SOL     OW60196   1.262   7.891   5.131 -0.0477  0.2426  0.9846
16046SOL    HW160197   1.267   7.811   5.190 -1.4967 -1.1864 -0.7683
16046SOL    HW260198   1.253   7.973   5.187  1.2602 -0.8202  2.8036
16047SOL     OW60199   3.049   1.803  10.014  0.1372  0.4727 -0.2614
16047SOL    HW160200   2.964   1.770   9.973 -0.1369  0.7559  0.0721
16047SOL    HW260201   3.127   1.767   9.964 -0.1711 -0.1939 -0.2575
16048SOL     OW60202   0.621   3.417   9.538 -1.4309 -0.0159 -0.2221
16048SOL    HW160203   0.713   3.379   9.526 -1.6185 -0.1194 -1.4642
16048SOL    HW260204   0.561   3.347   9.576 -1.4313 -0.5221 -1.1403
16049SOL     OW60205   3.063   4.999   3.251 -0.3576  0.4439  0.1433
16049SOL    HW160206   3.013   5.086   3.247  1.4163  1.4767  0.0453
16049SOL    HW260207   3.026   4.936   3.182 -0.8960  1.5377 -0.5840
16050SOL     OW60208   9.539   5.605   8.550 -0.8233 -0.3370  0.4187
16050SOL    HW160209   9.617   5.570   8.499 -0.0597 -1.8652  2.5751
16050SOL    HW260210   9.469   5.534   8.557 -0.8778 -0.1881  1.5453
16051SOL     OW60211   9.796   0.747   4.327 -0.2447  0.2644 -0.0494
16051SOL    HW160212   9.865   0.793   4.383  0.1071  0.1270 -0.3640
16051SOL    HW260213   9.736   0.815   4.285  0.8995  0.5204 -1.3238
16052SOL     OW60214   2.817   2.867   2.830  0.3318  0.5187  0.0006
16052SOL    HW160215   2.869   2.793   2.873  0.4198 -0.0162 -1.0235
16052SOL    HW260216   2.741   2.893   2.890  1.2193  0.6748  1.0805
16053SOL     OW60217   4.343   9.445   6.742 -0.2957 -0.1994 -0.0895
16053SOL    HW160218   4.314   9.413   6.832 -2.0846  1.0478 -0.1917
16053SOL    HW260219   4.340   9.369   6.677 -3.2772 -0.1666 -0.0532
16054SOL     OW60220   4.112   4.982   4.005  0.0086  0.0760  0.3427
16054SOL    HW160221   4.017   4.974   3.975 -0.1730  1.8572  0.4252
16054SOL    HW260222   4.161   4.898   3.981 -1.1816 -0.2188 -1.1394
16055SOL     OW60223   5.513   0.803   9.518 -0.0268 -0.1935  0.0118
16055SOL    HW160224   5.498   0.869   9.445  3.3042  0.8879  0.2469
16055SOL    HW260225   5.498   0.847   9.607  0.0542 -0.3648  0.1127
16056SOL     OW60226   3.181   7.165   9.224  0.2331  0.0915  0.3749
16056SOL    HW160227   3.146   7.113   9.147  1.0825 -0.4354  0.3367
16056SOL    HW260228   3.146   7.259   9.220  0.3310  0.0884 -0.6831
16057SOL     OW60229   4.198   0.562   5.467 -0.2670  0.4153  0.3513
16057SOL    HW160230   4.203   0.496   5.543  1.1512  0.0922 -0.0134
16057SOL    HW260231   4.115   0.546   5.415  0.6987 -1.9762 -0.5220
16058SOL     OW60232   6.659   1.995   5.168 -0.2286 -0.1585 -0.4020
16058SOL    HW160233   6.608   2.044   5.239 -1.0801  0.2563 -1.2894
16058SOL    HW260234   6.710   1.920   5.209 -2.3007 -1.1786  0.3728
16059SOL     OW60235   3.733   8.353   1.036 -0.4213 -0.0181 -0.6158
16059SOL    HW160236   3.643   8.378   1.000  0.0939  3.3347  0.2788
16059SOL    HW260237   3.730   8.352   1.136  0.5725  0.3749 -0.5703
16060SOL     OW60238   9.628   2.444   1.536  0.7264  0.3560  0.5929
16060SOL    HW160239   9.558   2.486   1.478 -1.3884 -1.5910  1.6319
16060SOL    HW260240   9.700   2.405   1.479 -0.4665 -0.0348 -0.6746
16061SOL     OW60241   5.520   9.162   4.097 -0.2924 -0.3067 -0.8959
16061SOL    HW160242   5.590   9.114   4.151  0.2512 -0.8533 -2.0815
16061SOL    HW260243   5.452   9.201   4.159  0.6815 -0.3671  0.2326
16062SOL     OW60244   2.752   7.137   2.440 -0.2937  0.4141 -0.1954
16062SOL    HW160245   2.660   7.113   2.408 -0.3221  0.2171  0.0388
16062SOL    HW260246   2.759   7.236   2.452 -0.2618  0.5031 -0.8900
16063SOL     OW60247   3.665   8.004   3.705 -0.4189 -0.6281 -0.4969
16063SOL    HW160248   3.668   8.050   3.794 -1.4775 -2.7714  0.6732
16063SOL    HW260249   3.710   8.062   3.636  1.6056  0.4419  1.6698
16064SOL     OW60250   6.019   0.411   3.932  1.1296  0.2747 -0.0509
16064SOL    HW160251   5.985   0.504   3.922  1.0423  0.1831 -0.6249
16064SOL    HW260252   6.011   0.363   3.845  0.6990 -0.4358  0.3762
16065SOL     OW60253   3.691   7.437   1.140 -0.3637 -0.7054  0.2983
16065SOL    HW160254   3.599   7.442   1.178 -0.3101 -1.0272  0.4744
16065SOL    HW260255   3.689   7.459   1.043 -0.6609 -0.9526  0.2476
16066SOL     OW60256   8.068   4.298   7.296  0.4040  0.0840 -0.2198
16066SOL    HW160257   8.055   4.212   7.344  1.3375 -0.3880 -0.7988
16066SOL    HW260258   8.080   4.281   7.198 -0.1326  0.9297 -0.4388
16067SOL     OW60259   0.633   7.477   1.688 -0.0115  0.4872  0.1885
16067SOL    HW160260   0.535   7.463   1.678  0.2248 -1.7613  0.5944
16067SOL    HW260261   0.682   7.419   1.622  1.0488  0.7504  0.7251
16068SOL     OW60262   3.200   2.993   7.870 -0.3606  0.7595  0.3762
16068SOL    HW160263   3.229   3.083   7.904 -0.8202  1.0282  0.0698
16068SOL    HW260264   3.119   2.963   7.921 -0.3597  0.6384  0.3046
16069SOL     OW60265   9.137   5.548   0.062 -0.0675 -0.2296 -0.0996
16069SOL    HW160266   9.148   5.454   0.033  1.1396  0.2856 -1.3495
16069SOL    HW260267   9.226   5.593   0.067 -0.8585  1.8021 -2.8792
16070SOL     OW60268   7.835   9.383   6.927 -0.6778 -0.1171 -0.0847
16070SOL    HW160269   7.780   9.364   7.008  0.9422  0.6867  1.2250
16070SOL    HW260270   7.866   9.298   6.886 -1.4923 -0.5238  0.1261
16071SOL     OW60271   6.981   1.765   2.538 -0.1566 -0.2759 -0.3187
16071SOL    HW160272   6.935   1.742   2.453 -1.5110 -1.0916  0.6109
16071SOL    HW260273   6.985   1.865   2.548 -3.3641 -0.1707  0.4167
16072SOL     OW60274   3.116   3.559   3.962  0.5742 -0.3388  0.1931
16072SOL    HW160275   3.052   3.617   4.013  1.2893  0.3106  0.3516
16072SOL    HW260276   3.088   3.554   3.866 -2.2901 -3.6568  1.0963
16073SOL     OW60277   2.580   8.546   9.118 -0.0722 -0.5629 -0.1520
16073SOL    HW160278   2.595   8.449   9.104  0.4731 -0.5085  0.0411
16073SOL    HW260279   2.660   8.587   9.162 -1.0724 -0.4186  1.5926
16074SOL     OW60280   9.073   7.822   4.725 -0.2635 -0.5908  0.7086
16074SOL    HW160281   9.068   7.763   4.645  3.3584 -0.1397  0.0739
16074SOL    HW260282   9.094   7.766   4.806 -1.0969 -0.6854  0.8648
16075SOL     OW60283   0.494   4.449   2.294 -0.1524  0.4902  0.1609
16075SOL    HW160284   0.574   4.445   2.353 -0.2580  0.2470  0.2914
16075SOL    HW260285   0.514   4.405   2.206 -0.6979 -1.2256  0.8635
16076SOL     OW60286   7.240   0.075   3.545 -0.2411  0.7453  0.0826
16076SOL    HW160287   7.327   0.029   3.527  0.6326  1.8337  1.3948
16076SOL    HW260288   7.254   0.174   3.544 -1.7122  0.9554 -0.8223
16077SOL     OW60289   0.387   2.916   3.357 -0.6901  0.2115  0.4110
16077SOL    HW160290   0.395   2.949   3.263 -1.3767 -0.3138  0.1689
16077SOL    HW260291   0.300   2.869   3.370 -0.0151 -0.9413  0.9242
16078SOL     OW60292   9.629   1.239   9.816  0.2743  0.0288  0.2438
16078SOL    HW160293   9.597   1.283   9.900  0.8079 -1.2503  1.1499
16078SOL    HW260294   9.558   1.244   9.746 -0.6426  0.0689  1.1719
16079SOL     OW60295   0.543   1.670   7.108 -0.2981  0.1856  0.0098
16079SOL    HW160296   0.552   1.572   7.092  2.2170  0.1320  1.3583
16079SOL    HW260297   0.622   1.718   7.068  0.7929  1.1228  3.0743
16080SOL     OW60298   6.716   7.808   3.666 -0.5998 -0.3502  0.2476
16080SOL    HW160299   6.679   7.892   3.705 -0.7378 -0.0590 -0.5020
16080SOL    HW260300   6.717   7.815   3.566 -0.5290 -1.2016  0.1832
16081SOL     OW60301   2.715   5.024   6.330 -0.4897 -0.2269 -0.1111
16081SOL    HW160302   2.723   4.971   6.246 -0.5688 -0.5923  0.1126
16081SOL    HW260303   2.627   5.071   6.332  0.1927  1.1264 -1.0151
16082SOL     OW60304   7.619   8.131   2.909  0.6194  0.5633  0.1346
16082SOL    HW160305   7.703   8.141   2.855  0.5300  3.1613  0.4327
16082SOL    HW260306   7.602   8.034   2.926  0.3502 -0.4609 -4.9816
16083SOL     OW60307   0.158   1.502   4.757 -0.6122  0.0522 -0.1021
16083SOL    HW160308   0.189   1.527   4.665 -1.3712 -0.4047 -0.4899
16083SOL    HW260309   0.069   1.545   4.775 -0.1956  0.6149  0.6455
16084SOL     OW60310   4.331   0.732   9.652 -0.1014 -0.1729  0.0788
16084SOL    HW160311   4.236   0.745   9.623  0.8518  3.4539 -1.7558
16084SOL    HW260312   4.347   0.786   9.735  1.0596  1.6596 -1.2933
16085SOL     OW60313   8.046   0.917   5.715 -0.2368  0.6910  0.1250
16085SOL    HW160314   8.044   0.892   5.812  2.5725  1.6076  0.4682
16085SOL    HW260315   8.018   1.013   5.706 -2.7684 -0.0477 -0.2652
16086SOL     OW60316   3.315   0.935   0.022 -0.3326 -0.2574 -0.5164
16086SOL    HW160317   3.282   0.841   0.025 -0.2683 -0.2892 -0.8221
16086SOL    HW260318   3.271   0.984  -0.053 -1.4131  0.3583  0.4930
16087SOL     OW60319   5.675   5.133   8.078  0.1739  0.2702 -0.1084
16087SOL    HW160320   5.656   5.231   8.071  1.1883  0.4186 -0.9011
16087SOL    HW260321   5.645   5.100   8.168 -0.7335  1.1693 -0.0687
16088SOL     OW60322   7.544   0.427   5.360  0.3411 -0.8295  1.4013
16088SOL    HW160323   7.513   0.452   5.268  0.7980 -2.8585  0.6782
16088SOL    HW260324   7.614   0.492   5.390 -1.2165  1.0027  1.1390
16089SOL     OW60325   7.179   9.731   2.759  0.1979  0.4072 -0.2108
16089SOL    HW160326   7.227   9.654   2.718 -0.6526  1.1545 -2.6697
16089SOL    HW260327   7.215   9.747   2.851  2.3195 -1.1501 -0.7358
16090SOL     OW60328   0.934   7.401   6.173 -0.0964 -0.1853  0.3672
16090SOL    HW160329   0.985   7.362   6.097 -0.0767  0.6465 -0.0527
16090SOL    HW260330   0.871   7.332   6.210 -1.5120 -0.0285 -1.6595
16091SOL     OW60331   3.271   1.681   2.611  0.0304 -0.3990  0.3887
16091SOL    HW160332   3.312   1.624   2.682 -0.7303 -0.2817  0.9325
16091SOL    HW260333   3.286   1.638   2.522  1.2377 -0.3978  0.5830
16092SOL     OW60334   4.747   1.620   1.030 -0.2535 -0.0817  0.3845
16092SOL    HW160335   4.795   1.674   0.961 -0.0858 -0.5281  0.1511
16092SOL    HW260336   4.740   1.673   1.115 -1.4453  0.9032 -0.3119
16093SOL     OW60337   2.573   4.529   4.969 -0.0118 -0.0713 -0.3438
16093SOL    HW160338   2.517   4.588   5.027 -1.2458 -0.9862 -0.5773
16093SOL    HW260339   2.515   4.461   4.926  1.4777 -1.8372  0.3836
16094SOL     OW60340   0.359   3.709   8.168 -0.0172  0.1670 -0.4647
16094SOL    HW160341   0.402   3.795   8.194  0.9585 -0.9121  1.5971
16094SOL    HW260342   0.420   3.633   8.189 -2.2738 -1.3039  1.1371
16095SOL     OW60343   5.937   4.081   0.240  0.1007  0.6001  0.0787
16095SOL    HW160344   6.007   4.011   0.253  1.0133  1.3011 -1.0217
16095SOL    HW260345   5.965   4.166   0.283 -0.8305  0.4221  1.0642
16096SOL     OW60346   1.734   9.235   6.854 -0.1756 -0.3499 -0.7273
16096SOL    HW160347   1.646   9.278   6.875  0.6784  2.1360 -2.0535
16096SOL    HW260348   1.806   9.304   6.856  1.8661 -2.4448  0.8215
16097SOL     OW60349   2.371   7.510   6.243 -0.2102  0.1331  0.7900
16097SOL    HW160350   2.286   7.553   6.211 -0.6427  0.1808  2.0027
16097SOL    HW260351   2.440   7.581   6.257  1.0547 -0.1726 -3.1769
16098SOL     OW60352   6.536   5.395   0.385  0.0297  0.0183 -0.0571
16098SOL    HW160353   6.479   5.316   0.408  1.7166 -1.1778  0.0882
16098SOL    HW260354   6.558   5.393   0.288  1.7294 -0.8196  0.3256
16099SOL     OW60355   6.947   4.163   8.983 -0.4416 -0.2313 -0.6139
16099SOL    HW160356   7.029   4.194   9.032 -0.4266 -0.3173 -0.5850
16099SOL    HW260357   6.972   4.090   8.920 -0.4337 -0.0141 -0.8632
16100SOL     OW60358   2.431   7.338   4.922  0.5871 -0.0571 -0.4399
16100SOL    HW160359   2.456   7.381   5.009  2.2948 -0.4650 -0.7232
16100SOL    HW260360   2.414   7.241   4.936 -1.7496  0.3625 -0.0927
16101SOL     OW60361   6.040   0.765   6.681  0.1820 -0.4130  0.4873
16101SOL    HW160362   6.090   0.679   6.667 -0.4569 -0.8136  0.6471
16101SOL    HW260363   5.955   0.762   6.629  0.5456  0.4568 -0.1513
16102SOL     OW60364   1.103   3.273   1.107 -0.7469 -0.0799  0.3951
16102SOL    HW160365   1.203   3.273   1.109 -0.6995  0.5914 -1.1222
16102SOL    HW260366   1.068   3.342   1.170 -0.1693  1.6056 -1.0890
16103SOL     OW60367   5.939   2.430   2.745 -0.3063 -0.3606  0.2438
16103SOL    HW160368   6.008   2.359   2.761  1.1443  0.7074 -1.0603
16103SOL    HW260369   5.854   2.405   2.790  0.5205 -2.3896  0.7265
16104SOL     OW60370   9.849   9.832   8.701  0.5182  0.4415 -0.3812
16104SOL    HW160371   9.843   9.862   8.605  1.2107 -0.9844 -0.8818
16104SOL    HW260372   9.761   9.796   8.730  0.5805 -0.0455 -0.7912
16105SOL     OW60373   9.648   6.824   4.141 -0.1144  0.1018  0.1709
16105SOL    HW160374   9.665   6.908   4.194 -0.5706  0.0281  0.4422
16105SOL    HW260375   9.610   6.849   4.052  1.3345  0.2617 -0.4163
16106SOL     OW60376   9.122   2.890   6.825  0.0580  0.6527  0.5312
16106SOL    HW160377   9.202   2.938   6.860  0.8458 -0.5404  0.4154
16106SOL    HW260378   9.149   2.798   6.795 -0.8364  1.1448 -1.9059
16107SOL     OW60379   0.733   3.323  10.047  0.1921  0.2132  0.1849
16107SOL    HW160380   0.692   3.412  10.028  0.3833  0.4082  0.6570
16107SOL    HW260381   0.734   3.268   9.964  2.3095  1.5570 -0.7343
16108SOL     OW60382   5.220   5.613   1.318 -0.7714 -0.0615 -0.6385
16108SOL    HW160383   5.287   5.687   1.329 -1.1867  0.2988 -0.5395
16108SOL    HW260384   5.203   5.599   1.220 -1.9319  1.0925 -0.6104
16109SOL     OW60385   7.414   7.671   4.777 -0.1983  0.6012  0.1565
16109SOL    HW160386   7.500   7.649   4.731 -1.0505  0.9109 -1.6288
16109SOL    HW260387   7.410   7.623   4.864  0.3662 -2.0175 -1.2123
16110SOL     OW60388   8.909   3.396   9.556 -0.3377  0.4018 -0.2789
16110SOL    HW160389   8.994   3.362   9.516 -1.4555 -1.6396 -1.0003
16110SOL    HW260390   8.928   3.443   9.642  1.7296  1.7789 -1.4516
16111SOL     OW60391   4.573   0.015   1.666  0.3719 -0.7002 -0.1194
16111SOL    HW160392   4.488  -0.024   1.702 -0.0023 -0.3678 -0.6324
16111SOL    HW260393   4.651  -0.023   1.716 -0.0893 -0.8467  0.4964
16112SOL     OW60394   9.882   5.888   6.338  0.2504  0.0036 -0.0233
16112SOL    HW160395   9.877   5.879   6.239  1.7771  1.0550 -0.2050
16112SOL    HW260396   9.793   5.864   6.378 -0.3189 -0.6117 -1.6096
16113SOL     OW60397   1.531   2.816   1.429 -0.1441 -0.5360 -0.7738
16113SOL    HW160398   1.625   2.836   1.460 -0.8288  4.0088 -1.2719
16113SOL    HW260399   1.473   2.801   1.509  0.4704 -0.7704 -0.3597
16114SOL     OW60400   3.537   7.628   3.129 -0.5855 -0.2526 -0.1445
16114SOL    HW160401   3.570   7.560   3.063 -0.1669 -0.9314  0.7468
16114SOL    HW260402   3.465   7.586   3.185 -1.7841  0.6860 -0.9441
16115SOL     OW60403   7.779   8.432   4.742  0.3918 -0.5787 -0.1521
16115SOL    HW160404   7.826   8.459   4.826 -0.4819  1.2508 -0.2150
16115SOL    HW260405   7.682   8.456   4.750  0.0971 -1.3756 -1.2676
16116SOL     OW60406   1.251   2.498   4.997 -0.0591 -0.6782 -0.5957
16116SOL    HW160407   1.335   2.445   5.011 -0.2406 -0.9979 -0.7251
16116SOL    HW260408   1.201   2.462   4.919 -0.0139 -0.0984 -0.8982
16117SOL     OW60409   0.812   7.345   3.602 -0.2113 -0.1277 -0.3116
16117SOL    HW160410   0.872   7.306   3.673 -1.2821 -0.9801  0.1298
16117SOL    HW260411   0.718   7.315   3.618 -0.6079  0.4472 -1.5613
16118SOL     OW60412   2.267   2.657   8.500  0.1692  0.6434 -0.4228
16118SOL    HW160413   2.345   2.697   8.452  1.1416 -0.0576  0.5528
16118SOL    HW260414   2.227   2.724   8.562  0.3822  0.8092 -0.4676
16119SOL     OW60415   8.736   9.531   2.462 -0.1882  0.4155 -0.3382
16119SOL    HW160416   8.651   9.508   2.509  0.4759  0.0932  0.7284
16119SOL    HW260417   8.716   9.569   2.372 -1.3916 -1.6105 -0.9384
16120SOL     OW60418   2.551   7.376   2.193 -0.1544 -0.0150  0.4619
16120SOL    HW160419   2.452   7.389   2.182  0.0207 -0.0832 -1.1862
16120SOL    HW260420   2.568   7.309   2.265 -1.2851  0.6023  1.3253
16121SOL     OW60421   5.943   4.989   2.308 -0.2744 -0.6315 -0.2300
16121SOL    HW160422   5.948   5.012   2.211  0.7431  0.9949  0.1988
16121SOL    HW260423   5.847   4.975   2.334 -0.4031 -3.3744 -1.9625
16122SOL     OW60424   0.816   3.200   2.073  0.3098 -0.5645  0.0059
16122SOL    HW160425   0.738   3.222   2.014 -0.4800 -0.4592  1.0980
16122SOL    HW260426   0.900   3.231   2.028 -0.3097 -0.2533 -0.9585
16123SOL     OW60427   3.370   8.049   0.626 -0.2684 -0.3951  0.1688
16123SOL    HW160428   3.289   8.020   0.574 -0.4130  0.2382  0.0426
16123SOL    HW260429   3.431   7.970   0.639 -0.3536 -0.6198 -0.7436
16124SOL     OW60430   1.776   1.226   5.364 -0.0605 -0.2464  0.8453
16124SOL    HW160431   1.693   1.218   5.418  0.7366 -0.1413  2.1164
16124SOL    HW260432   1.798   1.323   5.351 -1.7625 -0.1956 -2.0811
16125SOL     OW60433   4.758   2.429   6.577 -0.1467  0.0769  0.0878
16125SOL    HW160434   4.755   2.396   6.482  0.4519  0.4941 -0.0752
16125SOL    HW260435   4.803   2.360   6.634  0.1562  0.1485 -0.0631
16126SOL     OW60436   2.167   0.680   5.797  0.5374  0.2494 -0.0624
16126SOL    HW160437   2.081   0.692   5.847 -0.1480 -0.7552 -0.9741
16126SOL    HW260438   2.184   0.582   5.784  0.0557  0.5045 -2.8764
16127SOL     OW60439   3.221   7.255   0.862  0.6239  0.0931 -0.1361
16127SOL    HW160440   3.205   7.170   0.912 -1.4131  1.2438  1.2386
16127SOL    HW260441   3.274   7.236   0.779  0.8352 -2.3802  0.5343
16128SOL     OW60442   2.556   9.861   5.789 -0.1401  0.7145  0.1163
16128SOL    HW160443   2.458   9.872   5.772 -0.2639  0.0233  0.3686
16128SOL    HW260444   2.581   9.765   5.778  0.5045  0.8845  0.0919
16129SOL     OW60445   8.580   2.921   5.952  0.5807 -0.0084  0.2045
16129SOL    HW160446   8.582   3.017   5.978 -0.1707  0.1855 -0.4494
16129SOL    HW260447   8.517   2.871   6.011  0.7869 -0.0564  0.3852
16130SOL     OW60448   2.466   7.478   4.436 -0.0696 -0.1325 -0.0368
16130SOL    HW160449   2.488   7.419   4.358  0.6030 -0.9207  0.7329
16130SOL    HW260450   2.496   7.433   4.520  0.0218  1.1158  0.5973
16131SOL     OW60451   8.347   5.956   7.198 -0.0217  0.2044 -0.2417
16131SOL    HW160452   8.342   5.866   7.241 -2.0539  0.8485  0.9024
16131SOL    HW260453   8.347   5.945   7.098 -1.3780 -1.0146 -0.1192
16132SOL     OW60454   2.047   1.660   7.330  0.1199  0.2374  0.3185
16132SOL    HW160455   2.042   1.750   7.373 -0.1527  0.6457 -0.5497
16132SOL    HW260456   2.013   1.591   7.394  1.1227  0.6341  1.2951
16133SOL     OW60457   6.887   1.588   8.954  0.2007 -0.2048  0.0928
16133SOL    HW160458   6.847   1.669   8.909  0.6457 -0.2499 -0.3872
16133SOL    HW260459   6.814   1.537   9.000 -0.6340 -1.3400 -2.4082
16134SOL     OW60460   2.369   9.053   1.826  0.2114  0.3059 -0.2530
16134SOL    HW160461   2.387   8.957   1.803 -0.8739  0.0932 -0.2481
16134SOL    HW260462   2.409   9.073   1.916  1.8966  0.3312 -1.0074
16135SOL     OW60463   0.566   9.603   9.483 -0.1419 -0.1140 -0.6906
16135SOL    HW160464   0.528   9.694   9.472 -1.1420 -0.3335  0.8536
16135SOL    HW260465   0.647   9.593   9.425  0.5891  2.0917 -0.0760
16136SOL     OW60466   3.924   5.847   2.690 -0.6075 -0.1465 -0.9804
16136SOL    HW160467   3.907   5.916   2.761  0.2407 -0.4289 -0.4910
16136SOL    HW260468   3.842   5.836   2.634 -1.5520 -0.5017  0.4560
16137SOL     OW60469   0.697   5.750   3.496  0.0454  0.2303 -0.3189
16137SOL    HW160470   0.753   5.678   3.455 -0.8383 -0.2940 -0.6107
16137SOL    HW260471   0.664   5.812   3.424  0.9507  1.0527 -0.0516
16138SOL     OW60472   8.602   4.836   5.256 -0.4123  0.1426 -0.1902
16138SOL    HW160473   8.580   4.748   5.214  1.1819 -0.0209 -0.6820
16138SOL    HW260474   8.687   4.872   5.217 -1.2074  2.0568 -0.2257
16139SOL     OW60475   4.634   6.111   9.066  0.0012 -0.6563 -0.7353
16139SOL    HW160476   4.539   6.140   9.055 -0.3080 -1.1879  0.4805
16139SOL    HW260477   4.645   6.068   9.155  1.0076 -2.1369 -1.5705
16140SOL     OW60478   4.864   0.832   6.042 -0.2927 -0.3589  0.3394
16140SOL    HW160479   4.787   0.860   6.099  0.5271  1.4432  0.5975
16140SOL    HW260480   4.931   0.906   6.038  1.5428 -1.9759  0.3063
16141SOL     OW60481   4.089   1.674   7.816 -0.1497 -0.2714  0.1468
16141SOL    HW160482   4.093   1.619   7.899 -2.9222  0.0235  0.5258
16141SOL    HW260483   4.127   1.622   7.739  2.5515 -0.4987  1.5555
16142SOL     OW60484   4.920   8.779   9.401 -0.1945  0.3900 -0.0664
16142SOL    HW160485   4.972   8.768   9.485 -0.0938  1.1313 -0.0334
16142SOL    HW260486   4.822   8.775   9.422 -0.1666 -0.1815 -0.0215
16143SOL     OW60487   6.007   3.358   2.038 -0.1052 -0.1894 -0.1471
16143SOL    HW160488   6.036   3.449   2.012 -0.5864  0.3867  1.2517
16143SOL    HW260489   6.062   3.325   2.115 -0.1348 -0.9473 -0.4403
16144SOL     OW60490   8.898   8.410   0.869 -0.4141 -0.6315  0.1041
16144SOL    HW160491   8.869   8.317   0.888  0.0169 -0.8532 -0.3264
16144SOL    HW260492   8.848   8.446   0.790 -0.7875 -0.3966  0.4463
16145SOL     OW60493   7.929   4.709   9.836  0.0784  0.7629  0.3050
16145SOL    HW160494   7.966   4.800   9.853 -0.9171  1.1023  0.7015
16145SOL    HW260495   7.830   4.710   9.851 -0.1995  0.0341 -1.4185
16146SOL     OW60496   2.321   5.400   4.790  0.0852  0.1716 -0.3186
16146SOL    HW160497   2.371   5.341   4.727  1.2442  0.4624  0.3152
16146SOL    HW260498   2.264   5.464   4.738 -1.4220 -1.7013 -0.9987
16147SOL     OW60499   0.249   4.941   3.107  0.3879  0.7106 -0.3127
16147SOL    HW160500   0.189   4.861   3.118 -0.2061  0.8931 -2.1660
16147SOL    HW260501   0.197   5.024   3.126  1.0268  0.6908  1.6940
16148SOL     OW60502   4.037   2.464   0.331 -0.3659  0.0867 -0.2512
16148SOL    HW160503   3.953   2.518   0.333 -1.1206 -1.0962  0.9114
16148SOL    HW260504   4.018   2.372   0.364  1.0917 -0.6292 -1.3646
16149SOL     OW60505   8.230   7.366   7.111 -0.4911 -0.5162 -0.4844
16149SOL    HW160506   8.279   7.294   7.060 -0.0226 -1.0026  0.6438
16149SOL    HW260507   8.261   7.366   7.206 -1.1610  0.5834 -0.2656
16150SOL     OW60508   2.546   3.597   4.540  0.3275  0.0506  0.0194
16150SOL    HW160509   2.616   3.664   4.565  0.9024 -1.0731  1.5143
16150SOL    HW260510   2.477   3.593   4.611  0.2174 -0.8356 -0.1346
16151SOL     OW60511   1.375   7.179   5.297 -0.0928  0.1906  0.0638
16151SOL    HW160512   1.430   7.262   5.292  0.1897  0.0667  1.0865
16151SOL    HW260513   1.278   7.202   5.285 -0.0708  0.7447  0.9288
16152SOL     OW60514   1.029   4.159   6.884 -0.2379  0.3922 -0.3780
16152SOL    HW160515   1.037   4.065   6.850 -0.3349  0.8951 -1.7891
16152SOL    HW260516   1.112   4.210   6.860 -0.4421  0.8391 -0.1303
16153SOL     OW60517   1.006   4.553   8.183 -0.1484  0.4257  0.0777
16153SOL    HW160518   1.072   4.489   8.221  0.5942  0.3736 -1.2676
16153SOL    HW260519   1.008   4.548   8.083 -1.2236  1.3979 -0.0109
16154SOL     OW60520   3.299   8.800   1.494  0.2011 -0.6706 -0.2111
16154SOL    HW160521   3.360   8.721   1.486 -0.0851 -0.9055 -0.0554
16154SOL    HW260522   3.347   8.882   1.462  0.4100 -0.9492 -0.6207
16155SOL     OW60523   2.387   3.338   2.392  0.3629  0.4333 -0.2504
16155SOL    HW160524   2.294   3.368   2.415  0.8231  1.7315 -0.0218
16155SOL    HW260525   2.392   3.239   2.397 -0.9625  0.3662 -0.0561
16156SOL     OW60526   0.041   0.449   7.197  0.2317  0.1235 -0.0654
16156SOL    HW160527   0.011   0.367   7.149  1.3370 -0.2741 -0.0744
16156SOL    HW260528  -0.026   0.522   7.182 -0.9946 -0.8956  0.3303
16157SOL     OW60529   2.267   2.535   2.538 -0.1088  0.1444 -0.8017
16157SOL    HW160530   2.287   2.598   2.463  1.3871  0.7219  0.0604
16157SOL    HW260531   2.345   2.530   2.599 -0.8377 -1.2993  0.0461
16158SOL     OW60532   3.830   0.962   8.690  0.1178 -0.1924  0.1466
16158SOL    HW160533   3.804   0.903   8.614  0.5229  0.9128 -0.8589
16158SOL    HW260534   3.854   1.052   8.656 -1.4909  0.8745  1.7795
16159SOL     OW60535   4.384   8.499   0.988  0.4886 -0.0701  0.3258
16159SOL    HW160536   4.320   8.439   1.034 -0.8847  1.2846  0.2154
16159SOL    HW260537   4.410   8.574   1.049  0.2336  0.6170 -0.3949
16160SOL     OW60538   4.254   6.033   8.830 -0.2276  0.1158 -0.5122
16160SOL    HW160539   4.212   5.949   8.862 -0.9009 -0.0820 -1.8672
16160SOL    HW260540   4.313   6.070   8.901  0.4755 -1.7671 -0.0777
16161SOL     OW60541   0.273   0.860   8.606  0.1088 -0.5251  0.2783
16161SOL    HW160542   0.297   0.869   8.703  0.0923  0.1616  0.2204
16161SOL    HW260543   0.247   0.765   8.587  1.1202 -0.8879  0.7100
16162SOL     OW60544   0.741   4.082   7.697 -0.6380 -0.2001  0.1904
16162SOL    HW160545   0.831   4.124   7.712 -0.1348 -1.4232  0.7435
16162SOL    HW260546   0.670   4.151   7.703  0.1946  0.6134  0.8150
16163SOL     OW60547   5.540   0.271   2.609 -0.0759  0.1230  0.6741
16163SOL    HW160548   5.506   0.310   2.523 -1.5584 -2.2570  0.1527
16163SOL    HW260549   5.471   0.285   2.680 -1.2185 -2.6844  0.1623
16164SOL     OW60550   2.727   7.526   5.547 -0.8588 -0.0261 -0.4804
16164SOL    HW160551   2.822   7.506   5.521 -0.6762 -0.6326  0.6408
16164SOL    HW260552   2.726   7.603   5.610 -1.1146 -0.0641 -0.4405
16165SOL     OW60553   6.800   9.999   2.822  0.1183 -0.0046  0.1834
16165SOL    HW160554   6.890  10.041   2.832 -0.6068  1.3883  0.9791
16165SOL    HW260555   6.751  10.043   2.747 -0.2947 -0.0539  0.4235
16166SOL     OW60556   8.622   4.354   3.455 -0.0137 -0.5312  0.0471
16166SOL    HW160557   8.716   4.330   3.432  0.3458  0.2448  0.6704
16166SOL    HW260558   8.605   4.449   3.430 -0.9025 -0.9226 -0.8556
16167SOL     OW60559   1.836   5.771   6.518  0.2359  0.0385  0.0126
16167SOL    HW160560   1.896   5.773   6.598 -1.5598  0.0549  1.3684
16167SOL    HW260561   1.869   5.702   6.454  2.3033  0.7483  0.2496
16168SOL     OW60562   9.271   1.121   2.355 -0.2308 -0.0703  0.5311
16168SOL    HW160563   9.260   1.217   2.382  0.0836  0.1597 -0.1644
16168SOL    HW260564   9.218   1.063   2.417  0.7415  0.4285  1.8708
16169SOL     OW60565   1.081   8.146   9.540  0.3159 -0.0972 -0.2951
16169SOL    HW160566   1.010   8.208   9.505  0.9817  0.7271 -0.1893
16169SOL    HW260567   1.093   8.161   9.638  1.5995  0.7225 -0.5754
16170SOL     OW60568   2.158   3.508   5.900  1.3468 -0.1371  0.5628
16170SOL    HW160569   2.114   3.565   5.970  0.0992 -1.8056  1.1946
16170SOL    HW260570   2.111   3.420   5.896  0.9100  0.1964 -2.9378
16171SOL     OW60571   3.196   4.747   0.423 -0.6836  0.1097  0.1447
16171SOL    HW160572   3.165   4.824   0.480 -0.7497  1.2584 -1.4218
16171SOL    HW260573   3.294   4.756   0.406 -0.5560 -0.5395  0.5336
16172SOL     OW60574   3.123   8.679   0.482 -0.0298  0.7674 -0.0093
16172SOL    HW160575   3.039   8.681   0.537 -0.1315  0.4356 -0.1526
16172SOL    HW260576   3.099   8.682   0.385  0.0703 -0.6071 -0.0843
16173SOL     OW60577   1.308   4.607   6.913  0.3230  0.0855 -0.0951
16173SOL    HW160578   1.209   4.617   6.898 -0.1249 -0.7574  2.0964
16173SOL    HW260579   1.332   4.643   7.003  2.0576  0.4195 -0.6789
16174SOL     OW60580   4.977   9.545   2.110 -0.2355  0.2703  0.1013
16174SOL    HW160581   4.929   9.501   2.034  0.2860  0.5705 -0.4052
16174SOL    HW260582   4.922   9.538   2.193 -0.9116  0.1398 -0.3573
16175SOL     OW60583   2.267   4.799   0.220  0.1823 -0.1124 -0.2835
16175SOL    HW160584   2.339   4.849   0.268 -0.4255  0.8440 -0.3570
16175SOL    HW260585   2.276   4.812   0.122 -2.8447  3.9566 -0.1590
16176SOL     OW60586   1.631   3.028   4.828  0.0927  0.2495  0.4761
16176SOL    HW160587   1.630   3.045   4.730  0.7874 -0.2577  0.3830
16176SOL    HW260588   1.724   3.009   4.858 -0.3878 -1.4877  0.9139
16177SOL     OW60589   8.986   3.071   5.811 -0.4710 -0.4164  0.6446
16177SOL    HW160590   9.016   3.127   5.888  0.0373 -1.6708  1.3601
16177SOL    HW260591   8.949   2.985   5.844 -0.8601 -0.6922 -0.4808
16178SOL     OW60592   3.577   1.189   7.650 -0.4798 -0.0477 -0.1284
16178SOL    HW160593   3.556   1.262   7.585 -1.0081  0.0180  0.1138
16178SOL    HW260594   3.579   1.227   7.743 -0.1149 -0.2155 -0.0662
16179SOL     OW60595   8.485   7.407   2.587  0.2685  0.4351  0.6282
16179SOL    HW160596   8.542   7.352   2.526 -2.7427 -1.9047 -0.2320
16179SOL    HW260597   8.472   7.498   2.549  0.8094 -0.0657 -0.7588
16180SOL     OW60598   4.147   4.421   3.118  0.4930 -0.0165 -0.0602
16180SOL    HW160599   4.165   4.325   3.139  0.2016 -0.0551  0.0139
16180SOL    HW260600   4.050   4.433   3.095  0.4010  0.3546  0.4986
16181SOL     OW60601   1.736   7.195   5.212 -0.0240  0.6118  0.2557
16181SOL    HW160602   1.766   7.131   5.283 -0.9042  1.7328  1.6728
16181SOL    HW260603   1.681   7.146   5.144  1.2730 -0.5808  0.0513
16182SOL     OW60604   7.143   2.000   2.551 -0.0847 -0.8181 -0.0897
16182SOL    HW160605   7.221   1.940   2.533 -0.2716 -0.7393 -1.1769
16182SOL    HW260606   7.175   2.095   2.553  0.3694 -0.9847  2.5169
16183SOL     OW60607   9.060   9.525   4.833 -0.3219 -0.1053  0.1749
16183SOL    HW160608   8.963   9.515   4.809 -0.7091  1.6187  0.9162
16183SOL    HW260609   9.070   9.600   4.899  1.6654  0.6259 -0.9305
16184SOL     OW60610   8.009   8.922   9.191  0.1826 -0.3384  0.3829
16184SOL    HW160611   7.911   8.936   9.206  0.3925  1.5003  0.2165
16184SOL    HW260612   8.060   8.948   9.273  1.0089  5.7250 -1.7265
16185SOL     OW60613   1.825   7.934   0.333 -0.1622 -0.0417  0.6187
16185SOL    HW160614   1.871   8.013   0.372 -0.7264  0.0117  1.1825
16185SOL    HW260615   1.729   7.955   0.318 -0.1506 -0.3697  0.0586
16186SOL     OW60616   7.130   2.349   2.130  0.3824 -0.1614 -0.1399
16186SOL    HW160617   7.152   2.420   2.198 -0.0059 -2.4740  2.5047
16186SOL    HW260618   7.033   2.352   2.110  0.3933  0.1636 -0.1484
16187SOL     OW60619   3.134   4.941   0.591 -0.0882 -0.0125  0.2455
16187SOL    HW160620   3.051   4.997   0.588  0.4215  0.6618 -2.1279
16187SOL    HW260621   3.212   4.998   0.619  0.1534  0.1309 -0.6972
16188SOL     OW60622   0.064   0.426   0.513  0.6761  0.2178 -0.5205
16188SOL    HW160623   0.083   0.447   0.609  1.7811 -0.7440 -0.5125
16188SOL    HW260624   0.149   0.429   0.460  0.5702 -2.0642 -0.8986
16189SOL     OW60625   9.102   5.950   6.299  0.1459 -0.4791  0.2624
16189SOL    HW160626   9.132   5.889   6.226  0.1085 -0.2117  0.0250
16189SOL    HW260627   9.148   6.038   6.291  0.2491 -0.4961  0.6459
16190SOL     OW60628   0.432   7.838   0.519  0.3033  0.2104  0.5975
16190SOL    HW160629   0.337   7.839   0.488  0.1987 -0.1502  0.9054
16190SOL    HW260630   0.492   7.862   0.443 -0.1185  1.6213  0.6981
16191SOL     OW60631   6.794   5.092   8.578  0.1834 -0.1518 -0.4800
16191SOL    HW160632   6.816   5.179   8.535 -0.5378 -0.1589 -0.8758
16191SOL    HW260633   6.870   5.028   8.567  1.3996  0.9623  1.2737
16192SOL     OW60634   2.409   7.615   5.835  0.4459 -0.0292  0.5856
16192SOL    HW160635   2.413   7.638   5.737  2.0949 -0.9491  0.4198
16192SOL    HW260636   2.370   7.692   5.885 -1.6075 -0.0250 -0.9412
16193SOL     OW60637   7.845   5.568   1.114 -0.4214 -0.2341 -0.0452
16193SOL    HW160638   7.920   5.530   1.060  1.2155  1.9428  0.6153
16193SOL    HW260639   7.877   5.650   1.161 -2.7515 -0.2435  1.6264
16194SOL     OW60640   3.614   8.347   7.750  0.9171 -0.4365  0.1152
16194SOL    HW160641   3.605   8.321   7.654  1.4225  1.7689 -0.5519
16194SOL    HW260642   3.711   8.354   7.774  0.9102  3.5546 -0.5699
16195SOL     OW60643   3.067   3.254   0.140 -0.3687  0.6869 -0.8694
16195SOL    HW160644   3.155   3.301   0.147 -0.6677  1.1707 -0.3057
16195SOL    HW260645   3.032   3.264   0.047 -0.7784  2.2139 -0.5601
16196SOL     OW60646   1.384   5.763   4.185  0.3002 -0.0222  0.3502
16196SOL    HW160647   1.390   5.807   4.275  0.3770 -2.6696  1.6864
16196SOL    HW260648   1.465   5.785   4.131  0.5295  1.1087  1.1370
16197SOL     OW60649   2.516   0.376   8.281  0.4480  0.0907 -0.0369
16197SOL    HW160650   2.512   0.473   8.305  0.3122 -0.0885  0.6646
16197SOL    HW260651   2.506   0.366   8.182 -1.0145  0.7011  0.0339
16198SOL     OW60652   5.485   0.099   4.499 -0.5189  0.3349 -0.5947
16198SOL    HW160653   5.477   0.002   4.523 -0.5591  0.1160 -1.4675
16198SOL    HW260654   5.546   0.145   4.564 -0.6644 -0.2293 -0.0570
16199SOL     OW60655   9.336   2.533   9.020 -0.2504 -0.6597  0.2639
16199SOL    HW160656   9.435   2.526   9.004 -0.3424 -0.5112 -0.3872
16199SOL    HW260657   9.292   2.448   8.991 -0.2132 -1.0542  1.3436
16200SOL     OW60658   8.298   8.419   4.764  0.4223 -0.6956 -0.1210
16200SOL    HW160659   8.219   8.362   4.786 -0.8353  1.4441  1.0244
16200SOL    HW260660   8.272   8.489   4.699  0.7738  1.4560  1.9963
16201SOL     OW60661   2.074   0.962   1.088 -0.3084  0.2047 -0.1297
16201SOL    HW160662   1.976   0.944   1.088 -0.5125  1.3048  0.2023
16201SOL    HW260663   2.099   1.016   1.008 -0.6977  3.7166  2.0543
16202SOL     OW60664   1.245   7.590   8.487  0.4464 -0.0599  0.3469
16202SOL    HW160665   1.243   7.560   8.391  2.4014 -0.6845  0.4630
16202SOL    HW260666   1.163   7.643   8.507  0.9514  1.8481 -2.2605
16203SOL     OW60667   6.587   9.911   4.049  0.0553  0.1882 -0.3439
16203SOL    HW160668   6.603  10.002   4.011  2.6183 -0.5498 -1.1817
16203SOL    HW260669   6.635   9.843   3.993 -0.3402 -1.4762  1.2781
16204SOL     OW60670   7.023   9.137   6.309 -0.0991 -0.1185  0.3069
16204SOL    HW160671   6.998   9.079   6.231 -0.1173  0.2985  0.0001
16204SOL    HW260672   7.101   9.096   6.357  0.9745  0.4567 -0.9094
16205SOL     OW60673   4.477   2.204   5.412  0.0606 -0.3666 -0.2459
16205SOL    HW160674   4.411   2.209   5.337 -0.9805  0.6850  0.7185
16205SOL    HW260675   4.475   2.112   5.452 -0.8547 -0.3323 -0.1993
16206SOL     OW60676   2.457   3.979   1.389  0.3704 -0.1794  0.3495
16206SOL    HW160677   2.527   3.912   1.411  1.8343  0.9081 -0.8527
16206SOL    HW260678   2.421   3.961   1.298 -0.8715 -0.6855  0.9319
16207SOL     OW60679   4.164   0.986   1.895 -0.0258 -0.2360 -0.7131
16207SOL    HW160680   4.128   0.986   1.801 -2.9874 -0.0869  0.3659
16207SOL    HW260681   4.107   0.928   1.952  0.7728  0.9707  1.3713
16208SOL     OW60682   8.429   5.182   9.172 -0.2744  0.2263 -0.6576
16208SOL    HW160683   8.458   5.173   9.077  1.2014  1.4317 -0.3370
16208SOL    HW260684   8.505   5.216   9.227 -1.6437  1.2571  0.6318
16209SOL     OW60685   4.260   9.136   8.631 -0.1346  0.0140  0.7456
16209SOL    HW160686   4.222   9.159   8.541 -0.1127  2.2560  1.2689
16209SOL    HW260687   4.255   9.037   8.646 -0.8054 -0.2926 -1.4141
16210SOL     OW60688   0.556   5.362   4.090 -0.8845  0.0698  0.5174
16210SOL    HW160689   0.633   5.418   4.058 -1.5725 -0.0629 -1.4058
16210SOL    HW260690   0.479   5.422   4.112 -0.7296  0.0787  1.0522
16211SOL     OW60691   9.816   7.003   0.071  0.1241 -0.2170  0.4505
16211SOL    HW160692   9.830   7.057   0.154 -0.5693  0.3151  0.2249
16211SOL    HW260693   9.740   7.041   0.019  0.2747 -0.8146 -0.2129
16212SOL     OW60694   0.157   2.444   1.219  0.5488 -0.0206 -0.1847
16212SOL    HW160695   0.215   2.374   1.178  0.0642  0.5723 -1.9074
16212SOL    HW260696   0.096   2.482   1.150  0.0574  1.3475  0.9706
16213SOL     OW60697   0.801   1.789   0.746  0.7207 -0.6506  0.1160
16213SOL    HW160698   0.856   1.719   0.700  0.1314 -0.2188 -1.2814
16213SOL    HW260699   0.704   1.770   0.731  0.5195 -0.4624  1.1408
16214SOL     OW60700   7.216   3.632   0.721 -0.1651 -0.0370 -0.2504
16214SOL    HW160701   7.272   3.604   0.799 -0.2038 -1.6887 -0.8018
16214SOL    HW260702   7.123   3.650   0.752 -0.2837 -1.1021  0.0188
16215SOL     OW60703   2.190   9.570   9.512 -0.0790  0.0784  0.3543
16215SOL    HW160704   2.199   9.495   9.577 -1.1187 -0.4628 -0.1165
16215SOL    HW260705   2.203   9.658   9.560  0.6092 -0.3702  1.0022
16216SOL     OW60706   7.731   0.200   2.893  0.7692 -1.0381 -0.0616
16216SOL    HW160707   7.798   0.146   2.945 -0.0407 -1.5461  0.4534
16216SOL    HW260708   7.675   0.139   2.837  0.6958 -0.6152 -0.4532
16217SOL     OW60709   5.057   7.992   5.440  0.0821 -0.1440  0.2279
16217SOL    HW160710   5.046   7.907   5.390 -1.3553  0.1613 -0.0019
16217SOL    HW260711   4.988   7.997   5.512  0.7340  0.4247  0.8289
16218SOL     OW60712   5.413   8.065   7.815  0.6182 -0.9126  0.1024
16218SOL    HW160713   5.383   8.071   7.911  1.4909 -0.8154  0.3747
16218SOL    HW260714   5.509   8.040   7.812  0.6990 -0.5099 -0.7527
16219SOL     OW60715   7.104   1.640   5.284  0.3014 -0.6730 -0.3251
16219SOL    HW160716   7.072   1.564   5.227  0.0954 -0.6903 -0.1846
16219SOL    HW260717   7.038   1.658   5.357 -1.1215  1.5662 -2.0817
16220SOL     OW60718   8.194   6.270   2.299  0.2688  0.5163 -0.0181
16220SOL    HW160719   8.201   6.176   2.266 -0.1673  0.3187  0.4621
16220SOL    HW260720   8.286   6.306   2.317  0.3753 -0.2118  0.9301
16221SOL     OW60721   8.505   6.960   4.912  0.2825 -0.6780 -0.2332
16221SOL    HW160722   8.492   6.865   4.940 -0.4391 -0.2595  0.8797
16221SOL    HW260723   8.416   7.004   4.899  0.5889  0.4903  1.5196
16222SOL     OW60724   0.964   3.725   2.233  0.1312 -0.5385  0.0687
16222SOL    HW160725   1.003   3.740   2.324 -0.7727  0.0030  0.3837
16222SOL    HW260726   1.027   3.757   2.163  0.4822 -0.1812  0.5477
16223SOL     OW60727   3.471   4.528   5.613 -0.0207 -0.1423 -0.0156
16223SOL    HW160728   3.430   4.513   5.524  1.5766 -1.1846 -0.6141
16223SOL    HW260729   3.563   4.488   5.615  0.0199 -0.0481  2.0583
16224SOL     OW60730   1.057   5.164   5.845 -0.4268 -0.5091 -0.3995
16224SOL    HW160731   0.980   5.112   5.808 -0.5299  0.9631 -2.3621
16224SOL    HW260732   1.025   5.253   5.878  0.1415 -0.6128  0.4406
16225SOL     OW60733   0.149   6.283   4.858  0.1652  0.1817 -0.3369
16225SOL    HW160734   0.145   6.234   4.772  0.7490  0.5059 -0.5546
16225SOL    HW260735   0.225   6.247   4.913  1.0044  1.2642 -0.7687
16226SOL     OW60736   2.650   4.523   7.636  0.4667  0.1183  0.3299
16226SOL    HW160737   2.594   4.561   7.710  0.3487  1.9991 -0.6988
16226SOL    HW260738   2.746   4.544   7.651  0.6551 -1.0451  0.8493
16227SOL     OW60739   6.581   5.179   9.659 -0.4033 -1.0523  0.0492
16227SOL    HW160740   6.500   5.214   9.611  0.0209  0.4832  0.4050
16227SOL    HW260741   6.637   5.126   9.596  0.9686  2.2996 -1.6581
16228SOL     OW60742   4.942   0.171   1.191 -0.7287 -0.0044 -0.1021
16228SOL    HW160743   4.919   0.243   1.256  0.1332  1.7394 -1.6818
16228SOL    HW260744   5.035   0.140   1.207 -0.7843 -0.1238 -0.0099
16229SOL     OW60745   7.083   1.463   5.580  0.0511 -0.5010 -0.4940
16229SOL    HW160746   7.144   1.398   5.535 -1.2862 -2.0741 -0.0575
16229SOL    HW260747   6.989   1.447   5.550 -0.1658  2.0070 -1.2852
16230SOL     OW60748   2.097   7.846   9.635 -0.0616 -0.1422 -0.3091
16230SOL    HW160749   2.133   7.796   9.713  1.0236  0.9053 -0.1141
16230SOL    HW260750   2.171   7.867   9.571 -0.8180 -0.4006 -1.2867
16231SOL     OW60751   0.286   6.526   9.739 -0.2779 -0.0453  0.2559
16231SOL    HW160752   0.269   6.535   9.641  1.9185 -0.3203 -0.1748
16231SOL    HW260753   0.274   6.615   9.784  0.0022  0.3538 -0.4617
16232SOL     OW60754   5.647   5.994   1.457  0.0963 -0.1095 -0.5453
16232SOL    HW160755   5.660   6.059   1.382 -3.2977 -0.5906 -1.6717
16232SOL    HW260756   5.569   6.022   1.513  0.0907 -1.8932  0.3948
16233SOL     OW60757   8.799   0.040   3.477 -0.0893  0.0753  0.2735
16233SOL    HW160758   8.814   0.056   3.380  0.4589  0.8984  0.4942
16233SOL    HW260759   8.810   0.125   3.528 -0.5245 -0.3169  1.0440
16234SOL     OW60760   8.652   5.151   1.153  0.2399 -0.3111  0.0015
16234SOL    HW160761   8.623   5.060   1.124 -0.9651 -0.4786  1.6198
16234SOL    HW260762   8.665   5.152   1.252  0.6342  1.1705 -0.0446
16235SOL     OW60763   7.011   7.122   5.840  0.1984  0.1982  0.6947
16235SOL    HW160764   6.912   7.110   5.834  0.1109  1.0964  0.3228
16235SOL    HW260765   7.054   7.086   5.757  0.0671  1.0805  0.2468
16236SOL     OW60766   8.374   5.380   2.795 -0.2417 -0.0558  0.0496
16236SOL    HW160767   8.303   5.343   2.855  0.5775 -1.3604  0.2383
16236SOL    HW260768   8.331   5.431   2.721 -1.2912  0.9592  1.3364
16237SOL     OW60769   4.767   9.171   5.087  0.5229 -0.6158 -0.4986
16237SOL    HW160770   4.668   9.178   5.076  0.8598  3.1239 -1.7720
16237SOL    HW260771   4.787   9.116   5.168 -2.5999 -0.6944  0.2903
16238SOL     OW60772   1.266   5.309   6.547  0.0585  0.2869  0.0627
16238SOL    HW160773   1.280   5.343   6.454 -0.2417 -0.3141 -0.2023
16238SOL    HW260774   1.345   5.332   6.603  0.4787  0.1641 -0.4766
16239SOL     OW60775   4.696   9.339   3.293  0.0815  0.5377  0.0643
16239SOL    HW160776   4.605   9.352   3.333  0.7110  0.0506  1.6668
16239SOL    HW260777   4.740   9.428   3.281 -0.4824  0.7509 -0.4215
16240SOL     OW60778   8.586   4.659   1.214 -0.4420  0.5479  0.8132
16240SOL    HW160779   8.543   4.580   1.168  1.0900  0.0082  0.2791
16240SOL    HW260780   8.540   4.676   1.301 -0.1588 -1.5859  1.4077
16241SOL     OW60781   6.890   4.299   1.041  0.6652 -0.3827 -0.2123
16241SOL    HW160782   6.865   4.390   1.076  1.5956  0.4508 -1.6636
16241SOL    HW260783   6.826   4.272   0.970  1.1795 -0.2535 -0.7323
16242SOL     OW60784   2.444   7.555   6.870 -0.2457  0.0443  0.9450
16242SOL    HW160785   2.443   7.629   6.936 -2.6404 -0.0363  1.0178
16242SOL    HW260786   2.385   7.577   6.793 -1.4578 -2.0229  1.2408
16243SOL     OW60787   2.703   1.038   9.210  0.2898  0.3281 -0.5294
16243SOL    HW160788   2.659   1.021   9.298 -0.8897 -1.5783 -1.4432
16243SOL    HW260789   2.780   0.975   9.199 -0.6120 -0.6092 -1.5640
16244SOL     OW60790   0.105   3.034   8.988 -0.1164 -0.2554 -0.6340
16244SOL    HW160791   0.100   3.060   8.892  1.1105  0.2492 -0.5654
16244SOL    HW260792   0.172   3.091   9.035 -0.4627 -0.7245  0.4457
16245SOL     OW60793   6.657   1.800   1.159  0.0375  0.1343  0.0878
16245SOL    HW160794   6.648   1.730   1.229 -0.6773  0.3196  0.1895
16245SOL    HW260795   6.720   1.769   1.088 -0.6083 -0.7913 -0.0891
16246SOL     OW60796   4.855   8.061   1.939  0.1060 -0.1459 -0.0564
16246SOL    HW160797   4.858   8.145   1.993  0.5320  0.4313 -0.9572
16246SOL    HW260798   4.777   8.006   1.966  1.2168 -0.6330  2.2751
16247SOL     OW60799   7.849   7.887   0.503 -0.4662 -0.0804  0.1775
16247SOL    HW160800   7.881   7.826   0.431 -1.8421 -2.2898  1.3873
16247SOL    HW260801   7.867   7.847   0.593 -1.1839  1.3836  1.0076
16248SOL     OW60802   0.794   6.743   9.630  0.2294 -0.0865  0.2233
16248SOL    HW160803   0.768   6.788   9.545 -0.5161 -2.1752 -0.6736
16248SOL    HW260804   0.713   6.708   9.676  0.8316 -0.8926  0.6917
16249SOL     OW60805   3.558   2.762   1.393 -0.1932 -0.3172  0.5246
16249SOL    HW160806   3.486   2.777   1.325 -0.4240 -1.0144  0.6119
16249SOL    HW260807   3.517   2.751   1.483 -0.0513 -1.7241  0.4226
16250SOL     OW60808   7.288   0.497   0.289  0.0472  0.0003  0.0125
16250SOL    HW160809   7.194   0.479   0.318 -0.0744  2.8297  1.5469
16250SOL    HW260810   7.352   0.450   0.349 -0.3549 -1.3701 -0.6157
16251SOL     OW60811   1.830   8.693   4.503  0.0036  0.8893  0.1897
16251SOL    HW160812   1.903   8.649   4.555  0.4412  1.6227  0.1984
16251SOL    HW260813   1.811   8.640   4.420  0.6749  0.8087  0.0889
16252SOL     OW60814   7.318   5.986   6.715  0.4281  0.1039 -0.1844
16252SOL    HW160815   7.393   6.050   6.698 -0.0506  1.1813  1.6028
16252SOL    HW260816   7.334   5.938   6.801 -1.2020  0.7978  0.5292
16253SOL     OW60817   1.526   4.968   0.153  0.2480 -0.4742 -0.0312
16253SOL    HW160818   1.523   4.891   0.216 -0.5715 -0.3151  0.1363
16253SOL    HW260819   1.478   4.943   0.068  0.6058 -0.3933 -0.2600
16254SOL     OW60820   9.911   1.074   7.174 -0.4433  0.0445 -0.2123
16254SOL    HW160821   9.978   1.147   7.157 -1.5382  0.8351 -1.2476
16254SOL    HW260822   9.842   1.107   7.238 -1.4868  0.2842 -1.4243
16255SOL     OW60823   6.033   8.898   7.186  0.0589  0.0587 -0.1540
16255SOL    HW160824   5.956   8.864   7.132  1.3621  1.0261 -2.6688
16255SOL    HW260825   6.094   8.823   7.210 -0.4127 -0.3348 -0.1898
16256SOL     OW60826   9.047   5.596   4.065 -0.0537 -0.1793 -0.0183
16256SOL    HW160827   8.983   5.589   4.141 -0.2742 -1.8320 -0.3367
16256SOL    HW260828   9.098   5.511   4.055 -0.9618 -0.5029 -2.5044
16257SOL     OW60829   4.449   2.330   9.349  0.0875  0.0747 -0.7275
16257SOL    HW160830   4.444   2.378   9.437 -3.4118  0.0478 -0.8368
16257SOL    HW260831   4.402   2.242   9.357 -1.2876  0.5876 -2.9130
16258SOL     OW60832   4.030   8.920   3.521 -0.1434  0.0044 -0.3177
16258SOL    HW160833   3.935   8.893   3.505 -0.3944  1.4075 -1.2668
16258SOL    HW260834   4.062   8.976   3.445  1.9500 -1.6954 -0.7476
16259SOL     OW60835   1.976   2.526   1.668 -0.0638 -0.2126  0.1820
16259SOL    HW160836   1.980   2.429   1.688  0.6853  0.2340  2.2668
16259SOL    HW260837   2.043   2.549   1.597 -0.7313 -1.3176 -0.8124
16260SOL     OW60838   8.764   7.969   9.886 -0.6000 -0.4147  0.0199
16260SOL    HW160839   8.740   7.882   9.844 -0.3337  0.8608 -2.8839
16260SOL    HW260840   8.863   7.973   9.898 -0.5712 -0.3518 -0.2354
16261SOL     OW60841   5.896   3.874   2.121  0.2485 -0.5636  0.6823
16261SOL    HW160842   5.979   3.835   2.163  0.6047 -1.4417 -0.8182
16261SOL    HW260843   5.899   3.859   2.022 -1.6047 -0.3938  0.5972
16262SOL     OW60844   0.874   7.150   1.640  0.7525 -0.1468 -0.5192
16262SOL    HW160845   0.837   7.070   1.593  1.6712 -0.0628 -1.3954
16262SOL    HW260846   0.820   7.231   1.616 -1.1991 -0.7349  1.6344
16263SOL     OW60847   9.100   9.753   6.961 -0.2748  0.1809 -0.2656
16263SOL    HW160848   9.188   9.723   6.997 -0.2744  0.7441  0.1989
16263SOL    HW260849   9.029   9.688   6.989 -0.1505  0.2020  0.1042
16264SOL     OW60850   5.072   2.761   8.725  0.4326 -0.2468 -0.2121
16264SOL    HW160851   5.097   2.681   8.780  1.0722  0.6320  0.8066
16264SOL    HW260852   5.154   2.801   8.684  0.1275 -0.0798 -0.6592
16265SOL     OW60853   3.316   7.038  10.017  0.5537  0.2350 -0.2729
16265SOL    HW160854   3.291   6.962  10.077  1.4032  0.4403  0.3632
16265SOL    HW260855   3.234   7.086   9.986  0.1144  0.2724  0.9395
16266SOL     OW60856   9.484   8.734   0.633 -0.2259  0.0011 -0.2220
16266SOL    HW160857   9.526   8.709   0.546  0.6183 -0.6513  0.3607
16266SOL    HW260858   9.432   8.656   0.668 -0.9472  0.4142 -0.3636
16267SOL     OW60859   5.588   0.377   1.636  0.4394 -0.9670 -0.3474
16267SOL    HW160860   5.610   0.348   1.729 -1.4446 -0.5480  0.2344
16267SOL    HW260861   5.673   0.383   1.582  1.6084 -0.6201  1.4945
16268SOL     OW60862   4.188   1.187   9.459  0.3239  0.6691 -0.1733
16268SOL    HW160863   4.273   1.136   9.444  0.5918  1.0634 -0.0321
16268SOL    HW260864   4.154   1.167   9.551  1.2093  1.8452  0.4291
16269SOL     OW60865   7.641   2.122   9.344 -0.2134 -0.4781 -0.2897
16269SOL    HW160866   7.592   2.036   9.336 -0.6805 -0.2593  0.1316
16269SOL    HW260867   7.576   2.195   9.367  0.6047 -0.5653  2.4157
16270SOL     OW60868   1.479   2.219   7.243 -0.5148  0.0393 -0.1365
16270SOL    HW160869   1.457   2.125   7.218  1.4410 -0.1610 -1.2614
16270SOL    HW260870   1.413   2.282   7.202 -0.4211 -0.6789 -1.4018
16271SOL     OW60871   6.948   0.678   7.946  0.0974  0.3411  0.2893
16271SOL    HW160872   7.015   0.687   7.872  1.7796  0.9207  1.8419
16271SOL    HW260873   6.900   0.765   7.958 -1.2814 -0.2032 -1.1172
16272SOL     OW60874   3.643   9.482   1.086 -0.0388 -0.2151  0.6793
16272SOL    HW160875   3.657   9.439   1.175  0.9597 -0.3567  0.4600
16272SOL    HW260876   3.574   9.554   1.094 -0.2291 -0.4871  1.4842
16273SOL     OW60877   9.017   1.264   8.404 -0.2169  0.2152  0.6817
16273SOL    HW160878   9.009   1.212   8.489  1.2821 -0.9702  0.1327
16273SOL    HW260879   8.945   1.237   8.341  0.6590 -1.4133  0.3247
16274SOL     OW60880   7.480   6.224   6.211 -0.0349  0.1956  0.1442
16274SOL    HW160881   7.386   6.254   6.228  0.0015 -0.0417  0.8069
16274SOL    HW260882   7.506   6.156   6.280  0.9481  0.9770  0.5695
16275SOL     OW60883   3.425   5.264   2.871  0.5049  0.0809 -0.2613
16275SOL    HW160884   3.459   5.231   2.959 -0.8295 -0.1905  0.1633
16275SOL    HW260885   3.471   5.213   2.797  3.3770  1.9380  0.1453
16276SOL     OW60886   6.249   4.714   9.047  0.2578  0.0160 -0.3133
16276SOL    HW160887   6.242   4.755   8.956  0.4488  1.5890  0.3802
16276SOL    HW260888   6.230   4.616   9.040  0.0268  0.1660 -2.0081
16277SOL     OW60889   9.684   8.695   3.244  0.2005 -0.2225 -0.6587
16277SOL    HW160890   9.593   8.708   3.205 -0.0482 -2.7855 -1.0247
16277SOL    HW260891   9.745   8.766   3.209 -2.1828  3.0294  1.4904
16278SOL     OW60892   7.941   0.691   0.700 -0.5431  0.0783  0.2421
16278SOL    HW160893   8.018   0.688   0.636 -1.4741 -2.2848 -0.7932
16278SOL    HW260894   7.972   0.663   0.791 -0.1248 -0.6487 -0.1209
16279SOL     OW60895   0.509   8.071   6.207  0.0179 -0.1031  0.3384
16279SOL    HW160896   0.452   7.996   6.175  0.4266 -0.3055  0.0787
16279SOL    HW260897   0.459   8.157   6.198 -0.2891 -0.2921  0.2216
16280SOL     OW60898   9.482   3.561   5.222 -0.1219 -0.1937 -0.0309
16280SOL    HW160899   9.551   3.548   5.293  0.1850  1.6885  0.0538
16280SOL    HW260900   9.392   3.538   5.257  0.1012  0.2056  0.8114
16281SOL     OW60901   0.546   1.319   7.334 -0.2554  0.2009 -0.2634
16281SOL    HW160902   0.525   1.253   7.406  1.6959 -0.5138 -0.3125
16281SOL    HW260903   0.594   1.397   7.374  2.6028 -1.1094 -1.0373
16282SOL     OW60904   0.267   4.150   0.580  0.7057  0.2180  0.3147
16282SOL    HW160905   0.246   4.245   0.556  0.8499  0.4969  1.2544
16282SOL    HW260906   0.344   4.149   0.644  1.0751 -0.5707 -0.1388
16283SOL     OW60907   0.919   8.439   3.649  0.2373 -0.2627 -0.1843
16283SOL    HW160908   0.917   8.442   3.749 -0.6466  0.5833 -0.2231
16283SOL    HW260909   0.825   8.445   3.614  0.4360 -1.8112 -1.0289
16284SOL     OW60910   0.833   0.309   5.176 -0.5486  0.2747  0.4489
16284SOL    HW160911   0.924   0.336   5.207 -0.9077  0.2123  1.6213
16284SOL    HW260912   0.791   0.385   5.127 -0.0486  0.4770  0.3264
16285SOL     OW60913   3.513   4.059   1.469 -0.0725  0.0957 -0.2470
16285SOL    HW160914   3.460   4.124   1.415  1.2610  0.7155 -0.8215
16285SOL    HW260915   3.488   4.068   1.566  0.4806  1.8185 -0.2576
16286SOL     OW60916   6.220   4.418   0.648  0.3261 -0.1776 -1.0733
16286SOL    HW160917   6.242   4.505   0.604  1.4562 -0.1168 -0.4113
16286SOL    HW260918   6.300   4.385   0.699 -1.0902  0.0037  1.3301
16287SOL     OW60919   8.774   7.961   3.877  0.0457 -0.3889 -0.0952
16287SOL    HW160920   8.685   7.928   3.844 -0.1100  0.4104 -0.4927
16287SOL    HW260921   8.761   8.017   3.958 -0.0092  1.1947 -1.1658
16288SOL     OW60922   1.312   6.561   2.856  0.4249  0.2995  0.9081
16288SOL    HW160923   1.333   6.659   2.865 -3.6836  1.3921 -0.2066
16288SOL    HW260924   1.356   6.525   2.773  1.7611  1.2271  1.1916
16289SOL     OW60925   2.693   8.581   7.055 -0.2983 -0.3586  0.3055
16289SOL    HW160926   2.716   8.653   7.119  0.9960 -1.4657  1.1225
16289SOL    HW260927   2.774   8.525   7.037 -0.9007 -0.7084 -1.4759
16290SOL     OW60928   9.576   3.918   8.582  0.1083 -0.1157 -0.0887
16290SOL    HW160929   9.528   3.874   8.506 -3.0292  2.0988  0.5119
16290SOL    HW260930   9.578   3.857   8.661  0.1893 -1.0464 -0.8065
16291SOL     OW60931   2.671   0.407   7.688 -0.0018 -0.0285  0.0051
16291SOL    HW160932   2.656   0.502   7.715  1.0222  0.4691 -1.0993
16291SOL    HW260933   2.710   0.405   7.595 -2.4032 -1.6330 -1.0061
16292SOL     OW60934   7.561   5.017   7.129  0.3760  0.7148 -0.1557
16292SOL    HW160935   7.565   5.091   7.195 -0.1567  1.4561 -0.9534
16292SOL    HW260936   7.643   5.019   7.071  0.3352  0.7125 -0.2139
16293SOL     OW60937   3.397   0.426   1.921  0.2606 -0.2629 -0.3664
16293SOL    HW160938   3.302   0.396   1.912  0.1319  0.5481 -1.7110
16293SOL    HW260939   3.417   0.442   2.018 -2.1035  3.1994 -0.3532
16294SOL     OW60940   9.831   6.597   4.149 -0.0476 -0.2740  0.2498
16294SOL    HW160941   9.820   6.561   4.242 -0.7514 -0.4664  0.0949
16294SOL    HW260942   9.785   6.685   4.141 -1.4926 -1.0734 -0.3958
16295SOL     OW60943   3.540   0.618   3.435  0.1587 -0.0775  0.0335
16295SOL    HW160944   3.504   0.566   3.357  0.3151  1.1313 -0.8657
16295SOL    HW260945   3.638   0.633   3.422  0.1309  0.3611  0.3318
16296SOL     OW60946   2.709   2.684   3.197 -0.6551  0.0876  0.0683
16296SOL    HW160947   2.636   2.703   3.263 -1.6923  2.5836 -1.7154
16296SOL    HW260948   2.676   2.619   3.129 -0.9862  0.6549 -0.3183
16297SOL     OW60949   6.837   1.222   9.579  0.1926 -0.0058  0.0499
16297SOL    HW160950   6.868   1.276   9.657  0.7238  1.4924 -1.1696
16297SOL    HW260951   6.857   1.125   9.595  1.2961  0.4151  1.2870
16298SOL     OW60952   3.980   6.263   3.475  0.2910 -0.1758 -0.0988
16298SOL    HW160953   3.931   6.185   3.436  0.2413  0.0739 -0.5358
16298SOL    HW260954   3.941   6.286   3.564 -3.0044  2.5359 -2.1473
16299SOL     OW60955   7.667   5.209   3.725 -0.3739 -0.2741 -0.0236
16299SOL    HW160956   7.689   5.112   3.723  1.5829  0.1173  1.1720
16299SOL    HW260957   7.677   5.248   3.634 -0.6040 -1.0729 -0.3897
16300SOL     OW60958   8.182   8.644   2.279  0.1507  0.3246  0.3578
16300SOL    HW160959   8.086   8.634   2.308  0.1357 -1.5131 -0.2247
16300SOL    HW260960   8.185   8.662   2.180  0.3806  1.1292  0.5112
16301SOL     OW60961   4.105   0.879   4.876  0.6626  0.7330 -0.4076
16301SOL    HW160962   4.186   0.896   4.820  1.1876  0.5127  0.2694
16301SOL    HW260963   4.071   0.965   4.913  0.4430  0.8541 -0.8958
16302SOL     OW60964   0.510   3.846   0.280 -0.6084 -0.1759 -0.1664
16302SOL    HW160965   0.418   3.883   0.273 -0.0429  1.0351 -1.2030
16302SOL    HW260966   0.563   3.900   0.345 -0.0913  0.2028 -0.9053
16303SOL     OW60967   7.210   9.918   5.345  0.1400 -0.4645 -0.0518
16303SOL    HW160968   7.243   9.898   5.437  2.3990 -0.3865 -0.8038
16303SOL    HW260969   7.195  10.017   5.336 -0.5373 -0.5236  0.3572
16304SOL     OW60970   1.412   3.946   4.888 -0.1009 -0.4501  0.2596
16304SOL    HW160971   1.340   3.935   4.957 -0.2027 -0.0064  0.2222
16304SOL    HW260972   1.490   3.993   4.929 -0.6013  0.8069 -0.2367
16305SOL     OW60973   9.697   0.671   3.858 -0.6383  0.6826 -0.1076
16305SOL    HW160974   9.759   0.653   3.783 -1.3495  0.5435 -0.6648
16305SOL    HW260975   9.703   0.597   3.926  0.7613  1.3234  0.4931
16306SOL     OW60976   2.047   0.360   2.610  0.1566 -0.0944  0.3958
16306SOL    HW160977   2.043   0.448   2.656  2.0624 -0.4219  1.2707
16306SOL    HW260978   2.096   0.370   2.523  0.1748 -0.2472  0.3882
16307SOL     OW60979   7.214   6.070   7.549 -0.6714 -0.3578 -0.0820
16307SOL    HW160980   7.284   6.140   7.532 -0.4319 -0.1585  1.6737
16307SOL    HW260981   7.123   6.113   7.546 -0.4681  0.2529  2.0457
16308SOL     OW60982   8.629   3.081   9.048 -0.0751 -0.4277 -0.0429
16308SOL    HW160983   8.596   3.060   9.140  1.4407 -0.0562  0.5920
16308SOL    HW260984   8.716   3.035   9.033  0.0638  0.1484 -1.0170
16309SOL     OW60985   8.371   3.463   2.899  0.2833 -0.0236 -0.6437
16309SOL    HW160986   8.419   3.394   2.845  0.6197 -1.6065  1.6194
16309SOL    HW260987   8.289   3.422   2.940  1.4356  0.3825  2.1612
16310SOL     OW60988   6.829   9.998   7.658 -0.2838 -0.1580 -0.5791
16310SOL    HW160989   6.849  10.059   7.735 -0.4291 -0.8949  0.0582
16310SOL    HW260990   6.903  10.004   7.591 -0.1388  0.4730 -0.3697
16311SOL     OW60991   6.448   8.934   5.287 -0.3506  0.0478  0.0446
16311SOL    HW160992   6.378   8.903   5.223  0.2982 -3.0519  0.7580
16311SOL    HW260993   6.411   8.932   5.380  0.0940  0.2552  0.2263
16312SOL     OW60994   3.765   9.777   8.337 -0.2886 -0.3092  0.2687
16312SOL    HW160995   3.667   9.799   8.335 -0.0076  0.8988 -0.7688
16312SOL    HW260996   3.796   9.775   8.432 -1.5126 -1.5983  0.6581
16313SOL     OW60997   1.256   3.046   2.476  0.3920 -0.0620 -0.3108
16313SOL    HW160998   1.255   3.043   2.576 -0.4644  1.0451 -0.2887
16313SOL    HW260999   1.248   3.140   2.445  0.2058 -0.4440 -1.4369
16314SOL     OW61000   7.049   2.595   1.259  0.1416 -0.1902 -0.1889
16314SOL    HW161001   7.073   2.616   1.354 -1.2419  0.1850  0.0835
16314SOL    HW261002   7.008   2.504   1.254 -0.6647  0.1768 -0.2861
16315SOL     OW61003   0.199   1.065   0.807 -0.2123  0.4993 -0.2749
16315SOL    HW161004   0.215   1.025   0.717  0.6092  0.9163 -0.3196
16315SOL    HW261005   0.243   1.008   0.877 -0.8367  0.1836 -0.1328
16316SOL     OW61006   1.139   7.087   4.242 -0.5803 -0.1692 -0.5294
16316SOL    HW161007   1.145   7.168   4.299  0.7545 -1.4865  1.2526
16316SOL    HW261008   1.076   7.104   4.166  0.9500  3.0918 -1.1506
16317SOL     OW61009   6.646   0.459   4.984 -0.0604  0.3499  0.1099
16317SOL    HW161010   6.658   0.492   4.890 -0.8102 -0.7263 -0.3785
16317SOL    HW261011   6.560   0.408   4.991  1.6725 -2.6849  0.4471
16318SOL     OW61012   0.781   3.181   0.749 -0.0486  0.3497 -0.3334
16318SOL    HW161013   0.709   3.156   0.684  0.4990 -3.0567  0.3073
16318SOL    HW261014   0.742   3.189   0.841  0.2147 -0.4902 -0.1507
16319SOL     OW61015   6.454   9.003   7.104  0.3516  0.5282  0.1758
16319SOL    HW161016   6.508   9.004   7.020  0.2863 -2.2864  0.0417
16319SOL    HW261017   6.358   8.984   7.082  0.9511 -4.0796  1.0862
16320SOL     OW61018   2.278   1.333   7.495  0.6201  0.4578  0.3789
16320SOL    HW161019   2.190   1.296   7.523  0.1766 -0.2339 -1.8934
16320SOL    HW261020   2.274   1.433   7.495 -0.0705  0.4329  0.5735
16321SOL     OW61021   7.494   0.188   5.876 -0.1109  0.0128  0.4716
16321SOL    HW161022   7.567   0.201   5.943  0.7490 -0.8148 -0.2801
16321SOL    HW261023   7.414   0.147   5.920 -0.2961  1.3177  1.3909
16322SOL     OW61024   8.984   1.135   0.779 -0.4744 -0.4835 -0.0197
16322SOL    HW161025   8.986   1.216   0.720 -0.5088 -0.7677 -0.4059
16322SOL    HW261026   9.046   1.150   0.856 -0.5286 -0.0600 -0.0554
16323SOL     OW61027   1.935   1.800   6.048 -0.4442 -0.1611  0.2665
16323SOL    HW161028   1.862   1.867   6.037 -1.3646 -1.1495  0.2686
16323SOL    HW261029   1.928   1.757   6.138  2.0250  1.9381  1.5363
16324SOL     OW61030   7.848   5.534   5.841  0.0341 -0.2820  0.9685
16324SOL    HW161031   7.943   5.545   5.870  0.0958  2.3329 -0.1096
16324SOL    HW261032   7.845   5.499   5.748 -0.0058  1.2973  0.3593
16325SOL     OW61033   9.386   7.488   0.700  0.0692 -0.0653  0.3374
16325SOL    HW161034   9.458   7.419   0.690 -0.4331 -0.8368  1.9425
16325SOL    HW261035   9.428   7.579   0.703  0.7882 -0.3360 -1.1356
16326SOL     OW61036   8.005   9.492   4.967  0.1476  0.2138 -0.9687
16326SOL    HW161037   7.925   9.457   4.918 -0.5929 -1.6572  1.4814
16326SOL    HW261038   8.077   9.515   4.901 -0.8163 -2.1909 -2.9466
16327SOL     OW61039   5.250   8.036   9.023 -0.6258  0.1042 -0.5030
16327SOL    HW161040   5.321   8.015   8.954  0.2637 -0.0908  0.4615
16327SOL    HW261041   5.281   8.112   9.079 -1.0523 -0.1955  0.1333
16328SOL     OW61042   4.489   0.945   5.310  0.5526 -0.5691 -0.4023
16328SOL    HW161043   4.441   0.978   5.228  2.2356 -2.0707 -2.0392
16328SOL    HW261044   4.587   0.963   5.301  0.7533 -0.7067  1.3246
16329SOL     OW61045   8.031   6.287   2.851  0.0412 -0.1965 -0.2030
16329SOL    HW161046   8.110   6.256   2.905  0.3780  1.1127  0.0910
16329SOL    HW261047   8.064   6.338   2.772 -0.5073 -0.1523 -0.4019
16330SOL     OW61048   0.498   5.831   6.636 -0.1297 -0.0678 -0.6524
16330SOL    HW161049   0.527   5.896   6.706  1.5661 -0.8036 -0.6619
16330SOL    HW261050   0.526   5.865   6.546 -0.0182 -0.3845 -0.7378
16331SOL     OW61051   7.429   8.512   3.897 -0.0045 -0.0875 -0.2707
16331SOL    HW161052   7.482   8.455   3.835 -0.4756 -1.4747  0.5734
16331SOL    HW261053   7.395   8.592   3.848  0.8999 -0.3874 -1.4029
16332SOL     OW61054   1.722   6.225   4.128  0.3248 -0.4231  0.0871
16332SOL    HW161055   1.654   6.287   4.087  1.6159  1.1243  0.2678
16332SOL    HW261056   1.813   6.252   4.098  0.9649 -1.7582  0.8275
16333SOL     OW61057   2.957   0.312   8.877 -0.0287  0.3413 -0.2501
16333SOL    HW161058   2.886   0.380   8.858 -1.1788 -1.4495 -2.6904
16333SOL    HW261059   2.957   0.243   8.804  2.3428 -1.2539  1.1925
16334SOL     OW61060   4.747   9.090   5.784  0.5553  0.6327  0.3418
16334SOL    HW161061   4.763   9.188   5.796  1.9988  0.4402  0.1178
16334SOL    HW261062   4.757   9.044   5.872 -0.5153  0.7349  0.5175
16335SOL     OW61063   8.570   1.885   3.372  0.1998 -0.1690  0.4737
16335SOL    HW161064   8.651   1.861   3.318 -0.3390  2.4507 -1.5449
16335SOL    HW261065   8.586   1.860   3.468  1.7806 -3.4196 -0.5425
16336SOL     OW61066   1.306   9.480   2.618  0.5657 -0.2146  0.2899
16336SOL    HW161067   1.379   9.498   2.684  0.3904  1.0212  0.1715
16336SOL    HW261068   1.297   9.382   2.602 -0.2307 -0.6185  3.0607
16337SOL     OW61069   2.146   6.094   7.082 -0.5103  0.1102  0.0658
16337SOL    HW161070   2.170   6.133   6.993 -1.0131 -2.0502 -1.0469
16337SOL    HW261071   2.048   6.076   7.084 -0.2602 -1.2407  0.4786
16338SOL     OW61072   2.082   1.338   0.445  0.7557  0.4642  0.1472
16338SOL    HW161073   2.162   1.386   0.481 -0.3150  1.2180  1.5575
16338SOL    HW261074   2.083   1.243   0.477  1.2840  0.3610 -0.1646
16339SOL     OW61075   8.801   9.954   9.092 -0.7762  0.1054  0.5301
16339SOL    HW161076   8.870   9.885   9.071 -1.8092 -1.0338  0.8370
16339SOL    HW261077   8.809   9.981   9.188 -1.3996 -0.7670  0.8340
16340SOL     OW61078   4.815   9.055   5.337 -0.7252  0.3612  0.1313
16340SOL    HW161079   4.879   9.081   5.409  0.8049 -2.0103 -0.3366
16340SOL    HW261080   4.756   8.981   5.370 -1.1782  0.4453 -0.4847
16341SOL     OW61081   4.222   8.685   4.922  0.3169 -0.0358  0.1452
16341SOL    HW161082   4.153   8.701   4.993  0.1670  0.1575 -0.0439
16341SOL    HW261083   4.303   8.741   4.941 -0.7992  2.1367 -1.3531
16342SOL     OW61084   4.609   8.073   4.857 -0.2636  0.2208 -0.7497
16342SOL    HW161085   4.540   8.124   4.907 -0.7512  1.1385 -2.3350
16342SOL    HW261086   4.642   7.998   4.913 -1.7180  0.4683  0.4554
16343SOL     OW61087   8.370   5.187   0.839  0.4658  0.0667 -0.2248
16343SOL    HW161088   8.456   5.237   0.850  0.9458 -1.1546  1.9295
16343SOL    HW261089   8.357   5.165   0.742  1.5528  2.0052 -0.8568
16344SOL     OW61090   4.672   9.803   5.288 -0.5744 -0.2734 -0.1289
16344SOL    HW161091   4.707   9.710   5.301 -2.7312 -0.9134  1.3607
16344SOL    HW261092   4.719   9.865   5.351 -1.6740 -1.0354  1.4959
16345SOL     OW61093   9.501   9.644   7.371  0.2953 -0.4889 -0.1569
16345SOL    HW161094   9.545   9.731   7.394  0.9447 -1.4279  2.2945
16345SOL    HW261095   9.436   9.619   7.442  0.5364 -2.2971 -0.5325
16346SOL     OW61096   4.978   3.615   6.743  0.1228 -0.3193 -0.0064
16346SOL    HW161097   4.936   3.703   6.766  2.8088  0.6517  1.4168
16346SOL    HW261098   4.976   3.556   6.823  2.2272  0.0881  0.3839
16347SOL     OW61099   7.361   7.896   3.185  0.1577 -0.2524 -0.3529
16347SOL    HW161100   7.366   7.898   3.285  0.0919 -1.5890 -0.3142
16347SOL    HW261101   7.267   7.882   3.156  0.0830  0.7729 -0.6204
16348SOL     OW61102   4.496   0.952   1.280  0.1116 -0.0641 -0.1074
16348SOL    HW161103   4.439   0.872   1.258 -1.3038  0.8007  0.3543
16348SOL    HW261104   4.586   0.921   1.308 -0.1636 -1.4764 -0.6914
16349SOL     OW61105   4.462   4.515   4.068 -0.2995  0.4203 -0.1018
16349SOL    HW161106   4.548   4.520   4.017  0.1152 -0.8248  0.4661
16349SOL    HW261107   4.439   4.606   4.103  1.1159  0.6455  0.2768
16350SOL     OW61108   7.469   0.496   9.699  0.3885 -0.4270 -0.1352
16350SOL    HW161109   7.529   0.574   9.717  0.9271 -1.0735  0.9081
16350SOL    HW261110   7.408   0.518   9.623  1.8689  0.2659 -1.1315
16351SOL     OW61111   4.699   6.298   3.506 -0.5079  0.2453 -0.0763
16351SOL    HW161112   4.718   6.292   3.604  4.7791  0.3837 -0.9392
16351SOL    HW261113   4.707   6.393   3.476 -1.6595  0.1435 -0.7537
16352SOL     OW61114   0.943   4.484   0.155 -0.1150  0.1909 -0.0265
16352SOL    HW161115   0.981   4.516   0.242 -0.0308  0.2893 -0.1006
16352SOL    HW261116   0.886   4.555   0.115 -0.5981 -0.0532  0.2179
16353SOL     OW61117   0.272   1.723   9.998  0.3705 -0.0604 -0.2797
16353SOL    HW161118   0.370   1.745   9.998  0.7316 -1.6010  0.4676
16353SOL    HW261119   0.231   1.754  10.083 -0.0060  1.4255 -0.9827
16354SOL     OW61120   7.867   2.653   5.024 -0.3929 -0.1073  0.5946
16354SOL    HW161121   7.964   2.629   5.034 -0.4429  0.6743  3.3473
16354SOL    HW261122   7.859   2.732   4.963  0.8012  0.3821  1.0512
16355SOL     OW61123   0.450   2.082   6.898 -1.1056  0.0316  0.6450
16355SOL    HW161124   0.498   2.163   6.931 -1.6856  1.4351 -1.8946
16355SOL    HW261125   0.357   2.106   6.873 -2.0230 -1.9227  2.0623
16356SOL     OW61126   2.920   7.590   0.328  0.1332  0.3682  0.7426
16356SOL    HW161127   2.829   7.553   0.312  1.2073 -3.4704  3.0004
16356SOL    HW261128   2.987   7.541   0.273  1.0016  2.6086 -0.2826
16357SOL     OW61129   9.857   3.156   9.993 -0.2328 -0.8837  0.1075
16357SOL    HW161130   9.787   3.092   9.960  0.0460  0.1484 -2.5751
16357SOL    HW261131   9.946   3.110   9.995 -0.5542 -1.4906  1.2584
16358SOL     OW61132   5.796   7.550   6.451  0.1278 -0.3495 -0.3073
16358SOL    HW161133   5.841   7.524   6.537 -0.2236 -1.4237 -0.4464
16358SOL    HW261134   5.843   7.505   6.375  0.3334  0.4694 -0.6673
16359SOL     OW61135   9.258   3.583   0.322 -0.1494  0.1239  0.9605
16359SOL    HW161136   9.341   3.537   0.352  1.8128  2.8530 -0.1580
16359SOL    HW261137   9.217   3.631   0.400  1.7708  2.4285  0.5803
16360SOL     OW61138   7.127   8.374   5.214  0.0863  0.6152 -0.5367
16360SOL    HW161139   7.047   8.354   5.157 -1.3659 -0.6763  1.8960
16360SOL    HW261140   7.198   8.305   5.198 -0.6385 -0.2151 -0.1679
16361SOL     OW61141   3.285   8.505   5.799  0.0881  0.0339  0.5000
16361SOL    HW161142   3.207   8.448   5.825  0.8949 -0.9072  0.9311
16361SOL    HW261143   3.298   8.501   5.700  0.9919 -1.7136  0.6575
16362SOL     OW61144   6.470   9.577   9.203 -0.5604  0.5284  0.0304
16362SOL    HW161145   6.534   9.609   9.273 -0.8412  2.0502 -0.3919
16362SOL    HW261146   6.380   9.620   9.218 -0.5030  1.2217 -1.5094
16363SOL     OW61147   9.834   4.668   4.053 -0.5803 -0.1923 -0.1413
16363SOL    HW161148   9.884   4.581   4.055 -0.8532 -0.3654 -0.7680
16363SOL    HW261149   9.743   4.654   4.092 -0.7264 -0.2526 -0.5038
16364SOL     OW61150   7.955   9.525   2.238 -0.4468 -0.8085 -0.4115
16364SOL    HW161151   7.988   9.430   2.234  1.0530 -0.2993 -0.4241
16364SOL    HW261152   7.930   9.556   2.146 -1.1204 -1.2484 -0.3807
16365SOL     OW61153   7.210   4.761   8.889 -0.0278 -0.1401 -0.3126
16365SOL    HW161154   7.125   4.796   8.848  0.3363 -0.9088 -1.7415
16365SOL    HW261155   7.282   4.830   8.880  0.4715 -0.8936 -2.4082
16366SOL     OW61156   7.991   3.889   0.849 -0.0743 -1.1798 -0.4799
16366SOL    HW161157   7.945   3.978   0.859 -1.1068 -1.5162 -2.0021
16366SOL    HW261158   8.089   3.903   0.842  0.0773 -0.3954  2.2894
16367SOL     OW61159   4.447   4.538   2.688  0.4830  0.0145 -0.0353
16367SOL    HW161160   4.481   4.532   2.594 -0.2778 -0.4779 -0.2846
16367SOL    HW261161   4.394   4.622   2.699  0.0067 -0.2570 -0.2372
16368SOL     OW61162   8.519   2.168   0.985 -0.3325 -0.1424 -0.0568
16368SOL    HW161163   8.435   2.222   0.985  1.1738  2.2872 -1.0814
16368SOL    HW261164   8.590   2.217   1.037  1.1079 -1.0617 -1.1116
16369SOL     OW61165   2.434   0.769   3.203 -0.7496  0.3319 -0.0625
16369SOL    HW161166   2.388   0.706   3.141 -0.4263 -0.8878  0.9204
16369SOL    HW261167   2.533   0.756   3.197 -0.6972  0.4896  0.4191
16370SOL     OW61168   3.405   3.657   8.201  0.1495 -0.0353 -0.9403
16370SOL    HW161169   3.372   3.748   8.175  1.0765  0.4361 -0.4755
16370SOL    HW261170   3.503   3.651   8.185 -0.1051 -1.3861 -2.1560
16371SOL     OW61171   9.750   5.148   1.254 -0.1013 -0.1677 -0.4026
16371SOL    HW161172   9.678   5.185   1.313 -0.2161 -0.4812 -0.3417
16371SOL    HW261173   9.798   5.223   1.209  1.8159  0.2251  2.1862
16372SOL     OW61174   3.688   7.970   5.776 -0.0234  0.2896 -0.2697
16372SOL    HW161175   3.717   7.877   5.754  0.2065  0.1258  0.7182
16372SOL    HW261176   3.658   8.016   5.692 -4.2908 -2.1170 -0.2431
16373SOL     OW61177   4.272   9.671   7.484 -0.0919  0.4769 -0.1591
16373SOL    HW161178   4.345   9.740   7.482 -1.1579  1.6379 -0.3303
16373SOL    HW261179   4.310   9.581   7.468  1.2866  1.0938 -0.4120
16374SOL     OW61180   3.201   5.344   4.045  0.0132 -0.6722  0.4058
16374SOL    HW161181   3.132   5.320   3.976 -0.6592 -0.1888  0.8988
16374SOL    HW261182   3.250   5.426   4.016 -0.6205 -0.1699  0.7324
16375SOL     OW61183   6.580   9.855   7.098 -0.2794  0.4258  0.4247
16375SOL    HW161184   6.537   9.930   7.047 -0.9410 -1.0782 -1.3090
16375SOL    HW261185   6.520   9.828   7.174 -0.6281  0.8188  0.2931
16376SOL     OW61186   1.310   5.230   5.287 -0.2966 -0.0347  0.1695
16376SOL    HW161187   1.334   5.302   5.222  1.5364  0.4445  1.3222
16376SOL    HW261188   1.318   5.266   5.380 -1.0144 -1.2611  0.7141
16377SOL     OW61189   2.561   6.989   4.019 -0.0895 -0.3257  0.2138
16377SOL    HW161190   2.615   7.072   4.008 -1.6308  0.9059  1.5401
16377SOL    HW261191   2.533   6.954   3.930  1.3746  0.0220 -0.3891
16378SOL     OW61192   9.101   4.889   7.720  0.4485 -0.5904 -0.5462
16378SOL    HW161193   9.137   4.799   7.747 -1.7536 -0.7230  2.1253
16378SOL    HW261194   9.171   4.938   7.668  1.7606 -3.7719 -1.9461
16379SOL     OW61195   9.969   1.732   0.233 -0.4197  0.3159  1.2202
16379SOL    HW161196   9.973   1.737   0.332  1.0088  1.7241  1.1278
16379SOL    HW261197   9.973   1.637   0.204  0.2607 -0.0499  2.4809
16380SOL     OW61198   1.634   1.897   1.190 -0.0381  0.0092  0.0678
16380SOL    HW161199   1.601   1.825   1.251  1.4892 -1.1474 -0.4164
16380SOL    HW261200   1.626   1.986   1.235 -0.4741 -0.6388  1.3015
16381SOL     OW61201   5.534   1.538   9.056 -0.6351 -0.0758 -0.0217
16381SOL    HW161202   5.564   1.617   9.109  0.7447 -0.3176 -0.4229
16381SOL    HW261203   5.534   1.561   8.959 -0.5148 -0.4753 -0.1193
16382SOL     OW61204   7.063   8.684   3.736  0.1443 -0.3611 -0.1896
16382SOL    HW161205   7.053   8.641   3.826 -1.2058 -2.0630 -1.1340
16382SOL    HW261206   7.160   8.697   3.716  0.4766 -0.5375  1.2361
16383SOL     OW61207   7.690   1.485   2.636  0.6412 -0.3227  0.6134
16383SOL    HW161208   7.632   1.472   2.716  0.6637 -0.8217  0.5547
16383SOL    HW261209   7.750   1.405   2.626 -1.0564 -1.4238 -1.2909
16384SOL     OW61210   0.154   9.323   4.744 -0.0925  0.0957  0.1928
16384SOL    HW161211   0.234   9.307   4.801  0.0347  1.7772  0.5205
16384SOL    HW261212   0.180   9.321   4.648  0.6345  2.0727  0.3331
16385SOL     OW61213   5.969   0.864   4.356  0.1127  0.0576  0.6050
16385SOL    HW161214   5.922   0.834   4.439  0.7904  0.0560  0.9898
16385SOL    HW261215   6.054   0.813   4.346  0.5764  0.8490  0.4982
16386SOL     OW61216   7.158   3.232   9.634  0.3596 -0.0576  0.3722
16386SOL    HW161217   7.195   3.238   9.727 -2.4578  0.0206  1.5212
16386SOL    HW261218   7.191   3.309   9.580  1.0314  0.5594  1.6492
16387SOL     OW61219   5.339   8.486   3.477  0.3001  0.3183 -0.2925
16387SOL    HW161220   5.366   8.394   3.506 -1.3332  0.1347  0.6704
16387SOL    HW261221   5.420   8.544   3.471  0.9232 -0.1912  2.6475
16388SOL     OW61222   8.881   8.829   6.313 -0.1187  1.1152 -0.2475
16388SOL    HW161223   8.881   8.884   6.229 -2.3333 -0.0163 -1.0208
16388SOL    HW261224   8.893   8.733   6.290 -0.6798  0.8064  0.7335
16389SOL     OW61225   2.914   5.136   3.737 -0.1086  0.0487 -0.2470
16389SOL    HW161226   2.974   5.143   3.658 -0.8943 -1.5835 -1.0166
16389SOL    HW261227   2.820   5.120   3.707 -0.7728  1.5664  0.9749
16390SOL     OW61228   3.038   1.043   8.821 -0.6477 -0.0087  0.5760
16390SOL    HW161229   3.057   1.088   8.908 -1.3312 -2.8259  2.2413
16390SOL    HW261230   3.124   1.014   8.779 -0.3456  0.9783  0.4970
16391SOL     OW61231   2.148   2.942   4.949  0.6393  0.6428  0.3292
16391SOL    HW161232   2.211   2.881   4.997 -0.5957 -1.4980 -0.6960
16391SOL    HW261233   2.184   3.036   4.951  2.4728 -0.0665  2.0944
16392SOL     OW61234   8.007   3.104   4.672 -0.3007 -0.2415 -0.2688
16392SOL    HW161235   8.035   3.057   4.588 -0.3198 -0.3445 -0.2170
16392SOL    HW261236   7.989   3.037   4.743 -3.1596 -0.3747 -1.0378
16393SOL     OW61237   8.061   2.382   6.166  0.4703  0.1643  0.5258
16393SOL    HW161238   8.086   2.286   6.178  2.2882  0.3436 -1.5293
16393SOL    HW261239   8.090   2.435   6.246 -0.6177 -0.9745  1.7002
16394SOL     OW61240   2.076   1.439   1.573 -0.0964  0.5339 -0.5908
16394SOL    HW161241   2.070   1.502   1.496 -0.6599 -0.1346 -1.1037
16394SOL    HW261242   2.153   1.464   1.631 -0.4368  1.8051 -0.6856
16395SOL     OW61243   9.404   2.995   7.930  0.1686 -0.2423  0.0745
16395SOL    HW161244   9.349   3.075   7.905 -1.0554 -1.2253 -0.4308
16395SOL    HW261245   9.427   3.000   8.027 -0.9243  0.1283  0.3258
16396SOL     OW61246   3.343   2.414   8.805  0.4013 -0.2747  0.2261
16396SOL    HW161247   3.358   2.401   8.904  0.1650 -1.9557  0.0549
16396SOL    HW261248   3.391   2.342   8.755  0.9703  0.9021 -0.9211
16397SOL     OW61249   8.922   8.038   4.261 -0.8196 -0.5909  0.0861
16397SOL    HW161250   8.914   8.137   4.247 -2.5068 -0.7485 -0.1221
16397SOL    HW261251   8.998   8.003   4.207 -0.0294  0.6260  0.3764
16398SOL     OW61252   1.030   1.023   0.794 -0.1420 -0.1946  0.5044
16398SOL    HW161253   0.960   0.953   0.782 -0.1528 -0.1221  0.1509
16398SOL    HW261254   1.008   1.079   0.874 -0.7892  0.1913  0.0621
16399SOL     OW61255   1.867   0.262   3.120  0.3021 -0.4600  0.7267
16399SOL    HW161256   1.813   0.340   3.090 -0.4252 -0.2665  2.4804
16399SOL    HW261257   1.925   0.289   3.196  0.4980 -1.4796  0.9435
16400SOL     OW61258   0.091   3.567   9.043  0.2120  0.1371  0.0556
16400SOL    HW161259   0.175   3.596   9.090 -0.0982 -1.1846  1.4452
16400SOL    HW261260   0.113   3.492   8.980  0.2121  0.3992 -0.2643
16401SOL     OW61261   4.489   7.395   2.978 -0.4086  0.1885 -0.2410
16401SOL    HW161262   4.452   7.467   2.919  0.1513  0.3630 -0.3806
16401SOL    HW261263   4.485   7.424   3.073 -1.4735 -0.1627 -0.1742
16402SOL     OW61264   5.659   5.886   2.031 -0.3770  0.5170  0.4833
16402SOL    HW161265   5.583   5.864   2.092 -1.2824 -0.2711 -0.8718
16402SOL    HW261266   5.637   5.854   1.938  1.2402  1.0706 -0.1152
16403SOL     OW61267   3.992   6.938   7.890 -0.5944 -0.2078 -0.6676
16403SOL    HW161268   3.903   6.912   7.926 -2.2477  2.1585 -2.8725
16403SOL    HW261269   4.058   6.944   7.965 -2.9251  0.6076  1.3598
16404SOL     OW61270   3.855   1.431   8.069 -0.2322  0.0711 -0.7734
16404SOL    HW161271   3.770   1.482   8.077  0.4503  1.3679 -1.6710
16404SOL    HW261272   3.853   1.374   7.987 -0.6747 -0.7724 -0.1913
16405SOL     OW61273   1.903   4.317   9.552  0.3870 -0.6883 -0.2203
16405SOL    HW161274   1.860   4.285   9.636 -0.4581 -1.8859 -1.0949
16405SOL    HW261275   1.968   4.249   9.519 -2.0342 -1.9640 -2.5390
16406SOL     OW61276   1.768   8.766   4.958 -0.2470  0.1100 -0.0327
16406SOL    HW161277   1.749   8.864   4.962 -0.4170  0.0145  1.6105
16406SOL    HW261278   1.721   8.719   5.032 -1.2814 -1.4232 -1.6158
16407SOL     OW61279   9.323   6.217   0.646  0.4553  0.4512  0.1651
16407SOL    HW161280   9.331   6.316   0.660  0.7386  0.0472  3.1555
16407SOL    HW261281   9.253   6.180   0.706  0.4658 -1.2038 -0.8089
16408SOL     OW61282   0.524   8.198   9.549 -0.4135 -0.2997 -0.5936
16408SOL    HW161283   0.576   8.164   9.470 -0.3493 -2.8980  0.5112
16408SOL    HW261284   0.453   8.131   9.573 -1.5002  1.2295  0.5427
16409SOL     OW61285   1.457   0.169   3.767  0.1349 -0.6102 -0.1274
16409SOL    HW161286   1.491   0.118   3.846  0.3170 -0.3672 -0.0488
16409SOL    HW261287   1.381   0.120   3.726  0.3490 -0.9746 -0.0868
16410SOL     OW61288   9.702   3.127   7.486 -0.2531 -0.2815  0.3412
16410SOL    HW161289   9.746   3.067   7.552  0.4134  0.0115  0.1624
16410SOL    HW261290   9.605   3.104   7.480 -0.1291 -0.9232  0.7335
16411SOL     OW61291   9.547   6.564   4.870  0.6860 -0.0618 -0.3120
16411SOL    HW161292   9.505   6.643   4.913 -0.1558 -1.0002  0.5965
16411SOL    HW261293   9.544   6.575   4.770  0.8691  1.1899 -0.1852
16412SOL     OW61294   5.155   0.442   1.362 -0.3974  0.1291 -0.3698
16412SOL    HW161295   5.244   0.479   1.390  0.0945 -0.6374 -0.8917
16412SOL    HW261296   5.145   0.451   1.263 -0.0591 -1.5378 -0.5841
16413SOL     OW61297   1.283   1.105   6.957  0.6409  0.0067  0.0763
16413SOL    HW161298   1.338   1.056   6.889  0.1542  0.5373 -0.7011
16413SOL    HW261299   1.187   1.081   6.947  0.7334 -1.0565  1.5612
16414SOL     OW61300   3.181   8.235   9.972 -0.2502  0.4589 -0.1870
16414SOL    HW161301   3.140   8.251  10.062  1.1762 -2.4676  1.0780
16414SOL    HW261302   3.140   8.296   9.905 -3.1471  1.0041  1.9650
16415SOL     OW61303   0.403   1.564   7.879  0.5072 -0.4043  0.5744
16415SOL    HW161304   0.326   1.506   7.854 -0.9289  0.6847  2.3218
16415SOL    HW261305   0.437   1.611   7.798  0.0466 -1.7261 -0.3998
16416SOL     OW61306   1.280   3.620   2.220  0.1901 -0.0355 -0.0357
16416SOL    HW161307   1.265   3.697   2.282 -0.5214 -0.4645  0.3400
16416SOL    HW261308   1.357   3.639   2.160 -0.8572  1.5611 -0.9081
16417SOL     OW61309   8.868   3.111   9.652 -0.4253  0.4714  0.3441
16417SOL    HW161310   8.932   3.145   9.721  0.4302  1.3891 -0.8749
16417SOL    HW261311   8.794   3.177   9.639  0.7678  1.5155 -1.3976
16418SOL     OW61312   8.638   1.191   2.621  0.3473 -0.2262  0.2012
16418SOL    HW161313   8.544   1.163   2.638  0.0985 -0.5682 -1.6388
16418SOL    HW261314   8.694   1.171   2.702 -0.9030 -1.0948  0.8716
16419SOL     OW61315   4.835   4.662   6.576 -0.0424  0.2063 -0.4666
16419SOL    HW161316   4.904   4.734   6.574 -0.0546  0.2924  1.4447
16419SOL    HW261317   4.873   4.578   6.537  0.6997  0.6147 -0.6355
16420SOL     OW61318   4.916   1.294   6.250  0.5320  0.0199  0.5940
16420SOL    HW161319   4.944   1.229   6.321 -0.7859 -0.6638  0.4988
16420SOL    HW261320   4.816   1.298   6.246  0.6076  1.2001 -0.1858
16421SOL     OW61321   2.952   5.189   9.410  0.2206  0.1230 -0.0217
16421SOL    HW161322   2.889   5.134   9.465 -1.4563  1.8862 -0.1127
16421SOL    HW261323   3.013   5.128   9.359 -0.0224 -1.5892  1.6518
16422SOL     OW61324   4.478   0.039   8.189  0.2751 -0.4124  0.0605
16422SOL    HW161325   4.442   0.132   8.180  1.3152  0.0330  0.5272
16422SOL    HW261326   4.520   0.011   8.103  1.1791  0.0629  0.3426
16423SOL     OW61327   0.971   6.901   0.086 -0.3131  0.1845 -0.6193
16423SOL    HW161328   0.877   6.931   0.071 -0.5535 -0.9173 -1.4730
16423SOL    HW261329   0.982   6.808   0.050  0.8836 -0.0151  0.2297
16424SOL     OW61330   8.375   4.022   0.234 -0.5895  0.2982  0.1550
16424SOL    HW161331   8.398   4.062   0.145  0.3589 -0.3407  0.1048
16424SOL    HW261332   8.340   4.094   0.295  0.9038  1.1811 -0.0088
16425SOL     OW61333   1.086   6.579   0.479  0.2772  0.2259  0.1277
16425SOL    HW161334   1.176   6.536   0.481 -0.9391 -2.4450  0.6017
16425SOL    HW261335   1.089   6.665   0.531  2.7771  0.7351 -0.7813
16426SOL     OW61336   4.255   5.357   5.324  0.4075  0.7028 -0.5661
16426SOL    HW161337   4.201   5.438   5.346  0.5855  1.0731 -1.4792
16426SOL    HW261338   4.334   5.383   5.268  1.2116  0.0825  0.2637
16427SOL     OW61339   7.616   1.835   8.453  0.2984  0.0442  0.6573
16427SOL    HW161340   7.675   1.755   8.462 -0.5570 -0.5830  0.7765
16427SOL    HW261341   7.660   1.913   8.498  1.2127 -0.3126  0.3990
16428SOL     OW61342   0.814   1.381   4.396  0.0854  1.0554  0.4236
16428SOL    HW161343   0.865   1.464   4.420  2.8870 -0.9217  1.5840
16428SOL    HW261344   0.835   1.309   4.461 -1.0345 -1.0865 -1.5009
16429SOL     OW61345   0.490   4.829   4.011  0.0554 -0.7643  0.4062
16429SOL    HW161346   0.488   4.828   3.911 -0.0933  0.3246  0.4003
16429SOL    HW261347   0.492   4.923   4.044 -0.5181 -1.1085  1.4487
16430SOL     OW61348   1.927   4.917   5.215 -0.0942  0.8354  0.4963
16430SOL    HW161349   1.881   4.829   5.214  1.3112  0.1111 -1.1089
16430SOL    HW261350   1.913   4.964   5.128  0.7485  1.3584  0.6289
16431SOL     OW61351   9.941   2.333   4.814 -0.5560  0.9911 -0.8079
16431SOL    HW161352   9.870   2.322   4.744 -0.1689  0.2522 -1.0804
16431SOL    HW261353  10.028   2.298   4.780 -0.1572  1.4687 -0.2945
16432SOL     OW61354   5.157   7.612   6.733 -0.2077  0.7430  0.0393
16432SOL    HW161355   5.066   7.586   6.765  0.3258 -1.0135  0.1760
16432SOL    HW261356   5.224   7.547   6.767  0.8831  1.0918 -1.3867
16433SOL     OW61357   8.473   1.537   9.670 -0.1099 -0.4110 -0.3485
16433SOL    HW161358   8.548   1.601   9.684  0.4392 -0.7437 -1.7105
16433SOL    HW261359   8.419   1.530   9.754  0.5064  0.9481  0.1755
16434SOL     OW61360   2.530   1.658   8.681  0.8658 -0.9080 -0.3086
16434SOL    HW161361   2.596   1.595   8.722  0.7947  1.2171  3.2083
16434SOL    HW261362   2.579   1.733   8.636  0.8768 -1.1770 -0.7503
16435SOL     OW61363   7.558   8.308   2.428 -0.0565  0.0216 -0.4444
16435SOL    HW161364   7.510   8.278   2.346 -0.5903  2.2873 -1.0039
16435SOL    HW261365   7.492   8.346   2.493  0.4582 -1.0385  0.7091
16436SOL     OW61366   2.654   7.837   5.875  0.3495 -0.0272  0.3321
16436SOL    HW161367   2.659   7.937   5.871  1.9429 -0.0640  0.9732
16436SOL    HW261368   2.583   7.810   5.940  1.7674  0.7051  2.2097
16437SOL     OW61369   1.445   2.185   3.292  0.4265 -0.2397  0.4193
16437SOL    HW161370   1.465   2.272   3.245  0.1734 -1.5156 -2.1563
16437SOL    HW261371   1.524   2.124   3.284 -0.7570 -1.6258 -1.1215
16438SOL     OW61372   3.421   4.263   8.031 -0.4631  0.3395  0.1353
16438SOL    HW161373   3.504   4.213   8.055 -0.4617 -0.1443 -0.8405
16438SOL    HW261374   3.386   4.310   8.112  0.3813 -0.0047  0.7115
16439SOL     OW61375   4.557   8.613   9.927 -0.0229  0.0442  0.2848
16439SOL    HW161376   4.556   8.559  10.011  2.2059  0.6728  0.7488
16439SOL    HW261377   4.546   8.552   9.848 -0.6667 -0.7083  0.9431
16440SOL     OW61378   1.916   4.771   2.998 -0.3503  0.4184  0.0650
16440SOL    HW161379   1.838   4.754   2.938 -0.7465 -0.5571  0.8420
16440SOL    HW261380   1.999   4.734   2.956 -0.7181 -0.7789  0.3701
16441SOL     OW61381   5.257   8.272   2.616  0.4593 -0.0149  0.5192
16441SOL    HW161382   5.213   8.361   2.601 -0.5636 -0.5462  0.3180
16441SOL    HW261383   5.230   8.237   2.706 -1.5170 -1.4515 -0.5736
16442SOL     OW61384   2.464   9.957   7.727 -0.7706 -0.1972 -0.0660
16442SOL    HW161385   2.537  10.001   7.676 -0.6390 -1.5288 -1.0512
16442SOL    HW261386   2.391   9.929   7.664 -0.6477 -1.7655  0.4522
16443SOL     OW61387   3.153   0.561   2.177  0.3063 -0.3562  0.1985
16443SOL    HW161388   3.144   0.594   2.271  0.2125  1.6311 -0.4866
16443SOL    HW261389   3.237   0.508   2.168  0.6512  0.0021  1.2510
16444SOL     OW61390   8.546   8.319   2.394 -0.3114 -0.3034 -0.0147
16444SOL    HW161391   8.464   8.372   2.416  0.0547  0.7275 -1.0308
16444SOL    HW261392   8.535   8.276   2.305  0.1728 -0.3160 -0.0719
16445SOL     OW61393   4.173   3.436   2.909 -0.3557 -0.1179 -0.0882
16445SOL    HW161394   4.105   3.458   2.979  0.9412  0.4614  1.0155
16445SOL    HW261395   4.172   3.337   2.892 -2.2551  0.0196 -0.9278
16446SOL     OW61396   7.864   5.352   7.976  0.2452  0.1501  0.1215
16446SOL    HW161397   7.787   5.404   7.940 -0.2537 -0.5072  0.2294
16446SOL    HW261398   7.854   5.342   8.075  0.5450  0.1857  0.1564
16447SOL     OW61399   8.883   8.342   6.039 -0.0184  0.3014  0.3277
16447SOL    HW161400   8.905   8.416   5.976  2.2902 -0.3334  0.3464
16447SOL    HW261401   8.965   8.317   6.092 -1.0385 -1.4943  1.1231
16448SOL     OW61402   4.843   1.935   5.888 -0.4267 -0.0355  0.0036
16448SOL    HW161403   4.898   1.965   5.965 -0.5591 -0.1672  0.1524
16448SOL    HW261404   4.848   2.001   5.813 -2.6930  1.6195  1.2494
16449SOL     OW61405   0.209   6.158   3.772 -0.1241 -0.3691  0.2730
16449SOL    HW161406   0.125   6.125   3.817 -0.2993 -3.0258 -1.9101
16449SOL    HW261407   0.184   6.226   3.702 -0.2162  0.5161  1.1413
16450SOL     OW61408   9.891   4.692   0.869 -0.1657  0.0991 -0.7893
16450SOL    HW161409   9.990   4.692   0.882 -0.6526  1.7933  3.8793
16450SOL    HW261410   9.855   4.601   0.888  0.1657  0.3104  0.8998
16451SOL     OW61411   1.677   7.367   1.822  0.1431  0.5783 -0.1945
16451SOL    HW161412   1.683   7.283   1.767 -1.4405  1.6827 -2.1200
16451SOL    HW261413   1.766   7.412   1.824  0.1832  0.6325 -2.0643
16452SOL     OW61414   5.058   4.975   7.224  0.5922  0.3013  0.2527
16452SOL    HW161415   5.107   4.925   7.152  0.8315  0.2413  0.4564
16452SOL    HW261416   5.060   5.073   7.204 -1.3139  0.1027 -1.0290
16453SOL     OW61417   9.763   7.959   4.537  0.1370  0.8936 -0.6703
16453SOL    HW161418   9.858   7.930   4.535 -0.4022 -0.9532 -0.5741
16453SOL    HW261419   9.706   7.889   4.493 -1.4913  0.6487  1.7349
16454SOL     OW61420   0.163   4.331   1.458 -0.2082  0.3079  0.2187
16454SOL    HW161421   0.191   4.361   1.550 -0.7173 -0.2306  0.5560
16454SOL    HW261422   0.155   4.232   1.457 -1.1620  0.3824 -0.1378
16455SOL     OW61423   2.066   3.904   1.454 -0.2369 -0.2958  0.3881
16455SOL    HW161424   2.024   3.887   1.364 -0.6967 -0.9051  0.7135
16455SOL    HW261425   2.120   3.824   1.481  4.6092  2.0348 -1.9021
16456SOL     OW61426   0.174   7.763   8.290 -0.2965  0.7214 -0.6875
16456SOL    HW161427   0.115   7.729   8.363  0.3173 -2.2020 -1.4662
16456SOL    HW261428   0.118   7.800   8.216 -1.0269  0.7736 -0.1169
16457SOL     OW61429   9.081   7.927   8.387 -0.0106 -0.4971 -0.1652
16457SOL    HW161430   9.105   7.967   8.299  2.0605  0.9708  1.0150
16457SOL    HW261431   9.014   7.986   8.433  1.4184  0.5266  0.6467
16458SOL     OW61432   2.178   5.154   5.836 -0.0482  0.3910  0.6313
16458SOL    HW161433   2.190   5.068   5.787 -0.6792  0.9686 -0.5496
16458SOL    HW261434   2.201   5.141   5.933 -1.4037 -1.4293  0.7361
16459SOL     OW61435   8.717   3.339   0.967  0.3949  0.0845 -0.1854
16459SOL    HW161436   8.626   3.297   0.971  0.1863  0.3936 -1.5938
16459SOL    HW261437   8.767   3.305   0.888  0.6131  1.6922 -0.7696
16460SOL     OW61438   0.360   7.399   9.916 -0.0138 -0.1583 -0.0978
16460SOL    HW161439   0.404   7.483   9.947  0.3351 -0.0908 -0.7597
16460SOL    HW261440   0.300   7.364   9.988  0.7639  0.0002  0.6288
16461SOL     OW61441   1.091   1.135   2.752  0.3029  0.7812 -0.5776
16461SOL    HW161442   1.087   1.225   2.709 -0.8413  0.8850 -0.2839
16461SOL    HW261443   1.058   1.142   2.846  0.5141  0.1190 -0.4563
16462SOL     OW61444   3.604   5.846   9.439 -0.0881 -0.0381  0.0798
16462SOL    HW161445   3.604   5.912   9.514  1.8450  2.7208 -2.1926
16462SOL    HW261446   3.677   5.780   9.453  0.3855  0.5738  0.5563
16463SOL     OW61447   6.823   6.137   1.280 -0.1673  0.1345 -0.5933
16463SOL    HW161448   6.724   6.152   1.293  0.1012  1.0582  0.5036
16463SOL    HW261449   6.837   6.070   1.207 -1.6568 -1.6566  0.6991
16464SOL     OW61450   9.212   9.028   4.683  0.2302  0.0671 -0.2023
16464SOL    HW161451   9.252   9.059   4.597 -0.4001 -0.2430 -0.6076
16464SOL    HW261452   9.155   9.102   4.721 -0.4559 -0.2260 -0.6571
16465SOL     OW61453   1.682   3.118   2.942 -0.0790  0.1836  0.0766
16465SOL    HW161454   1.746   3.055   2.898  0.3104 -0.4604  1.5240
16465SOL    HW261455   1.595   3.117   2.894 -0.2657 -1.9117  0.4132
16466SOL     OW61456   0.880   5.595   5.011 -0.1449 -0.3431  0.3054
16466SOL    HW161457   0.972   5.557   5.006 -0.0370 -0.0846  0.3623
16466SOL    HW261458   0.868   5.644   5.097 -0.5173 -0.8572  0.5510
16467SOL     OW61459   3.273   3.605   4.437 -0.3888  0.2167 -0.2150
16467SOL    HW161460   3.245   3.517   4.397  2.5805 -1.4515  1.2088
16467SOL    HW261461   3.224   3.619   4.524 -0.5850 -0.2275 -0.2521
16468SOL     OW61462   4.254   2.919   8.369 -0.1723  0.3453  0.0539
16468SOL    HW161463   4.267   2.990   8.300  0.2041 -0.5322 -0.8051
16468SOL    HW261464   4.312   2.938   8.448 -1.9530  2.3329  0.9242
16469SOL     OW61465   3.719   4.962   3.105 -0.6079 -0.5445 -0.4365
16469SOL    HW161466   3.744   4.878   3.153 -1.4721 -0.1880  0.6510
16469SOL    HW261467   3.790   5.031   3.118 -1.4707  0.0041  1.4790
16470SOL     OW61468   0.587   6.376   7.487  0.1525 -0.2806  0.4638
16470SOL    HW161469   0.560   6.463   7.528 -0.7981 -0.4969  0.3101
16470SOL    HW261470   0.522   6.351   7.415  1.6405 -0.0448 -0.9993
16471SOL     OW61471   0.248   5.734   9.248 -0.1846  0.2450 -0.2294
16471SOL    HW161472   0.286   5.723   9.157 -0.6169 -0.3342 -0.3439
16471SOL    HW261473   0.263   5.651   9.301 -2.8204 -0.6756 -0.8450
16472SOL     OW61474   1.832   9.829   1.180  0.4073  0.3843 -0.4381
16472SOL    HW161475   1.740   9.851   1.211  0.2065  0.9760 -1.4440
16472SOL    HW261476   1.858   9.739   1.215 -1.0156 -0.3106 -1.1217
16473SOL     OW61477   3.843   9.087   8.921 -0.2247  0.1902  0.4316
16473SOL    HW161478   3.758   9.126   8.957  0.3773  1.4398  0.5280
16473SOL    HW261479   3.867   9.005   8.973 -1.4320 -0.2492  0.3238
16474SOL     OW61480   2.080   6.908   9.647 -0.0102  0.0800  0.2897
16474SOL    HW161481   2.165   6.879   9.603  0.2575  1.0189  0.1819
16474SOL    HW261482   2.055   6.842   9.718  1.1822  0.1721  0.8076
16475SOL     OW61483   2.325   4.513   2.279 -0.1585  0.1381 -0.4535
16475SOL    HW161484   2.326   4.428   2.332 -2.6319  1.0670  1.1969
16475SOL    HW261485   2.389   4.578   2.319 -0.2088 -0.0356 -0.0862
16476SOL     OW61486   6.329   8.435   3.116 -0.3549  0.0447 -0.7227
16476SOL    HW161487   6.347   8.520   3.066 -2.8374  0.2122 -1.4228
16476SOL    HW261488   6.257   8.451   3.184  0.0138 -1.2145 -0.0149
16477SOL     OW61489   1.113   7.786   3.727 -0.1102  0.3421  0.0221
16477SOL    HW161490   1.194   7.837   3.756 -0.2063  0.8806 -0.6426
16477SOL    HW261491   1.064   7.751   3.808  2.5987 -2.8919  0.3868
16478SOL     OW61492   1.045   7.629   2.605  0.1238 -0.2938  0.3383
16478SOL    HW161493   1.027   7.531   2.620 -1.0451 -0.0214  0.7975
16478SOL    HW261494   0.959   7.675   2.582  1.2847 -0.0807 -3.9750
16479SOL     OW61495   5.409   1.103   5.716 -0.2900 -0.0178 -0.2393
16479SOL    HW161496   5.331   1.159   5.744  0.3624  0.4919  0.5489
16479SOL    HW261497   5.492   1.158   5.715 -0.1033 -0.2809 -2.1362
16480SOL     OW61498   6.800   4.247   3.061  0.0093  0.0037 -0.0210
16480SOL    HW161499   6.751   4.332   3.040 -1.5364 -0.8762 -0.0718
16480SOL    HW261500   6.856   4.221   2.983 -2.7561 -1.2135 -1.6923
16481SOL     OW61501   8.439   1.342   2.960 -0.8845 -0.0354  0.5901
16481SOL    HW161502   8.403   1.435   2.952  0.3815  0.4608  0.5360
16481SOL    HW261503   8.433   1.296   2.872 -2.8325 -0.5108  0.9494
16482SOL     OW61504   3.199   9.947   6.900  0.3990 -0.1587 -0.1474
16482SOL    HW161505   3.237   9.871   6.847  1.2788 -0.7482  1.2978
16482SOL    HW261506   3.103   9.960   6.876  0.8442 -0.2560 -2.0497
16483SOL     OW61507   9.016   2.947   8.883  0.5122 -0.0041  0.2993
16483SOL    HW161508   8.960   2.987   8.955  0.3564 -1.2436  0.8737
16483SOL    HW261509   9.071   3.018   8.840 -0.5441  1.0015  0.5946
16484SOL     OW61510   3.709   1.557   4.668  0.2027  0.0706 -0.1891
16484SOL    HW161511   3.670   1.495   4.736 -0.9063  1.0607  0.1005
16484SOL    HW261512   3.673   1.535   4.577 -0.3518  0.4083 -0.0559
16485SOL     OW61513   5.188   3.734   1.527  0.1566  0.0451  0.6331
16485SOL    HW161514   5.174   3.635   1.532  0.5013  0.0246  1.3301
16485SOL    HW261515   5.259   3.760   1.592  0.3676  0.6965  0.1400
16486SOL     OW61516   3.698   8.080   4.003 -0.4927 -0.1719 -0.5649
16486SOL    HW161517   3.737   8.052   4.091 -1.4134 -3.0221 -1.0288
16486SOL    HW261518   3.603   8.110   4.017 -0.1387  0.8923 -0.3750
16487SOL     OW61519   8.130   3.566   2.159 -0.3541  0.0251 -0.0737
16487SOL    HW161520   8.035   3.573   2.190 -1.0317  0.4214 -2.1437
16487SOL    HW261521   8.191   3.599   2.231 -1.8003  0.1320  1.1382
16488SOL     OW61522   8.531   3.516   7.061  0.4152  0.3559 -0.2113
16488SOL    HW161523   8.598   3.564   7.005  0.7295  2.0840  1.5733
16488SOL    HW261524   8.545   3.541   7.157 -0.2111 -2.3935  0.6277
16489SOL     OW61525   7.474   1.498   4.180 -0.2454  0.1731  0.4548
16489SOL    HW161526   7.494   1.536   4.271  1.0294 -0.3973  0.4260
16489SOL    HW261527   7.556   1.455   4.144 -0.5820  0.9303 -1.2458
16490SOL     OW61528   9.594   8.539   9.752  0.0614  0.0768 -0.3136
16490SOL    HW161529   9.503   8.514   9.783  0.5537  0.4610  1.5057
16490SOL    HW261530   9.608   8.637   9.762  0.6902  0.0190 -0.5685
16491SOL     OW61531   1.734   7.117   8.981 -0.5580  1.0165 -0.5679
16491SOL    HW161532   1.821   7.087   9.020 -0.4144  0.9809 -0.9229
16491SOL    HW261533   1.723   7.079   8.890 -1.7751 -0.5004  0.1873
16492SOL     OW61534   3.755   5.784   0.267 -0.1339  0.1606 -0.4432
16492SOL    HW161535   3.699   5.849   0.215 -3.3120 -2.2045 -0.1861
16492SOL    HW261536   3.822   5.742   0.207 -0.7960  0.7016 -1.5831
16493SOL     OW61537   2.736   4.996   8.144  0.2528  0.2411 -0.1212
16493SOL    HW161538   2.646   4.958   8.162  0.4357 -0.0592  0.1740
16493SOL    HW261539   2.757   4.988   8.047 -0.0582  0.3618 -0.1990
16494SOL     OW61540   4.902   3.234   7.510 -0.2155  0.0548 -0.4631
16494SOL    HW161541   4.816   3.262   7.468 -0.5642  0.1991  0.3269
16494SOL    HW261542   4.888   3.221   7.608  1.0493  1.6810 -0.0445
16495SOL     OW61543   1.288   7.975   6.633  0.2791 -0.0720 -0.0313
16495SOL    HW161544   1.335   7.977   6.721 -0.7065  2.1032  0.4659
16495SOL    HW261545   1.195   7.941   6.646 -0.4132  1.8076  0.0606
16496SOL     OW61546   9.489   8.608   0.956  0.2074 -0.0304  0.0504
16496SOL    HW161547   9.484   8.683   1.021  2.8178 -0.1285  0.4292
16496SOL    HW261548   9.580   8.607   0.912 -0.5132 -1.6668 -1.5030
16497SOL     OW61549   3.742   8.742   6.223  0.0488  0.1144 -0.0488
16497SOL    HW161550   3.814   8.733   6.292  0.5188  0.1359 -0.5319
16497SOL    HW261551   3.754   8.828   6.174 -0.3231  0.1261 -0.1244
16498SOL     OW61552   8.019   6.416   4.312 -0.0614 -0.3940  0.1123
16498SOL    HW161553   8.039   6.443   4.406  0.9860 -0.6770 -0.0299
16498SOL    HW261554   7.921   6.428   4.294 -0.1475  0.3010  1.0244
16499SOL     OW61555   3.572   9.414   2.008  1.2480  0.2164  0.0473
16499SOL    HW161556   3.516   9.333   1.992  1.9114 -0.3315  0.4388
16499SOL    HW261557   3.530   9.469   2.081  2.5275 -1.5040  2.1524
16500SOL     OW61558   8.618   8.623   7.135 -0.7136 -0.2051 -0.2015
16500SOL    HW161559   8.579   8.544   7.183 -1.5799  0.8758  0.9307
16500SOL    HW261560   8.639   8.695   7.202 -1.0297  0.9639 -1.3393
16501SOL     OW61561   3.513   2.351   2.638  0.1301  0.1131  0.2662
16501SOL    HW161562   3.595   2.336   2.693  1.1376  0.9936 -0.9837
16501SOL    HW261563   3.520   2.302   2.552 -1.2622 -0.9124  0.7103
16502SOL     OW61564   4.191   8.433   2.257  0.2996  0.0667 -0.2570
16502SOL    HW161565   4.280   8.463   2.223 -0.4249  1.0112 -1.3536
16502SOL    HW261566   4.119   8.489   2.217 -0.8667 -1.2619 -0.0734
16503SOL     OW61567   3.938   9.352   4.448  0.0050  0.2974 -0.1018
16503SOL    HW161568   4.010   9.416   4.478  0.4542 -0.4152  0.3692
16503SOL    HW261569   3.848   9.393   4.465  0.2764  0.5162  0.8622
16504SOL     OW61570   5.654   7.517   4.638 -0.8060  0.0031  0.6282
16504SOL    HW161571   5.601   7.465   4.705 -2.6747  2.0919  0.8553
16504SOL    HW261572   5.715   7.581   4.686 -0.3690 -0.2046  0.3506
16505SOL     OW61573   1.548   4.122   8.002  0.1133 -0.0320  0.4080
16505SOL    HW161574   1.611   4.082   7.934 -1.4220  0.0927 -1.1240
16505SOL    HW261575   1.455   4.088   7.985 -0.2922 -0.0181  2.4999
16506SOL     OW61576   8.357   0.466   5.303  0.0886 -0.0419  0.2531
16506SOL    HW161577   8.438   0.491   5.356  0.5812 -0.2250 -0.4093
16506SOL    HW261578   8.376   0.385   5.249 -0.0798  0.7161 -0.9619
16507SOL     OW61579   1.738   5.241   6.471  0.0198  0.0217  0.1204
16507SOL    HW161580   1.831   5.239   6.508  1.2442  1.1910 -2.7951
16507SOL    HW261581   1.695   5.329   6.491  0.0752  0.0446  0.1353
16508SOL     OW61582   8.480   6.400   4.932 -0.4831 -0.6356  0.0044
16508SOL    HW161583   8.571   6.405   4.890 -0.7707 -1.8577 -0.7831
16508SOL    HW261584   8.414   6.365   4.866 -0.7310 -3.6126  1.7656
16509SOL     OW61585   1.408   2.783   3.622 -0.2454  0.3559  0.4763
16509SOL    HW161586   1.402   2.685   3.640  0.6883  0.2607  0.2925
16509SOL    HW261587   1.371   2.804   3.532  0.1750  0.0798  0.2397
16510SOL     OW61588   8.365   0.108   4.137 -0.0894 -0.5158  0.3614
16510SOL    HW161589   8.451   0.122   4.186 -0.4322 -0.1350  0.8495
16510SOL    HW261590   8.336   0.193   4.094 -0.4761 -0.5238  0.6042
16511SOL     OW61591   6.007   0.597   4.268  0.0584  0.8328  0.8181
16511SOL    HW161592   6.069   0.600   4.189 -2.3594  1.2145 -1.1033
16511SOL    HW261593   5.927   0.654   4.250 -2.2332 -1.8793  2.0682
16512SOL     OW61594   7.025   4.656   9.857  0.5043  0.1275  0.4034
16512SOL    HW161595   7.036   4.702   9.945 -0.3042 -0.5435  0.8642
16512SOL    HW261596   6.929   4.657   9.831  0.6464 -0.2700 -0.1388
16513SOL     OW61597   0.706   9.180   6.122 -0.3722 -0.5951  0.2100
16513SOL    HW161598   0.668   9.089   6.106 -0.8983 -0.3248 -0.0820
16513SOL    HW261599   0.806   9.173   6.129 -0.5145 -1.4054  1.7303
16514SOL     OW61600   9.952   8.039   9.872  0.2078 -0.0098  0.5052
16514SOL    HW161601   9.890   8.113   9.898  0.2711  0.0239  0.5611
16514SOL    HW261602   9.959   8.034   9.773  0.0374 -0.0779  0.4960
16515SOL     OW61603   7.839   5.780   6.128 -0.3971  0.1799  0.2803
16515SOL    HW161604   7.825   5.735   6.216  0.8101  0.1997  0.4963
16515SOL    HW261605   7.824   5.879   6.139 -1.1617  0.0727  0.2438
16516SOL     OW61606   4.523   5.121   4.058  0.9173  0.1443 -0.1426
16516SOL    HW161607   4.598   5.062   4.088  1.3575  0.3835 -0.7442
16516SOL    HW261608   4.444   5.107   4.116  1.9127  0.9676  1.4438
16517SOL     OW61609   9.720   0.079   8.086  0.1626 -0.3775 -0.1808
16517SOL    HW161610   9.807   0.038   8.116 -1.2890 -3.5852 -0.1680
16517SOL    HW261611   9.677   0.124   8.164  0.8876 -0.4849  0.2966
16518SOL     OW61612   8.515   3.538   1.850 -0.8236 -0.3762  0.2577
16518SOL    HW161613   8.584   3.508   1.917 -0.4745 -0.5187 -0.1631
16518SOL    HW261614   8.424   3.534   1.892 -0.6528 -0.8871  0.5908
16519SOL     OW61615   2.169   4.709   8.137 -0.3477  0.1131 -0.0230
16519SOL    HW161616   2.091   4.651   8.163 -1.2560  1.9410  1.4939
16519SOL    HW261617   2.254   4.662   8.160 -1.0710 -0.4830  1.5552
16520SOL     OW61618   8.406   1.321   4.879  0.3799 -0.4857 -0.2849
16520SOL    HW161619   8.412   1.419   4.865 -2.7229 -0.3470 -1.0634
16520SOL    HW261620   8.447   1.297   4.967 -0.7589  1.8113  0.9238
16521SOL     OW61621   0.289   9.313   5.575  0.2736 -0.1150 -0.3741
16521SOL    HW161622   0.250   9.338   5.664 -0.2969  1.1036 -0.9550
16521SOL    HW261623   0.234   9.240   5.534 -1.4485  1.5898 -1.1875
16522SOL     OW61624   3.706   8.564   3.530 -0.6943  0.1494 -0.7701
16522SOL    HW161625   3.785   8.521   3.487 -0.5175 -0.4275  0.1315
16522SOL    HW261626   3.623   8.516   3.502 -0.7466  0.7994 -1.7739
16523SOL     OW61627   1.838   3.195   1.618 -0.0212  0.0839  0.0270
16523SOL    HW161628   1.793   3.106   1.611  0.5969 -0.4240  2.2421
16523SOL    HW261629   1.895   3.198   1.700 -0.5134  2.7415  0.3302
16524SOL     OW61630   8.501   6.806   8.369  0.2657 -0.8231  0.3170
16524SOL    HW161631   8.417   6.752   8.362 -0.4980 -0.0142  2.6746
16524SOL    HW261632   8.559   6.769   8.442  0.6085  0.3610  0.6591
16525SOL     OW61633   8.916   9.124   1.618  0.0784  0.1520 -0.4844
16525SOL    HW161634   8.943   9.098   1.711  1.7019 -1.2891 -1.3410
16525SOL    HW261635   8.945   9.218   1.601  1.5337 -0.2326 -0.2047
16526SOL     OW61636   2.963   7.453   1.220 -0.0594  0.4777 -0.4429
16526SOL    HW161637   3.001   7.541   1.249 -2.6122  1.1231  1.1488
16526SOL    HW261638   2.866   7.464   1.200 -0.3375 -1.9303 -0.5264
16527SOL     OW61639   1.120   6.480   0.213  0.1713 -0.3608 -0.1107
16527SOL    HW161640   1.134   6.503   0.309 -0.7568  0.6874 -0.2135
16527SOL    HW261641   1.174   6.399   0.189  2.9142  1.2185  0.4995
16528SOL     OW61642   8.563   4.059   1.713 -0.3838 -0.1631  0.0976
16528SOL    HW161643   8.591   4.155   1.717  1.8175 -0.7274 -1.1733
16528SOL    HW261644   8.633   4.003   1.757  0.1854 -1.5501 -2.5316
16529SOL     OW61645   5.489   7.512   1.774 -0.1835 -0.5802 -0.3613
16529SOL    HW161646   5.402   7.561   1.774 -1.2137 -2.3868 -0.5274
16529SOL    HW261647   5.480   7.426   1.724  1.3798 -1.3292  0.5875
16530SOL     OW61648   8.663   2.493   4.526 -0.6553 -0.4121  1.0076
16530SOL    HW161649   8.703   2.434   4.597 -1.6912 -0.5470  1.5034
16530SOL    HW261650   8.587   2.544   4.566 -1.2100 -0.4498 -0.0043
16531SOL     OW61651   2.975   6.721   0.258 -0.3041 -0.4617  0.1274
16531SOL    HW161652   2.935   6.793   0.314  0.3708 -0.3724  0.5040
16531SOL    HW261653   3.052   6.680   0.307 -0.1947 -0.9091 -0.4123
16532SOL     OW61654   4.657   5.921   8.804 -0.2458 -0.1892 -0.2636
16532SOL    HW161655   4.656   5.978   8.722 -0.6162 -0.1215 -0.2126
16532SOL    HW261656   4.691   5.975   8.881  0.8111 -0.4689 -0.5298
16533SOL     OW61657   8.241   5.032   3.998  0.6469 -0.6159 -0.4407
16533SOL    HW161658   8.334   5.019   3.964  0.9622  1.8424 -0.6442
16533SOL    HW261659   8.184   4.955   3.971  2.6953 -2.3318 -0.0019
16534SOL     OW61660   4.645   5.284   8.633 -0.3601 -0.4757  0.4667
16534SOL    HW161661   4.652   5.213   8.703 -0.0604 -1.0120 -0.1046
16534SOL    HW261662   4.717   5.352   8.648 -1.8396  0.7517  2.1711
16535SOL     OW61663   9.990   6.229   5.208  0.1687 -0.3641  0.7408
16535SOL    HW161664  10.067   6.271   5.159  1.0459 -1.6767  0.9558
16535SOL    HW261665   9.960   6.289   5.282  0.5531  0.4605  0.2253
16536SOL     OW61666   4.502   6.417   9.741 -0.1983  0.4895 -0.2605
16536SOL    HW161667   4.499   6.392   9.644  0.7569  1.2585 -0.4939
16536SOL    HW261668   4.577   6.367   9.785 -0.5694  0.2174  0.0628
16537SOL     OW61669   1.930   6.300   3.569 -0.2367  0.4327  0.3245
16537SOL    HW161670   2.015   6.341   3.600 -0.8002  0.9146  1.2742
16537SOL    HW261671   1.930   6.292   3.469  1.7215 -1.3856  0.4363
16538SOL     OW61672   8.628   4.924   7.083  0.0609  0.5495  0.1306
16538SOL    HW161673   8.581   5.012   7.086  0.7219  0.9981 -1.9183
16538SOL    HW261674   8.562   4.850   7.087 -0.4431  1.1009  2.9598
16539SOL     OW61675   8.966   5.818   2.574  0.2009 -0.4555  0.1710
16539SOL    HW161676   8.884   5.852   2.527  1.2217 -0.1708 -1.4437
16539SOL    HW261677   9.047   5.866   2.540  1.2457 -1.9290  0.5187
16540SOL     OW61678   4.146   2.542   1.668  0.3901  0.2898  0.4677
16540SOL    HW161679   4.209   2.537   1.745 -0.1178  1.6954  0.9926
16540SOL    HW261680   4.126   2.638   1.647 -0.2637 -0.0978 -0.7693
16541SOL     OW61681   1.174   2.769   4.905  0.5750  0.0412 -0.0666
16541SOL    HW161682   1.214   2.851   4.944 -1.3290  1.8861 -1.8358
16541SOL    HW261683   1.226   2.689   4.935  1.0739  1.6229  3.5927
16542SOL     OW61684   2.220   2.184   9.487  0.0628  0.3212 -0.7155
16542SOL    HW161685   2.278   2.149   9.414 -0.8243  0.9919 -1.7665
16542SOL    HW261686   2.276   2.214   9.564  0.9724 -0.8967 -0.9032
16543SOL     OW61687   8.268   5.512   0.202  0.0601  0.2780 -0.7312
16543SOL    HW161688   8.298   5.444   0.134 -0.8761  0.6225 -1.5019
16543SOL    HW261689   8.218   5.585   0.156  1.1066  1.5373  0.0854
16544SOL     OW61690   1.208   7.486   3.323  0.3186 -0.6127  0.1652
16544SOL    HW161691   1.205   7.397   3.368  0.2723 -0.6917  0.0056
16544SOL    HW261692   1.138   7.489   3.251  0.4980 -0.5409 -0.0041
16545SOL     OW61693   5.011   0.777   0.928 -0.1855 -0.5438  0.5780
16545SOL    HW161694   5.014   0.681   0.902  0.7836 -0.6831  1.1558
16545SOL    HW261695   5.035   0.786   1.025 -1.0040  0.2096  0.7130
16546SOL     OW61696   1.325   7.733   1.786 -0.2655 -0.1925 -0.6204
16546SOL    HW161697   1.325   7.722   1.885  0.5483  0.5533 -0.5305
16546SOL    HW261698   1.376   7.816   1.761  0.3701 -0.8890 -1.7133
16547SOL     OW61699   2.741   5.628   6.951 -0.5933 -0.2539 -0.8456
16547SOL    HW161700   2.648   5.635   6.915 -1.1354 -2.0445  0.1433
16547SOL    HW261701   2.747   5.548   7.011  1.2283  0.6426  0.1803
16548SOL     OW61702   8.718   1.045   6.478  0.1590 -0.2985  0.8960
16548SOL    HW161703   8.735   1.143   6.488  0.5633 -0.0918 -1.4401
16548SOL    HW261704   8.636   1.031   6.422  1.0127 -1.2736 -0.1396
16549SOL     OW61705   4.003   8.442   2.574  0.3424 -0.6917  0.2379
16549SOL    HW161706   4.084   8.410   2.525 -0.1630 -0.8885 -0.4936
16549SOL    HW261707   4.019   8.534   2.609  0.5742 -0.3859 -0.6617
16550SOL     OW61708   6.080   2.868   0.498  0.2796 -0.1788 -0.1953
16550SOL    HW161709   6.065   2.915   0.411 -3.4378 -1.8076 -0.5367
16550SOL    HW261710   6.043   2.775   0.493 -0.4327 -0.1588  3.2572
16551SOL     OW61711   0.395   5.689   6.908 -0.6302 -0.1013 -0.2341
16551SOL    HW161712   0.402   5.637   6.823 -2.5451 -0.4537 -0.2073
16551SOL    HW261713   0.486   5.699   6.948  0.0651 -1.5280 -1.3666
16552SOL     OW61714   3.115   7.485   8.289 -0.1033  0.7404 -0.7329
16552SOL    HW161715   3.060   7.417   8.337 -1.2551  1.7388 -0.6238
16552SOL    HW261716   3.173   7.439   8.222  0.5311 -0.5239  0.6590
16553SOL     OW61717   0.875   2.567   2.703 -0.0851 -0.4639  0.3121
16553SOL    HW161718   0.921   2.503   2.642 -0.1464  0.4625 -0.7175
16553SOL    HW261719   0.846   2.519   2.786  0.4068 -1.6271 -0.1821
16554SOL     OW61720   8.781   6.632   0.385 -0.7021 -0.6173  0.2369
16554SOL    HW161721   8.756   6.646   0.481  0.2300 -1.6742  0.6457
16554SOL    HW261722   8.775   6.535   0.362 -0.8012 -0.3848 -0.7444
16555SOL     OW61723   0.419   9.940   1.656 -0.5184  0.2610 -0.6244
16555SOL    HW161724   0.329   9.946   1.701  0.1667  2.0133  0.5482
16555SOL    HW261725   0.409   9.967   1.560 -1.3847 -0.3668 -0.7278
16556SOL     OW61726   3.422   4.377   0.584 -0.7105  0.4100  0.0933
16556SOL    HW161727   3.423   4.289   0.537  0.5930  1.0200 -1.0828
16556SOL    HW261728   3.447   4.365   0.680 -0.7465 -0.5191 -0.0090
16557SOL     OW61729   2.179   7.538   4.130 -0.2768  0.4003  0.5533
16557SOL    HW161730   2.278   7.553   4.127  0.2732 -2.9295 -4.3018
16557SOL    HW261731   2.159   7.460   4.190  0.1842  0.1651  0.4055
16558SOL     OW61732   8.425   1.214   4.636  0.8824 -0.1301 -0.2861
16558SOL    HW161733   8.344   1.253   4.592  0.2882 -3.0523 -1.9400
16558SOL    HW261734   8.432   1.247   4.730 -3.7820 -1.8710  0.8087
16559SOL     OW61735   7.331   4.670   9.858  0.6810 -0.1451  0.0730
16559SOL    HW161736   7.360   4.580   9.827 -0.3755 -0.3294 -0.3909
16559SOL    HW261737   7.231   4.673   9.864  0.6692  1.2202 -0.6276
16560SOL     OW61738   4.611   9.435   6.027  0.6314  0.2255  0.0193
16560SOL    HW161739   4.673   9.509   6.055  1.3420 -0.7534  1.0653
16560SOL    HW261740   4.523   9.445   6.074  0.7991  0.2876  0.3228
16561SOL     OW61741   3.854   8.441   6.817 -0.1658 -0.2266 -0.3365
16561SOL    HW161742   3.767   8.438   6.866  0.3531 -2.0463  0.5379
16561SOL    HW261743   3.869   8.532   6.780 -1.5987  0.5954  1.0530
16562SOL     OW61744   5.204   0.674   9.278  0.6270  0.0095 -0.8887
16562SOL    HW161745   5.188   0.653   9.181  1.5491 -1.0504 -0.8234
16562SOL    HW261746   5.302   0.675   9.295  0.5068  1.6477 -0.2652
16563SOL     OW61747   9.197   6.569   0.394  0.6221  0.4069  0.2983
16563SOL    HW161748   9.185   6.664   0.365  2.7944  1.0184  1.3646
16563SOL    HW261749   9.196   6.510   0.313  0.5103  1.4517 -0.4846
16564SOL     OW61750   0.581   9.641   4.910 -0.0011  0.2837 -0.7597
16564SOL    HW161751   0.518   9.564   4.922  0.0035  0.4454  0.3063
16564SOL    HW261752   0.565   9.683   4.821 -1.1863  0.1191 -0.6325
16565SOL     OW61753   7.923   1.253   9.440 -0.0879  0.4510  0.2437
16565SOL    HW161754   7.847   1.258   9.375 -1.7653 -0.3450  2.0954
16565SOL    HW261755   8.006   1.226   9.392 -0.8287  1.9059 -1.9309
16566SOL     OW61756   2.384   2.532   4.597  0.6922  0.5764 -0.3742
16566SOL    HW161757   2.356   2.559   4.505 -1.6318 -1.8957 -0.4638
16566SOL    HW261758   2.390   2.432   4.602 -0.4394  0.6027  2.4629
16567SOL     OW61759   4.288   1.688   6.545  0.0958 -0.0837 -0.1500
16567SOL    HW161760   4.191   1.678   6.524 -0.4888  2.0149  1.3714
16567SOL    HW261761   4.331   1.748   6.478 -0.4976  1.9366  1.2266
16568SOL     OW61762   3.019   6.747   4.994 -0.7493 -0.5629  0.4704
16568SOL    HW161763   3.013   6.835   4.948 -1.6967 -1.4457 -1.1422
16568SOL    HW261764   2.932   6.727   5.038 -1.2520 -1.6249 -0.9561
16569SOL     OW61765   5.405   9.372   6.617 -0.4163  0.5734  0.9507
16569SOL    HW161766   5.449   9.462   6.611 -0.1474  0.5107  1.9407
16569SOL    HW261767   5.367   9.360   6.709 -0.7888 -0.1743  0.7003
16570SOL     OW61768   7.218   5.779   2.632  0.0794 -0.3129  0.3260
16570SOL    HW161769   7.178   5.863   2.595  0.8413 -0.7032 -1.4442
16570SOL    HW261770   7.146   5.723   2.673 -0.8236  0.0612 -0.7401
16571SOL     OW61771   9.693   3.429   0.377 -0.0218  0.1842  0.2092
16571SOL    HW161772   9.644   3.516   0.373  1.2140  0.9247  1.3087
16571SOL    HW261773   9.692   3.387   0.286 -0.6095  1.3398 -0.3278
16572SOL     OW61774   2.413   7.587   0.175 -0.1010  0.3425  0.0815
16572SOL    HW161775   2.437   7.646   0.098  0.2022  0.3746  0.1978
16572SOL    HW261776   2.324   7.613   0.210 -1.3863 -1.3093 -1.8628
16573SOL     OW61777   3.526   6.766   6.548  0.0153  0.5601 -0.4329
16573SOL    HW161778   3.543   6.863   6.561  0.7585  0.3980 -0.1398
16573SOL    HW261779   3.613   6.717   6.551 -0.4299 -0.1988  0.1306
16574SOL     OW61780   1.955   3.172   3.687  0.0566 -0.0824 -0.2166
16574SOL    HW161781   1.944   3.139   3.781 -0.8256  0.0155 -0.2751
16574SOL    HW261782   1.868   3.163   3.638 -0.5519  3.2636  0.0848
16575SOL     OW61783   3.978   5.737   9.092  0.3918 -0.2451 -0.2925
16575SOL    HW161784   3.945   5.784   9.174 -0.7363 -0.0276 -0.8570
16575SOL    HW261785   3.907   5.673   9.061  1.5217 -1.6241 -0.0864
16576SOL     OW61786   6.300   3.728   0.467  0.5091 -0.4379  0.0053
16576SOL    HW161787   6.239   3.805   0.452 -1.6289 -2.0602  0.1780
16576SOL    HW261788   6.332   3.694   0.379 -0.0168 -0.5101 -0.1594
16577SOL     OW61789   9.049   7.354   6.356 -0.2142 -0.2055  0.0874
16577SOL    HW161790   8.958   7.316   6.374 -0.1341 -0.2198  0.4646
16577SOL    HW261791   9.116   7.280   6.353 -0.1044 -0.1253  0.5203
16578SOL     OW61792   2.962   2.236   3.218  0.2463 -0.1503 -0.2937
16578SOL    HW161793   2.872   2.197   3.241  0.8901 -0.2457  2.2136
16578SOL    HW261794   2.962   2.334   3.238  0.7839 -0.2003 -0.0458
16579SOL     OW61795   3.736   9.854   9.469  0.2893  0.2392  0.3122
16579SOL    HW161796   3.759   9.757   9.463 -2.5615 -0.3592 -1.7236
16579SOL    HW261797   3.783   9.905   9.397 -0.2520 -0.0764 -0.2713
16580SOL     OW61798   8.979   2.311   0.551  0.2010  0.0742 -0.3148
16580SOL    HW161799   8.998   2.215   0.532 -0.2962  0.0303 -0.6037
16580SOL    HW261800   9.053   2.350   0.606  0.4866 -0.4264 -0.3464
16581SOL     OW61801   9.848   4.475   3.028  1.0171  0.3094 -0.2608
16581SOL    HW161802   9.810   4.565   3.004  0.1577 -0.7592 -3.0869
16581SOL    HW261803   9.791   4.403   2.987  1.9931 -1.5259  1.5496
16582SOL     OW61804   8.367   9.047   2.178 -0.2842 -0.0525 -0.2517
16582SOL    HW161805   8.456   9.072   2.140  0.2828 -2.0299 -0.3235
16582SOL    HW261806   8.295   9.063   2.110  0.5431 -2.2249 -1.6944
16583SOL     OW61807   5.725   4.478   2.149  0.1333  0.1376  0.0132
16583SOL    HW161808   5.817   4.439   2.158  0.1032 -0.3638 -1.7007
16583SOL    HW261809   5.686   4.493   2.240  1.3072 -1.0863  0.7343
16584SOL     OW61810   4.730   7.310   1.279 -0.0079  0.1075 -0.0501
16584SOL    HW161811   4.795   7.384   1.297  0.3538 -0.0236 -0.7804
16584SOL    HW261812   4.762   7.227   1.323  1.9419 -0.7241 -2.8997
16585SOL     OW61813   5.825   4.585   0.459 -0.4108 -0.0160  0.1127
16585SOL    HW161814   5.760   4.654   0.491  0.3166  0.9432 -0.4603
16585SOL    HW261815   5.902   4.630   0.414 -0.2120 -1.2308 -0.7880
16586SOL     OW61816   4.064   0.758   8.427  0.2955 -0.4861  0.0186
16586SOL    HW161817   4.148   0.785   8.475  1.4596 -0.5988 -1.9206
16586SOL    HW261818   4.087   0.708   8.344 -1.7222 -0.9253 -0.3081
16587SOL     OW61819   9.806   8.257  10.000 -0.0110 -0.0477  0.8786
16587SOL    HW161820   9.797   8.201  10.082 -0.8185 -0.8548  0.2410
16587SOL    HW261821   9.726   8.245   9.941  0.3224  0.9142  0.2076
16588SOL     OW61822   4.353   7.823   5.099  0.5512 -0.1781  0.4586
16588SOL    HW161823   4.296   7.834   5.018  2.8566 -0.9146 -1.2999
16588SOL    HW261824   4.347   7.906   5.155  0.3474  1.0857 -1.3892
16589SOL     OW61825   4.306   1.730   2.447  0.2749  0.5310 -0.0873
16589SOL    HW161826   4.268   1.658   2.505 -0.7623 -0.6837 -2.1868
16589SOL    HW261827   4.376   1.690   2.387 -0.6304  1.1785 -1.5836
16590SOL     OW61828   9.884   7.246   3.451 -0.0664 -0.2593 -0.3920
16590SOL    HW161829   9.944   7.187   3.397 -0.2476 -0.8926  0.0954
16590SOL    HW261830   9.813   7.286   3.391 -2.0674 -3.2698 -0.1151
16591SOL     OW61831   0.562   3.119   0.585  0.4027 -0.0306  0.0027
16591SOL    HW161832   0.496   3.101   0.658 -0.0605  0.8559 -0.1950
16591SOL    HW261833   0.535   3.069   0.503 -1.0138  1.6918 -0.6162
16592SOL     OW61834   2.425   0.806   7.843 -0.0443 -0.1717 -0.4069
16592SOL    HW161835   2.365   0.878   7.808  0.9665  1.1637  0.5621
16592SOL    HW261836   2.420   0.804   7.943  2.0188  0.4115 -0.2721
16593SOL     OW61837   1.389   4.633   3.815 -0.1898  0.5242 -0.2784
16593SOL    HW161838   1.346   4.566   3.875  1.6003 -0.4168 -0.0347
16593SOL    HW261839   1.368   4.725   3.848 -0.4782  0.0489  0.8932
16594SOL     OW61840   1.183   6.496   3.691  0.7234  0.3911 -0.0097
16594SOL    HW161841   1.213   6.434   3.618  2.6187 -0.2293  1.2307
16594SOL    HW261842   1.088   6.477   3.715  0.4219 -0.1101 -1.5828
16595SOL     OW61843   7.349   6.660   5.236 -1.1166 -0.0667 -0.0418
16595SOL    HW161844   7.435   6.608   5.238 -0.3455  1.2268  2.3258
16595SOL    HW261845   7.286   6.617   5.171  0.1559 -2.9033  0.4942
16596SOL     OW61846   4.875   1.063   9.533 -0.2550 -0.3436  0.2282
16596SOL    HW161847   4.896   1.160   9.529  0.5535 -0.4306  1.8990
16596SOL    HW261848   4.917   1.016   9.455 -1.7758  0.8177 -1.3312
16597SOL     OW61849   1.046   2.682   7.418 -0.0800 -0.1057  0.3345
16597SOL    HW161850   1.058   2.711   7.513 -0.3863 -0.6211  0.5365
16597SOL    HW261851   1.078   2.753   7.356  0.4796  0.0709  0.8306
16598SOL     OW61852   7.198   5.109   2.204 -0.3586  0.0026 -0.2317
16598SOL    HW161853   7.127   5.175   2.229 -0.0924  0.7983 -1.5124
16598SOL    HW261854   7.272   5.113   2.271 -0.2998  1.0949 -0.3501
16599SOL     OW61855   1.869   1.708   1.149 -0.2026 -0.0113 -0.0399
16599SOL    HW161856   1.919   1.746   1.227 -0.9944 -0.4795  0.7152
16599SOL    HW261857   1.811   1.780   1.109  0.7892  0.4314 -0.6861
16600SOL     OW61858   1.752   8.467   1.936  0.6300  0.1535 -0.1254
16600SOL    HW161859   1.755   8.404   2.013  0.0783  0.3430  0.0556
16600SOL    HW261860   1.718   8.420   1.855 -1.8051  0.7158  0.5219
16601SOL     OW61861   7.426   5.966   5.109 -0.3439  0.0744  0.0373
16601SOL    HW161862   7.392   5.894   5.048 -2.8434  1.0409  0.2342
16601SOL    HW261863   7.521   5.987   5.085 -0.4479 -1.3642 -1.8154
16602SOL     OW61864   3.466   5.141   1.727  0.1258  0.6881  0.2943
16602SOL    HW161865   3.506   5.198   1.656  1.2218 -0.4171 -0.0049
16602SOL    HW261866   3.366   5.152   1.727  0.2868  2.1634 -0.1067
16603SOL     OW61867   2.258   8.398   6.993 -0.5986  0.8870 -0.1905
16603SOL    HW161868   2.266   8.345   6.909  1.0700 -0.3069  0.6971
16603SOL    HW261869   2.169   8.382   7.035  0.1018 -1.6763  0.3669
16604SOL     OW61870   0.066   1.194   6.545 -0.1951 -0.1536  0.4481
16604SOL    HW161871   0.092   1.103   6.513  0.1019 -0.3386  1.1981
16604SOL    HW261872   0.100   1.263   6.481  0.8750 -0.4844  0.6483
16605SOL     OW61873   3.236   7.517   4.884  0.6959 -0.1902 -0.4213
16605SOL    HW161874   3.204   7.476   4.799  1.5657  0.8971 -1.2926
16605SOL    HW261875   3.191   7.606   4.898 -0.0316 -0.7220  0.6580
16606SOL     OW61876   8.432   6.029   0.943 -0.4670 -0.2609 -0.4163
16606SOL    HW161877   8.471   6.073   1.024 -0.0083 -0.6705 -0.4163
16606SOL    HW261878   8.477   5.941   0.927  0.9043  0.7313 -2.3107
16607SOL     OW61879   0.481   5.272   7.766 -0.0996  0.0616 -0.1719
16607SOL    HW161880   0.533   5.327   7.701  0.2746 -0.5427 -0.3972
16607SOL    HW261881   0.392   5.315   7.784  1.3671  2.2904  1.9752
16608SOL     OW61882   4.462   2.636   1.422 -0.3911  0.5874  0.2511
16608SOL    HW161883   4.535   2.658   1.358 -0.3802 -0.8948 -0.2631
16608SOL    HW261884   4.377   2.681   1.392 -0.4344 -0.2619 -0.9324
16609SOL     OW61885   8.154   8.942   8.580  0.2479  0.4357 -0.2832
16609SOL    HW161886   8.067   8.942   8.530 -0.9531 -0.6776  1.7519
16609SOL    HW261887   8.208   8.863   8.551 -0.1923  0.1232 -0.2566
16610SOL     OW61888   6.026   0.211   4.187 -0.0978 -0.0606 -0.6018
16610SOL    HW161889   6.029   0.289   4.124 -1.1189  0.7028  0.2837
16610SOL    HW261890   5.963   0.231   4.262 -1.3116 -2.2201 -1.0008
16611SOL     OW61891   6.963   5.093   0.596  0.0418 -0.0064 -0.0522
16611SOL    HW161892   7.036   5.161   0.588 -0.6886  0.9924  1.4405
16611SOL    HW261893   6.874   5.139   0.597 -0.4204 -0.8782  1.7466
16612SOL     OW61894   0.643   0.447   0.276 -0.5409 -0.6251  0.8014
16612SOL    HW161895   0.563   0.401   0.238 -0.7308 -0.4020  0.9358
16612SOL    HW261896   0.657   0.416   0.370 -0.8758 -0.1422  1.0108
16613SOL     OW61897   5.312   4.169   2.624  0.8459 -0.1257 -0.0435
16613SOL    HW161898   5.272   4.177   2.533 -3.2636  0.6044  1.7163
16613SOL    HW261899   5.311   4.073   2.653 -3.2563  0.2583  1.4153
16614SOL     OW61900   0.592   6.718   5.415 -0.2608 -0.1338  0.4654
16614SOL    HW161901   0.678   6.721   5.467 -0.4955  2.4489  0.7817
16614SOL    HW261902   0.551   6.810   5.413 -3.0870 -1.3432  0.4193
16615SOL     OW61903   1.982   0.631   2.732  0.2214 -0.2602  0.4936
16615SOL    HW161904   2.063   0.670   2.688 -0.9341  1.5004 -0.1379
16615SOL    HW261905   1.950   0.693   2.804 -1.5893 -0.0525 -0.4537
16616SOL     OW61906   3.007   0.235   1.322 -0.2614 -0.0485  0.7294
16616SOL    HW161907   3.030   0.184   1.405  0.6413 -0.0949  0.4550
16616SOL    HW261908   3.016   0.333   1.339  1.0135 -0.0934  0.3767
16617SOL     OW61909   0.078   8.742   1.970 -0.5381  0.3054  0.5347
16617SOL    HW161910   0.006   8.762   2.036 -0.5502  0.3809  0.4986
16617SOL    HW261911   0.154   8.697   2.016 -1.0562 -0.7365  0.3790
16618SOL     OW61912   6.324   7.124   5.592  0.0367  0.5765  0.4119
16618SOL    HW161913   6.381   7.045   5.566 -0.5351  0.5602 -0.8556
16618SOL    HW261914   6.370   7.208   5.565 -0.1443  0.5999  0.1756
16619SOL     OW61915   2.984   3.305   8.075 -0.5151 -0.3169  0.7512
16619SOL    HW161916   3.033   3.390   8.096 -1.8496  0.3885  1.0550
16619SOL    HW261917   2.980   3.248   8.157  0.1172 -0.5471  0.6276
16620SOL     OW61918   3.423   0.645   9.897 -0.2606 -0.9497 -0.6460
16620SOL    HW161919   3.383   0.656   9.988  0.9266 -0.4162 -0.1711
16620SOL    HW261920   3.461   0.732   9.867  0.0752 -1.3182 -1.2994
16621SOL     OW61921   8.611   4.250   2.559  0.1518  0.8751 -0.7579
16621SOL    HW161922   8.540   4.207   2.503  0.4924 -0.1821 -0.3730
16621SOL    HW261923   8.686   4.186   2.575 -0.0140  1.0924  1.0612
16622SOL     OW61924   9.921   8.759   2.984 -0.6022  0.2989 -0.4486
16622SOL    HW161925   9.928   8.719   2.892 -1.1993  0.4536 -0.5649
16622SOL    HW261926   9.885   8.690   3.047  1.7307 -0.4519  0.1201
16623SOL     OW61927   5.247   4.844   8.695 -0.1455  0.0208  0.1036
16623SOL    HW161928   5.301   4.879   8.618  0.9162  0.6682  1.1250
16623SOL    HW261929   5.271   4.895   8.778 -0.5425 -1.3367  1.0621
16624SOL     OW61930   4.776   1.528   7.540  0.0486  0.6583 -0.1628
16624SOL    HW161931   4.777   1.437   7.581 -1.0084  1.1558  0.9867
16624SOL    HW261932   4.851   1.582   7.578  0.4691  0.3831 -0.5951
16625SOL     OW61933   0.166   1.572   2.193  0.0715  0.4738  0.1019
16625SOL    HW161934   0.228   1.504   2.234 -0.0426  0.4593  0.2494
16625SOL    HW261935   0.145   1.643   2.261 -0.3917  0.2656  0.1762
16626SOL     OW61936   1.866   6.071   7.871 -0.2764 -0.3811 -0.2627
16626SOL    HW161937   1.910   6.055   7.960  0.1589 -0.5930 -0.5177
16626SOL    HW261938   1.916   6.023   7.800  0.1487  0.8417 -0.8137
16627SOL     OW61939   3.052   0.947   7.684 -0.4379 -0.0957 -0.2686
16627SOL    HW161940   3.118   0.872   7.684 -0.3834 -0.0535 -1.1183
16627SOL    HW261941   3.005   0.949   7.596  0.0932  1.3385 -0.5200
16628SOL     OW61942   7.774   5.364   8.245 -0.1328  0.1919  0.1923
16628SOL    HW161943   7.788   5.434   8.315 -0.8029 -0.1213  0.6399
16628SOL    HW261944   7.676   5.354   8.226  0.0964  0.9838 -1.5147
16629SOL     OW61945   1.940   2.007   6.835  0.1597 -0.1779 -0.4543
16629SOL    HW161946   1.849   1.968   6.850  0.5911 -1.8508 -2.0411
16629SOL    HW261947   1.996   1.942   6.784  1.9616  1.2174 -0.2956
16630SOL     OW61948   9.317   0.997   1.541 -0.1138 -0.1130 -0.1490
16630SOL    HW161949   9.395   1.000   1.479 -0.5036 -0.5227 -0.6605
16630SOL    HW261950   9.340   0.939   1.620 -0.1549 -0.8346 -0.6561
16631SOL     OW61951   9.372   7.448   8.472  0.0635  0.2349  0.2877
16631SOL    HW161952   9.431   7.500   8.410  0.6134 -0.1220  0.5174
16631SOL    HW261953   9.402   7.462   8.566 -0.9840  1.0558  0.5207
16632SOL     OW61954   0.219   5.684   3.740 -0.1155 -0.1889  0.0369
16632SOL    HW161955   0.228   5.589   3.771 -1.2635 -0.0966  0.6889
16632SOL    HW261956   0.122   5.709   3.739  0.3028  1.5950  1.7085
16633SOL     OW61957   2.262   1.216   6.618  0.3920  0.7189 -0.9940
16633SOL    HW161958   2.271   1.233   6.520  0.0654  2.6351 -0.7184
16633SOL    HW261959   2.215   1.293   6.661 -0.6011 -0.6667  0.4825
16634SOL     OW61960   5.860   7.810   5.847  0.0947  0.0412  0.4098
16634SOL    HW161961   5.776   7.859   5.867 -0.9526 -1.2594 -0.7339
16634SOL    HW261962   5.839   7.715   5.822  1.7274  0.2329 -1.8642
16635SOL     OW61963   7.380   1.953   8.393 -0.3998  0.0326 -0.3482
16635SOL    HW161964   7.468   1.915   8.421 -0.6368 -1.2895 -1.3324
16635SOL    HW261965   7.313   1.879   8.385 -1.2587  0.8588 -0.8624
16636SOL     OW61966   8.102   7.734   0.052 -0.0474  0.0046  0.0022
16636SOL    HW161967   8.021   7.691   0.092  0.4571 -1.1917 -0.2354
16636SOL    HW261968   8.154   7.779   0.124 -0.0947 -0.5847  0.4116
16637SOL     OW61969   3.961   1.600   3.209  0.4262  0.4845 -0.3757
16637SOL    HW161970   3.930   1.640   3.123 -1.8837  0.1974  0.2809
16637SOL    HW261971   4.004   1.512   3.191  0.5533  0.7337 -1.3085
16638SOL     OW61972   4.574   2.481   7.371  0.5713 -0.3975  0.1633
16638SOL    HW161973   4.599   2.537   7.292  0.3666  0.6211  0.8084
16638SOL    HW261974   4.600   2.529   7.456 -0.5473 -0.7905  0.7472
16639SOL     OW61975   2.735   5.375   9.400 -0.3501  0.1531 -0.2725
16639SOL    HW161976   2.656   5.315   9.412 -0.6561  0.5841 -0.0822
16639SOL    HW261977   2.819   5.323   9.407 -0.5411  0.1337  2.2036
16640SOL     OW61978   1.366   7.728   1.045 -0.0676 -0.0628 -0.0732
16640SOL    HW161979   1.386   7.814   0.998  0.0941  0.3655  0.7631
16640SOL    HW261980   1.371   7.742   1.144  0.6470 -1.2119  0.0618
16641SOL     OW61981   2.369   6.467   0.081 -0.4067 -0.0068  0.3813
16641SOL    HW161982   2.424   6.479   0.164 -0.6422 -0.5870  0.6222
16641SOL    HW261983   2.430   6.455   0.003 -0.1568 -2.4037  0.8934
16642SOL     OW61984   0.594   1.962   8.477 -1.1285  0.2412  0.2256
16642SOL    HW161985   0.579   1.883   8.537 -0.9431  0.0485  0.0178
16642SOL    HW261986   0.627   1.931   8.388 -1.6331  0.5132 -0.0556
16643SOL     OW61987   2.664   3.835   4.654 -0.6098  0.3063  0.9083
16643SOL    HW161988   2.731   3.909   4.661  1.0095 -1.2480  2.3629
16643SOL    HW261989   2.601   3.840   4.732  1.3388 -1.5388  2.6887
16644SOL     OW61990   0.580   1.188   0.104 -0.1950  0.4768 -0.4080
16644SOL    HW161991   0.662   1.231   0.069  0.2469 -1.3871 -1.7166
16644SOL    HW261992   0.500   1.244   0.082  0.6894  2.2535  0.8121
16645SOL     OW61993   9.314   7.351   2.315 -0.6020 -0.0281 -0.0504
16645SOL    HW161994   9.301   7.254   2.336  1.4742  0.0255  1.6364
16645SOL    HW261995   9.390   7.361   2.251  0.0235  0.5574  0.7675
16646SOL     OW61996   1.245   8.923   3.414  0.5352  0.4427 -0.3361
16646SOL    HW161997   1.328   8.975   3.392 -0.2114  2.1286  0.6863
16646SOL    HW261998   1.265   8.859   3.488  0.7058  1.5601  0.6057
16647SOL     OW61999   7.566   6.046   3.345  0.0578  0.5141 -0.0123
16647SOL    HW162000   7.650   6.065   3.295 -0.3146 -1.7438 -1.6130
16647SOL    HW262001   7.488   6.088   3.298 -0.2218 -1.1305 -1.0670
16648SOL     OW62002   5.567   9.701   2.853  0.6901 -0.6930 -0.5272
16648SOL    HW162003   5.657   9.715   2.893  0.4576 -0.8412  0.0516
16648SOL    HW262004   5.502   9.764   2.895  0.5250 -0.5808 -0.9490
16649SOL     OW62005   7.730   2.182   9.969 -0.1874  0.3598 -0.4609
16649SOL    HW162006   7.799   2.254   9.961  0.0187  0.6352  2.8129
16649SOL    HW262007   7.663   2.209  10.038 -0.0178 -2.6164  0.9288
16650SOL     OW62008   2.603   9.373   5.779  0.6456 -0.3430 -0.4693
16650SOL    HW162009   2.615   9.436   5.702  1.4504 -0.7913 -0.7270
16650SOL    HW262010   2.580   9.424   5.862  2.8245  0.4548 -0.3255
16651SOL     OW62011   8.859   4.278   3.361 -0.0895  0.0311  0.3188
16651SOL    HW162012   8.924   4.353   3.372  0.7943 -0.2199 -2.6113
16651SOL    HW262013   8.903   4.192   3.388 -0.7654  0.3914  2.6921
16652SOL     OW62014   8.634   9.947   2.299 -0.5501 -0.1941  0.3397
16652SOL    HW162015   8.569   9.910   2.233 -0.4722 -1.9570  1.2190
16652SOL    HW262016   8.623   9.900   2.387  0.9703  0.4414  0.8941
16653SOL     OW62017   2.916   9.305   1.271 -0.0199  0.4314  0.0991
16653SOL    HW162018   2.991   9.248   1.237 -0.7749  0.1535 -1.1451
16653SOL    HW262019   2.940   9.342   1.360  0.7682 -1.2860  0.6286
16654SOL     OW62020   6.760   1.750   2.337 -0.1009 -0.2716  0.0488
16654SOL    HW162021   6.779   1.769   2.240 -0.3953  0.5938  0.1546
16654SOL    HW262022   6.759   1.651   2.352 -2.6936 -0.4952 -1.3678
16655SOL     OW62023   5.213   5.818   8.434  0.1717 -0.5552  0.0182
16655SOL    HW162024   5.166   5.841   8.519 -0.6901  0.2662 -0.6659
16655SOL    HW262025   5.154   5.842   8.356  2.1258  1.4444 -0.9036
16656SOL     OW62026   0.984   4.402   1.357 -0.0275 -0.2064  0.7832
16656SOL    HW162027   1.044   4.326   1.383  0.8179 -0.0685 -0.6735
16656SOL    HW262028   0.924   4.425   1.433  0.5311 -1.5473  1.6514
16657SOL     OW62029   6.499   7.727   6.821 -0.0013 -0.3182 -0.2105
16657SOL    HW162030   6.404   7.740   6.791  0.1101 -0.6362 -0.7157
16657SOL    HW262031   6.518   7.787   6.899 -1.1595 -1.6096  1.0843
16658SOL     OW62032   7.876   5.603   0.333  0.4565  0.4505 -0.3314
16658SOL    HW162033   7.907   5.510   0.314 -0.4175  0.4683 -1.9327
16658SOL    HW262034   7.944   5.650   0.389  0.0242 -1.7732  2.1683
16659SOL     OW62035   3.313   8.674   3.088  0.6506  0.3471 -0.3431
16659SOL    HW162036   3.264   8.758   3.065  1.1028  0.9086  0.6887
16659SOL    HW262037   3.358   8.638   3.006 -0.3245  0.5868 -0.9929
16660SOL     OW62038   0.371   9.342   9.312  0.0419  0.1353 -0.1525
16660SOL    HW162039   0.389   9.373   9.406  0.6819  1.0765 -0.5745
16660SOL    HW262040   0.391   9.417   9.248 -0.3652 -0.5083 -1.0433
16661SOL     OW62041   3.878   8.563   7.983  0.4006 -0.1546  0.1016
16661SOL    HW162042   3.968   8.520   7.991  1.3008  1.8352  1.2222
16661SOL    HW262043   3.816   8.523   8.051  1.0162 -0.1887  0.6494
16662SOL     OW62044   8.742   5.298   6.159 -0.2453  0.5659 -0.0714
16662SOL    HW162045   8.732   5.246   6.243  2.1278  1.8633  1.0584
16662SOL    HW262046   8.729   5.238   6.080 -1.8437 -0.7834  1.2168
16663SOL     OW62047   4.481   9.254   4.983 -0.1397  0.3234  0.5855
16663SOL    HW162048   4.448   9.349   4.992 -2.6157 -0.5098  0.8260
16663SOL    HW262049   4.404   9.192   4.997  1.2263 -1.7009 -0.8012
16664SOL     OW62050   7.763   0.634   2.135 -0.3022  0.7699  0.4687
16664SOL    HW162051   7.694   0.591   2.193  1.0310 -2.6626 -0.3595
16664SOL    HW262052   7.724   0.652   2.044 -1.0593  2.0173  1.0179
16665SOL     OW62053   2.166   1.492   3.417 -0.5162  0.2091 -0.2345
16665SOL    HW162054   2.200   1.401   3.390 -0.8114 -0.0794  0.3425
16665SOL    HW262055   2.066   1.492   3.417 -0.5160  0.5676 -0.3398
16666SOL     OW62056   2.282   6.444   7.415  0.0584 -0.0332  0.5142
16666SOL    HW162057   2.319   6.359   7.451  0.1492  0.2392  1.0796
16666SOL    HW262058   2.314   6.458   7.321 -0.4665 -0.9286  0.2066
16667SOL     OW62059   3.881   3.341   8.796  0.0595  0.0452  0.0746
16667SOL    HW162060   3.818   3.288   8.854 -0.8153  0.0422 -0.8714
16667SOL    HW262061   3.972   3.340   8.837 -0.3708 -0.6428  1.0345
16668SOL     OW62062   7.719   6.600   0.556 -0.3053 -0.2376 -0.4082
16668SOL    HW162063   7.785   6.594   0.631 -0.8403 -0.5543  0.0413
16668SOL    HW262064   7.699   6.509   0.522 -2.5707 -0.3912  1.2673
16669SOL     OW62065   3.497   1.887   1.808 -0.3287 -0.0232  0.1332
16669SOL    HW162066   3.567   1.905   1.877  0.1787 -1.0259 -0.1064
16669SOL    HW262067   3.466   1.792   1.817 -0.4828 -0.0638 -0.8304
16670SOL     OW62068   0.539   8.876   5.337 -0.6836  0.4016 -0.3566
16670SOL    HW162069   0.622   8.906   5.384 -0.8316 -1.3396  1.0522
16670SOL    HW262070   0.518   8.940   5.263  2.1493  0.6415 -1.0092
16671SOL     OW62071   5.518   3.432   2.012 -0.2025 -0.4535 -0.9064
16671SOL    HW162072   5.563   3.518   2.036 -2.3711  0.6775 -0.7344
16671SOL    HW262073   5.581   3.356   2.025  0.7339  0.7832  2.0733
16672SOL     OW62074   2.164   8.547   6.197 -0.3090 -0.2527  0.3074
16672SOL    HW162075   2.190   8.471   6.137  0.6358  0.7306 -0.5657
16672SOL    HW262076   2.115   8.616   6.143  1.6201  1.2048  0.3647
16673SOL     OW62077   0.543   7.772   9.580  0.1255  1.1913  0.2184
16673SOL    HW162078   0.501   7.684   9.600 -1.0328  0.7647 -3.6579
16673SOL    HW262079   0.629   7.780   9.630 -0.6276 -1.3258  2.0341
16674SOL     OW62080   9.126   6.629   9.265 -0.0426  0.3282  0.3317
16674SOL    HW162081   9.029   6.635   9.287  0.0757  0.2938  0.8682
16674SOL    HW262082   9.180   6.670   9.339  0.3483  0.3729  0.0241
16675SOL     OW62083   9.035   7.393   4.133 -0.0693 -0.0144 -0.2989
16675SOL    HW162084   9.106   7.348   4.079  0.2102  0.7623 -0.5748
16675SOL    HW262085   9.003   7.475   4.085 -1.0171 -0.2549 -0.0882
16676SOL     OW62086   3.039   2.567   2.685 -0.5440 -0.0829  0.0794
16676SOL    HW162087   3.055   2.622   2.603 -1.0639  0.4327  0.3250
16676SOL    HW262088   3.043   2.625   2.766 -0.3266 -0.5408  0.3986
16677SOL     OW62089   2.030   7.127   4.759  0.6115 -0.1739 -0.0839
16677SOL    HW162090   1.936   7.161   4.757  0.1342 -1.5035 -0.6879
16677SOL    HW262091   2.029   7.028   4.769  1.9801 -0.0308  1.8877
16678SOL     OW62092   0.902   1.460   4.812 -0.1605  0.1629 -0.2060
16678SOL    HW162093   0.818   1.508   4.786 -0.0787 -0.6594 -2.1171
16678SOL    HW262094   0.880   1.364   4.829  0.4358 -0.1476 -1.1236
16679SOL     OW62095   7.361   2.073   4.430  0.2285 -0.3198  0.6083
16679SOL    HW162096   7.269   2.106   4.451 -0.7427 -2.7021  0.1529
16679SOL    HW262097   7.397   2.123   4.351 -2.0281 -1.6694 -1.3404
16680SOL     OW62098   0.286   0.937   8.919  0.2803 -0.0670 -0.0663
16680SOL    HW162099   0.346   0.978   8.988  0.7549 -0.9008  0.0324
16680SOL    HW262100   0.265   0.843   8.945 -2.9386  0.9011  1.0713
16681SOL     OW62101   9.388   4.537   8.494  0.0950  0.6523  0.3995
16681SOL    HW162102   9.450   4.547   8.571  1.6997 -0.6565 -0.6984
16681SOL    HW262103   9.344   4.447   8.498  0.2416  0.5535 -0.2688
16682SOL     OW62104   7.578   3.690   2.524  0.6027 -0.0514  0.2423
16682SOL    HW162105   7.611   3.767   2.471  1.7002 -1.3061 -0.9458
16682SOL    HW262106   7.545   3.618   2.462 -1.9914  0.1094  1.3504
16683SOL     OW62107   2.005   3.576   7.780  0.3869 -0.1251  0.2097
16683SOL    HW162108   1.917   3.614   7.750  0.4694 -0.4158 -0.3978
16683SOL    HW262109   2.075   3.648   7.777  0.4209 -0.1826 -0.4098
16684SOL     OW62110   8.046   5.156   6.776 -0.1260  0.3033  0.0178
16684SOL    HW162111   8.125   5.103   6.744  0.0870 -0.7226  2.1605
16684SOL    HW262112   8.067   5.253   6.769 -0.0897  0.1296 -2.8907
16685SOL     OW62113   2.535   6.485   3.344  0.1040 -0.0393 -0.2866
16685SOL    HW162114   2.602   6.415   3.368 -0.3670 -0.5007 -0.2953
16685SOL    HW262115   2.447   6.441   3.323 -0.3030  0.5763  0.0934
16686SOL     OW62116   2.327   0.972   2.342 -0.1592  0.5492 -0.2252
16686SOL    HW162117   2.413   0.934   2.308  0.1962  0.7462  0.4492
16686SOL    HW262118   2.279   0.904   2.397 -1.3749 -0.2306 -2.1818
16687SOL     OW62119   3.012   5.301   7.103 -0.2785  0.2808 -0.3047
16687SOL    HW162120   3.062   5.381   7.136  0.1882  0.4726 -1.4575
16687SOL    HW262121   3.049   5.272   7.015 -0.8241 -0.8576 -0.1770
16688SOL     OW62122   7.762   8.122   7.236 -0.0951  0.2141  0.0800
16688SOL    HW162123   7.691   8.053   7.224 -0.5994  0.6919  0.2794
16688SOL    HW262124   7.821   8.124   7.156 -1.5299  1.2042 -0.9730
16689SOL     OW62125   7.486   5.106   0.525  0.3543 -0.0866 -0.4828
16689SOL    HW162126   7.532   5.165   0.590 -0.1817 -0.0474 -0.1352
16689SOL    HW262127   7.433   5.037   0.574 -0.8841  0.5745 -0.8548
16690SOL     OW62128   4.999   4.547   0.020 -0.0407 -0.0812 -0.3753
16690SOL    HW162129   4.939   4.470   0.040  1.0078 -1.2742 -1.7124
16690SOL    HW262130   5.023   4.547  -0.077  0.9848  1.1995 -0.1382
16691SOL     OW62131   9.423   2.504   4.936 -0.0262  0.1782 -0.0383
16691SOL    HW162132   9.411   2.548   5.025  1.0965 -0.2810  0.3478
16691SOL    HW262133   9.507   2.538   4.893 -0.3697  0.1248 -0.7663
16692SOL     OW62134   2.146   7.669   0.232 -0.3985 -0.5771  0.0292
16692SOL    HW162135   2.076   7.599   0.220 -1.1668 -0.0717  1.4534
16692SOL    HW262136   2.163   7.684   0.330  1.1058 -0.1074 -0.2844
16693SOL     OW62137   8.539   2.876   6.555  0.5436  0.0780  0.2679
16693SOL    HW162138   8.592   2.919   6.628 -0.6633 -0.1699  1.2996
16693SOL    HW262139   8.444   2.904   6.562  0.1892 -0.9034 -0.4846
16694SOL     OW62140   3.359   5.007   9.688  0.1651  0.2741  0.4404
16694SOL    HW162141   3.450   4.970   9.707 -0.6643 -2.4774 -0.7295
16694SOL    HW262142   3.366   5.082   9.623  1.5284 -0.5226 -0.3560
16695SOL     OW62143   4.790   3.081   5.174  0.3501 -0.5921  0.1184
16695SOL    HW162144   4.852   3.008   5.205  1.3803  1.1401  2.2999
16695SOL    HW262145   4.756   3.131   5.253 -3.3685 -1.0548 -1.0935
16696SOL     OW62146   3.636   0.547   4.230 -0.3185  0.0805  0.7495
16696SOL    HW162147   3.659   0.472   4.168 -1.3480 -0.8114  1.4360
16696SOL    HW262148   3.697   0.545   4.309 -0.1769  0.1189  0.6405
16697SOL     OW62149   8.718   7.433   5.060  0.1154  0.1539  0.0484
16697SOL    HW162150   8.761   7.360   5.114 -0.3625 -0.7307 -0.7487
16697SOL    HW262151   8.647   7.477   5.114  2.7852  2.4536  1.8385
16698SOL     OW62152   2.076   8.936   4.496  0.0905 -0.2086 -0.3625
16698SOL    HW162153   2.096   8.900   4.587 -1.3829 -0.6602 -0.2127
16698SOL    HW262154   2.002   8.883   4.454 -1.2423  1.8302 -0.6462
16699SOL     OW62155   9.673   1.440   8.261  0.3009  0.6829 -0.3989
16699SOL    HW162156   9.648   1.392   8.346  0.7201 -0.0930 -0.7030
16699SOL    HW262157   9.590   1.463   8.211  0.0175  1.7453  0.5374
16700SOL     OW62158   5.242   2.776   9.250 -0.0639 -0.4277  0.5357
16700SOL    HW162159   5.190   2.829   9.184 -1.2760 -0.5187  1.4049
16700SOL    HW262160   5.200   2.785   9.341 -0.3400 -2.9069  0.6918
16701SOL     OW62161   9.004   2.142   2.103  0.8921 -0.0038  0.0770
16701SOL    HW162162   8.905   2.152   2.093  1.1809  1.9162 -1.1102
16701SOL    HW262163   9.036   2.197   2.180  0.7746 -2.2743  1.7715
16702SOL     OW62164   3.292   7.289   0.307  0.0890  0.2747 -0.5865
16702SOL    HW162165   3.325   7.368   0.256  0.4666  0.4877 -0.0226
16702SOL    HW262166   3.265   7.217   0.243  1.0638  0.3344 -1.0767
16703SOL     OW62167   4.935   9.608   8.814  0.3198  0.4996  0.2054
16703SOL    HW162168   4.851   9.588   8.864  1.0109 -0.2783  1.0907
16703SOL    HW262169   4.929   9.699   8.773 -0.4312  0.9713  1.3515
16704SOL     OW62170   2.103   6.850   1.389  0.7306  0.2727  0.4540
16704SOL    HW162171   2.104   6.846   1.289 -0.4492 -1.2912  0.4886
16704SOL    HW262172   2.166   6.783   1.426  0.3643  0.1010  0.7681
16705SOL     OW62173   9.210   7.436   7.209  0.8182  0.2348  0.2643
16705SOL    HW162174   9.142   7.362   7.210 -0.1661  1.0236 -2.7731
16705SOL    HW262175   9.259   7.437   7.296 -0.5131 -2.7138  1.1244
16706SOL     OW62176   5.447   9.358   8.300  0.1228 -0.3650 -0.1613
16706SOL    HW162177   5.416   9.351   8.395 -0.6612  0.6658 -0.3320
16706SOL    HW262178   5.539   9.397   8.298 -1.0614  2.6595  0.0621
16707SOL     OW62179   9.194   0.337   0.071  0.2595 -0.1847 -0.3815
16707SOL    HW162180   9.177   0.396   0.150  0.8615 -0.2583 -0.1877
16707SOL    HW262181   9.165   0.383  -0.013 -1.5598 -0.6130 -0.0122
16708SOL     OW62182   0.717   9.372   0.326  0.0480  0.2192 -0.3084
16708SOL    HW162183   0.687   9.422   0.245  1.9866  1.0847 -0.5288
16708SOL    HW262184   0.787   9.305   0.299 -0.5640 -0.7115  0.3903
16709SOL     OW62185   3.069   1.157   9.785  0.5649  0.3310 -0.3694
16709SOL    HW162186   3.069   1.068   9.739 -1.3781  0.2410 -0.2564
16709SOL    HW262187   2.980   1.200   9.774  1.1660  1.8271  0.4428
16710SOL     OW62188   2.344   3.928   9.601 -0.0446  0.3789  0.1886
16710SOL    HW162189   2.313   3.871   9.524  0.6778  0.3368 -0.0808
16710SOL    HW262190   2.388   4.010   9.565  0.0958  0.4667  0.5641
16711SOL     OW62191   8.964   0.569   9.147 -0.4163  0.3539 -0.1003
16711SOL    HW162192   8.949   0.471   9.134 -1.3566  0.4298  0.3402
16711SOL    HW262193   9.045   0.598   9.096 -1.0363 -0.3351 -1.5011
16712SOL     OW62194   3.186   6.445   6.914  0.6450 -0.0527  0.0902
16712SOL    HW162195   3.267   6.472   6.966  2.1597  0.0363 -2.2537
16712SOL    HW262196   3.126   6.524   6.901  1.4270  0.4703 -0.3434
16713SOL     OW62197   2.034   1.155   5.341 -0.5569  0.1963 -0.5570
16713SOL    HW162198   1.937   1.181   5.343 -0.7149 -0.4288  0.5653
16713SOL    HW262199   2.040   1.055   5.337  0.0404  0.2350 -0.5320
16714SOL     OW62200   8.989   7.002   9.469  0.3749  0.3009  0.7830
16714SOL    HW162201   8.972   6.990   9.567 -0.1836  0.0945  0.6671
16714SOL    HW262202   8.920   6.952   9.417  0.2037  1.0333  0.2890
16715SOL     OW62203   1.269   8.102   2.765  0.1337 -0.0675  0.3314
16715SOL    HW162204   1.178   8.071   2.739 -0.1734  1.0755  0.0172
16715SOL    HW262205   1.326   8.023   2.788 -0.7919 -0.8143  0.0819
16716SOL     OW62206   7.125   2.106   1.803 -0.1103 -0.1959  1.4712
16716SOL    HW162207   7.158   2.089   1.710 -0.5208  0.7255  1.1598
16716SOL    HW262208   7.177   2.181   1.843 -0.7554  0.2089  1.5529
16717SOL     OW62209   0.125   9.851   6.652  0.8118  0.4896 -0.3271
16717SOL    HW162210   0.049   9.824   6.712  2.2255  0.4219  1.4580
16717SOL    HW262211   0.146   9.947   6.668  1.4299  0.3740 -0.4612
16718SOL     OW62212   8.819   3.547   5.035  0.2403  0.0687 -0.5479
16718SOL    HW162213   8.809   3.497   5.121  0.8663 -1.2541 -1.2360
16718SOL    HW262214   8.799   3.644   5.050 -1.6806 -0.5001  0.6414
16719SOL     OW62215   9.625   5.151   3.715 -0.0588  0.2125  0.6962
16719SOL    HW162216   9.698   5.219   3.717  0.6397 -0.4835 -0.3390
16719SOL    HW262217   9.665   5.059   3.717 -1.0188 -0.1876  2.9062
16720SOL     OW62218   0.806   6.466   8.542 -0.8154 -0.2228 -0.1476
16720SOL    HW162219   0.727   6.411   8.568 -0.7788 -0.3828 -0.3749
16720SOL    HW262220   0.842   6.434   8.455 -1.4961  0.9044 -0.8470
16721SOL     OW62221   9.608   1.260   7.295  0.1379  0.5542  0.2350
16721SOL    HW162222   9.628   1.277   7.199 -0.0164 -0.3229  0.0480
16721SOL    HW262223   9.510   1.270   7.312 -0.0955 -1.0329 -0.0714
16722SOL     OW62224   6.763   1.601   0.536  0.1191 -0.6061 -0.2142
16722SOL    HW162225   6.733   1.687   0.577 -0.2878 -0.7027 -0.3057
16722SOL    HW262226   6.684   1.553   0.498  0.4922 -0.4716 -1.1904
16723SOL     OW62227   0.410   9.405   4.084  0.3758  0.0853 -0.1682
16723SOL    HW162228   0.416   9.456   3.998  1.4456 -0.7624 -0.5968
16723SOL    HW262229   0.457   9.456   4.156  0.7248  0.0942 -0.4043
16724SOL     OW62230   1.240   8.906   9.350  0.3226 -0.1695 -0.9265
16724SOL    HW162231   1.271   8.832   9.290 -0.3596 -0.0461 -1.4369
16724SOL    HW262232   1.151   8.939   9.319  1.0437  1.5064 -1.2893
16725SOL     OW62233   9.721   8.020   6.263 -0.6145  0.1022 -0.1772
16725SOL    HW162234   9.786   8.090   6.292  1.1844 -0.9612 -1.6076
16725SOL    HW262235   9.637   8.065   6.230 -0.3960  1.4834  1.0748
16726SOL     OW62236   8.320   0.515   2.236  0.4413 -0.1074 -0.0158
16726SOL    HW162237   8.361   0.590   2.183  2.1329 -0.1534  1.1764
16726SOL    HW262238   8.356   0.518   2.329 -1.3319 -0.9554  0.7092
16727SOL     OW62239   8.956   2.973   0.729 -0.0959  0.4456 -0.1548
16727SOL    HW162240   8.877   2.950   0.671 -0.0762  0.2126 -0.0901
16727SOL    HW262241   9.040   2.957   0.678 -0.0516 -0.7020  0.2727
16728SOL     OW62242   2.264   7.172   7.869 -0.4308  0.0559 -0.0534
16728SOL    HW162243   2.185   7.131   7.822 -1.3094  0.9949  0.5678
16728SOL    HW262244   2.278   7.125   7.956  0.7350 -1.1960 -0.9064
16729SOL     OW62245   1.475   0.399   2.552 -0.3461  0.4110 -0.3854
16729SOL    HW162246   1.445   0.447   2.635  0.4702  0.4824 -0.1272
16729SOL    HW262247   1.559   0.441   2.518 -0.5193  0.1923 -1.0836
16730SOL     OW62248   7.988   3.291   7.910 -0.0598 -0.1570 -0.1083
16730SOL    HW162249   8.085   3.308   7.932  0.4495 -1.3693 -1.3462
16730SOL    HW262250   7.957   3.209   7.957 -0.7603  0.7321  1.0019
16731SOL     OW62251   0.987   7.191   3.230 -0.2932 -0.3350 -0.3937
16731SOL    HW162252   0.921   7.257   3.265 -0.6297 -0.4327 -0.8377
16731SOL    HW262253   0.993   7.113   3.293 -1.0208 -0.5913 -0.6416
16732SOL     OW62254   6.042   5.823   1.750 -0.4630 -0.6308 -0.1943
16732SOL    HW162255   6.040   5.901   1.813  1.5603 -1.0901  0.4925
16732SOL    HW262256   5.992   5.845   1.667  2.2527  2.3802 -1.0996
16733SOL     OW62257   8.958   7.478   5.758  0.0064 -0.1533 -0.4939
16733SOL    HW162258   8.914   7.391   5.783 -0.6298  1.0607  2.9549
16733SOL    HW262259   8.887   7.545   5.736  0.3983  0.0486 -1.1204
16734SOL     OW62260   4.021   5.403   1.349 -0.3246  0.0555  0.1525
16734SOL    HW162261   3.930   5.403   1.388 -0.3599 -1.6580  0.1117
16734SOL    HW262262   4.088   5.375   1.419 -0.4270 -3.3264 -1.0007
16735SOL     OW62263   1.996   4.122   1.959 -0.1247  0.3620 -0.0392
16735SOL    HW162264   1.990   4.026   1.933 -1.5441  0.1869  0.8730
16735SOL    HW262265   2.027   4.129   2.054 -0.8122  0.7738  0.1572
16736SOL     OW62266   4.288   3.813   7.640  0.0836 -0.0912  0.2485
16736SOL    HW162267   4.336   3.869   7.707  0.9542  1.1353 -1.3517
16736SOL    HW262268   4.355   3.758   7.589 -0.6901 -2.0179  1.2739
16737SOL     OW62269   3.256   7.663   0.693 -0.4208 -0.1359 -0.4888
16737SOL    HW162270   3.199   7.732   0.737 -0.0090 -1.9907  3.1401
16737SOL    HW262271   3.199   7.592   0.653 -0.7880 -1.0050  1.4881
16738SOL     OW62272   8.683   5.138   2.179  0.2362 -0.1741  0.1359
16738SOL    HW162273   8.713   5.213   2.120  1.3742 -0.0460  0.8643
16738SOL    HW262274   8.676   5.054   2.125 -2.2218  0.6702 -0.9630
16739SOL     OW62275   1.369   3.204   9.040  0.2347 -1.0995  0.7005
16739SOL    HW162276   1.418   3.128   8.997  0.6760  0.4127 -1.5933
16739SOL    HW262277   1.434   3.279   9.058 -0.8176  0.0790 -0.3267
16740SOL     OW62278   5.204   8.320   1.885  0.4212  0.1441 -0.0298
16740SOL    HW162279   5.175   8.401   1.936  2.2804  0.2818  0.8629
16740SOL    HW262280   5.215   8.243   1.947 -1.6019 -0.8958 -0.9209
16741SOL     OW62281   4.196   9.703   6.540 -0.1317  0.0859  0.0418
16741SOL    HW162282   4.164   9.680   6.632  1.6012 -0.9862  0.3852
16741SOL    HW262283   4.209   9.802   6.533  2.5558 -0.0744  1.9155
16742SOL     OW62284   6.085   0.650   4.777  0.2803 -0.4516 -0.0989
16742SOL    HW162285   6.055   0.601   4.858 -0.1508 -0.1122 -0.0522
16742SOL    HW262286   6.132   0.587   4.715  0.9696 -0.6262  0.5913
16743SOL     OW62287   8.498   5.236   6.642 -0.6213 -0.2652  0.3862
16743SOL    HW162288   8.524   5.163   6.705 -0.3708 -0.8316 -0.3795
16743SOL    HW262289   8.497   5.323   6.692 -0.1341 -0.6648  1.1079
16744SOL     OW62290   0.841   0.469   8.935 -0.2512  0.6848 -0.8285
16744SOL    HW162291   0.792   0.457   9.021  1.9067 -0.4643  0.2764
16744SOL    HW262292   0.818   0.395   8.873 -0.2856  0.4287 -0.5115
16745SOL     OW62293   8.806   4.727   4.162 -0.0815  0.5092  0.2590
16745SOL    HW162294   8.709   4.750   4.167  0.2083  1.5509  1.2120
16745SOL    HW262295   8.816   4.629   4.145 -1.3030  0.5410 -0.7261
16746SOL     OW62296   5.914   7.412   4.545  0.0029 -0.6994 -0.0977
16746SOL    HW162297   5.872   7.503   4.541  0.6013 -0.4558 -1.1275
16746SOL    HW262298   5.929   7.386   4.640  1.0469  0.8508  0.1827
16747SOL     OW62299   3.799   3.264   7.758  0.6721 -0.6238 -0.3002
16747SOL    HW162300   3.848   3.352   7.763  0.3374 -0.5338  1.6976
16747SOL    HW262301   3.717   3.275   7.702  0.0435  0.6528  0.8328
16748SOL     OW62302   8.994   3.490   4.838  0.1974  0.5633 -0.2562
16748SOL    HW162303   9.063   3.432   4.883  1.1718  1.5648 -0.4513
16748SOL    HW262304   8.926   3.518   4.906  2.1429  2.7903  0.8661
16749SOL     OW62305   0.532   4.367   4.587  0.1791 -0.0931  0.5290
16749SOL    HW162306   0.572   4.353   4.677 -0.1884 -0.1253  0.6885
16749SOL    HW262307   0.604   4.363   4.517  0.5440  0.4831  0.8699
16750SOL     OW62308   6.681   7.284   6.659  0.5618 -0.1253  0.6281
16750SOL    HW162309   6.606   7.347   6.640  0.6071 -0.3882 -0.4634
16750SOL    HW262310   6.764   7.319   6.615  0.9007 -0.2337  1.1843
16751SOL     OW62311   2.756   2.283   2.125 -0.7892 -0.2429 -0.3681
16751SOL    HW162312   2.829   2.291   2.057 -0.2621 -2.4791 -0.0929
16751SOL    HW262313   2.747   2.188   2.154 -2.0865  0.4193  1.5217
16752SOL     OW62314   0.101   3.608   3.574  0.2103 -0.1979  0.1792
16752SOL    HW162315   0.181   3.582   3.628  1.1177  1.2695 -0.4276
16752SOL    HW262316   0.103   3.707   3.557 -2.4255  0.0950  1.2780
16753SOL     OW62317   9.360   8.901   6.719  0.2572 -0.1452  0.3669
16753SOL    HW162318   9.440   8.957   6.698  0.3769 -0.9150 -1.3076
16753SOL    HW262319   9.281   8.935   6.668 -0.1943 -0.1433  1.0636
16754SOL     OW62320   4.406   2.872   7.063 -0.4403 -0.2403 -0.0655
16754SOL    HW162321   4.376   2.882   6.968 -1.2318 -0.8780  0.1141
16754SOL    HW262322   4.347   2.806   7.110  1.2526 -1.5584  0.2739
16755SOL     OW62323   2.828   6.693   4.028 -0.4899  0.1752 -0.0932
16755SOL    HW162324   2.777   6.668   4.111  0.7218 -1.3510  0.2042
16755SOL    HW262325   2.914   6.738   4.054  0.8531 -2.1337 -0.4531
16756SOL     OW62326   1.257   6.491   5.879  0.1421  0.0466 -0.2251
16756SOL    HW162327   1.244   6.525   5.786 -1.8409 -0.1875 -0.0597
16756SOL    HW262328   1.225   6.396   5.885  2.5823 -0.7982  0.1120
16757SOL     OW62329   3.402   1.021   9.207 -0.2896 -0.2787  0.1832
16757SOL    HW162330   3.468   1.093   9.229 -1.8231  1.1907  0.1196
16757SOL    HW262331   3.419   0.986   9.116  0.4476  0.0527  0.1938
16758SOL     OW62332   1.364   1.980   4.562  0.0390 -0.7983 -0.8509
16758SOL    HW162333   1.318   1.946   4.480 -1.3526 -2.0340  0.4130
16758SOL    HW262334   1.380   1.903   4.625  0.3275  0.2798  0.4078
16759SOL     OW62335   3.843   7.765   7.957  0.0603 -0.0403 -0.4388
16759SOL    HW162336   3.839   7.670   7.925  3.0490 -1.4218  2.9233
16759SOL    HW262337   3.930   7.806   7.930 -1.7039  2.2851 -2.9484
16760SOL     OW62338   3.699   3.798   6.529 -0.1145 -0.4835 -0.1982
16760SOL    HW162339   3.680   3.823   6.624 -0.2923 -0.7899 -0.1519
16760SOL    HW262340   3.716   3.881   6.475  0.2163 -0.3236  0.1488
16761SOL     OW62341   4.705   0.666   3.532 -0.3174 -0.1918 -0.9501
16761SOL    HW162342   4.676   0.732   3.602 -1.3873 -1.2136 -0.4219
16761SOL    HW262343   4.794   0.628   3.557 -0.2511  0.1655 -0.6354
16762SOL     OW62344   2.584   8.308   8.945  0.5169 -0.1234 -0.1759
16762SOL    HW162345   2.605   8.244   8.871  2.0598  1.2140 -0.9226
16762SOL    HW262346   2.485   8.322   8.950  0.3605 -0.6245 -1.6503
16763SOL     OW62347   3.657   9.896   1.913  0.1621  0.3106 -0.4396
16763SOL    HW162348   3.644   9.835   1.991  0.5643  0.0220 -0.5993
16763SOL    HW262349   3.666   9.842   1.830 -0.1892  0.6151 -0.6757
16764SOL     OW62350   2.203   1.978   1.559  0.1927  0.0683 -0.0203
16764SOL    HW162351   2.264   1.902   1.535 -0.4908 -0.6455  0.4442
16764SOL    HW262352   2.233   2.020   1.644 -0.5661 -0.9828  0.7867
16765SOL     OW62353   7.833   8.366   6.609 -0.4599 -0.3598  0.0917
16765SOL    HW162354   7.836   8.431   6.532 -0.2649 -0.9980 -0.4435
16765SOL    HW262355   7.916   8.310   6.608 -0.3349 -0.1887  0.9344
16766SOL     OW62356   6.709   7.645   8.255 -0.0061  0.1035  0.5311
16766SOL    HW162357   6.799   7.608   8.234 -1.3634 -2.7316 -0.5507
16766SOL    HW262358   6.663   7.586   8.322 -0.9998  1.6044  1.2082
16767SOL     OW62359   1.503   2.308   7.571  0.9906 -0.2087 -0.3448
16767SOL    HW162360   1.565   2.256   7.512 -0.2935 -0.8950 -1.1169
16767SOL    HW262361   1.516   2.406   7.555  1.4670 -0.3607 -0.9062
16768SOL     OW62362   8.687   0.389   0.020 -0.3073  0.2171 -0.1928
16768SOL    HW162363   8.780   0.356   0.037 -0.1929  0.2228 -0.8178
16768SOL    HW262364   8.634   0.384   0.105 -0.2653 -1.4777 -0.2471
16769SOL     OW62365   7.383   2.114   3.414 -0.0027 -0.0964  0.3846
16769SOL    HW162366   7.390   2.041   3.346  1.4838  0.7748 -0.4152
16769SOL    HW262367   7.295   2.161   3.403 -1.1318 -2.0002  1.1598
16770SOL     OW62368   6.879   5.199   9.833 -0.3381  0.2455  0.0576
16770SOL    HW162369   6.944   5.123   9.831 -0.8556 -0.1888 -0.7466
16770SOL    HW262370   6.792   5.169   9.792 -0.2468  1.5355 -1.1152
16771SOL     OW62371   4.172   5.617   9.276  0.3318  0.9244  0.2411
16771SOL    HW162372   4.255   5.672   9.288 -0.8078  2.8831 -0.5346
16771SOL    HW262373   4.106   5.669   9.223 -0.4955 -1.5554 -1.2294
16772SOL     OW62374   0.228   4.935   4.371  0.1870 -0.5115 -0.9701
16772SOL    HW162375   0.174   4.961   4.451  1.0805 -2.4888  0.2903
16772SOL    HW262376   0.237   5.015   4.311 -1.1751  0.7824  0.4750
16773SOL     OW62377   2.227   7.118   3.448  0.0106  0.0621  0.1225
16773SOL    HW162378   2.262   7.170   3.526 -0.2709 -1.6260  1.3855
16773SOL    HW262379   2.255   7.023   3.456 -0.4403 -0.2222 -1.5981
16774SOL     OW62380   3.776   4.976   5.072 -0.1729  0.0304 -0.0868
16774SOL    HW162381   3.832   5.057   5.054 -0.1207 -0.1122 -0.5798
16774SOL    HW262382   3.777   4.955   5.170  0.1725  0.3652 -0.0200
16775SOL     OW62383   5.964   9.622   6.572  0.7281  0.5158 -0.7135
16775SOL    HW162384   5.994   9.716   6.553  2.1354  0.1788 -0.1511
16775SOL    HW262385   6.023   9.558   6.523  0.5055 -0.1254 -0.1394
16776SOL     OW62386   0.791   0.542   2.824 -0.0528 -0.5715  0.3365
16776SOL    HW162387   0.869   0.602   2.807 -2.2396  1.8911 -1.2433
16776SOL    HW262388   0.798   0.461   2.765  1.3522 -0.4603  0.3238
16777SOL     OW62389   3.950   0.564   2.358  0.1361 -0.1910  0.0442
16777SOL    HW162390   4.020   0.528   2.296  0.8141  1.7071 -0.3131
16777SOL    HW262391   3.968   0.532   2.451  0.4175 -1.2049 -0.3558
16778SOL     OW62392   6.254   0.732   3.666 -0.4346  0.4301 -0.1333
16778SOL    HW162393   6.281   0.826   3.688  0.2212 -0.1304  1.4993
16778SOL    HW262394   6.273   0.672   3.744 -1.2097 -0.9983 -1.0146
16779SOL     OW62395   3.170   8.130   9.269 -0.0035  0.2803 -0.8078
16779SOL    HW162396   3.190   8.227   9.280  0.5562 -0.1262  2.2842
16779SOL    HW262397   3.251   8.083   9.233 -0.1846  0.9073 -2.0397
16780SOL     OW62398   7.169   9.264   8.032 -0.0082  0.2141  0.5081
16780SOL    HW162399   7.246   9.293   7.974  0.0391  1.0863  0.9878
16780SOL    HW262400   7.185   9.296   8.126 -0.7635  0.0483  0.6916
16781SOL     OW62401   5.621   9.844   2.400 -0.0521 -0.2466  0.0127
16781SOL    HW162402   5.598   9.768   2.461  0.6362 -0.9031 -0.5423
16781SOL    HW262403   5.627   9.928   2.454  3.0049 -1.2259  1.3398
16782SOL     OW62404   9.307   2.258   7.367  0.0121 -0.4878 -0.2228
16782SOL    HW162405   9.218   2.218   7.346  0.4716 -2.1627  0.9764
16782SOL    HW262406   9.378   2.188   7.363  0.8468  0.2135  1.7778
16783SOL     OW62407   0.600   7.785   1.980  0.1925 -0.7652  0.2060
16783SOL    HW162408   0.671   7.715   1.979  0.1518 -0.8059  0.0362
16783SOL    HW262409   0.529   7.759   2.045  0.5311 -0.5237  0.6710
16784SOL     OW62410   0.065   8.787   9.349 -0.0032 -0.6335 -0.0442
16784SOL    HW162411  -0.028   8.800   9.316  0.2058  1.4542  0.1185
16784SOL    HW262412   0.063   8.731   9.432 -0.6871 -4.3338 -2.4128
16785SOL     OW62413   8.767   2.241   5.949  0.4122 -0.5785  0.1551
16785SOL    HW162414   8.696   2.300   5.987  0.1345 -1.4173  0.9401
16785SOL    HW262415   8.850   2.295   5.933 -0.6937  0.6275 -1.7014
16786SOL     OW62416   1.173   0.058   1.291  0.0871 -0.1446  0.2151
16786SOL    HW162417   1.170   0.057   1.191  1.8821  1.5267  0.1107
16786SOL    HW262418   1.184  -0.036   1.324 -0.4276 -0.7086 -1.1391
16787SOL     OW62419   6.585   3.929   8.929  0.3357  0.2614 -0.0975
16787SOL    HW162420   6.613   3.838   8.899 -0.9272  0.4398 -1.9316
16787SOL    HW262421   6.573   3.930   9.028  2.2157 -1.0367  0.1569
16788SOL     OW62422   8.309   2.039   1.167  0.1250 -0.5993 -0.5855
16788SOL    HW162423   8.283   2.128   1.130 -0.3486 -1.1889 -1.7046
16788SOL    HW262424   8.352   1.984   1.096  1.6462 -0.7899  0.4430
16789SOL     OW62425   5.960   3.449   9.410 -0.0707 -0.4633 -0.3684
16789SOL    HW162426   6.029   3.395   9.460 -1.2314 -1.1263  0.5363
16789SOL    HW262427   5.870   3.433   9.450 -0.5674  1.4506 -0.6932
16790SOL     OW62428   5.480   9.092   6.885  0.0677  0.2111 -0.1829
16790SOL    HW162429   5.413   9.167   6.883  1.3165  1.4100  1.8135
16790SOL    HW262430   5.565   9.124   6.926  0.6692 -2.2966  0.6156
16791SOL     OW62431   8.878   7.828   6.582  0.4111  0.4001  0.3588
16791SOL    HW162432   8.908   7.883   6.505  1.0530  1.0359  1.0597
16791SOL    HW262433   8.889   7.731   6.560  0.3276  0.5703 -0.4494
16792SOL     OW62434   8.190   2.606   9.407  0.3779 -0.1227 -0.0314
16792SOL    HW162435   8.150   2.585   9.317  0.5260 -2.4942  0.4070
16792SOL    HW262436   8.135   2.563   9.479  0.7877  0.9699  0.9510
16793SOL     OW62437   5.656   5.144   8.832 -0.1644  0.4617 -0.7052
16793SOL    HW162438   5.678   5.046   8.824 -1.0008  0.3244 -1.4199
16793SOL    HW262439   5.623   5.178   8.744 -1.8109  0.8900  0.0451
16794SOL     OW62440   0.053   2.615   4.221 -0.1394 -0.5333 -0.5004
16794SOL    HW162441   0.084   2.522   4.244 -1.0898 -1.0109 -1.0970
16794SOL    HW262442  -0.030   2.635   4.273  0.5584  0.3243  0.2880
16795SOL     OW62443   9.708   6.551   6.225  0.4158  0.0619  0.2359
16795SOL    HW162444   9.610   6.565   6.213  0.4498 -0.2793 -0.4779
16795SOL    HW262445   9.728   6.529   6.321 -0.2558 -0.2913  0.2947
16796SOL     OW62446   4.364   7.944   6.865 -0.1315 -0.0460  0.6426
16796SOL    HW162447   4.312   8.024   6.837 -1.4128 -0.6880  1.1521
16796SOL    HW262448   4.452   7.972   6.902  1.2877  0.8955 -3.1928
16797SOL     OW62449   2.796   8.112   2.233  0.2113  0.0307  0.0744
16797SOL    HW162450   2.705   8.124   2.194  0.3440 -0.3824 -0.3629
16797SOL    HW262451   2.791   8.120   2.333 -0.1365  1.0233 -0.0202
16798SOL     OW62452   8.298   0.776   8.203  0.1468 -0.2730  0.0636
16798SOL    HW162453   8.245   0.814   8.279 -0.5397 -2.7451  0.8898
16798SOL    HW262454   8.387   0.822   8.198 -0.0868  0.4309  1.9101
16799SOL     OW62455   9.864   2.883   5.209 -0.4409  0.7376  0.1868
16799SOL    HW162456   9.896   2.844   5.296 -0.0342 -2.0220 -1.1410
16799SOL    HW262457   9.924   2.852   5.135 -3.1704 -0.3664 -1.6477
16800SOL     OW62458   3.639   9.390   5.589  0.4341 -0.0874 -0.2697
16800SOL    HW162459   3.722   9.425   5.547  0.3564  0.4990  0.0440
16800SOL    HW262460   3.573   9.466   5.599  0.4712 -0.2067  0.9345
16801SOL     OW62461   8.366   1.321   7.606  0.0677  0.0006  0.4663
16801SOL    HW162462   8.452   1.270   7.596 -0.0090 -0.2320  0.9684
16801SOL    HW262463   8.290   1.256   7.610 -0.1175  0.2009  0.1510
16802SOL     OW62464   5.453   3.004   8.332  0.1716  0.2356  0.4314
16802SOL    HW162465   5.418   2.935   8.396  0.6493 -1.0877 -0.7216
16802SOL    HW262466   5.435   3.095   8.369 -1.7061 -0.4680  1.3424
16803SOL     OW62467   9.270   0.307   2.049 -0.0473  0.0637  0.1877
16803SOL    HW162468   9.171   0.322   2.049  0.0821  0.9888 -0.1882
16803SOL    HW262469   9.296   0.252   2.129 -0.6817  1.1845  1.1858
16804SOL     OW62470   7.990   7.771   7.072  0.8765 -0.1547 -0.1951
16804SOL    HW162471   7.919   7.709   7.107  0.7804  0.8874  1.5387
16804SOL    HW262472   8.064   7.717   7.033 -0.1412 -1.3045 -0.5825
16805SOL     OW62473   9.524   7.573   0.031 -0.3430  0.1801  0.8816
16805SOL    HW162474   9.504   7.642  -0.038 -0.3419 -0.6294  0.0515
16805SOL    HW262475   9.499   7.483  -0.004  1.4148 -0.4571  1.1983
16806SOL     OW62476   5.856   3.905   1.596 -0.3646 -0.1097  0.5606
16806SOL    HW162477   5.954   3.897   1.611 -0.1434  0.7246 -0.4569
16806SOL    HW262478   5.823   3.823   1.549  0.1002  0.2662 -0.4208
16807SOL     OW62479   8.127   0.841   7.734 -0.3459 -0.1919 -0.3328
16807SOL    HW162480   8.214   0.843   7.784 -0.0501  0.1149 -0.8528
16807SOL    HW262481   8.060   0.789   7.786 -0.0374  0.1157  0.3750
16808SOL     OW62482   3.355   5.392   6.061  0.4337  0.6044  0.2083
16808SOL    HW162483   3.350   5.438   6.150  1.4185  1.6091 -0.2394
16808SOL    HW262484   3.340   5.459   5.988  1.8718  0.2198 -0.4531
16809SOL     OW62485   0.427   2.119   9.133  0.5320 -0.2219  0.0969
16809SOL    HW162486   0.421   2.058   9.212 -0.6846  1.1003  1.0540
16809SOL    HW262487   0.347   2.180   9.132  1.0482  0.4521 -1.5882
16810SOL     OW62488   1.686   7.827   7.493 -0.0114  0.1752 -0.3404
16810SOL    HW162489   1.725   7.865   7.577 -1.1179  2.1338 -0.6755
16810SOL    HW262490   1.594   7.794   7.510  0.1998 -0.5063 -0.5152
16811SOL     OW62491   3.191   3.353   7.605 -0.0755  0.0339 -0.6198
16811SOL    HW162492   3.254   3.418   7.647 -1.5160  1.2031 -0.2495
16811SOL    HW262493   3.150   3.394   7.523 -1.2968 -0.2600 -0.1591
16812SOL     OW62494   2.331   4.213   7.390  0.3281 -0.3947 -0.2934
16812SOL    HW162495   2.250   4.178   7.437 -0.3326  0.3621 -0.8525
16812SOL    HW262496   2.348   4.158   7.309 -1.1344  0.9527 -1.5693
16813SOL     OW62497   3.080   6.692   7.336  0.3774 -0.7185  0.2109
16813SOL    HW162498   3.040   6.602   7.319 -0.8872 -0.1454  0.1135
16813SOL    HW262499   3.027   6.739   7.407  0.4807  0.3128 -0.3797
16814SOL     OW62500   7.779   6.410   2.184  0.1296  0.9746  0.1887
16814SOL    HW162501   7.871   6.423   2.146 -0.5955  0.6178 -1.7772
16814SOL    HW262502   7.737   6.500   2.198  0.2125  1.1117 -0.3967
16815SOL     OW62503   4.554   3.192   1.520 -0.0190  0.5524  0.3960
16815SOL    HW162504   4.551   3.167   1.616  1.1043  0.9048  0.5253
16815SOL    HW262505   4.534   3.290   1.510  1.3222  0.8452  0.4199
16816SOL     OW62506   9.006   6.729   5.616 -0.6229 -0.2346 -0.5346
16816SOL    HW162507   9.103   6.716   5.595  0.3579 -0.2814  3.4887
16816SOL    HW262508   8.969   6.646   5.656 -1.6892  0.5144  0.0641
16817SOL     OW62509   1.849   7.672   6.212  0.7589 -0.2467 -0.2567
16817SOL    HW162510   1.868   7.728   6.131  0.7585 -0.8932 -0.7067
16817SOL    HW262511   1.768   7.708   6.259 -0.2838 -0.9265 -1.5217
16818SOL     OW62512   0.067   6.215   3.348 -0.0838 -0.7144  0.4559
16818SOL    HW162513   0.089   6.132   3.297 -0.1476  0.1148 -0.9403
16818SOL    HW262514  -0.008   6.263   3.304 -0.9734 -0.6098  2.0402
16819SOL     OW62515   3.825   6.743   9.699  0.2065  0.0084 -0.2573
16819SOL    HW162516   3.838   6.756   9.798 -0.9696  1.6529 -0.2919
16819SOL    HW262517   3.911   6.763   9.652  0.3163  0.8927  0.2987
16820SOL     OW62518   3.010   4.966   8.902  0.2797 -0.6570  0.5402
16820SOL    HW162519   3.100   4.933   8.931  0.4389 -0.3922  0.3570
16820SOL    HW262520   3.021   5.055   8.856 -0.1845 -0.1838  1.3486
16821SOL     OW62521   0.521   2.443   8.894 -0.6523  0.2259  0.2819
16821SOL    HW162522   0.558   2.448   8.801 -0.0519  2.7107  0.6048
16821SOL    HW262523   0.592   2.410   8.956 -0.6018 -0.0544  0.0743
16822SOL     OW62524   6.303   1.455   5.118 -0.1509 -0.9675 -0.3834
16822SOL    HW162525   6.283   1.357   5.107  0.7092 -1.2580  0.6163
16822SOL    HW262526   6.374   1.481   5.052 -3.1044 -0.1278 -3.3343
16823SOL     OW62527   1.708   9.923   0.546  0.2155 -0.0154 -0.0154
16823SOL    HW162528   1.717   9.969   0.457  1.2653 -0.5230 -0.1789
16823SOL    HW262529   1.694   9.825   0.532  1.1353 -0.2123  0.3835
16824SOL     OW62530   9.558   5.493   3.083  0.1260  0.2719 -0.4790
16824SOL    HW162531   9.594   5.457   2.997  1.3072 -3.3943  1.4413
16824SOL    HW262532   9.459   5.476   3.087  0.2914 -0.7266 -0.5530
16825SOL     OW62533   3.259   8.221   4.022 -0.6443  0.2536  0.0300
16825SOL    HW162534   3.295   8.150   4.082 -1.5970 -0.2526  0.0121
16825SOL    HW262535   3.265   8.191   3.927 -1.6483 -0.0802  0.0683
16826SOL     OW62536   6.934   5.619   9.777  0.1176 -0.3173 -0.1813
16826SOL    HW162537   6.836   5.611   9.796  0.4106  0.3061  1.6604
16826SOL    HW262538   6.985   5.623   9.863  1.8919 -1.8905 -1.1142
16827SOL     OW62539   6.397   1.278   3.716 -0.4126 -0.1269  0.3353
16827SOL    HW162540   6.492   1.292   3.744 -0.2860  0.2974 -0.2941
16827SOL    HW262541   6.393   1.255   3.618 -0.7685 -2.6289  0.8932
16828SOL     OW62542   2.125   2.335   6.731 -0.7258  0.0861  0.5042
16828SOL    HW162543   2.152   2.352   6.826  1.3196  1.5361 -0.3122
16828SOL    HW262544   2.056   2.403   6.703 -0.3445  0.4972  0.5512
16829SOL     OW62545   1.341   1.049   9.450  0.2130 -0.2682  0.1146
16829SOL    HW162546   1.407   1.111   9.494  2.3914 -0.4699 -2.7263
16829SOL    HW262547   1.371   1.030   9.356 -2.2535 -2.9286 -0.1869
16830SOL     OW62548   6.398   9.589   4.975  0.3292  0.4185 -0.0142
16830SOL    HW162549   6.460   9.647   4.922  0.4657  1.7892  1.5984
16830SOL    HW262550   6.411   9.607   5.072 -1.6063 -0.3012  0.4019
16831SOL     OW62551   3.893   1.813   6.120  0.2521 -0.8356 -0.0497
16831SOL    HW162552   3.833   1.885   6.085  0.0184 -1.3568 -0.7310
16831SOL    HW262553   3.838   1.739   6.158  0.4998 -0.4894  0.9852
16832SOL     OW62554   2.569   2.908   6.158 -0.6281 -0.1352  0.4001
16832SOL    HW162555   2.655   2.932   6.113 -1.1214  0.8835 -0.0141
16832SOL    HW262556   2.565   2.954   6.247 -0.0128 -1.4985  1.1328
16833SOL     OW62557   1.046   8.472   2.039 -0.3401  0.5006 -0.4879
16833SOL    HW162558   1.041   8.454   2.137 -0.4616  0.8896 -0.4247
16833SOL    HW262559   0.958   8.454   1.997 -0.3805  0.6620 -0.4720
16834SOL     OW62560   3.181   1.527   6.355 -0.3979 -0.0852  0.3970
16834SOL    HW162561   3.161   1.535   6.452  0.1322 -2.0724  0.6913
16834SOL    HW262562   3.233   1.443   6.338 -0.4582  0.2461 -1.5910
16835SOL     OW62563   9.718   5.160   9.494 -0.5294  0.3376  0.6321
16835SOL    HW162564   9.786   5.194   9.428  0.2737  0.8408  1.6908
16835SOL    HW262565   9.633   5.210   9.483  0.1924  1.7336  1.2083
16836SOL     OW62566   5.432   7.540   7.135 -0.6551 -0.1647  0.0651
16836SOL    HW162567   5.382   7.612   7.086 -2.7144  0.3035  2.7060
16836SOL    HW262568   5.373   7.460   7.145  0.0618 -0.5942  0.9165
16837SOL     OW62569   4.059   9.039   2.006  0.0192 -0.3380 -0.3064
16837SOL    HW162570   4.152   9.071   2.022 -0.6909  1.7705 -0.2196
16837SOL    HW262571   4.023   8.999   2.090  0.3379  0.1804  0.0829
16838SOL     OW62572   6.541   8.274   4.821 -0.1404 -0.0776 -0.7605
16838SOL    HW162573   6.466   8.299   4.760 -0.4762  1.4763  0.2488
16838SOL    HW262574   6.504   8.228   4.902 -0.0342  0.6857 -0.2634
16839SOL     OW62575   9.563   6.583   9.490  0.2676 -0.2337  0.3751
16839SOL    HW162576   9.643   6.632   9.455 -0.7716  0.0639 -1.6451
16839SOL    HW262577   9.573   6.485   9.470  0.7463 -0.3907  1.3484
16840SOL     OW62578   0.116   3.301   0.502 -0.1802 -0.1440  0.0532
16840SOL    HW162579   0.181   3.278   0.574 -0.0533 -0.7314 -0.2433
16840SOL    HW262580   0.152   3.271   0.413 -0.6852 -0.1347 -0.1593
16841SOL     OW62581   8.846   9.993   8.613 -0.6534 -0.0337 -0.2874
16841SOL    HW162582   8.939  10.001   8.578 -0.3219 -1.1871  0.3059
16841SOL    HW262583   8.809  10.084   8.632  0.4714  0.4119 -0.2214
16842SOL     OW62584   0.726   5.591   1.717  0.1214 -0.3242  0.3263
16842SOL    HW162585   0.664   5.515   1.737  0.4746 -0.3846  1.1829
16842SOL    HW262586   0.688   5.676   1.754 -0.9043  0.1550 -1.7383
16843SOL     OW62587   0.059   6.065   6.087  0.3169  0.4540 -0.6225
16843SOL    HW162588   0.044   6.104   6.178  1.7352  0.1821 -0.2611
16843SOL    HW262589  -0.001   5.986   6.074  0.8559 -0.1485  0.4907
16844SOL     OW62590   6.170   8.034   2.739  0.3186 -0.1999  0.3516
16844SOL    HW162591   6.128   8.118   2.704 -0.7391 -1.0559 -0.4791
16844SOL    HW262592   6.103   7.960   2.739  1.4088 -1.2202  0.4540
16845SOL     OW62593   8.824   3.160   5.598 -0.8593  0.0867 -0.1654
16845SOL    HW162594   8.882   3.125   5.671  0.1733  0.1686 -0.9333
16845SOL    HW262595   8.862   3.245   5.562 -3.3536  2.0403  1.6645
16846SOL     OW62596   3.407   3.862   9.245  0.2730  0.2776  0.0747
16846SOL    HW162597   3.490   3.806   9.246  0.1475  0.0696  2.2324
16846SOL    HW262598   3.329   3.805   9.271 -0.1706  0.9948  0.3275
16847SOL     OW62599   2.776   9.849   5.018  0.2245  0.1095  0.8935
16847SOL    HW162600   2.862   9.822   5.061  1.0530  1.3676  0.0861
16847SOL    HW262601   2.778   9.824   4.921  0.5561  1.9909  0.3906
16848SOL     OW62602   6.827   8.365   7.400 -0.5453 -0.3782  0.3675
16848SOL    HW162603   6.917   8.407   7.390 -0.9374 -0.2946 -3.4984
16848SOL    HW262604   6.803   8.360   7.497  2.6728  1.5542  1.3295
16849SOL     OW62605   9.359   0.381   6.334 -0.0560 -0.2066 -0.0637
16849SOL    HW162606   9.432   0.327   6.292  0.8175 -0.1427  1.3462
16849SOL    HW262607   9.360   0.367   6.433 -1.4122  0.4732  0.0541
16850SOL     OW62608   4.801   5.663   2.294 -0.3177  0.1924 -0.0504
16850SOL    HW162609   4.793   5.564   2.279 -0.4937  0.1709  0.1913
16850SOL    HW262610   4.819   5.680   2.391  1.3002  0.3047 -0.3612
16851SOL     OW62611   1.573   4.727   8.736  0.1893  0.1718  0.2265
16851SOL    HW162612   1.637   4.651   8.749 -0.9997 -0.6737  1.2927
16851SOL    HW262613   1.538   4.756   8.825 -1.0152  0.5146 -0.3537
16852SOL     OW62614   5.279   4.611   1.714  0.0274 -0.2078  0.5148
16852SOL    HW162615   5.192   4.573   1.747 -1.8872  2.3452 -1.3708
16852SOL    HW262616   5.323   4.662   1.788 -0.3679 -1.0280  1.3216
16853SOL     OW62617   5.417   4.235   8.148 -0.1602  0.2680  0.0825
16853SOL    HW162618   5.376   4.262   8.061  1.8802 -1.4824 -1.4591
16853SOL    HW262619   5.361   4.164   8.190  0.5272 -1.1778 -1.3832
16854SOL     OW62620   2.070   5.223   2.126  0.0246 -0.2846 -0.3163
16854SOL    HW162621   2.051   5.188   2.035 -1.8521  1.5986 -0.7079
16854SOL    HW262622   2.114   5.153   2.181  1.0306 -1.4935 -2.6177
16855SOL     OW62623   1.236   7.548   4.632  0.1006  0.2156  0.3393
16855SOL    HW162624   1.265   7.557   4.728  1.4707  2.8710 -0.2735
16855SOL    HW262625   1.317   7.552   4.573 -0.8370 -0.3491 -0.9898
16856SOL     OW62626   7.886   4.730   3.866  0.4605 -0.1354  0.5311
16856SOL    HW162627   7.870   4.633   3.852 -2.7763  0.5192 -0.7877
16856SOL    HW262628   7.857   4.756   3.958  1.3819 -0.4056  0.9048
16857SOL     OW62629   8.348   9.197   1.588 -0.1321  0.0600  0.0964
16857SOL    HW162630   8.435   9.147   1.596 -0.7987 -1.3625 -1.1860
16857SOL    HW262631   8.341   9.235   1.496 -0.6423  0.6107  0.3616
16858SOL     OW62632   9.107   4.395   8.591 -0.8128  0.2595 -0.5867
16858SOL    HW162633   9.193   4.345   8.578 -0.1616  1.0863  0.4744
16858SOL    HW262634   9.040   4.363   8.524 -0.2937 -1.7785 -0.1818
16859SOL     OW62635   8.396   9.535   5.884 -0.5822  0.4102 -0.6815
16859SOL    HW162636   8.477   9.585   5.912 -0.1472 -1.9334  2.5161
16859SOL    HW262637   8.315   9.574   5.930 -0.7672  0.4778 -1.0615
16860SOL     OW62638   0.981   6.774   6.551 -0.0018 -0.8488 -0.0215
16860SOL    HW162639   1.061   6.813   6.597  0.0584 -0.4145 -0.4833
16860SOL    HW262640   0.993   6.675   6.542  0.5498 -0.7717 -0.2034
16861SOL     OW62641   4.221   6.163   3.364  0.4452 -0.3388 -0.4713
16861SOL    HW162642   4.148   6.172   3.431 -1.1862  1.4839 -2.4207
16861SOL    HW262643   4.307   6.143   3.411 -0.8158  0.0485  2.0841
16862SOL     OW62644   3.533   0.408   9.605  0.2194  0.5016 -0.2530
16862SOL    HW162645   3.507   0.504   9.613 -0.6570  0.2103  0.4591
16862SOL    HW262646   3.632   0.400   9.605  0.2915  1.3815  0.0388
16863SOL     OW62647   5.840   2.058   5.109 -0.3940  0.4821 -0.0592
16863SOL    HW162648   5.895   2.083   5.029  1.0823  0.4684  0.9312
16863SOL    HW262649   5.861   1.963   5.134 -1.5503  0.1766 -0.1997
16864SOL     OW62650   3.078   5.399   8.964 -0.7253  0.2531  0.3243
16864SOL    HW162651   3.019   5.471   9.000 -1.3971  1.0216 -2.1921
16864SOL    HW262652   3.022   5.318   8.945 -0.6493  0.3395 -0.2866
16865SOL     OW62653   0.535   1.801  10.013  0.0521  0.1470 -0.5728
16865SOL    HW162654   0.565   1.886  10.058 -2.6227  0.1735  1.2916
16865SOL    HW262655   0.615   1.754   9.975  1.7953  2.6661 -0.1918
16866SOL     OW62656   2.621   1.737   6.543  0.1003 -0.3496 -0.1823
16866SOL    HW162657   2.567   1.665   6.587 -0.6812  0.9926  1.0753
16866SOL    HW262658   2.685   1.695   6.479 -2.1997 -2.0090 -1.4877
16867SOL     OW62659   2.878   0.090   9.038 -0.1091  0.7495 -0.0974
16867SOL    HW162660   2.811   0.035   8.988  1.1913  0.1598 -1.2300
16867SOL    HW262661   2.876   0.184   9.005 -0.8098  0.8768  0.3083
16868SOL     OW62662   2.116   2.817   4.273 -0.0690  0.0777  0.0897
16868SOL    HW162663   2.135   2.814   4.371 -0.8744  0.8270  0.2687
16868SOL    HW262664   2.044   2.752   4.251  0.0022  0.0245  0.0120
16869SOL     OW62665   3.295   2.360   8.393  0.0881 -0.1483  0.2210
16869SOL    HW162666   3.286   2.329   8.299  1.0090 -0.1878  0.1333
16869SOL    HW262667   3.205   2.365   8.436 -0.2995 -0.5102 -0.5376
16870SOL     OW62668   9.477   0.629   0.959  0.8824 -0.5123 -0.2750
16870SOL    HW162669   9.398   0.571   0.976 -0.2225  1.1576  0.3869
16870SOL    HW262670   9.532   0.589   0.885 -1.6948 -0.6151 -2.2006
16871SOL     OW62671   2.132   2.238   7.363  0.4524  0.8133  0.4210
16871SOL    HW162672   2.172   2.170   7.425  1.1676  1.1074  0.2785
16871SOL    HW262673   2.043   2.267   7.399 -0.4976 -1.2165 -0.2227
16872SOL     OW62674   2.036   5.523   2.523 -0.0772 -0.0952  0.3420
16872SOL    HW162675   2.095   5.454   2.482  1.5823  1.3311  0.2990
16872SOL    HW262676   2.041   5.516   2.622  0.6736  0.4579  0.3419
16873SOL     OW62677   9.765   2.874   2.179  0.5096 -0.3980  0.5471
16873SOL    HW162678   9.796   2.961   2.216  0.5891 -0.7535  1.3351
16873SOL    HW262679   9.842   2.810   2.175  0.4996 -0.3730 -0.2209
16874SOL     OW62680   3.987   3.909   5.588 -0.0624  0.2798  0.4089
16874SOL    HW162681   4.004   3.982   5.654 -0.1375  1.4911 -0.8824
16874SOL    HW262682   3.926   3.943   5.516  0.1256 -0.9711 -0.3516
16875SOL     OW62683   0.097   8.154   6.724  0.0843  0.4000 -0.3885
16875SOL    HW162684   0.088   8.061   6.760  0.8385  0.0418 -1.1061
16875SOL    HW262685   0.007   8.188   6.697 -0.1634 -0.2087 -0.3318
16876SOL     OW62686   0.355   9.794   5.268  0.9563 -0.0825  0.1396
16876SOL    HW162687   0.317   9.744   5.190 -0.1881  0.0085  0.6142
16876SOL    HW262688   0.406   9.731   5.327  1.4380 -0.2383 -0.4452
16877SOL     OW62689   6.039   3.610   2.237 -0.4360 -0.0304 -0.2531
16877SOL    HW162690   5.943   3.606   2.212 -0.2173  0.2603 -1.1603
16877SOL    HW262691   6.071   3.519   2.265 -1.4080  0.2127  1.7396
16878SOL     OW62692   2.136   4.164   3.382 -0.2754  1.2559 -0.2242
16878SOL    HW162693   2.072   4.227   3.425  0.8638  2.4289 -0.2479
16878SOL    HW262694   2.139   4.181   3.284  1.0779  2.0920 -0.0357
16879SOL     OW62695   0.948   7.542   4.612  0.1155 -0.2313  0.0091
16879SOL    HW162696   0.917   7.516   4.704  0.1352 -1.5910 -0.3620
16879SOL    HW262697   1.047   7.533   4.606  0.2143  0.7359  0.1253
16880SOL     OW62698   1.787   3.017   7.907  0.3125 -0.5000  0.5538
16880SOL    HW162699   1.863   3.071   7.944 -1.5196  2.1631  0.5628
16880SOL    HW262700   1.728   2.987   7.983  0.2540 -0.8370  0.3756
16881SOL     OW62701   8.708   8.256   2.967 -0.0887  0.2970  0.4968
16881SOL    HW162702   8.641   8.253   2.893  1.8660 -0.8547 -1.2307
16881SOL    HW262703   8.668   8.305   3.045 -2.3992  0.9191 -1.0357
16882SOL     OW62704   7.747   1.774   4.179  0.3121 -0.0467 -0.1639
16882SOL    HW162705   7.648   1.764   4.177  0.0426  2.4371 -0.3571
16882SOL    HW262706   7.772   1.852   4.236  2.0645  0.2829 -1.3318
16883SOL     OW62707   8.595   9.479   1.579 -0.2304  0.1448  0.4186
16883SOL    HW162708   8.662   9.428   1.525  0.1702 -0.4949  1.4918
16883SOL    HW262709   8.505   9.469   1.538 -0.0519 -0.9238  0.2563
16884SOL     OW62710   1.375   1.839   3.826 -0.4553 -0.2866 -0.2253
16884SOL    HW162711   1.445   1.855   3.757 -1.8427 -0.9712 -1.8291
16884SOL    HW262712   1.308   1.914   3.822  0.7499  0.9353  2.0301
16885SOL     OW62713   1.110   1.709   3.954 -0.1859 -0.4542 -0.5336
16885SOL    HW162714   1.021   1.723   3.910 -1.5354 -2.5457  1.3735
16885SOL    HW262715   1.176   1.773   3.916 -2.3189  0.6877 -2.5112
16886SOL     OW62716   8.322   2.966   9.420 -0.4120  0.7156 -0.0555
16886SOL    HW162717   8.397   3.030   9.402 -1.0423  2.0248  1.7727
16886SOL    HW262718   8.348   2.904   9.495 -0.4362 -0.0806 -0.7036
16887SOL     OW62719   2.613   7.936   3.386 -0.0340 -0.3247  0.0905
16887SOL    HW162720   2.607   7.930   3.287  1.3979 -0.1505 -0.0205
16887SOL    HW262721   2.565   8.017   3.419 -2.4259 -1.5506 -0.2387
16888SOL     OW62722   0.625   6.216   9.844 -0.4665 -0.3337  0.0345
16888SOL    HW162723   0.631   6.250   9.938  0.7811 -1.9243  0.5463
16888SOL    HW262724   0.566   6.277   9.791  0.4797  1.7575  1.3022
16889SOL     OW62725   1.309   4.389   9.242 -0.2314  0.2202 -0.3562
16889SOL    HW162726   1.228   4.353   9.289 -1.0354  0.4797 -1.5210
16889SOL    HW262727   1.366   4.439   9.307 -1.9961  1.7061  0.0701
16890SOL     OW62728   9.829   3.340   3.738  0.7544  0.4939  0.3858
16890SOL    HW162729   9.860   3.248   3.713  1.3131  1.3544 -2.2704
16890SOL    HW262730   9.856   3.404   3.667  0.0170  2.6672  2.0217
16891SOL     OW62731   2.789   0.028   5.782 -0.0598 -0.5941  0.8560
16891SOL    HW162732   2.726  -0.036   5.825  0.5303 -2.1829 -0.5860
16891SOL    HW262733   2.820  -0.009   5.694  0.3061  1.6731 -0.0118
16892SOL     OW62734   4.132   2.107   7.843  0.3575  0.1229  0.3178
16892SOL    HW162735   4.120   2.191   7.895  1.2905  1.1560 -1.0797
16892SOL    HW262736   4.067   2.105   7.766 -0.4700 -1.0108  1.0149
16893SOL     OW62737   7.286   8.797   3.443  0.1640  0.1983 -0.9327
16893SOL    HW162738   7.357   8.805   3.373 -2.3406  0.7154 -3.5454
16893SOL    HW262739   7.199   8.830   3.405 -1.2133  0.7925  2.5670
16894SOL     OW62740   4.473   7.476   3.827 -0.2135 -0.0375  0.4062
16894SOL    HW162741   4.465   7.564   3.873  0.9716  0.3719 -0.1661
16894SOL    HW262742   4.569   7.451   3.818 -0.3454  0.3906 -2.7788
16895SOL     OW62743   2.084   8.117   7.804  0.1674 -0.2476 -0.4338
16895SOL    HW162744   2.057   8.159   7.718 -0.4547  0.1005 -0.0700
16895SOL    HW262745   2.003   8.103   7.862  0.5528 -0.6578  0.0147
16896SOL     OW62746   8.761   2.205   3.850 -0.1921 -0.0040  0.9038
16896SOL    HW162747   8.859   2.226   3.842 -0.2358 -0.5841 -1.6544
16896SOL    HW262748   8.708   2.289   3.846  0.0697  0.1020 -0.7945
16897SOL     OW62749   4.032   3.381   6.138  0.2955  0.4028  0.2994
16897SOL    HW162750   4.035   3.448   6.063 -0.9662 -1.1653 -1.2006
16897SOL    HW262751   4.120   3.336   6.146  0.9978  1.8733  0.9845
16898SOL     OW62752   0.494   6.723   2.612  0.2049 -0.6556 -0.2136
16898SOL    HW162753   0.521   6.699   2.706  1.2414  0.5253 -0.2051
16898SOL    HW262754   0.559   6.685   2.547 -0.7792 -1.8873 -0.5076
16899SOL     OW62755   9.053   1.484   0.339 -0.5230  0.0464  0.1014
16899SOL    HW162756   9.002   1.461   0.422 -0.3196 -1.7352 -0.2482
16899SOL    HW262757   8.995   1.538   0.278 -1.2697 -0.1246  0.6542
16900SOL     OW62758   9.727   4.686   3.798  0.2941 -0.1322  0.2235
16900SOL    HW162759   9.761   4.657   3.888 -0.8186  0.9545  0.9938
16900SOL    HW262760   9.627   4.683   3.797  0.3202 -1.5684 -1.4658
16901SOL     OW62761   3.632   3.348   8.131  0.1356  0.4580  0.0993
16901SOL    HW162762   3.561   3.279   8.144 -0.8240  1.1383 -1.3444
16901SOL    HW262763   3.693   3.349   8.210 -0.7892 -0.9200  0.8507
16902SOL     OW62764   9.114   7.285   6.931  0.6822  0.4032  0.4342
16902SOL    HW162765   9.073   7.231   7.005  0.2404  0.7339  0.4347
16902SOL    HW262766   9.058   7.366   6.914  0.5485  0.1142 -0.5415
16903SOL     OW62767   6.869   8.643   8.275  0.1246  0.7334  0.0091
16903SOL    HW162768   6.933   8.575   8.312 -2.9396 -1.7316  1.0363
16903SOL    HW262769   6.836   8.611   8.186  1.0591  2.4810 -0.9767
16904SOL     OW62770   9.639   1.901   0.328  0.5127  0.0615 -0.5332
16904SOL    HW162771   9.549   1.871   0.295  0.6401  0.0768 -0.8923
16904SOL    HW262772   9.646   1.881   0.426 -0.0958  0.5757 -0.3786
16905SOL     OW62773   9.704   1.840   0.605  0.2272  0.0149 -0.6459
16905SOL    HW162774   9.666   1.771   0.666 -2.1873 -0.0368 -2.1376
16905SOL    HW262775   9.706   1.929   0.652  0.8002 -0.5030  0.3387
16906SOL     OW62776   6.604   4.018   2.725  0.0822  0.1231 -0.4992
16906SOL    HW162777   6.577   4.028   2.629 -0.0919 -1.7256 -0.6611
16906SOL    HW262778   6.586   4.103   2.774 -2.4939  0.1775 -1.4632
16907SOL     OW62779   3.488   7.828   1.813  0.7884  0.3394 -0.1315
16907SOL    HW162780   3.465   7.924   1.827 -2.9814 -0.3820 -0.7973
16907SOL    HW262781   3.476   7.778   1.899 -2.9988 -0.5080 -1.0500
16908SOL     OW62782   1.171   4.483   9.923  0.6204  0.1667  0.5585
16908SOL    HW162783   1.118   4.446   9.999  3.0825 -0.4120  2.0399
16908SOL    HW262784   1.233   4.413   9.888  0.2921  0.7653 -1.2784
16909SOL     OW62785   3.042   0.477   3.861 -0.0164 -0.5576  0.3380
16909SOL    HW162786   3.054   0.388   3.818  0.7160 -0.3005  0.0092
16909SOL    HW262787   3.105   0.486   3.939 -0.1022 -0.3392  0.3840
16910SOL     OW62788   2.395   1.453   3.587 -0.0113  0.2205 -0.0749
16910SOL    HW162789   2.362   1.516   3.657  0.9640  0.7908 -0.1222
16910SOL    HW262790   2.324   1.439   3.518 -0.3275  1.0684  0.0738
16911SOL     OW62791   3.550   6.881   0.492 -0.0657 -0.2421 -0.3039
16911SOL    HW162792   3.588   6.819   0.561  0.3509  0.2271 -0.1093
16911SOL    HW262793   3.452   6.890   0.506  0.2259  0.9416  1.0942
16912SOL     OW62794   9.205   0.467   9.680  0.5715  0.3836 -0.5095
16912SOL    HW162795   9.135   0.407   9.640  0.3821  0.2362  0.0258
16912SOL    HW262796   9.231   0.537   9.614 -0.2952  0.6124 -0.6109
16913SOL     OW62797   1.826   5.620   3.474 -0.2830  0.5051 -0.1103
16913SOL    HW162798   1.869   5.703   3.509 -1.4711 -0.3703  3.7114
16913SOL    HW262799   1.745   5.598   3.529 -0.9879 -2.2507 -2.1021
16914SOL     OW62800   1.038   4.471   6.229 -0.1685 -0.3974 -0.1550
16914SOL    HW162801   1.096   4.467   6.310 -2.1177  0.6186  1.3138
16914SOL    HW262802   1.032   4.379   6.188  2.2148 -0.5717 -0.1930
16915SOL     OW62803   5.120   0.139   2.707  0.0343 -0.4862 -0.4847
16915SOL    HW162804   5.197   0.190   2.745  1.7188 -1.4019 -2.5723
16915SOL    HW262805   5.069   0.096   2.782  0.9380  0.9656  1.0005
16916SOL     OW62806   9.475   4.944   5.935 -0.2824  0.1060  0.2635
16916SOL    HW162807   9.386   4.916   5.972 -0.5638  1.6424  0.8075
16916SOL    HW262808   9.528   4.988   6.007 -0.2691  1.8627 -0.7795
16917SOL     OW62809   3.491   5.572   9.142 -0.5258 -0.1028  0.1275
16917SOL    HW162810   3.574   5.567   9.198 -0.5676  0.9237  0.2824
16917SOL    HW262811   3.498   5.506   9.067  0.4750  0.0627  0.0677
16918SOL     OW62812   0.861   1.991   8.196  0.0120 -0.9540 -0.7794
16918SOL    HW162813   0.927   1.951   8.260 -1.2399  2.5445  2.8921
16918SOL    HW262814   0.778   1.936   8.194  0.2151 -1.3070  0.3376
16919SOL     OW62815   0.218   8.983   9.554 -0.1821 -0.4082  0.4267
16919SOL    HW162816   0.186   8.909   9.496 -1.1918 -0.5407  1.1441
16919SOL    HW262817   0.145   9.011   9.616  0.3451  0.8614  0.4963
16920SOL     OW62818   1.667   2.739   8.181 -0.8529 -0.3250  0.2083
16920SOL    HW162819   1.625   2.649   8.173 -0.2729 -0.8620  2.7388
16920SOL    HW262820   1.622   2.803   8.120 -2.9968 -1.7274  0.2905
16921SOL     OW62821   1.507   8.646   4.490 -0.1568  0.0459  0.4041
16921SOL    HW162822   1.431   8.582   4.484 -0.7193  0.7117  0.3072
16921SOL    HW262823   1.554   8.635   4.577  0.4258 -1.2351 -0.0622
16922SOL     OW62824   8.565   9.915   3.525  0.0599 -0.0298  0.1594
16922SOL    HW162825   8.639   9.981   3.526 -0.6963  0.8452 -0.8625
16922SOL    HW262826   8.596   9.830   3.483  0.7805 -0.0290  0.6892
16923SOL     OW62827   7.245   9.357   5.448 -0.3274 -0.3323  0.3806
16923SOL    HW162828   7.219   9.448   5.480  0.2457 -0.2436  0.5978
16923SOL    HW262829   7.174   9.321   5.388 -0.0207  0.7341 -0.6260
16924SOL     OW62830   4.599   8.783   9.500  0.4575 -0.4041 -0.4601
16924SOL    HW162831   4.560   8.710   9.443  3.1473 -0.7372 -1.9388
16924SOL    HW262832   4.581   8.872   9.457 -2.0935 -0.1875  0.9227
16925SOL     OW62833   0.528   2.664   9.110  0.4402  0.1105 -0.1733
16925SOL    HW162834   0.617   2.631   9.080  1.0053  1.0394  0.4712
16925SOL    HW262835   0.483   2.712   9.035 -0.4263 -2.1635 -1.1484
16926SOL     OW62836   2.726   9.402   9.789  0.3828 -0.3616  0.3674
16926SOL    HW162837   2.748   9.474   9.855 -0.6096  1.9393 -1.7265
16926SOL    HW262838   2.627   9.390   9.785  0.5090 -1.3663  0.1861
16927SOL     OW62839   4.839   9.997   5.403  0.0856  0.4294  0.5338
16927SOL    HW162840   4.783  10.061   5.456  1.2621  0.7430  1.4472
16927SOL    HW262841   4.876  10.043   5.323 -2.1524 -0.2007 -0.8897
16928SOL     OW62842   1.438   9.584   0.914 -0.2587 -0.0582  0.0578
16928SOL    HW162843   1.450   9.601   1.011  0.5946  0.4272 -0.1345
16928SOL    HW262844   1.402   9.666   0.870 -1.4148 -0.5249  0.0912
16929SOL     OW62845   6.845   2.400   1.614  0.4705  1.0327 -0.4728
16929SOL    HW162846   6.887   2.483   1.576  1.4730  0.7878  0.0736
16929SOL    HW262847   6.884   2.319   1.569  1.5383  0.7473  0.9000
16930SOL     OW62848   3.504   2.577   5.181 -0.0264  0.0256 -0.1062
16930SOL    HW162849   3.523   2.549   5.275  0.8690  0.9620  0.0005
16930SOL    HW262850   3.413   2.619   5.177  0.0007  0.1362  0.3846
16931SOL     OW62851   6.956   9.025   6.073  0.0429  0.1510  0.2101
16931SOL    HW162852   6.988   8.959   6.005  0.4538  1.0342 -0.4576
16931SOL    HW262853   6.871   9.067   6.042  1.6031  2.5000 -1.0416
16932SOL     OW62854   3.720   8.825   6.585 -0.3382  0.3426 -0.0440
16932SOL    HW162855   3.673   8.900   6.630  0.9485 -0.5829  3.0045
16932SOL    HW262856   3.655   8.773   6.530 -1.8399  1.9226  0.2063
16933SOL     OW62857   9.395   6.585   3.052  0.3857  0.2633  0.1702
16933SOL    HW162858   9.411   6.560   2.956 -2.3374 -0.4614 -0.1485
16933SOL    HW262859   9.451   6.527   3.111  1.5136  0.1905 -0.9432
16934SOL     OW62860   3.161   3.523   7.850 -0.2043  0.4119 -0.3018
16934SOL    HW162861   3.257   3.531   7.825  0.0792 -0.5940  0.4289
16934SOL    HW262862   3.151   3.526   7.949 -1.1343  2.4667 -0.4261
16935SOL     OW62863   9.818   6.612   6.549 -0.1881 -0.1263 -0.2661
16935SOL    HW162864   9.892   6.545   6.551 -0.6287 -0.6645 -1.3484
16935SOL    HW262865   9.854   6.701   6.519  0.7647  0.6399  2.9722
16936SOL     OW62866   0.922   7.660   4.232  0.6734  0.0532  0.5615
16936SOL    HW162867   0.874   7.742   4.263 -0.4602 -0.2243 -0.4120
16936SOL    HW262868   1.010   7.653   4.279  0.1860  1.0929  1.6631
16937SOL     OW62869   3.622   0.098   4.542  0.2481  0.6429  0.9371
16937SOL    HW162870   3.614   0.197   4.546  0.1505  0.7856 -1.7654
16937SOL    HW262871   3.689   0.067   4.609  1.5006  2.6978  0.6823
16938SOL     OW62872   0.581   2.910   7.885 -0.1883 -0.2335 -0.1517
16938SOL    HW162873   0.652   2.973   7.915 -0.2940 -0.0275 -0.3358
16938SOL    HW262874   0.546   2.859   7.964  0.2861 -0.4599 -0.0872
16939SOL     OW62875   5.032   2.269   0.694  0.1054 -0.3028 -0.3171
16939SOL    HW162876   4.940   2.230   0.692  0.1942 -0.4810 -3.1498
16939SOL    HW262877   5.026   2.369   0.683  0.1708 -0.0928  1.4297
16940SOL     OW62878   8.250   2.446   4.204 -0.4337 -0.6771 -0.0746
16940SOL    HW162879   8.183   2.413   4.269  0.1991 -2.8259 -0.4931
16940SOL    HW262880   8.221   2.423   4.111 -0.1523  0.2625 -0.4047
16941SOL     OW62881   7.845   8.269   5.290 -0.5507 -0.0349 -0.2967
16941SOL    HW162882   7.942   8.243   5.300 -0.3201  0.1429 -1.9492
16941SOL    HW262883   7.834   8.365   5.317 -0.4109 -0.2772  0.6370
16942SOL     OW62884   9.811   5.270   2.816  0.0769  0.0752  0.2755
16942SOL    HW162885   9.752   5.209   2.869  0.2902 -0.9231 -0.6142
16942SOL    HW262886   9.770   5.361   2.812  0.0396  0.1561  2.1014
16943SOL     OW62887   8.812   6.788   2.167  0.8450 -0.2753 -0.6428
16943SOL    HW162888   8.734   6.800   2.229  0.8986 -0.5074 -0.5283
16943SOL    HW262889   8.809   6.858   2.096 -0.0883 -0.9442 -1.2818
16944SOL     OW62890   2.670   5.729   9.754  0.2383 -0.5875 -0.2065
16944SOL    HW162891   2.661   5.779   9.841 -1.6214 -1.9985  0.4625
16944SOL    HW262892   2.631   5.784   9.681  0.1812 -0.1234  0.1688
16945SOL     OW62893   1.486   7.172   9.146  0.1035 -0.1545  0.1033
16945SOL    HW162894   1.556   7.151   9.078  0.1469 -0.0072  0.1048
16945SOL    HW262895   1.402   7.122   9.123 -0.1574  0.5629 -0.5449
16946SOL     OW62896   9.573   4.249   8.354 -0.2483  0.1846 -0.2836
16946SOL    HW162897   9.653   4.189   8.351  1.6643  2.5672  1.1097
16946SOL    HW262898   9.542   4.268   8.260  1.2648 -0.1586 -0.8634
16947SOL     OW62899   7.899   1.809   8.991 -0.2207 -0.2021 -0.4414
16947SOL    HW162900   7.813   1.828   9.037 -0.4591 -0.5532 -0.7452
16947SOL    HW262901   7.909   1.870   8.912 -0.0892 -0.0117 -0.2786
16948SOL     OW62902   2.482   0.549   6.853 -0.2787  0.2731  0.5566
16948SOL    HW162903   2.564   0.590   6.893 -0.2032  0.0977  0.5821
16948SOL    HW262904   2.506   0.464   6.806 -0.4827  0.0964  0.7710
16949SOL     OW62905   3.756   2.068   9.582  0.0888  0.6073  0.3079
16949SOL    HW162906   3.736   2.104   9.674 -0.9209  1.0069 -0.0567
16949SOL    HW262907   3.843   2.106   9.550  0.9656 -0.3506  1.5148
16950SOL     OW62908   6.706   8.155   3.167 -0.4673 -0.1781  0.8059
16950SOL    HW162909   6.782   8.125   3.224 -1.0090 -1.9446  0.6349
16950SOL    HW262910   6.703   8.255   3.164  0.5027 -0.0868  2.5908
16951SOL     OW62911   9.269   1.217   4.253  0.0590  0.0155 -0.6062
16951SOL    HW162912   9.170   1.231   4.253  0.0870  0.2631 -1.8524
16951SOL    HW262913   9.295   1.162   4.174  0.8244 -0.8328  0.2147
16952SOL     OW62914   3.422   7.690   5.827 -0.6246 -0.1064  0.0346
16952SOL    HW162915   3.516   7.662   5.845 -0.6192 -0.3651 -0.3940
16952SOL    HW262916   3.361   7.611   5.838 -0.5785 -0.3613 -1.4236
16953SOL     OW62917   7.823   4.528   0.780  0.4168  0.2645  0.1412
16953SOL    HW162918   7.840   4.590   0.857  1.0193 -1.0162  1.0520
16953SOL    HW262919   7.737   4.479   0.794  1.0995 -0.8259  0.5834
16954SOL     OW62920   5.344   5.369   2.179 -0.2246 -0.0024 -0.3204
16954SOL    HW162921   5.352   5.335   2.272  0.8152  0.5207 -0.2053
16954SOL    HW262922   5.408   5.321   2.119 -0.0595  0.4707 -0.5295
16955SOL     OW62923   3.323   9.907   1.781 -0.2653 -0.4574  0.9369
16955SOL    HW162924   3.399   9.846   1.799 -0.9622 -0.5516  3.9016
16955SOL    HW262925   3.239   9.854   1.768 -0.2383 -0.2635 -0.0836
16956SOL     OW62926   2.740   5.793   5.048  0.2233 -0.0150  0.0625
16956SOL    HW162927   2.802   5.828   4.978 -0.5259  1.3980  0.0739
16956SOL    HW262928   2.646   5.802   5.016 -0.0219 -1.2472  0.4284
16957SOL     OW62929   7.067   0.811   8.506 -0.0966  0.1272  0.3965
16957SOL    HW162930   6.990   0.874   8.508  0.7119  1.1549  0.0904
16957SOL    HW262931   7.076   0.772   8.415  0.9726  1.6012 -0.1575
16958SOL     OW62932   9.694   9.953   1.474  0.1769 -0.0871  0.4541
16958SOL    HW162933   9.684   9.993   1.384  0.8935 -0.0988  0.3683
16958SOL    HW262934   9.674  10.021   1.544  2.4897  0.7509  0.3284
16959SOL     OW62935   2.985   4.224   3.173  0.0302  0.1696 -0.0557
16959SOL    HW162936   2.981   4.279   3.089 -0.5110  0.2716  0.0323
16959SOL    HW262937   2.927   4.143   3.162  1.1103 -0.5805 -0.3195
16960SOL     OW62938   3.616   2.057   4.561  0.2895 -0.0852 -0.1292
16960SOL    HW162939   3.608   2.082   4.465  1.5520 -1.4443 -0.6027
16960SOL    HW262940   3.592   2.136   4.618  0.2676  0.9566 -1.5626
16961SOL     OW62941   3.760   7.114   8.750  0.1429  0.1342  0.0091
16961SOL    HW162942   3.684   7.145   8.806 -0.8893 -1.1893 -0.6436
16961SOL    HW262943   3.805   7.037   8.794  1.1207  0.9032  0.3886
16962SOL     OW62944   7.272   9.209   2.390  0.3944 -0.2967  0.6340
16962SOL    HW162945   7.221   9.218   2.475  0.3177  0.4040  0.5161
16962SOL    HW262946   7.275   9.297   2.343 -2.4505 -1.3474 -1.7004
16963SOL     OW62947   1.382   0.386   7.264  0.2561 -0.0510  0.3192
16963SOL    HW162948   1.348   0.401   7.172  0.9083 -0.8129 -0.0508
16963SOL    HW262949   1.456   0.450   7.284 -0.6731  0.9003  0.7444
16964SOL     OW62950   5.899   7.612   3.503  0.4746  0.1077 -0.3043
16964SOL    HW162951   5.809   7.586   3.538 -0.2098  2.5841 -0.1255
16964SOL    HW262952   5.957   7.639   3.580  0.1398  2.0971 -0.7331
16965SOL     OW62953   9.367   1.578   1.413 -0.3029  0.2901 -0.2392
16965SOL    HW162954   9.276   1.600   1.447  0.5678  0.3196  2.1934
16965SOL    HW262955   9.362   1.499   1.351 -1.8965 -0.0148  0.2706
16966SOL     OW62956   4.739   4.020   7.346 -0.3520  0.2001  0.1403
16966SOL    HW162957   4.821   3.980   7.304 -0.3097 -0.3672  0.7671
16966SOL    HW262958   4.752   4.119   7.355  0.1924  0.1403  0.0589
16967SOL     OW62959   1.435   1.196   7.980  0.2381 -0.1567 -0.1369
16967SOL    HW162960   1.342   1.163   7.968 -0.1371  0.9828 -0.4706
16967SOL    HW262961   1.496   1.119   7.996 -1.0329 -0.8036  1.8409
16968SOL     OW62962   0.384   5.414   0.757 -0.2802 -0.6410 -0.5068
16968SOL    HW162963   0.318   5.461   0.698 -1.2398 -0.1718  0.9093
16968SOL    HW262964   0.388   5.317   0.732 -0.3516 -0.3683 -1.6105
16969SOL     OW62965   9.064   8.675   1.504 -0.5536 -0.2570  0.6072
16969SOL    HW162966   9.065   8.709   1.598 -0.0128  1.3926  0.0254
16969SOL    HW262967   8.973   8.686   1.465  0.1416  2.6610 -0.3050
16970SOL     OW62968   0.765   0.544   6.926  0.0757  0.0247 -1.1140
16970SOL    HW162969   0.751   0.446   6.942 -1.0639  0.5219  1.1281
16970SOL    HW262970   0.859   0.568   6.947 -0.1945 -0.2073  0.4118
16971SOL     OW62971   1.146   2.724   9.876  0.2783 -0.3691 -0.0225
16971SOL    HW162972   1.183   2.766   9.959 -0.2768  0.4476 -0.1868
16971SOL    HW262973   1.126   2.795   9.808 -0.4318 -0.9168 -0.3904
16972SOL     OW62974   1.734   6.809   9.225  0.2453 -0.2290  0.2263
16972SOL    HW162975   1.678   6.796   9.143 -0.3889  0.7259  0.5051
16972SOL    HW262976   1.776   6.900   9.222 -1.0136  0.4040  1.7200
16973SOL     OW62977   0.054   4.529   7.820  1.1886  0.1544  0.5326
16973SOL    HW162978  -0.044   4.543   7.804  1.2230 -1.7979 -1.5975
16973SOL    HW262979   0.085   4.592   7.891 -1.3976  1.4913  0.5454
16974SOL     OW62980   9.165   5.049   6.958 -0.2161 -0.3593 -0.0812
16974SOL    HW162981   9.069   5.072   6.971 -0.4047 -1.6731  1.0275
16974SOL    HW262982   9.175   4.996   6.873 -0.0208  2.2539 -1.7317
16975SOL     OW62983   8.898   1.722   6.260 -0.4000 -0.5530  0.2353
16975SOL    HW162984   8.837   1.774   6.201  0.2398 -1.1064 -0.9186
16975SOL    HW262985   8.960   1.784   6.307  0.8915 -0.3022 -1.7373
16976SOL     OW62986   3.997   9.982   0.556  0.1191 -0.0382 -0.6067
16976SOL    HW162987   4.056   9.905   0.578 -0.1952 -0.2896 -0.6411
16976SOL    HW262988   3.902   9.957   0.571 -0.0172  0.1840 -1.0726
16977SOL     OW62989   0.876   5.821   2.720  0.1936 -0.5167  0.0970
16977SOL    HW162990   0.874   5.917   2.747  1.0113  0.0065 -1.5793
16977SOL    HW262991   0.969   5.798   2.691 -0.1562 -1.6210 -0.1495
16978SOL     OW62992   9.773   2.929   4.211  0.2072 -0.1784  0.3416
16978SOL    HW162993   9.840   2.966   4.146 -0.7353  0.4446 -0.2951
16978SOL    HW262994   9.695   2.991   4.217 -1.7866 -2.4030 -1.3445
16979SOL     OW62995   3.525   3.035   9.203 -0.4480 -0.5682  0.2287
16979SOL    HW162996   3.445   3.040   9.262  1.1992  0.6287  2.4415
16979SOL    HW262997   3.566   3.126   9.195  0.0802 -0.9645 -1.7489
16980SOL     OW62998   8.316   0.347   3.953  0.4465  0.6300 -0.4126
16980SOL    HW162999   8.220   0.377   3.953 -0.0873 -0.8888  2.7053
16980SOL    HW263000   8.375   0.426   3.970 -0.4143  1.2215 -0.1267
16981SOL     OW63001   8.283   5.707   0.996  0.7578  0.7924 -0.5940
16981SOL    HW163002   8.331   5.758   1.067  0.5014 -0.3312  0.3960
16981SOL    HW263003   8.348   5.678   0.926  1.2754  0.5191  0.0007
16982SOL     OW63004   8.644   7.420   9.279 -0.3606 -0.0327  0.2071
16982SOL    HW163005   8.682   7.374   9.199 -0.5197  3.5246 -2.0619
16982SOL    HW263006   8.578   7.360   9.324  0.1555 -2.3476 -1.9879
16983SOL     OW63007   3.419   5.893   0.565 -0.1044 -0.0070  0.1526
16983SOL    HW163008   3.341   5.873   0.506 -1.0134  1.9034  0.6566
16983SOL    HW263009   3.410   5.843   0.651  0.3949 -1.5348 -0.6695
16984SOL     OW63010   5.630   7.691   5.626  0.1362 -0.0399 -0.4030
16984SOL    HW163011   5.586   7.642   5.551  0.4599  1.6292 -1.7219
16984SOL    HW263012   5.660   7.781   5.594 -0.2098  0.9272  1.8620
16985SOL     OW63013   2.011   5.881   5.925  0.5650 -0.1643 -0.0996
16985SOL    HW163014   2.083   5.818   5.951  0.1633 -1.0214 -1.0797
16985SOL    HW263015   2.017   5.963   5.982  1.1087 -1.0580  1.1509
16986SOL     OW63016   0.113   0.834   6.154 -0.1982 -0.1564  0.5880
16986SOL    HW163017   0.136   0.918   6.104  1.1916 -0.7062  0.2669
16986SOL    HW263018   0.198   0.788   6.182 -0.9434  0.2998  3.7492
16987SOL     OW63019   2.096   4.425   5.909  0.1523 -0.3677 -0.4364
16987SOL    HW163020   2.052   4.492   5.968 -0.5897  0.8025 -2.2576
16987SOL    HW263021   2.047   4.338   5.915  0.4479 -0.4362  1.0987
16988SOL     OW63022   9.413   5.392   5.260  0.5718 -0.0054 -0.0444
16988SOL    HW163023   9.441   5.344   5.344 -1.5304  0.8966  1.2282
16988SOL    HW263024   9.451   5.346   5.181  4.1790  0.1747  1.4640
16989SOL     OW63025   1.966   0.721   3.335  0.5359  0.7007  0.0173
16989SOL    HW163026   1.981   0.815   3.366 -1.0841  1.1582 -0.5465
16989SOL    HW263027   1.885   0.717   3.276 -0.0255 -1.2132  0.8485
16990SOL     OW63028   5.206   2.683   5.441 -0.2833 -0.8666 -0.0363
16990SOL    HW163029   5.217   2.782   5.431 -0.1047 -0.7030  1.7164
16990SOL    HW263030   5.163   2.646   5.358  0.9058  0.4653 -1.2841
16991SOL     OW63031   4.196   9.452   5.570  0.0079 -0.6259  0.4155
16991SOL    HW163032   4.180   9.526   5.635 -0.4746 -0.7071  0.3915
16991SOL    HW263033   4.267   9.390   5.607  1.1338  0.3853 -0.0158
16992SOL     OW63034   5.879   3.882   9.500 -0.4537  0.7809 -0.2180
16992SOL    HW163035   5.937   3.861   9.578 -1.1478 -1.4343 -0.2647
16992SOL    HW263036   5.936   3.903   9.420  0.3019 -0.9710 -0.1553
16993SOL     OW63037   7.075   1.501   0.823 -0.2790  0.3431 -0.6723
16993SOL    HW163038   7.172   1.512   0.799  0.0498 -2.0775 -0.6299
16993SOL    HW263039   7.047   1.407   0.802 -2.1292  0.5052  1.0189
16994SOL     OW63040   7.467   5.404   1.201 -0.0284  0.1720  0.1994
16994SOL    HW163041   7.521   5.413   1.118  1.2401 -4.2944  0.3923
16994SOL    HW263042   7.370   5.400   1.178  0.3184 -1.1677 -1.1128
16995SOL     OW63043   0.671   8.684   9.525  0.1891 -0.2950  0.0741
16995SOL    HW163044   0.730   8.629   9.584  0.4986  0.4933  0.5080
16995SOL    HW263045   0.576   8.653   9.534  0.2807 -0.3877  0.7511
16996SOL     OW63046   4.545   3.890   4.141  0.3027  0.0213 -0.3473
16996SOL    HW163047   4.555   3.801   4.096  0.6133 -0.5755  0.9065
16996SOL    HW263048   4.518   3.877   4.236 -0.3880  1.2954 -0.3584
16997SOL     OW63049   9.545   8.777   3.619  0.2709  0.3464 -0.1391
16997SOL    HW163050   9.625   8.748   3.567 -0.0734  0.1864 -0.5857
16997SOL    HW263051   9.462   8.754   3.568 -0.0260  1.9290 -0.4125
16998SOL     OW63052   2.426   0.878   0.134 -0.3747  0.3301 -0.3894
16998SOL    HW163053   2.389   0.960   0.178 -2.8246 -1.1691  0.4705
16998SOL    HW263054   2.364   0.848   0.062  2.3331  1.2712 -3.2024
16999SOL     OW63055   9.854   6.653   9.100  0.8981  0.1898  0.2017
16999SOL    HW163056   9.821   6.724   9.038  1.8679  0.1839 -0.3252
16999SOL    HW263057   9.858   6.566   9.050 -0.6182 -0.3165  0.9311
17000SOL     OW63058   3.069   1.732   1.182  0.1047  0.6905 -0.0443
17000SOL    HW163059   3.021   1.748   1.268 -0.1661 -2.3423  0.4414
17000SOL    HW263060   3.163   1.703   1.202  0.6762  2.0005 -0.8342
17001SOL     OW63061   2.213   6.363   1.021  0.3339 -0.3606  0.3199
17001SOL    HW163062   2.298   6.323   0.987  0.7579  0.7393  0.0770
17001SOL    HW263063   2.136   6.303   0.997  1.0012 -1.1788  0.2313
17002SOL     OW63064   5.288   7.228   3.788  0.2566 -0.8652  0.1718
17002SOL    HW163065   5.222   7.301   3.771  1.5102  0.2832  0.1200
17002SOL    HW263066   5.291   7.206   3.885  1.0617  0.3318  0.4321
17003SOL     OW63067   1.774   8.645   9.887 -0.0700  0.2872  0.3635
17003SOL    HW163068   1.860   8.609   9.851  0.1628 -0.3616  1.5543
17003SOL    HW263069   1.794   8.720   9.950 -0.4504  1.0807 -0.4520
17004SOL     OW63070   5.434   6.503   0.870  0.2716 -0.3238 -0.5181
17004SOL    HW163071   5.499   6.440   0.827 -1.3312 -1.5294 -1.2346
17004SOL    HW263072   5.362   6.451   0.915  0.5874  0.9757  1.5522
17005SOL     OW63073   2.751   3.825   1.049  0.5898 -0.2921 -0.0969
17005SOL    HW163074   2.766   3.766   0.970  0.2974 -1.9770  1.0800
17005SOL    HW263075   2.654   3.850   1.054  0.4143 -1.0653  0.3403
17006SOL     OW63076   7.645   3.012   1.198  0.0485 -0.1637 -0.2252
17006SOL    HW163077   7.657   3.026   1.100 -0.4515  0.0001 -0.2678
17006SOL    HW263078   7.661   2.916   1.221 -0.3874 -0.3190 -0.5579
17007SOL     OW63079   0.271   3.763   7.281 -0.7770  0.0147  0.3945
17007SOL    HW163080   0.281   3.665   7.299 -1.9225 -0.1563  0.1110
17007SOL    HW263081   0.272   3.812   7.368 -2.2571 -0.4450  0.6792
17008SOL     OW63082   8.864   8.710   0.565  0.6850 -0.5217 -0.2561
17008SOL    HW163083   8.850   8.626   0.617  1.7804 -0.9177 -0.5861
17008SOL    HW263084   8.962   8.725   0.552  0.4811  0.5761 -0.5759
17009SOL     OW63085   6.626   3.319   9.260 -0.7481  0.8216 -0.0320
17009SOL    HW163086   6.557   3.349   9.325 -1.4171  3.0939 -1.7380
17009SOL    HW263087   6.697   3.389   9.251  0.6713 -0.5565  0.0958
17010SOL     OW63088   2.144   2.303   4.172 -0.4390 -0.0201  0.4906
17010SOL    HW163089   2.118   2.372   4.105  1.2368  1.3880  1.2353
17010SOL    HW263090   2.063   2.272   4.221 -1.1428  1.9936  0.6701
17011SOL     OW63091   4.843   2.859   9.117 -0.8415 -0.0127 -0.5087
17011SOL    HW163092   4.851   2.827   9.211  0.1554  1.6670  0.0097
17011SOL    HW263093   4.842   2.781   9.055  0.0116 -1.0898  0.7966
17012SOL     OW63094   9.331   7.307   5.716 -0.1839  0.0542 -0.1159
17012SOL    HW163095   9.288   7.370   5.651 -0.9299  0.5597  0.8455
17012SOL    HW263096   9.430   7.320   5.714 -0.3356  1.4290  0.2042
17013SOL     OW63097   7.492   7.319   5.514 -0.0377  0.6530 -0.3276
17013SOL    HW163098   7.495   7.247   5.446  1.5653  0.6353 -0.2615
17013SOL    HW263099   7.423   7.298   5.583 -0.3440 -0.2515 -0.9096
17014SOL     OW63100   3.625   3.381   1.412  0.0958  0.6810 -0.7982
17014SOL    HW163101   3.662   3.431   1.491  2.9532  1.5628 -2.6376
17014SOL    HW263102   3.548   3.432   1.374  1.6801  2.6694 -1.4030
17015SOL     OW63103   8.544   7.744   7.576 -0.6462 -0.3787  0.3107
17015SOL    HW163104   8.624   7.699   7.616 -0.3562 -0.4181 -0.3066
17015SOL    HW263105   8.493   7.678   7.522  1.1641  0.5826 -2.7025
17016SOL     OW63106   2.978   6.269   7.706 -0.2499 -0.2134 -0.3854
17016SOL    HW163107   3.028   6.287   7.791  0.9025  3.4576 -1.7571
17016SOL    HW263108   3.042   6.236   7.636 -0.9219 -1.6982 -0.3183
17017SOL     OW63109   2.313   5.862   6.073 -0.5993  0.1975  0.0632
17017SOL    HW163110   2.385   5.891   6.010 -0.2665  0.8987  0.7564
17017SOL    HW263111   2.275   5.942   6.119 -0.7629 -0.3216  0.8330
17018SOL     OW63112   6.465   1.819   0.035 -0.2453  0.0741  0.2684
17018SOL    HW163113   6.394   1.872   0.082 -0.4821 -1.7728  2.0472
17018SOL    HW263114   6.424   1.771  -0.043 -1.0892 -1.3171  1.5306
17019SOL     OW63115   0.979   2.960   0.405 -0.1322  0.2090 -0.4159
17019SOL    HW163116   1.018   2.888   0.347  0.0456 -0.6235  0.7154
17019SOL    HW263117   0.880   2.961   0.394 -0.2294 -0.8461  0.2527
17020SOL     OW63118   2.924   8.667   0.679  0.3025  0.2008  0.0189
17020SOL    HW163119   2.993   8.681   0.751  0.3478  0.0210  0.0114
17020SOL    HW263120   2.835   8.649   0.721  0.2249  0.6035  0.0282
17021SOL     OW63121   8.663   5.090   4.093  0.2575 -0.3593  0.3220
17021SOL    HW163122   8.627   5.159   4.156  0.8956  0.9272 -0.7193
17021SOL    HW263123   8.763   5.090   4.097  0.2826 -0.6618 -0.2906
17022SOL     OW63124   3.040   0.242   3.740 -0.3214  0.5959 -0.3951
17022SOL    HW163125   2.951   0.257   3.696 -0.9059  1.1789  0.9604
17022SOL    HW263126   3.093   0.177   3.686 -2.4401 -1.4888 -0.0859
17023SOL     OW63127   4.787   3.399   5.184 -0.0763  0.0595 -0.1151
17023SOL    HW163128   4.805   3.306   5.153  0.6724  0.7725 -1.9071
17023SOL    HW263129   4.689   3.419   5.172  0.0034 -0.0545 -0.9539
17024SOL     OW63130   7.891   4.541   8.000  0.1705 -0.2757 -0.0261
17024SOL    HW163131   7.796   4.508   8.001  0.0991 -0.2079 -1.7547
17024SOL    HW263132   7.953   4.462   7.998  0.0849 -0.3350 -0.7553
17025SOL     OW63133   1.772   2.871   3.131 -0.1731  0.5181 -0.4908
17025SOL    HW163134   1.794   2.892   3.036  0.3736  1.2541 -0.2073
17025SOL    HW263135   1.780   2.954   3.186 -2.1232  0.4584 -0.0872
17026SOL     OW63136   3.297   7.198   6.460  0.1204 -0.4859  0.2448
17026SOL    HW163137   3.331   7.283   6.419  0.5184 -0.1374  1.2771
17026SOL    HW263138   3.247   7.220   6.544 -0.3772 -1.2193  0.1443
17027SOL     OW63139   8.175   8.183   0.526  0.0768 -0.5025 -1.0077
17027SOL    HW163140   8.116   8.151   0.452  0.2835 -2.1688 -0.4783
17027SOL    HW263141   8.132   8.261   0.572 -1.2571 -1.0763 -1.2568
17028SOL     OW63142   4.589   1.288   9.539 -0.8535 -0.2950  0.3752
17028SOL    HW163143   4.685   1.311   9.552 -0.9890  0.2305  0.4441
17028SOL    HW263144   4.578   1.188   9.541 -0.2873 -0.3622  0.1960
17029SOL     OW63145   4.385   2.590   2.369  0.4024 -0.0477  0.0006
17029SOL    HW163146   4.359   2.603   2.465 -0.9578  0.7717 -0.4613
17029SOL    HW263147   4.371   2.495   2.343  2.1858 -0.6118  1.0158
17030SOL     OW63148   8.241   5.474   5.682 -0.4789 -0.6143 -1.0211
17030SOL    HW163149   8.277   5.510   5.768  2.4166 -0.8280 -2.1115
17030SOL    HW263150   8.191   5.547   5.634 -3.0861 -0.7823  1.2844
17031SOL     OW63151   4.986   4.287   6.089  0.5346  0.3192  0.2354
17031SOL    HW163152   4.888   4.279   6.105  0.7298 -0.8620  0.8727
17031SOL    HW263153   5.003   4.295   5.990 -0.1129 -0.7979  0.0233
17032SOL     OW63154   8.083   8.417   5.138  0.1217 -0.5376 -0.4209
17032SOL    HW163155   8.161   8.367   5.101 -0.0903  0.1495 -1.8175
17032SOL    HW263156   8.110   8.511   5.158 -0.0071 -0.6607  0.3798
17033SOL     OW63157   7.163   2.250   9.223 -0.0713  0.4092 -0.5105
17033SOL    HW163158   7.081   2.230   9.168  1.5306 -0.5241 -2.6253
17033SOL    HW263159   7.206   2.334   9.189  0.2678  0.4947  0.1245
17034SOL     OW63160   4.251   8.201   0.285  0.1700  0.3114 -0.0806
17034SOL    HW163161   4.201   8.287   0.280 -0.9029 -0.3488 -0.9670
17034SOL    HW263162   4.281   8.186   0.379 -0.6968  1.0542  0.3225
17035SOL     OW63163   4.568   8.333   4.612 -0.0826 -0.1620 -0.0612
17035SOL    HW163164   4.528   8.255   4.659 -0.7088 -0.9182 -1.8543
17035SOL    HW263165   4.664   8.342   4.640 -0.1749 -1.1804  0.6255
17036SOL     OW63166   8.443   1.482   6.626 -0.6447 -0.1967 -0.1409
17036SOL    HW163167   8.436   1.431   6.541  0.1254 -0.1067 -0.2556
17036SOL    HW263168   8.351   1.504   6.659 -0.9384  1.4774 -1.9617
17037SOL     OW63169   3.168   0.161   4.702 -0.0656 -0.1128 -0.6501
17037SOL    HW163170   3.211   0.205   4.781  1.0588 -0.3280 -1.1415
17037SOL    HW263171   3.224   0.084   4.672 -1.4723 -1.2362 -0.4591
17038SOL     OW63172   2.026   6.170   0.952 -0.3043  0.1108 -0.2956
17038SOL    HW163173   1.950   6.106   0.958 -0.4518  0.2878 -0.2444
17038SOL    HW263174   2.083   6.149   0.873  0.5915 -1.1117  0.6422
17039SOL     OW63175   3.837   7.125   0.630  0.1194 -0.0268 -0.3647
17039SOL    HW163176   3.907   7.190   0.661  0.2316 -0.1602 -0.3400
17039SOL    HW263177   3.881   7.040   0.601  0.1389  0.5482 -2.0800
17040SOL     OW63178   2.320   9.197   6.159  0.5738 -0.4408  0.1897
17040SOL    HW163179   2.279   9.125   6.104 -0.8835  0.7757 -0.3528
17040SOL    HW263180   2.323   9.167   6.255  0.2099 -1.3166 -0.0636
17041SOL     OW63181   1.019   4.900   7.928  0.1065  0.0119  0.0883
17041SOL    HW163182   1.019   4.879   8.025 -1.8018 -0.9066 -0.0744
17041SOL    HW263183   1.092   4.849   7.882 -2.3433 -3.8038  0.2355
17042SOL     OW63184   3.659   8.327   7.492  0.2871 -0.0839  0.3244
17042SOL    HW163185   3.675   8.414   7.445  1.0112 -1.3484 -1.8344
17042SOL    HW263186   3.671   8.251   7.428  1.8300 -1.9125  2.6828
17043SOL     OW63187   4.397   5.008   7.101  0.0400  0.1190  0.2198
17043SOL    HW163188   4.301   5.006   7.074 -0.0295 -2.4982  0.4925
17043SOL    HW263189   4.407   5.054   7.189 -0.7659  1.6496 -0.4767
17044SOL     OW63190   3.502   7.054   6.562  0.0611  0.2884  0.0756
17044SOL    HW163191   3.543   7.111   6.634 -1.8210 -0.4730  1.7880
17044SOL    HW263192   3.428   7.104   6.518 -1.6863 -0.8304  1.6725
17045SOL     OW63193   1.439   0.877   0.314 -0.9464  0.2493 -0.1892
17045SOL    HW163194   1.487   0.790   0.304 -1.6184 -0.2490  0.9075
17045SOL    HW263195   1.505   0.951   0.325 -0.3952 -0.1991 -0.4732
17046SOL     OW63196   3.237   8.719   7.743 -0.0432  0.3486 -0.6588
17046SOL    HW163197   3.294   8.668   7.678  1.6151  1.7216 -0.2949
17046SOL    HW263198   3.278   8.715   7.834 -0.5364  1.3732 -0.3887
17047SOL     OW63199   9.207   9.328   9.213  0.7933 -0.5125 -0.1593
17047SOL    HW163200   9.249   9.361   9.298  1.3847 -0.3441 -0.5131
17047SOL    HW263201   9.236   9.234   9.197 -1.8660 -1.6731  1.4910
17048SOL     OW63202   6.321   9.954   4.543  0.0570 -0.3810 -0.4948
17048SOL    HW163203   6.287  10.038   4.501  0.1046  0.4028  1.0105
17048SOL    HW263204   6.419   9.964   4.563  0.0536 -0.7719 -0.2710
17049SOL     OW63205   2.079   9.954   1.188  0.4071 -0.2798  0.1776
17049SOL    HW163206   1.992   9.904   1.181  1.6978 -2.8294  1.4944
17049SOL    HW263207   2.108   9.955   1.284  2.4231 -0.5026 -0.4152
17050SOL     OW63208   9.343   6.244   7.799  0.2658 -0.6140 -0.0386
17050SOL    HW163209   9.332   6.281   7.891 -1.0296  0.2483 -0.5222
17050SOL    HW263210   9.426   6.282   7.757 -0.5023  0.9965 -0.1559
17051SOL     OW63211   7.676   0.727   0.656  0.4656  0.0273 -0.0990
17051SOL    HW163212   7.631   0.750   0.742  0.2660  0.9392 -0.4470
17051SOL    HW263213   7.776   0.727   0.669  0.3866 -1.8182  0.6255
17052SOL     OW63214   9.480   4.339   2.516 -0.0422  0.0435 -0.2773
17052SOL    HW163215   9.521   4.296   2.436 -1.4716 -0.1961 -0.8914
17052SOL    HW263216   9.412   4.277   2.556 -1.6779  1.4540 -0.8132
17053SOL     OW63217   1.545   3.593   6.530  0.1842  0.0260 -0.8555
17053SOL    HW163218   1.620   3.566   6.590 -0.2839 -2.5580 -1.3815
17053SOL    HW263219   1.470   3.631   6.584  0.4547 -0.6841  0.0192
17054SOL     OW63220   6.742   8.548   6.393  0.1257 -0.1492 -0.1064
17054SOL    HW163221   6.796   8.474   6.352 -0.5584 -0.2879 -0.7510
17054SOL    HW263222   6.724   8.618   6.325 -1.0810 -0.4154 -0.0579
17055SOL     OW63223   2.557   1.612   4.047 -0.1004 -0.5078  0.3882
17055SOL    HW163224   2.575   1.695   3.993  5.2868 -2.1216 -0.5537
17055SOL    HW263225   2.572   1.632   4.144  1.2066 -0.3764  0.1650
17056SOL     OW63226   2.124   7.341   1.942  0.2681  0.3472  0.3223
17056SOL    HW163227   2.064   7.278   1.992 -1.6198  0.9324 -1.1637
17056SOL    HW263228   2.180   7.289   1.877 -0.6481  0.0896 -0.2717
17057SOL     OW63229   8.197   7.164   5.769  0.0241  0.0306 -0.2326
17057SOL    HW163230   8.206   7.247   5.714 -0.7182 -0.3876 -0.9898
17057SOL    HW263231   8.125   7.178   5.838 -1.0059 -0.4292 -1.2010
17058SOL     OW63232   0.219   1.885   0.852 -0.8126 -0.0304  0.1599
17058SOL    HW163233   0.302   1.870   0.905 -1.5101 -0.2327  1.2120
17058SOL    HW263234   0.140   1.851   0.904 -1.7454  1.7934 -0.0480
17059SOL     OW63235   3.812   4.483   3.504  0.8732  0.2804  0.3040
17059SOL    HW163236   3.830   4.567   3.556 -0.6008  1.0317 -0.3739
17059SOL    HW263237   3.728   4.440   3.538  0.8417 -0.1510 -0.3035
17060SOL     OW63238   2.420   3.106   9.578 -0.2279 -0.1315  0.5670
17060SOL    HW163239   2.406   3.161   9.660  1.0556  0.8191  0.1617
17060SOL    HW263240   2.349   3.127   9.511 -0.7269 -0.2197  1.0645
17061SOL     OW63241   8.437   9.058   5.302 -0.4860  0.2468 -0.1979
17061SOL    HW163242   8.441   8.959   5.311 -0.3519  0.1096 -1.6145
17061SOL    HW263243   8.493   9.100   5.373  0.0686 -0.7171 -0.0508
17062SOL     OW63244   8.089   5.654   5.555  0.0329 -0.1219  0.4112
17062SOL    HW163245   8.004   5.602   5.544 -0.1360  0.0239  1.0176
17062SOL    HW263246   8.109   5.704   5.470 -1.3066  1.0675  0.7778
17063SOL     OW63247   1.144   0.241   2.801 -0.0718  0.5726 -0.4360
17063SOL    HW163248   1.150   0.340   2.817 -0.3149  0.5391 -0.1354
17063SOL    HW263249   1.167   0.192   2.886  0.9181  0.3544 -0.8211
17064SOL     OW63250   5.296   1.321   7.026  0.0157  0.1962 -0.6451
17064SOL    HW163251   5.235   1.288   7.098  0.5325  0.1002 -0.2512
17064SOL    HW263252   5.387   1.334   7.063  0.7436 -1.6779 -1.7070
17065SOL     OW63253   8.457   7.509   4.445 -0.4347  0.7259  0.1496
17065SOL    HW163254   8.476   7.593   4.394  0.1561 -0.1087 -1.0271
17065SOL    HW263255   8.539   7.480   4.495  0.1516 -0.5313 -1.4974
17066SOL     OW63256   8.039   8.360   4.763  0.5020  0.2622  0.0415
17066SOL    HW163257   8.003   8.303   4.837  1.2480  0.0303  0.2259
17066SOL    HW263258   7.962   8.398   4.710 -0.0435  0.5321  1.0083
17067SOL     OW63259   0.715   9.542   1.337  0.0492  0.2518  0.3629
17067SOL    HW163260   0.750   9.601   1.410 -2.0532  0.0692  1.5437
17067SOL    HW263261   0.615   9.542   1.339 -0.0339 -0.1783 -2.2029
17068SOL     OW63262   8.480   1.475   6.905  0.1977  0.8846  0.4356
17068SOL    HW163263   8.416   1.543   6.942  1.9611  1.4061  2.6279
17068SOL    HW263264   8.502   1.497   6.810 -1.3993  1.7625  0.2550
17069SOL     OW63265   2.843   7.023   2.838 -0.2923  0.3966  0.1611
17069SOL    HW163266   2.824   7.111   2.881  0.1635 -0.6750  2.6400
17069SOL    HW263267   2.809   6.949   2.897  1.0516 -1.1465 -0.9481
17070SOL     OW63268   1.951   3.897   4.009  0.2035  0.3495  0.0172
17070SOL    HW163269   2.027   3.845   4.049  0.1160  2.4872  3.1473
17070SOL    HW263270   1.865   3.869   4.052 -0.3089  0.5851 -0.8401
17071SOL     OW63271   5.141   6.811   2.542  0.0301  0.5878 -0.2054
17071SOL    HW163272   5.175   6.825   2.635 -0.5639  1.4540 -0.1070
17071SOL    HW263273   5.187   6.876   2.481  0.2848  0.1443 -0.4869
17072SOL     OW63274   1.715   6.648   0.088 -0.4582 -0.0505 -0.8859
17072SOL    HW163275   1.721   6.708   0.008  0.0804  1.1432  0.0343
17072SOL    HW263276   1.795   6.661   0.146 -2.2435  1.2948  1.3651
17073SOL     OW63277   0.096   1.000   9.973  0.0442  0.3156  0.6445
17073SOL    HW163278   0.001   1.020   9.951 -0.5927 -0.2403  2.7910
17073SOL    HW263279   0.115   1.027  10.068  2.5073  2.0424 -0.2673
17074SOL     OW63280   1.690   2.500   1.027  0.0330 -0.5517 -0.7664
17074SOL    HW163281   1.780   2.534   0.997  0.9792 -1.5460  0.8452
17074SOL    HW263282   1.654   2.559   1.098  0.0413 -0.9227 -0.4525
17075SOL     OW63283   4.596   6.858   6.838 -0.5633  0.8283  0.2872
17075SOL    HW163284   4.506   6.850   6.881 -0.7639  0.8345 -0.1262
17075SOL    HW263285   4.595   6.936   6.774  0.3064  1.9915  1.6748
17076SOL     OW63286   2.908   2.598   0.028 -0.3344  0.2901 -0.0290
17076SOL    HW163287   2.987   2.644   0.068  1.1719 -1.4309 -0.9704
17076SOL    HW263288   2.826   2.654   0.042  1.0320  2.0727  0.9919
17077SOL     OW63289   2.888   0.894   3.814 -0.3385 -0.1641 -0.1536
17077SOL    HW163290   2.941   0.971   3.781 -1.1507  0.1722 -0.7015
17077SOL    HW263291   2.843   0.918   3.900 -0.1461 -0.2215 -0.0366
17078SOL     OW63292   4.085   7.457   4.652 -0.2988 -0.8037  0.0846
17078SOL    HW163293   3.993   7.495   4.661  0.1865  0.4929 -0.2906
17078SOL    HW263294   4.152   7.522   4.690  0.4877 -1.5709  0.0262
17079SOL     OW63295   7.979   1.737   0.735  0.5753  0.7134  0.6598
17079SOL    HW163296   7.904   1.749   0.670  0.3879  1.3587  0.9904
17079SOL    HW263297   7.973   1.647   0.777  0.1640  0.6446  0.4522
17080SOL     OW63298   7.842   1.911   1.153  0.3767  0.2281  0.3315
17080SOL    HW163299   7.774   1.837   1.160 -1.7710  1.9833 -1.3139
17080SOL    HW263300   7.934   1.872   1.162 -0.7670 -2.3184  1.7861
17081SOL     OW63301   7.574   0.788   0.897  0.5882 -0.1977 -0.4600
17081SOL    HW163302   7.483   0.829   0.886  0.7121 -0.0863 -1.1435
17081SOL    HW263303   7.606   0.800   0.991 -0.7939 -1.6554  0.2232
17082SOL     OW63304   2.881   8.404   6.961  0.3523  0.0991  0.0590
17082SOL    HW163305   2.980   8.412   6.972  0.5387  0.4320 -1.7733
17082SOL    HW263306   2.854   8.438   6.871 -1.5282  0.7242  0.8233
17083SOL     OW63307   2.246   8.514   5.623  0.3531 -0.1269 -0.1224
17083SOL    HW163308   2.276   8.484   5.533  0.9995 -1.6157  0.5595
17083SOL    HW263309   2.315   8.488   5.691  0.0418  1.2929  0.7492
17084SOL     OW63310   9.525   6.010   7.176 -0.0151 -0.0563  0.1022
17084SOL    HW163311   9.535   5.938   7.108  0.8202 -1.1253  1.3388
17084SOL    HW263312   9.460   5.981   7.247 -2.0148  1.6311 -0.9737
17085SOL     OW63313   6.739   9.510   8.495  0.0275 -0.0272 -0.1528
17085SOL    HW163314   6.702   9.586   8.441 -0.9641  0.5254  1.2632
17085SOL    HW263315   6.798   9.546   8.568  0.4831 -0.6892 -0.1915
17086SOL     OW63316   8.400   3.902   9.854  0.4339 -0.2029  0.0434
17086SOL    HW163317   8.330   3.833   9.870 -0.7339  1.1892  1.0033
17086SOL    HW263318   8.394   3.934   9.759 -1.0962  0.8604  0.4908
17087SOL     OW63319   0.282   5.217   8.180  0.2070  0.4574 -0.1341
17087SOL    HW163320   0.269   5.174   8.091 -2.3005 -0.7398  0.7771
17087SOL    HW263321   0.201   5.270   8.204  1.2988  1.6554  0.9728
17088SOL     OW63322   4.629   4.510   8.776  0.1494 -0.5198  0.2523
17088SOL    HW163323   4.722   4.547   8.780 -0.3753  0.6379  2.4933
17088SOL    HW263324   4.567   4.574   8.821 -1.8523 -0.9579 -1.8127
17089SOL     OW63325   3.420   0.566   4.373 -0.7449  0.3666 -0.1016
17089SOL    HW163326   3.494   0.570   4.305 -0.5631 -0.5911  0.0401
17089SOL    HW263327   3.395   0.659   4.400  0.4680  0.6969 -0.0943
17090SOL     OW63328   1.702   8.221   2.778  0.1740  0.3900  0.2555
17090SOL    HW163329   1.654   8.237   2.865 -0.5489  1.7014 -0.3787
17090SOL    HW263330   1.635   8.213   2.704  0.7315 -1.5896 -0.0811
17091SOL     OW63331   4.855   2.352   9.872 -0.2887 -0.1046  0.1565
17091SOL    HW163332   4.879   2.265   9.913  2.3497  1.1938  1.4767
17091SOL    HW263333   4.911   2.368   9.791 -1.9436 -0.3665 -1.0727
17092SOL     OW63334   3.442   2.795   4.738  0.3075 -0.1558  0.1927
17092SOL    HW163335   3.461   2.893   4.734  3.3065 -0.7697 -2.7396
17092SOL    HW263336   3.489   2.756   4.817 -0.6394  0.6866  1.1883
17093SOL     OW63337   5.717   4.563   2.568 -0.4257 -0.0983 -0.1282
17093SOL    HW163338   5.643   4.547   2.633  0.3987 -3.2436  0.0857
17093SOL    HW263339   5.682   4.554   2.475 -0.4136 -1.1253 -0.0336
17094SOL     OW63340   9.818   9.244   3.396 -0.3589 -0.8679 -0.1468
17094SOL    HW163341   9.803   9.249   3.494 -1.7712  0.0761 -0.3932
17094SOL    HW263342   9.868   9.326   3.366 -0.6368 -0.7698 -0.3397
17095SOL     OW63343   2.512   1.772   6.078 -0.0027 -0.0323  0.4888
17095SOL    HW163344   2.565   1.747   5.997 -2.2136  1.2026 -1.4040
17095SOL    HW263345   2.534   1.866   6.105 -0.1930 -0.0039  0.5465
17096SOL     OW63346   2.657   1.747   5.858 -0.1411  0.1808 -0.3669
17096SOL    HW163347   2.717   1.815   5.815 -0.8812  0.2661 -1.2928
17096SOL    HW263348   2.592   1.713   5.790 -1.7728  0.7978  0.8330
17097SOL     OW63349   8.642   1.768   0.977 -0.2813  0.2984 -0.5601
17097SOL    HW163350   8.670   1.683   0.932  0.1495  0.5547 -0.7787
17097SOL    HW263351   8.651   1.758   1.076 -1.9907 -0.5426 -0.4797
17098SOL     OW63352   3.545   4.567   6.257  0.1932  0.0961 -0.4495
17098SOL    HW163353   3.531   4.519   6.170 -1.4536 -0.7580  0.2645
17098SOL    HW263354   3.545   4.502   6.332 -0.0007  0.9868  0.3412
17099SOL     OW63355   4.436   6.155   3.537  0.5768 -0.2947  0.5332
17099SOL    HW163356   4.519   6.210   3.524  1.3693 -1.0205  2.4003
17099SOL    HW263357   4.452   6.088   3.609 -1.4802 -0.7884  0.5404
17100SOL     OW63358   0.646   2.466   7.341  0.4305  0.2394 -0.1547
17100SOL    HW163359   0.550   2.441   7.352  0.5352  0.4967  1.3818
17100SOL    HW263360   0.689   2.405   7.274 -0.5870 -0.3923 -0.2386
17101SOL     OW63361   8.702   6.558   0.664 -0.4679 -0.3124 -0.3165
17101SOL    HW163362   8.734   6.464   0.677  0.6946 -0.1678 -1.9704
17101SOL    HW263363   8.615   6.570   0.711  0.2277 -1.7170  1.3835
17102SOL     OW63364   7.426   3.771   1.115  0.3402  0.2762  0.0246
17102SOL    HW163365   7.486   3.765   1.035  1.2433  1.6943  0.5638
17102SOL    HW263366   7.337   3.731   1.094  0.9981 -0.5412 -1.2634
17103SOL     OW63367   0.576   8.303   3.295 -0.1334 -0.2446  0.4918
17103SOL    HW163368   0.634   8.222   3.283 -1.8099 -1.5064  0.6958
17103SOL    HW263369   0.568   8.351   3.208  2.0670  0.5370  0.7027
17104SOL     OW63370   2.835   4.320   4.739 -0.1127  0.4443 -0.1104
17104SOL    HW163371   2.743   4.320   4.700 -0.7256 -1.9617  1.2841
17104SOL    HW263372   2.899   4.358   4.672 -1.9168  1.0388 -1.5448
17105SOL     OW63373   2.307   6.375   4.721 -0.0366  0.1119 -0.0077
17105SOL    HW163374   2.397   6.380   4.765 -0.7609 -0.6269  1.6128
17105SOL    HW263375   2.237   6.360   4.791 -1.5461  1.7428 -1.1340
17106SOL     OW63376   8.178   4.061   4.726 -0.3881 -0.0963 -0.7947
17106SOL    HW163377   8.249   4.069   4.796 -1.0519  0.5873 -0.1899
17106SOL    HW263378   8.139   4.152   4.707 -0.8180 -0.4050 -1.4175
17107SOL     OW63379   4.225   2.657   0.360  0.8198 -0.1912  0.1263
17107SOL    HW163380   4.153   2.589   0.347  0.5538 -0.1145  1.1593
17107SOL    HW263381   4.187   2.736   0.409  1.7198 -0.3327  1.0563
17108SOL     OW63382   9.533   9.189   5.069  0.6060 -0.1136 -0.2245
17108SOL    HW163383   9.520   9.286   5.046  0.0700 -0.3759 -1.0137
17108SOL    HW263384   9.630   9.172   5.084  0.5964  0.7853  0.9830
17109SOL     OW63385   0.889   7.013   5.862  0.1098 -0.5202  0.0022
17109SOL    HW163386   0.943   6.931   5.881  0.4367 -0.1236  0.8016
17109SOL    HW263387   0.852   7.007   5.769  1.2589 -0.9510 -0.4458
17110SOL     OW63388   4.053   0.054   6.858 -0.4039 -0.1438 -0.2022
17110SOL    HW163389   4.041   0.016   6.767 -1.5726 -2.1775  0.7613
17110SOL    HW263390   4.062  -0.021   6.924 -0.1066  1.2914  1.4173
17111SOL     OW63391   8.879   3.590   0.108  0.5875 -0.2788  0.0865
17111SOL    HW163392   8.885   3.539   0.022  1.1518 -1.7397  0.9875
17111SOL    HW263393   8.810   3.662   0.098  0.5678 -0.4897 -1.5556
17112SOL     OW63394   7.556   6.006   6.027 -0.5296 -0.2893  0.2017
17112SOL    HW163395   7.490   6.073   6.063 -2.0301 -1.1951 -0.7930
17112SOL    HW263396   7.507   5.939   5.971  1.4134 -0.3433 -1.4581
17113SOL     OW63397   3.279   6.665   0.682 -0.5093 -0.5983 -0.1430
17113SOL    HW163398   3.309   6.739   0.742 -2.1819 -0.2328  0.2695
17113SOL    HW263399   3.286   6.578   0.731 -2.0671 -0.2757  0.6630
17114SOL     OW63400   1.732   6.789   7.446  0.4293 -0.3588  0.2385
17114SOL    HW163401   1.676   6.869   7.422  1.6647  0.4325 -0.0555
17114SOL    HW263402   1.679   6.729   7.506 -1.2502 -0.3562 -1.1792
17115SOL     OW63403   0.485   0.402   9.611  0.1255  0.1063  0.5561
17115SOL    HW163404   0.448   0.320   9.656  3.0051 -0.4456  2.0317
17115SOL    HW263405   0.460   0.401   9.514 -1.7064 -1.3995  1.0165
17116SOL     OW63406   9.940   6.115   6.847  0.0306 -0.1336 -0.4740
17116SOL    HW163407   9.923   6.130   6.750 -0.3941 -1.6765 -0.6582
17116SOL    HW263408   9.855   6.127   6.898  0.3901  1.3059 -0.2083
17117SOL     OW63409   6.950   4.263   2.849 -0.2245  0.0450 -0.7165
17117SOL    HW163410   7.003   4.248   2.765  0.7054  1.1463 -0.3334
17117SOL    HW263411   6.866   4.314   2.827 -0.8527 -1.1787 -1.2278
17118SOL     OW63412   4.120   4.277   7.285  0.1340 -0.7086 -0.2289
17118SOL    HW163413   4.074   4.189   7.290  0.6192 -0.9233  0.5277
17118SOL    HW263414   4.213   4.264   7.252 -0.3674 -0.2623 -1.8810
17119SOL     OW63415   1.523   0.938   6.081 -0.2183  0.0307 -0.0019
17119SOL    HW163416   1.545   0.915   5.986 -0.1784  1.7215 -0.4277
17119SOL    HW263417   1.425   0.956   6.089 -0.0797  0.7917  0.0632
17120SOL     OW63418   0.342   7.088   8.376 -0.5452 -0.0991 -0.0894
17120SOL    HW163419   0.405   7.014   8.399 -1.6893 -0.9156  0.5013
17120SOL    HW263420   0.270   7.094   8.446  0.5126  2.7510  0.8201
17121SOL     OW63421   1.846   4.796   4.614 -0.0185 -0.3023 -0.4682
17121SOL    HW163422   1.904   4.852   4.554  0.5135  0.1812  0.5014
17121SOL    HW263423   1.799   4.855   4.679 -0.9905 -0.7801 -0.7279
17122SOL     OW63424   7.196   3.829   9.609  0.2986  0.5769 -0.6261
17122SOL    HW163425   7.221   3.847   9.514  1.9333 -0.3286 -0.3993
17122SOL    HW263426   7.277   3.839   9.667 -0.9330  2.3093  0.8563
17123SOL     OW63427   1.166   6.293   1.394  0.5488  0.2305 -0.1312
17123SOL    HW163428   1.230   6.244   1.453 -0.2212 -0.1675  0.3797
17123SOL    HW263429   1.167   6.391   1.416 -0.9709 -0.1345  1.7336
17124SOL     OW63430   3.979   3.460   3.124  0.5466 -0.4474  0.3026
17124SOL    HW163431   3.894   3.500   3.091  1.2853  1.3677  0.5633
17124SOL    HW263432   3.975   3.360   3.113 -2.3581 -0.5938  2.0026
17125SOL     OW63433   7.769   2.713   2.689  0.2668  0.4044  0.1797
17125SOL    HW163434   7.711   2.678   2.762  0.4010 -2.6653 -1.1169
17125SOL    HW263435   7.859   2.736   2.727  0.5639 -1.8175  0.8929
17126SOL     OW63436   8.304   3.370   7.000 -0.0918 -0.0371  0.2023
17126SOL    HW163437   8.256   3.392   6.916  1.2237 -0.1950 -0.6009
17126SOL    HW263438   8.396   3.409   6.998  0.0361 -0.2258  1.4746
17127SOL     OW63439   1.324   3.804   9.738 -0.2758  0.2807  0.2624
17127SOL    HW163440   1.298   3.755   9.654  0.2680 -0.7714  0.6911
17127SOL    HW263441   1.262   3.780   9.812 -1.3954  2.0228 -0.0802
17128SOL     OW63442   3.680   2.214   1.146 -0.3394 -0.1460  0.0315
17128SOL    HW163443   3.657   2.239   1.052 -2.3128  1.7379  0.9872
17128SOL    HW263444   3.608   2.155   1.183  0.1011 -0.3364  0.5929
17129SOL     OW63445   9.573   5.585   5.384  0.0718 -0.2797 -0.2136
17129SOL    HW163446   9.552   5.504   5.329 -0.1291 -0.9387  0.8141
17129SOL    HW263447   9.620   5.653   5.327 -0.0014 -1.0034 -1.1533
17130SOL     OW63448   4.658   3.700   9.921 -0.0170  0.0187 -0.5480
17130SOL    HW163449   4.638   3.795   9.942 -0.4395  0.4683 -2.8570
17130SOL    HW263450   4.595   3.640   9.971 -0.4260  0.9709  0.0979
17131SOL     OW63451   1.418   2.669   5.909 -0.0380 -0.3567 -0.4247
17131SOL    HW163452   1.331   2.677   5.958 -0.0123  3.4229 -0.9086
17131SOL    HW263453   1.400   2.673   5.811  0.6865  0.5812 -0.5197
17132SOL     OW63454   5.917   9.424   3.720  0.2770 -0.0260 -0.7905
17132SOL    HW163455   5.839   9.362   3.711  2.0332 -2.6192  0.9662
17132SOL    HW263456   5.915   9.467   3.811  0.3436  0.6692 -1.1171
17133SOL     OW63457   4.326   4.723   9.581 -0.1414 -0.0802  0.3852
17133SOL    HW163458   4.283   4.636   9.604  0.4459 -0.1560  1.2422
17133SOL    HW263459   4.260   4.797   9.591 -0.1003 -0.1970  1.6765
17134SOL     OW63460   5.410   7.291   5.599 -0.0136  0.6164 -0.6345
17134SOL    HW163461   5.473   7.264   5.672 -1.3775 -2.6941 -0.5972
17134SOL    HW263462   5.461   7.301   5.514  1.1179  1.5625  0.1320
17135SOL     OW63463   4.593   0.472   9.910  0.9038 -0.4398 -0.4795
17135SOL    HW163464   4.665   0.539   9.895  1.9640 -1.7116 -1.1460
17135SOL    HW263465   4.613   0.389   9.859 -0.7257 -1.0419 -0.1815
17136SOL     OW63466   1.822   0.998   6.081 -0.1840  0.4974 -0.0995
17136SOL    HW163467   1.889   0.965   6.015 -1.2262  0.9715 -1.4236
17136SOL    HW263468   1.733   0.959   6.061 -0.9753  2.3688 -0.3520
17137SOL     OW63469   6.191   3.749   1.488 -0.2639  0.3461 -0.3455
17137SOL    HW163470   6.146   3.802   1.560  0.4384 -0.4202  0.6773
17137SOL    HW263471   6.286   3.731   1.515 -0.7498 -2.2106 -0.2243
17138SOL     OW63472   2.429   1.498   8.939  0.2483  0.4251 -0.1464
17138SOL    HW163473   2.437   1.449   9.026 -1.6528 -0.1467 -0.2843
17138SOL    HW263474   2.504   1.472   8.879  1.4762  0.6746  1.2338
17139SOL     OW63475   3.854   9.167   8.673 -0.2768 -0.4771  0.4377
17139SOL    HW163476   3.858   9.143   8.770  0.2816  0.0551  0.5491
17139SOL    HW263477   3.767   9.135   8.635 -0.7886 -0.1122  1.2719
17140SOL     OW63478   1.944   3.773   5.198 -0.4424  0.2752 -0.1184
17140SOL    HW163479   1.949   3.871   5.177  0.6173  0.2730  0.0684
17140SOL    HW263480   1.882   3.759   5.275  1.2894  1.1038  1.4924
17141SOL     OW63481   2.478   6.886   3.764  0.1683 -0.0674 -0.6258
17141SOL    HW163482   2.388   6.844   3.746  0.3987 -0.0211 -1.9302
17141SOL    HW263483   2.511   6.931   3.681  0.8192  1.0359  0.2160
17142SOL     OW63484   7.837   2.315   1.655 -0.2439  0.3965  0.0326
17142SOL    HW163485   7.810   2.384   1.721  1.4468 -0.6653  1.8952
17142SOL    HW263486   7.937   2.316   1.645 -0.4259  0.0804 -1.9997
17143SOL     OW63487   9.026   5.363   5.602 -0.2384  0.3124 -0.3575
17143SOL    HW163488   9.101   5.417   5.640 -1.0711  0.1840  1.5506
17143SOL    HW263489   8.944   5.377   5.658 -1.4051 -0.2075 -1.9140
17144SOL     OW63490   0.739   9.123   4.313  0.1516  0.3776  0.1689
17144SOL    HW163491   0.829   9.085   4.335  0.5340  1.0359 -0.2395
17144SOL    HW263492   0.676   9.105   4.388  0.6332 -0.0482  0.4770
17145SOL     OW63493   3.755   9.171   9.963 -0.3771 -0.0123  0.1030
17145SOL    HW163494   3.716   9.250  10.010  0.1854  0.0667  0.4278
17145SOL    HW263495   3.825   9.128  10.020 -1.1943 -1.1913  0.2471
17146SOL     OW63496   0.799   4.765   1.649 -0.1685  0.2305  0.1584
17146SOL    HW163497   0.699   4.762   1.645 -0.1145 -0.1915 -1.2349
17146SOL    HW263498   0.831   4.849   1.605  0.0924  0.3087  0.5021
17147SOL     OW63499   6.946   0.280   6.191 -0.3159  0.0171 -0.7416
17147SOL    HW163500   6.926   0.332   6.275  0.1982 -2.2747  0.8583
17147SOL    HW263501   6.909   0.329   6.112 -0.2136  2.5788  0.7342
17148SOL     OW63502   9.383   3.609   8.427  0.3039  0.2370 -0.4130
17148SOL    HW163503   9.307   3.562   8.382 -0.2242  0.1624  0.5530
17148SOL    HW263504   9.430   3.545   8.488 -0.6649  1.0425  1.2229
17149SOL     OW63505   9.555   6.679   8.845  0.0297 -0.6485 -0.2318
17149SOL    HW163506   9.468   6.679   8.796  0.4522  0.2242 -0.9983
17149SOL    HW263507   9.556   6.605   8.913 -0.7524 -1.5509 -1.1961
17150SOL     OW63508   0.200   6.015   9.423  0.5498 -0.2581 -0.3449
17150SOL    HW163509   0.262   6.082   9.465  1.4314 -1.3568  0.1479
17150SOL    HW263510   0.254   5.951   9.368  0.0969 -2.4107  1.6597
17151SOL     OW63511   0.041   3.110   9.633 -0.2600 -0.4654 -0.1030
17151SOL    HW163512   0.092   3.195   9.647 -1.5395  0.3370 -0.2304
17151SOL    HW263513  -0.003   3.083   9.718 -1.3176 -0.0180 -0.4907
17152SOL     OW63514   7.649   9.750   8.334  0.4027 -0.3857 -0.1914
17152SOL    HW163515   7.716   9.799   8.389 -0.1005 -0.7011  0.7070
17152SOL    HW263516   7.557   9.773   8.366  0.0906 -0.2376 -1.1771
17153SOL     OW63517   0.970   8.157   8.734 -0.3209 -0.1079  0.5365
17153SOL    HW163518   0.996   8.244   8.776 -0.4754 -0.3521  1.1460
17153SOL    HW263519   0.871   8.156   8.718 -0.2241  0.0915 -0.0905
17154SOL     OW63520   7.174   1.026   0.440  0.4412  0.2382 -0.3198
17154SOL    HW163521   7.152   0.957   0.371 -0.6743  0.2562  0.0070
17154SOL    HW263522   7.249   1.084   0.407  0.2991 -0.1124 -1.2710
17155SOL     OW63523   6.319   3.540   0.667  0.2936  0.0644 -0.6417
17155SOL    HW163524   6.387   3.486   0.617  0.1013  0.7260 -1.6263
17155SOL    HW263525   6.295   3.621   0.614 -0.9641  0.0451 -0.1178
17156SOL     OW63526   6.515   8.561   7.467  0.4184 -0.0948 -0.3246
17156SOL    HW163527   6.534   8.649   7.510 -1.0588 -0.6992  1.6361
17156SOL    HW263528   6.514   8.572   7.367 -0.2873  2.2287 -0.0948
17157SOL     OW63529   8.726   7.579   8.531  0.1074  0.2529  0.0407
17157SOL    HW163530   8.783   7.651   8.571  0.4141 -0.1267  0.2954
17157SOL    HW263531   8.751   7.566   8.436 -0.1869  0.7212 -0.1028
17158SOL     OW63532   8.744   9.630   9.498  0.0075 -0.4251 -0.3217
17158SOL    HW163533   8.741   9.544   9.549 -0.3540 -0.4635 -0.4011
17158SOL    HW263534   8.655   9.674   9.504 -0.3419 -0.9022 -1.7299
17159SOL     OW63535   9.843   8.841   1.390 -0.1858 -0.3554 -0.7499
17159SOL    HW163536   9.916   8.826   1.323 -0.1168  0.0225 -0.7597
17159SOL    HW263537   9.787   8.759   1.397  0.8044 -0.9967 -0.0525
17160SOL     OW63538   7.194   9.814   3.713  0.1971  0.0608 -0.7277
17160SOL    HW163539   7.102   9.842   3.740  0.2748  0.2348 -0.6439
17160SOL    HW263540   7.227   9.873   3.640 -0.9781 -1.9050 -2.9352
17161SOL     OW63541   1.004   8.123   6.530  0.0433  0.0743 -0.2885
17161SOL    HW163542   1.075   8.192   6.519 -0.4513  0.6940  0.3352
17161SOL    HW263543   0.945   8.123   6.449  0.2487  0.1503 -0.4386
17162SOL     OW63544   9.803   7.948   2.251 -0.4284 -0.2784  0.0925
17162SOL    HW163545   9.753   8.029   2.282  0.9886  1.1867 -1.3982
17162SOL    HW263546   9.817   7.887   2.329 -0.8164  1.2663  1.4150
17163SOL     OW63547   7.740   9.284   2.714 -0.6658 -0.1864 -0.7062
17163SOL    HW163548   7.703   9.197   2.679  1.8831 -2.4485  1.9356
17163SOL    HW263549   7.678   9.320   2.784 -0.3305 -1.4112  0.2435
17164SOL     OW63550   1.704   1.630  10.037 -0.6225  0.0071  0.2122
17164SOL    HW163551   1.798   1.646  10.007 -0.4009  0.0464  0.9121
17164SOL    HW263552   1.696   1.652  10.134 -1.0729 -1.1094  0.4431
17165SOL     OW63553   6.099   4.313   1.581 -0.3419 -0.1086  0.2360
17165SOL    HW163554   6.133   4.396   1.626  0.0369  0.4328 -1.0083
17165SOL    HW263555   6.006   4.295   1.609  0.3033 -0.4747  2.1767
17166SOL     OW63556   1.859   3.940   5.500 -0.4250 -0.4098  0.4317
17166SOL    HW163557   1.803   3.867   5.459  0.1288  0.1047 -1.2949
17166SOL    HW263558   1.813   4.028   5.487  0.1370 -0.1494  0.1996
17167SOL     OW63559   5.823   1.616   1.634  0.2222  0.1550 -0.5296
17167SOL    HW163560   5.838   1.643   1.538 -0.4671  0.4396 -0.5603
17167SOL    HW263561   5.899   1.650   1.689 -0.6988  2.3663 -0.5432
17168SOL     OW63562   1.799   4.146   0.989 -0.0081 -0.0044 -1.0317
17168SOL    HW163563   1.798   4.245   1.002  0.7991  0.3289 -3.2954
17168SOL    HW263564   1.874   4.121   0.928 -0.3515 -1.9913 -0.6743
17169SOL     OW63565   5.602   3.086   0.427 -0.8904 -0.1030  0.0064
17169SOL    HW163566   5.653   3.097   0.341  1.9202  2.3901  1.9041
17169SOL    HW263567   5.533   3.157   0.435 -0.6047  0.1528  0.1877
17170SOL     OW63568   3.337   0.707   3.620 -0.0131  0.3575  0.5266
17170SOL    HW163569   3.268   0.647   3.580  0.5828  0.1888 -0.2833
17170SOL    HW263570   3.424   0.694   3.571  0.4784  0.8578  1.2644
17171SOL     OW63571   2.525   5.713   6.175  0.5321 -0.1550 -0.5249
17171SOL    HW163572   2.528   5.623   6.132  1.2042  1.3307 -3.7046
17171SOL    HW263573   2.440   5.760   6.149  0.6025  0.4782  0.3692
17172SOL     OW63574   3.076   8.436   2.959  0.2082  0.4902 -0.2717
17172SOL    HW163575   2.985   8.455   2.922 -0.0770 -1.5349 -0.6745
17172SOL    HW263576   3.145   8.451   2.889  0.0211  0.3917 -0.4780
17173SOL     OW63577   1.662   3.238   9.428  1.0408 -0.0680 -0.2464
17173SOL    HW163578   1.723   3.164   9.400  2.0343  1.2301 -1.5845
17173SOL    HW263579   1.568   3.215   9.402  1.4492 -0.5342 -1.3226
17174SOL     OW63580   4.349   7.987   3.450 -0.1382  0.1530  0.0689
17174SOL    HW163581   4.412   7.934   3.394 -2.2159 -1.7855 -0.5065
17174SOL    HW263582   4.375   7.979   3.546  0.6506 -0.4128 -0.1879
17175SOL     OW63583   8.841   8.849   2.643 -0.0261  0.0121  0.5481
17175SOL    HW163584   8.882   8.924   2.695 -0.1758  1.0599 -0.8001
17175SOL    HW263585   8.747   8.874   2.619  0.5375  0.2304 -1.5341
17176SOL     OW63586   4.767   8.157   6.055 -0.2085 -0.2509  0.5422
17176SOL    HW163587   4.806   8.129   6.142 -0.2658  0.4090  0.7801
17176SOL    HW263588   4.835   8.144   5.983  0.2771  0.4139  0.8803
17177SOL     OW63589   5.664   3.127   1.308  0.4272 -0.4067  0.5401
17177SOL    HW163590   5.665   3.175   1.396  0.0749  1.8225 -0.6344
17177SOL    HW263591   5.752   3.137   1.263  0.5484 -1.4016  0.5324
17178SOL     OW63592   8.120   4.712   4.944  0.1420 -0.4508  0.0406
17178SOL    HW163593   8.037   4.656   4.944  0.1642 -0.4831  0.5146
17178SOL    HW263594   8.200   4.652   4.944  0.1658 -0.4190  0.0929
17179SOL     OW63595   0.979   3.250   8.191 -0.1766 -0.1338  0.4425
17179SOL    HW163596   0.967   3.338   8.144 -0.7016  0.1733  1.1451
17179SOL    HW263597   1.060   3.254   8.248 -0.2336 -0.0796  0.5204
17180SOL     OW63598   4.074   1.144   4.981  0.1150 -0.3118  0.1984
17180SOL    HW163599   4.068   1.162   5.079 -1.2256 -1.3467  0.3301
17180SOL    HW263600   4.031   1.219   4.931  1.2958  0.4883  0.3621
17181SOL     OW63601   4.846   6.742   0.071 -0.2262 -0.8640 -0.1542
17181SOL    HW163602   4.872   6.839   0.075  0.5422 -1.0670 -0.1860
17181SOL    HW263603   4.760   6.729   0.119 -0.0613 -0.2512  0.3155
17182SOL     OW63604   7.999   9.334   8.463  0.6104 -0.5718  0.0857
17182SOL    HW163605   8.038   9.382   8.385  0.7003  0.1423  0.5615
17182SOL    HW263606   7.933   9.394   8.509 -2.1194 -2.2484 -1.5377
17183SOL     OW63607   8.393   3.891   8.921  0.0392  0.3194 -0.2231
17183SOL    HW163608   8.391   3.981   8.879 -1.6249  0.1957 -0.4340
17183SOL    HW263609   8.313   3.879   8.979  1.3768 -0.2022  1.5861
17184SOL     OW63610   8.587   8.636   2.657 -0.3591 -0.0786 -1.0698
17184SOL    HW163611   8.490   8.624   2.675 -0.2098 -0.8426 -0.7396
17184SOL    HW263612   8.600   8.701   2.582 -1.0878  0.8128 -0.4242
17185SOL     OW63613   1.101   0.417   6.249  0.0735  0.7705  0.0875
17185SOL    HW163614   1.164   0.357   6.298  1.4332  0.2389 -2.2480
17185SOL    HW263615   1.013   0.418   6.296 -0.2137 -3.6549 -0.1701
17186SOL     OW63616   9.688   6.101   6.256 -0.5542  0.6448 -0.5138
17186SOL    HW163617   9.731   6.127   6.169 -0.3221  0.0740 -0.5689
17186SOL    HW263618   9.758   6.072   6.320 -0.6624  1.6633  0.0806
17187SOL     OW63619   1.064   4.505   2.535 -0.2555 -0.5361  0.2013
17187SOL    HW163620   1.041   4.556   2.618  1.3050 -1.6494  1.3289
17187SOL    HW263621   1.067   4.568   2.457 -0.0694  0.7923  1.2713
17188SOL     OW63622   8.870   4.701   6.604 -0.3814 -0.2369  0.3348
17188SOL    HW163623   8.781   4.701   6.557  0.2284  0.2199 -0.8433
17188SOL    HW263624   8.858   4.738   6.696 -1.5907 -1.0890  0.5426
17189SOL     OW63625   0.160   5.260   6.059 -0.3385 -0.2329  0.2315
17189SOL    HW163626   0.212   5.240   5.975 -0.8056 -0.8086  0.0697
17189SOL    HW263627   0.159   5.358   6.075 -0.4157 -0.0959 -0.5611
17190SOL     OW63628   9.402   4.995   8.319  1.0328 -0.2641 -0.1797
17190SOL    HW163629   9.434   4.900   8.310 -2.2199 -1.4116 -0.1888
17190SOL    HW263630   9.359   5.007   8.409 -1.3116  0.3117 -1.3426
17191SOL     OW63631   1.829   4.507   7.897 -0.0243 -0.1529  0.0113
17191SOL    HW163632   1.868   4.577   7.837  0.0525 -0.2105 -0.0071
17191SOL    HW263633   1.838   4.418   7.854 -1.7005  0.0286 -0.7338
17192SOL     OW63634   7.431   0.779   6.338 -0.3038  0.2694  0.0610
17192SOL    HW163635   7.375   0.696   6.334 -0.2373  0.2963 -1.7807
17192SOL    HW263636   7.479   0.782   6.426 -2.4737 -0.2181  1.2994
17193SOL     OW63637   8.693   8.324   7.958 -0.1506 -0.0980 -0.1547
17193SOL    HW163638   8.625   8.258   7.991  0.0213  0.2454  0.9129
17193SOL    HW263639   8.660   8.366   7.874 -0.0459 -1.8931 -1.1241
17194SOL     OW63640   4.269   8.791   9.630  0.2708  0.8834 -0.0074
17194SOL    HW163641   4.309   8.882   9.619 -1.4155  1.7651  0.7634
17194SOL    HW263642   4.252   8.774   9.727  0.7539 -0.3445 -0.1304
17195SOL     OW63643   6.722   4.078   8.718 -0.0771  0.4464  0.5168
17195SOL    HW163644   6.671   4.041   8.795  0.9690 -1.8206  0.1476
17195SOL    HW263645   6.817   4.049   8.723  0.1264  0.7191 -1.3366
17196SOL     OW63646   4.562   9.654   2.134 -0.1202  0.2264 -0.3210
17196SOL    HW163647   4.480   9.655   2.191 -1.2584 -1.4228 -1.8914
17196SOL    HW263648   4.538   9.627   2.041  2.3037 -0.9600 -0.6347
17197SOL     OW63649   2.721   5.979   1.975 -0.0880  0.1601  0.7624
17197SOL    HW163650   2.775   5.894   1.970  0.1788  0.2571  1.8442
17197SOL    HW263651   2.724   6.025   1.887 -0.3647 -1.0385  0.1167
17198SOL     OW63652   7.625   7.893   7.244 -0.0223 -0.0692  0.6552
17198SOL    HW163653   7.542   7.865   7.292  0.0248 -0.7010  0.3831
17198SOL    HW263654   7.701   7.833   7.272  0.0999 -0.1612  0.1272
17199SOL     OW63655   9.591   0.693   5.046  0.3785 -0.0537  0.3026
17199SOL    HW163656   9.612   0.595   5.045  2.3216  0.3101  1.3538
17199SOL    HW263657   9.668   0.743   5.086 -0.6652  1.8950 -0.0361
17200SOL     OW63658   5.919   6.082   9.744 -0.5510 -0.4097  0.4053
17200SOL    HW163659   5.943   5.984   9.745  3.3492  0.4211 -1.6494
17200SOL    HW263660   5.942   6.122   9.832  0.1775 -0.8813  0.4423
17201SOL     OW63661   6.295   9.292   6.098  0.2642  0.1236  0.0614
17201SOL    HW163662   6.260   9.235   6.173  2.1822 -0.8661  0.2439
17201SOL    HW263663   6.222   9.307   6.031 -0.6558 -1.4428  0.6695
17202SOL     OW63664   8.334   0.157   9.820  0.2006 -0.3863  0.4133
17202SOL    HW163665   8.393   0.124   9.893 -0.1004  0.3148  0.9841
17202SOL    HW263666   8.238   0.150   9.848  0.1162  0.6416  0.4140
17203SOL     OW63667   2.601   2.472   0.955 -0.1162 -0.2671 -0.0044
17203SOL    HW163668   2.657   2.537   1.005 -1.6354 -0.6050  2.1820
17203SOL    HW263669   2.656   2.430   0.882  2.5614 -0.7603  2.2214
17204SOL     OW63670   7.834   3.658   2.595 -0.3477 -0.4457  0.3904
17204SOL    HW163671   7.737   3.680   2.602 -0.0954  1.3448 -1.4425
17204SOL    HW263672   7.886   3.719   2.655 -0.2541 -0.6555  0.5228
17205SOL     OW63673   3.321   9.842   8.011  0.2049  0.4397 -0.4399
17205SOL    HW163674   3.407   9.791   7.999 -0.6427 -0.6241 -2.2131
17205SOL    HW263675   3.247   9.779   8.032 -0.2470  1.3167  0.6720
17206SOL     OW63676   0.505   1.768   5.864 -0.0242 -0.2884 -0.1890
17206SOL    HW163677   0.505   1.764   5.764  3.3106 -0.0488 -0.2570
17206SOL    HW263678   0.469   1.856   5.894  1.1105  0.5665 -1.2783
17207SOL     OW63679   8.238   4.953   2.729  0.1489 -0.3193 -0.0296
17207SOL    HW163680   8.173   5.028   2.715  0.4248 -0.5835 -3.2466
17207SOL    HW263681   8.329   4.982   2.701  0.4931 -1.4503 -0.1221
17208SOL     OW63682   2.691   8.503   8.198 -0.8720  0.6695 -0.0856
17208SOL    HW163683   2.621   8.479   8.265 -0.6870 -1.3514 -0.6008
17208SOL    HW263684   2.671   8.459   8.110  0.4704  0.9219 -0.5380
17209SOL     OW63685   2.776   5.439   1.298  0.3727  0.1963 -0.3857
17209SOL    HW163686   2.734   5.350   1.312  2.0469 -0.5747 -0.0880
17209SOL    HW263687   2.858   5.447   1.354  0.0343  2.0902 -0.1050
17210SOL     OW63688   5.219   1.443   5.600 -0.1411  0.5540  0.0240
17210SOL    HW163689   5.314   1.474   5.606 -0.1777  0.4861  1.0011
17210SOL    HW263690   5.198   1.383   5.678 -1.3749  1.6590  0.5601
17211SOL     OW63691   1.801   4.257   1.791  0.0835 -0.1231 -0.0563
17211SOL    HW163692   1.868   4.225   1.858 -0.4053  1.7381  1.3349
17211SOL    HW263693   1.833   4.343   1.750 -0.2692 -0.5368 -1.2381
17212SOL     OW63694   3.919   1.069   7.369  0.0991 -0.3050 -0.5754
17212SOL    HW163695   3.974   1.119   7.302  0.8625  0.2288  0.4359
17212SOL    HW263696   3.822   1.085   7.351  0.2950 -0.0623 -1.4684
17213SOL     OW63697   0.609   6.628   3.409  0.5131 -0.5802  0.5751
17213SOL    HW163698   0.596   6.657   3.314  1.0454  1.1512  1.0101
17213SOL    HW263699   0.638   6.533   3.411  3.2507  0.1621 -1.1711
17214SOL     OW63700   3.185   9.537   7.386 -0.1894  0.2012  0.4675
17214SOL    HW163701   3.173   9.606   7.315 -0.8352 -0.4742 -0.0889
17214SOL    HW263702   3.240   9.462   7.351  2.1086  1.2764  1.6594
17215SOL     OW63703   2.741   2.288   8.288  0.2018 -0.2405  0.2247
17215SOL    HW163704   2.674   2.255   8.221 -0.3443 -0.4661  0.8850
17215SOL    HW263705   2.704   2.278   8.380 -0.0603  2.4169  0.4298
17216SOL     OW63706   6.093   3.830   1.891 -0.1457  0.0508  0.1198
17216SOL    HW163707   6.154   3.862   1.964 -2.3471  0.7111  1.7132
17216SOL    HW263708   6.079   3.904   1.825  0.3832  0.0550  0.0080
17217SOL     OW63709   1.241   2.162   8.314 -0.2027  0.1498  0.2433
17217SOL    HW163710   1.279   2.133   8.226 -0.1088  0.1001  0.2998
17217SOL    HW263711   1.153   2.207   8.300 -2.2487 -3.6172  0.4768
17218SOL     OW63712   1.279   3.656   1.117 -0.1274  0.2677 -0.0893
17218SOL    HW163713   1.235   3.621   1.200  0.4026 -0.0075  0.0796
17218SOL    HW263714   1.260   3.593   1.041 -0.9314  0.7208 -0.2645
17219SOL     OW63715   8.120   5.216   8.715  0.0282 -0.0742 -0.1353
17219SOL    HW163716   8.157   5.196   8.624  0.2554  0.6599 -0.2085
17219SOL    HW263717   8.133   5.313   8.736  0.9209 -0.4451  1.1056
17220SOL     OW63718   9.543   4.821   2.566  0.3218 -0.1560  0.0179
17220SOL    HW163719   9.641   4.837   2.555  0.6946 -1.4567  1.2739
17220SOL    HW263720   9.516   4.739   2.514 -0.2516  0.6483 -0.9597
17221SOL     OW63721   7.016   7.078   8.006 -0.2155  0.1671 -0.0766
17221SOL    HW163722   6.933   7.094   7.952 -0.2825 -3.5891 -1.2453
17221SOL    HW263723   6.991   7.043   8.096  0.0652 -1.3934 -0.5886
17222SOL     OW63724   6.974   3.714   8.086  0.0121 -0.3106  0.6496
17222SOL    HW163725   6.938   3.679   8.172  0.0813  0.8168  1.1417
17222SOL    HW263726   6.989   3.813   8.093  1.5854 -0.4780 -0.1104
17223SOL     OW63727   4.423   8.102   1.962 -0.6124 -0.1800  0.1697
17223SOL    HW163728   4.340   8.122   1.909 -1.1086 -1.4443  0.4398
17223SOL    HW263729   4.501   8.150   1.921 -1.2795  0.1598 -0.7395
17224SOL     OW63730   0.378   4.276   1.913  0.0684  0.1209 -0.3039
17224SOL    HW163731   0.416   4.184   1.923  0.9193  0.5356  0.3654
17224SOL    HW263732   0.309   4.291   1.984 -1.2853 -0.5980 -1.4589
17225SOL     OW63733   6.377   8.895   5.539 -0.7694 -0.6427 -0.4754
17225SOL    HW163734   6.376   8.976   5.598  1.0174 -1.7467  1.1241
17225SOL    HW263735   6.314   8.827   5.575 -0.8043 -0.7254 -0.6956
17226SOL     OW63736   8.698   8.680   3.301 -0.4724 -0.1494  0.7508
17226SOL    HW163737   8.695   8.584   3.329 -3.1079 -0.8022 -1.5403
17226SOL    HW263738   8.757   8.690   3.221  0.0516  0.1751  1.1814
17227SOL     OW63739   3.936   7.365   6.411 -0.6628  0.2946 -0.2161
17227SOL    HW163740   3.956   7.442   6.471 -0.1259  1.1676 -1.4906
17227SOL    HW263741   3.954   7.391   6.316 -0.6701 -1.3412 -0.6804
17228SOL     OW63742   2.836   8.997   7.290  0.1247 -0.3825 -0.0791
17228SOL    HW163743   2.785   9.035   7.213 -0.3014  0.8312  0.7712
17228SOL    HW263744   2.924   9.043   7.298  0.7922 -1.5361 -0.7289
17229SOL     OW63745   1.335   3.747   7.270 -0.1422 -0.2181  0.3315
17229SOL    HW163746   1.338   3.820   7.201  0.0390  0.7645  1.3579
17229SOL    HW263747   1.263   3.767   7.336  1.2939  0.1300  1.8115
17230SOL     OW63748   2.309   5.252   9.546  0.0668 -0.5017 -0.1580
17230SOL    HW163749   2.316   5.218   9.640 -2.0046 -1.2034 -0.2293
17230SOL    HW263750   2.368   5.197   9.487  0.3801 -0.9203  0.5345
17231SOL     OW63751   8.621   4.716   5.684  0.1283  0.2831 -0.2542
17231SOL    HW163752   8.677   4.768   5.620  0.1785  0.6877  0.1183
17231SOL    HW263753   8.527   4.749   5.679  0.6605  2.2751  1.9197
17232SOL     OW63754   8.203   3.451   3.718  0.6683  0.4242 -0.0233
17232SOL    HW163755   8.289   3.442   3.667 -0.4913 -3.8641 -1.4597
17232SOL    HW263756   8.207   3.393   3.799 -1.4215 -1.1055 -0.9768
17233SOL     OW63757   5.347   9.270   8.580 -0.1634  0.2020 -0.3713
17233SOL    HW163758   5.335   9.363   8.614 -0.7015 -0.4817  1.4018
17233SOL    HW263759   5.260   9.235   8.546  0.0468  0.3545 -1.0750
17234SOL     OW63760   8.552   0.640   4.714  0.0520 -0.0731  0.1512
17234SOL    HW163761   8.522   0.624   4.620  1.1917 -0.7820 -0.1004
17234SOL    HW263762   8.472   0.654   4.773 -0.6224  2.0668 -1.2106
17235SOL     OW63763   6.827   3.863   0.476  0.1315  0.1185  0.1496
17235SOL    HW163764   6.881   3.793   0.521  0.8192 -0.8799 -2.1409
17235SOL    HW263765   6.866   3.882   0.385 -3.4584 -0.7765 -1.6650
17236SOL     OW63766   4.710   8.827   3.900 -0.3092  0.4039 -0.6197
17236SOL    HW163767   4.655   8.775   3.834 -0.6631 -1.2324  0.9376
17236SOL    HW263768   4.671   8.919   3.909 -1.9127 -0.2489 -0.6463
17237SOL     OW63769   6.862   6.324   0.745 -0.5422  0.2264  0.2217
17237SOL    HW163770   6.870   6.386   0.667  0.8718  0.9006  0.8869
17237SOL    HW263771   6.933   6.254   0.740  0.1057  0.7925  1.3626
17238SOL     OW63772   2.566   6.899   8.984 -0.2368  0.1094  0.2614
17238SOL    HW163773   2.491   6.856   8.933 -1.4154  1.0225  1.1906
17238SOL    HW263774   2.546   6.996   8.996  1.7876  0.6818 -0.7201
17239SOL     OW63775   0.246   6.795   5.166  0.1250 -0.2491 -0.1998
17239SOL    HW163776   0.256   6.741   5.250 -2.5363 -1.2565 -0.5089
17239SOL    HW263777   0.289   6.746   5.090  2.6954  0.7408  0.5356
17240SOL     OW63778   0.683   3.237   2.886 -0.5434  0.3930 -0.5327
17240SOL    HW163779   0.761   3.200   2.835  0.1383 -1.9878  2.1517
17240SOL    HW263780   0.709   3.326   2.924  0.5419  0.0867 -0.5152
17241SOL     OW63781   8.288   0.734   6.125  0.3142  0.2722  0.5547
17241SOL    HW163782   8.311   0.807   6.060  1.0229 -0.4623 -0.0350
17241SOL    HW263783   8.275   0.649   6.076  1.2100 -0.3719  1.4118
17242SOL     OW63784   4.239   2.195   5.275 -0.3611  0.5718 -0.3353
17242SOL    HW163785   4.239   2.290   5.243 -1.3177  1.0032  0.9424
17242SOL    HW263786   4.198   2.137   5.204 -1.8638  1.4299 -0.1917
17243SOL     OW63787   6.104   5.764   8.305 -0.1800 -0.6184 -0.1203
17243SOL    HW163788   6.093   5.690   8.371 -2.9848  0.5190  0.7521
17243SOL    HW263789   6.145   5.844   8.350 -0.5663 -0.4018 -0.1486
17244SOL     OW63790   3.529   7.468   1.800  0.0637  0.4570 -0.1583
17244SOL    HW163791   3.545   7.383   1.850 -0.2583  0.9175  0.7386
17244SOL    HW263792   3.616   7.504   1.766  0.1412 -0.4985 -0.9965
17245SOL     OW63793   7.979   9.701   5.776  0.2055  0.8629  0.6981
17245SOL    HW163794   7.956   9.747   5.691  0.5296  1.2916  0.8430
17245SOL    HW263795   8.009   9.768   5.844 -0.3378  0.5574  1.2477
17246SOL     OW63796   9.166   5.844   4.039 -0.5990 -0.2812  0.5387
17246SOL    HW163797   9.116   5.849   3.953  2.4049 -0.7161 -1.3277
17246SOL    HW263798   9.172   5.749   4.069  2.2118 -0.7278 -1.2429
17247SOL     OW63799   7.229   5.363   9.473 -0.2747  0.0061 -0.0573
17247SOL    HW163800   7.171   5.442   9.490  0.6448  1.1509 -2.0136
17247SOL    HW263801   7.325   5.388   9.488 -0.0590 -1.0411  0.3618
17248SOL     OW63802   8.581   6.714   5.663  0.1230 -0.2538 -0.1471
17248SOL    HW163803   8.675   6.731   5.694  0.1765 -0.6682 -0.0891
17248SOL    HW263804   8.533   6.657   5.729 -0.4597  0.7013  0.2784
17249SOL     OW63805   2.403   3.107   3.572  0.4690  0.3334 -0.3749
17249SOL    HW163806   2.421   3.179   3.639 -2.6562  1.1794 -0.3863
17249SOL    HW263807   2.343   3.142   3.500 -1.0733 -2.2529 -0.4184
17250SOL     OW63808   3.718   0.270   8.749  0.4659 -0.2594  0.0061
17250SOL    HW163809   3.666   0.304   8.827 -1.1697 -1.0860 -0.6811
17250SOL    HW263810   3.718   0.170   8.749  2.7149 -0.2750  0.3950
17251SOL     OW63811   9.462   4.780   0.504  0.7095 -0.4371 -0.2388
17251SOL    HW163812   9.365   4.755   0.512  0.4430  0.1365 -1.6155
17251SOL    HW263813   9.513   4.738   0.579 -0.5565 -0.9845  0.3338
17252SOL     OW63814   8.419   5.002   8.223 -0.4735 -0.6920 -0.5762
17252SOL    HW163815   8.510   5.008   8.264 -0.1372 -0.0707 -1.4002
17252SOL    HW263816   8.425   4.957   8.134 -1.2614 -2.4133  0.2076
17253SOL     OW63817   0.787   0.113   0.883 -0.1871 -0.2378  0.0810
17253SOL    HW163818   0.809   0.080   0.791  2.5469 -0.9004  0.9259
17253SOL    HW263819   0.819   0.207   0.894 -3.5538  1.0564 -0.7082
17254SOL     OW63820   7.036   3.843   1.295 -0.0675  0.4567  0.4743
17254SOL    HW163821   7.003   3.936   1.282 -2.4319 -0.4614 -0.2664
17254SOL    HW263822   7.080   3.812   1.211 -2.4039 -0.3034 -0.5147
17255SOL     OW63823   1.287   1.738   1.936  0.7590 -0.0745  0.3771
17255SOL    HW163824   1.354   1.709   1.868  1.3437  2.5217 -0.2000
17255SOL    HW263825   1.278   1.837   1.934 -1.9874 -0.2433  1.5055
17256SOL     OW63826   8.828   4.328   1.496  0.9397  0.7473 -0.1487
17256SOL    HW163827   8.913   4.287   1.530  1.0422  0.8471 -0.2816
17256SOL    HW263828   8.840   4.427   1.487  1.1918  0.6155 -1.2857
17257SOL     OW63829   3.313   5.509   6.295  1.0620  0.2184 -0.0739
17257SOL    HW163830   3.281   5.582   6.235  0.3344  0.4198  0.5532
17257SOL    HW263831   3.343   5.548   6.382 -0.0231 -0.3057  0.5349
17258SOL     OW63832   1.673   0.476   7.046 -0.0014  0.3500  0.6664
17258SOL    HW163833   1.666   0.379   7.022  1.1497 -0.1093  2.1123
17258SOL    HW263834   1.653   0.489   7.143  0.3290  1.4951  0.5968
17259SOL     OW63835   1.437   9.692   5.127 -0.2997 -0.2508 -0.5346
17259SOL    HW163836   1.489   9.771   5.158 -0.6725  0.1571 -0.9478
17259SOL    HW263837   1.415   9.633   5.205  0.7685 -0.4213 -0.3576
17260SOL     OW63838   8.643   5.824   0.096 -0.4507 -0.6080 -0.9118
17260SOL    HW163839   8.729   5.871   0.116 -0.4130 -1.8166  2.0018
17260SOL    HW263840   8.567   5.873   0.138 -0.7652 -1.4291 -0.5063
17261SOL     OW63841   2.547   0.735   1.408 -0.0739  0.1555  0.3565
17261SOL    HW163842   2.507   0.815   1.452  0.8575 -0.1489  1.8076
17261SOL    HW263843   2.482   0.697   1.342 -0.8871  1.5463  0.3365
17262SOL     OW63844   3.146   2.566   8.267  0.5109  0.1174  0.4857
17262SOL    HW163845   3.229   2.578   8.321  1.0603 -0.4662 -0.2247
17262SOL    HW263846   3.083   2.505   8.315  0.3216  0.8597  1.2005
17263SOL     OW63847   0.038   2.556   2.367  0.4560  0.0617  0.5762
17263SOL    HW163848  -0.052   2.513   2.356  0.0719  0.9149  0.3266
17263SOL    HW263849   0.050   2.583   2.463  1.0731 -1.4130  0.9223
17264SOL     OW63850   3.469   2.115   3.015 -0.5466  0.2012  0.3906
17264SOL    HW163851   3.434   2.074   2.930  0.5651  0.2795 -0.1207
17264SOL    HW263852   3.532   2.189   2.992  0.4582 -0.3687  1.2717
17265SOL     OW63853   2.899   7.721   6.621 -0.2109  0.5127  0.0786
17265SOL    HW163854   2.932   7.654   6.688 -1.0871 -0.7365 -0.7198
17265SOL    HW263855   2.805   7.747   6.643 -0.1004  0.9761  0.0045
17266SOL     OW63856   8.811   7.353   1.402  0.0438  0.2469  0.0413
17266SOL    HW163857   8.738   7.421   1.401 -0.3388 -0.1550  0.6672
17266SOL    HW263858   8.819   7.311   1.311  0.0975  0.9162 -0.2731
17267SOL     OW63859   8.690   4.072   9.549 -0.0052 -0.3313 -1.0361
17267SOL    HW163860   8.593   4.080   9.572 -0.3518 -3.0669 -1.4509
17267SOL    HW263861   8.715   4.144   9.485 -1.7593  0.3841 -0.9363
17268SOL     OW63862   0.666   5.233   9.985 -0.1863 -0.2166 -0.0464
17268SOL    HW163863   0.722   5.157   9.952  1.7113  1.5186 -0.9711
17268SOL    HW263864   0.588   5.247   9.924 -0.0272 -0.8223 -0.3871
17269SOL     OW63865   8.245   2.217   4.681  0.2148  0.0197 -0.1505
17269SOL    HW163866   8.289   2.155   4.745  1.1403 -0.2614 -1.0292
17269SOL    HW263867   8.228   2.305   4.726 -0.8437 -0.7699  1.0072
17270SOL     OW63868   9.618   1.086   9.223 -0.8687  0.1899  0.4897
17270SOL    HW163869   9.656   1.029   9.149 -1.6212 -0.9226  0.9523
17270SOL    HW263870   9.630   1.182   9.199 -1.2276 -0.1521 -1.1634
17271SOL     OW63871   1.850   3.942   8.940  0.4436 -0.7284 -0.1318
17271SOL    HW163872   1.890   3.922   9.029  0.9889 -1.4069 -0.5237
17271SOL    HW263873   1.750   3.939   8.946  0.4002  1.6994  1.0264
17272SOL     OW63874   9.193   0.615   8.240 -0.4817 -0.0505  0.0706
17272SOL    HW163875   9.167   0.709   8.262  1.8041  0.6109  0.0983
17272SOL    HW263876   9.263   0.616   8.169 -0.5906 -1.7537 -0.0666
17273SOL     OW63877   0.426   7.725   0.778  0.2116 -0.3216  0.8698
17273SOL    HW163878   0.499   7.663   0.805  1.2726  0.5953  0.1398
17273SOL    HW263879   0.426   7.736   0.678 -2.1572 -1.8351  0.6737
17274SOL     OW63880   0.794   0.753   6.716 -0.4751 -0.2300 -0.0673
17274SOL    HW163881   0.820   0.749   6.620 -0.0678  2.3442 -0.0885
17274SOL    HW263882   0.865   0.708   6.772 -0.2971 -0.9600 -0.8682
17275SOL     OW63883   9.397   9.674   6.507 -0.2511  0.3417  0.1643
17275SOL    HW163884   9.358   9.632   6.425  0.4009  2.0620 -1.0868
17275SOL    HW263885   9.324   9.705   6.567 -0.8127  1.4220 -1.0421
17276SOL     OW63886   0.985   3.271   5.296  0.3043  0.5863  0.1621
17276SOL    HW163887   0.937   3.189   5.266  2.0021 -0.2160 -0.4287
17276SOL    HW263888   1.079   3.247   5.321  1.2976  2.5921 -1.4787
17277SOL     OW63889   0.168   4.804   0.431 -0.2800 -0.0002  0.2255
17277SOL    HW163890   0.152   4.766   0.339  0.6805 -0.3763  0.2052
17277SOL    HW263891   0.081   4.818   0.477 -0.6986 -1.3530 -0.1369
17278SOL     OW63892   1.592   0.564   7.597  0.5540 -0.5765  0.2745
17278SOL    HW163893   1.597   0.473   7.639 -0.6522 -0.2287  1.1982
17278SOL    HW263894   1.649   0.627   7.649 -0.8350 -0.1756  1.3263
17279SOL     OW63895   9.482   0.079   6.015 -0.0895 -0.0547  0.1786
17279SOL    HW163896   9.424   0.010   6.059  0.2382  0.4390  1.3943
17279SOL    HW263897   9.491   0.057   5.918 -1.4578 -0.7195  0.1865
17280SOL     OW63898   4.482   9.352   9.405  0.7999  0.7448  0.3159
17280SOL    HW163899   4.582   9.344   9.408  0.8399  1.0719 -0.0316
17280SOL    HW263900   4.441   9.262   9.420  1.1136  0.8313  1.7427
17281SOL     OW63901   5.403   0.185   3.880  0.0922  0.2997 -0.1855
17281SOL    HW163902   5.326   0.241   3.912  1.3383  1.8293  0.2071
17281SOL    HW263903   5.393   0.092   3.914 -1.1607  0.7016  0.5646
17282SOL     OW63904   2.456   7.557   9.626 -0.6035 -0.2369 -0.0658
17282SOL    HW163905   2.490   7.639   9.670 -0.7888 -1.3342  2.1581
17282SOL    HW263906   2.432   7.578   9.531 -1.2294  2.4060  0.6390
17283SOL     OW63907   1.692   4.278   4.287 -0.5014  0.5541 -0.0957
17283SOL    HW163908   1.782   4.234   4.278 -0.3294  1.3168 -2.4664
17283SOL    HW263909   1.643   4.270   4.200 -0.8740  4.0896 -0.2684
17284SOL     OW63910   1.282   9.665   8.147  0.4549 -0.1453 -0.3724
17284SOL    HW163911   1.192   9.623   8.137 -0.2813  1.1534  0.6530
17284SOL    HW263912   1.306   9.670   8.244  0.9841  0.8520 -0.5434
17285SOL     OW63913   6.265   8.253   7.129  0.3682  0.2119  0.3255
17285SOL    HW163914   6.262   8.154   7.138  1.3593 -0.0578 -1.9575
17285SOL    HW263915   6.354   8.280   7.092  0.7452  2.1080  2.4777
17286SOL     OW63916   5.826   1.663   5.996 -0.4157 -0.0072  0.1151
17286SOL    HW163917   5.762   1.590   5.971  0.1539 -0.6140  0.4010
17286SOL    HW263918   5.898   1.625   6.054  0.3067  0.6365 -0.3561
17287SOL     OW63919   1.906   7.510   4.720 -0.1224 -0.9733 -0.1898
17287SOL    HW163920   1.845   7.438   4.688 -2.0051 -1.3624  4.0092
17287SOL    HW263921   1.957   7.477   4.799  1.1868  1.3483 -0.0344
17288SOL     OW63922   4.649   4.577   0.234  0.4347 -0.2292  0.3312
17288SOL    HW163923   4.739   4.617   0.250  0.0350  1.1850 -0.8411
17288SOL    HW263924   4.604   4.625   0.158 -1.5220 -0.5439  1.2524
17289SOL     OW63925   8.890   2.133   2.588  0.3359 -0.0801  0.0816
17289SOL    HW163926   8.958   2.162   2.520  1.0147 -0.9868  0.3565
17289SOL    HW263927   8.844   2.050   2.555  0.8402 -0.6670  0.8334
17290SOL     OW63928   4.900   6.172   1.334  0.4618 -0.1092 -0.3482
17290SOL    HW163929   4.840   6.111   1.387 -1.3356  0.9618 -1.1070
17290SOL    HW263930   4.937   6.243   1.395 -0.7393  0.4759 -0.2820
17291SOL     OW63931   4.806   0.099   7.132  0.3234  0.0622  0.0164
17291SOL    HW163932   4.901   0.087   7.159  0.9972  1.2276 -1.7378
17291SOL    HW263933   4.778   0.025   7.071  0.0485 -0.3675  0.6591
17292SOL     OW63934   1.793   8.594   6.390 -1.0528  0.0266  0.1112
17292SOL    HW163935   1.786   8.504   6.347  1.0518 -0.7995  1.4049
17292SOL    HW263936   1.767   8.665   6.325 -2.5513 -1.5018 -0.9880
17293SOL     OW63937   9.615   6.606   8.160 -0.4374  0.2523 -0.1305
17293SOL    HW163938   9.709   6.630   8.138 -0.8269 -0.2196 -2.3346
17293SOL    HW263939   9.596   6.512   8.132 -1.1637 -0.1633  1.6276
17294SOL     OW63940   1.317   5.179   8.131  0.4684 -0.2067 -0.3780
17294SOL    HW163941   1.268   5.260   8.100  0.4470 -0.4414 -0.9500
17294SOL    HW263942   1.411   5.205   8.155  0.2738  0.1077  0.0524
17295SOL     OW63943   9.707   9.990   5.262 -0.2908 -0.0171 -0.2273
17295SOL    HW163944   9.736   9.929   5.188  0.0496 -0.4186  0.2329
17295SOL    HW263945   9.609  10.009   5.253  0.3677  2.5272 -2.6535
17296SOL     OW63946   8.800   4.135   0.471  0.1120 -0.1756  0.2405
17296SOL    HW163947   8.820   4.194   0.550  0.2642 -0.2037  0.2229
17296SOL    HW263948   8.885   4.115   0.422  0.1104 -0.6902  0.4410
17297SOL     OW63949   9.069   1.015   8.842  0.3607  0.0524  0.3173
17297SOL    HW163950   9.094   0.950   8.770  0.6418 -1.0242  1.3706
17297SOL    HW263951   8.978   0.992   8.877 -0.5657  1.7014 -0.9496
17298SOL     OW63952   9.555   5.339   9.800 -0.3265 -0.0037 -0.0853
17298SOL    HW163953   9.610   5.394   9.738 -1.6426 -0.9057 -2.1034
17298SOL    HW263954   9.607   5.258   9.827  0.3632  0.5392  0.2114
17299SOL     OW63955   2.185   1.704   9.047 -0.6852  0.4340 -0.2130
17299SOL    HW163956   2.195   1.668   8.954  0.6859  0.4044 -0.0688
17299SOL    HW263957   2.199   1.631   9.113 -1.2995  0.5315  0.0303
17300SOL     OW63958   2.852   5.227   6.731  0.3149 -0.1547 -0.5028
17300SOL    HW163959   2.783   5.199   6.798  2.1980 -0.5891  1.2909
17300SOL    HW263960   2.809   5.285   6.662 -2.1211 -1.4967 -0.1809
17301SOL     OW63961   4.126   3.292   8.951 -0.1201 -0.6931  0.0698
17301SOL    HW163962   4.200   3.241   8.908 -0.5384 -1.3049  0.0688
17301SOL    HW263963   4.157   3.326   9.040  0.6115  0.2335 -0.5275
17302SOL     OW63964   2.268   1.234   6.350 -0.5186 -0.3313  0.5448
17302SOL    HW163965   2.357   1.193   6.333 -0.9947 -1.4946  0.7965
17302SOL    HW263966   2.205   1.210   6.276 -0.2577  1.6139 -0.3314
17303SOL     OW63967   1.893   4.708   0.366  0.0028 -0.1659 -0.1904
17303SOL    HW163968   1.932   4.638   0.307  0.6245  0.5930 -0.6955
17303SOL    HW263969   1.796   4.721   0.343  0.6846  1.4007 -2.3036
17304SOL     OW63970   8.349   8.208   9.312 -0.2530  0.2000  0.3499
17304SOL    HW163971   8.305   8.141   9.252  0.2704 -0.5069  0.7528
17304SOL    HW263972   8.393   8.161   9.389 -0.1150  1.0248  0.7818
17305SOL     OW63973   8.486   9.746   3.220  0.1687 -0.0569  0.0771
17305SOL    HW163974   8.578   9.716   3.245 -0.1183 -0.4277  0.7017
17305SOL    HW263975   8.419   9.689   3.268 -0.3860  1.3282  0.9788
17306SOL     OW63976   5.811   0.839   6.216  0.0781  0.1624 -0.1979
17306SOL    HW163977   5.756   0.881   6.143 -0.7058  0.2029  0.4063
17306SOL    HW263978   5.799   0.740   6.213 -1.0256  0.2557  0.7114
17307SOL     OW63979   9.939   1.031   3.089 -0.1347  0.2799  0.0322
17307SOL    HW163980  10.028   1.012   3.047 -0.7587 -0.8687 -0.8288
17307SOL    HW263981   9.950   1.048   3.186  0.7530 -2.5220  0.4626
17308SOL     OW63982   0.383   0.279   6.331 -0.2669 -0.0777 -0.0990
17308SOL    HW163983   0.391   0.266   6.233 -1.2724 -1.3672 -0.0263
17308SOL    HW263984   0.454   0.227   6.378  0.8157  1.3147 -0.1821
17309SOL     OW63985   8.540   7.523   5.248 -0.3598 -0.1125 -0.5988
17309SOL    HW163986   8.565   7.489   5.338 -0.9377 -0.0325 -0.4063
17309SOL    HW263987   8.466   7.591   5.256 -1.2797 -1.0085 -1.2180
17310SOL     OW63988   0.840   1.972   5.202  0.5754  0.0866  0.4584
17310SOL    HW163989   0.921   1.947   5.147  0.3150 -0.8474  0.4840
17310SOL    HW263990   0.821   1.899   5.267 -1.2106 -0.4225 -0.5916
17311SOL     OW63991   4.867   6.178   1.697  0.4953  0.3890  0.2652
17311SOL    HW163992   4.792   6.190   1.633 -1.1633  0.9320  2.2725
17311SOL    HW263993   4.887   6.265   1.742  2.3697  0.2596 -0.2704
17312SOL     OW63994   0.070   0.089   5.025  0.5338  0.4200  0.2703
17312SOL    HW163995   0.101   0.129   5.111  0.8641  2.3199 -0.6966
17312SOL    HW263996  -0.012   0.138   4.994  0.3640 -0.3114 -0.4412
17313SOL     OW63997   0.815   0.834   4.501  0.2674 -0.0343 -0.7514
17313SOL    HW163998   0.741   0.768   4.509 -0.1627  0.5090 -0.2072
17313SOL    HW263999   0.843   0.842   4.405 -1.0599  0.5074 -1.0971
17314SOL     OW64000   8.438   4.611   8.382 -0.2024  0.6462 -0.0556
17314SOL    HW164001   8.366   4.678   8.398 -1.1189  0.2927 -2.4364
17314SOL    HW264002   8.398   4.520   8.367  0.8035  0.2182 -0.2672
17315SOL     OW64003   9.995   7.733   8.473  0.1185 -0.3652 -0.6930
17315SOL    HW164004   9.978   7.790   8.554 -0.2914 -0.7319 -0.5155
17315SOL    HW264005   9.955   7.642   8.487  1.4098 -0.9376 -0.6806
17316SOL     OW64006   9.890   7.195   6.714 -0.3388 -0.0848  0.8678
17316SOL    HW164007   9.930   7.185   6.805 -1.0255  1.8160  1.3821
17316SOL    HW264008   9.937   7.268   6.664 -0.2086 -0.8694 -0.1781
17317SOL     OW64009   9.147   3.072   9.494 -0.0787 -0.3737  0.4749
17317SOL    HW164010   9.057   3.063   9.535 -0.1993 -0.2132  0.2467
17317SOL    HW264011   9.157   3.004   9.421  0.4850 -1.2883  1.3958
17318SOL     OW64012   6.067   0.351   1.467 -0.0211  0.1645 -0.1654
17318SOL    HW164013   6.156   0.389   1.443  0.2683 -0.1239  0.4320
17318SOL    HW264014   6.069   0.321   1.562 -1.1900  1.4553  0.2839
17319SOL     OW64015   3.338   8.313   6.265  0.1821  0.3996  0.0010
17319SOL    HW164016   3.400   8.246   6.306  1.3168  0.1726 -1.9880
17319SOL    HW264017   3.299   8.274   6.181  0.4265  2.0268 -0.8794
17320SOL     OW64018   9.784   7.117   9.430  0.0163 -0.1270  0.1311
17320SOL    HW164019   9.849   7.052   9.467  0.6553  0.2070 -0.4040
17320SOL    HW264020   9.745   7.082   9.345  0.4111  0.2214 -0.1930
17321SOL     OW64021   1.982   9.287   3.351 -0.1716 -0.1783 -0.4105
17321SOL    HW164022   1.980   9.387   3.362 -0.7486 -0.1246 -0.9682
17321SOL    HW264023   2.060   9.262   3.293  0.9652 -0.2005  1.0912
17322SOL     OW64024   1.828   2.946   0.313 -1.0525  0.0996 -0.4950
17322SOL    HW164025   1.771   2.977   0.237 -2.3653  0.1152  0.4935
17322SOL    HW264026   1.854   2.851   0.299 -1.3562  0.0766 -0.9182
17323SOL     OW64027   6.579   9.983   9.062  0.4236  0.1286  0.0461
17323SOL    HW164028   6.620  10.073   9.050  0.9175 -0.1990 -0.7408
17323SOL    HW264029   6.616   9.920   8.994  1.9536 -1.3221  2.1518
17324SOL     OW64030   8.983   7.192   7.457  0.2712 -0.3122  0.8889
17324SOL    HW164031   9.029   7.110   7.492  1.5254 -0.4241 -0.9970
17324SOL    HW264032   9.032   7.273   7.489  0.7664 -0.3870  0.3342
17325SOL     OW64033   7.557   6.717   3.685  0.1544 -0.7667  0.0901
17325SOL    HW164034   7.606   6.766   3.612  0.0049  1.6474  1.5587
17325SOL    HW264035   7.611   6.722   3.769 -1.1179 -0.9038  0.9110
17326SOL     OW64036   3.083   8.024   1.055 -0.3851  0.3598 -0.1240
17326SOL    HW164037   3.136   7.983   1.129 -1.9799  1.8654  1.9278
17326SOL    HW264038   2.986   8.015   1.075 -0.8627  0.3605 -2.3103
17327SOL     OW64039   2.032   7.860   3.586  0.1076  0.3386 -0.0231
17327SOL    HW164040   2.119   7.812   3.577 -0.2393 -0.2849 -0.0985
17327SOL    HW264041   2.024   7.900   3.677  0.2004 -0.1444  0.1966
17328SOL     OW64042   7.221   7.717   7.989  0.7224 -0.3977  0.0125
17328SOL    HW164043   7.229   7.804   8.038  0.2668  0.1605 -0.8941
17328SOL    HW264044   7.290   7.653   8.024  2.1851  0.8752 -0.4458
17329SOL     OW64045   3.364   9.209   9.901 -0.3241 -0.7525 -0.5387
17329SOL    HW164046   3.274   9.170   9.882 -1.1845  0.9907 -0.1018
17329SOL    HW264047   3.354   9.303   9.934  1.6498 -0.5676 -0.3926
17330SOL     OW64048   4.081   3.933   6.992 -0.0853 -0.4311  0.2108
17330SOL    HW164049   4.166   3.881   6.981 -0.3636 -0.8713  0.1511
17330SOL    HW264050   4.003   3.873   6.976 -0.4379 -0.3366  1.5659
17331SOL     OW64051   8.028   4.715   7.415  0.0636  0.2633 -0.8671
17331SOL    HW164052   7.940   4.672   7.394  0.5280 -1.3800  0.4470
17331SOL    HW264053   8.012   4.801   7.462 -0.8517 -0.0568 -0.5712
17332SOL     OW64054   4.117   8.407   5.223 -0.8156 -0.8703 -0.0448
17332SOL    HW164055   4.053   8.482   5.237 -2.0704 -1.9239 -0.0814
17332SOL    HW264056   4.136   8.363   5.311 -1.5914 -1.7167 -0.2894
17333SOL     OW64057   4.170   9.864   5.378 -0.1980  0.6399  0.1170
17333SOL    HW164058   4.126   9.946   5.415  0.6767  0.9787  0.4192
17333SOL    HW264059   4.269   9.869   5.392 -0.1439 -0.5351  0.2658
17334SOL     OW64060   1.481   8.958   7.955  0.0435 -0.5115 -0.2550
17334SOL    HW164061   1.415   9.033   7.943  0.9011  0.3381  0.2911
17334SOL    HW264062   1.435   8.871   7.940 -0.3582  0.2162 -3.6853
17335SOL     OW64063   0.689   5.399   9.533  0.2841  0.4062  0.3068
17335SOL    HW164064   0.757   5.333   9.565  0.1107  0.9627  1.8790
17335SOL    HW264065   0.735   5.487   9.516  0.1250  0.5081  0.4059
17336SOL     OW64066   4.106   1.013   2.547  0.3253  0.1916 -0.4287
17336SOL    HW164067   4.111   0.995   2.646  3.1516 -2.6791 -1.0273
17336SOL    HW264068   4.140   1.105   2.528  1.3017  0.1648  1.1123
17337SOL     OW64069   0.468   7.387   3.092  0.5076  0.0420 -0.2087
17337SOL    HW164070   0.481   7.330   3.010 -0.0123  0.1088 -0.3410
17337SOL    HW264071   0.509   7.341   3.171 -0.0017 -0.5737 -0.2949
17338SOL     OW64072   2.773   8.820  10.024  0.3820 -0.2991 -0.0067
17338SOL    HW164073   2.837   8.746  10.005  1.0761  0.1782  0.4426
17338SOL    HW264074   2.816   8.887  10.085 -0.6912 -0.1811  0.6383
17339SOL     OW64075   9.773   7.886   0.261  0.3380 -0.1226  0.0206
17339SOL    HW164076   9.818   7.883   0.350 -1.0496 -0.5927  0.7269
17339SOL    HW264077   9.697   7.821   0.259 -0.3000  0.6184 -1.1431
17340SOL     OW64078   1.994   0.109   2.726 -0.1505 -0.2235  0.7355
17340SOL    HW164079   2.009   0.199   2.685  1.1122 -0.0709  1.5225
17340SOL    HW264080   1.896   0.093   2.736 -0.3806  1.0990  0.6562
17341SOL     OW64081   8.424   2.277   7.271 -0.7905  0.6344  0.3450
17341SOL    HW164082   8.328   2.248   7.271 -1.1720  1.6940 -2.7659
17341SOL    HW264083   8.478   2.213   7.215  0.7244 -0.9827  3.4961
17342SOL     OW64084   0.680   5.700   7.804  0.2093 -0.0574  0.0285
17342SOL    HW164085   0.658   5.613   7.760  0.8047 -0.6492  0.8644
17342SOL    HW264086   0.778   5.703   7.824  0.2140  0.8648 -0.1098
17343SOL     OW64087   6.393   9.445   8.127  0.1472  0.0450  0.3856
17343SOL    HW164088   6.332   9.487   8.059  1.3843 -0.6851 -1.2073
17343SOL    HW264089   6.368   9.349   8.139 -0.3138  0.2683  1.2734
17344SOL     OW64090   4.189   4.574   7.011 -0.2979 -0.0268 -1.2335
17344SOL    HW164091   4.281   4.564   7.049 -0.8168 -0.9798 -0.2332
17344SOL    HW264092   4.149   4.659   7.044 -0.1482 -0.0866 -0.8961
17345SOL     OW64093   9.344   4.251   8.535  0.5839  0.0514  0.7995
17345SOL    HW164094   9.413   4.252   8.463  0.9555 -0.8400  1.1315
17345SOL    HW264095   9.376   4.194   8.611 -1.1375 -1.5967  0.3234
17346SOL     OW64096   9.015   1.083   3.198 -0.5352 -0.3323  0.3427
17346SOL    HW164097   9.027   1.165   3.254 -1.3183  0.0164  0.0045
17346SOL    HW264098   9.040   1.003   3.252 -0.7073  0.0483  1.0036
17347SOL     OW64099   2.251   6.354   8.038  0.0918 -0.5336 -0.1014
17347SOL    HW164100   2.232   6.403   7.954 -0.5192 -0.7868 -0.1116
17347SOL    HW264101   2.179   6.371   8.105  0.9880  0.3310  0.6701
17348SOL     OW64102   9.529   0.698   9.440 -0.5061 -0.6372 -0.4033
17348SOL    HW164103   9.581   0.747   9.510  1.8710 -1.9474 -1.1989
17348SOL    HW264104   9.439   0.740   9.431  0.3695  1.6884  1.0463
17349SOL     OW64105   9.869   1.979   8.228  0.2670 -0.3260 -0.8229
17349SOL    HW164106   9.926   2.006   8.151 -1.1157 -0.0444 -1.7740
17349SOL    HW264107   9.839   1.884   8.216  0.7110 -0.5459 -0.2172
17350SOL     OW64108   1.312   1.538   0.271  0.0679  0.2559 -0.2427
17350SOL    HW164109   1.282   1.617   0.216 -1.8407  1.1333  1.9811
17350SOL    HW264110   1.323   1.459   0.211 -0.7166  1.4958 -2.1021
17351SOL     OW64111   0.803   0.328   9.319 -0.7692  0.3215  0.5345
17351SOL    HW164112   0.884   0.374   9.285 -1.0812  1.2476  1.0487
17351SOL    HW264113   0.781   0.361   9.411 -0.7185 -1.1865  1.1042
17352SOL     OW64114   1.753   5.579   7.041 -0.1748  0.9790  0.1334
17352SOL    HW164115   1.701   5.495   7.023 -1.5381  1.7205  0.5476
17352SOL    HW264116   1.843   5.572   6.999 -0.8765 -0.0294 -1.2420
17353SOL     OW64117   4.386   2.526   9.612  0.5975  0.1063  0.1801
17353SOL    HW164118   4.468   2.584   9.610  1.3893 -0.9875  0.1833
17353SOL    HW264119   4.313   2.574   9.660  0.8052  1.6341 -0.9695
17354SOL     OW64120   7.492   0.676   6.830  0.3003 -0.0018 -0.4980
17354SOL    HW164121   7.521   0.724   6.747  0.3548 -0.1730 -0.5774
17354SOL    HW264122   7.547   0.708   6.908  0.5168 -0.1233 -0.5992
17355SOL     OW64123   9.176   1.375   2.388  0.1694 -0.4796 -0.2586
17355SOL    HW164124   9.126   1.450   2.344  1.4207 -0.1107 -1.0918
17355SOL    HW264125   9.261   1.411   2.427  0.7520 -1.4552 -0.6190
17356SOL     OW64126   3.105   3.004   5.028  0.4855  0.2526 -0.2918
17356SOL    HW164127   3.064   3.009   5.119  0.4082  0.2729 -0.3274
17356SOL    HW264128   3.075   2.920   4.982 -1.3739  1.3880 -1.2138
17357SOL     OW64129   6.604   4.036   0.993  0.5202 -0.2151 -0.2288
17357SOL    HW164130   6.539   4.109   1.014  0.7858 -0.1730  0.4383
17357SOL    HW264131   6.654   4.060   0.910  0.6274  0.3749  0.0041
17358SOL     OW64132   2.638   4.723   8.415  0.0640 -0.6372 -0.0308
17358SOL    HW164133   2.620   4.707   8.512  0.3014  0.5005  0.2134
17358SOL    HW264134   2.562   4.775   8.375  1.4562  1.7977  0.3547
17359SOL     OW64135   2.121   3.379   7.629 -0.0374 -0.3451 -0.1327
17359SOL    HW164136   2.082   3.440   7.698  2.2807 -1.1963  2.0493
17359SOL    HW264137   2.158   3.298   7.675  1.4865 -0.9883 -2.4371
17360SOL     OW64138   5.876   8.554   3.685 -0.1085 -0.2232 -0.0938
17360SOL    HW164139   5.879   8.540   3.586  2.6908 -2.0356  0.1909
17360SOL    HW264140   5.886   8.651   3.705 -0.2769  0.1081 -1.5862
17361SOL     OW64141   1.082   9.337   4.487  0.0517 -0.4379  0.4676
17361SOL    HW164142   1.109   9.430   4.513  1.5043 -0.6330 -0.3026
17361SOL    HW264143   1.116   9.316   4.395 -2.0935 -0.9793 -0.2453
17362SOL     OW64144   0.708   8.102   1.623  0.6744 -0.2442 -0.7367
17362SOL    HW164145   0.795   8.146   1.604  0.8378  0.4041  1.3290
17362SOL    HW264146   0.708   8.009   1.586  1.7695  0.1824 -1.8164
17363SOL     OW64147   8.830   4.379  10.068  0.6603 -0.3030  0.6748
17363SOL    HW164148   8.867   4.382   9.975 -1.4973 -1.3160 -0.2492
17363SOL    HW264149   8.896   4.335  10.128  1.9310  0.0321 -0.4319
17364SOL     OW64150   3.945   9.840   9.818  0.5748  0.1324 -0.3250
17364SOL    HW164151   3.908   9.749   9.803 -0.8923  0.5121  0.8764
17364SOL    HW264152   4.031   9.833   9.870  0.9556 -0.6030 -1.0386
17365SOL     OW64153   3.403   0.420   2.203 -0.1848  0.3189 -0.0829
17365SOL    HW164154   3.406   0.491   2.273 -1.0113  0.0308  0.2591
17365SOL    HW264155   3.416   0.331   2.246 -1.6801  0.0583 -0.1429
17366SOL     OW64156   0.805   8.636   2.495 -0.4222 -0.5055  0.0604
17366SOL    HW164157   0.752   8.702   2.548 -1.7420 -0.7454 -0.9184
17366SOL    HW264158   0.822   8.673   2.403 -2.7993 -2.2363 -1.1362
17367SOL     OW64159   2.642   9.780   0.871 -0.6500  0.2830  0.0160
17367SOL    HW164160   2.606   9.865   0.912  0.7651  1.2793 -0.7684
17367SOL    HW264161   2.644   9.790   0.772 -0.3820 -0.6508 -0.0718
17368SOL     OW64162   8.378   0.217   0.809  0.0975 -0.4198 -0.4280
17368SOL    HW164163   8.311   0.232   0.736 -0.4362  1.9972  0.5041
17368SOL    HW264164   8.470   0.229   0.773 -0.1592  0.5775 -0.7808
17369SOL     OW64165   4.925   9.140   4.581  0.1304  1.1602  0.0843
17369SOL    HW164166   4.970   9.220   4.540 -0.5169  0.7954 -1.3887
17369SOL    HW264167   4.913   9.155   4.679  2.4951  1.7101  0.3410
17370SOL     OW64168   8.003   4.693   5.651 -0.3599  0.1130  0.2468
17370SOL    HW164169   7.992   4.672   5.554  1.4470 -0.9423  0.2518
17370SOL    HW264170   7.934   4.645   5.704  0.3551 -1.5235 -0.2702
17371SOL     OW64171   1.740   0.069   3.259 -0.2771  0.3818 -0.3536
17371SOL    HW164172   1.816   0.004   3.270 -2.8715 -3.2707 -2.6808
17371SOL    HW264173   1.771   0.149   3.208  2.8938  0.7849  2.0912
17372SOL     OW64174   9.242   8.945   8.278  0.4740 -0.3958 -0.0833
17372SOL    HW164175   9.276   8.958   8.372  0.0582 -2.8223  0.4372
17372SOL    HW264176   9.143   8.956   8.276  0.5763  0.5231 -0.4220
17373SOL     OW64177   2.261   7.131   6.784  0.1107 -0.2688  0.0718
17373SOL    HW164178   2.254   7.037   6.817  2.5030 -0.4979  0.0777
17373SOL    HW264179   2.215   7.193   6.848 -0.3712 -1.3140  0.7400
17374SOL     OW64180   0.565   9.184   3.886 -0.6983 -0.0732  0.2863
17374SOL    HW164181   0.603   9.164   3.796 -0.1957 -0.3596  0.5576
17374SOL    HW264182   0.624   9.144   3.957 -1.0089  0.2760  0.7464
17375SOL     OW64183   8.048   8.174   6.832 -0.1500 -0.0512 -0.1215
17375SOL    HW164184   8.145   8.154   6.844 -0.3485 -0.1387  1.5183
17375SOL    HW264185   8.021   8.247   6.894 -1.5227 -1.3050  0.7966
17376SOL     OW64186   2.611   5.875   4.258  0.3547 -0.3673 -0.4858
17376SOL    HW164187   2.514   5.879   4.235  0.0105  0.3156  1.0511
17376SOL    HW264188   2.622   5.858   4.356  1.7660  1.0759 -0.3707
17377SOL     OW64189   2.275   4.769   9.117  0.7151 -0.7290 -0.1927
17377SOL    HW164190   2.198   4.718   9.079  1.0745 -0.8640 -0.7508
17377SOL    HW264191   2.297   4.733   9.208  1.1210 -1.7442 -0.6811
17378SOL     OW64192   9.324   8.059   3.711  0.1851 -0.1529  0.2124
17378SOL    HW164193   9.320   8.153   3.744  0.2109 -0.3891  0.8968
17378SOL    HW264194   9.364   8.057   3.619  0.1562  0.4990  0.1821
17379SOL     OW64195   5.449   3.523   2.702 -0.2856  0.7532  0.2431
17379SOL    HW164196   5.351   3.541   2.693  0.1992  2.9407 -0.9394
17379SOL    HW264197   5.501   3.605   2.678  1.7979  0.2106  2.6440
17380SOL     OW64198   8.062   6.411   6.169 -0.2304  0.1916 -0.9738
17380SOL    HW164199   7.976   6.360   6.174 -0.7106  1.0356 -0.3429
17380SOL    HW264200   8.068   6.456   6.080 -1.3675  1.6673 -0.3442
17381SOL     OW64201   7.402   1.240   0.120  0.5214 -0.3317  0.3597
17381SOL    HW164202   7.470   1.202   0.057 -0.7017 -0.7674 -0.7240
17381SOL    HW264203   7.317   1.256   0.070 -0.7589 -1.5309  2.1106
17382SOL     OW64204   7.687   4.848   1.952 -0.0021 -0.4938  0.2470
17382SOL    HW164205   7.625   4.872   1.878  0.9805  0.8771 -0.1569
17382SOL    HW264206   7.660   4.897   2.035  1.0965  0.8968 -0.1854
17383SOL     OW64207   9.972   8.152   8.581 -0.0668 -0.3510  0.1232
17383SOL    HW164208  10.024   8.178   8.499 -0.7204 -1.5319 -0.6710
17383SOL    HW264209   9.985   8.222   8.652  0.6118  0.6090 -0.9354
17384SOL     OW64210   3.117   5.726   5.454  0.0200  0.6601 -0.0517
17384SOL    HW164211   3.203   5.676   5.467 -0.1558  0.6389  1.0454
17384SOL    HW264212   3.078   5.701   5.365  1.6244  1.4062 -0.9897
17385SOL     OW64213   8.360   6.898   7.926 -0.5363 -0.2979 -0.3123
17385SOL    HW164214   8.306   6.918   7.844  1.0564  0.7895 -1.1248
17385SOL    HW264215   8.453   6.876   7.900  0.0465  0.2585  1.2207
17386SOL     OW64216   8.315   2.987   0.252 -0.4432 -0.2299  0.5264
17386SOL    HW164217   8.266   2.902   0.232  0.1531 -0.2451 -0.9453
17386SOL    HW264218   8.393   2.968   0.311  1.0949 -1.1043 -1.7363
17387SOL     OW64219   3.226   3.589   9.313 -0.1544  0.2335 -0.2632
17387SOL    HW164220   3.198   3.646   9.391  2.6443  1.7826 -0.3216
17387SOL    HW264221   3.299   3.526   9.342  0.5116  0.4234 -1.4853
17388SOL     OW64222   1.064   3.502   2.814 -0.0813 -0.4834  0.0541
17388SOL    HW164223   1.143   3.472   2.867  0.2754  2.5123  1.3707
17388SOL    HW264224   1.015   3.573   2.865 -1.0025  0.9440 -2.6865
17389SOL     OW64225   2.375   1.239   0.788 -0.3090 -0.0054  0.8431
17389SOL    HW164226   2.466   1.197   0.791 -1.0355 -1.5062  2.2729
17389SOL    HW264227   2.379   1.323   0.733  1.4454 -1.2259 -0.9650
17390SOL     OW64228   0.800   1.178   4.784  0.0167  0.0636 -0.6176
17390SOL    HW164229   0.794   1.168   4.685 -0.4297 -2.4603 -0.3683
17390SOL    HW264230   0.887   1.140   4.816  1.5883  3.7580 -0.3501
17391SOL     OW64231   4.580   1.186   8.652 -0.3378  0.5344 -0.5187
17391SOL    HW164232   4.506   1.253   8.656 -1.2078 -0.4142 -0.5304
17391SOL    HW264233   4.634   1.190   8.736 -1.0105  0.5546 -0.0852
17392SOL     OW64234   5.754   7.642   7.053  0.1066 -0.6492  0.2585
17392SOL    HW164235   5.840   7.679   7.020 -1.0728 -0.4445 -2.7347
17392SOL    HW264236   5.711   7.708   7.116  1.5233 -0.2361  0.8031
17393SOL     OW64237   3.245   9.892   3.015 -0.6647  0.2717  0.8191
17393SOL    HW164238   3.313   9.902   3.088 -1.6588  1.6571  1.5924
17393SOL    HW264239   3.258   9.964   2.947 -0.4871 -0.2886  0.2682
17394SOL     OW64240   9.945   6.158   3.865 -0.0118  0.7066 -0.3997
17394SOL    HW164241   9.905   6.189   3.951  0.5753 -0.9467  0.4933
17394SOL    HW264242   9.897   6.201   3.788 -2.2907  0.1878  0.6906
17395SOL     OW64243   7.401   2.926   9.741 -0.7481  0.0468 -0.4566
17395SOL    HW164244   7.443   2.854   9.797 -0.0255 -0.9260 -2.1930
17395SOL    HW264245   7.347   2.883   9.668 -0.8013  1.2827 -1.1528
17396SOL     OW64246   4.790   7.252   5.724 -0.0834 -0.4809 -0.0846
17396SOL    HW164247   4.796   7.256   5.624  1.0319 -0.6268 -0.0349
17396SOL    HW264248   4.695   7.259   5.752 -0.4255 -0.6520 -1.1702
17397SOL     OW64249   2.710   4.339   7.310  0.6746 -0.2630  0.2369
17397SOL    HW164250   2.633   4.323   7.372 -0.6620  0.7645 -1.1019
17397SOL    HW264251   2.763   4.256   7.301 -1.6197 -1.6975 -0.5609
17398SOL     OW64252   9.050   2.271   1.144  0.0894  0.1631 -0.7636
17398SOL    HW164253   9.018   2.359   1.109  1.9415  0.4106 -1.8912
17398SOL    HW264254   9.022   2.198   1.082 -1.5631 -0.0912  0.2415
17399SOL     OW64255   1.119   8.238   3.581 -0.3245  0.2889 -0.1431
17399SOL    HW164256   1.054   8.313   3.574 -1.3709 -0.3734  1.9645
17399SOL    HW264257   1.069   8.152   3.592  0.8673 -0.1351  2.3310
17400SOL     OW64258   3.195   2.128   1.159 -0.2330 -0.4687  0.2163
17400SOL    HW164259   3.136   2.094   1.087  0.9740 -0.6216 -0.7277
17400SOL    HW264260   3.280   2.075   1.161  1.5808  2.2032 -1.1289
17401SOL     OW64261   7.150   2.040   6.099 -0.0653 -0.4963 -0.2447
17401SOL    HW164262   7.166   1.961   6.040  0.8137 -0.4223 -0.1135
17401SOL    HW264263   7.056   2.037   6.134 -0.1142 -1.3535 -0.4282
17402SOL     OW64264   3.035   4.009   4.451  0.2528  0.1067 -0.1276
17402SOL    HW164265   3.028   4.085   4.387  0.0391 -1.0339 -1.4701
17402SOL    HW264266   3.127   3.971   4.448  0.1061 -0.2532 -0.1110
17403SOL     OW64267   9.505   3.746   2.896  0.1839 -0.5142 -0.7357
17403SOL    HW164268   9.571   3.785   2.832  0.2482 -0.1146 -0.4302
17403SOL    HW264269   9.412   3.769   2.868  0.1485 -1.5051 -1.4474
17404SOL     OW64270   5.953   5.486   2.586 -0.2739 -0.2775 -0.8490
17404SOL    HW164271   6.001   5.430   2.653 -1.4039  0.1215  0.3172
17404SOL    HW264272   6.006   5.489   2.501  0.5185 -1.8805 -0.4332
17405SOL     OW64273   3.664   7.161   7.535  0.5546  0.1809  0.2074
17405SOL    HW164274   3.570   7.137   7.511  0.4327  0.3721  0.4858
17405SOL    HW264275   3.715   7.079   7.560  0.4142  0.0972  0.2182
17406SOL     OW64276   6.970   5.734   2.336 -0.3348  0.0320 -0.2875
17406SOL    HW164277   7.054   5.784   2.357 -0.7687  0.9107 -0.6109
17406SOL    HW264278   6.900   5.798   2.303 -1.6714 -0.4458  1.5478
17407SOL     OW64279   7.876   0.190   4.038  0.0947  0.3319  0.1685
17407SOL    HW164280   7.779   0.184   4.017  0.1390 -0.4218  0.1838
17407SOL    HW264281   7.905   0.108   4.087  0.9818  0.0291 -0.8399
17408SOL     OW64282   7.290   2.542   0.073 -0.5306  0.3024 -0.6584
17408SOL    HW164283   7.240   2.496  -0.001 -2.1523  0.6843  0.1778
17408SOL    HW264284   7.230   2.609   0.116  1.4600  2.4815 -1.1842
17409SOL     OW64285   0.773   0.865   9.009  0.1908  0.0995  0.2672
17409SOL    HW164286   0.815   0.817   8.932  0.1809  1.5417 -0.6576
17409SOL    HW264287   0.817   0.954   9.021 -1.9608  1.2613 -0.1374
17410SOL     OW64288   9.490   3.537   7.505 -0.1359  0.1543 -0.1884
17410SOL    HW164289   9.491   3.620   7.560 -3.1450 -0.0424  0.2257
17410SOL    HW264290   9.440   3.465   7.553  0.3332 -1.1503 -1.5982
17411SOL     OW64291   3.056   7.414   3.879  0.0953  0.0980 -0.1690
17411SOL    HW164292   3.024   7.330   3.922 -0.4135 -0.3345 -1.3688
17411SOL    HW264293   3.142   7.442   3.921 -1.3223  0.7475  2.4571
17412SOL     OW64294   1.641   7.187   4.227  0.1062  0.3411  0.2053
17412SOL    HW164295   1.700   7.224   4.155 -0.6742 -1.5486 -1.4390
17412SOL    HW264296   1.547   7.183   4.195  0.0062 -2.0849  0.7062
17413SOL     OW64297   1.618   2.649   3.088 -0.1353  0.0781  0.1925
17413SOL    HW164298   1.661   2.610   3.007  1.2129 -2.0226  1.8875
17413SOL    HW264299   1.682   2.711   3.133 -1.4727  2.6072 -1.2125
17414SOL     OW64300   5.295   2.393   0.868 -0.0753  0.3201  0.0542
17414SOL    HW164301   5.330   2.425   0.956 -0.5017  0.9056  0.0090
17414SOL    HW264302   5.254   2.469   0.819  0.6553  0.1106 -0.8958
17415SOL     OW64303   8.055   6.108   7.592  0.1353  0.2824  0.3372
17415SOL    HW164304   8.078   6.074   7.501 -0.3293 -0.9311  0.6604
17415SOL    HW264305   7.975   6.168   7.586 -0.2175 -0.2131  0.0090
17416SOL     OW64306   9.656   9.957   9.843  0.0206 -0.6057 -0.4080
17416SOL    HW164307   9.745   9.963   9.796 -0.3506 -0.0747 -1.0516
17416SOL    HW264308   9.650   9.870   9.891  0.7202 -0.8303 -0.7105
17417SOL     OW64309   3.444   3.082   3.603  0.2670  0.0601 -0.0832
17417SOL    HW164310   3.383   3.108   3.528  0.2172 -2.1008 -0.8371
17417SOL    HW264311   3.401   3.103   3.690 -0.8425  0.1053 -0.6316
17418SOL     OW64312   7.792   0.017   9.802  0.0269 -0.1000  0.7348
17418SOL    HW164313   7.787   0.114   9.778  0.0729  0.2682  2.1567
17418SOL    HW264314   7.720  -0.033   9.754 -0.0269  0.6324  0.0333
17419SOL     OW64315   1.463   0.930   5.362 -0.3658  0.0903  0.2789
17419SOL    HW164316   1.437   1.026   5.375  2.6720  0.7052  2.3420
17419SOL    HW264317   1.459   0.882   5.449 -0.2722 -1.2415 -0.4376
17420SOL     OW64318   8.316   4.587   9.467  0.9581  0.0812 -0.8186
17420SOL    HW164319   8.225   4.565   9.432 -1.3570  0.9262  4.2541
17420SOL    HW264320   8.328   4.686   9.467  1.1087  0.0671  0.2633
17421SOL     OW64321   4.309   7.253   3.694  0.4933 -0.1242 -0.1427
17421SOL    HW164322   4.219   7.210   3.683  0.1124  0.1930  1.5303
17421SOL    HW264323   4.302   7.350   3.672  0.7811 -0.4055 -1.4936
17422SOL     OW64324   2.775   9.292   0.648  0.7177  0.0129  0.1385
17422SOL    HW164325   2.856   9.318   0.595  1.1793 -1.6684 -0.0112
17422SOL    HW264326   2.750   9.366   0.711  1.1139  1.3826 -1.2927
17423SOL     OW64327   8.539   0.483   1.721 -0.4112 -0.1602 -0.2382
17423SOL    HW164328   8.588   0.518   1.641  0.7766 -2.6796 -0.6715
17423SOL    HW264329   8.442   0.502   1.712 -0.0411  1.2420 -1.3795
17424SOL     OW64330   1.570   6.326   3.531  0.3029  0.0030  0.0865
17424SOL    HW164331   1.615   6.370   3.453  1.4817 -0.2781  0.5966
17424SOL    HW264332   1.495   6.383   3.563  2.1841  1.9469  1.1264
17425SOL     OW64333   2.957   8.484   5.435 -0.1416  0.1490 -0.4550
17425SOL    HW164334   2.924   8.516   5.524 -0.4268  1.0030 -0.8699
17425SOL    HW264335   2.901   8.406   5.405  0.5243 -0.7314  0.5264
17426SOL     OW64336   3.302   6.006   6.195  0.0574 -0.0644  0.2921
17426SOL    HW164337   3.371   6.078   6.186  1.1410 -1.0507  0.6364
17426SOL    HW264338   3.284   5.990   6.292 -0.4060 -0.0585  0.2087
17427SOL     OW64339   7.285   6.622   2.808  0.2467  0.0320 -0.4313
17427SOL    HW164340   7.338   6.600   2.890  1.5636  3.7522 -0.1995
17427SOL    HW264341   7.210   6.684   2.832 -0.0653  0.2278 -1.8671
17428SOL     OW64342   8.738   9.540   0.111  0.7991 -0.2619  0.1872
17428SOL    HW164343   8.684   9.620   0.139  1.5360  0.4870 -0.5283
17428SOL    HW264344   8.821   9.536   0.166  0.9656 -0.3003 -0.0707
17429SOL     OW64345   1.385   8.734   1.217  0.4282  0.0432  0.3086
17429SOL    HW164346   1.475   8.691   1.206  0.4103 -0.5175  2.2316
17429SOL    HW264347   1.342   8.702   1.301 -2.0906 -0.5673 -1.1597
17430SOL     OW64348   6.301   0.351   4.096 -0.1234  0.4237 -0.3336
17430SOL    HW164349   6.273   0.255   4.096  0.6261  0.1945  0.6255
17430SOL    HW264350   6.265   0.396   4.178  1.8104  0.2695  0.6241
17431SOL     OW64351   8.686   6.575   9.754  0.5230  0.0655  0.2158
17431SOL    HW164352   8.637   6.496   9.718  1.9068 -0.6022 -0.1835
17431SOL    HW264353   8.781   6.551   9.772  0.5754  1.2081  1.5407
17432SOL     OW64354   9.026   5.151   7.487 -0.0937 -0.4457  0.3961
17432SOL    HW164355   9.054   5.194   7.401 -2.7892  0.4918 -0.0623
17432SOL    HW264356   9.106   5.111   7.532  1.2605 -1.6333 -2.9221
17433SOL     OW64357   7.782   0.035   4.939 -0.4622  0.1988  0.0973
17433SOL    HW164358   7.750   0.130   4.931  0.0089  0.4078  0.6266
17433SOL    HW264359   7.706  -0.024   4.965 -1.0788  0.1935 -1.6052
17434SOL     OW64360   9.288   0.648   6.801 -0.3568 -0.4183  0.0799
17434SOL    HW164361   9.296   0.681   6.707 -0.8272  0.8918  0.4854
17434SOL    HW264362   9.359   0.689   6.857  0.6637 -2.1180  0.0650
17435SOL     OW64363   9.493   3.980   3.435 -0.1064  0.4139  0.6759
17435SOL    HW164364   9.432   3.966   3.357  1.7554  0.2553 -0.7909
17435SOL    HW264365   9.532   4.072   3.430 -0.4699  0.6348  1.7892
17436SOL     OW64366   4.325   3.294   0.120 -0.6847  0.3852  0.5152
17436SOL    HW164367   4.333   3.291   0.220 -0.8350 -2.0948  0.4873
17436SOL    HW264368   4.406   3.336   0.081 -0.3052  0.7246  1.6517
17437SOL     OW64369   9.551   7.860   8.387 -0.1585  0.2984 -0.4150
17437SOL    HW164370   9.486   7.902   8.450  0.3498  0.3936  0.0499
17437SOL    HW264371   9.644   7.889   8.410 -0.2443  3.3333 -3.5213
17438SOL     OW64372   8.341   5.503   0.701  0.2965  0.0530  0.8466
17438SOL    HW164373   8.394   5.571   0.649 -0.4386  1.2009  1.5881
17438SOL    HW264374   8.271   5.463   0.642  0.0307  0.7266  0.7036
17439SOL     OW64375   6.821   3.484   9.261 -0.1353  0.1304 -0.2141
17439SOL    HW164376   6.862   3.403   9.219 -0.2597  0.1007 -0.2787
17439SOL    HW264377   6.879   3.515   9.337 -0.4956 -0.4987  0.3282
17440SOL     OW64378   6.386   3.422   2.818 -0.9263 -0.6188 -0.0743
17440SOL    HW164379   6.287   3.413   2.818 -0.9273 -0.7138  1.0648
17440SOL    HW264380   6.419   3.426   2.913  0.2055 -1.1656 -0.4399
17441SOL     OW64381   6.114   1.945   5.955  0.4627 -0.1870  0.5642
17441SOL    HW164382   6.209   1.968   5.978  1.0212 -1.6566 -0.1894
17441SOL    HW264383   6.057   2.027   5.962  1.8933  0.8349  0.4568
17442SOL     OW64384   3.549   6.639   3.406  0.2320 -0.2919  0.1194
17442SOL    HW164385   3.564   6.588   3.321  1.3568 -0.4139  0.3791
17442SOL    HW264386   3.592   6.589   3.482  0.2362  0.4022  0.5740
17443SOL     OW64387   0.280   6.696   0.947 -0.0994  0.0734  0.0567
17443SOL    HW164388   0.367   6.685   0.995 -0.1813 -0.3430  0.1105
17443SOL    HW264389   0.291   6.672   0.850 -0.5380 -1.6085  0.4002
17444SOL     OW64390   4.087   8.148   5.097  0.7437 -0.0564 -0.2250
17444SOL    HW164391   4.123   8.236   5.127 -0.1833 -0.3415  1.8420
17444SOL    HW264392   4.132   8.075   5.148  0.3581 -0.6856 -0.7782
17445SOL     OW64393   3.663   3.691   5.841  0.1243  0.5861 -0.2621
17445SOL    HW164394   3.700   3.626   5.908 -1.4324  1.3380  1.3505
17445SOL    HW264395   3.568   3.667   5.820  0.7290  0.0773 -2.5937
17446SOL     OW64396   4.557   8.059   6.636  0.4439 -0.0172  0.2725
17446SOL    HW164397   4.568   8.129   6.566 -1.4246 -0.9056 -0.9416
17446SOL    HW264398   4.492   8.089   6.705 -1.1775 -0.9322 -0.8148
17447SOL     OW64399   1.867   0.664   9.216 -0.4344 -0.6311 -0.4988
17447SOL    HW164400   1.848   0.627   9.307  1.4050  0.7511  0.4971
17447SOL    HW264401   1.823   0.753   9.207  0.3571 -0.2363 -0.5044
17448SOL     OW64402   7.477   5.422   9.882  0.2000 -0.2682  0.6814
17448SOL    HW164403   7.494   5.371   9.798 -0.3118  0.2738  0.2428
17448SOL    HW264404   7.557   5.478   9.904 -0.5727  1.4675 -0.7959
17449SOL     OW64405   4.209   1.618   8.828 -0.6372 -0.6979 -0.4182
17449SOL    HW164406   4.302   1.631   8.864  0.1449 -0.9590 -2.2735
17449SOL    HW264407   4.149   1.587   8.902 -0.1350  3.0855  1.7038
17450SOL     OW64408   2.120   5.682   1.312  0.0239  0.2617 -0.2327
17450SOL    HW164409   2.118   5.661   1.410 -0.7201 -0.3353 -0.3670
17450SOL    HW264410   2.057   5.621   1.264 -0.7273  1.5501 -0.8971
17451SOL     OW64411   0.945   5.452   2.056  0.1869 -0.5859 -0.5773
17451SOL    HW164412   0.975   5.523   2.120  1.7848  1.0550 -3.0355
17451SOL    HW264413   0.956   5.362   2.098  0.9620  0.4468  1.5107
17452SOL     OW64414   6.916   2.248   9.859 -0.0921 -1.1045 -0.0642
17452SOL    HW164415   6.937   2.254   9.957  2.8440 -0.8144 -0.6486
17452SOL    HW264416   6.903   2.152   9.834 -0.7181 -1.1919  0.5914
17453SOL     OW64417   9.389   0.933   5.623  0.3790  0.4472  0.3210
17453SOL    HW164418   9.347   0.860   5.677  0.6499  0.6764  0.8462
17453SOL    HW264419   9.472   0.899   5.578  0.6177  0.4836  0.7304
17454SOL     OW64420   3.961   4.165   9.143 -0.4597  0.6393  0.4739
17454SOL    HW164421   4.049   4.144   9.101 -0.9858 -0.3950 -0.1378
17454SOL    HW264422   3.893   4.180   9.071 -1.3393 -0.9961  0.9502
17455SOL     OW64423   0.600   6.022   2.518  0.6438  0.0407  0.3594
17455SOL    HW164424   0.690   5.982   2.502  0.5798 -0.0950  0.3404
17455SOL    HW264425   0.547   6.021   2.434  0.7819  0.5201  0.2643
17456SOL     OW64426   7.246   2.932   0.666  0.0191 -0.2153  0.0466
17456SOL    HW164427   7.338   2.892   0.675  0.1469  0.0552 -0.0239
17456SOL    HW264428   7.250   3.029   0.691 -0.4649 -0.4558  1.0763
17457SOL     OW64429   2.568   1.674   0.362 -0.5031  0.1083 -0.4725
17457SOL    HW164430   2.588   1.765   0.326 -2.4366  0.4221 -0.8336
17457SOL    HW264431   2.600   1.667   0.456 -1.2049  1.5200 -0.1099
17458SOL     OW64432   6.252   4.897   1.708 -0.2294 -0.1794  0.2088
17458SOL    HW164433   6.173   4.880   1.649 -1.9520 -0.5650  2.5498
17458SOL    HW264434   6.335   4.899   1.653 -1.8235 -0.0664 -2.2711
17459SOL     OW64435   2.398   5.016   2.519 -0.3394 -0.4959 -0.5672
17459SOL    HW164436   2.342   5.028   2.601  0.6284  0.5240 -0.0442
17459SOL    HW264437   2.344   5.041   2.438 -0.7625  0.1123 -0.0987
17460SOL     OW64438   9.108   9.819   6.275 -0.2614  0.5942  0.1816
17460SOL    HW164439   9.041   9.855   6.209 -1.8027 -1.1462  0.7672
17460SOL    HW264440   9.105   9.874   6.359 -1.3578  0.1839  0.4157
17461SOL     OW64441   4.553   3.105   0.272 -0.3328  0.5582  0.4074
17461SOL    HW164442   4.557   3.193   0.224  2.9286 -0.4669 -1.4032
17461SOL    HW264443   4.604   3.112   0.358  1.1301  0.0939 -0.4062
17462SOL     OW64444   4.800   7.393   3.583 -0.4597 -0.3113  0.5121
17462SOL    HW164445   4.796   7.471   3.521  2.6094 -0.3704  0.1839
17462SOL    HW264446   4.802   7.308   3.531  1.2600 -0.3974  0.7120
17463SOL     OW64447   2.971   8.551   2.439  0.0150 -0.3054  1.0397
17463SOL    HW164448   2.970   8.457   2.476  1.6549 -0.2787  1.1728
17463SOL    HW264449   3.060   8.593   2.458  0.3640  0.2414 -1.6627
17464SOL     OW64450   5.881   8.492   6.803  0.0333 -0.0764 -0.5722
17464SOL    HW164451   5.920   8.401   6.796 -0.3187 -0.2598 -0.2034
17464SOL    HW264452   5.953   8.561   6.792  0.4241 -0.4050 -0.0828
17465SOL     OW64453   6.422   3.051   2.399 -0.0674  0.2068 -0.3082
17465SOL    HW164454   6.409   3.150   2.395 -1.5927  0.0165 -0.3919
17465SOL    HW264455   6.337   3.006   2.371  0.1843 -1.1267  1.0432
17466SOL     OW64456   1.401   7.094   6.069 -0.1643 -0.7977  0.1783
17466SOL    HW164457   1.482   7.133   6.114 -0.7926  1.3046 -0.4392
17466SOL    HW264458   1.319   7.118   6.121 -0.6926 -0.1199 -0.9570
17467SOL     OW64459   9.875   1.714   5.171  0.0088 -0.5489 -0.2116
17467SOL    HW164460   9.884   1.806   5.209  1.7994 -0.3637 -1.0024
17467SOL    HW264461   9.799   1.666   5.215  1.2930  0.0378  2.8049
17468SOL     OW64462   1.444   5.782   2.977 -0.1751 -0.7263 -0.0502
17468SOL    HW164463   1.403   5.874   2.982 -0.7846 -0.9966  0.0602
17468SOL    HW264464   1.425   5.742   2.888  2.1242  0.1728 -0.9714
17469SOL     OW64465   1.749   3.119   6.942 -0.6192  0.2580 -0.1827
17469SOL    HW164466   1.756   3.145   6.846  1.3077  0.6749  0.0599
17469SOL    HW264467   1.721   3.199   6.996 -1.4854  0.0771 -0.3510
17470SOL     OW64468   6.095   2.645   2.876  0.4283 -0.4238 -0.3338
17470SOL    HW164469   6.023   2.587   2.838  0.5384 -0.7116 -0.1085
17470SOL    HW264470   6.163   2.587   2.921 -0.4401 -0.0247  1.5721
17471SOL     OW64471   3.831   1.042   0.109 -0.0174 -0.4095  0.1596
17471SOL    HW164472   3.816   1.093   0.024  1.1626  1.5976  1.1005
17471SOL    HW264473   3.909   0.980   0.098  0.7116  0.5172  0.0343
17472SOL     OW64474   5.271   7.036   2.432 -0.0572 -0.0637 -0.1040
17472SOL    HW164475   5.357   7.034   2.381 -0.2041  0.5481 -0.3777
17472SOL    HW264476   5.207   7.098   2.386  0.2694  1.5421  1.5526
17473SOL     OW64477   7.725   4.187   8.604  0.5631 -0.1122 -0.0385
17473SOL    HW164478   7.664   4.260   8.636 -1.3041 -2.0653  1.0152
17473SOL    HW264479   7.734   4.192   8.505  1.8702  2.5967  0.1851
17474SOL     OW64480   3.265   2.777   9.414 -0.2723 -0.3094  0.2747
17474SOL    HW164481   3.322   2.845   9.460 -1.0517  0.3005  0.3520
17474SOL    HW264482   3.311   2.688   9.417  0.3501  0.0245  0.9510
17475SOL     OW64483   7.469   4.021   0.757  0.1195  0.2202 -0.0006
17475SOL    HW164484   7.497   3.926   0.770 -3.3353 -0.7346  0.9086
17475SOL    HW264485   7.446   4.062   0.845  1.2505  1.8414 -0.4150
17476SOL     OW64486   2.050   3.198   9.125  0.2731 -0.4484 -0.8164
17476SOL    HW164487   2.045   3.150   9.038 -0.0148  0.1351 -1.1286
17476SOL    HW264488   2.086   3.290   9.110 -1.1095  0.1557 -0.5314
17477SOL     OW64489   2.988   2.012   1.488  0.2541  0.0515  0.3933
17477SOL    HW164490   3.083   1.983   1.502  0.1761 -0.5075 -0.1956
17477SOL    HW264491   2.985   2.112   1.483  1.0133  0.0322 -0.8713
17478SOL     OW64492   0.577   1.966   9.760  0.0019  0.0947 -0.4855
17478SOL    HW164493   0.628   2.039   9.804 -0.4969 -0.3445  0.8684
17478SOL    HW264494   0.499   2.004   9.711  0.2589  0.5462 -0.5393
17479SOL     OW64495   4.223   2.037   8.691 -0.3556 -0.0131  0.2404
17479SOL    HW164496   4.161   1.982   8.747  0.0896  0.6838  1.4431
17479SOL    HW264497   4.256   2.114   8.745  1.1939 -0.1255 -0.5262
17480SOL     OW64498   8.612   9.141   1.917  0.3984 -0.2839 -0.0277
17480SOL    HW164499   8.614   9.146   2.016  1.5249 -2.0312  0.0577
17480SOL    HW264500   8.619   9.233   1.879 -0.3453  0.4198  1.4986
17481SOL     OW64501   9.245   4.943   2.928  0.0875 -0.1273 -0.1219
17481SOL    HW164502   9.176   4.966   2.860  0.1057  1.9423  0.5273
17481SOL    HW264503   9.223   4.855   2.970 -2.1122  0.4384 -0.0062
17482SOL     OW64504   0.357   1.722   0.458 -0.2417 -0.1449 -0.2070
17482SOL    HW164505   0.389   1.708   0.551 -1.3187  0.2102  0.2263
17482SOL    HW264506   0.274   1.778   0.459 -0.2677 -0.1469 -1.3706
17483SOL     OW64507   0.250   7.002   8.109  0.0030  0.5726  0.0237
17483SOL    HW164508   0.265   6.984   8.206  0.1220 -0.0842 -0.1112
17483SOL    HW264509   0.166   6.956   8.079  0.6644 -0.3397 -0.4804
17484SOL     OW64510   2.591   5.439   6.046  0.1374  0.1686  0.1963
17484SOL    HW164511   2.553   5.346   6.043 -0.8385  0.6020 -0.9704
17484SOL    HW264512   2.600   5.474   5.953 -1.6478  2.1278  0.7348
17485SOL     OW64513   8.991   9.317   2.018  0.7375 -0.0128 -0.3019
17485SOL    HW164514   9.015   9.229   1.978  0.2188 -0.4709  0.3753
17485SOL    HW264515   8.892   9.330   2.015  0.8314  0.6924 -0.6805
17486SOL     OW64516   3.769   9.570   0.706  0.0334  0.0820 -0.8293
17486SOL    HW164517   3.725   9.505   0.768 -0.3723  1.4745  0.3585
17486SOL    HW264518   3.864   9.543   0.691 -0.1231 -0.7735 -0.3276
17487SOL     OW64519   8.630   6.638   1.178  0.7786 -0.7067 -0.1293
17487SOL    HW164520   8.649   6.642   1.276 -2.3471  2.0770  0.4698
17487SOL    HW264521   8.715   6.648   1.127  2.0770  1.3453  2.3406
17488SOL     OW64522   7.093   9.496   4.524 -1.2466  0.2221  0.7851
17488SOL    HW164523   7.035   9.433   4.576 -0.1585  0.0144  1.7723
17488SOL    HW264524   7.184   9.498   4.565 -0.5724  0.5990 -0.7034
17489SOL     OW64525   2.514   3.595   3.185 -0.1628 -0.2250 -0.1042
17489SOL    HW164526   2.522   3.601   3.086  0.7345  1.4876  0.0508
17489SOL    HW264527   2.551   3.508   3.216  1.8580  0.2587 -1.0652
17490SOL     OW64528   2.433   7.176   9.903 -0.2591  0.2864 -0.3966
17490SOL    HW164529   2.464   7.248   9.840  0.3383  0.5090  0.1468
17490SOL    HW264530   2.509   7.150   9.963 -0.7071 -0.2318 -0.0562
17491SOL     OW64531   1.372   5.303   5.600  0.3720 -0.0806  0.7987
17491SOL    HW164532   1.446   5.370   5.589 -0.1335  0.1232 -1.6772
17491SOL    HW264533   1.308   5.335   5.670  0.8642  1.3643  0.6113
17492SOL     OW64534   4.750   0.224   6.870  0.0045 -0.0888 -0.2538
17492SOL    HW164535   4.679   0.232   6.940 -0.4583 -0.9420 -0.6229
17492SOL    HW264536   4.741   0.137   6.823  0.7212  0.2000 -0.9405
17493SOL     OW64537   6.910   3.474   2.553  0.1302 -0.1179  0.0191
17493SOL    HW164538   6.914   3.408   2.629  0.1266  0.8717  0.8849
17493SOL    HW264539   6.995   3.525   2.548 -0.3395  0.6819  0.1370
17494SOL     OW64540   8.979   6.422   0.479 -0.6868 -0.1072 -0.3581
17494SOL    HW164541   9.046   6.492   0.455 -0.8721 -0.0749 -0.7807
17494SOL    HW264542   9.003   6.336   0.435  0.7053 -0.8785  1.7883
17495SOL     OW64543   4.805   8.383   7.031  0.2662  0.2426  0.1804
17495SOL    HW164544   4.734   8.448   7.006  0.2365 -0.5221 -1.8478
17495SOL    HW264545   4.772   8.323   7.103 -1.0469  0.0962 -0.5309
17496SOL     OW64546   7.379   6.385   3.547  0.1083 -0.1645  0.1951
17496SOL    HW164547   7.297   6.412   3.597  0.1214  0.8946 -0.3320
17496SOL    HW264548   7.399   6.289   3.565  0.0795  0.1786  2.1542
17497SOL     OW64549   9.351   5.773   0.817 -0.4440  0.2382  0.0776
17497SOL    HW164550   9.427   5.805   0.761  0.1831  0.1247  0.8448
17497SOL    HW264551   9.316   5.848   0.874  0.3408 -0.1572  1.1060
17498SOL     OW64552   1.820   1.870   3.573 -0.0693  0.2892 -0.6765
17498SOL    HW164553   1.882   1.792   3.560  0.1143  0.4705 -0.8923
17498SOL    HW264554   1.863   1.953   3.538 -0.5516  0.3675 -1.0930
17499SOL     OW64555   8.362   7.587   2.758  0.3655 -0.6012  0.5999
17499SOL    HW164556   8.447   7.617   2.715  0.2678 -0.2318  0.6549
17499SOL    HW264557   8.324   7.510   2.707  0.9400 -1.0247  0.8182
17500SOL     OW64558   3.656   7.520   0.867  0.1074  1.2190  0.2174
17500SOL    HW164559   3.593   7.452   0.832 -0.1840  1.2440  0.6836
17500SOL    HW264560   3.740   7.520   0.813 -1.1082  2.6322 -1.7417
17501SOL     OW64561   8.523   5.735   7.575 -0.2520  0.1455 -0.7606
17501SOL    HW164562   8.509   5.699   7.667  1.2062  1.8600  0.1574
17501SOL    HW264563   8.601   5.798   7.575 -0.3918  0.3596 -3.1145
17502SOL     OW64564   4.807   3.277   6.668 -0.1414  0.4515 -0.7071
17502SOL    HW164565   4.818   3.277   6.768  1.3244 -3.2199 -0.8107
17502SOL    HW264566   4.722   3.230   6.644  0.8602 -1.0999 -1.2679
17503SOL     OW64567   8.898   8.610   1.059  0.4517  0.7091  0.1458
17503SOL    HW164568   8.897   8.547   0.981  0.5280  1.4202 -0.4362
17503SOL    HW264569   8.992   8.619   1.093  0.2883 -0.2830  0.8868
17504SOL     OW64570   3.290   0.177   2.859  0.7917  0.6029 -0.2951
17504SOL    HW164571   3.268   0.178   2.956 -2.0509  2.1522 -0.8885
17504SOL    HW264572   3.314   0.270   2.829  1.5356  0.1602 -1.1024
17505SOL     OW64573   1.399   8.426   6.446 -0.0578 -0.2525  0.6735
17505SOL    HW164574   1.457   8.351   6.414 -0.4272 -0.1581 -0.2386
17505SOL    HW264575   1.306   8.392   6.458 -0.3810  0.2235 -0.4351
17506SOL     OW64576   5.452   3.798   1.731 -0.4037 -0.4735 -0.3254
17506SOL    HW164577   5.537   3.827   1.776  0.1159 -0.9469 -1.0002
17506SOL    HW264578   5.376   3.813   1.794  0.0458  0.8918 -0.0817
17507SOL     OW64579   1.150   1.214   5.615 -0.2723  0.2400  0.6556
17507SOL    HW164580   1.115   1.205   5.522 -0.4043  2.4883  0.4530
17507SOL    HW264581   1.174   1.124   5.651  2.1729 -0.4673 -2.4982
17508SOL     OW64582   0.497   7.863   3.840 -0.4225  0.2682 -0.2444
17508SOL    HW164583   0.438   7.945   3.846 -0.7769 -0.0914  1.7471
17508SOL    HW264584   0.567   7.868   3.911  0.1661 -0.7038 -0.7522
17509SOL     OW64585   7.233   1.650   6.333 -0.3743 -0.3347 -0.0930
17509SOL    HW164586   7.257   1.658   6.237 -2.3702  0.8814 -0.5126
17509SOL    HW264587   7.134   1.635   6.342 -0.3366  0.3589  1.7779
17510SOL     OW64588   8.845   1.631   9.996  0.2120 -0.0951 -0.6008
17510SOL    HW164589   8.802   1.653   9.909 -0.3240 -1.4731 -0.7021
17510SOL    HW264590   8.937   1.595   9.980  1.3648  2.6645 -0.3972
17511SOL     OW64591   0.608   0.983   0.539 -0.0598  0.2023  0.6143
17511SOL    HW164592   0.544   1.047   0.583  0.1501  0.8378  0.0036
17511SOL    HW264593   0.674   1.035   0.485 -0.2812 -0.5757 -0.4034
17512SOL     OW64594   0.208   2.479   8.224  0.3483 -0.2942  0.0944
17512SOL    HW164595   0.164   2.432   8.148  0.7034  0.1262 -0.3700
17512SOL    HW264596   0.239   2.411   8.291 -2.0306 -0.5418  0.9986
17513SOL     OW64597   9.127   3.037   1.664  0.0876 -0.1672 -0.3563
17513SOL    HW164598   9.037   3.080   1.677 -0.0666  0.0056 -1.9125
17513SOL    HW264599   9.116   2.938   1.658 -0.2719 -0.0046 -2.6979
17514SOL     OW64600   8.542   0.180   1.723  0.1592  0.4284  0.3621
17514SOL    HW164601   8.547   0.164   1.625 -0.9825 -0.9279  0.5155
17514SOL    HW264602   8.562   0.276   1.742  1.3259  0.4813 -1.1023
17515SOL     OW64603   6.748   2.826   0.279  0.1979 -0.4341 -0.7198
17515SOL    HW164604   6.794   2.911   0.307  1.2691 -1.0812 -0.5010
17515SOL    HW264605   6.809   2.773   0.220 -0.7432 -0.7268 -1.4460
17516SOL     OW64606   7.116   6.973   2.392 -0.2473 -0.6664 -0.4133
17516SOL    HW164607   7.108   6.991   2.490 -0.0433 -1.3865 -0.2597
17516SOL    HW264608   7.213   6.969   2.366 -0.2820 -1.5383 -0.4353
17517SOL     OW64609   1.611   9.379   8.218 -0.4844 -0.4742 -0.2339
17517SOL    HW164610   1.594   9.350   8.124 -1.1933 -0.2316 -0.1828
17517SOL    HW264611   1.697   9.339   8.250  0.4217  0.4747 -1.4193
17518SOL     OW64612   6.333   8.402   6.861 -0.1891  0.2284 -0.5626
17518SOL    HW164613   6.308   8.338   6.789 -1.3674 -2.3432  1.9894
17518SOL    HW264614   6.252   8.421   6.918  0.4236  3.1290 -0.6065
17519SOL     OW64615   9.503   7.433   7.201  0.7257  0.1172  0.3385
17519SOL    HW164616   9.416   7.399   7.164  1.1045  0.1409 -0.5969
17519SOL    HW264617   9.502   7.424   7.301 -0.3831  0.2045  0.3488
17520SOL     OW64618   2.518   0.632   2.050 -0.0284 -0.1690  0.6861
17520SOL    HW164619   2.548   0.549   2.097  1.0101 -0.6346 -0.7853
17520SOL    HW264620   2.596   0.677   2.007 -0.6884  1.2213  0.9139
17521SOL     OW64621   8.729   1.324   6.499 -0.3555  0.4777 -0.5073
17521SOL    HW164622   8.785   1.407   6.500 -0.5580  0.6332  1.4363
17521SOL    HW264623   8.633   1.348   6.485 -0.5618  0.7177  1.1440
17522SOL     OW64624   1.955   0.040   2.002 -0.4721  0.5327 -0.2199
17522SOL    HW164625   1.892  -0.029   1.964 -1.5434  1.3810 -0.0106
17522SOL    HW264626   1.957   0.119   1.941 -0.8236  1.1603  0.5711
17523SOL     OW64627   2.711   1.824   8.592  0.5562  0.0441  0.2720
17523SOL    HW164628   2.758   1.749   8.546  0.7384 -0.5323  1.3818
17523SOL    HW264629   2.770   1.904   8.595  2.1294 -1.1696  3.0990
17524SOL     OW64630   0.335   0.970   7.969 -0.4590 -0.4578  0.3311
17524SOL    HW164631   0.346   0.882   8.017 -2.2973 -0.3369  1.0098
17524SOL    HW264632   0.412   1.030   7.993  0.9493 -1.9420 -0.3304
17525SOL     OW64633   4.476   5.430   0.474 -0.5436 -0.4285  0.3265
17525SOL    HW164634   4.463   5.362   0.402 -0.8676 -0.0056 -0.0170
17525SOL    HW264635   4.401   5.496   0.471  0.4611  0.7107 -0.1923
17526SOL     OW64636   9.070   4.891   0.731  0.0797 -0.0587 -0.3240
17526SOL    HW164637   9.163   4.882   0.694  0.3272  1.6399 -0.2043
17526SOL    HW264638   9.075   4.890   0.831 -0.1692 -1.0966 -0.3204
17527SOL     OW64639   9.625   1.524   9.526 -0.2129 -0.6469  0.3245
17527SOL    HW164640   9.533   1.548   9.558 -0.2577 -0.2362 -0.1009
17527SOL    HW264641   9.678   1.486   9.602  0.3101  2.0722  1.3671
17528SOL     OW64642   2.457   7.952   7.713 -0.6425 -0.2960  0.2030
17528SOL    HW164643   2.485   7.940   7.617 -0.7996  0.8139  0.0035
17528SOL    HW264644   2.526   7.913   7.773  1.2405  2.1071 -0.2976
17529SOL     OW64645   0.790   5.334   2.904  0.0172 -0.2881 -1.1421
17529SOL    HW164646   0.779   5.248   2.953  2.4854 -0.1443 -0.2656
17529SOL    HW264647   0.705   5.388   2.910 -0.1914 -0.8871  1.7488
17530SOL     OW64648   1.354   4.265   0.462  0.8257  0.0835  0.2455
17530SOL    HW164649   1.284   4.213   0.414 -2.0053  1.9928  2.2032
17530SOL    HW264650   1.410   4.202   0.517  0.4278 -1.4035 -1.0167
17531SOL     OW64651   9.300   2.300   5.715  0.4832  0.2055 -0.0146
17531SOL    HW164652   9.322   2.297   5.617 -0.7662  2.8931 -0.4191
17531SOL    HW264653   9.369   2.354   5.763  0.7349 -0.5619  0.4938
17532SOL     OW64654   1.545   9.055   1.403  0.4219 -0.6713 -0.0986
17532SOL    HW164655   1.504   9.110   1.476  2.2330  0.9228 -0.2441
17532SOL    HW264656   1.474   9.027   1.338 -0.9713 -0.8909  1.4913
17533SOL     OW64657   6.849   6.070   0.394  0.5281 -0.0865  0.2042
17533SOL    HW164658   6.794   6.021   0.327 -0.2219 -0.1834  0.8791
17533SOL    HW264659   6.902   6.005   0.448  1.0202 -0.0195 -0.2031
17534SOL     OW64660   9.439   2.999   7.441 -0.0245 -0.2302  0.3281
17534SOL    HW164661   9.400   3.084   7.406 -1.1438 -1.4384 -1.5008
17534SOL    HW264662   9.391   2.971   7.524 -2.8197 -1.4316 -1.6131
17535SOL     OW64663   1.154   6.061   8.219 -0.7796 -0.0758 -0.0018
17535SOL    HW164664   1.084   6.001   8.259  0.2299 -0.8920  0.5371
17535SOL    HW264665   1.240   6.012   8.211 -0.0849  1.1324 -0.0575
17536SOL     OW64666   4.139   9.538   9.075 -0.6191 -0.2802 -0.5544
17536SOL    HW164667   4.142   9.631   9.113 -2.0517 -0.4116 -0.1087
17536SOL    HW264668   4.080   9.537   8.995 -1.5390 -1.0321  0.1189
17537SOL     OW64669   7.790   0.129   9.430 -0.3691  0.3322  0.0318
17537SOL    HW164670   7.889   0.136   9.422 -0.4055  1.2461  0.3300
17537SOL    HW264671   7.746   0.168   9.349 -0.5083  0.9752  0.4123
17538SOL     OW64672   4.334   5.098   7.360  0.1149 -0.0948  0.1761
17538SOL    HW164673   4.281   5.180   7.338 -0.1093 -0.6309 -1.3784
17538SOL    HW264674   4.273   5.026   7.393  0.3806  0.5211  2.0778
17539SOL     OW64675   7.586   9.849   7.854  0.1998  0.1488  0.1450
17539SOL    HW164676   7.508   9.894   7.810 -0.3754  0.2905  1.3097
17539SOL    HW264677   7.669   9.873   7.804 -0.6658 -1.3035 -2.1174
17540SOL     OW64678   2.574   8.289   0.068  0.5716 -0.4384 -0.3864
17540SOL    HW164679   2.543   8.206   0.022 -0.1279 -0.6651  0.4695
17540SOL    HW264680   2.609   8.265   0.159  1.0851  0.1110 -0.4379
17541SOL     OW64681   9.811   2.584   7.343  1.0226  0.1348  0.2170
17541SOL    HW164682   9.851   2.521   7.410  1.2838  0.0035 -0.0589
17541SOL    HW264683   9.736   2.538   7.295 -0.4389  0.8603  1.7511
17542SOL     OW64684   2.182   7.886   0.972  0.2128 -0.1233 -0.1536
17542SOL    HW164685   2.082   7.885   0.978  0.1976 -2.2675 -0.1281
17542SOL    HW264686   2.209   7.903   0.877 -0.1741  0.5448 -0.1463
17543SOL     OW64687   9.446   5.456   2.358  0.3016  0.2883 -0.4437
17543SOL    HW164688   9.377   5.527   2.341  1.1370  0.8631 -1.4878
17543SOL    HW264689   9.531   5.480   2.311  1.9651  0.7180  2.6731
17544SOL     OW64690   7.661   3.895   8.376  0.0591  0.1217  0.6986
17544SOL    HW164691   7.656   3.912   8.278  0.8125 -0.3079  0.5876
17544SOL    HW264692   7.573   3.861   8.408  0.0505 -0.4815  0.0347
17545SOL     OW64693   7.259   0.927   2.609  0.0743  0.5760 -0.3625
17545SOL    HW164694   7.302   0.837   2.614 -3.9520 -1.5761 -2.2362
17545SOL    HW264695   7.236   0.958   2.702 -0.1633 -1.1940  0.1966
17546SOL     OW64696   2.622   0.259   1.417 -0.2501 -0.1909  0.2218
17546SOL    HW164697   2.613   0.342   1.361  0.8750  0.4902  1.0268
17546SOL    HW264698   2.657   0.185   1.360 -0.1139  0.2038 -0.2210
17547SOL     OW64699   9.117   7.553   9.473  0.2536 -0.0885  0.3652
17547SOL    HW164700   9.158   7.466   9.502 -1.2140 -0.5302  1.1498
17547SOL    HW264701   9.087   7.604   9.554 -0.2508  0.4773 -0.1818
17548SOL     OW64702   4.388   8.301   9.689 -0.2404  0.4166 -0.3791
17548SOL    HW164703   4.466   8.238   9.698  0.0620  0.8099 -0.2528
17548SOL    HW264704   4.305   8.254   9.719  0.1789  0.4781  0.9075
17549SOL     OW64705   0.417   7.246   5.750  0.2180 -0.8727 -0.0270
17549SOL    HW164706   0.393   7.338   5.779 -0.5385 -1.3461  0.9000
17549SOL    HW264707   0.474   7.250   5.668  1.0684  0.4409  0.6145
17550SOL     OW64708   9.801   1.082   9.990 -0.6739 -0.4736  0.6125
17550SOL    HW164709   9.753   1.109  10.073 -1.3997  0.0784  0.0097
17550SOL    HW264710   9.747   1.107   9.910 -1.4950 -3.9077  0.0292
17551SOL     OW64711   3.315   3.535   5.543 -0.0547  0.3319  0.4564
17551SOL    HW164712   3.309   3.513   5.446 -1.1964  1.8160  0.1712
17551SOL    HW264713   3.264   3.467   5.596  1.0670 -0.8196  0.0818
17552SOL     OW64714   7.750   5.868   6.860  0.3930 -0.5578  0.3756
17552SOL    HW164715   7.660   5.824   6.853 -0.3668  0.8625  1.1503
17552SOL    HW264716   7.762   5.905   6.952  1.2895  0.3025 -0.0857
17553SOL     OW64717   2.234   4.037   8.855  0.2686  0.5679  0.7663
17553SOL    HW164718   2.255   3.961   8.916 -0.8369 -0.2632  0.1422
17553SOL    HW264719   2.297   4.113   8.872  2.1171 -0.9014  0.6325
17554SOL     OW64720   9.350   8.243   6.611 -0.0397  0.0501 -0.4315
17554SOL    HW164721   9.430   8.188   6.588  1.1978  1.4624  0.4837
17554SOL    HW264722   9.377   8.338   6.626 -2.2045  1.0462 -2.3835
17555SOL     OW64723   8.223   1.683   8.439 -0.2499  0.0668 -0.2506
17555SOL    HW164724   8.192   1.597   8.479 -0.4202  0.0417 -0.4374
17555SOL    HW264725   8.168   1.705   8.358  0.5233 -0.2170 -0.8591
17556SOL     OW64726   9.986   5.189   0.551  0.3085 -0.3254  0.3488
17556SOL    HW164727  10.055   5.220   0.486  1.7519  0.7094  2.3147
17556SOL    HW264728  10.002   5.093   0.575  0.6784 -0.2646  0.3371
17557SOL     OW64729   0.308   5.231   5.284 -0.5050 -0.0864 -0.3729
17557SOL    HW164730   0.354   5.240   5.196 -0.1447 -0.4855 -0.2291
17557SOL    HW264731   0.238   5.302   5.293 -0.7900 -0.2734 -1.1283
17558SOL     OW64732   3.268   2.107   6.000 -0.0214  0.4592  0.0875
17558SOL    HW164733   3.288   2.049   6.078  0.8445  0.9034  0.1966
17558SOL    HW264734   3.344   2.170   5.984  0.2515 -0.3068 -1.7421
17559SOL     OW64735   5.004   3.553   1.741  0.1754 -0.4115  0.4286
17559SOL    HW164736   5.097   3.573   1.773  0.2994 -0.4020  0.0697
17559SOL    HW264737   5.010   3.491   1.662  0.0786  2.6886 -2.1135
17560SOL     OW64738   7.777   3.603   8.054  0.5729  0.2744  0.2698
17560SOL    HW164739   7.712   3.666   8.097  0.9936  1.0822 -0.2716
17560SOL    HW264740   7.728   3.544   7.990  0.5916  2.0175 -1.4118
17561SOL     OW64741   2.919   7.209   4.783 -0.3080  0.1417  0.0288
17561SOL    HW164742   2.838   7.182   4.731 -1.1516  0.5814  1.0957
17561SOL    HW264743   2.952   7.131   4.835 -0.0300 -0.0395 -0.4117
17562SOL     OW64744   2.090   5.637   0.254 -0.5449  0.0146 -0.0293
17562SOL    HW164745   2.099   5.716   0.194 -1.7669 -0.4775 -0.8791
17562SOL    HW264746   2.144   5.652   0.337 -0.7670  1.7385 -0.1786
17563SOL     OW64747   1.249   7.690   8.861 -0.2952  0.3574  0.4027
17563SOL    HW164748   1.301   7.652   8.785  1.3592 -0.0142  1.6925
17563SOL    HW264749   1.242   7.789   8.849 -2.0864  0.0464 -1.4309
17564SOL     OW64750   4.103   9.565   7.057 -0.7101  0.0208  0.2120
17564SOL    HW164751   4.102   9.557   7.156  2.4947  2.8911  0.5746
17564SOL    HW264752   4.176   9.508   7.019 -0.3617  0.7499 -0.2391
17565SOL     OW64753   4.746   4.932   3.395  0.0073  0.3830 -0.5043
17565SOL    HW164754   4.834   4.886   3.406  0.2388  1.1601  1.0561
17565SOL    HW264755   4.747   5.018   3.446 -0.4688  2.0632 -3.2583
17566SOL     OW64756   1.203   1.356   4.778 -0.2305  0.3887 -0.1404
17566SOL    HW164757   1.202   1.265   4.818 -1.4852  0.7997  0.8279
17566SOL    HW264758   1.174   1.351   4.682  1.6663 -0.4586 -0.7005
17567SOL     OW64759   5.087   0.046   5.790 -0.2874 -0.6341 -0.0817
17567SOL    HW164760   5.022  -0.004   5.732  0.1010  0.7592 -1.7215
17567SOL    HW264761   5.180   0.032   5.757  0.0250 -0.4832  0.7086
17568SOL     OW64762   5.597   2.473   2.499  0.2150 -0.0250  0.1784
17568SOL    HW164763   5.619   2.552   2.556 -1.1033  1.8952 -1.8739
17568SOL    HW264764   5.499   2.451   2.509  0.4833 -1.1474  0.4146
17569SOL     OW64765   9.004   8.854   2.055  0.3808 -0.6714  0.5200
17569SOL    HW164766   8.923   8.846   2.112  0.7400  1.1835  1.3177
17569SOL    HW264767   9.037   8.763   2.031 -2.5265 -1.4709 -0.6820
17570SOL     OW64768   1.280   3.494   0.911  0.5522 -0.3212  0.1632
17570SOL    HW164769   1.286   3.402   0.875  0.8902 -0.5880  0.8837
17570SOL    HW264770   1.330   3.557   0.852 -0.9404 -0.3395 -1.1513
17571SOL     OW64771   8.070   8.687   2.000 -0.3124 -0.0866  0.2238
17571SOL    HW164772   8.121   8.601   2.007 -1.0413 -0.5445  0.0090
17571SOL    HW264773   8.108   8.742   1.926 -1.6926 -1.5400 -1.6325
17572SOL     OW64774   7.867   5.295   2.026  0.0436 -0.3184  0.1979
17572SOL    HW164775   7.960   5.326   2.004  0.0254  1.6852  2.7043
17572SOL    HW264776   7.809   5.303   1.945  1.3092  1.3873 -0.5772
17573SOL     OW64777   6.417   0.882   4.283  0.3550  0.1439 -0.2487
17573SOL    HW164778   6.399   0.930   4.197  0.1635 -0.7906 -0.7417
17573SOL    HW264779   6.333   0.842   4.318  0.2498  1.3427  0.8908
17574SOL     OW64780   6.767   3.882   2.213  0.2552  0.2191 -0.1775
17574SOL    HW164781   6.791   3.946   2.140 -0.2621  0.0578 -0.4891
17574SOL    HW264782   6.750   3.791   2.174 -0.5698  0.2601  0.0686
17575SOL     OW64783   8.872   4.544   4.984 -0.2337 -0.3777 -0.1111
17575SOL    HW164784   8.856   4.615   4.916  3.9867 -0.0717 -0.8845
17575SOL    HW264785   8.938   4.478   4.949  0.4298 -1.3631  2.8764
17576SOL     OW64786   3.604   7.939   6.905  0.0124  0.5922 -0.0861
17576SOL    HW164787   3.677   7.998   6.937 -0.3676 -0.4547  2.8450
17576SOL    HW264788   3.535   7.993   6.857  1.7475  1.8586 -1.1843
17577SOL     OW64789   4.964   8.269   4.915 -0.1159 -0.4381 -0.3588
17577SOL    HW164790   4.917   8.306   4.994 -0.8088 -0.9273 -0.5309
17577SOL    HW264791   4.978   8.170   4.928 -0.7544 -0.6338 -1.0838
17578SOL     OW64792   3.522   1.029   5.530 -0.6235  0.2893 -0.1915
17578SOL    HW164793   3.548   1.029   5.627  0.5871  2.3699 -0.4811
17578SOL    HW264794   3.424   1.014   5.522 -0.4026 -2.0991  1.2367
17579SOL     OW64795   8.441   2.881   7.310  0.0362 -0.2257  0.4995
17579SOL    HW164796   8.458   2.792   7.267  1.8396  1.1651 -1.7717
17579SOL    HW264797   8.373   2.870   7.382 -1.2550 -3.0873 -1.0543
17580SOL     OW64798   4.420   8.628   3.614  0.4891 -0.2415 -0.1869
17580SOL    HW164799   4.401   8.652   3.709 -0.4145  0.1947 -0.4738
17580SOL    HW264800   4.519   8.617   3.602  0.5692 -0.8406  0.9224
17581SOL     OW64801   2.791   4.045   3.232 -0.2247 -0.0983 -0.1372
17581SOL    HW164802   2.830   4.061   3.322 -1.3766  0.1532  0.3332
17581SOL    HW264803   2.729   3.966   3.236 -1.0088  0.4873 -0.4728
17582SOL     OW64804   2.082   6.338   9.241  0.0388 -0.1500  0.1460
17582SOL    HW164805   2.036   6.384   9.165 -0.0821 -1.3916 -0.5558
17582SOL    HW264806   2.035   6.360   9.326 -0.3863  0.5282 -0.2572
17583SOL     OW64807   5.730   9.224   4.630 -0.2734  0.3951 -0.1576
17583SOL    HW164808   5.801   9.205   4.562  0.1311 -0.4427  0.4934
17583SOL    HW264809   5.721   9.146   4.692 -1.5374  0.6317 -0.0305
17584SOL     OW64810   1.625   7.650   9.087  0.5148 -0.8663  0.2340
17584SOL    HW164811   1.525   7.651   9.082  0.4728  0.1059  1.0928
17584SOL    HW264812   1.658   7.556   9.079 -0.4319 -1.1340 -0.6728
17585SOL     OW64813   0.546   6.840   3.824  0.3745  0.7242 -0.1858
17585SOL    HW164814   0.465   6.850   3.882  0.8393  0.7138  0.4702
17585SOL    HW264815   0.625   6.820   3.881  0.5185 -1.0276 -0.9811
17586SOL     OW64816   3.566   5.208   6.480  0.4333  0.2760 -0.0720
17586SOL    HW164817   3.540   5.189   6.386  1.0988 -3.0627  0.3711
17586SOL    HW264818   3.657   5.171   6.497  0.2110  0.6182  1.9661
17587SOL     OW64819   2.393   4.079   0.508 -0.2008  0.2242 -0.2415
17587SOL    HW164820   2.429   4.039   0.592  0.1980  2.0040  0.4456
17587SOL    HW264821   2.293   4.069   0.506 -0.1369 -0.5154  0.0616
17588SOL     OW64822   9.844   7.177   3.704  0.3797 -0.2159 -0.1109
17588SOL    HW164823   9.766   7.227   3.741  0.1448 -0.3276 -0.4494
17588SOL    HW264824   9.852   7.196   3.606  0.6534 -0.3678 -0.1189
17589SOL     OW64825   2.523   8.609   1.473  0.2409  0.0347  0.3195
17589SOL    HW164826   2.572   8.530   1.436  1.6946  2.3507 -2.9086
17589SOL    HW264827   2.434   8.618   1.428 -0.1465 -0.0453  1.0565
17590SOL     OW64828   9.054   7.180   0.628  0.1673 -0.4682 -0.3830
17590SOL    HW164829   9.131   7.174   0.691 -0.3400 -1.0754  0.1816
17590SOL    HW264830   9.074   7.249   0.558  0.7908  0.0960  0.3439
17591SOL     OW64831   1.487   8.235   1.856 -0.3189 -0.4565 -0.3011
17591SOL    HW164832   1.398   8.281   1.847  0.4711  1.2853  0.6011
17591SOL    HW264833   1.556   8.287   1.806  0.4491 -1.1184  0.0745
17592SOL     OW64834   7.639   0.092   7.700  0.1007  0.5558  0.3694
17592SOL    HW164835   7.637   0.037   7.617 -0.4102  0.3977  0.4853
17592SOL    HW264836   7.589   0.177   7.685  0.3283  0.6967  0.3995
17593SOL     OW64837   5.620   5.608   2.295 -0.2736 -0.0009 -0.0615
17593SOL    HW164838   5.674   5.643   2.372  1.9320  1.8024 -2.3421
17593SOL    HW264839   5.535   5.659   2.287  0.8299  1.7968 -0.5566
17594SOL     OW64840   6.356   3.315   2.391  0.3624 -0.2114 -0.0813
17594SOL    HW164841   6.265   3.353   2.407  0.5526  0.5010 -0.6393
17594SOL    HW264842   6.398   3.362   2.313  1.1641 -0.6086  0.1067
17595SOL     OW64843   5.811   4.700   9.305  0.3257  0.0280 -0.3693
17595SOL    HW164844   5.856   4.626   9.355  1.7779  0.9470 -0.3164
17595SOL    HW264845   5.781   4.770   9.369  0.4142  0.2652 -0.5893
17596SOL     OW64846   7.133   7.131   6.635 -0.1083  0.2081  0.9140
17596SOL    HW164847   7.071   7.208   6.621  0.6862  0.5106 -1.0543
17596SOL    HW264848   7.080   7.048   6.652 -1.0369  0.5273 -0.4169
17597SOL     OW64849   4.936   1.520   4.086 -0.0294  0.3794  0.2533
17597SOL    HW164850   4.893   1.445   4.037 -0.3040  1.6411 -1.4813
17597SOL    HW264851   5.026   1.539   4.047 -0.4156  1.6547 -0.0464
17598SOL     OW64852   4.953   4.699   9.742  0.2679 -0.3489  0.2236
17598SOL    HW164853   5.015   4.631   9.703 -0.2106 -0.8230  0.2660
17598SOL    HW264854   5.002   4.784   9.759  0.7315 -0.4851 -0.4067
17599SOL     OW64855   3.292   0.217   2.491 -0.3470  0.0084  0.1451
17599SOL    HW164856   3.272   0.128   2.531 -1.6935  0.1560 -0.1814
17599SOL    HW264857   3.295   0.286   2.564 -0.9274 -0.0386  0.2165
17600SOL     OW64858   5.981   1.589   1.032 -0.2817 -0.0654  0.1351
17600SOL    HW164859   5.886   1.609   1.058 -0.3324 -0.7923  0.5124
17600SOL    HW264860   6.038   1.669   1.050 -1.0048  0.7315 -1.0303
17601SOL     OW64861   6.080   5.575   8.473  0.0613 -0.0225  0.3497
17601SOL    HW164862   6.047   5.585   8.567  0.6571 -0.8090  0.6542
17601SOL    HW264863   6.163   5.519   8.473  0.4032  0.4741 -0.5846
17602SOL     OW64864   7.270   2.953   1.836 -0.1130  0.5183  0.0554
17602SOL    HW164865   7.231   2.958   1.745  1.7285 -1.4742 -0.9087
17602SOL    HW264866   7.279   3.044   1.875 -1.6223  1.3157 -1.4254
17603SOL     OW64867   3.262   4.173   0.326 -0.3051  0.3178  0.2252
17603SOL    HW164868   3.248   4.121   0.242 -1.2637  0.9122  0.0063
17603SOL    HW264869   3.345   4.141   0.372 -0.3263 -0.6989 -0.4258
17604SOL     OW64870   8.354   1.354   7.239 -0.1304 -0.1157  0.1292
17604SOL    HW164871   8.400   1.272   7.274  0.0981 -0.8130 -1.7445
17604SOL    HW264872   8.322   1.409   7.316 -0.1696 -1.8902  1.4369
17605SOL     OW64873   5.255   6.144   0.937 -0.0928 -0.3358 -0.3343
17605SOL    HW164874   5.253   6.240   0.966  0.2292 -0.7649  1.1650
17605SOL    HW264875   5.168   6.101   0.961 -0.1391 -0.4834 -0.7737
17606SOL     OW64876   1.958   5.043   3.597 -0.2998  0.2774  0.2984
17606SOL    HW164877   1.925   4.981   3.668 -0.9293 -0.4474 -0.6074
17606SOL    HW264878   1.983   5.130   3.637  0.0719 -0.3848  1.5196
17607SOL     OW64879   0.216   2.682   0.616 -0.2855 -0.1447  0.0459
17607SOL    HW164880   0.309   2.701   0.584 -0.1834  0.4784  0.6989
17607SOL    HW264881   0.178   2.764   0.660 -0.9035 -0.5912  0.3613
17608SOL     OW64882   3.973   6.412   7.257  0.3628  0.5979  0.3450
17608SOL    HW164883   4.036   6.335   7.242 -0.0053  0.7085 -1.9019
17608SOL    HW264884   4.002   6.463   7.338  1.4989 -0.9981  0.9853
17609SOL     OW64885   8.978   2.111   8.959  0.5432  0.2250 -0.0404
17609SOL    HW164886   9.003   2.195   8.910  1.2534  1.1776  1.8930
17609SOL    HW264887   9.054   2.046   8.954 -0.3014 -0.6449 -2.1930
17610SOL     OW64888   7.181   4.639   1.874 -0.6329  0.0135  0.3889
17610SOL    HW164889   7.126   4.688   1.941  3.0409  4.8317  0.1429
17610SOL    HW264890   7.140   4.650   1.783 -2.0633 -0.9318  0.9070
17611SOL     OW64891   0.631   7.116   7.539 -0.8241  0.1448 -0.1017
17611SOL    HW164892   0.669   7.153   7.455 -1.7851 -0.1774 -0.6821
17611SOL    HW264893   0.553   7.057   7.518 -3.1218  2.5999  1.1772
17612SOL     OW64894   5.052   8.500   2.107 -0.1905 -0.0937 -0.1226
17612SOL    HW164895   5.066   8.599   2.101  0.1074 -0.1169  0.1079
17612SOL    HW264896   5.018   8.477   2.198  1.8340 -0.4252  0.5745
17613SOL     OW64897   9.562   4.861   2.840 -0.0990  0.0049 -0.0435
17613SOL    HW164898   9.469   4.847   2.873 -0.1600  0.7531  0.1140
17613SOL    HW264899   9.565   4.850   2.741 -0.4611  0.4979 -0.1118
17614SOL     OW64900   4.323   8.802   9.916 -0.2040  0.0608 -0.6360
17614SOL    HW164901   4.354   8.893   9.944 -2.1476  0.5957 -0.1224
17614SOL    HW264902   4.402   8.746   9.891  1.3549  0.7085  2.5346
17615SOL     OW64903   2.034   5.076   9.918 -0.0081 -0.1466 -0.4146
17615SOL    HW164904   2.040   5.170   9.951 -0.4265 -0.7117  1.2854
17615SOL    HW264905   2.033   5.013   9.995  0.6420 -1.5840 -1.5489
17616SOL     OW64906   4.218   0.203   0.875 -0.0791 -0.1430 -0.3311
17616SOL    HW164907   4.122   0.227   0.866 -0.0774 -0.4402 -1.1622
17616SOL    HW264908   4.227   0.112   0.915 -0.1323  0.1891  0.4317
17617SOL     OW64909   7.951   5.286   5.378 -0.2094 -0.5020  0.0286
17617SOL    HW164910   8.041   5.243   5.379 -0.3061 -0.7838 -1.7285
17617SOL    HW264911   7.881   5.217   5.359 -0.8333 -0.3445  1.7276
17618SOL     OW64912   9.805   8.807   9.261  0.4011  0.6687  0.1819
17618SOL    HW164913   9.773   8.881   9.201 -0.6978 -1.6964 -2.2635
17618SOL    HW264914   9.731   8.782   9.324  0.2266  0.5903 -0.0532
17619SOL     OW64915   9.083   3.028   6.601  0.3037  0.4481  0.1051
17619SOL    HW164916   9.164   3.077   6.568 -0.3854  1.5736  0.0278
17619SOL    HW264917   9.106   2.978   6.684  1.6627 -1.1321 -1.1914
17620SOL     OW64918   4.419   0.590   0.813  0.0886 -0.0664  0.4145
17620SOL    HW164919   4.515   0.586   0.784  0.5675 -0.7203  2.0111
17620SOL    HW264920   4.382   0.681   0.795  0.7199 -0.0775 -1.0435
17621SOL     OW64921   4.018   4.136   5.778 -0.6167  0.0157 -0.1823
17621SOL    HW164922   4.046   4.209   5.841  0.4390  0.3195 -0.9843
17621SOL    HW264923   3.919   4.135   5.770 -0.6744  0.9597  0.3104
17622SOL     OW64924   5.015   0.908   9.344  0.1345 -0.1130  0.3986
17622SOL    HW164925   5.088   0.862   9.294 -0.7697 -1.5285  0.3218
17622SOL    HW264926   4.944   0.937   9.281  0.3605  0.7416  0.5350
17623SOL     OW64927   7.495   4.029  10.045  0.0597 -0.2262  0.3521
17623SOL    HW164928   7.573   4.027  10.107  0.0797 -0.6888  0.3178
17623SOL    HW264929   7.468   4.123  10.027  0.6281 -0.0628  0.3472
17624SOL     OW64930   1.382   8.267   4.085  0.0863  0.5923  0.3373
17624SOL    HW164931   1.374   8.183   4.139 -1.3133  1.1425  0.9934
17624SOL    HW264932   1.471   8.309   4.103  0.1387  0.1134  1.2500
17625SOL     OW64933   0.749   8.176   3.830  0.0413  0.1167 -0.0179
17625SOL    HW164934   0.821   8.244   3.843 -0.5005  1.0172 -1.6008
17625SOL    HW264935   0.716   8.145   3.919  0.7586  1.4282  0.7218
17626SOL     OW64936   7.655   3.232   5.173 -0.2367  0.6282 -0.2803
17626SOL    HW164937   7.745   3.203   5.142 -0.1399  2.2212 -1.5614
17626SOL    HW264938   7.602   3.152   5.201  1.4713 -0.3452  0.2256
17627SOL     OW64939   8.660   0.289   0.751 -0.2199 -0.0021  0.4038
17627SOL    HW164940   8.628   0.243   0.669  1.6050 -0.6281  0.0204
17627SOL    HW264941   8.632   0.385   0.748  0.9076  0.2867 -1.5673
17628SOL     OW64942   1.648   1.297   8.887  0.5899  0.3380  0.1078
17628SOL    HW164943   1.746   1.300   8.906  0.5591  1.3866  0.0868
17628SOL    HW264944   1.631   1.313   8.790  0.4755 -1.1984 -0.1516
17629SOL     OW64945   2.824   1.698   0.108  0.6261  0.5436 -0.2206
17629SOL    HW164946   2.861   1.698   0.201  0.5194  2.6975 -0.1649
17629SOL    HW264947   2.848   1.611   0.064  1.3006 -0.2144  1.5570
17630SOL     OW64948   6.242   6.436   0.396 -0.1174 -0.2679 -0.8645
17630SOL    HW164949   6.210   6.342   0.383  0.4789 -0.5786 -0.1405
17630SOL    HW264950   6.172   6.499   0.363 -1.0754 -0.9461 -0.1988
17631SOL     OW64951   7.764   7.913   7.705 -0.1472  0.2502  0.1885
17631SOL    HW164952   7.844   7.854   7.719 -0.7381 -0.7786 -0.7125
17631SOL    HW264953   7.773   7.961   7.618 -0.3282  0.4207  0.2642
17632SOL     OW64954   2.772   9.941   0.142 -0.0808 -0.5888  0.8451
17632SOL    HW164955   2.698   9.914   0.080 -1.0104  0.4444  1.4793
17632SOL    HW264956   2.849   9.976   0.089 -1.1616  1.0039  0.2892
17633SOL     OW64957   4.563   9.695   6.410  0.3268 -0.0298 -0.1822
17633SOL    HW164958   4.497   9.767   6.388 -0.3561 -0.7823 -0.6150
17633SOL    HW264959   4.637   9.734   6.465 -0.6418  0.7588  0.5870
17634SOL     OW64960   0.558   0.847   8.462 -0.4508 -0.3765  0.2822
17634SOL    HW164961   0.478   0.906   8.453 -0.8361 -1.0509 -0.8154
17634SOL    HW264962   0.558   0.806   8.553  0.1304  1.7387  1.2611
17635SOL     OW64963   1.093   5.675   5.294 -0.0383  0.4844  0.5338
17635SOL    HW164964   0.999   5.679   5.328  0.3857  1.7353  1.5917
17635SOL    HW264965   1.100   5.725   5.208 -0.1294  1.2331  0.9607
17636SOL     OW64966   8.867   6.248   8.998 -0.2589  0.2384 -0.2545
17636SOL    HW164967   8.796   6.194   8.954 -0.1717  1.1427 -1.5237
17636SOL    HW264968   8.891   6.327   8.940 -0.5125  1.7402  1.6301
17637SOL     OW64969   0.261   9.220   1.003  0.1404  0.3194  0.3394
17637SOL    HW164970   0.344   9.200   1.055  1.7469  0.2494 -2.1411
17637SOL    HW264971   0.264   9.170   0.916 -1.8969  1.3355 -0.3348
17638SOL     OW64972   2.187   9.346   6.901  0.1333 -0.4848  0.2855
17638SOL    HW164973   2.152   9.278   6.966  3.1348 -0.0552  2.4245
17638SOL    HW264974   2.285   9.334   6.889  0.1952  1.5840 -1.6688
17639SOL     OW64975   9.862   5.673   3.009  0.4623 -0.1160 -0.3279
17639SOL    HW164976   9.786   5.730   2.978 -0.3779 -0.8610  0.3231
17639SOL    HW264977   9.867   5.675   3.109  1.2746 -0.1027 -0.3698
17640SOL     OW64978   5.299   7.276   6.419  0.6449  0.4036 -0.5716
17640SOL    HW164979   5.313   7.364   6.374 -0.4755  0.9782  0.1866
17640SOL    HW264980   5.364   7.268   6.496 -0.4630  1.3632  0.4859
17641SOL     OW64981   8.198   6.472   8.036  0.3982 -0.4979 -0.6694
17641SOL    HW164982   8.145   6.406   8.089  1.6856 -0.1041  1.1604
17641SOL    HW264983   8.177   6.462   7.939 -0.6336 -2.4782 -0.2556
17642SOL     OW64984   0.238   7.309   1.022  0.0892 -0.3773  0.0885
17642SOL    HW164985   0.240   7.398   0.976 -0.6539 -1.1966 -1.5731
17642SOL    HW264986   0.207   7.321   1.116 -0.1779  1.1089 -0.1736
17643SOL     OW64987   0.209   5.114   7.254 -0.1554 -0.1160  0.0849
17643SOL    HW164988   0.249   5.024   7.234  0.7420 -0.5087  3.4353
17643SOL    HW264989   0.126   5.126   7.200  0.3795 -2.4316 -1.3332
17644SOL     OW64990   3.698   0.684   5.058 -0.2542 -0.8128  0.6985
17644SOL    HW164991   3.636   0.717   5.129  0.1000  1.9285 -0.2234
17644SOL    HW264992   3.656   0.696   4.968  1.6001  1.2603  0.0464
17645SOL     OW64993   1.689   2.228   3.812  0.3011 -0.5292 -1.2906
17645SOL    HW164994   1.662   2.173   3.891  1.2981 -0.3661 -0.8228
17645SOL    HW264995   1.684   2.325   3.836 -0.4374 -0.4454 -1.7767
17646SOL     OW64996   9.055   5.177   0.874 -0.2492  0.1222 -0.1143
17646SOL    HW164997   9.108   5.112   0.929 -1.5711  0.8300  2.0743
17646SOL    HW264998   9.097   5.187   0.784  2.9051  0.1201  1.2920
17647SOL     OW64999   2.603   3.995   2.035 -0.3624 -0.0653  0.4018
17647SOL    HW165000   2.670   3.931   1.998 -0.3093  0.1967  0.0478
17647SOL    HW265001   2.649   4.062   2.093 -0.7502 -2.0912  3.1965
17648SOL     OW65002   0.605   6.383   6.591  0.0481 -0.8232 -0.2208
17648SOL    HW165003   0.658   6.374   6.676  0.0412  1.3740  0.0395
17648SOL    HW265004   0.530   6.447   6.605 -1.1769 -1.9950 -1.3259
17649SOL     OW65005   3.141   2.592   1.584  0.2236  0.9582 -0.5319
17649SOL    HW165006   3.211   2.552   1.525  1.2948  0.6009  0.9399
17649SOL    HW265007   3.052   2.585   1.541  0.8479 -0.1961 -1.6569
17650SOL     OW65008   7.894   2.409   9.968  0.0994  0.3399 -0.2073
17650SOL    HW165009   7.978   2.430   9.918  1.1754  0.8476  1.7310
17650SOL    HW265010   7.826   2.480   9.950  2.1225  3.1900  2.6529
17651SOL     OW65011   9.322   3.504   7.293 -0.8550  0.1973 -0.0233
17651SOL    HW165012   9.370   3.540   7.373 -0.3338  0.5010 -0.4695
17651SOL    HW265013   9.239   3.557   7.277 -0.3469  0.8907 -0.3825
17652SOL     OW65014   3.076   1.977   6.363 -0.0232  0.8054 -0.0903
17652SOL    HW165015   3.141   2.007   6.433  0.5064  0.3925 -0.4013
17652SOL    HW265016   3.119   1.909   6.305 -0.4546  1.1665 -0.8381
17653SOL     OW65017   6.312   0.198   9.027 -0.1737 -0.0680  0.1039
17653SOL    HW165018   6.346   0.193   9.121  0.7107 -0.0495 -0.2182
17653SOL    HW265019   6.231   0.140   9.019 -0.2981 -0.0146  0.8944
17654SOL     OW65020   7.631   8.471   3.379  0.1068  0.6064  0.6358
17654SOL    HW165021   7.645   8.399   3.312  0.5111  1.6651 -0.4227
17654SOL    HW265022   7.533   8.491   3.386  0.1946  1.6032 -0.8197
17655SOL     OW65023   3.128   3.424   8.534 -0.0047 -0.4699  0.0266
17655SOL    HW165024   3.220   3.386   8.530  0.1568  0.0864 -3.2655
17655SOL    HW265025   3.134   3.524   8.535 -0.5766 -0.4151 -1.3404
17656SOL     OW65026   1.544   2.158   4.429  0.3621 -0.4408  0.4792
17656SOL    HW165027   1.566   2.243   4.475  1.1426  0.6107 -1.7793
17656SOL    HW265028   1.481   2.105   4.485 -0.3179  1.7199  1.7957
17657SOL     OW65029   4.183   9.103   3.376 -0.1275  0.5265  0.1285
17657SOL    HW165030   4.282   9.108   3.389 -0.0984 -2.4303  1.5332
17657SOL    HW265031   4.137   9.154   3.448  0.3690  0.7450  0.2929
17658SOL     OW65032   0.714   4.789   4.691 -0.0007 -0.0613  0.1275
17658SOL    HW165033   0.615   4.777   4.680 -0.3482  2.7948 -0.2686
17658SOL    HW265034   0.733   4.827   4.782  0.9168 -2.3896  0.9305
17659SOL     OW65035   9.241   6.051   3.152 -0.1885 -0.7355  0.1707
17659SOL    HW165036   9.331   6.082   3.180  0.5244 -1.7731 -0.9294
17659SOL    HW265037   9.215   6.098   3.067 -1.5068  0.9554  1.4568
17660SOL     OW65038   5.495   8.182   6.458  0.2097  0.1014  0.3162
17660SOL    HW165039   5.473   8.123   6.536  1.5855 -1.6789 -0.6008
17660SOL    HW265040   5.463   8.139   6.374  2.7038 -0.1475 -0.5335
17661SOL     OW65041   5.193   1.079   6.706 -0.1385 -0.1804  0.7811
17661SOL    HW165042   5.124   1.019   6.746 -1.7252 -1.2828 -3.2760
17661SOL    HW265043   5.240   1.030   6.632  1.0936  2.3988 -0.1957
17662SOL     OW65044   3.487   8.911   2.438 -0.5286  0.3232 -0.4950
17662SOL    HW165045   3.388   8.894   2.435 -0.0234 -3.3047  0.7234
17662SOL    HW265046   3.528   8.876   2.353  0.1837 -2.2260  0.8353
17663SOL     OW65047   2.170   3.272   2.706  0.0462 -0.0755  0.0175
17663SOL    HW165048   2.238   3.200   2.694  0.2235 -0.0642  0.9066
17663SOL    HW265049   2.147   3.312   2.617 -0.1333 -1.3029 -0.4995
17664SOL     OW65050   3.054   5.755   0.753  0.0988 -0.0902 -0.3610
17664SOL    HW165051   2.997   5.697   0.811 -0.8523 -0.3089 -1.4982
17664SOL    HW265052   3.110   5.697   0.694  0.1361  0.1516 -0.5616
17665SOL     OW65053   1.015   1.427   6.540  0.3727  0.2083 -0.2153
17665SOL    HW165054   0.943   1.397   6.603  0.7972  1.0478  0.6766
17665SOL    HW265055   0.994   1.394   6.448 -0.8167 -0.1120  0.1574
17666SOL     OW65056   2.888   7.130   9.055  0.0455  0.0867  0.4354
17666SOL    HW165057   2.886   7.183   8.970 -1.4995 -1.0046 -0.2346
17666SOL    HW265058   2.975   7.080   9.061 -0.0032 -0.1561 -0.7192
17667SOL     OW65059   4.458   1.937   1.823 -0.1120 -0.1084  0.1205
17667SOL    HW165060   4.419   2.028   1.806 -0.3952 -0.2982 -0.2632
17667SOL    HW265061   4.470   1.889   1.736  1.9286  0.3224  0.1462
17668SOL     OW65062   7.759   5.608   2.034  0.3087 -0.0518 -0.2739
17668SOL    HW165063   7.718   5.620   2.124 -0.8203  1.4627 -0.9758
17668SOL    HW265064   7.690   5.572   1.971 -0.3059  3.4321 -1.7082
17669SOL     OW65065   2.310   8.938   0.203  0.0237  0.3331 -0.2207
17669SOL    HW165066   2.308   8.877   0.123  1.2886  1.3732 -1.0520
17669SOL    HW265067   2.331   8.885   0.285  0.6458 -0.4336 -0.8671
17670SOL     OW65068   3.265   9.077   6.115 -0.5152  0.1454 -0.7615
17670SOL    HW165069   3.179   9.128   6.124 -0.7373 -0.4367  0.5033
17670SOL    HW265070   3.256   8.989   6.161  1.3145  0.7850  0.8761
17671SOL     OW65071   1.512   9.380   4.048 -0.1380  0.6072  0.0149
17671SOL    HW165072   1.501   9.431   4.134  0.4051  0.6497  0.0649
17671SOL    HW265073   1.544   9.443   3.977 -2.0115  0.8793 -0.5951
17672SOL     OW65074   2.257   3.865   2.745 -0.2577 -0.3831  0.1113
17672SOL    HW165075   2.231   3.778   2.704 -0.4569  0.3278 -1.2964
17672SOL    HW265076   2.306   3.920   2.678  0.4267  0.3390  1.1882
17673SOL     OW65077   3.198   8.136   6.094  0.1869  0.6121  0.1209
17673SOL    HW165078   3.105   8.162   6.122 -0.1321 -1.2580  0.8836
17673SOL    HW265079   3.205   8.141   5.994 -1.2258 -0.7813 -0.0673
17674SOL     OW65080   2.622   7.014   7.385 -0.0701  0.6170  0.1362
17674SOL    HW165081   2.574   7.005   7.472  1.7165  0.6159  1.1421
17674SOL    HW265082   2.588   7.094   7.336 -1.4982  0.2790  0.5604
17675SOL     OW65083   2.528   1.055   2.120  0.2388 -0.3780  0.6688
17675SOL    HW165084   2.458   1.022   2.056  2.1892 -0.7258 -1.3657
17675SOL    HW265085   2.500   1.145   2.155 -2.3663 -1.5778  1.8174
17676SOL     OW65086   3.412   8.978   7.834  0.1110  0.0049 -0.2798
17676SOL    HW165087   3.416   9.005   7.930 -2.0048 -2.1495  0.4646
17676SOL    HW265088   3.322   9.002   7.797  0.0302 -1.3830 -1.0120
17677SOL     OW65089   7.328   8.757   5.896  0.3034 -0.0195 -0.2391
17677SOL    HW165090   7.364   8.808   5.975 -0.6000  0.9275 -0.4268
17677SOL    HW265091   7.391   8.683   5.873  0.3269 -0.6149  1.6700
17678SOL     OW65092   2.639   5.828   4.541  0.1426 -0.2198 -0.4086
17678SOL    HW165093   2.598   5.912   4.577  2.2240  0.6594 -0.0094
17678SOL    HW265094   2.643   5.760   4.614 -0.4499 -0.2351 -0.3954
17679SOL     OW65095   3.776   8.229   4.690 -0.0229 -0.2435 -0.6834
17679SOL    HW165096   3.777   8.166   4.768  1.2893 -1.4115 -1.6091
17679SOL    HW265097   3.861   8.218   4.638 -0.4494  1.2288 -1.7179
17680SOL     OW65098   7.022   1.495   3.463 -0.0175 -0.4048  0.1537
17680SOL    HW165099   6.994   1.520   3.370 -1.6455  1.6849  1.1514
17680SOL    HW265100   6.952   1.437   3.505  0.0455 -0.1956  0.5528
17681SOL     OW65101   1.468   3.644   8.531 -0.4647 -0.3474  0.2451
17681SOL    HW165102   1.476   3.717   8.599 -2.5154 -0.1593  0.3336
17681SOL    HW265103   1.401   3.671   8.462 -0.8311 -1.9059 -0.0272
17682SOL     OW65104   3.937   5.124   8.710 -0.2964 -0.0164  0.2324
17682SOL    HW165105   3.943   5.173   8.623  1.0897 -1.2273 -0.3862
17682SOL    HW265106   4.005   5.050   8.711  0.3516  0.5686  2.7198
17683SOL     OW65107   4.308   1.454   7.002  0.1904  0.4898  0.6193
17683SOL    HW165108   4.313   1.554   7.003 -0.1060  0.5113  0.3127
17683SOL    HW265109   4.235   1.426   6.939  0.3349  0.0789  0.6373
17684SOL     OW65110   2.116   6.318   2.398 -0.4748  0.0384 -0.3408
17684SOL    HW165111   2.128   6.413   2.427 -0.4332  1.0287 -3.4394
17684SOL    HW265112   2.199   6.266   2.418 -0.0317  0.9522  0.2318
17685SOL     OW65113   9.006   9.516   6.279  0.0243  0.3838  0.0208
17685SOL    HW165114   9.009   9.432   6.225 -3.5244 -1.2372  2.1511
17685SOL    HW265115   9.093   9.528   6.327  2.1987  0.3873 -3.7391
17686SOL     OW65116   0.647   6.740   0.278 -0.1887  0.0071 -0.4606
17686SOL    HW165117   0.609   6.682   0.206 -1.5068 -0.6781  0.7700
17686SOL    HW265118   0.577   6.759   0.347  0.8789  1.1691  0.3371
17687SOL     OW65119   7.976   7.878   5.271  0.6586  0.0502 -0.0487
17687SOL    HW165120   7.968   7.881   5.371 -1.0561 -0.4776 -0.1540
17687SOL    HW265121   8.045   7.944   5.241  2.0783 -0.6558  1.5697
17688SOL     OW65122   4.346   1.184   1.159  0.7898 -0.5646  0.2934
17688SOL    HW165123   4.296   1.210   1.076  1.0845  0.2999  0.3854
17688SOL    HW265124   4.424   1.126   1.134  0.8069 -0.4083 -0.0265
17689SOL     OW65125   2.673   2.043   9.767  0.5394 -0.2390  0.2478
17689SOL    HW165126   2.657   1.970   9.700 -0.2138  0.1804 -0.0314
17689SOL    HW265127   2.668   2.004   9.859 -0.6341 -0.4059  0.1256
17690SOL     OW65128   0.955   0.527   2.428 -0.2176  0.2648 -0.1635
17690SOL    HW165129   0.926   0.431   2.425  0.5577 -0.0145  0.7396
17690SOL    HW265130   0.968   0.562   2.335  0.1438 -0.7112 -0.4853
17691SOL     OW65131   0.182   4.434   0.508  0.1822 -0.1499 -0.1688
17691SOL    HW165132   0.271   4.459   0.547  0.2292  1.3633 -1.2287
17691SOL    HW265133   0.109   4.480   0.559  0.0844 -0.2236 -0.2430
17692SOL     OW65134   1.528   8.848   7.029 -0.1168 -0.5270  0.3679
17692SOL    HW165135   1.457   8.778   7.042  0.0300 -0.4697  1.5083
17692SOL    HW265136   1.544   8.861   6.931 -0.2469 -1.9855  0.1425
17693SOL     OW65137   4.100   4.084   4.311 -0.4978  0.1722 -0.1321
17693SOL    HW165138   4.107   4.164   4.252 -2.0552 -0.6954 -1.5561
17693SOL    HW265139   4.140   4.005   4.264 -1.1829 -0.3894  0.2069
17694SOL     OW65140   0.498   7.619   4.347 -0.3845 -0.0358 -0.5101
17694SOL    HW165141   0.545   7.566   4.417  0.9821  1.1069 -0.5511
17694SOL    HW265142   0.525   7.715   4.353 -0.5446  0.1534 -2.3397
17695SOL     OW65143   4.128   3.454   9.464  0.1036 -0.1508  0.0270
17695SOL    HW165144   4.169   3.462   9.556 -2.2806 -0.4369  1.1368
17695SOL    HW265145   4.042   3.505   9.461  0.2880  0.0673 -2.1528
17696SOL     OW65146   9.832   5.246   5.812  0.0436 -0.0781  0.0409
17696SOL    HW165147   9.851   5.235   5.910  0.0677  0.3452  0.0861
17696SOL    HW265148   9.855   5.161   5.764 -1.6633 -0.9063  0.6517
17697SOL     OW65149   5.219   4.774   9.398  0.2442 -0.1818 -0.3202
17697SOL    HW165150   5.123   4.796   9.417  0.2172  0.4921 -1.1931
17697SOL    HW265151   5.277   4.826   9.460  0.1364  1.5782 -1.6425
17698SOL     OW65152   7.429   6.593   3.081  0.1733 -0.0397  0.5041
17698SOL    HW165153   7.528   6.595   3.071  0.3125 -0.0556  1.8072
17698SOL    HW265154   7.397   6.498   3.081  0.3678 -0.1188  1.9310
17699SOL     OW65155   1.988   0.357   8.033  0.5606  0.1806  0.5798
17699SOL    HW165156   1.944   0.284   8.085  1.1338 -0.8154 -0.3253
17699SOL    HW265157   1.924   0.433   8.022 -0.6711 -0.9217 -0.0268
17700SOL     OW65158   0.315   4.017   3.728 -0.2012  0.0068 -0.1267
17700SOL    HW165159   0.379   4.063   3.668 -0.4388  0.3085 -0.1506
17700SOL    HW265160   0.361   3.991   3.813 -0.3205  1.1828  0.3019
17701SOL     OW65161   1.244   3.517   1.611  0.0966 -0.2277  0.1190
17701SOL    HW165162   1.335   3.489   1.578  0.0081 -0.4193  0.0355
17701SOL    HW265163   1.203   3.442   1.662 -0.2547 -0.3473 -0.3390
17702SOL     OW65164   9.094   4.065   6.654  0.4378 -0.7337 -0.2965
17702SOL    HW165165   9.075   3.973   6.689 -0.6776  0.0615  1.2403
17702SOL    HW265166   9.014   4.123   6.668  0.4096 -0.0418 -3.0880
17703SOL     OW65167   5.808   1.181   9.240  0.1376  0.2378 -0.3279
17703SOL    HW165168   5.885   1.211   9.295  0.9382 -1.8657 -0.2517
17703SOL    HW265169   5.837   1.106   9.180 -1.5623  0.1821 -1.1161
17704SOL     OW65170   4.251   3.693   6.014 -0.1331 -0.1274 -0.7845
17704SOL    HW165171   4.151   3.699   6.008 -0.0983 -0.6305 -1.8613
17704SOL    HW265172   4.278   3.689   6.110 -1.0068  2.4097 -0.3845
17705SOL     OW65173   6.746   4.987   0.317  0.0197  0.4266 -0.2956
17705SOL    HW165174   6.677   4.982   0.245 -1.6122  0.1475  1.2673
17705SOL    HW265175   6.836   4.968   0.278 -0.8322  0.3314 -2.2634
17706SOL     OW65176   0.673   5.192   4.815  1.1262  0.0922 -0.4956
17706SOL    HW165177   0.713   5.218   4.903 -0.2003  1.2748 -0.2236
17706SOL    HW265178   0.744   5.193   4.744  1.7208  1.5667  0.0899
17707SOL     OW65179   7.041   1.834   3.321 -0.2019  0.2578  0.2659
17707SOL    HW165180   7.082   1.893   3.251 -0.4508 -0.4589 -0.4953
17707SOL    HW265181   7.095   1.839   3.405  1.3671 -0.5297 -0.6584
17708SOL     OW65182   8.557   9.235   8.901 -0.7639 -0.3326  0.1524
17708SOL    HW165183   8.535   9.155   8.845 -0.4502 -0.9872  0.9609
17708SOL    HW265184   8.617   9.208   8.976  0.0001  0.8095 -0.0282
17709SOL     OW65185   2.649   1.334   8.260  0.8025 -0.5137  0.1817
17709SOL    HW165186   2.679   1.245   8.226 -0.1789 -0.5703 -0.5417
17709SOL    HW265187   2.678   1.406   8.197  0.4207 -0.4556  0.0705
17710SOL     OW65188   0.789   0.249   8.768 -0.7067  0.3072 -0.2904
17710SOL    HW165189   0.880   0.236   8.730  0.4122 -0.7447  2.6266
17710SOL    HW265190   0.722   0.198   8.713  0.7621 -0.6777 -1.1882
17711SOL     OW65191   9.920   7.973   5.647 -1.2460  0.0599  0.4908
17711SOL    HW165192   9.908   7.890   5.702 -2.8459  0.9457  1.5287
17711SOL    HW265193   9.883   7.958   5.556 -0.8269 -0.6242  0.4338
17712SOL     OW65194   9.021   0.742   6.501 -0.1358 -0.7743  0.0570
17712SOL    HW165195   9.011   0.835   6.466 -0.3364 -1.1513 -0.9116
17712SOL    HW265196   8.931   0.709   6.531  0.0211 -0.4834  0.8740
17713SOL     OW65197   1.497   4.824   8.291 -0.0155 -0.0911 -0.6027
17713SOL    HW165198   1.446   4.874   8.361  0.6097  0.8829 -0.8273
17713SOL    HW265199   1.590   4.808   8.323 -0.2786 -1.3280 -0.4391
17714SOL     OW65200   9.031   4.633   8.716 -0.1007 -0.5550  0.0334
17714SOL    HW165201   9.026   4.590   8.806  0.0459  0.1433  0.3749
17714SOL    HW265202   9.043   4.562   8.647 -0.5146 -1.1222  0.5309
17715SOL     OW65203   9.751   8.435   6.277 -0.6990  0.2599  0.3983
17715SOL    HW165204   9.682   8.468   6.212  2.9083  0.7615 -3.3729
17715SOL    HW265205   9.793   8.512   6.324  2.8860  0.7750 -3.3563
17716SOL     OW65206   7.315   8.558   3.309  0.3144 -0.5945  0.0180
17716SOL    HW165207   7.302   8.633   3.374  3.0495 -0.4449  0.4197
17716SOL    HW265208   7.307   8.593   3.216  2.3469  0.3836  0.1837
17717SOL     OW65209   9.926   8.859   4.367 -0.1735  0.2586  0.3510
17717SOL    HW165210   9.977   8.777   4.395 -0.2671 -0.5619 -1.8384
17717SOL    HW265211   9.874   8.893   4.445  0.3717 -1.3877  1.4687
17718SOL     OW65212   1.174   2.447   9.172  0.1733  0.2231 -0.2495
17718SOL    HW165213   1.249   2.497   9.127  0.3599 -0.2474 -0.4642
17718SOL    HW265214   1.212   2.370   9.224 -0.1446  0.1000 -0.2002
17719SOL     OW65215   0.149   3.986   4.306  0.2355 -0.0015  0.1568
17719SOL    HW165216   0.217   4.050   4.270  0.0603 -0.1518 -0.4373
17719SOL    HW265217   0.063   4.034   4.322  0.5805  0.2714  1.2576
17720SOL     OW65218   2.580   1.546   9.843 -0.3005 -0.1583 -0.0203
17720SOL    HW165219   2.519   1.487   9.897 -0.5847 -1.0028 -1.2312
17720SOL    HW265220   2.529   1.585   9.766  0.1197  0.9658  0.2556
17721SOL     OW65221   0.833   6.620   2.715  0.0640 -0.5635  0.5097
17721SOL    HW165222   0.762   6.617   2.644  2.0072 -0.5173 -1.4689
17721SOL    HW265223   0.899   6.548   2.699  1.6123  0.6919  1.1477
17722SOL     OW65224   9.548   5.468   4.759  0.0094  0.2653  0.5153
17722SOL    HW165225   9.504   5.554   4.782 -0.5022 -0.1609  1.1356
17722SOL    HW265226   9.640   5.486   4.724 -0.1901  1.0727  0.4102
17723SOL     OW65227   9.991   7.467   9.446  0.0188 -0.3184  0.9575
17723SOL    HW165228  10.024   7.558   9.423 -1.2539  0.7392  3.2147
17723SOL    HW265229  10.068   7.403   9.446  0.9915  0.8215 -0.1748
17724SOL     OW65230   8.974   6.049   8.141  0.2880 -0.3004 -0.3544
17724SOL    HW165231   8.930   6.022   8.055 -1.4293 -1.2095  0.7897
17724SOL    HW265232   8.904   6.080   8.205  1.5973  0.6820  0.6255
17725SOL     OW65233   8.988   0.883   0.511 -0.2415  0.0465  0.5841
17725SOL    HW165234   9.012   0.879   0.414 -1.3899  1.4159  0.2274
17725SOL    HW265235   8.925   0.808   0.533  1.4892 -1.3944  0.7149
17726SOL     OW65236   2.723   7.141   2.019 -0.0617 -0.4556  0.1650
17726SOL    HW165237   2.646   7.079   2.006  0.9128 -1.5914 -0.2677
17726SOL    HW265238   2.698   7.211   2.086 -1.6995 -0.3968 -0.4822
17727SOL     OW65239   9.233   9.849   2.711 -0.5219 -0.4970 -0.2022
17727SOL    HW165240   9.287   9.774   2.673 -4.0676 -3.2723 -0.0779
17727SOL    HW265241   9.180   9.892   2.638 -1.0844 -0.3616  0.2808
17728SOL     OW65242   0.903   3.526   8.088  0.3536 -0.4385 -0.6056
17728SOL    HW165243   0.875   3.595   8.155 -0.6216 -1.0504 -0.3755
17728SOL    HW265244   0.983   3.559   8.038  0.8873  0.1685  0.6254
17729SOL     OW65245   0.499   4.449   1.517  0.2899  0.3212  0.2595
17729SOL    HW165246   0.543   4.505   1.447  1.4115  0.7815  1.3240
17729SOL    HW265247   0.509   4.352   1.494  2.6529  0.3865  0.9520
17730SOL     OW65248   8.597   5.612   5.152 -0.2905 -0.4992  0.4046
17730SOL    HW165249   8.615   5.699   5.198 -0.3762 -1.1177  1.6242
17730SOL    HW265250   8.639   5.613   5.062  0.2253  0.5773  0.6488
17731SOL     OW65251   4.709   2.384   5.128 -0.4705  0.0491 -0.5920
17731SOL    HW165252   4.727   2.312   5.195  1.8233  0.7384 -0.4358
17731SOL    HW265253   4.648   2.452   5.169  0.8754  0.4431  0.8119
17732SOL     OW65254   3.129   3.733   4.251 -0.3359  0.0888  0.1075
17732SOL    HW165255   3.188   3.695   4.322  0.1311  0.0716 -0.2854
17732SOL    HW265256   3.035   3.739   4.285 -0.2290 -0.4924  0.5115
17733SOL     OW65257   7.135   7.407   5.555  0.3438  0.8004  0.2769
17733SOL    HW165258   7.208   7.475   5.552 -0.2112  1.4129  0.6310
17733SOL    HW265259   7.062   7.439   5.615 -0.4896  0.4539 -0.5423
17734SOL     OW65260   3.067   0.186   5.863  0.7962 -0.3235 -0.3986
17734SOL    HW165261   3.028   0.237   5.787 -0.0920  0.4300  0.5437
17734SOL    HW265262   3.001   0.118   5.895  1.1887 -0.6775 -0.3406
17735SOL     OW65263   1.671   1.920   6.855  0.7854 -0.5510  0.0169
17735SOL    HW165264   1.640   1.861   6.780 -0.0564  1.3099 -1.1336
17735SOL    HW265265   1.664   1.870   6.941 -1.6688 -1.5369 -0.6937
17736SOL     OW65266   2.707   5.903   3.878  0.0910  0.6093 -0.3264
17736SOL    HW165267   2.777   5.922   3.948 -1.6037  0.4961  1.4463
17736SOL    HW265268   2.730   5.819   3.830  1.1175  0.5057  0.3220
17737SOL     OW65269   3.457   9.136   3.278  0.3280  0.4044 -0.0242
17737SOL    HW165270   3.531   9.072   3.255  1.2945  1.9450 -1.2637
17737SOL    HW265271   3.475   9.176   3.368  0.5102  0.1084  0.0754
17738SOL     OW65272   2.922   4.956   1.658  0.6474  0.2237 -0.0650
17738SOL    HW165273   2.932   5.042   1.607 -0.2393 -0.4014 -1.3093
17738SOL    HW265274   2.828   4.950   1.694  0.6610 -0.3118 -0.1266
17739SOL     OW65275   2.898   9.933   7.616 -0.3320  0.2671 -0.2894
17739SOL    HW165276   2.941  10.001   7.675 -1.2265  1.1976 -0.6956
17739SOL    HW265277   2.953   9.850   7.615  1.0928  1.2040 -0.2648
17740SOL     OW65278   1.630   7.952   5.838 -0.1393  0.3567  0.3271
17740SOL    HW165279   1.698   8.008   5.886  1.6357 -1.5732  0.1952
17740SOL    HW265280   1.600   7.878   5.898 -0.2920 -0.2139 -0.4409
17741SOL     OW65281   3.770   9.150   7.796 -0.3987  0.2430  0.6880
17741SOL    HW165282   3.847   9.097   7.834  0.4772  0.9778 -0.0434
17741SOL    HW265283   3.684   9.111   7.829  0.2258 -1.6791  0.1453
17742SOL     OW65284   2.971   6.634   1.285  0.1763 -1.2200  0.3903
17742SOL    HW165285   2.907   6.691   1.337  0.4943 -1.4192  1.0032
17742SOL    HW265286   3.062   6.674   1.290  0.0863 -0.8763 -0.5733
17743SOL     OW65287   1.354   1.743   8.537  0.4502  0.3045 -0.7990
17743SOL    HW165288   1.442   1.726   8.580  1.7507  1.3011 -3.0164
17743SOL    HW265289   1.337   1.841   8.534 -0.9813  0.1000  0.0432
17744SOL     OW65290   1.146   4.058   7.234  0.1523 -0.1470 -0.1777
17744SOL    HW165291   1.065   4.115   7.222  2.1182  2.7773  0.0255
17744SOL    HW265292   1.174   4.060   7.330  2.0473  1.1414 -0.7391
17745SOL     OW65293   0.004   9.401   9.891  0.1978  0.1443 -0.7679
17745SOL    HW165294   0.061   9.473   9.930 -1.3433  1.5253 -0.9906
17745SOL    HW265295   0.026   9.389   9.794  1.3694 -0.6182 -0.4161
17746SOL     OW65296   1.262   3.343   8.253  0.1589 -0.1783 -0.4269
17746SOL    HW165297   1.182   3.389   8.290  0.1755 -0.7270  0.2936
17746SOL    HW265298   1.345   3.386   8.290  0.1793 -0.5461 -0.0506
17747SOL     OW65299   3.611   4.910   8.582  0.2871  0.4718 -0.1055
17747SOL    HW165300   3.585   4.830   8.528 -0.6900  0.5896  0.1778
17747SOL    HW265301   3.686   4.887   8.643  2.2101  0.6312 -2.3228
17748SOL     OW65302   1.562   8.407   6.038  0.6590  0.0646  0.4568
17748SOL    HW165303   1.573   8.425   5.940  1.5975  0.9274  0.7086
17748SOL    HW265304   1.514   8.320   6.051 -0.8405  0.6898 -0.7765
17749SOL     OW65305   4.383   1.372   8.655  0.0823 -0.3064  0.3024
17749SOL    HW165306   4.304   1.353   8.596  0.6460 -0.7806 -0.2975
17749SOL    HW265307   4.351   1.419   8.738 -0.8741 -0.7885  0.2204
17750SOL     OW65308   0.805   5.131   3.216 -0.2747  0.0992 -0.0210
17750SOL    HW165309   0.853   5.048   3.244  0.1527  1.1960  2.6191
17750SOL    HW265310   0.733   5.152   3.282 -0.9582  1.3583 -1.1377
17751SOL     OW65311   6.466   0.856   0.268 -0.3379  0.0098 -0.1408
17751SOL    HW165312   6.465   0.860   0.168  1.9176 -1.1178 -0.2315
17751SOL    HW265313   6.405   0.782   0.298  0.3255 -0.7972 -0.7631
17752SOL     OW65314   9.442   4.110   8.749 -0.1644  0.3708 -0.5114
17752SOL    HW165315   9.484   4.037   8.695 -0.9482 -0.5550  0.1173
17752SOL    HW265316   9.503   4.134   8.824  0.2648  0.6314 -0.9399
17753SOL     OW65317   9.236   0.683   1.434  0.2489  0.1083  0.6086
17753SOL    HW165318   9.178   0.719   1.507  0.7632 -1.1663  1.6782
17753SOL    HW265319   9.313   0.745   1.418  0.3237  0.2288  1.4093
17754SOL     OW65320   5.426   2.408   1.099 -0.3082 -0.1381  0.2765
17754SOL    HW165321   5.394   2.333   1.156 -0.7370  0.9613  1.5028
17754SOL    HW265322   5.441   2.490   1.155  1.6921  0.2614 -0.7600
17755SOL     OW65323   3.191   3.198   2.730  0.1908 -0.2578 -0.6477
17755SOL    HW165324   3.179   3.295   2.709 -0.0422 -0.4390 -1.3466
17755SOL    HW265325   3.106   3.161   2.769  0.4373 -0.0622  0.0751
17756SOL     OW65326   0.748   4.779   6.272  0.2129 -0.4798 -0.6270
17756SOL    HW165327   0.759   4.679   6.271  0.8527 -0.4046 -1.5966
17756SOL    HW265328   0.741   4.812   6.178  0.0872  0.4040 -0.3059
17757SOL     OW65329   0.009   2.996   5.547  0.4238 -0.6667  0.2824
17757SOL    HW165330  -0.086   3.024   5.530 -0.0351 -2.3830 -0.0706
17757SOL    HW265331   0.032   3.016   5.643 -0.5325 -0.9227  0.5732
17758SOL     OW65332   1.818   2.833   9.201 -0.2174 -0.3833  0.0334
17758SOL    HW165333   1.774   2.787   9.124 -0.2469 -3.4906  1.8076
17758SOL    HW265334   1.917   2.822   9.194 -0.1806 -0.0480  0.0428
17759SOL     OW65335   4.723   7.459   4.751 -0.1513  0.5562 -0.3204
17759SOL    HW165336   4.744   7.383   4.813 -0.6590  2.3573  2.1748
17759SOL    HW265337   4.641   7.438   4.699 -0.5106 -0.4630  0.6184
17760SOL     OW65338   0.849   4.574   6.755 -0.2818  0.2777  0.3877
17760SOL    HW165339   0.764   4.531   6.785 -0.5079 -0.5395 -1.3401
17760SOL    HW265340   0.827   4.646   6.688  0.5414 -2.2113 -2.6522
17761SOL     OW65341   7.230   3.149   9.005 -0.0697  0.3044  0.1978
17761SOL    HW165342   7.305   3.182   8.947 -1.4379  1.0656 -1.1504
17761SOL    HW265343   7.156   3.115   8.948 -0.4192 -1.2338  1.5496
17762SOL     OW65344   4.776   2.650   5.856  0.2256  0.1637 -0.1260
17762SOL    HW165345   4.734   2.562   5.832  0.4860 -0.3077  1.1379
17762SOL    HW265346   4.798   2.700   5.772 -0.1663 -0.8595 -0.8463
17763SOL     OW65347   9.578   7.719   7.781  0.2268  0.2822  0.4112
17763SOL    HW165348   9.624   7.781   7.717 -1.6997  1.5520  0.1983
17763SOL    HW265349   9.566   7.764   7.869  1.1428 -0.7608  1.0790
17764SOL     OW65350   5.463   7.715   5.857 -0.2717  0.4015 -0.3880
17764SOL    HW165351   5.529   7.701   5.783 -1.3399  1.1367 -1.5097
17764SOL    HW265352   5.376   7.672   5.832 -0.4873  0.2012  0.6878
17765SOL     OW65353   5.909   7.882   2.714  0.3472 -0.1351 -0.2388
17765SOL    HW165354   5.838   7.904   2.782  1.3542  0.3746  0.6665
17765SOL    HW265355   5.924   7.784   2.712  1.7673  0.0146  1.7877
17766SOL     OW65356   9.182   8.119   6.447  0.2032 -0.1233 -0.2843
17766SOL    HW165357   9.224   8.038   6.406  0.7986 -0.6767  1.3622
17766SOL    HW265358   9.251   8.167   6.502 -0.5067  0.7272 -0.1369
17767SOL     OW65359   9.001   8.535   4.455  0.3889 -0.6306 -0.0435
17767SOL    HW165360   9.071   8.600   4.485 -0.2781 -0.5019  1.2993
17767SOL    HW265361   9.016   8.447   4.500 -0.0314 -0.7303 -0.0931
17768SOL     OW65362   3.469   2.462   7.078  0.5482 -0.1549  0.0174
17768SOL    HW165363   3.540   2.515   7.123 -0.5892  0.0251  1.6512
17768SOL    HW265364   3.496   2.366   7.072  0.9256 -0.0860  0.6300
17769SOL     OW65365   4.928   0.768   1.442 -0.2701 -0.3644 -0.0264
17769SOL    HW165366   4.843   0.726   1.474 -0.3625  0.0199  0.2394
17769SOL    HW265367   4.939   0.751   1.344 -0.0237 -1.4946  0.1892
17770SOL     OW65368   4.449   8.578   8.018 -0.2666  0.5018 -0.5600
17770SOL    HW165369   4.494   8.656   7.973  1.3393 -0.3488 -0.4798
17770SOL    HW265370   4.419   8.606   8.109 -1.4500  1.5706 -1.2580
17771SOL     OW65371   3.736   1.817   8.055 -0.3360 -0.0480  0.5016
17771SOL    HW165372   3.822   1.779   8.088 -0.4947  1.3227  2.5336
17771SOL    HW265373   3.698   1.880   8.123 -1.7326  1.2233 -1.4010
17772SOL     OW65374   4.082   6.548   1.245 -0.2622 -0.0326 -0.9407
17772SOL    HW165375   4.093   6.492   1.327 -0.4282 -0.4913 -1.2272
17772SOL    HW265376   4.156   6.528   1.181  0.6014  1.2651 -0.3732
17773SOL     OW65377   9.511   7.530   3.448 -0.2836 -0.2176  0.1512
17773SOL    HW165378   9.592   7.588   3.441 -0.8835  0.5959 -0.0637
17773SOL    HW265379   9.434   7.573   3.402 -1.4916  0.1846  2.4620
17774SOL     OW65380   4.634   4.856   4.557  0.2390 -0.0762  0.5142
17774SOL    HW165381   4.710   4.912   4.590  0.1316 -0.8572  2.1287
17774SOL    HW265382   4.602   4.797   4.631  0.9641 -2.9408 -1.4087
17775SOL     OW65383   5.669   8.687   6.420 -0.3545 -0.4688  0.4027
17775SOL    HW165384   5.610   8.610   6.442  1.0137 -0.9281  2.6549
17775SOL    HW265385   5.765   8.661   6.432  0.1607  1.3374  0.4107
17776SOL     OW65386   1.825   7.222   0.338 -0.3236  0.0009  0.2639
17776SOL    HW165387   1.852   7.230   0.434  0.9262 -0.5496 -0.0369
17776SOL    HW265388   1.787   7.130   0.322 -0.4080  0.0465  0.2003
17777SOL     OW65389   7.543   1.604   1.962  0.3325 -0.5679 -0.1174
17777SOL    HW165390   7.535   1.520   1.909  1.9851  0.0162 -1.3215
17777SOL    HW265391   7.513   1.681   1.906  0.8163 -0.1065  0.2574
17778SOL     OW65392   8.962   3.420   0.603  0.1503 -0.1006 -0.4758
17778SOL    HW165393   8.909   3.359   0.661  0.5904  1.4828  1.6870
17778SOL    HW265394   8.904   3.496   0.573  0.4850  0.2187 -0.3206
17779SOL     OW65395   9.185   4.447   1.567  0.5567  0.1175 -1.0197
17779SOL    HW165396   9.176   4.354   1.602 -0.1624  0.1710 -1.0571
17779SOL    HW265397   9.157   4.512   1.638 -1.8963  0.1971 -2.0085
17780SOL     OW65398   8.926   5.141   9.207  0.2812 -0.5771 -0.3526
17780SOL    HW165399   8.989   5.178   9.276 -0.3423  0.8161 -0.5117
17780SOL    HW265400   8.965   5.154   9.116 -0.8863  1.6580 -0.5569
17781SOL     OW65401   2.632   8.584   5.704 -0.2855 -0.1787  0.1352
17781SOL    HW165402   2.643   8.662   5.641 -0.9934 -0.8794 -0.8638
17781SOL    HW265403   2.708   8.584   5.770  1.2316 -0.2063 -1.5479
17782SOL     OW65404   2.418   0.232   5.175  0.2871 -0.5132 -0.1688
17782SOL    HW165405   2.515   0.242   5.153  0.0548 -1.5091 -1.7501
17782SOL    HW265406   2.398   0.137   5.197 -0.7748 -0.7792 -2.2068
17783SOL     OW65407   6.639   2.825   9.784  0.5560 -0.1441  0.6015
17783SOL    HW165408   6.562   2.813   9.722  0.4778 -0.2078  0.7104
17783SOL    HW265409   6.643   2.747   9.847  0.2603  0.2246  1.0809
17784SOL     OW65410   2.373   8.173   4.479 -0.2010 -0.0958  0.5452
17784SOL    HW165411   2.295   8.198   4.537  0.0718  0.1878  0.7892
17784SOL    HW265412   2.344   8.103   4.413 -0.3472 -0.8589  1.4199
17785SOL     OW65413   9.416   7.717   5.007  0.1951 -0.0081  0.4088
17785SOL    HW165414   9.426   7.816   5.005  0.0539 -0.0266 -2.9873
17785SOL    HW265415   9.319   7.694   5.013  0.1255  0.0652 -0.3898
17786SOL     OW65416   8.091   2.892   9.844  0.3412 -0.0233  0.8489
17786SOL    HW165417   8.160   2.940   9.898  1.9983 -0.5136 -0.7825
17786SOL    HW265418   8.000   2.917   9.877  1.2043  3.0441  1.0329
17787SOL     OW65419   7.376   2.456   1.247  0.2041 -0.1106  0.4196
17787SOL    HW165420   7.396   2.494   1.157 -2.4756 -3.1573 -1.5342
17787SOL    HW265421   7.454   2.401   1.278  0.7932  0.2438 -0.4287
17788SOL     OW65422   9.245   7.189   9.686  0.1901 -0.2017  0.3225
17788SOL    HW165423   9.246   7.089   9.695  1.4992 -0.1385  0.8912
17788SOL    HW265424   9.154   7.223   9.710  0.2280 -1.1109  1.8468
17789SOL     OW65425   6.238   0.508   4.592  0.0672  0.4890 -0.1373
17789SOL    HW165426   6.155   0.455   4.576  0.4180 -0.2222  0.3516
17789SOL    HW265427   6.310   0.448   4.629  0.4389  1.3123  0.5155
17790SOL     OW65428   6.942   1.157   4.702  0.0348  0.3548 -0.2792
17790SOL    HW165429   6.915   1.107   4.784  0.5842 -1.1693 -1.0206
17790SOL    HW265430   7.034   1.194   4.714 -0.2682  0.9713  0.1665
17791SOL     OW65431   2.781   5.944   8.959  0.6324  0.3801  0.4883
17791SOL    HW165432   2.757   5.914   9.051 -0.1302 -0.8868 -0.1162
17791SOL    HW265433   2.867   5.995   8.962  0.3259  0.8398  1.9802
17792SOL     OW65434   3.869   3.988   8.151 -0.0986  0.4391 -0.2597
17792SOL    HW165435   3.887   3.900   8.195 -0.8843 -0.4005 -1.5735
17792SOL    HW265436   3.954   4.040   8.145  0.4925 -0.4872 -0.0184
17793SOL     OW65437   5.066   4.946   7.766 -0.2799  0.3540  0.5555
17793SOL    HW165438   5.044   4.954   7.669  1.0929 -1.3629  0.0845
17793SOL    HW265439   5.012   4.872   7.806  0.1433  0.1690  0.7904
17794SOL     OW65440   8.735   2.006   0.911  0.4111  0.5894  0.3156
17794SOL    HW165441   8.654   2.064   0.923  0.1383  0.4413 -0.7654
17794SOL    HW265442   8.716   1.915   0.946  0.4288  0.8192  0.9224
17795SOL     OW65443   0.174   5.767   2.115 -0.5755  0.6705  0.3714
17795SOL    HW165444   0.248   5.763   2.181 -0.0873  3.1838  0.0140
17795SOL    HW265445   0.205   5.812   2.032 -1.3177 -2.0183 -1.4547
17796SOL     OW65446   0.354   1.936   2.485  0.2651 -0.2420 -0.2004
17796SOL    HW165447   0.373   2.032   2.507  0.0826 -0.4705  1.0200
17796SOL    HW265448   0.306   1.930   2.398  0.9356  0.7279 -0.6341
17797SOL     OW65449   1.342   2.974   5.347 -0.4905  0.2257 -0.1130
17797SOL    HW165450   1.332   2.916   5.267 -0.5821 -0.1516  0.1722
17797SOL    HW265451   1.313   3.067   5.324  1.2564  0.5483 -1.0459
17798SOL     OW65452   7.412   2.667   9.844 -0.5382 -0.2674 -0.4660
17798SOL    HW165453   7.418   2.572   9.815 -1.2026 -0.5156  0.2108
17798SOL    HW265454   7.320   2.686   9.878 -0.0841  0.3219  0.4402
17799SOL     OW65455   6.730   0.922   0.329 -0.2554  0.1196 -0.0131
17799SOL    HW165456   6.632   0.904   0.316 -0.3292  0.7828 -0.4182
17799SOL    HW265457   6.769   0.956   0.243  0.5959 -1.2645 -0.1920
17800SOL     OW65458   9.302   1.577   6.982  0.3170 -0.1828 -0.1406
17800SOL    HW165459   9.341   1.643   6.918  0.7248 -0.8699 -0.6147
17800SOL    HW265460   9.233   1.521   6.935 -0.3048  0.1567  0.3543
17801SOL     OW65461   2.250   6.446   3.350 -0.1656 -0.4636 -0.2897
17801SOL    HW165462   2.265   6.537   3.311 -1.5092  0.1003  0.4501
17801SOL    HW265463   2.187   6.395   3.291 -2.4308  0.4966  1.2293
17802SOL     OW65464   2.324   6.374   8.946  0.1018 -0.2056  0.1866
17802SOL    HW165465   2.341   6.457   9.000  0.5293 -0.2100  0.0636
17802SOL    HW265466   2.412   6.336   8.915 -0.1272 -0.3044 -0.3522
17803SOL     OW65467   2.884   4.095   7.353  0.0016 -0.3502  0.0843
17803SOL    HW165468   2.822   4.116   7.429  1.1782  1.4559  0.5619
17803SOL    HW265469   2.970   4.060   7.388  1.1591  2.0130 -0.2991
17804SOL     OW65470   7.678   8.126   8.423 -0.1018 -0.1619  0.0090
17804SOL    HW165471   7.749   8.056   8.418 -0.9368 -0.9333 -1.1075
17804SOL    HW265472   7.629   8.118   8.510  0.4313 -0.3421  0.2935
17805SOL     OW65473   0.370   3.409   8.756  0.0571 -0.6311 -0.0891
17805SOL    HW165474   0.298   3.451   8.700 -0.2256  1.7167  1.9443
17805SOL    HW265475   0.439   3.478   8.778  2.1137 -2.4734 -0.6470
17806SOL     OW65476   5.986   7.986   6.973 -0.5749 -0.5537 -0.5143
17806SOL    HW165477   5.946   7.989   6.882 -1.2719  1.1421 -0.1563
17806SOL    HW265478   5.943   8.054   7.032  1.1808 -0.3229  0.5554
17807SOL     OW65479   6.771   0.658   0.432  0.2322  0.2479  0.0413
17807SOL    HW165480   6.717   0.675   0.514  1.8761  2.0251  0.7873
17807SOL    HW265481   6.791   0.745   0.386  1.4208 -0.4905 -0.8784
17808SOL     OW65482   9.747   8.824   5.953  0.2044 -0.2145 -0.1489
17808SOL    HW165483   9.831   8.877   5.953  0.7628 -1.0896  1.1261
17808SOL    HW265484   9.748   8.759   5.877  0.1786  0.5323 -0.8012
17809SOL     OW65485   5.953   9.549   2.634 -0.2507  0.4763  0.2644
17809SOL    HW165486   5.912   9.489   2.565  0.1074 -0.6592  1.0185
17809SOL    HW265487   5.936   9.511   2.725  0.4485  1.2484  0.7198
17810SOL     OW65488   0.743   4.865   7.991 -0.0559 -0.0225 -0.4133
17810SOL    HW165489   0.840   4.890   7.986 -0.4696  1.4469 -1.2042
17810SOL    HW265490   0.728   4.784   7.933  0.7379 -0.3959 -0.1135
17811SOL     OW65491   0.531   0.578   8.387  0.0620  0.7072 -0.0760
17811SOL    HW165492   0.546   0.677   8.387  0.4959  0.6437 -0.4466
17811SOL    HW265493   0.496   0.550   8.298  2.7429  0.1201 -0.9874
17812SOL     OW65494   4.432   9.937   3.289  0.0303  0.0527  0.0170
17812SOL    HW165495   4.464   9.920   3.195 -0.1035 -0.6566  0.1010
17812SOL    HW265496   4.511   9.946   3.350  0.0969 -0.5969  0.0306
17813SOL     OW65497   8.506   6.534   0.080  0.5550  0.6642  0.0857
17813SOL    HW165498   8.428   6.541   0.018  0.0067  1.6534  0.8601
17813SOL    HW265499   8.473   6.509   0.172  1.1468  1.0233  0.4004
17814SOL     OW65500   5.087   8.042   3.955  0.4672  0.9014 -0.1280
17814SOL    HW165501   4.992   8.054   3.985  1.0234  1.6633  1.3808
17814SOL    HW265502   5.113   7.946   3.964 -0.0041  0.7789 -0.0643
17815SOL     OW65503   1.126   4.194   1.430  0.1883 -0.2390 -0.0993
17815SOL    HW165504   1.176   4.150   1.504  1.0309 -1.8241 -1.5858
17815SOL    HW265505   1.171   4.175   1.343 -0.9453  1.3709 -1.0673
17816SOL     OW65506   1.984   8.520   8.528  0.1752  0.1751  0.3085
17816SOL    HW165507   1.907   8.538   8.467 -0.0733  0.1175  0.6015
17816SOL    HW265508   1.949   8.494   8.618  0.5223  1.5149  0.8503
17817SOL     OW65509   4.980   5.258   2.263  0.3909  0.0051 -0.4384
17817SOL    HW165510   4.888   5.297   2.267  0.3815 -0.1819  1.6324
17817SOL    HW265511   5.037   5.312   2.201 -0.5621  1.2718 -0.2206
17818SOL     OW65512   1.832   8.203   2.066  0.1558 -0.4726 -0.2427
17818SOL    HW165513   1.916   8.206   2.012  0.9626 -1.4057  0.9395
17818SOL    HW265514   1.853   8.230   2.160 -0.9007 -0.5602  0.0165
17819SOL     OW65515   4.227   9.823   3.393  0.2394 -0.4037 -0.2784
17819SOL    HW165516   4.304   9.862   3.343 -0.4021 -1.2258 -1.9586
17819SOL    HW265517   4.181   9.755   3.335 -0.9713 -0.8440  1.1696
17820SOL     OW65518   2.233   5.906   7.569  0.7168 -0.5158 -0.3712
17820SOL    HW165519   2.203   5.938   7.479  1.3827 -0.3005 -0.5150
17820SOL    HW265520   2.298   5.831   7.558  1.1521 -0.1870 -0.0852
17821SOL     OW65521   9.125   7.863   0.751 -0.6643  0.2698 -0.3214
17821SOL    HW165522   9.033   7.824   0.750 -0.0784 -1.1311 -1.1183
17821SOL    HW265523   9.174   7.830   0.832 -0.3703 -0.1827 -0.6820
17822SOL     OW65524   2.586   8.260   2.121  0.2755  0.0718 -0.4671
17822SOL    HW165525   2.599   8.359   2.121  0.7077  0.0118  0.3608
17822SOL    HW265526   2.630   8.221   2.040  2.3553  0.2597  0.5343
17823SOL     OW65527   8.337   7.392   4.664 -0.1827  0.1932 -0.1312
17823SOL    HW165528   8.327   7.459   4.738  0.1743 -0.6280  0.6695
17823SOL    HW265529   8.388   7.433   4.588 -0.6199  1.0657  0.0447
17824SOL     OW65530   7.280   3.167   9.881  0.2888 -0.8519  0.1241
17824SOL    HW165531   7.214   3.109   9.928 -1.5113 -0.1489 -1.4545
17824SOL    HW265532   7.367   3.119   9.872 -0.4063 -2.3135  1.0644
17825SOL     OW65533   0.365   8.788   4.460  0.1400 -0.9232  0.2194
17825SOL    HW165534   0.369   8.690   4.480  0.2077 -0.5133  2.2373
17825SOL    HW265535   0.289   8.829   4.509 -0.4571 -0.1254 -1.3614
17826SOL     OW65536   4.519   0.902   0.107 -0.7603  0.6370  0.2323
17826SOL    HW165537   4.558   0.881   0.017  0.9527 -0.5809  1.2189
17826SOL    HW265538   4.451   0.832   0.131 -1.2678  1.0006 -0.1495
17827SOL     OW65539   3.866   5.587   3.336 -0.1653  0.1959 -0.2826
17827SOL    HW165540   3.811   5.527   3.278 -0.4997  2.0802 -1.9626
17827SOL    HW265541   3.939   5.629   3.281  0.5579  0.7227  1.0512
17828SOL     OW65542   2.976   1.353   5.488 -0.1793  0.1828  0.5613
17828SOL    HW165543   2.909   1.421   5.518 -0.6637 -0.1722  0.3106
17828SOL    HW265544   2.993   1.364   5.390 -1.2270 -0.8555  0.2434
17829SOL     OW65545   7.802   6.807   6.367  0.2250  0.5576  0.1747
17829SOL    HW165546   7.868   6.822   6.441 -0.7525  0.6484  1.0401
17829SOL    HW265547   7.741   6.732   6.392  0.2390  0.2171 -0.7911
17830SOL     OW65548   3.381   4.024   8.752  0.3744 -0.0457  0.3117
17830SOL    HW165549   3.316   4.092   8.717  1.3650  0.3138 -0.8466
17830SOL    HW265550   3.345   3.932   8.736 -0.9463  0.1863  1.8289
17831SOL     OW65551   8.679   5.069   1.693  0.3825 -0.3139 -0.0730
17831SOL    HW165552   8.610   5.013   1.647 -1.2406  1.2809  0.3764
17831SOL    HW265553   8.722   5.131   1.627  2.3055 -2.1369 -0.6075
17832SOL     OW65554   8.237   8.488   2.038  0.1547 -0.3545 -0.0051
17832SOL    HW165555   8.327   8.471   1.997  0.5560  1.0967  0.2407
17832SOL    HW265556   8.216   8.415   2.103  1.9515  0.1928  1.2309
17833SOL     OW65557   9.968   9.461   9.374 -0.0929  0.6134  0.8924
17833SOL    HW165558   9.881   9.450   9.422 -0.5602  1.2739  0.2102
17833SOL    HW265559   9.951   9.467   9.276  0.7889  0.0450  0.7041
17834SOL     OW65560   6.188   2.576   9.208  0.3168 -0.3128 -0.6043
17834SOL    HW165561   6.161   2.484   9.237  1.2027 -0.5209 -0.4365
17834SOL    HW265562   6.277   2.599   9.248  0.6588  0.1446 -1.6088
17835SOL     OW65563   7.942   6.589   4.612 -0.7060 -0.4664 -0.3100
17835SOL    HW165564   7.844   6.579   4.624 -1.1445  1.1867 -2.2302
17835SOL    HW265565   7.974   6.672   4.659 -0.5805  0.0712 -1.3322
17836SOL     OW65566   6.954   7.870   7.933  0.3018 -0.1758 -0.2021
17836SOL    HW165567   6.861   7.836   7.949 -0.2673  0.4894 -2.0226
17836SOL    HW265568   7.020   7.805   7.971 -0.8538 -1.6034 -0.6143
17837SOL     OW65569   2.556   8.044   4.294  0.0605 -0.5322 -0.0166
17837SOL    HW165570   2.495   8.035   4.215 -1.0766  0.2662  0.7476
17837SOL    HW265571   2.559   8.140   4.322  0.7957 -0.7471  0.6449
17838SOL     OW65572   2.924   0.510   1.254 -0.5676 -0.3850 -0.0155
17838SOL    HW165573   2.831   0.505   1.219 -0.2125  0.1469 -1.0555
17838SOL    HW265574   2.986   0.537   1.181  0.2042  0.6640  1.0068
17839SOL     OW65575   3.437   8.327   2.243  0.0650 -0.5192  0.0286
17839SOL    HW165576   3.506   8.260   2.272  1.2085 -0.3012 -2.0658
17839SOL    HW265577   3.481   8.398   2.189 -1.6456  0.2520 -0.3656
17840SOL     OW65578   8.149   3.493   3.275  1.0693 -0.5791 -0.5300
17840SOL    HW165579   8.246   3.515   3.281  0.8448  0.3136  0.0897
17840SOL    HW265580   8.122   3.439   3.355  0.9727 -0.4721 -0.4895
17841SOL     OW65581   0.130   7.380   8.433  0.2261 -0.3525 -0.1473
17841SOL    HW165582   0.116   7.288   8.470  1.2333 -0.6652 -0.5106
17841SOL    HW265583   0.068   7.395   8.356  1.0025 -1.2545 -0.9667
17842SOL     OW65584   6.965   1.249   9.058 -0.1228 -0.0438  0.0728
17842SOL    HW165585   6.949   1.206   9.146 -1.7698  0.4127  0.0162
17842SOL    HW265586   6.885   1.304   9.032  0.0171 -0.7887 -2.0611
17843SOL     OW65587   9.397   8.327   8.730 -0.4470 -0.3910 -0.3254
17843SOL    HW165588   9.458   8.404   8.750  0.5655 -1.0411 -0.8337
17843SOL    HW265589   9.340   8.350   8.651 -1.6314  0.6317  0.8066
17844SOL     OW65590   2.690   6.677   9.071 -0.6359  0.8207  0.5911
17844SOL    HW165591   2.652   6.648   9.159 -1.9212 -1.3727 -0.6168
17844SOL    HW265592   2.648   6.763   9.043 -0.7936  1.1287  1.7732
17845SOL     OW65593   3.994   5.610   7.411 -0.7897 -0.0627 -0.5478
17845SOL    HW165594   4.060   5.579   7.480  0.1679 -0.0357 -1.4554
17845SOL    HW265595   3.940   5.685   7.449 -1.9316 -1.6286  1.0552
17846SOL     OW65596   8.154   9.620   1.477  0.4617 -0.2175  0.0846
17846SOL    HW165597   8.068   9.669   1.489 -0.0937 -0.5537 -2.2053
17846SOL    HW265598   8.160   9.546   1.545 -1.5173 -0.7850 -0.3180
17847SOL     OW65599   3.517   8.440   0.915  0.3581 -0.3749  0.5358
17847SOL    HW165600   3.535   8.356   0.862  0.5155 -0.2099  0.3277
17847SOL    HW265601   3.431   8.481   0.884  0.7285  0.0199  0.0315
17848SOL     OW65602   3.129   5.199   6.057  0.3634  0.0968 -0.2869
17848SOL    HW165603   3.212   5.251   6.040  0.2740  0.4188  0.2377
17848SOL    HW265604   3.129   5.166   6.151  0.5062 -1.0195 -0.6727
17849SOL     OW65605   4.380   6.993   1.963  0.4541 -0.4336 -0.2161
17849SOL    HW165606   4.329   7.062   2.014 -1.8395 -1.8721 -0.4916
17849SOL    HW265607   4.316   6.928   1.922  2.3260 -0.3634 -3.4123
17850SOL     OW65608   8.858   8.689   4.852  0.0405 -0.1603 -0.3177
17850SOL    HW165609   8.934   8.626   4.839  1.1033  1.2065 -0.8522
17850SOL    HW265610   8.810   8.703   4.765 -1.3139 -1.5932  0.1646
17851SOL     OW65611   2.727   1.472   8.027  0.3254  0.1951  0.2331
17851SOL    HW165612   2.634   1.504   8.007 -0.8605 -1.9501  2.0847
17851SOL    HW265613   2.767   1.434   7.943 -1.2289 -0.6478 -0.1548
17852SOL     OW65614   5.761   0.013   6.718 -0.1345 -0.4019 -0.3345
17852SOL    HW165615   5.854   0.027   6.685  0.3770 -0.4828  1.0684
17852SOL    HW265616   5.740  -0.084   6.721 -0.5227 -0.3589 -1.3295
17853SOL     OW65617   9.908   2.769   9.916  0.1106 -0.0704  0.6570
17853SOL    HW165618   9.852   2.800   9.992 -0.1078  0.0637  0.4416
17853SOL    HW265619  10.004   2.770   9.943 -0.1163 -2.1204  1.6706
17854SOL     OW65620   0.670   3.965   8.376  0.9629  0.4218  0.3342
17854SOL    HW165621   0.691   3.887   8.436 -1.6543 -0.6540 -0.0553
17854SOL    HW265622   0.645   4.044   8.432  1.2561  0.2473  0.7115
17855SOL     OW65623   3.666   2.702   2.399  0.2671 -0.1967  0.0975
17855SOL    HW165624   3.627   2.793   2.387 -0.3215 -0.4932 -0.2816
17855SOL    HW265625   3.731   2.683   2.325  0.1329 -0.2184 -0.0145
17856SOL     OW65626   9.186   4.951   0.982  0.0565  0.5919  0.1009
17856SOL    HW165627   9.110   4.933   1.044 -0.6142 -1.1618 -1.1560
17856SOL    HW265628   9.268   4.972   1.034 -1.0777  1.6724  1.5002
17857SOL     OW65629   7.240   1.624   4.663  0.5550 -0.0983  0.2238
17857SOL    HW165630   7.225   1.707   4.716 -1.0879 -1.0760  1.3139
17857SOL    HW265631   7.158   1.603   4.609  0.4890 -1.7047  0.9175
17858SOL     OW65632   8.651   5.435   1.535  0.3459  0.6024  0.0293
17858SOL    HW165633   8.711   5.361   1.503 -0.8548  0.1749 -1.2418
17858SOL    HW265634   8.707   5.508   1.575  1.6977  0.0564 -0.8252
17859SOL     OW65635   3.765   6.547   0.894  0.1341 -0.2034 -0.2509
17859SOL    HW165636   3.852   6.586   0.924 -0.2461  0.8875 -0.5598
17859SOL    HW265637   3.690   6.590   0.945 -0.4172  0.7299 -1.8110
17860SOL     OW65638   8.818   6.025   6.284  0.4213 -0.0967 -0.1290
17860SOL    HW165639   8.761   6.000   6.362 -0.5827 -1.0942 -1.1735
17860SOL    HW265640   8.913   6.002   6.304  0.1833 -0.2723  0.8311
17861SOL     OW65641   0.435   2.361   5.575 -0.1026  0.4342 -0.0036
17861SOL    HW165642   0.388   2.292   5.631 -0.7510  1.2297  0.4400
17861SOL    HW265643   0.525   2.325   5.548 -1.1019 -1.2549 -1.1794
17862SOL     OW65644   7.764   9.491   6.305  0.0650  0.5594 -0.7143
17862SOL    HW165645   7.797   9.426   6.236  0.9607  0.5263 -0.2616
17862SOL    HW265646   7.691   9.448   6.359  0.2062  0.1540 -0.8431
17863SOL     OW65647   3.909   2.648   2.221  0.0774 -0.3054 -0.2981
17863SOL    HW165648   3.964   2.593   2.158  2.5173  3.8423 -2.0840
17863SOL    HW265649   3.947   2.641   2.313  1.1469 -0.6540 -0.7578
17864SOL     OW65650   2.738   6.845   5.088 -0.3761  0.2038 -0.3415
17864SOL    HW165651   2.802   6.921   5.093 -1.2318  0.8442  1.6710
17864SOL    HW265652   2.691   6.846   5.000 -1.3109  2.7884  0.1534
17865SOL     OW65653   2.858   3.956   7.617  0.1982 -0.4031  0.0354
17865SOL    HW165654   2.957   3.945   7.607  0.3310  1.1426 -0.5578
17865SOL    HW265655   2.812   3.907   7.544  0.5625 -0.4620 -0.1575
17866SOL     OW65656   2.709   3.875   7.876 -0.7417  0.3333 -0.5480
17866SOL    HW165657   2.677   3.783   7.853 -0.2390  0.3418 -1.2845
17866SOL    HW265658   2.733   3.924   7.793  0.2904  0.6577 -0.0662
17867SOL     OW65659   3.336   1.561   7.873  0.0938  0.4535 -0.6902
17867SOL    HW165660   3.388   1.635   7.830 -1.0449  0.1638 -2.6237
17867SOL    HW265661   3.327   1.580   7.971  2.4504  1.2990 -0.5947
17868SOL     OW65662   8.044   9.247   2.241 -0.1699  0.4490  0.5002
17868SOL    HW165663   8.042   9.148   2.251 -0.4359  0.4628  0.6096
17868SOL    HW265664   8.024   9.290   2.330  2.0180  0.6143  0.9279
17869SOL     OW65665   3.680   3.517   6.503  0.1186 -0.1689 -0.1171
17869SOL    HW165666   3.740   3.463   6.444  1.7663  0.8585  0.6079
17869SOL    HW265667   3.724   3.603   6.526 -1.2991  0.2460  1.1228
17870SOL     OW65668   4.486   9.747   1.399 -0.5582 -0.2719 -0.1272
17870SOL    HW165669   4.392   9.779   1.409  0.1184  1.4520  1.1773
17870SOL    HW265670   4.521   9.718   1.488 -0.2298 -1.9929 -0.8146
17871SOL     OW65671   8.245   8.828   1.793 -0.0651 -0.1085  0.4847
17871SOL    HW165672   8.340   8.797   1.783  0.2518  0.8662  0.4633
17871SOL    HW265673   8.244   8.921   1.828 -1.0749 -1.0603  3.0828
17872SOL     OW65674   7.603   0.120   3.308 -0.0442  0.1363  0.1535
17872SOL    HW165675   7.696   0.157   3.310  0.2333 -0.5600  0.2266
17872SOL    HW265676   7.589   0.072   3.222  0.1361 -0.9579  0.7256
17873SOL     OW65677   9.018   7.406   2.879 -0.0176 -0.0429 -0.0681
17873SOL    HW165678   8.928   7.432   2.844 -0.6297 -0.4002  1.2210
17873SOL    HW265679   9.056   7.480   2.933 -1.7845 -1.7301  3.6404
17874SOL     OW65680   1.052   9.083   4.055  0.3073  0.4874  0.1525
17874SOL    HW165681   1.027   9.144   3.980  0.0058 -1.2099 -1.1676
17874SOL    HW265682   1.100   9.135   4.125 -2.4812  2.8064  0.4363
17875SOL     OW65683   7.916   4.148   5.189 -0.2793 -0.2960  0.6725
17875SOL    HW165684   7.948   4.203   5.266 -1.3314  1.4531 -0.1020
17875SOL    HW265685   7.842   4.088   5.219  0.0071 -0.3611  1.2462
17876SOL     OW65686   4.750   3.117   9.060 -0.1880  0.1104  0.3062
17876SOL    HW165687   4.674   3.114   8.995 -0.4630 -0.5666  0.6663
17876SOL    HW265688   4.775   3.024   9.087  0.0101  0.3902  1.0826
17877SOL     OW65689   7.497   6.313   1.416  0.3717  0.0583 -0.3038
17877SOL    HW165690   7.429   6.370   1.464  1.9894  1.3035  0.5491
17877SOL    HW265691   7.492   6.331   1.318 -1.9909 -1.4564 -0.5041
17878SOL     OW65692   0.612   2.213   3.271  0.1744  0.3489 -0.0568
17878SOL    HW165693   0.551   2.176   3.341  0.5356  1.2370  0.7292
17878SOL    HW265694   0.604   2.158   3.188 -0.6965 -0.3508  0.4826
17879SOL     OW65695   3.541   6.963   9.876  0.0074  0.6501 -0.5132
17879SOL    HW165696   3.447   6.971   9.908  0.6155  1.8631  1.0283
17879SOL    HW265697   3.577   7.054   9.855  1.0571  0.2617 -0.4407
17880SOL     OW65698   3.271   9.722   5.065  0.3613  0.5520  0.0204
17880SOL    HW165699   3.249   9.756   4.973 -0.8077  4.2795  1.5554
17880SOL    HW265700   3.370   9.726   5.079  0.3990  1.6456 -0.4956
17881SOL     OW65701   4.175   4.833   3.546 -0.1174 -0.3921  0.7213
17881SOL    HW165702   4.274   4.820   3.541  0.0555  0.8296  0.8666
17881SOL    HW265703   4.134   4.805   3.459  0.3060 -1.3197  0.8188
17882SOL     OW65704   7.790   3.631   6.678  0.1908  0.2830  0.4670
17882SOL    HW165705   7.876   3.665   6.642  0.2821  0.4025  0.8004
17882SOL    HW265706   7.735   3.594   6.603  0.8317 -0.4504  0.3488
17883SOL     OW65707   1.725   4.618   7.036  0.1149  0.0557  0.2185
17883SOL    HW165708   1.742   4.679   6.959  0.1688  0.1086  0.2719
17883SOL    HW265709   1.690   4.530   7.002 -1.3442  0.6128  0.2384
17884SOL     OW65710   8.381   5.446   9.831 -0.0810 -0.2406 -0.0930
17884SOL    HW165711   8.442   5.428   9.754 -0.1952 -0.0668 -0.2254
17884SOL    HW265712   8.411   5.395   9.911  2.6272  2.8693  0.9927
17885SOL     OW65713   1.897   5.778   6.788  0.2557  0.2263  0.5614
17885SOL    HW165714   1.800   5.792   6.769  0.4264  1.2471  0.4298
17885SOL    HW265715   1.907   5.739   6.879 -0.2231  1.1430  1.0172
17886SOL     OW65716   0.343   8.408   8.530  0.1075 -0.5330  0.6416
17886SOL    HW165717   0.442   8.414   8.518  0.1925 -1.3779  0.9018
17886SOL    HW265718   0.298   8.416   8.441  0.4388 -0.8029  0.4507
17887SOL     OW65719   1.673   8.354   1.706  0.6509  0.2212 -0.3737
17887SOL    HW165720   1.668   8.428   1.639 -1.0907  0.5235  0.0615
17887SOL    HW265721   1.725   8.277   1.667  0.7499  0.8850 -1.5802
17888SOL     OW65722   5.791   2.356   0.469  0.0146  0.0891 -0.3406
17888SOL    HW165723   5.747   2.270   0.445 -0.4280 -0.0734  1.0038
17888SOL    HW265724   5.825   2.400   0.386 -3.0578  0.4479 -1.4609
17889SOL     OW65725   4.304   4.381   8.363 -0.5567  0.4786  0.2701
17889SOL    HW165726   4.260   4.301   8.402 -0.4948  1.1044  1.6509
17889SOL    HW265727   4.302   4.456   8.429 -0.6750  1.6411 -1.0212
17890SOL     OW65728   7.493   9.568   9.736 -0.5237 -0.5331  0.3804
17890SOL    HW165729   7.525   9.473   9.727  1.9120  0.3259 -0.4132
17890SOL    HW265730   7.554   9.618   9.797 -1.9336  0.4885  0.9905
17891SOL     OW65731   1.395   3.164   6.528 -0.5324 -0.1983 -0.0938
17891SOL    HW165732   1.376   3.183   6.624 -0.9002 -1.7996  0.1699
17891SOL    HW265733   1.423   3.248   6.482 -3.4971  1.2679  0.6539
17892SOL     OW65734   5.060   3.032   6.759  0.4556 -0.1796  0.8755
17892SOL    HW165735   5.085   3.128   6.747 -1.4801  0.2878  0.5186
17892SOL    HW265736   5.031   3.016   6.853  1.5445 -0.6113  1.1502
17893SOL     OW65737   9.309   6.016   5.267 -0.1308  0.2174 -0.2237
17893SOL    HW165738   9.250   6.090   5.299  0.6590  0.1465  1.4550
17893SOL    HW265739   9.321   5.949   5.340  0.3025 -0.8573 -1.2609
17894SOL     OW65740   0.499   3.722   3.672 -0.6398 -0.6150 -0.2319
17894SOL    HW165741   0.481   3.712   3.574 -0.7687  1.1512 -0.4123
17894SOL    HW265742   0.550   3.807   3.688 -0.9234 -0.7096  1.2628
17895SOL     OW65743   4.023   5.783   2.051 -0.3594  0.0580  0.6371
17895SOL    HW165744   4.058   5.830   1.971 -0.0680 -1.2450 -0.0072
17895SOL    HW265745   4.084   5.799   2.129 -0.1094  0.4896  0.3519
17896SOL     OW65746   3.862   7.699   8.863 -0.1256 -0.0688  0.3116
17896SOL    HW165747   3.836   7.791   8.834 -2.6520 -1.4486 -2.0302
17896SOL    HW265748   3.831   7.683   8.956 -0.7000  1.0286  0.3186
17897SOL     OW65749   3.042   5.888   8.326 -0.1552 -0.0126 -0.5440
17897SOL    HW165750   3.124   5.926   8.370 -0.5812  0.1869  0.0753
17897SOL    HW265751   3.001   5.957   8.267  0.5583 -0.3587 -1.4712
17898SOL     OW65752   0.367   8.115   0.523  0.5402 -0.4892 -0.3636
17898SOL    HW165753   0.432   8.041   0.539  1.4591  0.6192  1.2622
17898SOL    HW265754   0.395   8.168   0.443  1.3429 -0.3402  0.0144
17899SOL     OW65755   4.785   7.065   3.848  0.1465 -0.2885  0.4075
17899SOL    HW165756   4.824   7.154   3.873 -0.2456  0.1983 -0.6605
17899SOL    HW265757   4.686   7.073   3.837  0.2183 -0.6432 -0.5688
17900SOL     OW65758   8.793   8.114   2.300  0.3068  0.0953  0.3184
17900SOL    HW165759   8.826   8.025   2.267  0.6434 -0.6752  2.6206
17900SOL    HW265760   8.700   8.104   2.335  0.8776  0.2746  1.9664
17901SOL     OW65761   1.429   1.501   6.700  0.6477  0.3338 -0.5765
17901SOL    HW165762   1.456   1.446   6.779  0.6687  1.9518  0.5633
17901SOL    HW265763   1.376   1.444   6.637  0.3875 -0.9048  0.7264
17902SOL     OW65764   9.805   8.486   9.407 -0.1320  0.0397 -0.1925
17902SOL    HW165765   9.802   8.496   9.308 -0.4792 -0.6959 -0.2569
17902SOL    HW265766   9.759   8.565   9.450  0.1916  0.4548 -0.6057
17903SOL     OW65767   5.038   3.113   2.038 -0.1391  0.4698 -0.8882
17903SOL    HW165768   5.018   3.054   2.116  2.8821  0.9902  0.3307
17903SOL    HW265769   5.064   3.204   2.070 -0.5220  1.1974 -2.5765
17904SOL     OW65770   4.733   2.997   8.444  0.3721 -0.1477  0.3393
17904SOL    HW165771   4.759   3.059   8.518  0.5462  0.1028  0.0669
17904SOL    HW265772   4.641   3.020   8.413  0.6981  0.4020 -0.2140
17905SOL     OW65773   3.068   9.459   1.097 -0.3436  0.1825  0.2494
17905SOL    HW165774   2.995   9.393   1.116  0.0533  0.1621  1.7887
17905SOL    HW265775   3.154   9.410   1.087 -0.0873  0.4214  1.1699
17906SOL     OW65776   0.899   9.509   3.738  0.0631 -0.2454 -0.1245
17906SOL    HW165777   0.837   9.467   3.672 -2.0810  1.0077  1.0261
17906SOL    HW265778   0.852   9.523   3.825  1.9572  0.7684  0.7940
17907SOL     OW65779   6.213   0.742   6.414 -0.1748  0.1495  0.0231
17907SOL    HW165780   6.216   0.703   6.323 -0.8011  0.9426 -0.3512
17907SOL    HW265781   6.187   0.839   6.408  0.3745  0.3625  0.9924
17908SOL     OW65782   9.455   1.323   4.725 -0.5709 -0.3925  0.1242
17908SOL    HW165783   9.416   1.296   4.813  1.1348 -0.8023  0.7729
17908SOL    HW265784   9.414   1.268   4.652 -1.2120 -0.7923  0.7811
17909SOL     OW65785   4.388   4.754   4.191  0.4251 -0.4722  0.1530
17909SOL    HW165786   4.397   4.722   4.286  3.6284 -0.9690 -0.2559
17909SOL    HW265787   4.416   4.850   4.186  0.6558 -0.5664 -0.3399
17910SOL     OW65788   5.601   4.347   9.800 -0.4132 -0.1220  0.3491
17910SOL    HW165789   5.684   4.402   9.788 -0.4903  0.0355  0.5409
17910SOL    HW265790   5.527   4.389   9.748 -0.1125 -0.8448 -0.6831
17911SOL     OW65791   4.875   5.869   8.549 -0.4422  0.1350  0.7864
17911SOL    HW165792   4.783   5.907   8.548 -0.7767 -0.6378  1.2358
17911SOL    HW265793   4.877   5.783   8.498 -0.1256 -0.1894  1.3376
17912SOL     OW65794   5.440   6.557   2.769 -0.2545  0.7093  0.6708
17912SOL    HW165795   5.459   6.642   2.817  2.0768  0.4413  0.2787
17912SOL    HW265796   5.523   6.501   2.766 -1.3691 -0.9290 -0.3466
17913SOL     OW65797   1.813   2.832   0.004 -0.1450 -0.3699  0.1205
17913SOL    HW165798   1.905   2.862   0.026 -0.6427  1.9282 -0.8120
17913SOL    HW265799   1.802   2.827  -0.096 -1.4880  0.8921  0.1944
17914SOL     OW65800   2.724   9.444   0.856  0.6714  0.1498 -0.3909
17914SOL    HW165801   2.754   9.535   0.886  0.1896 -0.1624  1.0944
17914SOL    HW265802   2.644   9.417   0.910 -0.3598 -0.3529 -2.1340
17915SOL     OW65803   8.555   7.544   7.094  0.1706  0.3198  0.2541
17915SOL    HW165804   8.516   7.520   7.006  0.0127 -0.1469  0.4480
17915SOL    HW265805   8.483   7.580   7.154  0.0800 -0.3233  0.5334
17916SOL     OW65806   0.759   2.290   1.652 -0.1901 -0.1016 -0.6202
17916SOL    HW165807   0.839   2.234   1.632  0.3175  1.4769 -3.1921
17916SOL    HW265808   0.680   2.231   1.669  0.5517 -1.6063 -2.3594
17917SOL     OW65809   7.962   7.072   8.209  0.1362  0.0946  0.0303
17917SOL    HW165810   7.973   6.989   8.264 -0.8970  1.5337  2.4629
17917SOL    HW265811   8.027   7.141   8.241 -1.3738  1.3928  0.3086
17918SOL     OW65812   5.315   2.632   2.359 -0.3221  0.3210  0.0107
17918SOL    HW165813   5.412   2.658   2.365 -0.8458  2.4529 -0.2203
17918SOL    HW265814   5.292   2.613   2.264 -0.2175  0.2169  0.0062
17919SOL     OW65815   7.322   6.363   6.756 -0.6036  0.0529  0.2664
17919SOL    HW165816   7.336   6.402   6.847 -0.2831  2.9427 -0.9619
17919SOL    HW265817   7.225   6.367   6.733 -0.4794  0.8359 -0.1466
17920SOL     OW65818   2.064   5.102   1.182  0.1965  0.0783  0.0849
17920SOL    HW165819   2.086   5.117   1.086 -1.8301 -0.1909 -0.4467
17920SOL    HW265820   1.969   5.129   1.199 -0.5780 -3.1080  1.1924
17921SOL     OW65821   0.787   0.247   6.692  0.1649  0.3871 -0.3398
17921SOL    HW165822   0.766   0.226   6.788 -0.4602  0.8555 -0.3749
17921SOL    HW265823   0.886   0.251   6.680  0.2433  0.5363  0.3377
17922SOL     OW65824   4.604   0.414   3.601  0.5989  0.4478 -0.2704
17922SOL    HW165825   4.625   0.501   3.555 -0.3254  1.5222  1.3004
17922SOL    HW265826   4.506   0.409   3.620  0.3810 -1.6727 -1.7601
17923SOL     OW65827   9.083   1.227   3.894 -0.2823  0.2070 -0.0910
17923SOL    HW165828   9.034   1.262   3.814  2.1923  1.7686 -0.9728
17923SOL    HW265829   9.044   1.138   3.920 -1.9666  0.2731 -2.2165
17924SOL     OW65830   2.540   9.313   4.010  0.1137 -0.0238  0.2464
17924SOL    HW165831   2.546   9.213   4.019  2.4780 -0.0331 -1.0515
17924SOL    HW265832   2.610   9.356   4.067 -0.2446  0.8611  0.0268
17925SOL     OW65833   4.075   9.789   2.956  0.4410  0.3964 -0.5473
17925SOL    HW165834   4.126   9.820   3.036 -0.7383  0.3321  0.2385
17925SOL    HW265835   4.119   9.706   2.919 -0.9117 -1.5705  2.0665
17926SOL     OW65836   1.885   8.150   0.877  0.3788 -0.3736  0.0422
17926SOL    HW165837   1.811   8.210   0.847  0.9279  1.1708  1.7161
17926SOL    HW265838   1.960   8.154   0.811 -0.1746 -0.3249 -0.5873
17927SOL     OW65839   8.526   5.513   9.382 -0.5535  0.2916 -0.3045
17927SOL    HW165840   8.440   5.524   9.333 -0.2889  1.3002 -0.5610
17927SOL    HW265841   8.557   5.602   9.416  0.3218 -0.0796 -0.0997
17928SOL     OW65842   2.365   2.943   9.181  0.4363 -0.0112  0.5912
17928SOL    HW165843   2.393   2.944   9.085  2.0368  2.1658  1.0476
17928SOL    HW265844   2.374   3.035   9.219  1.0072 -1.1023  3.1750
17929SOL     OW65845   0.810   6.868   1.557 -0.3757  0.4708  0.2092
17929SOL    HW165846   0.844   6.782   1.519 -0.8508  0.4336 -0.1335
17929SOL    HW265847   0.795   6.857   1.655 -1.4309 -0.1551 -0.0178
17930SOL     OW65848   1.598   0.871   2.464  0.1261 -0.2609  0.9081
17930SOL    HW165849   1.556   0.852   2.553 -0.3244 -1.9287  0.3473
17930SOL    HW265850   1.620   0.785   2.418 -1.0153  0.5553 -1.2535
17931SOL     OW65851   7.663   4.951   9.964  0.1589 -0.1663  0.0749
17931SOL    HW165852   7.566   4.948   9.987 -0.0913  0.0060 -0.9335
17931SOL    HW265853   7.692   4.861   9.931  0.7728 -0.7146  2.0218
17932SOL     OW65854   0.398   9.483   1.335  0.2121  0.0130 -0.2748
17932SOL    HW165855   0.352   9.493   1.423 -0.0375  0.6166 -0.4659
17932SOL    HW265856   0.333   9.454   1.265  0.4293 -0.5604 -0.2435
17933SOL     OW65857   2.352   5.782   2.518  0.4141 -0.7986 -0.9904
17933SOL    HW165858   2.340   5.691   2.558  1.1855 -0.4937 -0.0444
17933SOL    HW265859   2.450   5.805   2.517  0.3529 -0.5443 -2.4909
17934SOL     OW65860   9.779   7.312   1.917  0.0238  0.1906  0.0490
17934SOL    HW165861   9.783   7.243   1.988 -1.5412  1.0190  0.9660
17934SOL    HW265862   9.691   7.305   1.868 -0.1077  1.4430  0.0879
17935SOL     OW65863   1.765   7.073   4.497 -0.6310 -0.6749 -0.2402
17935SOL    HW165864   1.764   6.981   4.538 -0.0078 -1.2101 -1.3927
17935SOL    HW265865   1.740   7.066   4.400  1.6761  0.0541 -0.9260
17936SOL     OW65866   1.041   7.667   0.161 -0.5827 -0.3786  0.3289
17936SOL    HW165867   1.067   7.649   0.256 -0.6845  1.1006  0.6390
17936SOL    HW265868   1.122   7.658   0.102  0.1519  1.7702  0.9723
17937SOL     OW65869   8.957   2.257   5.042 -0.0647  0.5272  0.0159
17937SOL    HW165870   8.966   2.239   5.140 -0.1260 -0.7233 -0.2031
17937SOL    HW265871   8.901   2.186   5.000 -0.5221  1.3812 -0.8317
17938SOL     OW65872   9.987   4.996   6.565 -0.0132  0.0407 -0.2046
17938SOL    HW165873  10.027   4.918   6.517  0.2134 -0.8462  1.3911
17938SOL    HW265874  10.057   5.066   6.580  0.5824 -0.8051  1.1189
17939SOL     OW65875   6.863   2.826   4.741  0.2136  0.3863  0.1110
17939SOL    HW165876   6.798   2.823   4.665  0.9811  0.5360 -0.5586
17939SOL    HW265877   6.948   2.779   4.714  0.0060 -0.7021  1.3403
17940SOL     OW65878   9.214   8.235   9.666  0.5583  0.4530  0.3341
17940SOL    HW165879   9.121   8.202   9.683  0.9883  0.2155  2.3550
17940SOL    HW265880   9.250   8.192   9.583 -0.9318  0.1357 -0.1637
17941SOL     OW65881   0.505   2.561   0.131 -0.6805  0.3916 -0.3007
17941SOL    HW165882   0.597   2.595   0.113 -0.1498 -0.2139  1.2607
17941SOL    HW265883   0.461   2.536   0.044  0.5569  0.8382 -1.0598
17942SOL     OW65884   2.813   2.196   3.643  0.0710  0.1792  0.0519
17942SOL    HW165885   2.822   2.287   3.684  2.9011  0.6356 -1.4619
17942SOL    HW265886   2.893   2.140   3.668 -0.4890 -1.0994 -0.9541
17943SOL     OW65887   9.565   6.117   1.143  0.4501  0.1588 -0.0909
17943SOL    HW165888   9.563   6.022   1.110  0.8019 -0.3526  1.3278
17943SOL    HW265889   9.650   6.133   1.192 -0.8229  0.3736  2.0863
17944SOL     OW65890   7.514   6.218   7.030 -0.4251  0.4840 -0.5935
17944SOL    HW165891   7.457   6.300   7.037 -0.4042  0.3939  0.7881
17944SOL    HW265892   7.460   6.138   7.054  0.2445  0.3900  0.6451
17945SOL     OW65893   3.611   0.058   1.593 -0.0440 -0.3045 -0.2173
17945SOL    HW165894   3.531   0.098   1.547 -2.0171 -1.3976  2.1603
17945SOL    HW265895   3.624   0.101   1.682  0.1148 -2.2777  0.7415
17946SOL     OW65896   8.032   1.507   1.257  0.3596 -0.2640 -0.2374
17946SOL    HW165897   8.043   1.502   1.158 -1.2310 -0.8023 -0.3891
17946SOL    HW265898   8.123   1.510   1.300  1.0495  0.1239 -1.7059
17947SOL     OW65899   2.834   7.798   2.631 -0.1229  0.1486 -0.0141
17947SOL    HW165900   2.746   7.826   2.668 -0.5545 -0.5530 -0.4797
17947SOL    HW265901   2.869   7.720   2.683 -0.0971  0.0066 -0.2435
17948SOL     OW65902   9.468   9.945   4.306 -0.1860  0.4839  0.4567
17948SOL    HW165903   9.520   9.867   4.274 -1.4639  0.2459 -1.0765
17948SOL    HW265904   9.414   9.919   4.387 -1.8599 -0.6876 -1.0118
17949SOL     OW65905   4.288   1.927   8.198 -0.2275  0.6905  0.2132
17949SOL    HW165906   4.208   1.901   8.145 -0.9023  1.3275  0.9070
17949SOL    HW265907   4.354   1.973   8.139 -0.9847  1.4296 -0.0681
17950SOL     OW65908   8.838   4.594   1.647 -0.1847  0.2733  0.6915
17950SOL    HW165909   8.883   4.668   1.597  0.0468 -0.0410  0.4367
17950SOL    HW265910   8.741   4.592   1.622  0.0028 -0.1042 -0.0052
17951SOL     OW65911   3.140   3.093   4.536  0.3742 -0.4161 -0.1108
17951SOL    HW165912   3.185   3.004   4.533  0.3939 -0.4474  1.0025
17951SOL    HW265913   3.130   3.122   4.631  1.1719  1.1669 -0.4919
17952SOL     OW65914   7.885   4.095   2.044 -0.0142 -0.3145 -0.0263
17952SOL    HW165915   7.942   4.087   2.125 -0.0869 -0.7069 -0.0125
17952SOL    HW265916   7.937   4.068   1.963  0.6506  1.9160 -0.3570
17953SOL     OW65917   8.821   1.897   3.267  0.2436 -0.0907 -0.5427
17953SOL    HW165918   8.875   1.981   3.273 -2.7189  2.0384 -2.5603
17953SOL    HW265919   8.799   1.877   3.172 -2.3257 -1.0331  0.2154
17954SOL     OW65920   3.482   1.078   0.607  0.2138  0.0864  0.0036
17954SOL    HW165921   3.572   1.060   0.569 -1.0194 -0.7730 -2.6064
17954SOL    HW265922   3.420   1.004   0.583 -1.0292  0.2897  2.4259
17955SOL     OW65923   3.142   2.582   9.166 -0.0885 -0.1867 -0.4004
17955SOL    HW165924   3.135   2.677   9.136 -1.4369  0.2479  1.2216
17955SOL    HW265925   3.171   2.579   9.262  1.8265 -1.4829 -0.9923
17956SOL     OW65926   8.624   3.913   1.400 -0.4202 -0.4208  0.1678
17956SOL    HW165927   8.599   3.924   1.496 -0.8191 -0.5934  0.0840
17956SOL    HW265928   8.548   3.871   1.350 -0.2424 -0.2630 -0.2373
17957SOL     OW65929   1.840   8.782   9.443 -0.1420  0.0761 -0.2323
17957SOL    HW165930   1.876   8.862   9.395  0.5899  1.0974  1.9411
17957SOL    HW265931   1.767   8.810   9.505 -1.2981 -1.2629 -0.9560
17958SOL     OW65932   0.444   4.167   0.793  0.1052  0.2784 -0.1364
17958SOL    HW165933   0.444   4.231   0.869 -0.0161 -0.4121  0.4523
17958SOL    HW265934   0.398   4.083   0.820  0.9874 -0.3791 -0.6342
17959SOL     OW65935   8.742   8.213   4.478  0.2352 -0.4357  0.2513
17959SOL    HW165936   8.822   8.257   4.438 -0.1453 -0.2667 -0.3374
17959SOL    HW265937   8.761   8.188   4.573  0.9289 -0.2604  0.1586
17960SOL     OW65938   6.994   5.278   2.274  0.0355  0.1612  0.3943
17960SOL    HW165939   6.915   5.223   2.303  1.2286 -2.6135 -1.3761
17960SOL    HW265940   6.962   5.353   2.215 -1.4820  0.5304  1.6439
17961SOL     OW65941   3.904   8.841   9.808 -0.3130  0.2202  0.0006
17961SOL    HW165942   3.880   8.883   9.896  0.7138 -1.6569  1.1877
17961SOL    HW265943   3.936   8.748   9.823  0.3623  0.0594 -2.3331
17962SOL     OW65944   8.912   5.586   2.657  0.1889  0.2538  0.1920
17962SOL    HW165945   8.912   5.677   2.614  0.1141 -0.5368 -1.4998
17962SOL    HW265946   9.001   5.568   2.698  0.4431  0.7858 -0.1234
17963SOL     OW65947   1.457   9.078   3.321 -0.0370  0.1250  0.7954
17963SOL    HW165948   1.464   9.129   3.236  1.9275 -0.7286  0.4290
17963SOL    HW265949   1.518   9.118   3.390 -0.4509 -0.1377  1.3244
17964SOL     OW65950   8.621   9.755   7.522 -0.4074 -0.1091  0.0351
17964SOL    HW165951   8.635   9.703   7.606  0.5310 -0.9350 -0.6224
17964SOL    HW265952   8.589   9.847   7.545  1.0565  0.0997  1.3558
17965SOL     OW65953   0.545   8.531   4.178 -0.6895  0.2438  0.3717
17965SOL    HW165954   0.546   8.510   4.081 -0.6735 -1.5327  0.7450
17965SOL    HW265955   0.619   8.596   4.199 -1.9476  2.2401 -1.1164
17966SOL     OW65956   7.519   3.010   0.208 -0.1231  0.5659  0.0417
17966SOL    HW165957   7.522   2.919   0.166  1.1133  0.6255 -0.0097
17966SOL    HW265958   7.459   3.007   0.289  0.1707 -0.3778  0.2374
17967SOL     OW65959   7.714   5.356   3.465 -0.3148  0.3155  0.4804
17967SOL    HW165960   7.661   5.346   3.380  0.1673 -0.1122  0.2314
17967SOL    HW265961   7.778   5.432   3.455 -0.4413  0.4331  0.5587
17968SOL     OW65962   8.951   8.600   9.592 -0.4717  0.1988  0.1825
17968SOL    HW165963   9.030   8.609   9.653 -2.3421  0.4451  2.6412
17968SOL    HW265964   8.930   8.688   9.550  0.3400  0.2127 -0.1940
17969SOL     OW65965   0.479   9.053   9.506 -0.5371 -0.2668 -0.4586
17969SOL    HW165966   0.381   9.072   9.516 -0.6982 -1.1201 -0.3200
17969SOL    HW265967   0.498   9.027   9.411 -0.7164 -1.5693 -0.1461
17970SOL     OW65968   7.276   9.065   5.559  0.3305  0.4740  0.1529
17970SOL    HW165969   7.243   9.159   5.552  0.5308  0.6254  1.1496
17970SOL    HW265970   7.333   9.043   5.480  0.7415  1.3756  0.1928
17971SOL     OW65971   9.585   6.607   3.739 -0.0369  0.3846 -0.6267
17971SOL    HW165972   9.599   6.565   3.650  2.2340 -0.0988 -0.0679
17971SOL    HW265973   9.616   6.544   3.811 -0.7337  1.2439  0.4540
17972SOL     OW65974   3.282   9.554   0.710  0.1630  0.0105  0.1337
17972SOL    HW165975   3.194   9.527   0.671 -0.3514 -0.9347  1.9144
17972SOL    HW265976   3.352   9.489   0.682  0.0276  0.0071 -0.1973
17973SOL     OW65977   3.358   7.344   8.534  0.2972 -0.6922  0.6060
17973SOL    HW165978   3.268   7.314   8.503  0.4307 -0.1840 -0.2831
17973SOL    HW265979   3.353   7.438   8.566  0.8356 -0.1057 -0.9734
17974SOL     OW65980   2.189   0.688   4.269 -0.0931  0.5139  0.1998
17974SOL    HW165981   2.192   0.667   4.171  0.2976  0.6837  0.1711
17974SOL    HW265982   2.213   0.784   4.282  1.4938  0.0796  0.5826
17975SOL     OW65983   6.774   7.217   4.205  0.0039 -0.0936 -0.0255
17975SOL    HW165984   6.754   7.237   4.301  0.0830 -0.2879  0.0315
17975SOL    HW265985   6.862   7.259   4.180 -0.7280  1.2338 -0.4301
17976SOL     OW65986   4.333   4.305   6.515  0.2969 -0.7592 -0.5035
17976SOL    HW165987   4.289   4.216   6.519  0.3125 -0.7900 -1.0083
17976SOL    HW265988   4.303   4.361   6.593  0.7904 -1.4286  0.1811
17977SOL     OW65989   7.716   0.428   4.667  0.3776  0.3049  0.0352
17977SOL    HW165990   7.746   0.346   4.618 -2.9841 -0.2441 -1.2030
17977SOL    HW265991   7.739   0.509   4.613  1.2295  0.0329 -0.0259
17978SOL     OW65992   5.645   3.937   9.657 -0.1880 -0.2116  0.1380
17978SOL    HW165993   5.707   3.901   9.588 -0.8867 -1.1353 -0.0150
17978SOL    HW265994   5.698   3.983   9.729  0.4723  2.0169 -1.7055
17979SOL     OW65995   9.812   6.259   5.979  0.0034  0.1586 -0.0220
17979SOL    HW165996   9.748   6.332   5.952 -0.1374  0.5351  1.3319
17979SOL    HW265997   9.891   6.299   6.025 -0.2725 -0.5758  1.1045
17980SOL     OW65998   6.478   5.964   8.410  0.3030 -0.3613  0.4227
17980SOL    HW165999   6.418   5.914   8.471 -0.7821 -0.9550 -1.0899
17980SOL    HW266000   6.422   6.019   8.347  1.3658 -0.1092 -0.3086
17981SOL     OW66001   4.016   8.056   6.678 -0.0211  0.3854 -0.3605
17981SOL    HW166002   4.029   7.968   6.725 -2.0061  0.7158  0.8549
17981SOL    HW266003   3.947   8.045   6.607  0.3634  0.7525 -0.7876
17982SOL     OW66004   4.259   7.378   2.456  0.4667 -0.3888  0.1839
17982SOL    HW166005   4.302   7.330   2.532  0.0155 -1.7854 -0.4399
17982SOL    HW266006   4.169   7.338   2.438  0.3833  0.2289 -0.8002
17983SOL     OW66007   6.069   2.384   1.341 -0.1674  0.2091 -0.5199
17983SOL    HW166008   6.080   2.410   1.437 -0.5446 -1.5386  0.0108
17983SOL    HW266009   6.009   2.449   1.295 -0.6411  0.5973  0.6424
17984SOL     OW66010   7.345   1.875   5.346 -0.4037 -0.1196 -0.0548
17984SOL    HW166011   7.279   1.832   5.285  0.9500 -1.2949 -0.7179
17984SOL    HW266012   7.345   1.974   5.331 -1.6072 -0.1701 -0.4326
17985SOL     OW66013   8.927   8.133   9.690  0.2448  0.1173 -0.3873
17985SOL    HW166014   8.848   8.089   9.732 -0.2060  0.8877 -0.4122
17985SOL    HW266015   8.899   8.220   9.650  1.9841  2.5540  3.5046
17986SOL     OW66016   9.589   1.672   8.974 -0.7072  0.4429 -0.4938
17986SOL    HW166017   9.591   1.769   8.952  1.2903  0.6178  0.3122
17986SOL    HW266018   9.583   1.618   8.890 -1.2605  1.2482 -0.9694
17987SOL     OW66019   8.130   6.304   0.055  0.1870 -0.6421  0.5875
17987SOL    HW166020   8.031   6.292   0.047  0.2114 -1.0980  0.9370
17987SOL    HW266021   8.175   6.214   0.050  0.7449 -0.2858 -1.7552
17988SOL     OW66022   8.423   1.956   7.354  0.4575 -0.4360  0.2463
17988SOL    HW166023   8.432   1.972   7.255  0.4704 -1.3602  0.0871
17988SOL    HW266024   8.491   2.009   7.403 -1.1493  1.9707 -0.0564
17989SOL     OW66025   7.386   5.417   3.473 -0.5307  0.4897 -0.6761
17989SOL    HW166026   7.372   5.447   3.567  0.0643 -0.6448 -0.2064
17989SOL    HW266027   7.481   5.390   3.461 -0.7503  0.0428 -1.4285
17990SOL     OW66028   2.370   2.553   9.140 -0.3174 -0.0872 -0.4232
17990SOL    HW166029   2.271   2.541   9.151 -0.1106 -1.7576 -0.2303
17990SOL    HW266030   2.414   2.561   9.229 -0.1109 -0.9031 -0.4444
17991SOL     OW66031   4.033   8.348   7.364 -0.8079  0.0782  0.5358
17991SOL    HW166032   4.041   8.426   7.425  3.1393  0.4681 -0.3742
17991SOL    HW266033   4.004   8.378   7.274  0.1170  0.4031  0.3496
17992SOL     OW66034   0.119   4.277   9.521 -0.2347  0.2478 -0.6250
17992SOL    HW166035   0.110   4.293   9.423 -0.0839 -1.3467 -0.9035
17992SOL    HW266036   0.215   4.279   9.547 -0.3608  2.1627 -0.2394
17993SOL     OW66037   1.488   1.037   2.951  0.2579 -0.5568 -0.1599
17993SOL    HW166038   1.549   0.968   2.913  1.6760  0.3671  0.3948
17993SOL    HW266039   1.445   1.088   2.877  0.8860 -0.5931 -0.5510
17994SOL     OW66040   5.805   8.492   4.500 -0.0956 -0.1753  0.1051
17994SOL    HW166041   5.750   8.414   4.469  2.7917 -1.5249 -1.8948
17994SOL    HW266042   5.834   8.476   4.594 -0.1299 -1.1694 -0.0428
17995SOL     OW66043   1.996   6.068   3.023 -0.1596 -0.7329  0.0603
17995SOL    HW166044   1.972   6.067   2.926 -2.9543  0.1746  0.6975
17995SOL    HW266045   1.939   6.003   3.072 -0.3601  0.4652  1.4481
17996SOL     OW66046   0.146   8.390   2.608 -0.1055 -0.1970  0.5040
17996SOL    HW166047   0.159   8.476   2.657  1.2665 -0.5235  0.7234
17996SOL    HW266048   0.069   8.399   2.545  0.8481  1.6226 -0.4286
17997SOL     OW66049   4.678   5.390   8.944 -0.2891  0.1775  0.1840
17997SOL    HW166050   4.727   5.472   8.915 -0.0322  0.4818  1.4665
17997SOL    HW266051   4.701   5.369   9.039 -1.2143 -0.7500  0.2112
17998SOL     OW66052   8.721   9.145   7.558 -0.1673  0.1355 -0.0996
17998SOL    HW166053   8.647   9.080   7.544  0.4153 -0.6380  0.3793
17998SOL    HW266054   8.809   9.098   7.552  0.2463  0.8001  0.6318
17999SOL     OW66055   3.598   8.656   1.451 -0.4731 -0.5271  0.2555
17999SOL    HW166056   3.622   8.703   1.536 -1.2798 -0.6947  0.5783
17999SOL    HW266057   3.655   8.691   1.376 -0.2884  0.1557  0.7140
18000SOL     OW66058   9.643   5.882   4.695  0.1206 -0.2754 -0.0624
18000SOL    HW166059   9.674   5.850   4.785 -0.9117  0.4659  0.5638
18000SOL    HW266060   9.571   5.821   4.661 -1.3560  0.9629  0.8172
18001SOL     OW66061   2.203   9.903   7.639 -0.2556  0.6314  0.7769
18001SOL    HW166062   2.146   9.907   7.557  0.9357  0.8859 -0.0657
18001SOL    HW266063   2.170   9.968   7.707 -1.1157  0.5837  0.4032
18002SOL     OW66064   6.976   7.358   6.595  0.0321  0.1487  0.4194
18002SOL    HW166065   7.016   7.393   6.680  1.8237 -2.9625  0.9190
18002SOL    HW266066   7.021   7.400   6.517  0.7223  0.4823  0.9905
18003SOL     OW66067   4.735   4.335   1.035 -0.1235  0.2545  0.2286
18003SOL    HW166068   4.793   4.416   1.028 -0.7090  0.7768  1.3228
18003SOL    HW266069   4.645   4.354   0.995  0.6651 -0.7738 -2.0869
18004SOL     OW66070   5.118   3.895   8.798  0.1573  0.2270  0.0066
18004SOL    HW166071   5.029   3.918   8.759  0.2142 -0.6718 -0.6556
18004SOL    HW266072   5.167   3.835   8.736  1.8270  1.8452 -0.2864
18005SOL     OW66073   9.829   8.373   7.423  0.9598 -0.4331 -0.3508
18005SOL    HW166074   9.779   8.302   7.374  1.1854 -1.2678  0.6085
18005SOL    HW266075   9.921   8.380   7.386  0.6187  0.0507 -1.1097
18006SOL     OW66076   7.697   1.339   4.726  0.2350 -0.4221  0.4128
18006SOL    HW166077   7.693   1.431   4.766  0.3116 -1.2644  2.4049
18006SOL    HW266078   7.713   1.272   4.798  0.2017 -2.0149 -1.0302
18007SOL     OW66079   5.077   0.316   3.196 -0.4462 -0.0854  0.1581
18007SOL    HW166080   4.993   0.277   3.231 -1.0419  0.2615 -0.8503
18007SOL    HW266081   5.132   0.352   3.271 -2.6243  2.4993  0.6029
18008SOL     OW66082   8.177   4.922   3.262  0.2185 -0.4022 -0.1988
18008SOL    HW166083   8.174   4.906   3.164  1.9674 -0.9470 -0.1814
18008SOL    HW266084   8.264   4.890   3.299 -0.3553 -0.0818  1.5123
18009SOL     OW66085   2.502   8.469   8.386  0.5684  0.0114 -0.3727
18009SOL    HW166086   2.494   8.531   8.463 -1.2254 -1.6628  0.8515
18009SOL    HW266087   2.428   8.486   8.321  0.9665  0.1646 -0.7901
18010SOL     OW66088   5.524   5.019   1.841 -0.0939 -0.0905 -0.1025
18010SOL    HW166089   5.433   5.014   1.799  1.3853 -1.0079 -3.3895
18010SOL    HW266090   5.563   4.927   1.846  1.3544  0.4946 -0.4079
18011SOL     OW66091   1.894   0.831   1.536  0.1943  0.0835  0.2100
18011SOL    HW166092   1.949   0.781   1.468  0.2243 -1.0323  1.0447
18011SOL    HW266093   1.834   0.767   1.584  0.6710  0.7475  1.7263
18012SOL     OW66094   6.530   1.271   5.874 -0.1858  0.3259  0.1280
18012SOL    HW166095   6.454   1.212   5.901 -0.8980  0.7456 -0.9200
18012SOL    HW266096   6.505   1.367   5.888  0.3348  0.4524  0.2290
18013SOL     OW66097   4.830   4.333   2.037 -0.3595  0.0978  0.1881
18013SOL    HW166098   4.912   4.348   1.981 -0.7199 -0.4580 -0.5080
18013SOL    HW266099   4.839   4.247   2.088  0.1484  0.8170  1.3248
18014SOL     OW66100   7.745   8.200   8.049  0.4590 -0.6825 -0.5152
18014SOL    HW166101   7.658   8.247   8.065 -0.0254 -2.6426  3.1083
18014SOL    HW266102   7.820   8.258   8.082  0.0164 -1.5186  2.0542
18015SOL     OW66103   3.080   1.193   9.049  0.4105  0.3723  0.4231
18015SOL    HW166104   3.093   1.166   9.144  0.9038  0.5502  0.4031
18015SOL    HW266105   3.130   1.277   9.030  0.2593  0.3737  0.0237
18016SOL     OW66106   9.089   2.411   3.338 -0.0661  0.4950 -0.5826
18016SOL    HW166107   9.157   2.483   3.351 -0.9712  0.9555  1.9571
18016SOL    HW266108   9.003   2.451   3.307 -0.7981  0.6346  1.5761
18017SOL     OW66109   8.219   6.734   8.096  0.1596 -0.3565 -1.0359
18017SOL    HW166110   8.203   6.640   8.066  1.4116 -0.6686 -0.7682
18017SOL    HW266111   8.253   6.788   8.018  0.8975 -0.5142 -0.8290
18018SOL     OW66112   3.893   5.202   4.908  0.3361 -0.0329 -0.1356
18018SOL    HW166113   3.976   5.154   4.937  1.2713  0.7138 -1.5167
18018SOL    HW266114   3.889   5.291   4.953  1.0226  0.5122 -1.1316
18019SOL     OW66115   6.877   0.401   9.501  0.2958  0.0975 -0.5742
18019SOL    HW166116   6.852   0.334   9.431 -1.2776 -0.9289  0.9349
18019SOL    HW266117   6.943   0.361   9.564  0.7214  0.5889 -0.7017
18020SOL     OW66118   3.648   0.761   3.035 -0.7374  0.8425 -0.2003
18020SOL    HW166119   3.658   0.672   3.080 -2.4834  1.2918  1.1565
18020SOL    HW266120   3.730   0.815   3.050 -0.3877  0.1221  0.5479
18021SOL     OW66121   4.775   8.255   5.724 -0.6678  0.3785  0.3247
18021SOL    HW166122   4.836   8.328   5.694  0.0053 -0.0066  0.7451
18021SOL    HW266123   4.813   8.167   5.698 -0.7349  0.1043  1.1358
18022SOL     OW66124   9.167   5.923   9.902  0.1694  0.1776 -0.2412
18022SOL    HW166125   9.214   5.965   9.979  2.6143  1.7769 -2.4990
18022SOL    HW266126   9.225   5.928   9.821 -2.1683 -1.7654 -2.1320
18023SOL     OW66127   1.657   4.393   8.971 -0.2947 -0.1172  0.4510
18023SOL    HW166128   1.593   4.348   8.909  0.6022  1.6987 -1.8400
18023SOL    HW266129   1.616   4.477   9.006  0.9327  1.2418 -1.3101
18024SOL     OW66130   8.171   7.031   7.761 -0.0913  0.1064  0.1488
18024SOL    HW166131   8.130   7.001   7.675  1.1117 -1.6321  0.1572
18024SOL    HW266132   8.100   7.046   7.829 -1.0940  1.9296 -1.2599
18025SOL     OW66133   7.244   6.400   4.608  0.3807  0.3054 -0.4322
18025SOL    HW166134   7.278   6.404   4.702 -0.3346  3.4795 -0.2643
18025SOL    HW266135   7.303   6.454   4.548 -0.5300  0.2687 -1.3827
18026SOL     OW66136   4.680   8.702   5.953  0.1976 -0.0101  0.2364
18026SOL    HW166137   4.740   8.655   5.888 -0.9680 -3.2681  1.4113
18026SOL    HW266138   4.586   8.701   5.918 -0.1438 -0.2684  1.1407
18027SOL     OW66139   0.497   3.146   3.537 -0.5111 -0.2794 -0.3458
18027SOL    HW166140   0.454   3.071   3.487 -0.9160  0.8847 -1.8076
18027SOL    HW266141   0.577   3.112   3.587  0.7547 -1.2487 -2.9287
18028SOL     OW66142   1.529   7.082   5.019  0.3983 -0.2536 -0.1151
18028SOL    HW166143   1.470   7.097   5.098 -0.5333  0.6083 -0.9524
18028SOL    HW266144   1.514   7.155   4.952  0.8460 -1.2262 -1.2889
18029SOL     OW66145   1.953   6.737   9.432  0.2430 -0.1647  0.3416
18029SOL    HW166146   2.001   6.804   9.488  0.0561 -1.0828  1.6316
18029SOL    HW266147   1.855   6.757   9.432  0.1745 -0.4907  0.8118
18030SOL     OW66148   7.211   8.641   5.188  0.7961 -0.5949 -0.1810
18030SOL    HW166149   7.217   8.546   5.219  0.3154 -0.3547  0.6779
18030SOL    HW266150   7.163   8.695   5.257  0.7910  0.2102 -0.8081
18031SOL     OW66151   2.588   6.500   5.396 -0.2774 -0.2738  0.1661
18031SOL    HW166152   2.664   6.544   5.443 -0.3544 -1.8558  1.8377
18031SOL    HW266153   2.622   6.446   5.319 -0.0102  1.2903 -0.8132
18032SOL     OW66154   4.151   1.427   7.591 -0.1258  0.1706 -0.2927
18032SOL    HW166155   4.223   1.472   7.538 -0.4920 -1.6585 -2.3814
18032SOL    HW266156   4.152   1.329   7.573 -1.8721 -0.1530  1.1944
18033SOL     OW66157   1.952   8.258   4.603  0.4738 -0.2413 -0.2098
18033SOL    HW166158   2.039   8.245   4.650  1.1396 -1.3713 -1.6878
18033SOL    HW266159   1.923   8.172   4.561 -1.5548  0.0289  0.5644
18034SOL     OW66160   3.392   1.264   4.983 -0.2762  0.3344 -0.1218
18034SOL    HW166161   3.361   1.172   4.959  0.7925 -0.2364  0.6295
18034SOL    HW266162   3.429   1.263   5.076 -1.7091  1.8751  0.4896
18035SOL     OW66163   0.876   9.559   4.632  0.4126 -0.6062 -0.5936
18035SOL    HW166164   0.840   9.610   4.554 -0.7328  0.9166  0.8997
18035SOL    HW266165   0.888   9.463   4.606  1.7903  0.1898 -3.1942
18036SOL     OW66166   4.985   5.766   4.006  0.8482  0.6271 -0.1801
18036SOL    HW166167   5.028   5.689   4.054 -0.1361 -0.5607 -1.1591
18036SOL    HW266168   4.886   5.764   4.023  0.5933  0.6458 -1.6135
18037SOL     OW66169   9.150   4.163   1.009 -0.0790  0.4256  0.0880
18037SOL    HW166170   9.074   4.109   1.044  1.4902 -1.2406  1.0067
18037SOL    HW266171   9.169   4.239   1.070 -1.9272  1.7279 -0.9093
18038SOL     OW66172   3.728   2.244   8.612  0.0904  0.5564  0.3230
18038SOL    HW166173   3.630   2.253   8.594 -0.1537 -0.7527  0.9433
18038SOL    HW266174   3.743   2.231   8.710  0.7770 -0.6992  0.0549
18039SOL     OW66175   3.650   5.705   5.226 -0.2547  0.1737 -0.0228
18039SOL    HW166176   3.641   5.606   5.241 -0.4503  0.4039  1.4429
18039SOL    HW266177   3.598   5.731   5.144 -0.7336 -0.8299 -0.0481
18040SOL     OW66178   1.562   4.769   4.468  0.4832 -0.0658 -0.5082
18040SOL    HW166179   1.482   4.773   4.527 -0.8692  2.7627 -2.4307
18040SOL    HW266180   1.645   4.779   4.522 -0.4330 -2.7355  1.4724
18041SOL     OW66181   9.034   8.613   2.252  1.0748  0.2663  0.3015
18041SOL    HW166182   8.979   8.644   2.328  2.8327 -0.2847  1.8369
18041SOL    HW266183   9.004   8.522   2.224  1.4974 -0.2157  1.4163
18042SOL     OW66184   1.794   3.403   9.875 -0.5696 -0.7964  0.5442
18042SOL    HW166185   1.808   3.399   9.974 -1.3303 -1.7184  0.6211
18042SOL    HW266186   1.825   3.492   9.840  1.1114 -1.0434  1.3715
18043SOL     OW66187   0.299   9.078   0.780 -0.2473  0.2452  0.2500
18043SOL    HW166188   0.396   9.100   0.779  0.0373 -0.9546 -0.6134
18043SOL    HW266189   0.271   9.046   0.689 -1.0999 -0.8500  0.8784
18044SOL     OW66190   9.242   2.436   8.169 -0.0988  0.0212 -0.0589
18044SOL    HW166191   9.328   2.441   8.119 -0.0927 -0.6336 -0.1208
18044SOL    HW266192   9.169   2.480   8.116  0.1920  0.5693 -0.0088
18045SOL     OW66193   0.286   0.088   7.689 -0.1297  0.3461  0.0906
18045SOL    HW166194   0.211   0.155   7.683  0.7923  1.3536 -0.3908
18045SOL    HW266195   0.328   0.094   7.780 -1.8842 -1.5992  1.0541
18046SOL     OW66196   5.096   2.637   5.739 -0.8381 -0.0293  0.0493
18046SOL    HW166197   5.017   2.666   5.683 -1.0680 -2.2186 -0.8000
18046SOL    HW266198   5.099   2.537   5.743  1.8928  0.0225  0.0915
18047SOL     OW66199   7.452   4.770   0.211 -0.2540  0.2585 -0.0673
18047SOL    HW166200   7.370   4.743   0.261 -1.3846  0.2335 -1.8864
18047SOL    HW266201   7.500   4.841   0.262 -1.4330  0.3156  0.9965
18048SOL     OW66202   2.967   1.902   9.412  0.2485 -0.5216  0.0194
18048SOL    HW166203   2.872   1.930   9.402  0.3391 -0.4014 -0.4866
18048SOL    HW266204   2.999   1.925   9.504 -1.5542 -4.5625  1.7771
18049SOL     OW66205   7.896   4.673   0.050 -0.4252 -0.1159 -0.3154
18049SOL    HW166206   7.924   4.676  -0.046 -1.1571  0.3220 -0.5213
18049SOL    HW266207   7.824   4.604   0.062 -0.0042 -0.4971  0.0048
18050SOL     OW66208   8.120   0.214   6.211  0.4396  0.6016  0.0536
18050SOL    HW166209   8.216   0.225   6.235  0.1469  2.0164  0.6007
18050SOL    HW266210   8.069   0.183   6.291 -0.1018  2.9070  0.6260
18051SOL     OW66211   2.120   2.750   4.540 -0.1739  0.1446 -0.5161
18051SOL    HW166212   2.158   2.835   4.576  0.0304 -0.6496  1.1749
18051SOL    HW266213   2.093   2.690   4.615 -0.3196 -1.2960 -1.6783
18052SOL     OW66214   2.147   0.493   9.543  0.3669  0.2223 -0.0531
18052SOL    HW166215   2.165   0.566   9.477  0.6303  0.2960  0.0995
18052SOL    HW266216   2.190   0.408   9.512  1.0436  0.4170  0.3476
18053SOL     OW66217   3.812   5.564   8.961 -0.0987 -0.1223  0.0699
18053SOL    HW166218   3.729   5.514   8.983 -0.4637  0.1639 -0.6459
18053SOL    HW266219   3.887   5.498   8.947 -0.3099 -0.4038  0.2524
18054SOL     OW66220   7.889   2.527   5.292  0.6862 -0.4431 -0.6217
18054SOL    HW166221   7.879   2.592   5.217 -0.7101  0.3589  0.2311
18054SOL    HW266222   7.908   2.577   5.377 -1.2663 -1.0439  0.2068
18055SOL     OW66223   2.992   6.397   0.951  0.0162  0.5219 -0.4010
18055SOL    HW166224   2.904   6.355   0.929  0.5838 -0.5749 -0.5853
18055SOL    HW266225   3.017   6.374   1.045 -0.0427  1.1149 -0.2346
18056SOL     OW66226   3.037   7.954   5.675 -0.3454  0.3754  0.2790
18056SOL    HW166227   3.125   7.916   5.646 -0.0036  1.4262 -0.0931
18056SOL    HW266228   2.975   7.880   5.699  0.3574 -0.4056 -0.2813
18057SOL     OW66229   6.720   8.755   4.940  0.2817 -0.5051  0.3447
18057SOL    HW166230   6.819   8.758   4.947  0.3976 -2.3034 -0.2336
18057SOL    HW266231   6.680   8.751   5.031  0.6723  1.3705  0.6184
18058SOL     OW66232   3.870   0.068   1.505 -0.3197  0.2970  0.2323
18058SOL    HW166233   3.775   0.064   1.535  0.1204 -1.3782  1.4820
18058SOL    HW266234   3.924   0.121   1.571 -0.6074  2.3318 -1.1352
18059SOL     OW66235   1.175   9.685   3.316 -0.0916  0.0839  0.4513
18059SOL    HW166236   1.268   9.687   3.354 -0.5836  0.4523  1.6403
18059SOL    HW266237   1.170   9.748   3.239  1.1357 -1.2748 -0.7847
18060SOL     OW66238   2.164   0.299   7.620 -0.1064  0.2954 -0.2570
18060SOL    HW166239   2.220   0.372   7.660 -0.2626  0.1630  0.1981
18060SOL    HW266240   2.069   0.328   7.615 -0.3692 -0.3309  1.0225
18061SOL     OW66241   6.773   1.161   8.621 -0.3904  0.1940 -0.5075
18061SOL    HW166242   6.702   1.231   8.616  1.3627  2.1473  0.8460
18061SOL    HW266243   6.863   1.205   8.615  0.7614 -1.9161  0.7247
18062SOL     OW66244   4.039   6.818   8.627 -0.6388 -0.0381  0.1395
18062SOL    HW166245   3.970   6.756   8.589 -1.2795  1.1792 -0.7635
18062SOL    HW266246   4.060   6.889   8.559  1.0196 -0.0142  0.6646
18063SOL     OW66247   6.682   0.187   6.835 -0.0141 -0.6104  0.4865
18063SOL    HW166248   6.765   0.142   6.867 -0.7576 -1.4115  1.3432
18063SOL    HW266249   6.681   0.189   6.735  2.5628  2.3172  0.4449
18064SOL     OW66250   8.174   3.003   7.488  0.0954  0.0682 -0.3368
18064SOL    HW166251   8.120   2.931   7.532 -0.2793  0.9941  0.7496
18064SOL    HW266252   8.266   3.004   7.529  0.3554 -0.3104 -0.9085
18065SOL     OW66253   3.134   6.027   4.443  0.4059  0.2442 -0.6359
18065SOL    HW166254   3.046   6.063   4.472  0.4380 -0.4746  0.4068
18065SOL    HW266255   3.130   6.002   4.346 -0.0672  1.6041 -0.9734
18066SOL     OW66256   0.994   7.364   2.655  0.0419  0.2040 -0.0592
18066SOL    HW166257   0.912   7.324   2.614  0.0142  0.6257 -0.4129
18066SOL    HW266258   1.038   7.295   2.713 -0.0981 -0.2926 -0.5333
18067SOL     OW66259   1.828   5.673   8.433 -0.5444 -0.7596  0.2843
18067SOL    HW166260   1.828   5.573   8.434 -3.8949 -0.7917  1.3453
18067SOL    HW266261   1.790   5.706   8.347  2.7487 -0.3323 -1.0620
18068SOL     OW66262   8.898   5.605   6.741 -0.2184  0.8951  0.0361
18068SOL    HW166263   8.982   5.639   6.700 -0.3593  1.2342  0.0246
18068SOL    HW266264   8.820   5.633   6.685 -0.1612 -1.6445 -1.4064
18069SOL     OW66265   7.554   8.424   9.199 -0.4803 -0.3381 -0.3568
18069SOL    HW166266   7.489   8.401   9.271  2.5365 -1.7632  2.0012
18069SOL    HW266267   7.538   8.518   9.168 -3.0699 -0.3888  0.7460
18070SOL     OW66268   1.258   0.855   9.683 -0.5054 -0.0259 -0.0378
18070SOL    HW166269   1.290   0.892   9.770  0.1517 -1.8861  0.5421
18070SOL    HW266270   1.258   0.927   9.614 -0.9242  1.4477  1.4635
18071SOL     OW66271   4.665   5.720   2.655 -0.2645  0.6599 -0.3737
18071SOL    HW166272   4.616   5.636   2.679 -1.9947  1.8904  0.4828
18071SOL    HW266273   4.599   5.792   2.636  1.2248  1.9703 -0.6294
18072SOL     OW66274   8.168   7.218   2.915  0.2678  0.5368  0.3446
18072SOL    HW166275   8.253   7.210   2.968 -0.4316  2.4670  1.8152
18072SOL    HW266276   8.111   7.137   2.932  0.8365  0.2906  1.1212
18073SOL     OW66277   5.929   8.338   7.312 -0.5575  0.0161  0.1570
18073SOL    HW166278   5.942   8.342   7.213 -0.1391 -0.9222  0.1755
18073SOL    HW266279   6.018   8.336   7.357 -0.7513 -1.7158  0.4682
18074SOL     OW66280   4.731   2.096   5.009 -0.1571  0.3414 -0.1141
18074SOL    HW166281   4.751   2.170   4.944 -1.1513  0.3003 -0.4739
18074SOL    HW266282   4.763   2.123   5.100 -0.2622  1.1003 -0.2975
18075SOL     OW66283   8.309   8.619   2.721 -0.2765  0.4205  0.0046
18075SOL    HW166284   8.333   8.580   2.810  0.5356  0.1219 -0.3335
18075SOL    HW266285   8.300   8.545   2.654  0.8251  0.7671 -0.5400
18076SOL     OW66286   0.650   1.525   7.996  0.3012  0.1382  0.0781
18076SOL    HW166287   0.698   1.608   8.024 -0.0743  0.2762  0.3023
18076SOL    HW266288   0.555   1.546   7.973  0.5404 -0.0071 -1.0978
18077SOL     OW66289   2.991   8.188   6.737  0.3698 -0.1109  0.7257
18077SOL    HW166290   2.906   8.176   6.788  1.0769 -0.6946  1.7608
18077SOL    HW266291   3.064   8.136   6.780  1.1650  0.0504 -0.4081
18078SOL     OW66292   9.806   6.275   3.663  0.3869  0.3114  0.8624
18078SOL    HW166293   9.732   6.288   3.597  1.1061  0.5885  0.1092
18078SOL    HW266294   9.829   6.362   3.704  0.3685  0.2411  1.0226
18079SOL     OW66295   8.066   7.028   4.098 -0.0083 -0.5331 -0.3033
18079SOL    HW166296   8.098   7.073   4.182  0.4554  0.1361 -0.8388
18079SOL    HW266297   8.051   7.096   4.027  2.2913 -1.3619 -1.6406
18080SOL     OW66298   2.653   7.589   7.804 -0.0975  0.3195 -0.0454
18080SOL    HW166299   2.746   7.576   7.770 -0.3406  0.4524 -0.7940
18080SOL    HW266300   2.639   7.685   7.826  0.4647  0.0121  1.6845
18081SOL     OW66301   8.606   3.392   4.254  0.1469 -0.0483 -0.7494
18081SOL    HW166302   8.617   3.404   4.353 -1.8064  0.3047 -0.5557
18081SOL    HW266303   8.695   3.399   4.210  0.7902  1.8864  0.7585
18082SOL     OW66304   1.371   3.693   5.479 -0.1969  0.0784  0.6461
18082SOL    HW166305   1.448   3.636   5.506 -0.1678  0.0340  0.4722
18082SOL    HW266306   1.290   3.667   5.532  0.5997  2.0860  2.9304
18083SOL     OW66307   6.622   0.757   8.410 -0.8376  0.3438 -0.0841
18083SOL    HW166308   6.579   0.679   8.456 -0.1895 -0.2999 -0.5503
18083SOL    HW266309   6.577   0.772   8.322 -2.2497  1.7378  0.8385
18084SOL     OW66310   3.741   4.233   8.515  0.1002 -0.6983 -0.0631
18084SOL    HW166311   3.759   4.139   8.543 -0.7424 -1.3183 -1.5396
18084SOL    HW266312   3.753   4.242   8.416 -0.5086  0.5791 -0.0428
18085SOL     OW66313   2.038   9.179   7.054 -0.5707 -0.6050  0.5226
18085SOL    HW166314   1.997   9.225   7.133  1.4148 -0.0950  1.2916
18085SOL    HW266315   2.073   9.090   7.081  0.3898 -0.3036  0.3249
18086SOL     OW66316   5.007   7.697   5.049  0.1643 -0.2692 -0.7221
18086SOL    HW166317   5.023   7.600   5.033 -2.3587 -0.4881 -2.0675
18086SOL    HW266318   5.019   7.748   4.964 -0.0299  0.3793 -0.3669
18087SOL     OW66319   9.519   3.966   3.102  0.4112 -0.2688 -0.0763
18087SOL    HW166320   9.436   3.954   3.156  0.3668 -1.0921 -0.3285
18087SOL    HW266321   9.544   3.879   3.060  0.4782  0.3587 -1.3387
18088SOL     OW66322   3.105   4.596   5.581 -0.0585 -0.3507 -0.1058
18088SOL    HW166323   3.040   4.671   5.569 -0.4475 -0.6853 -0.0673
18088SOL    HW266324   3.057   4.509   5.585  0.4122 -0.6306 -0.3878
18089SOL     OW66325   1.350   3.626   0.183 -0.1311  0.7580 -0.3701
18089SOL    HW166326   1.421   3.605   0.250 -1.5613  0.7396  1.1711
18089SOL    HW266327   1.321   3.542   0.137 -0.4036  0.5064  0.2645
18090SOL     OW66328   1.371   3.603   3.922 -0.5088 -0.0856 -0.1086
18090SOL    HW166329   1.390   3.696   3.892 -0.0351 -0.0350  0.3487
18090SOL    HW266330   1.326   3.553   3.847 -0.5108  0.4217 -0.4508
18091SOL     OW66331   6.208   3.348   1.832 -0.1260 -0.9894  0.1155
18091SOL    HW166332   6.258   3.281   1.777 -0.4746 -0.0641 -1.3725
18091SOL    HW266333   6.120   3.367   1.789  0.1894  0.8080  0.2343
18092SOL     OW66334   5.190   8.308   4.141 -0.2741 -0.4903  0.5248
18092SOL    HW166335   5.158   8.224   4.097  1.1622 -1.5091  1.3743
18092SOL    HW266336   5.247   8.284   4.220  0.7797  1.2665  0.3119
18093SOL     OW66337   8.700   6.920   0.485 -0.4634 -0.0486  0.1326
18093SOL    HW166338   8.669   6.996   0.543  1.0948  0.8437 -0.1793
18093SOL    HW266339   8.800   6.920   0.481 -0.5392 -0.1467 -2.4769
18094SOL     OW66340   3.789   9.176   8.214  0.1638 -0.2636  0.1525
18094SOL    HW166341   3.840   9.218   8.289 -0.0005  0.8140 -0.3346
18094SOL    HW266342   3.853   9.147   8.143  0.0459  1.8472 -0.8373
18095SOL     OW66343   3.767   0.796   3.773 -0.1427 -0.1457  0.2502
18095SOL    HW166344   3.857   0.797   3.815 -0.7969  1.1257  1.6548
18095SOL    HW266345   3.776   0.817   3.675  1.3553 -2.9946 -0.2647
18096SOL     OW66346   3.648   1.992   9.322  0.0891  0.2438 -0.2428
18096SOL    HW166347   3.707   1.929   9.271  1.9575  1.8697 -0.1279
18096SOL    HW266348   3.686   2.008   9.413 -1.6074 -0.2378  0.5734
18097SOL     OW66349   3.624   6.270   9.928  0.2275  0.1153  0.4440
18097SOL    HW166350   3.627   6.173   9.952 -0.3404  0.2022  0.9039
18097SOL    HW266351   3.606   6.280   9.830  0.6423 -0.2426  0.3314
18098SOL     OW66352   2.125   5.525   1.536  0.2472  0.3449 -0.1454
18098SOL    HW166353   2.066   5.466   1.481 -1.6330  2.3649 -0.3736
18098SOL    HW266354   2.151   5.478   1.620  1.6133 -2.0723 -1.8537
18099SOL     OW66355   1.569   3.238   4.333  0.1243 -0.1358 -0.7268
18099SOL    HW166356   1.543   3.154   4.381  0.6570 -0.0699 -0.3234
18099SOL    HW266357   1.488   3.295   4.319  0.0789  0.1403  0.6713
18100SOL     OW66358   7.035   1.916   5.161 -0.3746 -0.1282  0.6520
18100SOL    HW166359   7.097   1.841   5.136  0.7901  0.4225  1.8313
18100SOL    HW266360   6.981   1.942   5.081  0.2141 -1.2783 -0.1434
18101SOL     OW66361   3.236   7.974   7.699 -0.6358  0.8020 -0.0938
18101SOL    HW166362   3.327   7.959   7.660  0.0348  0.0351  1.7364
18101SOL    HW266363   3.188   8.042   7.643  1.0865  1.3016 -1.0327
18102SOL     OW66364   5.682   5.226   2.562  0.0434 -0.7344 -0.2974
18102SOL    HW166365   5.624   5.155   2.520 -0.0713 -0.7937 -0.0381
18102SOL    HW266366   5.702   5.296   2.494 -0.8988 -0.3635 -0.2005
18103SOL     OW66367   7.089   8.189   3.137  0.3237  0.2215  0.0791
18103SOL    HW166368   7.073   8.268   3.077  0.1477  0.5704  0.5859
18103SOL    HW266369   7.101   8.108   3.081  2.6496  0.9582 -0.5472
18104SOL     OW66370   7.387   3.686   3.093  0.3454 -0.4282 -0.3602
18104SOL    HW166371   7.319   3.729   3.034 -0.2197  0.6418  1.0698
18104SOL    HW266372   7.428   3.608   3.044 -1.0701 -0.3904 -1.6484
18105SOL     OW66373   7.498   3.534   8.717 -0.3280  0.0107 -0.2669
18105SOL    HW166374   7.439   3.512   8.795  0.2683 -0.2212  0.1167
18105SOL    HW266375   7.462   3.616   8.670 -0.6479  0.1842  0.2772
18106SOL     OW66376   0.993   0.873   7.167  0.1632 -0.1886 -0.7662
18106SOL    HW166377   0.942   0.841   7.246 -0.3453 -0.6450 -1.2780
18106SOL    HW266378   1.030   0.964   7.186 -1.4376  0.4519 -0.6578
18107SOL     OW66379   6.920   6.974   6.540 -0.2129  0.6705 -0.0286
18107SOL    HW166380   6.923   6.877   6.514 -1.1276  0.5868  0.1427
18107SOL    HW266381   6.915   7.030   6.458  1.5103  0.6390 -0.1710
18108SOL     OW66382   5.415   8.130   2.418  0.2433 -0.3753 -0.2527
18108SOL    HW166383   5.340   8.167   2.473  2.4408 -0.6060  2.9910
18108SOL    HW266384   5.428   8.188   2.337 -0.6064  2.1978  1.3733
18109SOL     OW66385   5.057   5.490   0.425  0.3050 -0.3682  0.6599
18109SOL    HW166386   5.020   5.425   0.358 -1.4205  1.7922 -0.5678
18109SOL    HW266387   5.141   5.530   0.390 -0.7137  0.9235 -0.3642
18110SOL     OW66388   5.642   8.528   3.932 -0.0305  0.0088 -0.2259
18110SOL    HW166389   5.551   8.488   3.920 -0.0245 -0.2845  0.6919
18110SOL    HW266390   5.710   8.455   3.937  0.1297  0.1855  0.1701
18111SOL     OW66391   0.099   9.664   5.349  0.3448  0.1746  0.1612
18111SOL    HW166392   0.052   9.583   5.315  4.2888 -1.0895 -2.6017
18111SOL    HW266393   0.066   9.744   5.299 -0.9592 -0.2239  0.3578
18112SOL     OW66394   8.437   6.679   4.989  0.1468 -0.0908  0.2166
18112SOL    HW166395   8.391   6.711   5.072 -0.2928  1.1147 -0.4772
18112SOL    HW266396   8.435   6.579   4.986 -0.2130 -0.1242  1.4438
18113SOL     OW66397   1.435   8.812   2.018  0.1635  0.0330  0.1405
18113SOL    HW166398   1.526   8.789   1.984 -0.1659 -1.5004  0.2458
18113SOL    HW266399   1.400   8.736   2.074 -0.9587  0.8300  0.5445
18114SOL     OW66400   6.424   8.299   7.616  0.0928  0.8084  0.2108
18114SOL    HW166401   6.460   8.218   7.569 -0.6127  0.6562 -0.0705
18114SOL    HW266402   6.467   8.381   7.577  1.3900  0.5329  1.0297
18115SOL     OW66403   2.461   1.934   7.263  0.1308  1.0112  0.1136
18115SOL    HW166404   2.381   1.973   7.216  1.7470  2.6976 -1.3197
18115SOL    HW266405   2.449   1.836   7.272 -2.6703  1.3726  1.0556
18116SOL     OW66406   2.439   7.126   2.741  0.0697  0.6606 -0.4335
18116SOL    HW166407   2.378   7.121   2.662  0.9794 -0.3584 -1.0860
18116SOL    HW266408   2.405   7.194   2.805 -0.5776  1.6325 -1.7963
18117SOL     OW66409   9.492   1.830   9.624  0.0135  0.4214  0.0423
18117SOL    HW166410   9.480   1.929   9.619  0.3758  0.5402  1.4136
18117SOL    HW266411   9.573   1.809   9.679 -0.2019 -0.6485 -0.0384
18118SOL     OW66412   1.492   6.590   6.009  0.6163  0.5818  0.7551
18118SOL    HW166413   1.474   6.682   6.043  0.5576  1.7640 -2.3105
18118SOL    HW266414   1.409   6.553   5.968  0.5152 -1.0574  2.3795
18119SOL     OW66415   6.039   1.072   1.260 -0.1243  0.9034  0.3830
18119SOL    HW166416   6.122   1.018   1.268 -0.5930  0.1994  0.5318
18119SOL    HW266417   6.055   1.150   1.200  0.0152 -0.4334 -1.3309
18120SOL     OW66418   2.912   9.427   8.302  0.1376  0.1052  0.2572
18120SOL    HW166419   2.994   9.394   8.255  0.7437 -0.6298  1.8038
18120SOL    HW266420   2.892   9.520   8.273  0.4633 -0.3513 -1.4931
18121SOL     OW66421   1.643   9.670   4.597  0.4035  0.4273 -0.9059
18121SOL    HW166422   1.707   9.739   4.563  1.6203 -0.1329  0.1990
18121SOL    HW266423   1.692   9.586   4.618 -0.7358 -0.0946 -0.2561
18122SOL     OW66424   5.945   4.229   2.132 -0.2686 -0.6687 -0.7651
18122SOL    HW166425   5.916   4.246   2.226 -2.0262 -0.5221 -1.3145
18122SOL    HW266426   6.033   4.181   2.132 -0.7982 -1.6877  0.9704
18123SOL     OW66427   0.290   1.268   4.482 -0.0832  0.0172  0.4328
18123SOL    HW166428   0.271   1.222   4.395 -1.5986 -0.5341  1.0373
18123SOL    HW266429   0.388   1.260   4.503  0.7301  2.0184 -2.2523
18124SOL     OW66430   7.403   1.102   8.734 -0.1324 -0.0545  0.1812
18124SOL    HW166431   7.319   1.065   8.694 -0.7528  0.3396  1.1047
18124SOL    HW266432   7.383   1.189   8.780  0.4684 -0.7400  1.7693
18125SOL     OW66433   6.334   2.792   9.757 -0.0476  0.3408  0.8043
18125SOL    HW166434   6.269   2.732   9.804 -0.3316  0.9698  1.2271
18125SOL    HW266435   6.373   2.857   9.823  0.2733  0.6046  0.3566
18126SOL     OW66436   4.070   7.027   8.415 -0.3990  0.2711  0.2415
18126SOL    HW166437   4.132   7.106   8.421 -0.1628  0.2318 -1.5630
18126SOL    HW266438   3.991   7.051   8.360 -0.6111 -0.5827  0.1695
18127SOL     OW66439   1.690   7.033   8.722  0.0216  0.1782  0.1538
18127SOL    HW166440   1.644   7.118   8.696 -1.8090 -0.9720 -0.4501
18127SOL    HW266441   1.624   6.958   8.719  1.5269 -1.1923  1.0913
18128SOL     OW66442   2.025   1.174   5.004  0.7279  0.5585 -0.1850
18128SOL    HW166443   1.980   1.102   4.951 -4.1681  3.1729  0.1612
18128SOL    HW266444   2.021   1.151   5.101 -1.8096  1.6906  0.0195
18129SOL     OW66445   1.447   9.720   0.275 -0.3425 -0.0002 -0.1652
18129SOL    HW166446   1.528   9.683   0.322 -0.3759 -0.8014 -0.7269
18129SOL    HW266447   1.372   9.654   0.282 -0.7715  0.4936 -0.1446
18130SOL     OW66448   4.176   6.076   9.540  0.3570  0.4629 -0.2814
18130SOL    HW166449   4.237   6.040   9.611  0.3369  0.0704 -0.4612
18130SOL    HW266450   4.093   6.112   9.583  1.6668  3.0223  0.1430
18131SOL     OW66451   9.991   9.811   0.940  0.6035  0.3151 -0.4228
18131SOL    HW166452   9.971   9.726   0.892  3.1936 -0.7985  0.3753
18131SOL    HW266453  10.001   9.886   0.875  0.9110 -0.5254 -1.3427
18132SOL     OW66454   3.776   6.472   7.034 -0.0203  0.0598  0.2498
18132SOL    HW166455   3.862   6.447   7.079  0.0912  0.8002  0.4620
18132SOL    HW266456   3.712   6.396   7.040  0.3471 -0.2139  0.7828
18133SOL     OW66457   5.256   1.695   2.449 -0.2715  0.4093  0.7216
18133SOL    HW166458   5.301   1.606   2.438  2.9712  2.0308  0.5391
18133SOL    HW266459   5.236   1.733   2.359 -0.1511  0.6073  0.7789
18134SOL     OW66460   3.639   5.523   7.859  0.1007  0.2952  0.1549
18134SOL    HW166461   3.724   5.495   7.904  0.8458  1.8722 -0.2163
18134SOL    HW266462   3.646   5.619   7.834 -1.5862  0.2755 -0.4050
18135SOL     OW66463   1.966   1.185   6.920 -0.5291  0.6857 -0.6044
18135SOL    HW166464   2.016   1.100   6.902 -0.7326  0.6938 -1.2427
18135SOL    HW266465   2.031   1.258   6.940 -0.3881  0.2217  0.6515
18136SOL     OW66466   8.572   0.703   2.757  0.1218  0.3433 -0.1366
18136SOL    HW166467   8.666   0.715   2.726  1.0507  0.3626  2.5309
18136SOL    HW266468   8.540   0.787   2.799 -0.6159 -0.0849  0.1683
18137SOL     OW66469   0.310   4.767   5.178 -0.8962  0.4489  0.0548
18137SOL    HW166470   0.238   4.835   5.163 -1.2774 -0.1997 -1.1543
18137SOL    HW266471   0.321   4.712   5.095 -0.0552 -0.4568  0.7594
18138SOL     OW66472   8.391   1.676   7.066 -0.1034  0.0417 -0.4546
18138SOL    HW166473   8.446   1.640   7.141  0.0240  1.1870  0.0138
18138SOL    HW266474   8.297   1.643   7.075  0.3909 -1.5707 -1.0209
18139SOL     OW66475   1.289   0.516   2.062  0.3188 -0.2767  0.0896
18139SOL    HW166476   1.306   0.484   2.155 -2.6113  0.1113  0.8130
18139SOL    HW266477   1.208   0.469   2.025  0.0444  1.2973 -1.3546
18140SOL     OW66478   0.431   4.948   4.972 -0.3486 -0.5273  0.0901
18140SOL    HW166479   0.453   4.850   4.969 -0.0117 -0.4324 -0.4981
18140SOL    HW266480   0.505   4.998   5.016 -0.5078 -0.5261  0.3634
18141SOL     OW66481   1.501   5.657   9.070  0.1888  0.1982 -0.2456
18141SOL    HW166482   1.591   5.689   9.042  1.4545 -1.4857  1.7017
18141SOL    HW266483   1.481   5.569   9.026  0.5428 -0.5779  1.1036
18142SOL     OW66484   1.556   5.505   5.567 -0.5396  0.2345  0.1007
18142SOL    HW166485   1.572   5.526   5.471  1.0053 -1.8159 -0.1298
18142SOL    HW266486   1.641   5.515   5.618 -0.8339 -0.8709  0.8314
18143SOL     OW66487   3.098   5.278   6.843 -0.4854 -0.4961 -0.0356
18143SOL    HW166488   3.160   5.222   6.787  0.6226  1.7946 -1.1364
18143SOL    HW266489   3.013   5.292   6.793 -1.1295 -1.9096  0.6215
18144SOL     OW66490   9.643   2.200   6.795  0.1433  0.0036 -0.0419
18144SOL    HW166491   9.711   2.155   6.738 -0.4245  0.6959 -1.3129
18144SOL    HW266492   9.686   2.236   6.878  0.9381 -1.2317  0.0900
18145SOL     OW66493   6.089   3.706   1.052  0.1711  0.4708 -0.1621
18145SOL    HW166494   6.098   3.736   1.147 -0.3414 -0.7821  0.2820
18145SOL    HW266495   5.993   3.693   1.029  0.4146 -1.8801 -0.0033
18146SOL     OW66496   8.963   7.048   0.277  0.0745 -0.6800 -0.1828
18146SOL    HW166497   8.870   7.041   0.241  0.1384  1.3779 -0.8443
18146SOL    HW266498   8.993   6.958   0.309 -2.0327 -1.4388 -0.1986
18147SOL     OW66499   7.473   0.525   3.691 -0.1034  0.0011 -0.0058
18147SOL    HW166500   7.550   0.482   3.643  0.7343  1.1128  0.3046
18147SOL    HW266501   7.491   0.623   3.701  0.3217 -0.3718  3.6525
18148SOL     OW66502   8.861   1.603   0.191  0.6016  0.3158 -0.4443
18148SOL    HW166503   8.771   1.636   0.220  0.8165  0.8909 -0.4292
18148SOL    HW266504   8.865   1.601   0.091  0.7600  0.8138 -0.4493
18149SOL     OW66505   0.505   0.758   7.331  0.0011 -0.0599 -0.9346
18149SOL    HW166506   0.428   0.788   7.274  0.3039 -1.4535 -2.1169
18149SOL    HW266507   0.549   0.679   7.288  2.4909  1.0811 -0.6023
18150SOL     OW66508   4.210   8.588   6.445 -0.2168 -0.1573 -0.5532
18150SOL    HW166509   4.291   8.643   6.464  0.3072 -1.0981 -0.0665
18150SOL    HW266510   4.130   8.648   6.438  0.3375  0.6526  0.0757
18151SOL     OW66511   0.801   7.625   3.668 -0.3030  0.0461  0.3776
18151SOL    HW166512   0.713   7.665   3.643 -1.2272 -1.8783  0.4379
18151SOL    HW266513   0.818   7.544   3.611  0.1946 -1.1182  2.1456
18152SOL     OW66514   1.033   6.983   3.372  0.0322  0.1917  1.0104
18152SOL    HW166515   1.133   6.981   3.379  0.0120 -1.4226  1.0740
18152SOL    HW266516   0.993   6.930   3.447 -0.8147 -0.4901  0.0976
18153SOL     OW66517   5.212   7.876   7.944  0.0662  0.0539  0.4405
18153SOL    HW166518   5.133   7.931   7.968  0.8900  1.1667  0.6488
18153SOL    HW266519   5.186   7.807   7.877 -1.1675  0.1194  0.8520
18154SOL     OW66520   2.245   3.659   4.993 -0.1711 -0.0654 -0.6403
18154SOL    HW166521   2.326   3.633   5.046 -0.3890  0.6610  0.0590
18154SOL    HW266522   2.172   3.592   5.009 -0.1631  0.0303 -0.1964
18155SOL     OW66523   5.789   0.481   8.426 -0.1470  0.1427  0.4474
18155SOL    HW166524   5.824   0.563   8.471 -0.7880 -0.0354  1.2811
18155SOL    HW266525   5.839   0.401   8.458 -2.0439 -0.2610  2.5206
18156SOL     OW66526   4.042   2.426   0.063 -0.1964 -0.2325 -0.5949
18156SOL    HW166527   4.031   2.446   0.161 -1.1325  0.3774 -0.8130
18156SOL    HW266528   4.135   2.395   0.046 -0.2629 -1.1695  0.6302
18157SOL     OW66529   8.726   5.830   4.091  0.2403 -0.1874  0.3932
18157SOL    HW166530   8.686   5.904   4.145  0.2795  0.4921 -0.5130
18157SOL    HW266531   8.799   5.866   4.034 -1.3721 -0.4606 -1.8939
18158SOL     OW66532   5.648   2.113   9.493  0.1398  0.2244 -0.2487
18158SOL    HW166533   5.639   2.013   9.491 -2.9617  0.4317  0.3937
18158SOL    HW266534   5.709   2.139   9.568  0.1829 -1.1590  0.2143
18159SOL     OW66535   2.661   4.394   2.808 -0.3107  0.1983  0.0035
18159SOL    HW166536   2.734   4.428   2.748  1.4166 -0.9644  1.3733
18159SOL    HW266537   2.680   4.423   2.902 -0.4982 -1.8499  0.6875
18160SOL     OW66538   9.234   5.676   2.350  0.1536 -0.3439  0.7943
18160SOL    HW166539   9.312   5.687   2.412  0.2385  0.1719  0.6035
18160SOL    HW266540   9.186   5.763   2.343 -0.5968 -0.7324  1.1200
18161SOL     OW66541   5.447   8.860   3.100  0.1316  0.1458 -0.1478
18161SOL    HW166542   5.532   8.861   3.152  0.5952  0.8124 -0.8989
18161SOL    HW266543   5.412   8.766   3.095  0.0064  0.1050  1.4605
18162SOL     OW66544   9.606   7.684   7.252  0.2376  0.0742  0.0060
18162SOL    HW166545   9.629   7.715   7.159  0.0970 -0.8414 -0.3396
18162SOL    HW266546   9.572   7.590   7.248  0.5762 -0.0929  1.0327
18163SOL     OW66547   3.259   9.536   0.415 -0.4294 -0.1354  0.3499
18163SOL    HW166548   3.350   9.509   0.386 -0.5747 -0.6467  0.3695
18163SOL    HW266549   3.253   9.636   0.418 -1.3203  0.0673 -4.4265
18164SOL     OW66550   7.074   7.415   5.094 -0.0189 -0.1063 -0.1618
18164SOL    HW166551   7.142   7.382   5.029 -0.3475  1.3126 -1.2580
18164SOL    HW266552   7.116   7.480   5.157 -0.1728  0.0886 -0.2626
18165SOL     OW66553   3.665   8.057   1.995  0.1942 -0.1259 -0.3302
18165SOL    HW166554   3.590   8.067   2.061  1.0109 -0.5534  0.6788
18165SOL    HW266555   3.739   8.004   2.036  0.7245 -0.3933 -1.5965
18166SOL     OW66556   2.680   8.753   5.192  0.1653  0.1191  0.0265
18166SOL    HW166557   2.598   8.779   5.142 -0.9778 -0.9084  1.3586
18166SOL    HW266558   2.761   8.775   5.137 -1.0638 -1.2960 -2.4139
18167SOL     OW66559   9.914   8.359   1.379  0.2971 -0.4425 -0.3027
18167SOL    HW166560   9.842   8.384   1.316 -1.2859 -1.2738  1.1230
18167SOL    HW266561   9.956   8.441   1.418  1.1284  0.0593 -2.2186
18168SOL     OW66562   3.536   6.318   3.083  0.0092  0.0849  0.3014
18168SOL    HW166563   3.627   6.285   3.106 -0.4508 -1.1638  0.3881
18168SOL    HW266564   3.470   6.243   3.090 -0.9253  0.8159 -0.3743
18169SOL     OW66565   8.704   7.591   7.946  0.0701  0.4186  0.3781
18169SOL    HW166566   8.615   7.551   7.924  0.3476 -0.0342  0.0732
18169SOL    HW266567   8.738   7.642   7.867 -0.2063  1.1248  0.7095
18170SOL     OW66568   8.863   5.849   9.041 -0.3850  0.0329 -0.0229
18170SOL    HW166569   8.827   5.796   9.119  1.0931 -1.8856 -0.6095
18170SOL    HW266570   8.958   5.823   9.024 -0.1458  1.7112 -1.3958
18171SOL     OW66571   2.780   6.260   5.703 -0.2530 -0.8393  0.1758
18171SOL    HW166572   2.840   6.181   5.693  0.0364 -0.4084 -1.6904
18171SOL    HW266573   2.749   6.267   5.798  0.8636 -2.3468  0.6648
18172SOL     OW66574   1.341   2.442   0.478  0.1628 -0.6171 -0.2953
18172SOL    HW166575   1.348   2.532   0.519 -1.3155 -1.2158  1.3349
18172SOL    HW266576   1.285   2.447   0.395 -1.7221 -0.4045  0.9767
18173SOL     OW66577   5.935   2.357   5.773  0.5946 -0.5589 -0.0295
18173SOL    HW166578   6.035   2.348   5.780  0.4404 -0.6282  2.3215
18173SOL    HW266579   5.913   2.445   5.732  1.6090 -0.1508  0.2756
18174SOL     OW66580   8.131   5.907   5.750 -0.2579  0.0420  0.0597
18174SOL    HW166581   8.229   5.922   5.739 -0.3480  0.9377  0.4378
18174SOL    HW266582   8.086   5.917   5.661 -0.2764  1.7585  0.2550
18175SOL     OW66583   1.061   0.501   4.131 -0.1101  0.5887 -0.0161
18175SOL    HW166584   1.105   0.590   4.121 -0.8664  0.9730  0.0020
18175SOL    HW266585   1.061   0.453   4.043 -0.4465  0.9682 -0.2265
18176SOL     OW66586   0.545   1.290   2.493 -0.1502 -0.0414  0.5575
18176SOL    HW166587   0.626   1.233   2.478 -0.7707 -0.1565 -2.5095
18176SOL    HW266588   0.574   1.379   2.529  1.1834 -0.7225  1.2103
18177SOL     OW66589   2.481   4.684   4.187 -0.0552 -0.4169 -0.0846
18177SOL    HW166590   2.488   4.749   4.111 -2.0287 -0.8950 -0.6897
18177SOL    HW266591   2.395   4.635   4.182 -0.5963  0.1111  2.9260
18178SOL     OW66592   2.203   5.917   1.173 -0.1577 -0.1892  0.0260
18178SOL    HW166593   2.195   5.829   1.220 -0.1326  0.0945  0.5674
18178SOL    HW266594   2.120   5.934   1.119  0.7659 -1.5707 -1.8820
18179SOL     OW66595   9.359   1.764   4.479  0.0027  0.9543  0.2918
18179SOL    HW166596   9.421   1.810   4.543 -0.1411  1.6020 -0.0367
18179SOL    HW266597   9.279   1.821   4.463  0.1804  0.9342 -0.7136
18180SOL     OW66598   3.627   3.189   9.517 -0.2206  0.5441 -0.1090
18180SOL    HW166599   3.620   3.231   9.427 -2.5276 -1.1474 -0.7674
18180SOL    HW266600   3.703   3.124   9.518 -1.5677 -1.0742 -1.5420
18181SOL     OW66601   6.885   7.011   7.175  0.0939  0.3144  0.5147
18181SOL    HW166602   6.856   7.104   7.156 -0.6195  0.0187  0.1235
18181SOL    HW266603   6.869   6.954   7.094  0.8624 -0.0693  0.6250
18182SOL     OW66604   0.392   5.879   9.711 -0.3668  0.0838 -0.3376
18182SOL    HW166605   0.320   5.819   9.746  0.6909 -1.4094 -0.6767
18182SOL    HW266606   0.446   5.915   9.787  0.8937 -1.8316 -0.3125
18183SOL     OW66607   0.617   0.502   7.694  0.2843  0.1488  0.4189
18183SOL    HW166608   0.524   0.482   7.663  0.5913  0.8977 -1.0164
18183SOL    HW266609   0.668   0.416   7.701 -0.4020 -0.2297  0.8763
18184SOL     OW66610   0.495   8.251   5.084  0.5071  0.3294  0.0572
18184SOL    HW166611   0.450   8.257   4.995 -0.8655  0.0489  0.7194
18184SOL    HW266612   0.470   8.330   5.140 -1.4568 -1.1952  1.4430
18185SOL     OW66613   8.142   0.637   6.761  0.1717  0.0174  0.0215
18185SOL    HW166614   8.177   0.728   6.742 -0.8814  0.2662 -0.7645
18185SOL    HW266615   8.158   0.615   6.857 -2.1451  2.2190  0.9765
18186SOL     OW66616   5.570   3.117   8.661  0.2268 -0.1497  0.3775
18186SOL    HW166617   5.573   3.035   8.605  1.0690 -1.1483  1.8525
18186SOL    HW266618   5.629   3.187   8.621  1.0892 -0.9710  0.1974
18187SOL     OW66619   9.078   8.175   7.414  0.5326 -0.2152 -0.1058
18187SOL    HW166620   9.070   8.084   7.455 -1.9512  0.3097  0.6879
18187SOL    HW266621   9.029   8.176   7.327  1.7589 -0.0107 -0.8024
18188SOL     OW66622   1.963   0.187   1.760  0.1367 -0.4258  0.5559
18188SOL    HW166623   1.863   0.194   1.757  0.2221  0.3252 -0.7791
18188SOL    HW266624   1.991   0.100   1.720  0.0214 -0.6752  1.0087
18189SOL     OW66625   4.671   8.617   3.556  0.3542 -0.2549  0.2279
18189SOL    HW166626   4.671   8.541   3.491 -0.6864 -0.4015  0.3846
18189SOL    HW266627   4.655   8.703   3.507 -2.5444 -0.5914  0.5008
18190SOL     OW66628   1.564   3.928   9.019 -0.2850  0.3050  0.0135
18190SOL    HW166629   1.494   3.938   8.949 -0.9734 -1.8810  0.3787
18190SOL    HW266630   1.545   3.990   9.095 -1.0283  0.7190 -0.5104
18191SOL     OW66631   9.834   7.491   2.755  0.2858 -0.1359 -0.1640
18191SOL    HW166632   9.900   7.423   2.724 -0.5425 -1.3434  0.6843
18191SOL    HW266633   9.826   7.487   2.855  2.0301  2.8852  0.1622
18192SOL     OW66634   1.492   1.787   4.083  0.0331 -0.1494  0.0183
18192SOL    HW166635   1.461   1.782   3.988 -0.2828 -0.6099  0.1426
18192SOL    HW266636   1.485   1.881   4.115 -2.4020 -0.4252  0.4175
18193SOL     OW66637   6.187   1.277   4.352 -0.1700 -0.0660 -0.6062
18193SOL    HW166638   6.159   1.370   4.331 -1.0726 -0.1019  0.4013
18193SOL    HW266639   6.122   1.236   4.417  2.2639 -0.1170  1.8828
18194SOL     OW66640   7.674   1.048   4.207 -0.6662  0.0594 -0.4151
18194SOL    HW166641   7.653   1.075   4.113  0.0418 -1.4561 -1.0276
18194SOL    HW266642   7.722   0.960   4.207 -1.9212 -0.6696  1.4415
18195SOL     OW66643   7.755   3.184   6.635  0.4504 -0.1781 -0.2197
18195SOL    HW166644   7.752   3.215   6.540 -2.3775  0.0873 -0.0712
18195SOL    HW266645   7.771   3.263   6.694  1.9595 -0.3081 -0.4233
18196SOL     OW66646   2.761   9.715   3.545  0.2950  0.3519 -0.2376
18196SOL    HW166647   2.788   9.671   3.460 -0.9606 -1.2780  0.1912
18196SOL    HW266648   2.721   9.805   3.525 -1.9898 -0.9292 -1.5553
18197SOL     OW66649   5.067   9.654   5.253 -0.2626  0.6343 -0.3056
18197SOL    HW166650   5.035   9.666   5.159  0.3741 -2.1150 -0.9012
18197SOL    HW266651   4.988   9.652   5.314 -0.8782 -0.4594 -1.1177
18198SOL     OW66652   0.835   0.342   7.788 -0.2872  0.3291  0.6092
18198SOL    HW166653   0.924   0.305   7.814 -0.1495  0.5182  0.4067
18198SOL    HW266654   0.806   0.409   7.856 -0.9533 -0.8053  1.4643
18199SOL     OW66655   4.720   8.927   1.676  0.6617 -0.0441  0.4659
18199SOL    HW166656   4.653   8.870   1.724  0.4282 -0.4192 -0.3047
18199SOL    HW266657   4.764   8.874   1.604 -1.6170  1.4935 -2.1765
18200SOL     OW66658   5.211   5.296   0.975  0.0297  0.4024  0.7033
18200SOL    HW166659   5.286   5.344   1.021 -0.0959  1.4751 -0.1817
18200SOL    HW266660   5.181   5.349   0.896  0.3373 -1.4761 -0.7096
18201SOL     OW66661   1.271   4.988   4.296 -0.7475  0.9845 -0.0928
18201SOL    HW166662   1.300   4.992   4.200  0.4640  1.5721  0.2788
18201SOL    HW266663   1.308   5.067   4.344 -0.0228 -0.1294  1.2111
18202SOL     OW66664   0.958   8.836   9.823  0.3575 -0.2604  0.1487
18202SOL    HW166665   0.951   8.814   9.920 -0.1606 -1.8809 -0.2460
18202SOL    HW266666   1.010   8.921   9.812 -1.0508  0.8756  1.9307
18203SOL     OW66667   6.119   3.988   1.682  0.2189 -0.5567 -0.8242
18203SOL    HW166668   6.075   4.035   1.605 -0.4460 -0.0361 -0.1330
18203SOL    HW266669   6.187   4.049   1.724 -0.3106 -0.3871 -0.2174
18204SOL     OW66670   0.370   9.080   7.041 -0.3335  0.1477  0.1358
18204SOL    HW166671   0.290   9.103   7.097 -1.1290 -0.8617 -0.5921
18204SOL    HW266672   0.396   8.985   7.058  0.9627  0.5887  0.6674
18205SOL     OW66673   0.433   3.664   2.619 -0.1488  0.0512 -0.2675
18205SOL    HW166674   0.343   3.674   2.577 -1.1555 -1.3045  1.5123
18205SOL    HW266675   0.483   3.751   2.611 -1.1838  0.5029 -2.1713
18206SOL     OW66676   3.827   9.376   3.871 -0.5590  0.3871 -0.8018
18206SOL    HW166677   3.849   9.473   3.873 -0.9513  0.5195 -2.1990
18206SOL    HW266678   3.728   9.365   3.863 -0.4151 -0.1069 -1.9804
18207SOL     OW66679   4.281   1.311   4.707  0.0161 -0.3194  0.1067
18207SOL    HW166680   4.331   1.329   4.622  0.2485 -0.1755  0.2745
18207SOL    HW266681   4.189   1.278   4.685  0.7290 -2.1671 -0.2204
18208SOL     OW66682   2.495   8.774   6.010 -0.0311 -0.2706  0.1195
18208SOL    HW166683   2.579   8.824   5.990  0.1549 -0.5789  0.1216
18208SOL    HW266684   2.418   8.815   5.960 -0.1721  0.9672  1.3112
18209SOL     OW66685   3.485   1.305   0.321  0.5107  0.1061 -0.2472
18209SOL    HW166686   3.475   1.349   0.410  3.4102 -0.8126  0.5865
18209SOL    HW266687   3.497   1.375   0.250  1.0142  0.7882  0.4999
18210SOL     OW66688   1.725   2.024   9.808 -0.7350  0.2550 -0.2800
18210SOL    HW166689   1.676   2.078   9.876  0.8567  1.0233  0.3005
18210SOL    HW266690   1.802   1.977   9.852 -0.7232 -0.6223 -1.2229
18211SOL     OW66691   5.396   2.686   8.737 -0.0184 -0.0461  0.1000
18211SOL    HW166692   5.389   2.734   8.825  3.0910 -2.0661  1.5397
18211SOL    HW266693   5.379   2.589   8.752  1.3645 -0.5215 -1.4080
18212SOL     OW66694   5.535   7.662   4.430  0.3355  0.4417 -0.0778
18212SOL    HW166695   5.618   7.707   4.396  0.6366 -0.3182 -0.3624
18212SOL    HW266696   5.557   7.609   4.512 -0.1565  1.3540  0.6520
18213SOL     OW66697   9.812   5.617   7.688 -0.5258 -0.6537 -0.9620
18213SOL    HW166698   9.880   5.544   7.698 -1.0098 -1.2744 -2.0900
18213SOL    HW266699   9.855   5.705   7.708  0.4620 -1.0960 -1.1034
18214SOL     OW66700   0.255   4.094   5.375  0.0772 -0.1680  0.6624
18214SOL    HW166701   0.353   4.109   5.362 -0.2423  0.4749 -1.2284
18214SOL    HW266702   0.236   3.996   5.374  0.6242 -0.2739  0.3301
18215SOL     OW66703   9.555   4.271   4.287 -0.0573 -0.8481 -0.6583
18215SOL    HW166704   9.643   4.314   4.305 -0.9935  1.1403 -0.6282
18215SOL    HW266705   9.527   4.291   4.193 -2.0143  1.4942  0.3460
18216SOL     OW66706   9.905   2.005   1.859  0.4030  0.6436  0.3909
18216SOL    HW166707   9.810   2.021   1.889  0.1975  0.3977 -0.1244
18216SOL    HW266708   9.965   2.009   1.939 -0.2481 -0.8768  0.9729
18217SOL     OW66709   0.525   3.503   9.298  0.0994  0.2458  0.5302
18217SOL    HW166710   0.589   3.508   9.221 -1.0142 -0.4060 -0.4478
18217SOL    HW266711   0.565   3.446   9.370 -0.1164 -1.6653 -0.8128
18218SOL     OW66712   5.619   0.126   7.657 -0.0449 -0.5557  0.5715
18218SOL    HW166713   5.623   0.109   7.756 -1.4332  1.4882  1.0151
18218SOL    HW266714   5.524   0.136   7.629  0.3320 -1.2880 -1.0304
18219SOL     OW66715   4.813   8.449   4.125  0.1741 -0.7043  0.2662
18219SOL    HW166716   4.815   8.549   4.129 -0.4778 -0.7108  0.8193
18219SOL    HW266717   4.807   8.413   4.218  0.5262 -1.2637  0.0739
18220SOL     OW66718   2.323   5.561   6.525 -0.3390 -0.3307 -0.0466
18220SOL    HW166719   2.314   5.518   6.614 -0.1288  0.2175  0.2449
18220SOL    HW266720   2.420   5.578   6.506 -0.5177  1.7053  0.6775
18221SOL     OW66721   8.125   0.550   7.848  0.2469  0.1750  0.2003
18221SOL    HW166722   8.064   0.484   7.804  0.1055  0.5224 -0.1301
18221SOL    HW266723   8.089   0.574   7.938 -0.1214  0.4026 -0.0077
18222SOL     OW66724   7.048   5.398   0.743 -0.6239 -0.0569  0.4565
18222SOL    HW166725   7.064   5.323   0.806  0.0408  1.1953  1.8094
18222SOL    HW266726   6.952   5.425   0.746 -0.5751  0.0567  1.0083
18223SOL     OW66727   2.569   4.308   6.408 -0.1816 -0.6705  0.2887
18223SOL    HW166728   2.598   4.225   6.360  0.9851 -0.8868  1.3482
18223SOL    HW266729   2.638   4.379   6.396 -1.2698  0.2224 -0.7787
18224SOL     OW66730   2.429   4.944   3.773 -0.3907  0.1721  0.7094
18224SOL    HW166731   2.372   4.950   3.855 -0.0007 -1.4455  1.1283
18224SOL    HW266732   2.373   4.913   3.696 -0.5676  0.8424  0.5638
18225SOL     OW66733   8.863   1.801   7.553 -0.3443  0.4619 -0.3315
18225SOL    HW166734   8.779   1.853   7.570 -0.6298 -0.1424  0.0780
18225SOL    HW266735   8.938   1.843   7.604 -0.9154 -0.5148  1.3301
18226SOL     OW66736   3.013   6.844   8.742 -0.2350  0.0760  0.4713
18226SOL    HW166737   2.931   6.793   8.769 -0.2654 -0.1159  0.0224
18226SOL    HW266738   2.991   6.942   8.738  0.0704  0.2337  2.2622
18227SOL     OW66739   7.921   7.628   2.131 -0.2159 -0.4041  0.4677
18227SOL    HW166740   7.965   7.610   2.219  0.2052 -1.5559  0.0420
18227SOL    HW266741   7.901   7.725   2.122  2.1264  0.1314  0.7454
18228SOL     OW66742   2.276   1.601   7.574 -0.1638  0.4749 -0.2434
18228SOL    HW166743   2.228   1.636   7.655  0.4407  2.8380 -0.8561
18228SOL    HW266744   2.374   1.593   7.595 -0.0727  0.6594 -0.5947
18229SOL     OW66745   9.026   6.101   6.559  0.2686 -0.5168  0.4875
18229SOL    HW166746   8.961   6.078   6.631 -0.4857  1.7230  0.5621
18229SOL    HW266747   9.010   6.043   6.479 -1.7220 -0.0932  0.5647
18230SOL     OW66748   1.982   5.552   5.892  0.1412  0.2190 -0.0715
18230SOL    HW166749   2.066   5.510   5.857 -0.1900 -1.3578  0.9882
18230SOL    HW266750   1.972   5.532   5.989 -1.0673  1.0475 -0.0110
18231SOL     OW66751   6.399   8.220   5.680 -0.0048 -0.5142 -0.3598
18231SOL    HW166752   6.380   8.291   5.613  0.4856  0.2772  0.3371
18231SOL    HW266753   6.365   8.132   5.646 -0.4936  0.0262 -1.2748
18232SOL     OW66754   4.151   5.207   3.844 -0.7654 -0.4470 -0.2536
18232SOL    HW166755   4.154   5.151   3.927 -0.8762 -0.2172 -0.0929
18232SOL    HW266756   4.121   5.299   3.868 -0.7785 -0.3753 -0.5470
18233SOL     OW66757   6.317   5.625   9.167  0.0697 -0.3125  0.5512
18233SOL    HW166758   6.394   5.576   9.210 -0.4227 -1.0659  0.5881
18233SOL    HW266759   6.344   5.719   9.147  0.6439 -0.2384  1.6051
18234SOL     OW66760   8.560   7.736   2.185  0.7458  0.2449  0.0768
18234SOL    HW166761   8.473   7.762   2.143  1.1424  0.1095 -0.8263
18234SOL    HW266762   8.542   7.680   2.267 -0.0367  1.1791  0.5455
18235SOL     OW66763   4.108   7.006   9.788 -0.4551  0.2715  0.2575
18235SOL    HW166764   4.131   7.077   9.854 -1.6975  0.3634  0.5949
18235SOL    HW266765   4.094   7.048   9.698 -1.2408  0.4673  0.4663
18236SOL     OW66766   1.923   1.494   4.141 -0.0070  0.5905  0.1905
18236SOL    HW166767   1.872   1.495   4.227  0.0899 -0.8307  0.2706
18236SOL    HW266768   1.907   1.579   4.092 -1.7587  0.5193  0.6251
18237SOL     OW66769   9.417   0.544   5.634  0.7063 -0.0718  0.4112
18237SOL    HW166770   9.404   0.458   5.585  1.4801  0.1319 -0.1502
18237SOL    HW266771   9.483   0.530   5.708  1.1153  0.1258  0.0864
18238SOL     OW66772   0.858   0.865   5.190  0.4539 -0.0712 -0.3996
18238SOL    HW166773   0.810   0.831   5.109 -0.0700  1.1572 -0.6242
18238SOL    HW266774   0.824   0.818   5.271 -1.1267  0.7325 -0.5630
18239SOL     OW66775   2.988   0.147   8.678 -0.1524 -0.4485  0.4174
18239SOL    HW166776   2.984   0.049   8.658  2.7257 -0.6594  0.6599
18239SOL    HW266777   3.012   0.197   8.594 -0.2944 -0.0801  0.5948
18240SOL     OW66778   1.116   6.673   1.262  1.0161 -0.3312  0.1621
18240SOL    HW166779   1.116   6.764   1.302  1.0342 -0.4101  0.3408
18240SOL    HW266780   1.165   6.610   1.322 -0.6618 -0.8797  1.0111
18241SOL     OW66781   4.545   3.492   4.896 -0.0644 -0.5102  0.2269
18241SOL    HW166782   4.605   3.414   4.915  1.1365  0.2391 -0.4094
18241SOL    HW266783   4.527   3.542   4.980  1.6093  0.2425  0.1499
18242SOL     OW66784   2.508   1.152   4.390  0.1935  0.5606  0.1288
18242SOL    HW166785   2.554   1.236   4.419  0.0786  0.9244 -0.7493
18242SOL    HW266786   2.479   1.160   4.295  0.2381 -0.4988  0.0164
18243SOL     OW66787   5.915   5.807   9.800 -0.1651  0.4242 -0.0523
18243SOL    HW166788   5.822   5.807   9.837 -0.2744  1.7523 -0.3036
18243SOL    HW266789   5.981   5.793   9.874 -0.5613 -0.3497  0.1474
18244SOL     OW66790   8.057   5.514   0.942  0.3324 -0.1805 -0.4676
18244SOL    HW166791   8.064   5.415   0.954  0.5759 -0.3401 -1.7759
18244SOL    HW266792   8.139   5.558   0.977 -0.2736 -0.3182  1.1888
18245SOL     OW66793   4.139   7.791   8.663  0.1978 -0.3680 -0.0028
18245SOL    HW166794   4.112   7.786   8.759 -1.5130  0.2035 -0.4342
18245SOL    HW266795   4.058   7.802   8.606  1.1327 -1.4495 -1.5884
18246SOL     OW66796   8.486   2.418   5.620  0.2123  0.3250 -0.1833
18246SOL    HW166797   8.425   2.351   5.661 -0.3406 -0.0742 -1.6110
18246SOL    HW266798   8.550   2.371   5.559 -0.4641  1.1240 -1.5338
18247SOL     OW66799   1.104   9.031   3.646 -0.4299 -0.3167 -0.2096
18247SOL    HW166800   1.101   9.016   3.547  1.7837  1.0522 -0.5228
18247SOL    HW266801   1.190   8.996   3.683 -0.4085  0.8643  0.9125
18248SOL     OW66802   0.149   4.356   6.510  1.1894  0.5411  0.5712
18248SOL    HW166803   0.091   4.403   6.444 -0.0397 -0.7978  0.6871
18248SOL    HW266804   0.130   4.258   6.508  0.9753  0.4961  3.0476
18249SOL     OW66805   7.746   1.666   1.357  0.1736  0.4194 -0.3173
18249SOL    HW166806   7.840   1.694   1.376  0.7681 -0.1844 -2.1716
18249SOL    HW266807   7.711   1.612   1.433  1.8314 -0.5003 -0.1808
18250SOL     OW66808   3.504   9.858   5.407 -0.5458  0.0180 -0.8084
18250SOL    HW166809   3.410   9.874   5.435  0.0654  0.7411  0.9120
18250SOL    HW266810   3.528   9.762   5.423  0.0245  0.5779  1.9958
18251SOL     OW66811   6.306   0.182   5.911 -0.0183  0.4158  0.4872
18251SOL    HW166812   6.326   0.266   5.961  1.3420  1.5716 -1.9209
18251SOL    HW266813   6.210   0.158   5.924  0.0138  1.3225  2.6593
18252SOL     OW66814   9.520   8.981   7.045 -0.2307 -0.1886 -0.1615
18252SOL    HW166815   9.564   8.949   7.129 -0.8489  1.6552  0.8820
18252SOL    HW266816   9.445   8.919   7.021  0.9021 -1.5641 -0.2093
18253SOL     OW66817   8.228   8.687   8.557 -0.1512 -0.4630  0.1712
18253SOL    HW166818   8.134   8.658   8.540 -0.8062  1.1725  0.9287
18253SOL    HW266819   8.287   8.651   8.484 -1.4810 -0.8776 -0.7309
18254SOL     OW66820   8.303   5.701   8.510  0.1260 -0.7793  0.1332
18254SOL    HW166821   8.235   5.724   8.579  0.1041  0.0667 -0.1634
18254SOL    HW266822   8.297   5.767   8.434 -0.5840 -2.3153 -1.1878
18255SOL     OW66823   7.559   2.267   8.729 -0.1883 -0.0603  0.0665
18255SOL    HW166824   7.615   2.191   8.696  1.5699  1.2819 -0.1068
18255SOL    HW266825   7.583   2.287   8.824 -0.2629  0.6040 -0.0526
18256SOL     OW66826   3.969   3.927   6.239 -0.4357 -0.4749  0.2879
18256SOL    HW166827   3.955   3.955   6.144 -0.4743  0.1228  0.4718
18256SOL    HW266828   4.020   3.841   6.241 -0.8654 -0.7474 -0.2899
18257SOL     OW66829   8.324   3.802   6.989  0.5060 -1.3734 -0.2310
18257SOL    HW166830   8.255   3.850   6.934 -0.6587  0.2792  2.5682
18257SOL    HW266831   8.284   3.721   7.030  0.8685 -1.6137 -0.3447
18258SOL     OW66832   2.969   3.627   0.215  0.1577  0.4906  0.2613
18258SOL    HW166833   2.910   3.622   0.135  0.6423  0.1464 -0.0836
18258SOL    HW266834   2.913   3.631   0.298 -0.3559 -0.2539 -0.0364
18259SOL     OW66835   5.967   0.036   5.648 -0.1816 -0.0131 -0.1459
18259SOL    HW166836   6.062   0.066   5.634 -0.2629  0.8890  1.1761
18259SOL    HW266837   5.944   0.042   5.745 -0.8575 -2.4664 -0.1084
18260SOL     OW66838   3.282   5.256   7.710  0.1402  0.6480 -0.1382
18260SOL    HW166839   3.216   5.182   7.698  1.5798 -0.7514  0.3604
18260SOL    HW266840   3.236   5.344   7.698 -1.8391 -0.2835  0.3776
18261SOL     OW66841   2.556   9.046   3.949 -0.3291  0.3916  0.2954
18261SOL    HW166842   2.581   9.061   3.853  0.5391  0.9533  0.6005
18261SOL    HW266843   2.630   8.996   3.994 -0.0361  1.5130  1.0631
18262SOL     OW66844   2.881   0.639   5.002 -0.7570 -0.2609  0.3468
18262SOL    HW166845   2.835   0.691   5.075 -1.6285 -0.1804 -0.2531
18262SOL    HW266846   2.829   0.649   4.917  1.4269  1.4453 -0.8377
18263SOL     OW66847   7.324   1.910   2.230 -0.2502  0.3399  0.4876
18263SOL    HW166848   7.286   2.002   2.239 -0.4496  0.1600  1.5544
18263SOL    HW266849   7.318   1.863   2.318 -0.0863 -0.6717 -0.0392
18264SOL     OW66850   1.473   6.111   7.728 -0.2738 -0.7539  0.1212
18264SOL    HW166851   1.468   6.012   7.713  1.1623 -0.9529  0.8113
18264SOL    HW266852   1.409   6.158   7.667 -0.6958 -2.0796 -0.4749
18265SOL     OW66853   8.394   4.120   2.436  0.6009 -0.0423 -0.8975
18265SOL    HW166854   8.416   4.023   2.433  0.9461  0.0011  0.0639
18265SOL    HW266855   8.382   4.155   2.343  0.8425 -0.9176 -1.2569
18266SOL     OW66856   3.775   2.552   8.710  0.2715 -0.0827 -0.2063
18266SOL    HW166857   3.826   2.531   8.626  0.9735 -0.2032  0.2446
18266SOL    HW266858   3.689   2.597   8.687  1.5199  2.0076 -0.8716
18267SOL     OW66859   9.853   7.128   7.489  0.1162  0.4159 -0.0360
18267SOL    HW166860   9.826   7.200   7.554  0.5516  0.5049  0.0448
18267SOL    HW266861   9.952   7.116   7.492 -0.1602 -1.6476  1.4830
18268SOL     OW66862   8.006   7.194   3.808 -0.0375  0.0961 -0.1980
18268SOL    HW166863   8.017   7.117   3.745 -0.0735 -0.4145  0.4213
18268SOL    HW266864   7.956   7.268   3.762  0.8213  0.1212 -1.0996
18269SOL     OW66865   4.852   2.931   4.707  0.3273  0.3091 -0.3101
18269SOL    HW166866   4.763   2.963   4.677  0.6369  0.4771 -1.0681
18269SOL    HW266867   4.919   2.944   4.634  1.1137  0.8034  0.4795
18270SOL     OW66868   6.745   8.470   6.878 -0.5582  0.1969  0.0361
18270SOL    HW166869   6.669   8.533   6.896 -0.5195  0.3299 -0.2627
18270SOL    HW266870   6.819   8.486   6.943  0.0488  1.4328 -0.9405
18271SOL     OW66871   6.576   4.951   1.315  0.3174 -0.3233  0.0429
18271SOL    HW166872   6.668   4.956   1.355  1.3389  1.9568 -2.4616
18271SOL    HW266873   6.541   5.043   1.301 -0.2416 -1.0342 -3.7313
18272SOL     OW66874   5.560   3.357   0.751  0.5061  0.2839 -0.0054
18272SOL    HW166875   5.629   3.342   0.680  0.2738 -2.1009  0.2364
18272SOL    HW266876   5.565   3.284   0.819 -2.1280  0.1345  0.1088
18273SOL     OW66877   3.362   2.584   6.498 -0.0142 -0.0041  0.0806
18273SOL    HW166878   3.438   2.587   6.563 -0.0017  0.4564  0.0481
18273SOL    HW266879   3.322   2.492   6.498 -0.2403  0.0859  0.9946
18274SOL     OW66880   1.933   6.212   6.701  0.1054  0.3445  0.3765
18274SOL    HW166881   1.974   6.191   6.790  1.1581  2.1861  0.3437
18274SOL    HW266882   1.982   6.164   6.629 -0.9087 -1.3622  0.7745
18275SOL     OW66883   0.992   7.557   8.843  0.1596  0.3517  0.1574
18275SOL    HW166884   1.066   7.623   8.829 -0.5769  1.5488  1.7727
18275SOL    HW266885   0.905   7.601   8.823 -0.2929 -0.3192  0.6642
18276SOL     OW66886   9.012   8.351   4.011  0.4059 -0.2869 -0.6182
18276SOL    HW166887   8.965   8.278   3.962 -1.2118 -0.2672  0.8770
18276SOL    HW266888   9.107   8.324   4.028  0.4176 -1.1379 -1.9255
18277SOL     OW66889   7.002   4.437   0.012  0.6430 -0.7290 -0.2553
18277SOL    HW166890   7.020   4.352   0.061  0.5282 -0.0440  0.9875
18277SOL    HW266891   6.904   4.455   0.012  0.7336 -0.2233  0.1168
18278SOL     OW66892   0.143   2.437   6.239  0.2879  0.1676 -0.0084
18278SOL    HW166893   0.089   2.480   6.311  0.0019  0.2238 -0.2547
18278SOL    HW266894   0.147   2.338   6.255  2.5676  0.4719  1.6449
18279SOL     OW66895   8.987   2.792   3.415 -0.8076 -0.2072 -0.4917
18279SOL    HW166896   8.939   2.743   3.342 -0.7403 -0.2495 -0.5077
18279SOL    HW266897   9.026   2.726   3.479 -0.4960 -0.1852 -0.6532
18280SOL     OW66898   1.151   8.774   1.704 -0.3613 -0.0008 -0.1723
18280SOL    HW166899   1.202   8.853   1.736  0.1148 -0.5972  0.5676
18280SOL    HW266900   1.078   8.803   1.642 -1.0386  1.1297  1.1417
18281SOL     OW66901   6.410   7.809   4.676 -0.7348  0.2037 -0.1435
18281SOL    HW166902   6.337   7.876   4.689 -2.4703 -1.5443 -0.5828
18281SOL    HW266903   6.389   7.753   4.595  1.1824 -0.2134 -0.3710
18282SOL     OW66904   3.805   4.509   0.685  0.3352  0.2284 -0.1230
18282SOL    HW166905   3.720   4.467   0.653 -0.0012  0.5318  0.3646
18282SOL    HW266906   3.841   4.456   0.762  1.5398 -0.9378 -1.4505
18283SOL     OW66907   7.562   5.599   4.855 -0.1458 -0.2206 -0.3788
18283SOL    HW166908   7.633   5.600   4.785 -0.3127  1.5693 -0.5300
18283SOL    HW266909   7.473   5.585   4.813  0.0402 -2.0311 -0.2288
18284SOL     OW66910   2.532   0.333   7.991 -0.4976  0.2201  0.1206
18284SOL    HW166911   2.624   0.324   7.952 -0.5505 -0.2445  0.0963
18284SOL    HW266912   2.487   0.244   7.989 -0.9388  0.4435  0.1610
18285SOL     OW66913   1.109   4.784   9.440  0.2381 -0.1462  0.4869
18285SOL    HW166914   1.160   4.767   9.355  2.4822  0.1325  1.7276
18285SOL    HW266915   1.097   4.698   9.489  0.0191 -0.1307  0.4573
18286SOL     OW66916   3.916   1.911   5.639 -0.0619  0.3969 -0.1894
18286SOL    HW166917   3.917   1.848   5.717  0.7193 -0.0098 -0.5292
18286SOL    HW266918   3.828   1.958   5.636 -0.4131 -0.2095  0.4406
18287SOL     OW66919   1.306   6.028   4.401 -0.0199 -0.2197 -0.2702
18287SOL    HW166920   1.293   6.052   4.305  1.1827  0.0952 -0.3615
18287SOL    HW266921   1.220   6.042   4.451 -1.7276 -3.8341 -2.0048
18288SOL     OW66922   3.091   1.039   6.993  0.0145  0.1778 -0.4522
18288SOL    HW166923   3.125   1.054   7.086  1.0344  1.3021 -0.9994
18288SOL    HW266924   3.166   1.008   6.935 -0.5685 -0.2738 -0.9732
18289SOL     OW66925   1.278   0.959   2.010 -0.0320  0.2839 -0.1868
18289SOL    HW166926   1.309   0.977   2.104  0.5539 -0.6085 -0.1980
18289SOL    HW266927   1.283   1.043   1.956  0.7184  0.5491  0.2868
18290SOL     OW66928   4.559   1.464   1.447 -0.2639 -0.0305 -0.1207
18290SOL    HW166929   4.633   1.510   1.398 -1.0201  1.5228  0.1762
18290SOL    HW266930   4.471   1.499   1.415 -0.7865  0.3347  1.6887
18291SOL     OW66931   9.232   1.867   9.229 -0.3184 -1.0590  0.5019
18291SOL    HW166932   9.190   1.827   9.311 -0.0521 -2.7072 -0.1352
18291SOL    HW266933   9.300   1.803   9.192  2.0763  1.1386  0.9481
18292SOL     OW66934   5.155   4.597   1.295 -0.0742 -0.5410  0.3008
18292SOL    HW166935   5.164   4.652   1.378 -0.7424  0.4989 -0.2997
18292SOL    HW266936   5.153   4.500   1.319  1.7806 -0.3589  1.3337
18293SOL     OW66937   5.033   8.121   5.854  0.0669 -0.0300  0.2599
18293SOL    HW166938   5.078   8.071   5.928 -0.7661 -0.6710  0.3286
18293SOL    HW266939   4.992   8.057   5.790  0.5890  0.5318 -0.6406
18294SOL     OW66940   0.864   3.533   6.105 -0.2707  0.4718  0.1985
18294SOL    HW166941   0.942   3.489   6.151 -0.7134  1.1794  1.6394
18294SOL    HW266942   0.784   3.473   6.111 -0.5717  0.9576  1.1729
18295SOL     OW66943   0.700   6.160   5.303 -0.0767 -0.5849  0.4817
18295SOL    HW166944   0.643   6.089   5.342 -0.4011 -1.2750 -1.1852
18295SOL    HW266945   0.659   6.192   5.217  0.8679  0.5174  0.4264
18296SOL     OW66946   2.499   3.912   3.487 -0.3087 -0.1522  0.0636
18296SOL    HW166947   2.525   3.993   3.540  0.6441 -0.0488 -0.5431
18296SOL    HW266948   2.400   3.903   3.487 -0.4328  1.0620  0.0900
18297SOL     OW66949   2.573   6.843   8.633  1.2297 -0.5754  0.3340
18297SOL    HW166950   2.607   6.847   8.539 -1.2788  2.5868 -0.5227
18297SOL    HW266951   2.500   6.774   8.639 -1.3369  1.8905 -1.0920
18298SOL     OW66952   2.990   9.305   1.981  0.1649  0.6139 -0.4454
18298SOL    HW166953   3.037   9.220   1.955  0.6350  0.5583  0.5728
18298SOL    HW266954   2.950   9.295   2.072  0.1970  1.4708 -0.3343
18299SOL     OW66955   2.473   9.523   7.743  0.3737  0.3310  0.1297
18299SOL    HW166956   2.545   9.570   7.795 -0.3889  0.7546  0.8204
18299SOL    HW266957   2.482   9.424   7.755 -0.4509  0.4523  2.0046
18300SOL     OW66958   1.164   9.519   0.259 -1.0205 -0.1471 -0.4934
18300SOL    HW166959   1.119   9.454   0.320 -1.4497 -0.0641 -0.7214
18300SOL    HW266960   1.097   9.560   0.198 -0.5866 -0.2475 -1.0458
18301SOL     OW66961   8.046   4.933   0.930 -0.2408  0.8262  0.2430
18301SOL    HW166962   8.116   4.879   0.884 -0.4795  0.8946 -0.2053
18301SOL    HW266963   8.078   4.958   1.021 -0.8634 -1.6284  1.1738
18302SOL     OW66964   5.963   5.393   8.810  0.0901 -0.3977 -0.5875
18302SOL    HW166965   6.063   5.383   8.817 -0.0746 -1.2850  0.7303
18302SOL    HW266966   5.928   5.335   8.737  0.6130  0.5059 -1.5791
18303SOL     OW66967   6.445   6.552   1.109 -0.3103 -0.1066 -0.8393
18303SOL    HW166968   6.534   6.543   1.155 -0.3501  0.4339 -0.6620
18303SOL    HW266969   6.459   6.583   1.015 -0.2972 -0.2429 -0.8827
18304SOL     OW66970   9.465   3.852   6.576  0.3649  0.0853 -0.1785
18304SOL    HW166971   9.388   3.789   6.577  0.9989 -0.7556 -2.2621
18304SOL    HW266972   9.439   3.938   6.620 -0.4757 -1.6102  2.7593
18305SOL     OW66973   4.253   5.954   4.559  0.2225  0.2407 -0.0856
18305SOL    HW166974   4.279   5.879   4.498 -2.5466  0.6586 -1.8597
18305SOL    HW266975   4.195   5.919   4.632  1.2419  0.2037  0.7109
18306SOL     OW66976   7.952   0.875   2.122  0.4157 -0.2326 -0.4174
18306SOL    HW166977   7.909   0.792   2.086 -3.9773  1.4203  0.6639
18306SOL    HW266978   8.002   0.921   2.048 -0.9339 -1.5093 -2.1815
18307SOL     OW66979   8.398   3.786   5.900  0.3033  0.0158 -0.1125
18307SOL    HW166980   8.472   3.836   5.854  0.5307  0.2580  0.5056
18307SOL    HW266981   8.378   3.830   5.988 -0.5574 -0.0710 -0.2601
18308SOL     OW66982   5.464   9.362   6.035  0.1129  0.3503 -0.1849
18308SOL    HW166983   5.475   9.459   6.015 -3.0213  0.9652  0.8120
18308SOL    HW266984   5.427   9.315   5.955  1.6649 -0.0619 -0.6810
18309SOL     OW66985   0.155   3.928   8.421 -0.2217  0.4422  0.2229
18309SOL    HW166986   0.083   3.969   8.478  0.5377  1.1088  0.7264
18309SOL    HW266987   0.153   3.829   8.431 -0.2915  0.5328  1.1930
18310SOL     OW66988   7.034   9.720   3.412 -0.4438  0.1724 -0.4121
18310SOL    HW166989   7.035   9.622   3.389  0.6982 -0.2445  1.3351
18310SOL    HW266990   7.123   9.760   3.389 -0.8010  0.7477 -0.8143
18311SOL     OW66991   3.876   0.305   6.219  0.3429 -0.1907 -0.4783
18311SOL    HW166992   3.929   0.244   6.279  0.9422 -0.2337 -1.0462
18311SOL    HW266993   3.779   0.301   6.244  0.7820  0.9696  1.5194
18312SOL     OW66994   1.897   4.203   3.640 -0.0170  0.3784  0.3663
18312SOL    HW166995   1.881   4.228   3.544 -1.8023 -0.2770  0.4669
18312SOL    HW266996   1.986   4.237   3.669  0.8349  0.0106 -1.7226
18313SOL     OW66997   8.457   3.909   6.521 -0.0824  0.0013 -0.4609
18313SOL    HW166998   8.368   3.939   6.556  0.2392  1.0083 -0.4771
18313SOL    HW266999   8.476   3.816   6.554 -1.5299 -0.5711 -1.1930
18314SOL     OW67000   8.911   8.892   9.731 -0.4096  0.2742 -0.4233
18314SOL    HW167001   8.922   8.801   9.772 -1.3002  0.7222  0.8627
18314SOL    HW267002   8.834   8.939   9.775  0.0292  1.6466 -1.0860
18315SOL     OW67003   0.971   3.167   2.288  0.5494 -0.1146 -0.3359
18315SOL    HW167004   0.948   3.264   2.294  0.5482 -0.1292 -0.1297
18315SOL    HW267005   0.927   3.128   2.207 -0.9223 -0.3625  0.5684
18316SOL     OW67006   1.009   6.947   4.602  0.0959  0.0831  0.4089
18316SOL    HW167007   1.042   7.042   4.608 -1.0340  0.5209 -0.1476
18316SOL    HW267008   1.035   6.898   4.685  2.6202  0.2558 -0.2550
18317SOL     OW67009   3.520   2.179   3.635 -0.3524 -0.1615 -0.0229
18317SOL    HW167010   3.443   2.192   3.698  0.0550  0.7195  0.2927
18317SOL    HW267011   3.496   2.109   3.567 -1.6434  0.5142 -0.2754
18318SOL     OW67012   9.931   7.304   7.904 -0.4080 -0.7202 -0.8030
18318SOL    HW167013   9.933   7.248   7.821 -0.5161 -0.7257 -0.8018
18318SOL    HW267014  10.017   7.292   7.954 -1.0454 -2.1050  0.0054
18319SOL     OW67015   7.655   7.885   2.190  0.0251  0.0915 -0.2062
18319SOL    HW167016   7.611   7.831   2.261  1.9356 -0.5517  0.5291
18319SOL    HW267017   7.624   7.980   2.196 -1.1401 -0.3135  0.3565
18320SOL     OW67018   1.246   4.029   3.175 -0.2515 -0.3117  0.4427
18320SOL    HW167019   1.291   3.947   3.138  0.5054  0.5900 -0.6732
18320SOL    HW267020   1.231   4.094   3.100 -1.3588  0.3371  1.2250
18321SOL     OW67021   7.760   4.365   1.192 -0.1287  0.3156  0.3384
18321SOL    HW167022   7.711   4.449   1.167  0.7395  0.6165 -0.3704
18321SOL    HW267023   7.694   4.297   1.225 -1.3505 -0.0959 -2.7544
18322SOL     OW67024   9.409   0.161   0.666 -0.3680  0.0534  0.6237
18322SOL    HW167025   9.442   0.245   0.622 -0.0701 -0.1763  0.4097
18322SOL    HW267026   9.336   0.184   0.730 -0.8652  0.3746 -0.0591
18323SOL     OW67027   5.452   8.268   3.268  0.0095 -0.4717  0.2969
18323SOL    HW167028   5.358   8.243   3.246  0.4840 -0.9963 -1.1907
18323SOL    HW267029   5.498   8.190   3.311  0.2639 -0.7765 -0.5293
18324SOL     OW67030   3.807   6.376   2.426 -0.0565 -0.0177  0.0949
18324SOL    HW167031   3.872   6.327   2.483  0.3307  0.8099  0.3805
18324SOL    HW267032   3.856   6.436   2.362 -0.5157  0.0004 -0.2519
18325SOL     OW67033   6.689   9.481   7.762  0.8048 -0.2189  0.0007
18325SOL    HW167034   6.678   9.546   7.836 -1.2407 -1.0123  0.4269
18325SOL    HW267035   6.727   9.395   7.798  0.4966 -0.3524  0.0121
18326SOL     OW67036   3.621   2.777   9.242  0.2367 -0.3260  0.0876
18326SOL    HW167037   3.689   2.743   9.178 -1.2564 -1.7506 -0.7801
18326SOL    HW267038   3.604   2.874   9.225  0.7956 -0.3829 -0.8033
18327SOL     OW67039   0.468   3.553   1.205  0.2375 -0.0423  0.1112
18327SOL    HW167040   0.442   3.585   1.296 -1.5629 -1.6456  0.1855
18327SOL    HW267041   0.472   3.453   1.204 -0.7499 -0.0868 -1.8301
18328SOL     OW67042   9.827   1.649   8.185  0.6288  0.1819 -0.0926
18328SOL    HW167043   9.907   1.656   8.245  1.0302  0.3147 -0.6349
18328SOL    HW267044   9.762   1.584   8.223  1.4353 -0.6688 -0.1404
18329SOL     OW67045   9.383   9.227   0.310  0.0785 -0.0145 -0.1297
18329SOL    HW167046   9.386   9.295   0.384  1.3188 -0.4295  0.2088
18329SOL    HW267047   9.312   9.253   0.244  1.0147  1.9812 -0.3635
18330SOL     OW67048   3.747   4.040   7.353  0.5318 -0.5666  0.1651
18330SOL    HW167049   3.653   4.067   7.333  0.9250 -0.7636 -2.1532
18330SOL    HW267050   3.776   4.080   7.439 -0.6218  2.0872 -0.6332
18331SOL     OW67051   2.202   3.305   1.840 -0.2594 -0.0708  0.3807
18331SOL    HW167052   2.201   3.390   1.787 -1.3560 -0.9402 -1.0156
18331SOL    HW267053   2.287   3.256   1.824  0.1446  0.5005  0.7721
18332SOL     OW67054   1.033   9.270   2.244 -0.0234  0.2075  0.1123
18332SOL    HW167055   1.013   9.177   2.214 -0.2716  0.5624 -0.8371
18332SOL    HW267056   1.119   9.271   2.294  1.3663 -0.0964 -2.1963
18333SOL     OW67057   7.162   8.980   3.604 -0.5401  0.0297 -0.3803
18333SOL    HW167058   7.204   8.895   3.573 -1.3260 -0.0040 -1.3839
18333SOL    HW267059   7.163   8.984   3.704 -1.2307 -1.5337 -0.3057
18334SOL     OW67060   7.499   6.298   4.458  0.9981  0.0037 -0.4123
18334SOL    HW167061   7.479   6.242   4.538  2.0119  0.1353 -0.0733
18334SOL    HW267062   7.436   6.273   4.384  0.6301 -0.7081  0.1371
18335SOL     OW67063   4.411   8.764   5.892 -0.1551 -0.2892 -0.0220
18335SOL    HW167064   4.377   8.768   5.986 -1.5463  0.8139 -0.5419
18335SOL    HW267065   4.335   8.745   5.830  0.6848 -0.6299 -0.9565
18336SOL     OW67066   5.404   1.887   4.618 -0.5479  0.0397 -0.5935
18336SOL    HW167067   5.387   1.878   4.716 -2.0958 -0.9806 -0.9441
18336SOL    HW267068   5.378   1.802   4.571 -0.9853  0.9507 -2.0391
18337SOL     OW67069   4.454   3.802   1.700  0.0537  0.1026  0.0554
18337SOL    HW167070   4.478   3.898   1.719  1.9664 -0.0695 -1.3167
18337SOL    HW267071   4.355   3.792   1.699 -0.2384  1.0975  4.9314
18338SOL     OW67072   7.124   7.877   8.706 -0.0415  0.3131 -0.5588
18338SOL    HW167073   7.144   7.851   8.611 -2.5275 -2.0504 -0.4883
18338SOL    HW267074   7.033   7.918   8.711  0.6439  1.7538  0.6244
18339SOL     OW67075   1.182   5.110   3.889 -0.1824  0.0899 -0.0967
18339SOL    HW167076   1.116   5.047   3.849 -0.1417  1.0741 -1.7743
18339SOL    HW267077   1.137   5.196   3.912  0.1711  0.1631  0.3472
18340SOL     OW67078   9.216   7.642   7.045 -0.1337 -0.2278 -0.6701
18340SOL    HW167079   9.216   7.549   7.082  1.3115  0.1179  0.2366
18340SOL    HW267080   9.276   7.645   6.964 -2.1594 -0.6493 -2.2304
18341SOL     OW67081   1.032   5.335   5.542 -0.3673  0.3828  0.3176
18341SOL    HW167082   1.015   5.262   5.608 -0.0629  0.8128  0.8771
18341SOL    HW267083   0.991   5.311   5.454 -0.5050 -0.3351  0.5773
18342SOL     OW67084   5.694   5.381   7.554  0.4368 -0.2800  0.1429
18342SOL    HW167085   5.666   5.288   7.535 -2.7996  0.9779 -1.5955
18342SOL    HW267086   5.663   5.407   7.646 -1.2196 -0.0105 -0.4739
18343SOL     OW67087   9.408   7.032   1.942 -0.2542  0.2656 -0.5349
18343SOL    HW167088   9.435   6.941   1.973 -0.6570 -0.2234 -1.5856
18343SOL    HW267089   9.317   7.027   1.901 -0.1077  1.0551 -0.9595
18344SOL     OW67090   4.483   2.273   6.934 -0.0396  0.1071 -0.0861
18344SOL    HW167091   4.567   2.309   6.894 -0.5777  1.1536 -0.2934
18344SOL    HW267092   4.484   2.173   6.930  2.0072  0.0319  1.5643
18345SOL     OW67093   0.729   0.071   9.371  0.1708  0.0477  0.0512
18345SOL    HW167094   0.756   0.167   9.357  0.5041  0.1854  1.5928
18345SOL    HW267095   0.810   0.017   9.392  0.4208 -1.1509 -3.6667
18346SOL     OW67096   8.591   5.258   3.203 -0.2481 -1.0988  0.1524
18346SOL    HW167097   8.689   5.238   3.213  0.2504  1.2658  0.2673
18346SOL    HW267098   8.576   5.309   3.119 -1.7843 -3.7591 -1.2504
18347SOL     OW67099   8.626   0.211   2.336 -0.1811 -0.1815 -0.0148
18347SOL    HW167100   8.646   0.113   2.338 -0.1643 -0.1632  0.8554
18347SOL    HW267101   8.532   0.225   2.305  0.4189 -0.3709 -2.0240
18348SOL     OW67102   1.508   1.827   5.128  0.2058 -0.3747  0.0206
18348SOL    HW167103   1.447   1.750   5.144  1.5260 -1.2997  0.7207
18348SOL    HW267104   1.469   1.909   5.170 -0.6791 -0.8913  0.2236
18349SOL     OW67105   1.549   7.300   3.446  0.5080 -0.1864  0.2117
18349SOL    HW167106   1.614   7.234   3.484 -1.2046 -0.4611  2.7235
18349SOL    HW267107   1.578   7.393   3.471 -0.0470 -0.3041  1.2826
18350SOL     OW67108   3.185   8.140   5.825 -0.2894 -0.2960 -0.2621
18350SOL    HW167109   3.235   8.195   5.758  1.4592 -3.2029 -1.4332
18350SOL    HW267110   3.130   8.072   5.776  0.0779 -1.6754  1.2259
18351SOL     OW67111   3.308   7.679   6.719 -0.0275  0.0613 -0.0541
18351SOL    HW167112   3.265   7.766   6.696 -0.6465 -0.3604 -0.5193
18351SOL    HW267113   3.277   7.649   6.809 -0.8981 -0.3379 -0.4678
18352SOL     OW67114   9.980   6.301   9.182 -0.2779  0.1548 -0.0893
18352SOL    HW167115  10.016   6.213   9.150 -0.7505  0.2984 -1.0362
18352SOL    HW267116  10.056   6.360   9.208  0.2047  0.5400 -2.3037
18353SOL     OW67117   6.931   9.570   6.417 -0.5519 -0.3832 -0.4539
18353SOL    HW167118   6.978   9.644   6.370  0.8802 -0.4491  0.8155
18353SOL    HW267119   6.915   9.495   6.353 -0.2399  0.2345 -1.2644
18354SOL     OW67120   8.342   6.901   7.176  0.4950 -1.1463  0.6680
18354SOL    HW167121   8.366   6.820   7.123  0.7315 -0.5145 -0.2107
18354SOL    HW267122   8.246   6.925   7.158  0.8169 -0.4311 -0.1652
18355SOL     OW67123   7.144   6.098   2.967 -0.0136 -0.2576 -0.2082
18355SOL    HW167124   7.168   6.184   2.923 -0.9551  0.4370  0.6186
18355SOL    HW267125   7.045   6.083   2.961 -0.3510  0.5078  2.8000
18356SOL     OW67126   3.819   2.697   8.207 -0.5692  0.1633 -0.3266
18356SOL    HW167127   3.784   2.604   8.201 -1.7498  0.6547 -1.5814
18356SOL    HW267128   3.744   2.759   8.233  0.3773  0.6645  1.2762
18357SOL     OW67129   9.253   7.988   2.983  0.3054  0.2152 -0.3214
18357SOL    HW167130   9.188   8.063   2.969  0.5477  0.4168 -0.3605
18357SOL    HW267131   9.328   8.019   3.040  0.2814 -0.0696 -0.1321
18358SOL     OW67132   7.519   0.796   3.696 -0.1610  0.2829  0.5134
18358SOL    HW167133   7.610   0.829   3.671 -0.5067  1.3006  0.5502
18358SOL    HW267134   7.467   0.872   3.736 -0.6873 -0.5339  1.3913
18359SOL     OW67135   8.022   1.925   5.903 -0.7225 -0.3491  0.6080
18359SOL    HW167136   8.018   1.968   5.813  2.7266 -0.9788  0.0801
18359SOL    HW267137   8.096   1.966   5.956 -0.9783 -1.8373  2.1548
18360SOL     OW67138   5.050   0.841   7.811 -0.7448 -0.0066  0.0340
18360SOL    HW167139   5.124   0.779   7.785 -0.8470  0.0287 -0.3410
18360SOL    HW267140   4.963   0.802   7.783 -1.0224 -0.9174  2.1233
18361SOL     OW67141   5.256   5.762   0.055 -1.1209  0.3612  0.3162
18361SOL    HW167142   5.277   5.811   0.140 -0.0099  0.1850  0.1567
18361SOL    HW267143   5.337   5.711   0.026 -1.2081  1.1580 -1.3508
18362SOL     OW67144   4.081   7.919   8.373 -1.0710  0.0694  0.0354
18362SOL    HW167145   4.071   7.825   8.340  0.5282 -0.5511  1.2867
18362SOL    HW267146   4.012   7.939   8.441  0.6259 -1.3220  2.2198
18363SOL     OW67147   8.210   5.505   8.130 -0.0440 -0.7301  0.6168
18363SOL    HW167148   8.183   5.422   8.082 -1.3066 -0.5093  0.9313
18363SOL    HW267149   8.290   5.487   8.186  0.9484 -1.2086 -0.9207
18364SOL     OW67150   1.891   5.647   3.881  0.2530  0.4459  0.3933
18364SOL    HW167151   1.823   5.600   3.938 -0.0874  1.4022  0.7933
18364SOL    HW267152   1.866   5.743   3.872  0.0435  0.2007 -1.8070
18365SOL     OW67153   3.855   0.497   2.901  0.3112 -0.0655  0.1606
18365SOL    HW167154   3.817   0.460   2.816  1.0842 -1.8986  0.5798
18365SOL    HW267155   3.948   0.529   2.884  0.3038 -0.0099  0.2239
18366SOL     OW67156   2.281   8.513   3.469  0.2749  0.8299 -0.0710
18366SOL    HW167157   2.345   8.581   3.505  0.0496  0.5528  0.8768
18366SOL    HW267158   2.331   8.429   3.446  0.0490  0.0771  2.0994
18367SOL     OW67159   1.094   3.707   4.791  0.4700  0.0994 -0.0056
18367SOL    HW167160   1.075   3.782   4.727 -0.9749  0.1070  0.4214
18367SOL    HW267161   1.067   3.620   4.750  0.3490  0.0132  0.2590
18368SOL     OW67162   8.470   1.241   3.859 -0.1469  0.2871 -0.7040
18368SOL    HW167163   8.481   1.266   3.763  1.8587  0.1082 -0.5415
18368SOL    HW267164   8.555   1.202   3.893 -0.1594  2.2848  1.7474
18369SOL     OW67165   4.590   6.954   0.925 -0.2763 -0.1957 -0.2980
18369SOL    HW167166   4.530   6.937   0.847  0.7414  1.5208 -1.4907
18369SOL    HW267167   4.609   7.052   0.932 -0.1420 -0.3595  1.9657
18370SOL     OW67168   8.513   4.050   4.323  0.3958  0.1650 -0.1345
18370SOL    HW167169   8.434   4.022   4.377 -0.6837  2.1833 -0.5935
18370SOL    HW267170   8.586   3.982   4.331 -1.5105 -1.8814  0.0341
18371SOL     OW67171   9.738   7.779   8.906 -0.4032  0.5513  0.0501
18371SOL    HW167172   9.669   7.842   8.941 -0.0873  0.7625  0.3004
18371SOL    HW267173   9.823   7.791   8.957  0.3995  1.6368 -1.5185
18372SOL     OW67174   4.564   2.130   1.304 -0.1394  0.4652  0.0991
18372SOL    HW167175   4.540   2.079   1.387 -1.8429  1.3520  0.1819
18372SOL    HW267176   4.502   2.103   1.231  0.0090  1.2184 -0.3040
18373SOL     OW67177   0.981   9.882   5.062 -0.4161 -0.1486  0.0955
18373SOL    HW167178   0.961   9.800   5.009  1.0174  0.3093 -1.1963
18373SOL    HW267179   0.924   9.958   5.030 -1.3076 -0.4724  0.8840
18374SOL     OW67180   0.350   8.450   2.248 -0.2229 -0.1091  0.3740
18374SOL    HW167181   0.276   8.400   2.204 -0.7466  0.3385  0.7313
18374SOL    HW267182   0.397   8.390   2.312 -0.8028 -0.1695  0.7505
18375SOL     OW67183   0.823   6.566   5.079  0.0229 -0.4159  0.4423
18375SOL    HW167184   0.915   6.550   5.117 -0.1836  1.1111  1.6486
18375SOL    HW267185   0.755   6.556   5.152 -0.7581 -1.3372 -0.4049
18376SOL     OW67186   1.786   4.959   7.698 -0.0021  0.8508 -0.9451
18376SOL    HW167187   1.865   4.927   7.645  0.4468  0.5943 -0.1264
18376SOL    HW267188   1.803   5.052   7.730  0.5118  0.3283  0.3138
18377SOL     OW67189   5.355   0.118   5.652  0.5201 -0.2477  0.9053
18377SOL    HW167190   5.354   0.159   5.561 -0.0566 -1.0244  0.5527
18377SOL    HW267191   5.364   0.190   5.721  2.0454  0.2564  0.1971
18378SOL     OW67192   9.701   6.213   5.478  0.2787  0.3957 -0.1329
18378SOL    HW167193   9.622   6.259   5.520  1.6293  1.5892  1.1138
18378SOL    HW267194   9.757   6.170   5.549  1.3520  0.4758 -0.9253
18379SOL     OW67195   7.395   0.587   7.721  0.3997 -0.0204  0.2516
18379SOL    HW167196   7.416   0.505   7.669 -2.8825 -0.1093 -1.0633
18379SOL    HW267197   7.425   0.668   7.670  3.4832 -0.3251  1.4726
18380SOL     OW67198   7.832   8.048   9.757  0.7133 -0.0640 -0.0282
18380SOL    HW167199   7.857   8.111   9.831 -1.6236  2.7143 -1.5096
18380SOL    HW267200   7.850   8.090   9.669 -1.5650 -1.1485 -1.0650
18381SOL     OW67201   4.407   9.446   7.402 -0.2528  0.4845  1.2233
18381SOL    HW167202   4.472   9.396   7.459 -0.7638 -1.5324  0.0797
18381SOL    HW267203   4.456   9.493   7.329  0.1338  0.8118  1.6941
18382SOL     OW67204   6.449   3.783   9.527 -0.3812  0.5487  0.6937
18382SOL    HW167205   6.501   3.705   9.493 -1.3768  0.4751 -0.6921
18382SOL    HW267206   6.409   3.833   9.450 -2.4844  0.5235  1.7351
18383SOL     OW67207   0.106   8.291   0.761  0.7013  0.3229  0.1098
18383SOL    HW167208   0.050   8.237   0.824  0.4814 -1.7697 -1.8086
18383SOL    HW267209   0.203   8.278   0.783  0.6026  0.1896  0.4692
18384SOL     OW67210   3.391   6.090   2.123 -0.1550 -0.3203  1.0490
18384SOL    HW167211   3.312   6.036   2.094 -1.4768  1.5183  1.1630
18384SOL    HW267212   3.360   6.166   2.180  1.6072  0.9569  0.3382
18385SOL     OW67213   0.575   9.732   3.147  0.3590  0.7656 -0.2364
18385SOL    HW167214   0.488   9.739   3.197  0.3821 -0.3971 -0.0191
18385SOL    HW267215   0.567   9.781   3.060 -0.5485  0.5756 -0.2673
18386SOL     OW67216   7.881   1.460   2.248  0.1744 -0.4336  0.1242
18386SOL    HW167217   7.917   1.453   2.341 -0.3670  1.0941  0.4647
18386SOL    HW267218   7.792   1.416   2.243  0.1151 -0.3450  0.3893
18387SOL     OW67219   5.170   7.367   3.014  1.0886  0.5120  0.1643
18387SOL    HW167220   5.201   7.312   2.936 -0.5394 -1.0606  0.5914
18387SOL    HW267221   5.249   7.389   3.072  2.1653  0.8962 -1.3998
18388SOL     OW67222   7.850   4.611   9.577  0.3722 -0.9647 -0.0883
18388SOL    HW167223   7.882   4.646   9.665  0.4795 -2.0414  0.3056
18388SOL    HW267224   7.785   4.676   9.536  2.4859  0.8822 -0.5573
18389SOL     OW67225   4.530   4.333   0.588  0.2320 -0.5151  0.0904
18389SOL    HW167226   4.521   4.395   0.667 -0.7671 -1.7859  0.9838
18389SOL    HW267227   4.625   4.336   0.555  0.8110 -0.4251  1.7209
18390SOL     OW67228   2.120   7.622   6.224 -0.1265 -0.4846 -0.2795
18390SOL    HW167229   2.141   7.651   6.317 -0.9443 -0.5353 -0.0722
18390SOL    HW267230   2.021   7.613   6.214 -0.3093  2.6790 -2.0498
18391SOL     OW67231   4.817   0.909   6.524 -0.0682 -0.4807 -0.4887
18391SOL    HW167232   4.863   0.997   6.508  1.1853 -0.9611  0.4310
18391SOL    HW267233   4.874   0.835   6.488  0.2059 -1.1393  1.2940
18392SOL     OW67234   9.509   9.307   2.039 -0.3596 -0.0016  0.0240
18392SOL    HW167235   9.531   9.210   2.048  1.5940  0.3383 -0.6965
18392SOL    HW267236   9.519   9.352   2.128  3.3584  0.3766 -0.4710
18393SOL     OW67237   2.317   5.539   9.828  0.6881  0.0078  0.4191
18393SOL    HW167238   2.365   5.582   9.904  2.5517  0.5107 -1.0059
18393SOL    HW267239   2.251   5.472   9.863  0.3480  1.4182  2.5055
18394SOL     OW67240   2.929   7.664   3.910  0.4864  0.8017  0.5523
18394SOL    HW167241   2.887   7.664   4.000  0.9478  1.6233  0.7654
18394SOL    HW267242   2.957   7.571   3.886 -0.2739  0.4669  0.9546
18395SOL     OW67243   9.446   8.077   0.850  0.3045 -0.3234  0.0574
18395SOL    HW167244   9.540   8.049   0.830  0.1763  0.0270 -1.0320
18395SOL    HW267245   9.390   8.070   0.768 -0.3036  0.7948  0.3650
18396SOL     OW67246   3.130   3.567   6.866 -0.1634 -0.3797  0.2807
18396SOL    HW167247   3.049   3.508   6.868 -0.2986 -0.1670  1.1470
18396SOL    HW267248   3.129   3.622   6.782 -0.2769 -1.2665 -0.3067
18397SOL     OW67249   9.181   8.804   2.815 -0.0228  0.6174  0.3833
18397SOL    HW167250   9.153   8.808   2.911  1.9059  1.9885  0.9351
18397SOL    HW267251   9.141   8.881   2.765 -0.8139  0.0563  0.1641
18398SOL     OW67252   8.969   5.774   1.277  0.2647  0.0740 -0.3767
18398SOL    HW167253   8.899   5.704   1.294  1.2241 -0.9602 -0.6269
18398SOL    HW267254   8.938   5.834   1.202 -1.1856  0.8179  0.7881
18399SOL     OW67255   2.721   4.201   4.207 -0.1561 -0.2209  0.4001
18399SOL    HW167256   2.691   4.297   4.209 -1.5961 -0.5982 -1.4664
18399SOL    HW267257   2.673   4.149   4.277  0.7155  0.4336  1.4984
18400SOL     OW67258   1.983   7.187   5.538  0.7311 -0.2335 -0.4395
18400SOL    HW167259   1.968   7.178   5.637 -0.1859  1.3250 -0.4203
18400SOL    HW267260   2.077   7.162   5.516  0.9477 -0.5768  0.8200
18401SOL     OW67261   2.155   4.336   8.249  0.0979 -0.2074  0.9185
18401SOL    HW167262   2.194   4.266   8.189  1.7938  0.3975  1.2857
18401SOL    HW267263   2.228   4.397   8.282 -0.8265 -0.3403  3.3502
18402SOL     OW67264   2.662   0.048   7.571 -0.0475  0.1507  0.3787
18402SOL    HW167265   2.627   0.034   7.478 -0.3886  0.4131  0.4655
18402SOL    HW267266   2.757   0.019   7.575 -0.2704 -0.6432  0.1559
18403SOL     OW67267   0.797   1.628   2.355 -0.5811 -0.0828  0.2365
18403SOL    HW167268   0.705   1.622   2.393 -1.0914  0.3093 -0.9133
18403SOL    HW267269   0.834   1.536   2.342 -0.5202 -0.2284  1.3594
18404SOL     OW67270   4.348   3.849   5.784  0.2476 -0.6325  0.7723
18404SOL    HW167271   4.416   3.914   5.818 -1.5179  1.1123  1.0706
18404SOL    HW267272   4.324   3.786   5.857  1.1081 -0.8915  0.8409
18405SOL     OW67273   9.908   1.042   0.814  0.3027  0.0795 -0.1255
18405SOL    HW167274  10.003   1.056   0.842  0.5053  0.6453 -1.0777
18405SOL    HW267275   9.889   1.097   0.733 -0.8546  0.0105  0.0897
18406SOL     OW67276   2.484   1.406   5.915  0.4091 -0.6233 -0.0537
18406SOL    HW167277   2.437   1.458   5.986  0.7999  0.3085 -0.4660
18406SOL    HW267278   2.427   1.404   5.832 -0.0212 -1.6571  0.2670
18407SOL     OW67279   6.383   8.485   6.038 -0.2047 -0.1171 -0.3517
18407SOL    HW167280   6.332   8.421   5.981 -1.8062  0.5617  0.2987
18407SOL    HW267281   6.333   8.503   6.122  0.7354  1.1655 -0.0357
18408SOL     OW67282   1.043   3.182   8.478  0.2129  0.0240  0.6214
18408SOL    HW167283   1.143   3.179   8.486  0.1866 -1.0725  0.6281
18408SOL    HW267284   1.004   3.100   8.520 -0.5290 -0.8438 -1.6905
18409SOL     OW67285   2.410   9.214   3.516 -0.2216 -0.1067  0.3898
18409SOL    HW167286   2.448   9.128   3.483 -0.9159  0.5103 -2.1264
18409SOL    HW267287   2.408   9.213   3.616  1.3789 -2.2929  0.4470
18410SOL     OW67288   4.960   1.884   0.610 -0.2368  0.6887  0.2126
18410SOL    HW167289   5.045   1.834   0.624 -1.1142 -0.5631  1.1806
18410SOL    HW267290   4.951   1.910   0.514  0.8192  0.0833 -0.0516
18411SOL     OW67291   8.346   5.548   4.331  0.2513 -0.0307 -0.2775
18411SOL    HW167292   8.251   5.571   4.356  0.4736  0.6956 -0.0854
18411SOL    HW267293   8.346   5.486   4.253 -0.4005 -0.3861  0.0036
18412SOL     OW67294   1.689   6.151   6.603 -0.2214  0.2396 -0.1593
18412SOL    HW167295   1.779   6.166   6.643  0.5163 -0.0702 -1.6609
18412SOL    HW267296   1.634   6.094   6.664  0.4052  0.8789  1.0122
18413SOL     OW67297   0.189   0.155   3.663  0.4491 -0.1270 -0.4319
18413SOL    HW167298   0.142   0.209   3.593 -0.3406 -1.3714 -0.8786
18413SOL    HW267299   0.137   0.158   3.748  2.1961  2.6488  0.5963
18414SOL     OW67300   0.887   0.475   3.483  0.2155 -0.1677  0.0117
18414SOL    HW167301   0.980   0.510   3.496  0.6860 -0.6373 -1.9254
18414SOL    HW267302   0.891   0.388   3.433 -1.3442  0.6292 -1.5650
18415SOL     OW67303   1.043   0.511   5.895  0.0905  0.3629 -0.5528
18415SOL    HW167304   1.005   0.564   5.819 -0.2619 -1.1973 -1.4858
18415SOL    HW267305   0.985   0.522   5.976 -0.0458  1.2996 -0.7759
18416SOL     OW67306   0.992   4.751   3.572  0.1376 -0.6099 -0.2160
18416SOL    HW167307   0.906   4.708   3.544  0.7327 -2.7216  1.0985
18416SOL    HW267308   1.069   4.700   3.533  0.8453  0.2460  0.0366
18417SOL     OW67309   7.423   8.355   7.292  0.2668  0.5050 -0.0703
18417SOL    HW167310   7.439   8.294   7.215  2.1225  0.2385  0.4894
18417SOL    HW267311   7.420   8.450   7.260 -1.1432  0.2320 -0.7442
18418SOL     OW67312   2.867   5.120   2.978  0.0876 -0.3163  0.3059
18418SOL    HW167313   2.871   5.150   2.883  0.3183  0.4923  0.5675
18418SOL    HW267314   2.780   5.150   3.019  0.8562  1.1098  0.9287
18419SOL     OW67315   7.772   1.376   1.045  0.2759  0.3011  0.5073
18419SOL    HW167316   7.787   1.277   1.053 -0.2222  0.2720  1.1639
18419SOL    HW267317   7.711   1.406   1.118  1.4398  1.3154  1.0799
18420SOL     OW67318   1.599   1.107   0.303 -0.2912  0.1897  0.3130
18420SOL    HW167319   1.680   1.139   0.253  0.2676 -1.3413  0.1907
18420SOL    HW267320   1.526   1.174   0.296  0.5805  1.0517 -0.5887
18421SOL     OW67321   7.750   8.306   4.482 -0.3163  0.4127 -0.2713
18421SOL    HW167322   7.663   8.335   4.443  0.2345  1.7875 -0.5429
18421SOL    HW267323   7.763   8.351   4.571  0.8106  1.4664 -0.9510
18422SOL     OW67324   0.141   6.737   7.594 -0.4807 -0.6646  0.0961
18422SOL    HW167325   0.127   6.658   7.534  0.6471 -1.5802  1.0227
18422SOL    HW267326   0.216   6.718   7.657  0.2641  1.4279 -0.1252
18423SOL     OW67327   3.660   9.168   6.364  0.2162 -0.9038  0.2408
18423SOL    HW167328   3.633   9.082   6.320 -0.9172 -0.6683  0.4410
18423SOL    HW267329   3.586   9.199   6.424  0.1980  0.7252 -0.6035
18424SOL     OW67330   8.378   8.347   6.584 -0.2039  0.8195  0.0756
18424SOL    HW167331   8.331   8.418   6.530  0.6072  2.1696  1.1162
18424SOL    HW267332   8.312   8.305   6.647 -0.9962 -0.2961 -1.4496
18425SOL     OW67333   8.547   1.900   4.256  0.5654 -0.5146 -0.8330
18425SOL    HW167334   8.600   1.976   4.219 -0.6909  0.6395 -0.2728
18425SOL    HW267335   8.462   1.890   4.205 -0.7872  0.5437  1.1382
18426SOL     OW67336   4.805   6.150   1.980 -0.2628 -0.2600 -0.3759
18426SOL    HW167337   4.859   6.205   2.043  0.8383  0.0346 -1.5601
18426SOL    HW267338   4.834   6.167   1.886 -1.9394 -0.6298 -0.9925
18427SOL     OW67339   0.077   0.015   0.486  0.0878  0.7366 -0.3155
18427SOL    HW167340   0.030   0.099   0.457  1.4328  1.3145 -0.8827
18427SOL    HW267341   0.070  -0.054   0.414 -0.2528  0.6756 -0.2240
18428SOL     OW67342   9.441   8.210   3.496  0.1247 -0.6845 -0.7735
18428SOL    HW167343   9.381   8.159   3.434 -0.0601 -0.5477 -0.7075
18428SOL    HW267344   9.535   8.176   3.487  0.2507 -0.0893 -1.7558
18429SOL     OW67345   9.894   2.444   5.457 -0.4262  0.0596  0.6477
18429SOL    HW167346   9.930   2.526   5.412  0.8639  1.0167  3.3001
18429SOL    HW267347   9.812   2.468   5.509 -0.0523 -0.3263  1.4241
18430SOL     OW67348   1.627   9.616   3.353 -0.2948  0.6488  0.1173
18430SOL    HW167349   1.715   9.648   3.388  0.5434  0.8001 -2.0377
18430SOL    HW267350   1.556   9.682   3.378  0.5869  1.6828 -0.0474
18431SOL     OW67351   2.029   2.076   6.225  0.2542  0.1087 -0.0869
18431SOL    HW167352   1.989   2.155   6.181  2.1122  1.2475  0.2070
18431SOL    HW267353   2.093   2.032   6.163  0.8084  0.0892  0.4924
18432SOL     OW67354   6.058   0.903   6.061  0.1895 -0.3513 -0.2102
18432SOL    HW167355   5.962   0.932   6.056  0.5445  0.8351 -0.3320
18432SOL    HW267356   6.101   0.916   5.972  0.3477 -1.3095 -0.2765
18433SOL     OW67357   6.094   4.363   9.284  0.3699  0.7499 -0.3854
18433SOL    HW167358   6.089   4.401   9.377 -0.1050 -1.6040  0.6013
18433SOL    HW267359   6.007   4.376   9.238  0.1209  0.6032  0.0406
18434SOL     OW67360   0.041   1.285   6.026 -0.1367 -0.1648  0.1456
18434SOL    HW167361   0.047   1.385   6.027 -0.7687 -0.1247 -0.3139
18434SOL    HW267362  -0.033   1.255   6.087 -1.6763 -0.2278 -1.7277
18435SOL     OW67363   8.832   4.316   0.650  0.1535 -0.5638  0.0348
18435SOL    HW167364   8.897   4.282   0.717  0.3009 -0.3863 -0.0172
18435SOL    HW267365   8.834   4.416   0.650  0.2477 -0.5664 -0.3266
18436SOL     OW67366   1.023   4.222   4.850  0.7092  0.0342  0.3968
18436SOL    HW167367   0.930   4.254   4.828  0.6100 -0.6498 -0.1847
18436SOL    HW267368   1.017   4.144   4.912  0.9490  1.0083  1.6641
18437SOL     OW67369   8.164   9.717   1.970 -0.0289 -0.3258  0.7213
18437SOL    HW167370   8.100   9.722   2.046 -2.5511 -0.5030 -1.3393
18437SOL    HW267371   8.214   9.803   1.963 -0.0500 -0.1580  2.2849
18438SOL     OW67372   3.430   5.183   4.366  0.2496  0.0517  0.0793
18438SOL    HW167373   3.380   5.154   4.447 -0.0331  1.1677  0.3147
18438SOL    HW267374   3.522   5.212   4.393  0.5513 -0.6721 -0.1621
18439SOL     OW67375   2.550   5.092   2.202 -0.0854  0.2094  0.1171
18439SOL    HW167376   2.461   5.132   2.227 -0.7125 -0.2761 -1.2985
18439SOL    HW267377   2.622   5.136   2.255 -1.0745  1.2258  0.6441
18440SOL     OW67378   9.116   3.344   9.193  0.5291 -0.1021  0.3745
18440SOL    HW167379   9.174   3.386   9.262  1.1800  0.0470 -0.2576
18440SOL    HW267380   9.022   3.337   9.228  0.9298 -0.3758  1.4004
18441SOL     OW67381   4.103   7.930   0.554  0.5044  0.1800  0.0367
18441SOL    HW167382   4.088   7.918   0.652  0.1673 -1.3134 -0.1686
18441SOL    HW267383   4.067   8.018   0.525 -1.4188 -0.2833  0.8842
18442SOL     OW67384   9.427   6.582   6.176  0.4139  0.2292 -0.1991
18442SOL    HW167385   9.338   6.541   6.198  0.1772  0.1364 -1.3066
18442SOL    HW267386   9.438   6.666   6.229 -0.4412  0.3748 -0.2335
18443SOL     OW67387   8.836   7.333   3.784  0.6046  0.1183  0.1856
18443SOL    HW167388   8.757   7.289   3.741  0.1060 -0.1359  1.3474
18443SOL    HW267389   8.896   7.263   3.822  0.1543  0.4041  1.4393
18444SOL     OW67390   1.390   0.752   3.033 -0.1014 -0.0366 -0.4012
18444SOL    HW167391   1.318   0.789   2.973 -0.4515  0.9849  0.6179
18444SOL    HW267392   1.479   0.768   2.991 -0.2709  1.6801 -0.1533
18445SOL     OW67393   1.637   4.576   7.539  0.1759  0.0481  0.4403
18445SOL    HW167394   1.654   4.568   7.441  0.5586  0.0938  0.5038
18445SOL    HW267395   1.632   4.673   7.564  0.1857  0.0366  0.4849
18446SOL     OW67396   2.338   7.348   0.520  0.1482  0.7818 -0.7257
18446SOL    HW167397   2.395   7.374   0.598  0.8067  0.1018 -0.9682
18446SOL    HW267398   2.358   7.409   0.443  0.0987  0.9381 -0.6146
18447SOL     OW67399   2.588   5.703   1.553 -0.1299 -0.2655 -0.0375
18447SOL    HW167400   2.602   5.680   1.456 -1.4740 -2.7957  0.3312
18447SOL    HW267401   2.507   5.761   1.562 -1.4000 -1.9899 -0.2097
18448SOL     OW67402   7.627   9.104   6.049  0.6196  0.2397 -0.0284
18448SOL    HW167403   7.692   9.138   6.117 -0.3296 -0.1230  1.0701
18448SOL    HW267404   7.661   9.018   6.011  0.7795  0.0387  0.5610
18449SOL     OW67405   0.196   1.877   5.021 -0.3887  0.5865  0.2389
18449SOL    HW167406   0.117   1.851   4.966 -0.9482  1.1905  0.7547
18449SOL    HW267407   0.177   1.857   5.117  0.0103  0.9208  0.3869
18450SOL     OW67408   8.635   2.076   8.048 -0.8873 -0.3724 -0.1957
18450SOL    HW167409   8.722   2.057   8.093 -1.0778  1.1080  0.8542
18450SOL    HW267410   8.600   1.993   8.005  1.8929 -0.5959 -2.1469
18451SOL     OW67411   4.258   3.062   5.179  0.1351  0.2660 -0.1363
18451SOL    HW167412   4.340   3.080   5.233 -0.3787  1.1513  0.3532
18451SOL    HW267413   4.250   2.963   5.162 -0.1872 -0.1456  2.2002
18452SOL     OW67414   0.639   7.599   8.352  0.3734 -0.1544 -0.0383
18452SOL    HW167415   0.554   7.556   8.323 -0.0087  1.9580 -2.1672
18452SOL    HW267416   0.692   7.627   8.272  1.8340  0.9604  1.2746
18453SOL     OW67417   1.668   0.651   1.281 -0.0863  1.1987  0.4111
18453SOL    HW167418   1.617   0.673   1.364  1.0746  0.0113  1.4611
18453SOL    HW267419   1.669   0.552   1.268  1.1529  1.2728 -0.1128
18454SOL     OW67420   9.309   1.280   1.247  0.2892  0.7433 -0.2295
18454SOL    HW167421   9.267   1.318   1.164 -1.4872  1.5156  0.9813
18454SOL    HW267422   9.275   1.187   1.262  0.3336  0.7346 -0.1825
18455SOL     OW67423   8.792   8.072   5.480  0.3395 -0.6838 -0.1983
18455SOL    HW167424   8.727   7.999   5.497  2.2956 -2.8715 -1.8780
18455SOL    HW267425   8.824   8.109   5.567  0.6327 -3.0219  0.7101
18456SOL     OW67426   0.445   5.957   0.098 -0.3139 -0.7266 -0.0933
18456SOL    HW167427   0.421   5.916   0.010  1.5460  0.1073 -0.9950
18456SOL    HW267428   0.536   5.997   0.093 -1.4137  2.0994  1.2588
18457SOL     OW67429   8.781   9.251   2.381 -0.2669  0.4816 -0.0826
18457SOL    HW167430   8.793   9.338   2.429  0.2643 -0.0524  0.7559
18457SOL    HW267431   8.853   9.187   2.408 -1.4079 -0.6629  0.3036
18458SOL     OW67432   0.750   0.908   2.721  0.1930 -0.3888 -0.5734
18458SOL    HW167433   0.668   0.876   2.673 -1.3188  3.4545 -0.7178
18458SOL    HW267434   0.821   0.929   2.653 -0.1493  0.1242 -0.7821
18459SOL     OW67435   8.352   1.001   7.796 -0.4094 -0.1735  0.4172
18459SOL    HW167436   8.308   1.053   7.868 -0.1065  0.1468  0.3709
18459SOL    HW267437   8.439   0.965   7.828  0.4952  1.3346 -0.2963
18460SOL     OW67438   7.145   4.998   1.671  0.2731 -0.2267 -0.1123
18460SOL    HW167439   7.045   5.008   1.668  0.3368  0.3435 -0.3224
18460SOL    HW267440   7.180   5.041   1.754  0.4273  0.3117 -0.4519
18461SOL     OW67441   0.887   3.463   5.152 -0.4749 -0.1113  0.1223
18461SOL    HW167442   0.789   3.444   5.150 -0.8297  1.5323  0.6413
18461SOL    HW267443   0.932   3.402   5.217 -1.1603 -0.7921 -0.0304
18462SOL     OW67444   0.313   8.028   9.633  0.1812  0.3090 -0.1786
18462SOL    HW167445   0.286   8.011   9.538  0.3403 -2.1322  0.1893
18462SOL    HW267446   0.366   7.950   9.667  1.0038  1.6113  1.5969
18463SOL     OW67447   7.461   0.296   8.698 -0.2262  0.7476 -0.7102
18463SOL    HW167448   7.539   0.234   8.712 -0.9120 -0.3209 -1.5930
18463SOL    HW267449   7.419   0.316   8.787  1.2848  1.6557 -0.1707
18464SOL     OW67450   0.635   4.889   9.132 -0.4173  0.1141  0.0952
18464SOL    HW167451   0.646   4.972   9.186 -0.1773 -1.0780  1.9332
18464SOL    HW267452   0.711   4.827   9.150 -0.8791 -0.7392 -0.8288
18465SOL     OW67453   7.885   5.983   4.128  0.1534  0.2724 -0.6101
18465SOL    HW167454   7.791   6.018   4.136 -0.2414 -1.1427  1.1447
18465SOL    HW267455   7.949   6.057   4.148 -0.6217  0.7928 -0.0035
18466SOL     OW67456   9.305   4.927   2.522  0.5078 -0.0813 -0.0412
18466SOL    HW167457   9.227   4.866   2.536  1.7177 -1.8256 -0.7521
18466SOL    HW267458   9.389   4.880   2.549  1.4672  1.2569 -0.6509
18467SOL     OW67459   0.397   4.482   0.639 -0.4279  0.7511 -0.0299
18467SOL    HW167460   0.344   4.469   0.723  0.0077 -1.1545 -0.0399
18467SOL    HW267461   0.491   4.506   0.662 -0.0445 -0.8045  0.0458
18468SOL     OW67462   0.202   5.176   6.661  0.4985  0.0726  0.4959
18468SOL    HW167463   0.288   5.180   6.610  0.4661 -0.1911  0.4213
18468SOL    HW267464   0.210   5.107   6.733  0.6597  0.6735  1.0563
18469SOL     OW67465   5.088   3.143   9.368 -0.0106 -0.0891 -0.2878
18469SOL    HW167466   5.012   3.205   9.349  0.2490  0.3437  0.0828
18469SOL    HW267467   5.095   3.076   9.294 -0.3657  0.2528 -0.6344
18470SOL     OW67468   6.529   5.175   9.063  0.1659 -0.1860  0.0571
18470SOL    HW167469   6.505   5.134   8.975 -0.3680  0.5634 -0.1416
18470SOL    HW267470   6.625   5.202   9.062  0.1629 -0.1894 -0.2862
18471SOL     OW67471   8.166   8.413   9.382  0.2986 -0.0839 -0.2039
18471SOL    HW167472   8.112   8.414   9.298  0.2696 -1.6155 -0.2264
18471SOL    HW267473   8.237   8.342   9.375 -0.1125 -0.6632  1.2958
18472SOL     OW67474   9.202   3.936   3.555  0.2721 -0.2568  1.0553
18472SOL    HW167475   9.151   3.857   3.589  0.4449 -0.0066  1.9078
18472SOL    HW267476   9.282   3.905   3.504 -0.2961 -0.6416  0.3770
18473SOL     OW67477   6.425   3.793   1.906  0.1690  0.3039  0.8229
18473SOL    HW167478   6.395   3.871   1.961 -1.5147  1.2025 -1.2972
18473SOL    HW267479   6.357   3.720   1.912 -0.5908  0.8362 -0.8853
18474SOL     OW67480   5.609   2.672   2.682 -0.4622  0.2443 -0.1925
18474SOL    HW167481   5.669   2.732   2.735 -0.9414  0.0133  0.6299
18474SOL    HW267482   5.514   2.697   2.700 -0.6649 -0.8123  0.2220
18475SOL     OW67483   6.771   7.767   7.219  0.3306  0.0926 -0.3770
18475SOL    HW167484   6.818   7.788   7.304 -0.4133  2.9676 -0.6198
18475SOL    HW267485   6.681   7.728   7.240 -0.9694  3.2772  0.2668
18476SOL     OW67486   2.629   8.846   0.625 -0.4982 -0.1274  0.2811
18476SOL    HW167487   2.671   8.924   0.672 -0.4362  1.3613 -2.1727
18476SOL    HW267488   2.661   8.761   0.667  1.8993  1.0776  0.9916
18477SOL     OW67489   7.357   2.858   1.373 -0.1059  0.2173 -0.6575
18477SOL    HW167490   7.450   2.878   1.404  0.0619 -0.3103 -0.8256
18477SOL    HW267491   7.334   2.763   1.395  0.4341 -0.5405 -3.1806
18478SOL     OW67492   0.070   1.642   9.505  0.0210  0.0806  0.0899
18478SOL    HW167493   0.149   1.602   9.460  1.5718  1.8802  1.1046
18478SOL    HW267494   0.050   1.732   9.465 -2.2063 -0.7996 -0.8753
18479SOL     OW67495   4.009   4.526   6.829  0.1503 -0.1331 -0.1246
18479SOL    HW167496   3.919   4.555   6.860 -0.7096 -1.1137 -1.6236
18479SOL    HW267497   4.076   4.540   6.901 -1.3352 -0.0519  1.2534
18480SOL     OW67498   1.838   9.445   4.357 -0.1238 -0.3057  0.3015
18480SOL    HW167499   1.912   9.503   4.391  0.0787  0.5362 -1.5094
18480SOL    HW267500   1.751   9.495   4.365 -0.1628 -0.3507  0.1464
18481SOL     OW67501   9.171   1.562   0.725  0.0980  0.3672 -0.7583
18481SOL    HW167502   9.252   1.615   0.749 -0.6720  1.2257 -0.0102
18481SOL    HW267503   9.101   1.574   0.795 -0.6269 -0.4728 -1.3257
18482SOL     OW67504   1.853   8.213   7.226  0.3106 -0.1998 -0.1239
18482SOL    HW167505   1.809   8.230   7.315  0.2387  2.0303 -0.5481
18482SOL    HW267506   1.889   8.120   7.224 -3.1475 -1.6506  0.7912
18483SOL     OW67507   7.597   0.736   4.509  0.2513 -0.2190 -0.1381
18483SOL    HW167508   7.562   0.822   4.544  0.2498 -0.2924  0.0406
18483SOL    HW267509   7.694   0.728   4.531  0.1653 -0.4284  0.1654
18484SOL     OW67510   2.642   4.406   1.986  0.0826 -0.0552  0.4479
18484SOL    HW167511   2.679   4.314   1.998 -0.2083 -0.2873 -0.3973
18484SOL    HW267512   2.543   4.402   1.978  0.1844  0.1854 -0.9813
18485SOL     OW67513   8.613   8.735   8.415 -0.3617 -0.2877 -0.2432
18485SOL    HW167514   8.603   8.749   8.513  4.7621  0.8776  0.2416
18485SOL    HW267515   8.596   8.821   8.366  0.6039  0.0278 -0.0332
18486SOL     OW67516   8.525   6.211   3.077  0.4048  0.4169 -0.0389
18486SOL    HW167517   8.555   6.130   3.026 -1.6620 -0.4055  0.0297
18486SOL    HW267518   8.540   6.292   3.022  2.3145 -0.0038 -0.1919
18487SOL     OW67519   4.822   4.900   8.722 -0.8456 -0.0840 -0.2116
18487SOL    HW167520   4.886   4.961   8.676  0.7014  0.1428  2.1986
18487SOL    HW267521   4.866   4.812   8.739 -1.1704  0.0512  1.3997
18488SOL     OW67522   6.365   4.684   1.881  0.0567  0.5255 -0.0962
18488SOL    HW167523   6.364   4.747   1.958 -2.2111  0.5575 -0.1374
18488SOL    HW267524   6.325   4.729   1.801 -0.2507 -0.4845 -0.5139
18489SOL     OW67525   2.683   2.535   6.078  0.3744  0.0480 -0.1897
18489SOL    HW167526   2.594   2.506   6.115  0.0271  0.4764 -0.6879
18489SOL    HW267527   2.745   2.456   6.075 -1.4391 -1.3532 -4.1714
18490SOL     OW67528   1.987   3.221   7.918 -0.3189 -0.1404  0.7997
18490SOL    HW167529   2.081   3.209   7.887 -0.5444 -0.5312  0.2604
18490SOL    HW267530   1.927   3.237   7.840 -1.5490 -5.2909  0.4467
18491SOL     OW67531   7.891   0.401   5.829 -0.1875  0.3838  0.5296
18491SOL    HW167532   7.889   0.488   5.878 -0.4429  0.3939  0.5036
18491SOL    HW267533   7.960   0.341   5.870 -0.1746  0.5122  0.6962
18492SOL     OW67534   2.097   8.897   5.258 -0.2588  0.1297 -0.1611
18492SOL    HW167535   2.007   8.939   5.268  0.3549  1.5018 -0.3341
18492SOL    HW267536   2.107   8.863   5.164 -1.6252 -2.4886  0.5918
18493SOL     OW67537   5.899   5.184   0.326  0.0719 -0.7074 -0.4977
18493SOL    HW167538   5.912   5.272   0.371 -0.1390  0.5549 -2.8370
18493SOL    HW267539   5.816   5.140   0.361 -0.3080  0.4374  0.0407
18494SOL     OW67540   9.877   3.440   0.576  0.3256  0.2367  0.2733
18494SOL    HW167541   9.966   3.411   0.541  0.1774 -1.7958  1.4802
18494SOL    HW267542   9.809   3.435   0.503  0.8171 -0.1034 -0.1632
18495SOL     OW67543   9.833   1.027   9.585  0.5115 -0.1475  0.2142
18495SOL    HW167544   9.884   0.947   9.554 -0.6706 -1.4929  1.6618
18495SOL    HW267545   9.889   1.109   9.573  0.8329 -0.8426 -3.5885
18496SOL     OW67546   4.151   5.275   1.583  0.0675 -0.4694 -0.9718
18496SOL    HW167547   4.224   5.324   1.630  1.2148 -2.3104 -0.8010
18496SOL    HW267548   4.190   5.201   1.529 -1.6450 -1.2618 -1.1440
18497SOL     OW67549   8.611   2.880   2.899  0.1894  0.2503 -0.1848
18497SOL    HW167550   8.634   2.939   2.977  3.1606 -1.4792  0.3169
18497SOL    HW267551   8.541   2.814   2.928  0.5592  0.2491  0.7424
18498SOL     OW67552   0.955   7.253   5.673 -0.4998  0.3616  0.8157
18498SOL    HW167553   0.969   7.336   5.726 -0.0943  0.1922  0.9745
18498SOL    HW267554   0.941   7.176   5.735 -0.5227  0.2515  0.6740
18499SOL     OW67555   6.045   1.400   0.818  0.0713 -0.4844 -0.3552
18499SOL    HW167556   5.993   1.421   0.736 -0.5571  0.5212  0.2885
18499SOL    HW267557   6.019   1.463   0.891  2.1850  0.0205 -0.0115
18500SOL     OW67558   2.151   1.813   0.419  0.0335  0.3535 -0.3897
18500SOL    HW167559   2.055   1.794   0.398  0.3285 -1.5081 -0.1462
18500SOL    HW267560   2.209   1.759   0.358  0.8961 -0.9994  1.5874
18501SOL     OW67561   8.185   7.562   0.393  0.3546 -0.1721  0.2556
18501SOL    HW167562   8.257   7.630   0.410  0.0025  0.1178  0.6031
18501SOL    HW267563   8.227   7.477   0.361  0.9816 -0.4151  1.6422
18502SOL     OW67564   0.146   1.891   0.146 -0.1420  0.0666 -0.1893
18502SOL    HW167565   0.075   1.828   0.177 -1.7943 -1.5215 -6.5425
18502SOL    HW267566   0.105   1.981   0.128  0.5608  0.6383  0.9969
18503SOL     OW67567   2.298   9.298   3.864 -0.4169 -0.3289 -0.7515
18503SOL    HW167568   2.359   9.342   3.929 -1.9069  0.8916 -0.1446
18503SOL    HW267569   2.291   9.200   3.885  0.5946 -0.2995 -0.2699
18504SOL     OW67570   5.083   1.411   9.096  0.5622  0.5708 -0.2678
18504SOL    HW167571   5.054   1.415   9.001  1.1853 -0.0172 -0.4902
18504SOL    HW267572   5.176   1.374   9.101  0.4521  0.3934  0.5787
18505SOL     OW67573   1.909   6.484   2.065  0.1482  0.5396 -0.7965
18505SOL    HW167574   1.823   6.452   2.024 -0.3854  0.9751 -0.0291
18505SOL    HW267575   1.905   6.584   2.077  0.0178  0.3407  0.9414
18506SOL     OW67576   0.641   5.269   8.726  0.2690  0.3901 -1.0949
18506SOL    HW167577   0.544   5.256   8.748  0.3390 -0.4220 -1.2314
18506SOL    HW267578   0.684   5.325   8.797 -0.0047 -0.3593 -0.3208
18507SOL     OW67579   3.742   5.703   4.903  0.2766 -0.1889  0.4450
18507SOL    HW167580   3.651   5.731   4.933  0.5485  0.2981  0.8228
18507SOL    HW267581   3.782   5.776   4.847  0.1668 -0.6817 -0.2801
18508SOL     OW67582   2.617   8.354   2.575  0.2019 -0.2795 -0.0135
18508SOL    HW167583   2.555   8.329   2.649 -0.6777 -1.4351 -1.1050
18508SOL    HW267584   2.667   8.437   2.599  0.4598 -1.0284  2.1641
18509SOL     OW67585   8.216   0.537   5.979  0.4232  0.2622  0.5024
18509SOL    HW167586   8.145   0.467   5.977  0.4099  0.2965 -1.1251
18509SOL    HW267587   8.224   0.580   5.889  2.1710  0.6056  0.7828
18510SOL     OW67588   5.519   7.668   6.224  0.3654  0.0879 -0.0258
18510SOL    HW167589   5.586   7.621   6.166  1.5721  1.9568 -0.1677
18510SOL    HW267590   5.566   7.725   6.291 -1.0789  0.2850  0.8590
18511SOL     OW67591   7.474   1.442   7.930 -0.2266  0.3050 -0.0838
18511SOL    HW167592   7.418   1.514   7.972 -0.5165  0.1521 -0.2088
18511SOL    HW267593   7.563   1.438   7.977 -0.6319 -0.0132  0.6664
18512SOL     OW67594   9.194   6.910   4.315 -0.0124  0.2421  0.0183
18512SOL    HW167595   9.193   6.903   4.415  2.3125  1.1964  0.1500
18512SOL    HW267596   9.201   7.006   4.288  1.7671 -0.1267 -0.9648
18513SOL     OW67597   1.233   0.477   6.677  0.0071 -0.0785 -0.4783
18513SOL    HW167598   1.211   0.545   6.608  1.9370  1.1568  0.0810
18513SOL    HW267599   1.314   0.425   6.647 -1.4042 -2.1423 -0.8847
18514SOL     OW67600   2.216   8.244   9.094 -0.5202  0.1312  0.4042
18514SOL    HW167601   2.123   8.222   9.065 -1.3466  0.8335  2.4591
18514SOL    HW267602   2.250   8.320   9.039 -1.0645 -0.2726 -0.5118
18515SOL     OW67603   4.526   5.397   4.026  0.0055 -0.0920 -0.2255
18515SOL    HW167604   4.512   5.299   4.014  0.8887 -0.2349 -0.1258
18515SOL    HW267605   4.445   5.438   4.068 -0.5335 -0.7047 -0.6649
18516SOL     OW67606   2.737   8.675   4.061  0.3981 -0.2027  0.2203
18516SOL    HW167607   2.675   8.614   4.110 -1.0576  0.6042 -0.5906
18516SOL    HW267608   2.821   8.626   4.039  0.4185 -1.0454  2.0965
18517SOL     OW67609   7.452   5.140   3.168  0.1667  0.2510 -0.2322
18517SOL    HW167610   7.385   5.165   3.237  0.8104  0.1482  0.4447
18517SOL    HW267611   7.455   5.210   3.096  0.6435  1.1771  0.6867
18518SOL     OW67612   1.458   3.042   6.934  0.2553  0.3979  0.0078
18518SOL    HW167613   1.417   3.125   6.897  0.1231  0.4652  0.3105
18518SOL    HW267614   1.557   3.043   6.917 -0.0817 -0.5621 -2.2961
18519SOL     OW67615   0.489   0.466   0.749  0.2075 -0.0345  0.4885
18519SOL    HW167616   0.393   0.445   0.767  0.1790 -0.1630  0.1837
18519SOL    HW267617   0.539   0.473   0.836  0.2971 -1.7503  0.5907
18520SOL     OW67618   8.423   4.477   8.962  0.3350 -0.6753 -0.0214
18520SOL    HW167619   8.519   4.468   8.990  0.2570 -0.7558  0.2209
18520SOL    HW267620   8.378   4.546   9.018  0.0390 -1.2188  0.4193
18521SOL     OW67621   5.044   9.906   3.631  0.0786  0.5134 -0.0733
18521SOL    HW167622   4.980   9.885   3.557  0.8320 -1.7007 -0.1413
18521SOL    HW267623   5.098   9.986   3.607 -0.9182  0.8711 -1.1354
18522SOL     OW67624   3.415   2.494   3.775 -0.0683 -0.7530 -0.2371
18522SOL    HW167625   3.358   2.413   3.794 -1.4548 -0.0608 -1.3071
18522SOL    HW267626   3.364   2.576   3.799  1.1797 -0.1598  0.4359
18523SOL     OW67627   3.897   0.889   7.033  0.4923 -0.2486 -0.0335
18523SOL    HW167628   3.883   0.986   7.049  0.0961 -0.3477  0.2198
18523SOL    HW267629   3.981   0.859   7.079  0.8858  0.0766 -0.5293
18524SOL     OW67630   6.777   6.797   4.661 -0.1784  1.0333 -0.0810
18524SOL    HW167631   6.856   6.815   4.720  0.7499 -1.3380 -0.5612
18524SOL    HW267632   6.791   6.843   4.573 -0.3516  2.3816  0.5707
18525SOL     OW67633   4.536   9.491   1.907  0.0185  0.5369 -0.1071
18525SOL    HW167634   4.608   9.423   1.900  0.6877  1.2132  0.1844
18525SOL    HW267635   4.460   9.466   1.847  0.4885 -0.1828 -0.3989
18526SOL     OW67636   1.726   3.501   9.465 -0.4259 -0.7173 -0.2597
18526SOL    HW167637   1.719   3.405   9.436  1.5894 -0.6891 -0.9922
18526SOL    HW267638   1.669   3.558   9.406 -0.6182 -1.3206 -0.6643
18527SOL     OW67639   4.703   8.245   3.782 -0.6155 -0.2980 -0.2643
18527SOL    HW167640   4.782   8.303   3.760  0.5088 -1.9949 -0.8366
18527SOL    HW267641   4.671   8.200   3.698 -1.0229 -1.0335  0.2844
18528SOL     OW67642   2.533   7.777   6.129  0.8351 -0.0299  0.3760
18528SOL    HW167643   2.445   7.822   6.114  0.7654 -0.2552  0.0926
18528SOL    HW267644   2.598   7.842   6.167  0.3257 -0.0626  1.3095
18529SOL     OW67645   1.676   7.533   0.407 -0.2211 -0.6276 -0.0052
18529SOL    HW167646   1.746   7.595   0.441 -0.2142 -0.7846  0.2682
18529SOL    HW267647   1.617   7.504   0.482 -1.2725  0.3749 -0.4178
18530SOL     OW67648   0.557   0.660   6.045  0.1174 -0.1102  0.2654
18530SOL    HW167649   0.481   0.699   6.097  0.6955  1.7369 -0.2170
18530SOL    HW267650   0.625   0.731   6.029  2.1111 -1.8168  0.9667
18531SOL     OW67651   8.378   6.758   6.133  0.1371 -0.5406 -0.2789
18531SOL    HW167652   8.465   6.777   6.179 -1.2610  0.0658  2.1760
18531SOL    HW267653   8.374   6.810   6.048  1.7672  0.1995  0.0645
18532SOL     OW67654   9.455   2.935   6.097  0.2872 -0.3431  0.0669
18532SOL    HW167655   9.380   2.898   6.042 -0.5691 -0.7238  1.4623
18532SOL    HW267656   9.478   2.870   6.171  0.2529  0.9083  1.1993
18533SOL     OW67657   6.472   9.355   4.813 -0.3272 -0.1567 -0.1181
18533SOL    HW167658   6.555   9.369   4.759  1.3397 -2.7643  1.6294
18533SOL    HW267659   6.420   9.440   4.818  2.9927  1.9551 -0.0294
18534SOL     OW67660   8.243   2.706   5.672  0.2812 -0.0796 -0.1977
18534SOL    HW167661   8.307   2.759   5.728  1.1125 -0.3966 -0.8510
18534SOL    HW267662   8.269   2.711   5.576 -0.0014 -1.1556 -0.3407
18535SOL     OW67663   6.810   7.197   7.500 -0.7134  0.2573 -0.1244
18535SOL    HW167664   6.814   7.103   7.466 -0.7409  0.2344 -0.0631
18535SOL    HW267665   6.881   7.252   7.455 -0.9212  0.2898 -0.4185
18536SOL     OW67666   9.512   5.683   9.109  0.1108  0.0078  0.5040
18536SOL    HW167667   9.468   5.719   9.191  0.0800 -1.1800  1.0130
18536SOL    HW267668   9.536   5.587   9.123 -1.0136 -0.5648 -1.3294
18537SOL     OW67669   2.685   7.560   6.037 -0.1069 -0.2030 -0.7556
18537SOL    HW167670   2.634   7.553   5.951 -0.2907  0.6167 -0.7139
18537SOL    HW267671   2.629   7.608   6.105 -0.1548 -1.2693 -0.0237
18538SOL     OW67672   9.192   3.185   7.843 -0.2355 -0.2743  0.4438
18538SOL    HW167673   9.128   3.252   7.806 -0.4969 -1.2563 -0.9471
18538SOL    HW267674   9.163   3.156   7.934 -1.4427 -0.2713  0.0584
18539SOL     OW67675   9.840   3.564   0.805  0.1524 -0.3499  0.7664
18539SOL    HW167676   9.766   3.631   0.794  1.0438  0.7588  1.3943
18539SOL    HW267677   9.857   3.518   0.718 -1.5214 -0.8741  0.7111
18540SOL     OW67678   1.196   4.911   5.466  0.3602 -0.4892  0.0955
18540SOL    HW167679   1.210   4.961   5.552  2.1465  0.3085 -0.6230
18540SOL    HW267680   1.274   4.928   5.405 -0.7925 -1.1979 -1.6142
18541SOL     OW67681   0.231   8.385   4.726  0.3169  0.0613  0.8294
18541SOL    HW167682   0.187   8.295   4.721  0.4866 -0.0303  0.9319
18541SOL    HW267683   0.272   8.396   4.817  0.7588  0.0213  0.6402
18542SOL     OW67684   3.976   9.379   5.201 -0.3254 -0.1691 -0.3703
18542SOL    HW167685   3.986   9.475   5.229  1.5392 -1.0633  2.1884
18542SOL    HW267686   4.012   9.368   5.108  0.9882  1.3097 -0.0604
18543SOL     OW67687   1.148   4.603   1.209 -0.3009 -0.1878  0.0410
18543SOL    HW167688   1.076   4.533   1.212 -3.0131  2.4944 -0.3256
18543SOL    HW267689   1.232   4.563   1.172 -2.2807 -2.8105 -1.8044
18544SOL     OW67690   6.758   5.271   0.525  0.1409  0.2048  0.5167
18544SOL    HW167691   6.724   5.225   0.443  2.2795  1.1517 -0.9478
18544SOL    HW267692   6.736   5.368   0.519 -0.8130  0.0770  1.7047
18545SOL     OW67693   0.935   7.511   8.038  0.3945 -0.1599  0.0647
18545SOL    HW167694   0.873   7.588   8.051  0.6953 -0.0834  1.0971
18545SOL    HW267695   0.924   7.446   8.113 -0.3333 -1.4610 -1.1522
18546SOL     OW67696   4.241   0.469   2.032  0.1815 -0.3202  0.2687
18546SOL    HW167697   4.166   0.438   1.974  0.4324 -0.5562  0.0673
18546SOL    HW267698   4.317   0.499   1.975  0.7382 -1.3147  0.4773
18547SOL     OW67699   5.842   7.796   3.760 -0.3695 -0.8410 -0.7629
18547SOL    HW167700   5.752   7.765   3.789  0.1737 -1.2151  0.5677
18547SOL    HW267701   5.904   7.798   3.839  0.0170  2.1565 -1.0857
18548SOL     OW67702   3.952   6.794   2.848 -0.2413 -0.3921 -0.4445
18548SOL    HW167703   3.970   6.892   2.839  0.7165 -0.7150 -2.1533
18548SOL    HW267704   3.854   6.778   2.843 -0.6365  0.7568  2.7516
18549SOL     OW67705   3.047   1.212   5.014  0.1795 -0.0120  0.7355
18549SOL    HW167706   3.129   1.156   5.027  0.2024  0.5750  3.3394
18549SOL    HW267707   2.972   1.154   4.979  1.8320 -0.4084 -2.3640
18550SOL     OW67708   3.176   2.642   9.795  0.2303  0.2755 -0.1975
18550SOL    HW167709   3.197   2.736   9.768  0.1109  0.0882 -0.9768
18550SOL    HW267710   3.081   2.636   9.825  0.2757  0.4289 -0.0215
18551SOL     OW67711   9.234   6.888   9.371 -0.2765  0.1371  0.1906
18551SOL    HW167712   9.162   6.937   9.420  0.2585  0.1491  0.9665
18551SOL    HW267713   9.271   6.816   9.429 -0.1394 -0.3289 -0.4646
18552SOL     OW67714   2.964   7.808   6.963 -0.3476  0.6962  0.0798
18552SOL    HW167715   3.002   7.718   6.984 -0.3771 -0.0914 -2.9579
18552SOL    HW267716   2.872   7.797   6.926 -0.6124  2.0186  0.3535
18553SOL     OW67717   2.341   5.882   8.649  0.2934  0.1078 -0.2402
18553SOL    HW167718   2.261   5.888   8.709  0.7368 -0.8197  0.4665
18553SOL    HW267719   2.422   5.909   8.701  0.7006 -0.8367 -0.3783
18554SOL     OW67720   9.396   3.673   1.068 -0.0736  0.3886  0.3326
18554SOL    HW167721   9.406   3.767   1.099 -0.7460  0.2293  1.0540
18554SOL    HW267722   9.450   3.612   1.126  0.3202  0.3267 -0.1007
18555SOL     OW67723   2.355   9.429   4.922  0.0046 -0.1401  0.6040
18555SOL    HW167724   2.338   9.385   5.010  1.1836  0.2559  1.0428
18555SOL    HW267725   2.446   9.470   4.923 -0.8098  1.7410 -0.0259
18556SOL     OW67726   1.696   7.035   3.029  0.1553  0.2149  0.1499
18556SOL    HW167727   1.599   7.025   3.050  0.0465  1.6078  0.3663
18556SOL    HW267728   1.721   7.132   3.031  1.7785 -0.1894  1.1752
18557SOL     OW67729   0.055   5.106   8.564 -0.6914  0.3386 -0.1813
18557SOL    HW167730   0.143   5.136   8.526 -1.1765  2.1543  0.0699
18557SOL    HW267731   0.063   5.098   8.663 -0.4347 -0.8169 -0.2962
18558SOL     OW67732   8.106   2.394   3.489 -0.9833 -0.4203 -0.0202
18558SOL    HW167733   8.022   2.443   3.515 -0.0618  1.5431 -0.6237
18558SOL    HW267734   8.101   2.368   3.392 -0.4283  0.7302 -0.3680
18559SOL     OW67735   1.776   7.863   7.763 -0.0537 -0.0126 -0.0090
18559SOL    HW167736   1.750   7.935   7.827 -2.5098 -1.0243  0.2134
18559SOL    HW267737   1.847   7.806   7.803 -0.2760  0.4587  1.0752
18560SOL     OW67738   3.780   1.989   5.234  0.7464 -0.2237  0.1582
18560SOL    HW167739   3.692   1.942   5.227  1.3457 -1.2992 -0.2059
18560SOL    HW267740   3.833   1.949   5.308  0.9492  0.3898  0.3425
18561SOL     OW67741   1.714   5.508   8.010  0.3155 -0.4879 -0.0565
18561SOL    HW167742   1.765   5.510   8.097  0.3723 -0.3499 -0.0927
18561SOL    HW267743   1.778   5.497   7.935  0.2273 -1.0357 -0.0518
18562SOL     OW67744   6.497   0.496   7.486  0.7204 -0.0382  0.2595
18562SOL    HW167745   6.584   0.448   7.480 -0.1387 -1.7214  0.9527
18562SOL    HW267746   6.461   0.511   7.394 -0.0593 -2.7599  0.0642
18563SOL     OW67747   7.957   0.077   2.980  0.1675  0.2608 -0.1817
18563SOL    HW167748   8.025   0.054   2.910  1.0044  1.9029  0.0658
18563SOL    HW267749   8.000   0.130   3.052 -1.5688  2.2417 -0.5364
18564SOL     OW67750   9.480   6.372   5.548  0.3737  0.5017 -0.2151
18564SOL    HW167751   9.531   6.454   5.573  0.2544  0.1000  1.3646
18564SOL    HW267752   9.411   6.395   5.479  0.1590  1.7719  0.4089
18565SOL     OW67753   7.687   3.516   6.006  0.3954  0.0768 -0.3719
18565SOL    HW167754   7.693   3.608   6.044  2.0640 -0.5548  0.9865
18565SOL    HW267755   7.645   3.454   6.073  2.1414 -0.7639  0.0055
18566SOL     OW67756   2.953   2.483   0.561 -0.1830 -0.1675  0.8451
18566SOL    HW167757   2.903   2.506   0.645 -0.1705 -1.1518  1.1316
18566SOL    HW267758   2.905   2.520   0.482 -0.3400  0.5402  1.2684
18567SOL     OW67759   7.125   6.207   5.335  0.4802 -0.6286 -0.4656
18567SOL    HW167760   7.062   6.258   5.276  0.9448 -0.6798 -1.0065
18567SOL    HW267761   7.183   6.149   5.279  0.7308 -0.8957  0.0693
18568SOL     OW67762   4.890   7.724   1.135 -0.2560  0.1367  0.2014
18568SOL    HW167763   4.869   7.811   1.090 -0.5593 -0.0810 -0.0810
18568SOL    HW267764   4.989   7.711   1.136 -0.1886  0.6833  0.6179
18569SOL     OW67765   3.809   0.621   3.362 -0.2571 -0.2200 -0.7459
18569SOL    HW167766   3.832   0.560   3.437 -1.4180  0.2550  0.0127
18569SOL    HW267767   3.798   0.568   3.278  1.4995 -0.6972 -0.7052
18570SOL     OW67768   3.699   3.084   3.684 -0.3707  0.3224  0.0782
18570SOL    HW167769   3.727   3.178   3.703  0.0985  0.7753 -2.6269
18570SOL    HW267770   3.615   3.085   3.629 -0.4229 -0.8344  0.1358
18571SOL     OW67771   1.463   6.092   2.217 -0.0256  0.1731  0.5125
18571SOL    HW167772   1.426   6.112   2.308  1.2875  3.6758  0.3762
18571SOL    HW267773   1.503   6.000   2.216  0.0946  0.1368  3.5229
18572SOL     OW67774   7.300   1.243   8.055 -0.1129 -0.2079 -0.0463
18572SOL    HW167775   7.365   1.303   8.009 -0.8510 -0.6697 -1.7441
18572SOL    HW267776   7.348   1.164   8.092  0.0350 -1.7888 -3.4058
18573SOL     OW67777   1.225   9.257   4.204 -0.1174  0.1369  0.0576
18573SOL    HW167778   1.254   9.352   4.195 -0.4587  0.3314  0.9591
18573SOL    HW267779   1.300   9.203   4.241 -0.4196  0.3528  0.9882
18574SOL     OW67780   3.398   4.543   2.624 -0.7072  0.4449 -0.2682
18574SOL    HW167781   3.465   4.591   2.681 -1.1016  1.0723 -0.3322
18574SOL    HW267782   3.445   4.498   2.548 -0.4294  1.4745 -0.7163
18575SOL     OW67783   7.147   0.850   4.668  0.2996 -0.4042  0.1482
18575SOL    HW167784   7.157   0.928   4.731 -1.0347 -0.6470  0.6953
18575SOL    HW267785   7.063   0.800   4.691  0.1177 -0.8578 -1.4528
18576SOL     OW67786   4.061   9.184   0.252  0.8087  0.0808  0.0683
18576SOL    HW167787   4.069   9.263   0.313  0.2019  1.2716 -1.3313
18576SOL    HW267788   4.082   9.213   0.158  0.1368 -1.3216 -0.5260
18577SOL     OW67789   4.285   3.790   8.376  0.1252 -0.1240  0.2474
18577SOL    HW167790   4.368   3.795   8.431  0.6142  0.0579 -0.5022
18577SOL    HW267791   4.309   3.774   8.281 -0.7811 -1.9563  0.3043
18578SOL     OW67792   0.739   4.215   2.733  0.6248  0.3045  0.1685
18578SOL    HW167793   0.834   4.198   2.708 -0.0185 -0.7524 -1.5905
18578SOL    HW267794   0.679   4.196   2.655 -1.0012  1.3779  1.1148
18579SOL     OW67795   4.246   0.305   5.698  0.6675  0.2145  0.2690
18579SOL    HW167796   4.193   0.365   5.757  1.0645  1.0128 -0.1817
18579SOL    HW267797   4.343   0.318   5.715  0.7422 -1.5659  1.4098
18580SOL     OW67798   7.290   8.129   5.187 -0.4364  0.1060  0.3594
18580SOL    HW167799   7.382   8.093   5.175 -0.0016  1.8996 -1.9053
18580SOL    HW267800   7.224   8.067   5.144 -0.1099 -0.1667  0.2491
18581SOL     OW67801   6.273   1.800   5.112 -0.0687  0.2028 -0.3281
18581SOL    HW167802   6.221   1.716   5.127  0.5719 -0.1087  0.1390
18581SOL    HW267803   6.367   1.777   5.088 -0.2029  0.7639 -1.4066
18582SOL     OW67804   5.047   4.700   7.304  0.0192  0.4658 -0.2130
18582SOL    HW167805   4.992   4.760   7.247  0.3312  0.3924 -0.5913
18582SOL    HW267806   5.126   4.751   7.339 -0.2858  0.5737  0.3338
18583SOL     OW67807   9.756   5.744   8.761  0.2306 -0.7400  0.1816
18583SOL    HW167808   9.690   5.804   8.804  0.2792 -0.7519  0.2742
18583SOL    HW267809   9.830   5.798   8.722 -1.2765 -0.4868 -2.4680
18584SOL     OW67810   2.819   9.941   4.283 -0.1257  0.1793 -0.3705
18584SOL    HW167811   2.815   9.858   4.228 -0.6330  0.0107 -0.0831
18584SOL    HW267812   2.752   9.935   4.357 -0.9108  1.2910 -0.9681
18585SOL     OW67813   9.058   0.464   8.787  0.2466 -0.0569  0.4046
18585SOL    HW167814   9.105   0.498   8.706  0.8552 -1.1947  0.2809
18585SOL    HW267815   9.098   0.506   8.869 -0.0620  0.7324  0.1639
18586SOL     OW67816   2.899   6.132   9.216 -0.1278  0.0930  0.6721
18586SOL    HW167817   2.984   6.141   9.267  1.0909  4.2978 -1.8426
18586SOL    HW267818   2.919   6.128   9.118 -2.7253 -1.6231  0.1444
18587SOL     OW67819   4.641   3.281   7.407  0.1820 -0.1498  0.0693
18587SOL    HW167820   4.587   3.238   7.335  0.7567 -0.3542 -0.2428
18587SOL    HW267821   4.590   3.358   7.446 -1.2254 -1.5937  1.2017
18588SOL     OW67822   6.610   3.644   9.363 -0.4154 -0.1286 -0.5293
18588SOL    HW167823   6.536   3.617   9.302 -0.7989 -0.6079  0.1358
18588SOL    HW267824   6.687   3.581   9.353 -0.9377 -0.9224  0.3268
18589SOL     OW67825   1.759   2.640   7.370  0.6398 -0.6439  0.7303
18589SOL    HW167826   1.795   2.720   7.416 -0.3239 -0.0881  0.5349
18589SOL    HW267827   1.815   2.618   7.290 -0.3245  1.1373 -0.4675
18590SOL     OW67828   2.547   3.577   7.136 -0.1256 -0.8561 -0.5608
18590SOL    HW167829   2.594   3.559   7.222  1.3937 -0.4981 -1.3043
18590SOL    HW267830   2.509   3.492   7.100  0.1344 -1.1813 -0.0661
18591SOL     OW67831   8.973   8.827   5.814 -0.0510  0.0474 -0.0846
18591SOL    HW167832   9.047   8.769   5.849  0.4516  0.0734 -1.0876
18591SOL    HW267833   9.009   8.919   5.796 -1.0409  0.9709  2.3542
18592SOL     OW67834   3.863   3.081   1.058  0.4860 -0.2503  0.3029
18592SOL    HW167835   3.955   3.047   1.041  1.2894  1.7023  0.5489
18592SOL    HW267836   3.829   3.044   1.145  1.1215 -0.8100  0.3167
18593SOL     OW67837   3.619   2.968   7.805 -0.5276  0.1417  0.1278
18593SOL    HW167838   3.550   3.040   7.806 -0.5273  0.2208 -2.4147
18593SOL    HW267839   3.709   3.009   7.824 -0.6364  0.6934 -0.5094
18594SOL     OW67840   5.587   4.925   2.753  0.0577 -0.3545  0.0832
18594SOL    HW167841   5.681   4.940   2.783 -0.1112  0.6022  0.1483
18594SOL    HW267842   5.542   4.860   2.815 -0.1277  1.2068  1.6273
18595SOL     OW67843   8.981   8.370   9.937  0.5238 -0.4351  0.7641
18595SOL    HW167844   9.045   8.318   9.882 -0.4435  0.2324 -1.0395
18595SOL    HW267845   8.928   8.308   9.995  1.0801 -1.2074  0.4452
18596SOL     OW67846   8.827   4.676   2.507 -0.0803  0.2675  0.0987
18596SOL    HW167847   8.782   4.629   2.583  1.4978 -0.0526  0.8330
18596SOL    HW267848   8.834   4.613   2.429  0.5794 -0.2051  0.5402
18597SOL     OW67849   1.294   3.789   6.341  0.0450  0.1509 -0.0674
18597SOL    HW167850   1.329   3.868   6.391  1.2769 -0.6384  0.3421
18597SOL    HW267851   1.205   3.763   6.377  0.0158  0.8243  0.3576
18598SOL     OW67852   2.751   4.361   1.421  0.0561 -0.0873 -0.0059
18598SOL    HW167853   2.681   4.345   1.490  0.9507 -0.5252  0.8062
18598SOL    HW267854   2.759   4.281   1.362  1.4131 -0.9187  1.2830
18599SOL     OW67855   3.043   5.904   3.004  0.3140  0.2131 -0.4177
18599SOL    HW167856   2.967   5.840   2.992  1.2651 -1.1810  0.8092
18599SOL    HW267857   3.081   5.928   2.915  0.2578 -1.3357 -0.8699
18600SOL     OW67858   0.836   4.333   0.465 -0.0590  0.3918 -0.1869
18600SOL    HW167859   0.811   4.297   0.375 -0.5339 -0.2433  0.1924
18600SOL    HW267860   0.761   4.316   0.529  0.4739  0.4137  0.4419
18601SOL     OW67861   8.147   4.303   3.751 -0.1998  0.3800 -0.0080
18601SOL    HW167862   8.167   4.353   3.667 -0.0409 -0.3757 -0.4291
18601SOL    HW267863   8.166   4.206   3.737  0.9604  0.3933  1.2472
18602SOL     OW67864   5.228   0.241   4.606 -0.1024  0.0103 -0.5687
18602SOL    HW167865   5.267   0.214   4.518 -0.4134  1.5688 -1.1979
18602SOL    HW267866   5.247   0.338   4.623  1.1242 -0.5885  1.7104
18603SOL     OW67867   2.528   6.589   7.943  0.7902 -0.3064  0.4472
18603SOL    HW167868   2.551   6.492   7.954 -0.3412 -0.6526 -0.0741
18603SOL    HW267869   2.429   6.598   7.930  0.8553  0.9480  0.7719
18604SOL     OW67870   7.900   6.302   5.478 -0.8225 -0.3778 -0.3140
18604SOL    HW167871   7.986   6.251   5.478  0.1570  1.2346  1.3910
18604SOL    HW267872   7.918   6.400   5.488 -2.8550  0.0033 -0.0224
18605SOL     OW67873   8.164   9.051   3.006 -0.4367 -0.2899 -0.2637
18605SOL    HW167874   8.075   9.039   2.962 -0.6379 -0.2413  0.1275
18605SOL    HW267875   8.153   9.107   3.088 -0.0398 -0.2540 -0.2357
18606SOL     OW67876   3.286   8.509   9.901 -0.3557 -0.2065 -0.1705
18606SOL    HW167877   3.352   8.493   9.827 -0.0476 -0.3358  0.1356
18606SOL    HW267878   3.197   8.475   9.873 -0.6649  1.3828 -1.2370
18607SOL     OW67879   2.959   9.830   5.657  0.1481 -0.1114  0.2274
18607SOL    HW167880   2.959   9.744   5.709 -0.6392 -1.0281 -1.2729
18607SOL    HW267881   2.943   9.810   5.560 -1.1668  1.8395  0.0350
18608SOL     OW67882   1.971   6.434   9.475 -0.3446 -0.0673  0.5519
18608SOL    HW167883   2.037   6.434   9.550 -1.2293  1.3389  1.3477
18608SOL    HW267884   1.969   6.525   9.433 -0.0949 -0.7523 -0.9787
18609SOL     OW67885   1.476   7.273   3.108  0.2393  0.2731  0.7950
18609SOL    HW167886   1.513   7.293   3.199  1.2792 -0.9088  0.6388
18609SOL    HW267887   1.514   7.338   3.042  2.7586 -1.4664  0.4831
18610SOL     OW67888   6.377   8.905   3.969  0.6442 -0.3665  0.1142
18610SOL    HW167889   6.369   8.805   3.963 -0.0537 -0.3082  0.1308
18610SOL    HW267890   6.401   8.930   4.063  0.8358 -0.5149  0.1073
18611SOL     OW67891   3.032   3.013   9.826  0.2734 -0.1386  0.1839
18611SOL    HW167892   2.948   3.005   9.772 -0.4202 -0.6541  1.3101
18611SOL    HW267893   3.106   2.963   9.780  0.9300  3.2268 -2.6252
18612SOL     OW67894   6.753   0.411   7.467 -0.5877 -0.1624 -0.5850
18612SOL    HW167895   6.744   0.315   7.494  2.4328 -0.0241  1.0177
18612SOL    HW267896   6.801   0.416   7.380 -1.4272 -0.1038 -1.0562
18613SOL     OW67897   1.594   1.102   6.400 -0.4824  0.6778  0.0429
18613SOL    HW167898   1.540   1.044   6.461  0.5016 -0.3686 -0.0835
18613SOL    HW267899   1.538   1.125   6.320 -0.5636 -0.8826 -0.3733
18614SOL     OW67900   5.159   1.361   3.940  0.0591 -0.4727 -0.3138
18614SOL    HW167901   5.068   1.322   3.926  0.5747 -1.7147 -0.2980
18614SOL    HW267902   5.213   1.299   3.998  1.1054 -0.0479 -0.8284
18615SOL     OW67903   1.020   0.515   1.355 -0.0099  0.1256 -0.3478
18615SOL    HW167904   1.015   0.435   1.415 -0.0015  0.7800  0.5355
18615SOL    HW267905   1.035   0.485   1.261  0.2057 -0.9041  0.0063
18616SOL     OW67906   2.092   2.969   0.450  0.4642  0.6638  0.2382
18616SOL    HW167907   2.016   2.951   0.388 -0.2052  1.0854  0.9378
18616SOL    HW267908   2.065   3.037   0.518  1.1583  0.1168  1.0693
18617SOL     OW67909   4.108   5.671   1.213  0.0518 -0.3091 -0.2055
18617SOL    HW167910   4.048   5.744   1.246  1.4424  1.7487 -2.0837
18617SOL    HW267911   4.089   5.587   1.263 -2.5253  0.9891  1.0795
18618SOL     OW67912   6.229   0.117   2.488 -0.0168 -0.0739 -0.3710
18618SOL    HW167913   6.248   0.027   2.449 -0.2957 -0.3508  0.1248
18618SOL    HW267914   6.145   0.113   2.543  0.4375  0.2724  0.3613
18619SOL     OW67915   8.033   2.090   4.649 -0.4722 -0.7804 -0.1794
18619SOL    HW167916   8.114   2.147   4.660 -0.3626 -1.4284  2.7130
18619SOL    HW267917   7.951   2.147   4.652 -0.2232 -0.3488 -1.2329
18620SOL     OW67918   9.098   3.179   3.501 -0.7632  0.1528 -0.1194
18620SOL    HW167919   8.998   3.185   3.497 -0.8959 -1.0166  1.1541
18620SOL    HW267920   9.125   3.119   3.576  0.8820 -0.2086 -0.9730
18621SOL     OW67921   4.695   0.613   0.418 -0.3530  0.5140  0.5054
18621SOL    HW167922   4.764   0.601   0.346 -0.2686  0.7357  0.5489
18621SOL    HW267923   4.610   0.567   0.391 -0.8950  2.0880 -0.5237
18622SOL     OW67924   5.613   9.007   5.250  0.5637  0.0500 -0.3679
18622SOL    HW167925   5.525   8.975   5.285  0.9852  0.7346  1.3938
18622SOL    HW267926   5.627   9.102   5.278  3.0704 -0.8985  1.8193
18623SOL     OW67927   7.869   5.317  10.005  0.0740  0.3691  0.0133
18623SOL    HW167928   7.820   5.268  10.077 -0.6284 -0.6280 -1.1097
18623SOL    HW267929   7.966   5.322  10.028  0.0207 -0.8462  0.5444
18624SOL     OW67930   2.151   7.322   2.387 -0.2264  0.2158 -0.3546
18624SOL    HW167931   2.102   7.305   2.301 -1.9248  1.7130  0.2883
18624SOL    HW267932   2.139   7.418   2.414  2.9964  0.6133 -0.1067
18625SOL     OW67933   0.241   1.029   7.479  0.6666  0.3307 -0.2049
18625SOL    HW167934   0.280   0.959   7.538  0.6160 -0.4977 -1.1454
18625SOL    HW267935   0.303   1.047   7.403  1.1814  2.0885  0.6075
18626SOL     OW67936   2.525   9.999   0.993 -0.1159  0.7374 -0.9375
18626SOL    HW167937   2.470  10.075   0.959  1.1776  1.8848 -0.5201
18626SOL    HW267938   2.499   9.980   1.088 -0.2263  0.8559 -0.9432
18627SOL     OW67939   3.097   5.021   2.692  0.0387 -0.3253  0.0454
18627SOL    HW167940   3.144   4.985   2.611 -0.0643  0.4716 -0.3747
18627SOL    HW267941   2.999   5.024   2.674  0.0418  0.0944  0.1104
18628SOL     OW67942   0.427   8.878   0.989 -0.7845 -0.2467  0.6460
18628SOL    HW167943   0.512   8.929   1.001 -0.8259  0.1269 -0.5905
18628SOL    HW267944   0.349   8.941   0.991 -1.1835 -0.7971  3.5732
18629SOL     OW67945   2.799   8.716   8.792 -0.0420 -0.0408 -0.5745
18629SOL    HW167946   2.784   8.618   8.805 -0.0850  0.1393  0.7643
18629SOL    HW267947   2.868   8.730   8.721 -0.7678 -1.0145 -1.5014
18630SOL     OW67948   8.808   7.998   0.583  0.0921  0.5955 -0.0304
18630SOL    HW167949   8.727   8.018   0.638  0.2789 -1.1201  0.9029
18630SOL    HW267950   8.881   7.964   0.642  0.8594  0.3188 -1.1167
18631SOL     OW67951   9.625   6.683   6.911  0.2024  0.3726  0.2177
18631SOL    HW167952   9.679   6.724   6.837  0.8966  0.2910  0.6733
18631SOL    HW267953   9.663   6.711   6.999 -0.6395  0.4895  0.5410
18632SOL     OW67954   5.191   5.246   1.866  0.7063  0.2359 -0.2677
18632SOL    HW167955   5.193   5.153   1.903  2.7403 -0.5430 -2.2189
18632SOL    HW267956   5.279   5.290   1.882  0.8463  0.6768 -2.1051
18633SOL     OW67957   7.708   8.394   7.321 -0.0208  0.0059  0.0263
18633SOL    HW167958   7.610   8.383   7.339  0.1167  0.8354  1.3415
18633SOL    HW267959   7.751   8.305   7.313 -1.1068 -0.3747 -1.8062
18634SOL     OW67960   7.397   8.057   3.681 -0.1195 -0.2185 -0.4765
18634SOL    HW167961   7.437   8.065   3.589  0.4604  0.8492 -0.1332
18634SOL    HW267962   7.469   8.066   3.750 -0.4577 -1.6528  0.0858
18635SOL     OW67963   8.315   6.553   8.356  0.3442  0.2027 -0.4889
18635SOL    HW167964   8.330   6.505   8.442 -0.0417  0.0545 -0.5041
18635SOL    HW267965   8.222   6.536   8.323  0.0066  1.4453 -0.1941
18636SOL     OW67966   8.370   3.082   2.723  0.4123  0.2698 -0.0554
18636SOL    HW167967   8.403   2.987   2.717  1.1394  0.5511 -0.5984
18636SOL    HW267968   8.300   3.097   2.652  0.9676  0.3990 -0.5845
18637SOL     OW67969   9.331   0.884   9.587 -0.5836  0.2701 -0.1617
18637SOL    HW167970   9.268   0.931   9.649  0.2968  0.7943  0.3633
18637SOL    HW267971   9.368   0.950   9.522  0.2931  0.2118  0.2708
18638SOL     OW67972   0.822   0.894   8.448 -0.3864  0.1105  0.4185
18638SOL    HW167973   0.728   0.861   8.442  0.1072 -1.1046 -0.9011
18638SOL    HW267974   0.852   0.925   8.358  0.1424  1.4622  1.0450
18639SOL     OW67975   7.740   1.172   3.626  0.7817 -0.4794 -0.0908
18639SOL    HW167976   7.768   1.078   3.647 -1.9607 -1.1773  0.6936
18639SOL    HW267977   7.807   1.236   3.662  1.9085 -2.0934  0.7194
18640SOL     OW67978   1.350   1.411   8.113  0.2676 -0.0282  0.3637
18640SOL    HW167979   1.336   1.490   8.053 -0.7147  0.2591  0.9773
18640SOL    HW267980   1.408   1.344   8.066  1.3595  1.1794 -0.0415
18641SOL     OW67981   7.159   5.188   9.000  0.0664  0.1153 -0.0829
18641SOL    HW167982   7.196   5.112   8.946 -0.6442  0.1468 -0.6139
18641SOL    HW267983   7.231   5.224   9.059  1.1478  0.7640 -1.7591
18642SOL     OW67984   5.629   2.425   2.813 -0.2175  0.6845  0.1444
18642SOL    HW167985   5.611   2.515   2.772 -0.3696  0.7268  0.3030
18642SOL    HW267986   5.568   2.357   2.774 -0.8794  0.8716  0.8426
18643SOL     OW67987   6.916   2.538   2.698  0.4422  0.0700 -0.3370
18643SOL    HW167988   6.909   2.439   2.692 -1.4603  0.1698 -0.2466
18643SOL    HW267989   6.824   2.577   2.708  1.3386  1.6484  2.3730
18644SOL     OW67990   8.085   1.269   2.712  0.5422 -0.2321 -0.3046
18644SOL    HW167991   8.029   1.195   2.748  2.7093 -0.0664  3.6374
18644SOL    HW267992   8.033   1.320   2.644 -2.4816 -2.7240  0.0293
18645SOL     OW67993   9.150   2.763   5.722 -0.2106 -0.0282 -0.4888
18645SOL    HW167994   9.162   2.704   5.642  2.1438  2.0256 -1.7100
18645SOL    HW267995   9.090   2.839   5.699 -0.7506 -0.2530  0.1616
18646SOL     OW67996   4.937   2.197   6.753  0.0607  0.2314 -0.0404
18646SOL    HW167997   5.003   2.150   6.694 -0.8654 -1.9359  0.6189
18646SOL    HW267998   4.984   2.231   6.835  0.4795 -0.8550  0.1801
18647SOL     OW67999   0.980   0.490   8.598 -0.2458  0.1364  0.1483
18647SOL    HW168000   1.015   0.424   8.664 -0.4787  0.1922  0.3310
18647SOL    HW268001   0.887   0.463   8.570 -0.5000  0.6000  0.5287
18648SOL     OW68002   1.928   9.465   6.854  0.1889  0.7926 -0.1910
18648SOL    HW168003   2.022   9.454   6.885  0.2319  0.9800 -0.2560
18648SOL    HW268004   1.906   9.562   6.845 -0.3159  0.7741  0.7563
18649SOL     OW68005   2.942   2.946   6.761 -0.0215  0.1279  0.6079
18649SOL    HW168006   2.907   2.916   6.850  1.0198 -0.6346  0.7605
18649SOL    HW268007   2.981   3.038   6.770  1.9672 -0.7758  1.4154
18650SOL     OW68008   2.034   1.736   3.472 -0.3266 -0.4560  0.6365
18650SOL    HW168009   2.090   1.654   3.473  0.1979 -0.1079  3.2622
18650SOL    HW268010   2.091   1.816   3.453 -0.1518 -0.2424  2.0670
18651SOL     OW68011   3.351   6.993   2.283  0.5926 -0.0271 -0.3661
18651SOL    HW168012   3.324   6.913   2.336 -2.1291  1.0903  0.0049
18651SOL    HW268013   3.273   7.025   2.230  1.7340  2.2191 -0.7300
18652SOL     OW68014   6.148   5.091   0.341  0.4749  0.5494  0.1063
18652SOL    HW168015   6.057   5.133   0.337  1.6693  3.2784  0.2108
18652SOL    HW268016   6.169   5.049   0.253 -1.5197 -1.5587  0.5865
18653SOL     OW68017   8.111   3.607   9.531 -0.0400 -0.5268  0.2925
18653SOL    HW168018   8.037   3.555   9.487  0.3161 -2.4008  1.8424
18653SOL    HW268019   8.193   3.603   9.473 -0.1074 -1.4317  0.2574
18654SOL     OW68020   5.766   9.713   6.706  0.0082 -0.4724 -0.6941
18654SOL    HW168021   5.787   9.701   6.803 -1.1633 -0.6819 -0.4612
18654SOL    HW268022   5.842   9.679   6.651  0.6246 -0.4654  0.1501
18655SOL     OW68023   0.345   6.875   3.283 -0.4102  0.4649  0.1076
18655SOL    HW168024   0.439   6.906   3.292 -0.6906  1.9831 -1.7845
18655SOL    HW268025   0.282   6.950   3.305 -1.1741 -0.2556  0.4412
18656SOL     OW68026   0.170   2.112   2.024  0.1807 -0.0560  0.1162
18656SOL    HW168027   0.247   2.090   1.965 -0.8166 -0.2125 -1.1467
18656SOL    HW268028   0.137   2.205   2.003 -0.4958 -0.3009  0.0682
18657SOL     OW68029   4.605   1.732   1.326  0.3661 -0.2191  0.2232
18657SOL    HW168030   4.514   1.716   1.289  0.1393  1.6330 -0.0950
18657SOL    HW268031   4.600   1.806   1.394  1.5254 -0.5159  0.6352
18658SOL     OW68032   9.189   2.020   5.248  0.5580  0.7294  0.7253
18658SOL    HW168033   9.182   1.922   5.268  0.6566  1.2725  3.6434
18658SOL    HW268034   9.189   2.034   5.149 -4.0980 -1.8810  0.2128
18659SOL     OW68035   0.009   5.070   4.987  0.1980  0.4740  0.3655
18659SOL    HW168036  -0.003   5.167   4.965  1.0420  0.5622  0.2740
18659SOL    HW268037   0.062   5.026   4.915  0.5822  0.1419  0.8485
18660SOL     OW68038   1.989   7.309   8.820 -0.2850  0.5332  0.5696
18660SOL    HW168039   2.023   7.398   8.850 -0.1357  0.9851 -0.9428
18660SOL    HW268040   1.889   7.313   8.811 -0.2077  0.7595 -0.2006
18661SOL     OW68041   7.256   3.097   8.440  0.2292  0.5111  0.5887
18661SOL    HW168042   7.355   3.083   8.453  0.1464 -0.3797  0.2742
18661SOL    HW268043   7.232   3.079   8.345 -0.0517  1.8760  0.3852
18662SOL     OW68044   0.995   2.977   7.821  0.4623  0.2948 -0.0933
18662SOL    HW168045   1.022   2.884   7.796 -0.1540  0.0091  0.2818
18662SOL    HW268046   0.976   2.980   7.920  0.5949  0.8442 -0.0854
18663SOL     OW68047   8.490   6.665   4.184 -0.2877 -0.6056  0.1154
18663SOL    HW168048   8.410   6.719   4.158  0.0888 -0.6716 -1.2159
18663SOL    HW268049   8.467   6.567   4.180  0.2638 -0.6864 -1.7559
18664SOL     OW68050   9.618   9.026   4.237  0.2502 -0.3671 -0.9481
18664SOL    HW168051   9.586   9.064   4.324  2.4507 -1.3663  0.3301
18664SOL    HW268052   9.610   8.927   4.239  2.5151 -0.5598 -0.9599
18665SOL     OW68053   8.430   3.586   5.130  0.3436 -0.8172 -0.2317
18665SOL    HW168054   8.410   3.550   5.221 -0.2452 -1.1697 -0.5024
18665SOL    HW268055   8.497   3.660   5.138 -1.6370  0.9304  0.7572
18666SOL     OW68056   6.247   4.204   0.339 -0.5364 -0.0325 -0.3001
18666SOL    HW168057   6.308   4.243   0.270  0.5500 -0.0911  0.6086
18666SOL    HW268058   6.179   4.273   0.365  0.2271  0.6458 -0.0584
18667SOL     OW68059   2.789   3.072   5.150  0.4722 -0.5224  0.3318
18667SOL    HW168060   2.728   3.122   5.212  0.0857  0.0534 -0.5073
18667SOL    HW268061   2.878   3.059   5.194 -0.1067 -0.9941  1.3994
18668SOL     OW68062   2.198   4.698   3.766 -0.2116 -0.0499 -0.6555
18668SOL    HW168063   2.214   4.758   3.687  1.6815  0.7854  0.3250
18668SOL    HW268064   2.282   4.649   3.789 -0.5481  0.2112  1.2414
18669SOL     OW68065   4.759   9.534   9.681  0.0310  0.2814  0.0538
18669SOL    HW168066   4.783   9.453   9.735 -1.7930  0.2450  0.8161
18669SOL    HW268067   4.842   9.587   9.663  1.0621 -1.1069  0.5961
18670SOL     OW68068   1.318   6.111   6.283  0.2410  0.1452  0.3525
18670SOL    HW168069   1.353   6.046   6.216  2.6768  1.4569  0.2842
18670SOL    HW268070   1.306   6.065   6.371  1.2511 -0.5753  0.1198
18671SOL     OW68071   4.391   4.115   0.699  0.0720  0.1324  0.0677
18671SOL    HW168072   4.468   4.068   0.743  0.1257  0.9092  0.8161
18671SOL    HW268073   4.422   4.203   0.665  0.1680 -0.6848 -2.0337
18672SOL     OW68074   4.801   0.981   8.859  0.0601  0.5718  0.1689
18672SOL    HW168075   4.860   0.939   8.790  3.7498  2.6055  1.8747
18672SOL    HW268076   4.788   1.078   8.837  0.3133  0.9617  1.6372
18673SOL     OW68077   5.525   9.206   6.241  0.5168  0.2854  0.2254
18673SOL    HW168078   5.453   9.138   6.238 -0.5285  1.3612  0.3927
18673SOL    HW268079   5.512   9.272   6.166  0.2430  1.5406  1.3515
18674SOL     OW68080   1.768   5.940   4.367  0.0190  0.1105 -0.1393
18674SOL    HW168081   1.846   5.919   4.427 -0.8435 -1.1678  0.5621
18674SOL    HW268082   1.802   5.959   4.275  1.2771  1.0733  0.4974
18675SOL     OW68083   1.908   8.993   8.805  0.3712 -0.2551 -0.1965
18675SOL    HW168084   1.838   8.923   8.817  0.6864 -0.8194 -1.5857
18675SOL    HW268085   1.936   8.997   8.709  0.0540  2.0598 -0.2382
18676SOL     OW68086   8.636   3.188   6.055  0.2131  0.1804 -0.6579
18676SOL    HW168087   8.721   3.147   6.088 -0.3363 -0.7944 -0.4502
18676SOL    HW268088   8.595   3.242   6.129  0.8719  1.0188 -0.8943
18677SOL     OW68089   0.017   2.615   8.521 -0.5847 -0.4380 -0.6234
18677SOL    HW168090   0.096   2.554   8.517  0.1888  0.6356 -2.8265
18677SOL    HW268091  -0.043   2.595   8.443 -0.6500  1.1434 -0.9901
18678SOL     OW68092   2.419   1.847   9.126  0.1895  0.5208  0.5155
18678SOL    HW168093   2.462   1.880   9.042  2.1234 -2.3207  0.3070
18678SOL    HW268094   2.335   1.798   9.103  0.7618 -0.3316  0.1724
18679SOL     OW68095   9.465   9.219   0.693 -0.1939 -0.3373  0.0279
18679SOL    HW168096   9.509   9.140   0.735  0.6878 -0.5481 -1.2687
18679SOL    HW268097   9.365   9.207   0.696 -0.0261 -2.5408 -2.1050
18680SOL     OW68098   3.266   1.958   0.560  0.2625 -0.3063 -0.2932
18680SOL    HW168099   3.282   1.968   0.461 -0.1716 -1.4842 -0.4807
18680SOL    HW268100   3.304   2.038   0.607  1.2169 -0.1269 -1.3333
18681SOL     OW68101   8.052   8.725   4.750  0.4545 -0.3630  0.5198
18681SOL    HW168102   7.979   8.790   4.728  1.1408  1.6743  3.7831
18681SOL    HW268103   8.012   8.642   4.789 -0.2422 -0.0289  0.5301
18682SOL     OW68104   9.268   9.113   9.492  0.4355 -0.1970  0.1989
18682SOL    HW168105   9.271   9.023   9.448  0.7280 -0.9400  1.7256
18682SOL    HW268106   9.183   9.159   9.467 -0.1925 -1.3185  0.2160
18683SOL     OW68107   2.174   6.988   8.805 -0.4858  0.0789 -0.2576
18683SOL    HW168108   2.151   7.029   8.893 -1.4732 -0.0822 -0.4330
18683SOL    HW268109   2.110   7.020   8.735  0.0338 -0.1163 -0.8330
18684SOL     OW68110   6.800   0.825   1.590 -0.3762  0.1601 -0.7136
18684SOL    HW168111   6.820   0.918   1.620  1.2375  0.0399 -1.3990
18684SOL    HW268112   6.863   0.761   1.636 -0.3096 -0.4056 -1.5894
18685SOL     OW68113   0.066   4.552   5.313 -0.3682 -0.2397  0.1643
18685SOL    HW168114   0.026   4.622   5.253 -0.2579 -0.2008  0.1374
18685SOL    HW268115   0.161   4.575   5.334  0.0556 -1.0244 -0.8454
18686SOL     OW68116   1.857   9.303   1.210  0.6891 -0.3286  0.1090
18686SOL    HW168117   1.942   9.261   1.241  0.3094 -1.1748  0.0247
18686SOL    HW268118   1.838   9.275   1.116 -0.4265 -1.3488  0.6154
18687SOL     OW68119   9.092   3.440   3.087  0.0971  0.3071  0.0366
18687SOL    HW168120   9.081   3.439   2.988  0.0141  1.0823  0.0344
18687SOL    HW268121   9.183   3.408   3.112 -0.0534 -0.3544 -0.2624
18688SOL     OW68122   4.295   1.080   8.064  0.2358 -0.2485  0.2562
18688SOL    HW168123   4.307   1.110   8.159  1.0040 -0.2868  0.1796
18688SOL    HW268124   4.247   1.150   8.012 -2.1834 -1.1446  1.1896
18689SOL     OW68125   4.580   2.605   7.108 -0.0535  0.6698  0.0253
18689SOL    HW168126   4.568   2.525   7.049 -1.2774 -0.0519  1.2263
18689SOL    HW268127   4.502   2.667   7.097 -0.4431  0.3784  1.1115
18690SOL     OW68128   6.888   9.216   8.816 -0.0289  0.4611  0.2502
18690SOL    HW168129   6.800   9.217   8.769  0.3684  2.5831 -0.4986
18690SOL    HW268130   6.962   9.235   8.751  0.6801  1.8672  1.4354
18691SOL     OW68131   0.126   7.178   7.500  0.5061 -0.4552  0.2843
18691SOL    HW168132   0.215   7.142   7.530  0.8220  0.9573  1.0802
18691SOL    HW268133   0.110   7.267   7.543 -0.3371  0.2827 -1.5216
18692SOL     OW68134   1.650   0.308   5.518  0.2741  0.9150  0.4177
18692SOL    HW168135   1.726   0.281   5.577  1.0562  0.8350 -0.6063
18692SOL    HW268136   1.661   0.263   5.428 -0.9555  0.9339  0.2519
18693SOL     OW68137   2.144   3.269   4.274  0.1641  0.2053  0.6749
18693SOL    HW168138   2.050   3.239   4.289  0.5216 -0.3129  1.9452
18693SOL    HW268139   2.168   3.258   4.178 -0.8650 -0.2307  0.4633
18694SOL     OW68140   8.305   7.516   2.218  0.2813 -0.0208 -0.4444
18694SOL    HW168141   8.311   7.591   2.153  0.3360  0.5241  0.1773
18694SOL    HW268142   8.246   7.445   2.182 -0.1230  0.5180 -0.8545
18695SOL     OW68143   7.096   0.356   5.083  0.3572  0.3276  0.2474
18695SOL    HW168144   7.057   0.264   5.081  0.5029  0.2792 -0.5164
18695SOL    HW268145   7.128   0.376   5.175  0.8696 -0.6203  0.2861
18696SOL     OW68146   2.715   6.617   9.848  0.8426 -0.2658 -0.1009
18696SOL    HW168147   2.737   6.537   9.903  1.2936 -0.0771 -0.0044
18696SOL    HW268148   2.775   6.620   9.768  2.1417  1.0210  0.9020
18697SOL     OW68149   2.382   2.382   8.477  0.8700  0.2822 -0.8365
18697SOL    HW168150   2.472   2.373   8.519  0.0452  1.9109  1.4189
18697SOL    HW268151   2.349   2.476   8.491 -1.5918 -0.5653 -0.7251
18698SOL     OW68152   0.106   9.747   3.533 -0.1980 -0.5096  0.2169
18698SOL    HW168153   0.018   9.738   3.486  0.1446 -0.3503 -0.4528
18698SOL    HW268154   0.107   9.687   3.613 -0.3903 -1.5618 -0.5611
18699SOL     OW68155   2.383   9.650   9.124 -0.0672 -0.0947  0.2695
18699SOL    HW168156   2.371   9.737   9.075  1.5800 -0.4578 -0.8509
18699SOL    HW268157   2.435   9.666   9.208  0.9835 -0.1015 -0.3681
18700SOL     OW68158   0.055   4.098   8.767 -0.5630 -0.2127  0.3645
18700SOL    HW168159   0.095   4.170   8.711  0.4055 -0.5760  0.5647
18700SOL    HW268160  -0.039   4.080   8.738 -1.5394  2.5691  1.6866
18701SOL     OW68161   6.999   0.960   9.901  0.0898  0.1290 -0.0853
18701SOL    HW168162   7.073   0.995   9.957 -1.6573  0.5124  2.0197
18701SOL    HW268163   6.983   0.864   9.923 -1.6860  0.7195  1.3005
18702SOL     OW68164   9.669   1.936   4.103  0.5776 -0.1292 -0.0727
18702SOL    HW168165   9.665   1.838   4.086 -0.9163  0.1493 -1.4543
18702SOL    HW268166   9.745   1.976   4.052  0.0152 -0.2869 -1.0559
18703SOL     OW68167   8.057   8.971   2.238  0.9746 -0.5345 -0.0862
18703SOL    HW168168   8.023   8.908   2.168 -0.2101 -0.0947  0.0836
18703SOL    HW268169   8.032   8.936   2.328  0.2920  0.1862  0.0051
18704SOL     OW68170   0.881   8.348   0.354  0.2665  0.4324  0.2960
18704SOL    HW168171   0.885   8.387   0.262  2.8665  0.5133  0.4064
18704SOL    HW268172   0.803   8.386   0.403 -2.1710 -0.8714 -2.4084
18705SOL     OW68173   2.151   2.186   2.032 -0.6920 -0.6094 -0.4349
18705SOL    HW168174   2.189   2.253   2.096 -2.5293  0.4811 -0.4524
18705SOL    HW268175   2.097   2.119   2.084  0.1906 -1.4224 -0.5481
18706SOL     OW68176   5.068   7.082   2.929  0.4941 -0.0180 -0.5390
18706SOL    HW168177   5.120   7.003   2.962 -0.6187 -0.7995 -0.6541
18706SOL    HW268178   4.971   7.068   2.946  0.2698  1.2521 -0.7258
18707SOL     OW68179   1.917   7.130   5.819  0.3629  0.1673 -0.1288
18707SOL    HW168180   1.822   7.158   5.809 -0.0705 -0.9390  0.7421
18707SOL    HW268181   1.922   7.050   5.879  1.6029 -1.2007 -1.9636
18708SOL     OW68182   3.776   1.932   3.039  0.2074  0.0975  0.1185
18708SOL    HW168183   3.706   2.002   3.054  0.2680  0.4012 -0.9869
18708SOL    HW268184   3.849   1.944   3.107  2.0281  3.4764 -2.2885
18709SOL     OW68185   8.572   0.515   8.395 -0.2720 -0.2782  0.1603
18709SOL    HW168186   8.476   0.508   8.422 -0.5023 -0.1064 -0.6126
18709SOL    HW268187   8.578   0.541   8.299  0.5462  1.1483  0.5826
18710SOL     OW68188   1.966   3.802   9.158  0.5733 -0.1710  0.2157
18710SOL    HW168189   1.968   3.739   9.236  0.6700  0.5192  0.7871
18710SOL    HW268190   1.932   3.755   9.077  0.9514 -1.0411  0.5526
18711SOL     OW68191   8.082   5.149   7.047  0.1516  0.5999 -0.0365
18711SOL    HW168192   8.073   5.133   6.949 -0.3367  0.1692  0.0727
18711SOL    HW268193   8.066   5.063   7.096  3.5913  0.0851  0.2864
18712SOL     OW68194   2.235   5.077   2.288 -0.3434  0.1710  0.2046
18712SOL    HW168195   2.159   5.091   2.351  0.3859 -0.0467  1.1677
18712SOL    HW268196   2.238   4.981   2.260 -0.0419  0.0323  0.6940
18713SOL     OW68197   1.471   6.545   8.743  0.3547 -0.0527  0.3175
18713SOL    HW168198   1.513   6.455   8.730 -1.9652 -1.0335 -0.7144
18713SOL    HW268199   1.459   6.589   8.654  1.7617  1.4270  0.8473
18714SOL     OW68200   1.514   5.854   6.523  0.8896  0.3846 -0.1026
18714SOL    HW168201   1.479   5.797   6.448  0.2966  1.6125 -0.7640
18714SOL    HW268202   1.600   5.896   6.495 -0.6310  2.9115 -1.0837
18715SOL     OW68203   2.654   9.817   0.608  0.2260 -0.0383 -0.1666
18715SOL    HW168204   2.555   9.822   0.591  0.2547 -1.0589 -0.6665
18715SOL    HW268205   2.699   9.895   0.567 -0.5484  1.2557  1.3661
18716SOL     OW68206   0.404   7.262   7.228 -0.0659  0.1854  0.4680
18716SOL    HW168207   0.327   7.246   7.166 -0.1440 -0.4963  0.7357
18716SOL    HW268208   0.461   7.180   7.232  0.7317  0.7236  0.1934
18717SOL     OW68209   5.656   7.033   4.019 -0.8312  0.0282 -0.0230
18717SOL    HW168210   5.752   7.014   4.040 -0.5538  1.2777 -0.0899
18717SOL    HW268211   5.626   7.115   4.069 -1.6700  0.0173 -0.4918
18718SOL     OW68212   2.123   9.867   0.344  0.3615 -0.0024 -0.4166
18718SOL    HW168213   2.076   9.783   0.318  1.7622 -0.3295 -1.9573
18718SOL    HW268214   2.221   9.850   0.352  0.3266  0.8121  2.2021
18719SOL     OW68215   7.299   5.635   0.165 -0.3188 -0.0395  0.2294
18719SOL    HW168216   7.383   5.581   0.152 -0.9743 -0.8998 -0.5042
18719SOL    HW268217   7.323   5.729   0.187  0.8519 -0.7373  2.0478
18720SOL     OW68218   8.527   9.187   6.783  0.3977 -0.1180  0.8791
18720SOL    HW168219   8.551   9.140   6.868 -1.6472  0.4024  1.7518
18720SOL    HW268220   8.446   9.146   6.743 -0.0016  1.1119  0.3892
18721SOL     OW68221   6.271   8.110   3.117  0.2356  0.3628  0.0981
18721SOL    HW168222   6.308   8.201   3.136 -0.9884  1.0436 -0.7001
18721SOL    HW268223   6.217   8.079   3.195  0.3009  0.5064  0.2014
18722SOL     OW68224   8.610   6.009   2.127 -0.1181  0.0222 -0.4299
18722SOL    HW168225   8.585   5.938   2.193 -3.4866  0.3629 -1.2589
18722SOL    HW268226   8.680   5.973   2.065  0.9811 -1.2544  1.4787
18723SOL     OW68227   3.565   9.569   4.145 -0.0079  0.4125  0.1101
18723SOL    HW168228   3.517   9.581   4.232  1.8382 -0.3425  1.2400
18723SOL    HW268229   3.598   9.475   4.138  1.5750  1.0041 -0.5207
18724SOL     OW68230   2.362   4.478   6.373  0.3384 -0.1949 -0.1480
18724SOL    HW168231   2.381   4.576   6.382  0.3068 -0.2860  0.9895
18724SOL    HW268232   2.444   4.426   6.399  0.5179 -0.4673 -1.2262
18725SOL     OW68233   6.023   1.032   2.066 -0.1848  0.2864 -0.1812
18725SOL    HW168234   6.006   0.958   2.131  1.8597  0.5424  0.6770
18725SOL    HW268235   5.971   1.015   1.982 -0.2616 -1.7852  0.2644
18726SOL     OW68236   0.732   7.232   5.970  0.1522  0.6217  0.6314
18726SOL    HW168237   0.788   7.168   5.917  0.9251  0.4059  1.6861
18726SOL    HW268238   0.730   7.320   5.923  0.5676  0.3454  0.0848
18727SOL     OW68239   2.142   9.456   4.428  0.3071 -0.0610  0.5799
18727SOL    HW168240   2.179   9.456   4.521  0.6546  0.8493  0.4437
18727SOL    HW268241   2.129   9.362   4.398  0.1189 -0.3657  1.5812
18728SOL     OW68242   7.701   1.109   2.010  0.3083 -0.1674 -0.0038
18728SOL    HW168243   7.609   1.133   2.041  0.0400 -0.7916 -0.2926
18728SOL    HW268244   7.756   1.079   2.088  0.6417  1.3424  0.3517
18729SOL     OW68245   8.593   4.611   8.130 -0.1378 -0.0320 -0.0251
18729SOL    HW168246   8.543   4.626   8.216 -0.8931 -0.4587 -0.3922
18729SOL    HW268247   8.528   4.605   8.054  0.5399  0.4453 -0.6418
18730SOL     OW68248   9.194   2.872   4.485  0.3095  0.0566 -0.3684
18730SOL    HW168249   9.234   2.857   4.394 -0.4860  2.0716 -1.0886
18730SOL    HW268250   9.100   2.838   4.486  0.6360 -0.8475  0.0134
18731SOL     OW68251   8.342   7.948   6.273 -0.2595  0.0691  0.4321
18731SOL    HW168252   8.416   7.885   6.252 -1.9766 -2.2655  1.1259
18731SOL    HW268253   8.379   8.028   6.322  1.9942 -0.2077 -0.7498
18732SOL     OW68254   9.735   7.223   9.799 -0.0146 -0.5372  0.8065
18732SOL    HW168255   9.773   7.291   9.736 -2.6229  0.3656  0.1480
18732SOL    HW268256   9.717   7.138   9.749 -1.3185 -0.0908  0.5111
18733SOL     OW68257   1.192   1.322   4.505 -0.2586  0.2877  0.4699
18733SOL    HW168258   1.280   1.369   4.510 -0.9100  1.6269 -0.3033
18733SOL    HW268259   1.167   1.309   4.409  0.2322 -2.2933  0.6569
18734SOL     OW68260   0.591   4.980   8.402 -0.0639 -0.7509 -0.0833
18734SOL    HW168261   0.603   4.893   8.355 -0.0996 -1.0642  0.4937
18734SOL    HW268262   0.679   5.011   8.437 -0.0076 -0.4329 -0.4986
18735SOL     OW68263   6.188   1.041   9.419 -0.3855  0.3399 -0.2006
18735SOL    HW168264   6.105   1.097   9.411 -1.5153 -1.0316  1.6068
18735SOL    HW268265   6.227   1.050   9.510  1.0724  0.3942 -0.8038
18736SOL     OW68266   3.043   8.668   3.521  0.4961  0.3334 -0.2508
18736SOL    HW168267   3.030   8.587   3.465  0.9379 -1.1206  1.6887
18736SOL    HW268268   3.114   8.726   3.480  1.8778 -1.4262 -0.4321
18737SOL     OW68269   2.166   4.934   6.282  0.2689 -0.4526 -0.2067
18737SOL    HW168270   2.141   4.901   6.373  1.4839  1.3940  0.8329
18737SOL    HW268271   2.176   4.857   6.220 -1.7684 -1.6582  0.9084
18738SOL     OW68272   8.130   6.174   5.455  0.3333  0.5387 -0.1018
18738SOL    HW168273   8.185   6.233   5.396  0.7550 -0.0738 -0.3211
18738SOL    HW268274   8.187   6.136   5.527  0.1720 -0.0150 -0.2637
18739SOL     OW68275   2.823   0.879   0.497  0.9329  0.3346 -0.1440
18739SOL    HW168276   2.909   0.928   0.485  0.6918  0.9535  0.5739
18739SOL    HW268277   2.825   0.831   0.585 -0.1154  1.7828  0.7128
18740SOL     OW68278   3.137   1.805   1.776  0.3293  0.6489  0.2535
18740SOL    HW168279   3.140   1.785   1.678  1.8711  1.7388  0.0610
18740SOL    HW268280   3.203   1.747   1.824  0.4668  0.9925  0.4821
18741SOL     OW68281   9.453   1.919   1.116 -0.5120  0.6593  0.0378
18741SOL    HW168282   9.444   1.954   1.209 -1.3897 -1.0238  0.6080
18741SOL    HW268283   9.528   1.852   1.112 -1.5445 -0.5204 -0.0570
18742SOL     OW68284   2.587   4.049   4.392 -0.1490 -0.1420  0.4468
18742SOL    HW168285   2.640   3.974   4.432 -0.1630  0.3391  1.3756
18742SOL    HW268286   2.501   4.014   4.357  1.3296 -1.1960 -2.3278
18743SOL     OW68287   0.195   6.184   7.224 -0.3314 -0.3946  0.3049
18743SOL    HW168288   0.108   6.218   7.187  1.2620  1.1288 -2.1976
18743SOL    HW268289   0.186   6.087   7.247 -2.3339 -0.5629 -1.0712
18744SOL     OW68290   2.633   9.713   4.758 -0.0391 -0.7453  0.4704
18744SOL    HW168291   2.565   9.762   4.812  0.2026 -1.8513  1.8123
18744SOL    HW268292   2.588   9.663   4.685 -0.2439  1.8265 -1.2185
18745SOL     OW68293   6.999   5.866   0.530 -0.2660 -0.1396 -0.0783
18745SOL    HW168294   6.991   5.811   0.613 -1.3495 -0.4163 -0.3490
18745SOL    HW268295   7.084   5.843   0.483  1.3829  1.5102  1.9977
18746SOL     OW68296   3.110   5.278   4.327  0.7621 -0.4608  0.0552
18746SOL    HW168297   3.179   5.288   4.255 -0.0948 -2.0288 -1.0004
18746SOL    HW268298   3.093   5.368   4.368 -0.2067  0.8696 -3.0719
18747SOL     OW68299   9.495   2.595   3.577 -0.0933 -0.0311  0.4527
18747SOL    HW168300   9.454   2.651   3.649 -0.3898 -0.4152  0.5830
18747SOL    HW268301   9.587   2.568   3.604 -0.4148 -0.6458  0.9376
18748SOL     OW68302   4.007   8.162   1.547 -0.2227  0.5466 -0.2130
18748SOL    HW168303   3.982   8.094   1.478  2.1439  0.3429 -0.9309
18748SOL    HW268304   4.097   8.140   1.584  0.6870  3.3775 -0.6169
18749SOL     OW68305   3.571   8.486   3.131 -0.5264 -0.0260 -0.1393
18749SOL    HW168306   3.595   8.421   3.059 -0.2237 -0.2580  0.1681
18749SOL    HW268307   3.632   8.565   3.128 -2.0534  1.1221 -1.6751
18750SOL     OW68308   8.896   7.955   0.134  0.1607 -0.4907  0.3178
18750SOL    HW168309   8.944   7.937   0.049 -0.4399  0.1486 -0.1635
18750SOL    HW268310   8.857   8.047   0.132  1.9470  0.3660  2.1423
18751SOL     OW68311   8.891   0.247   6.594 -0.5147 -0.2359  0.2845
18751SOL    HW168312   8.966   0.263   6.659  0.2645  0.8988 -0.8624
18751SOL    HW268313   8.860   0.153   6.601  0.5134 -0.5113  1.3076
18752SOL     OW68314   4.864   1.671   8.015  0.0096  0.0982 -0.1529
18752SOL    HW168315   4.872   1.746   7.949  1.6889 -0.7827 -0.9979
18752SOL    HW268316   4.868   1.708   8.108 -1.2537  1.2439 -0.5375
18753SOL     OW68317   3.060   5.056   3.961 -0.0878 -0.2834 -0.6528
18753SOL    HW168318   2.995   5.095   3.896  0.3315  0.6270 -0.5352
18753SOL    HW268319   3.019   5.053   4.052  0.2161  0.8110 -0.4673
18754SOL     OW68320   8.889   3.308   2.256  0.1795  0.6422  0.0017
18754SOL    HW168321   8.939   3.388   2.223  1.3197  0.3541  0.9687
18754SOL    HW268322   8.881   3.241   2.182  0.8944  0.8597 -0.2823
18755SOL     OW68323   6.588   3.062   9.319 -0.3835 -0.1081 -0.2391
18755SOL    HW168324   6.517   3.006   9.278  1.1272 -1.6214 -0.8405
18755SOL    HW268325   6.587   3.153   9.277 -1.8529 -0.1517 -0.3247
18756SOL     OW68326   8.576   6.000   3.575 -0.6176 -0.1940  0.0395
18756SOL    HW168327   8.573   6.009   3.476  0.6429 -0.0885  0.0051
18756SOL    HW268328   8.544   5.909   3.601 -0.1134 -0.5422 -0.5332
18757SOL     OW68329   8.757   5.650   1.674  0.0741  0.4268  0.5649
18757SOL    HW168330   8.715   5.728   1.628 -0.5495  1.1979  2.4051
18757SOL    HW268331   8.846   5.676   1.711  1.7668 -0.8930 -2.3382
18758SOL     OW68332   2.646   3.578   3.476  0.2314  0.1881 -0.2402
18758SOL    HW168333   2.582   3.565   3.400  0.3474 -0.7962 -0.1831
18758SOL    HW268334   2.595   3.595   3.560 -0.0099 -1.2610 -0.0647
18759SOL     OW68335   9.911   4.081   9.513  0.2298  0.5144  0.9935
18759SOL    HW168336   9.988   4.038   9.466  0.0422  0.9287  0.2967
18759SOL    HW268337   9.933   4.177   9.532 -0.0791  0.6096  0.8732
18760SOL     OW68338   2.944   6.621   8.387  0.3967  0.2564 -0.1568
18760SOL    HW168339   2.943   6.585   8.294  1.1084  0.8350 -0.3963
18760SOL    HW268340   2.971   6.549   8.451  0.0296 -0.1082 -0.4196
18761SOL     OW68341   4.225   3.299   7.961 -0.1355  0.5326 -0.3676
18761SOL    HW168342   4.128   3.281   7.950  0.0782  0.2456 -1.7983
18761SOL    HW268343   4.278   3.240   7.900  0.8897  1.3854 -0.3260
18762SOL     OW68344   1.079   3.420   0.314  0.3662  0.1107  1.0447
18762SOL    HW168345   1.008   3.396   0.380  1.5991 -0.8147  2.0574
18762SOL    HW268346   1.121   3.336   0.278 -0.0511  0.6098 -0.6504
18763SOL     OW68347   8.699   9.361   6.999 -0.1703  0.1467  0.2076
18763SOL    HW168348   8.784   9.324   6.961 -0.3611 -0.2433  0.1494
18763SOL    HW268349   8.642   9.396   6.925  0.7372  2.1256  0.4207
18764SOL     OW68350   0.176   8.080   3.646 -0.1104 -0.1408 -0.0780
18764SOL    HW168351   0.240   8.062   3.571  1.3724  2.8140  0.4126
18764SOL    HW268352   0.148   8.176   3.645 -1.3664 -0.4332  2.1578
18765SOL     OW68353   7.333   1.884   3.926 -0.5121 -0.2835  0.7141
18765SOL    HW168354   7.301   1.841   4.010 -1.0645 -0.5172  0.3895
18765SOL    HW268355   7.259   1.938   3.886 -0.2157 -0.0778  0.4416
18766SOL     OW68356   9.069   6.018   2.114 -0.4629  0.6686  0.0193
18766SOL    HW168357   9.135   5.965   2.062 -0.6494 -1.1079  1.5551
18766SOL    HW268358   9.105   6.110   2.129 -0.8254  1.5968 -4.0520
18767SOL     OW68359   0.917   8.196   1.425  0.1920  0.4323 -0.1498
18767SOL    HW168360   0.979   8.272   1.403  0.4531  1.0430  2.5575
18767SOL    HW268361   0.846   8.190   1.355  2.6205  0.4446 -2.7129
18768SOL     OW68362   3.747   3.709   3.204  0.8207  0.1185  0.3404
18768SOL    HW168363   3.779   3.706   3.109  0.2925  1.4934  0.1145
18768SOL    HW268364   3.822   3.738   3.264  1.0373 -0.3436  0.2938
18769SOL     OW68365   4.016   5.236   5.192  0.2835  0.2351 -0.4871
18769SOL    HW168366   4.111   5.268   5.198 -0.7052  3.1949 -0.0807
18769SOL    HW268367   4.005   5.153   5.247  2.1681  0.9685  1.0507
18770SOL     OW68368   1.531   6.062   9.055 -0.1095  0.1510 -0.3162
18770SOL    HW168369   1.590   6.036   9.131 -0.8321  0.3882  0.3373
18770SOL    HW268370   1.460   5.992   9.042  0.5728 -0.3588 -1.3877
18771SOL     OW68371   3.338   0.177   7.713 -0.3054 -0.3750 -0.3415
18771SOL    HW168372   3.386   0.113   7.653 -2.1756 -1.3741 -0.8101
18771SOL    HW268373   3.290   0.245   7.656  0.8114  0.8044  0.1220
18772SOL     OW68374   0.642   2.402   4.545  0.1001  0.2858 -0.2209
18772SOL    HW168375   0.667   2.315   4.588  0.2112 -0.1738 -1.2262
18772SOL    HW268376   0.576   2.449   4.603 -1.5446 -1.4122 -0.6778
18773SOL     OW68377   8.779   8.824   5.077  0.3606  0.0455 -0.1732
18773SOL    HW168378   8.834   8.903   5.102  0.6251  0.0862 -0.8809
18773SOL    HW268379   8.830   8.766   5.013  1.5279 -2.4349  2.8527
18774SOL     OW68380   7.514   4.112   9.687  0.9202 -0.1806  0.0989
18774SOL    HW168381   7.457   4.075   9.760  0.8881  0.8623  0.6042
18774SOL    HW268382   7.467   4.189   9.644  0.8129 -0.9558 -1.2167
18775SOL     OW68383   0.197   8.425   8.274 -0.3341 -0.2322 -0.0616
18775SOL    HW168384   0.133   8.457   8.344 -2.1499 -1.2719 -1.2136
18775SOL    HW268385   0.188   8.326   8.264  0.8702 -0.2668 -0.8424
18776SOL     OW68386   7.246   6.643   1.955  0.2081 -0.5524  0.1376
18776SOL    HW168387   7.174   6.612   2.017  0.7073 -0.0166  0.9995
18776SOL    HW268388   7.266   6.739   1.972  0.5179 -0.4651 -0.6931
18777SOL     OW68389   4.141   8.193   8.998 -0.4678  0.1987 -0.3867
18777SOL    HW168390   4.158   8.176   9.095 -0.7166 -0.3419 -0.4413
18777SOL    HW268391   4.216   8.249   8.961 -0.5309  0.6708  0.1841
18778SOL     OW68392   3.528   8.637   1.148  0.0173 -0.2255 -0.4418
18778SOL    HW168393   3.442   8.662   1.104  1.4875  0.1131 -3.1895
18778SOL    HW268394   3.539   8.538   1.146 -1.4176 -0.4893  2.1297
18779SOL     OW68395   5.597   1.188   9.416  0.5308 -0.0363 -0.0049
18779SOL    HW168396   5.657   1.196   9.496  0.4561  3.0195 -0.2229
18779SOL    HW268397   5.649   1.207   9.333 -0.8872  3.6476 -0.1153
18780SOL     OW68398   4.808   5.060   1.113  0.4169  0.4182  0.0069
18780SOL    HW168399   4.816   5.158   1.095  0.8007  0.6275  1.2493
18780SOL    HW268400   4.770   5.014   1.033 -2.9206  2.0479  0.5854
18781SOL     OW68401   1.751   0.619   1.619 -0.2822  0.2014 -0.4118
18781SOL    HW168402   1.803   0.556   1.561  0.2689 -1.7145  2.0735
18781SOL    HW268403   1.654   0.594   1.618 -0.4357  0.8167 -1.3052
18782SOL     OW68404   7.147   9.078   4.906  0.5804  0.0598  0.1106
18782SOL    HW168405   7.154   9.012   4.981  0.3163  0.4226  0.4608
18782SOL    HW268406   7.057   9.123   4.910  0.2907 -0.4352 -0.8582
18783SOL     OW68407   1.752   2.229   7.773  0.0024  0.6427  0.1830
18783SOL    HW168408   1.731   2.151   7.714  1.8103  0.5947 -0.4254
18783SOL    HW268409   1.687   2.232   7.849 -0.4659 -1.0795 -0.1413
18784SOL     OW68410   0.618   6.819   1.990  0.0937  0.2498 -0.2872
18784SOL    HW168411   0.585   6.904   2.030  0.0105  0.0482  0.0823
18784SOL    HW268412   0.712   6.803   2.018  0.8359  1.3114 -2.1328
18785SOL     OW68413   1.851   9.291   9.557  0.1995 -0.2285  0.0823
18785SOL    HW168414   1.788   9.218   9.584 -0.2398  0.3887  0.7501
18785SOL    HW268415   1.806   9.353   9.493  0.2476  0.0067  0.2748
18786SOL     OW68416   9.540   9.161   8.357 -0.4975 -0.1451 -0.5378
18786SOL    HW168417   9.452   9.200   8.386  0.2639  2.6927 -1.8952
18786SOL    HW268418   9.533   9.129   8.263  0.2401  1.1488 -1.0341
18787SOL     OW68419   0.607   6.286   8.574  0.3483 -0.2201  0.0421
18787SOL    HW168420   0.517   6.306   8.613  0.1396 -0.2444 -0.4325
18787SOL    HW268421   0.598   6.268   8.477  0.9108  0.1179 -0.0742
18788SOL     OW68422   4.925   9.273   7.212  0.3197  0.5033 -0.4933
18788SOL    HW168423   4.990   9.347   7.202  1.5350 -0.1577  2.2293
18788SOL    HW268424   4.954   9.195   7.156  1.2134  0.6250 -0.1916
18789SOL     OW68425   9.953   1.100   3.338  0.2748 -0.7205  0.2376
18789SOL    HW168426   9.884   1.161   3.377 -0.1427 -0.7301 -0.4704
18789SOL    HW268427  10.041   1.147   3.332 -0.3798  0.3024 -1.6400
18790SOL     OW68428   8.297   9.148   4.481  0.1323  0.2967 -0.2361
18790SOL    HW168429   8.206   9.186   4.465 -0.2277 -0.3207  0.2705
18790SOL    HW268430   8.291   9.076   4.551  0.3600 -2.3436 -2.8045
18791SOL     OW68431   8.408   5.936   0.216 -0.2069  0.0913 -0.0111
18791SOL    HW168432   8.333   5.934   0.150 -0.9576 -0.0611  0.8214
18791SOL    HW268433   8.370   5.927   0.309  0.7659  0.8311  0.4736
18792SOL     OW68434   3.549   4.400   3.544  0.3132  0.2136 -0.1150
18792SOL    HW168435   3.529   4.317   3.491  0.2229  0.0499  0.1800
18792SOL    HW268436   3.502   4.396   3.632  0.5566  0.4390  0.0246
18793SOL     OW68437   8.057   1.104   2.374  0.4433 -0.1690  0.0166
18793SOL    HW168438   7.968   1.082   2.333 -0.1870 -0.6766  1.6149
18793SOL    HW268439   8.098   1.020   2.410 -0.4141  0.7047  3.1120
18794SOL     OW68440   1.264   1.275   1.464 -0.4667  0.3399 -0.4119
18794SOL    HW168441   1.304   1.223   1.539  0.4515  2.2598  0.4592
18794SOL    HW268442   1.214   1.213   1.403  0.6123 -1.5410  0.5839
18795SOL     OW68443   6.929   2.263   0.067 -0.4453 -0.1072  0.1763
18795SOL    HW168444   6.965   2.235   0.156  0.1378 -1.9518 -0.6213
18795SOL    HW268445   6.829   2.259   0.069 -0.4786  0.7879  1.0292
18796SOL     OW68446   5.319   2.433   8.473 -0.6593 -0.0537 -0.1714
18796SOL    HW168447   5.345   2.527   8.453 -1.6950 -0.1864 -2.2149
18796SOL    HW268448   5.310   2.381   8.388  1.6094 -2.4961  0.9809
18797SOL     OW68449   2.882   4.209   2.556  0.2610  0.2555  0.3372
18797SOL    HW168450   2.950   4.195   2.483 -1.1183  0.5768 -1.0275
18797SOL    HW268451   2.889   4.303   2.590 -0.2755  0.6284 -0.5906
18798SOL     OW68452   7.007   2.713   4.445  0.1659 -0.1599 -0.6866
18798SOL    HW168453   7.060   2.698   4.528  1.3550 -1.3370 -1.6148
18798SOL    HW268454   6.915   2.744   4.468  0.4604 -0.5497  1.0557
18799SOL     OW68455   9.050   1.627   4.745 -0.0862  0.4766 -0.7179
18799SOL    HW168456   9.006   1.643   4.657  1.2472  1.2877 -1.2458
18799SOL    HW268457   9.143   1.594   4.731 -0.3082 -0.6768  0.3907
18800SOL     OW68458   3.838   2.233   8.367 -0.6653  0.0191 -0.2126
18800SOL    HW168459   3.799   2.259   8.455 -0.5130  1.3281 -0.5255
18800SOL    HW268460   3.937   2.246   8.368 -0.4292 -1.6829  0.0118
18801SOL     OW68461   3.113   7.664   3.086 -0.1918 -0.1513 -0.1064
18801SOL    HW168462   3.166   7.606   3.024 -1.0365  0.2214 -1.2047
18801SOL    HW268463   3.102   7.617   3.174  0.9856 -0.7046 -0.2448
18802SOL     OW68464   1.116   3.290   9.093 -0.3689 -0.4095  0.0619
18802SOL    HW168465   1.201   3.250   9.059 -0.3948 -1.3933  1.0992
18802SOL    HW268466   1.047   3.290   9.021  1.2182  2.6859 -1.5574
18803SOL     OW68467   0.313   2.613   1.855  0.8572  0.5862  0.3837
18803SOL    HW168468   0.385   2.655   1.910  1.3333 -2.0662  1.8789
18803SOL    HW268469   0.226   2.660   1.873  1.6765  2.0018  0.7078
18804SOL     OW68470   0.485   6.167   8.347  0.1124  0.1608 -0.1677
18804SOL    HW168471   0.453   6.123   8.431 -1.0762  0.9044 -0.2316
18804SOL    HW268472   0.544   6.103   8.297 -0.4024 -0.8349  0.4724
18805SOL     OW68473   9.830   1.148   1.233  0.0748  0.0243 -0.0714
18805SOL    HW168474   9.777   1.093   1.168 -2.1609  1.2055  0.7061
18805SOL    HW268475   9.846   1.095   1.316 -1.2113  0.1898  0.2882
18806SOL     OW68476   4.595   4.034   0.325 -0.2717 -0.1607  0.8902
18806SOL    HW168477   4.527   3.962   0.314 -1.4960  1.2224 -1.0371
18806SOL    HW268478   4.549   4.123   0.329  1.3906  0.7766 -0.2355
18807SOL     OW68479   0.603   3.092   5.275  0.2778  0.0125  0.4474
18807SOL    HW168480   0.528   3.048   5.226 -0.2575  1.4445 -0.0311
18807SOL    HW268481   0.581   3.095   5.373 -0.3827  0.6221  0.2805
18808SOL     OW68482   9.088   7.164   1.333 -0.0840  0.3110 -0.1742
18808SOL    HW168483   9.122   7.085   1.282 -0.9999 -1.8842  2.4751
18808SOL    HW268484   8.998   7.190   1.298 -1.6672 -2.5220  1.5508
18809SOL     OW68485   7.701   5.185   9.824  0.1605 -0.0672  0.0675
18809SOL    HW168486   7.653   5.114   9.875 -1.8972  0.6889 -0.7626
18809SOL    HW268487   7.758   5.239   9.886 -2.0926  0.6734  1.5667
18810SOL     OW68488   8.821   1.752   7.283 -0.1194  0.3112  0.1783
18810SOL    HW168489   8.840   1.763   7.381 -1.3406  0.2374  0.4237
18810SOL    HW268490   8.728   1.719   7.270 -0.1218  0.7781 -1.0445
18811SOL     OW68491   4.154   1.321   6.606  0.4074 -0.1743  0.3675
18811SOL    HW168492   4.143   1.348   6.702  0.0985  1.4881 -0.1168
18811SOL    HW268493   4.171   1.403   6.551  0.9037 -1.1610 -0.9507
18812SOL     OW68494   4.391   8.684   0.491 -0.3297  0.1382  0.0314
18812SOL    HW168495   4.479   8.727   0.511 -0.6669  0.5415  0.7098
18812SOL    HW268496   4.383   8.599   0.542 -0.7360  0.6087  0.7750
18813SOL     OW68497   6.378   4.943   0.903  0.0722  0.2565  0.1154
18813SOL    HW168498   6.318   4.870   0.936  0.4780  0.6406  1.7455
18813SOL    HW268499   6.456   4.953   0.965  0.9379  0.9134 -1.0539
18814SOL     OW68500   9.717   8.737   3.921  0.3085  0.2067  0.3860
18814SOL    HW168501   9.771   8.777   3.994  0.7171 -1.6565  1.1254
18814SOL    HW268502   9.637   8.795   3.903  0.7369  1.1893  1.5945
18815SOL     OW68503   0.396   2.674   1.144  0.2618 -0.4355 -0.4265
18815SOL    HW168504   0.345   2.694   1.228 -0.9144 -0.1477 -1.1935
18815SOL    HW268505   0.410   2.759   1.092  1.4646 -0.5280 -0.2485
18816SOL     OW68506   8.125   1.637   0.509 -0.0971 -1.0121 -0.0421
18816SOL    HW168507   8.080   1.599   0.428 -0.1182 -0.1117 -0.4594
18816SOL    HW268508   8.062   1.700   0.555  0.7055  0.2239 -0.6117
18817SOL     OW68509   5.625   8.922   3.300  0.2914  0.2923  0.3088
18817SOL    HW168510   5.679   9.002   3.274 -1.0269  1.3853  0.9167
18817SOL    HW268511   5.537   8.951   3.337 -1.2639 -1.4987 -1.8338
18818SOL     OW68512   0.067   8.663   7.214 -0.6665 -0.1050  0.0461
18818SOL    HW168513   0.033   8.747   7.171 -4.5831 -0.9106  1.4019
18818SOL    HW268514   0.132   8.687   7.286 -1.9294  1.8177  0.6006
18819SOL     OW68515   8.595   4.336   0.400  0.2785  0.4937 -0.3838
18819SOL    HW168516   8.652   4.394   0.459 -0.8125 -0.8212  2.0419
18819SOL    HW268517   8.641   4.248   0.386 -0.6815 -0.1951  0.7451
18820SOL     OW68518   0.034   8.821   1.221 -0.1590 -0.2305 -0.3525
18820SOL    HW168519   0.027   8.808   1.122  0.4439  0.7922 -0.5327
18820SOL    HW268520   0.112   8.880   1.242  0.1037 -0.9679  0.7769
18821SOL     OW68521   6.671   0.224   8.947  0.0353  0.1698 -0.3243
18821SOL    HW168522   6.753   0.256   8.899  0.3560 -1.7191 -1.0978
18821SOL    HW268523   6.599   0.293   8.941  0.9855  1.1014 -1.1772
18822SOL     OW68524   4.975   8.411   5.262 -0.1211 -0.2058  0.2907
18822SOL    HW168525   4.980   8.312   5.245 -0.9846 -0.1144 -0.5748
18822SOL    HW268526   4.899   8.449   5.209 -0.5985  0.7089  1.6061
18823SOL     OW68527   8.198   8.825   3.726 -0.4241  0.2171 -0.7528
18823SOL    HW168528   8.098   8.836   3.728 -0.4536 -0.3196  0.7136
18823SOL    HW268529   8.221   8.735   3.690 -0.5040 -0.1810  0.1860
18824SOL     OW68530   1.110   4.826   4.446  0.2294 -0.0189  0.4206
18824SOL    HW168531   1.163   4.773   4.513  1.1546 -0.1468 -0.4044
18824SOL    HW268532   1.170   4.888   4.397  0.0901 -1.9080 -2.2467
18825SOL     OW68533   1.167   1.052   7.977 -0.0167  0.4244  0.3057
18825SOL    HW168534   1.130   1.007   7.896 -1.3214  1.4679  0.3002
18825SOL    HW268535   1.097   1.055   8.048 -0.6312  4.0096 -0.3314
18826SOL     OW68536   9.837   3.514   1.435 -0.5010  0.0019 -0.9527
18826SOL    HW168537   9.772   3.443   1.464  0.4053 -0.5300 -0.1693
18826SOL    HW268538   9.789   3.587   1.387 -1.4847 -1.0525 -1.5888
18827SOL     OW68539   9.791   3.815   1.729  0.1190  0.0034 -0.5623
18827SOL    HW168540   9.853   3.788   1.803 -1.8484  1.1777  1.5780
18827SOL    HW268541   9.794   3.915   1.718  0.0222 -0.1182 -1.7239
18828SOL     OW68542   8.695   0.429   7.572 -0.5466 -0.4594  0.2729
18828SOL    HW168543   8.618   0.409   7.633  0.9655  1.2561  2.8353
18828SOL    HW268544   8.778   0.390   7.610  0.2461 -0.4421 -1.3891
18829SOL     OW68545   6.103   4.845   7.914  0.9409 -0.1551  0.4600
18829SOL    HW168546   6.061   4.755   7.923  0.0976  0.2464  0.6980
18829SOL    HW268547   6.173   4.857   7.984  1.5712 -0.8984 -0.0392
18830SOL     OW68548   2.356   6.110   4.482  0.6792  0.4216  0.4474
18830SOL    HW168549   2.387   6.109   4.577 -0.1241  0.4543  0.7106
18830SOL    HW268550   2.359   6.203   4.447 -2.1229  0.9423  1.4708
18831SOL     OW68551   0.460   0.974   1.535  0.0999 -0.0845  0.1090
18831SOL    HW168552   0.530   0.903   1.536  1.0604  0.8626  1.3672
18831SOL    HW268553   0.503   1.063   1.523 -1.1543  0.2522 -2.1753
18832SOL     OW68554   2.513   7.999   9.018 -0.0371 -0.4452  0.1391
18832SOL    HW168555   2.451   8.006   9.097 -0.8549 -0.7249 -0.4710
18832SOL    HW268556   2.459   7.986   8.935  0.8131  0.0549 -0.4971
18833SOL     OW68557   3.465   4.633   0.628 -0.4099  0.1759 -0.1974
18833SOL    HW168558   3.447   4.545   0.583 -3.9600  0.0953  1.2729
18833SOL    HW268559   3.443   4.708   0.566 -2.6247  0.0355  0.3796
18834SOL     OW68560   1.628   6.873   7.095  0.2262 -0.1946  0.3716
18834SOL    HW168561   1.690   6.822   7.035  0.1259  1.0457 -0.8003
18834SOL    HW268562   1.645   6.846   7.190  1.7899 -0.6954 -0.0232
18835SOL     OW68563   8.067   6.049   1.651 -0.1931 -0.0329  0.3257
18835SOL    HW168564   8.142   6.071   1.714 -0.1994  1.4057 -0.1645
18835SOL    HW268565   8.007   6.128   1.641  0.4393  0.1466 -2.3960
18836SOL     OW68566   9.970   3.147   4.708 -0.6422  0.6230 -0.2240
18836SOL    HW168567   9.954   3.245   4.714 -0.8734  0.6229 -0.7849
18836SOL    HW268568   9.920   3.110   4.629  0.5071  0.2827 -0.8082
18837SOL     OW68569   4.603   0.710   5.130  0.1944  0.2505  0.8141
18837SOL    HW168570   4.508   0.681   5.139 -0.2638  1.4369 -0.0072
18837SOL    HW268571   4.626   0.773   5.204  0.1936  0.3484  0.7315
18838SOL     OW68572   7.764   1.220   2.626  0.2214 -0.0195 -0.2633
18838SOL    HW168573   7.750   1.224   2.527  1.4283  0.1915 -0.4367
18838SOL    HW268574   7.784   1.126   2.653 -0.4063 -0.1275 -0.1800
18839SOL     OW68575   7.600   9.320   6.436 -0.2534 -0.1403 -0.0770
18839SOL    HW168576   7.548   9.241   6.404  1.6813 -1.5417  0.1325
18839SOL    HW268577   7.679   9.289   6.488  0.3820  1.9612  0.2647
18840SOL     OW68578   6.181   2.615   9.876  0.2662 -0.3646  0.2630
18840SOL    HW168579   6.154   2.638   9.970 -0.0830  1.2133 -0.2113
18840SOL    HW268580   6.129   2.535   9.846 -0.6156 -0.0729  0.9511
18841SOL     OW68581   1.213   5.362   2.922 -0.1856 -0.2794  0.1047
18841SOL    HW168582   1.153   5.442   2.921 -1.3919 -1.1647  0.6480
18841SOL    HW268583   1.256   5.354   3.011  2.4453  1.5721 -0.9323
18842SOL     OW68584   3.955   1.826   7.013 -0.0914 -0.0816 -0.0707
18842SOL    HW168585   3.998   1.767   7.081  1.7185  0.3333 -0.8424
18842SOL    HW268586   3.980   1.921   7.031 -0.8056  0.1797 -0.4461
18843SOL     OW68587   7.642   9.051   2.631  0.2300  0.3086 -0.3062
18843SOL    HW168588   7.570   8.983   2.648 -0.6810  1.2116 -0.4574
18843SOL    HW268589   7.649   9.067   2.533  0.8739 -0.0138 -0.3156
18844SOL     OW68590   1.599   9.601   1.772  0.1599 -0.5084 -0.4270
18844SOL    HW168591   1.662   9.531   1.807  0.5351  0.7453  1.4504
18844SOL    HW268592   1.637   9.641   1.689  1.1157 -0.8301 -0.1512
18845SOL     OW68593   0.660   2.555   4.915 -0.1444  0.1092  0.0619
18845SOL    HW168594   0.665   2.460   4.881  2.5985  0.1104  0.3520
18845SOL    HW268595   0.686   2.557   5.011 -2.7343  0.8463  0.7750
18846SOL     OW68596   9.542   8.144   4.361 -0.3402 -0.1591  0.1319
18846SOL    HW168597   9.558   8.054   4.400 -2.3050 -0.9545 -0.8127
18846SOL    HW268598   9.497   8.202   4.429 -2.1214 -0.9769 -0.3078
18847SOL     OW68599   9.086   2.194   5.793 -0.0319  0.2313  0.0173
18847SOL    HW168600   9.089   2.095   5.807  1.0055  0.0659 -1.3066
18847SOL    HW268601   9.169   2.224   5.747 -0.6233  1.6371 -0.1698
18848SOL     OW68602   3.040   3.535   3.318  0.1569  0.3745 -0.1909
18848SOL    HW168603   2.953   3.577   3.342 -0.8453 -1.1926 -1.0035
18848SOL    HW268604   3.035   3.436   3.334  1.4038  0.1180 -1.3172
18849SOL     OW68605   0.154   7.045   2.818  0.5056  0.0529 -0.0710
18849SOL    HW168606   0.149   7.001   2.908  0.7933 -0.2924 -0.2234
18849SOL    HW268607   0.191   6.981   2.751  0.1871  0.2747 -0.4623
18850SOL     OW68608   7.917   2.525   8.631 -0.4899  0.0292 -0.2854
18850SOL    HW168609   7.999   2.583   8.636  0.5469 -1.3640 -1.1235
18850SOL    HW268610   7.838   2.582   8.607 -0.2430  1.8091  2.7757
18851SOL     OW68611   4.647   4.855   6.444 -0.3404  0.5474 -0.6084
18851SOL    HW168612   4.671   4.865   6.347 -0.8889  0.7014 -0.7347
18851SOL    HW268613   4.711   4.792   6.488  1.1155  2.0051 -0.5931
18852SOL     OW68614   6.109   1.037   6.304 -0.0742 -0.2621 -1.0466
18852SOL    HW168615   6.183   1.099   6.276  0.6293 -1.5772 -2.2040
18852SOL    HW268616   6.072   0.991   6.223  0.0532 -2.0338 -0.1326
18853SOL     OW68617   4.932   7.267   6.892 -0.4982  0.5536  0.3453
18853SOL    HW168618   4.996   7.199   6.856 -0.9882  0.5432 -0.5133
18853SOL    HW268619   4.845   7.223   6.915 -1.1483  1.0359 -1.1194
18854SOL     OW68620   7.150   7.057   3.665  0.1021  0.0493  0.8140
18854SOL    HW168621   7.159   7.100   3.755 -0.8311  1.4749  0.2400
18854SOL    HW268622   7.223   6.989   3.653  0.6117  0.3020  2.3811
18855SOL     OW68623   3.017   3.842   5.736 -0.2636 -0.4691 -0.0345
18855SOL    HW168624   3.112   3.860   5.710 -0.4952  1.8788  0.5922
18855SOL    HW268625   2.958   3.860   5.658 -0.4204  0.6393  0.3367
18856SOL     OW68626   1.386   2.347   6.263  0.4730  0.2053 -0.0805
18856SOL    HW168627   1.294   2.309   6.273  0.5983 -0.6523 -1.9653
18856SOL    HW268628   1.382   2.447   6.270 -0.6157  0.1794 -0.2406
18857SOL     OW68629   1.864   1.066   3.181  0.3585  0.2732 -0.1627
18857SOL    HW168630   1.936   1.015   3.228  1.2265  2.5018  1.0120
18857SOL    HW268631   1.788   1.082   3.244  1.3507  2.9192  0.4281
18858SOL     OW68632   9.315   3.458   8.004 -0.2109 -0.4436 -0.3620
18858SOL    HW168633   9.383   3.530   8.021 -0.6081 -0.3764  0.9497
18858SOL    HW268634   9.296   3.454   7.906  0.6484  0.4867 -0.5778
18859SOL     OW68635   9.646   6.775  10.037  0.4265 -0.2124  1.0371
18859SOL    HW168636   9.551   6.802  10.049  0.1087 -1.7177  2.0581
18859SOL    HW268637   9.702   6.818  10.109 -0.1113 -2.3491  2.7899
18860SOL     OW68638   1.089   0.895   9.213  0.2780 -0.9390 -0.0222
18860SOL    HW168639   1.087   0.914   9.312  0.1618  0.0165 -0.2099
18860SOL    HW268640   1.041   0.967   9.164  1.2927 -0.8257 -0.8766
18861SOL     OW68641   9.632   9.983   7.223  0.0058 -0.3736  0.3506
18861SOL    HW168642   9.658   9.982   7.319  1.1713 -0.6404  0.0401
18861SOL    HW268643   9.696   9.926   7.171 -0.0993  0.4622 -0.7010
18862SOL     OW68644   5.966   9.616   8.222 -0.0431  0.7185  0.5507
18862SOL    HW168645   6.022   9.540   8.255  0.9168  0.7932 -0.8849
18862SOL    HW268646   6.011   9.703   8.242  0.3547  0.7793 -0.6000
18863SOL     OW68647   2.095   5.195   1.425  0.2425  0.3697  0.2880
18863SOL    HW168648   2.104   5.143   1.340  0.1372 -2.7890  2.1265
18863SOL    HW268649   2.186   5.221   1.458  0.3313  0.9435 -0.4175
18864SOL     OW68650   2.224   1.552   6.547 -0.2498  0.1659  0.2247
18864SOL    HW168651   2.135   1.517   6.574 -0.6669  0.4092 -0.8287
18864SOL    HW268652   2.217   1.597   6.458  0.9892 -0.1398 -0.0388
18865SOL     OW68653   2.221   6.637   4.275 -0.0378 -0.2842  0.5172
18865SOL    HW168654   2.207   6.619   4.373 -0.2148  0.8534  0.7175
18865SOL    HW268655   2.149   6.699   4.243  0.1025 -0.5495 -0.2981
18866SOL     OW68656   2.427   9.531   8.765  0.1008 -0.1557 -0.0571
18866SOL    HW168657   2.359   9.592   8.806 -0.4621 -0.5855 -0.3384
18866SOL    HW268658   2.388   9.440   8.754  1.6152 -1.1377  2.3066
18867SOL     OW68659   6.063   9.491   7.045  0.0654  0.9348 -0.1792
18867SOL    HW168660   6.036   9.485   6.949  0.8304  3.0282 -0.5505
18867SOL    HW268661   6.152   9.448   7.057 -0.3393  0.0632 -0.2703
18868SOL     OW68662   1.173   5.714   3.073 -0.7428 -0.1388  0.3666
18868SOL    HW168663   1.261   5.724   3.026 -0.0834  0.1035  1.6284
18868SOL    HW268664   1.116   5.649   3.022  0.4132 -0.8120 -0.1102
18869SOL     OW68665   3.944   2.188   6.969  0.1741  0.1941  0.0812
18869SOL    HW168666   4.043   2.171   6.973 -0.1301 -1.4941  1.1252
18869SOL    HW268667   3.926   2.269   6.914  2.0808 -0.0952 -1.0025
18870SOL     OW68668   7.070   5.300   1.323  0.5519 -0.1847 -0.4588
18870SOL    HW168669   7.058   5.341   1.233  0.3407  1.3231  0.2468
18870SOL    HW268670   6.982   5.289   1.368  0.7792  0.3861  0.1364
18871SOL     OW68671   4.399   7.999   7.464  0.1272 -0.0296  0.2670
18871SOL    HW168672   4.339   7.936   7.514 -0.4763  0.9196  0.7649
18871SOL    HW268673   4.441   8.062   7.529 -0.0604  0.7175 -0.3320
18872SOL     OW68674   2.374   2.877   1.430  0.1743  0.2035 -0.3007
18872SOL    HW168675   2.392   2.826   1.514  1.2995 -1.9581 -1.7823
18872SOL    HW268676   2.409   2.970   1.438 -0.2787  0.2057  1.8242
18873SOL     OW68677   7.237   2.676   2.171 -0.1787  0.6098  0.0845
18873SOL    HW168678   7.144   2.690   2.205 -0.1569 -0.1206  0.4587
18873SOL    HW268679   7.299   2.743   2.213 -0.3454  0.4012  0.6709
18874SOL     OW68680   0.055   8.322   4.405  0.3523  0.6550  0.6319
18874SOL    HW168681   0.096   8.400   4.453  2.1449  0.5291 -0.6535
18874SOL    HW268682   0.127   8.257   4.380 -0.8551 -0.3493 -0.2737
18875SOL     OW68683   3.299   4.702   6.309 -0.2572 -0.2748  0.1497
18875SOL    HW168684   3.391   4.663   6.319  0.4882  1.5173  0.3411
18875SOL    HW268685   3.234   4.644   6.359  1.1079 -0.2722  2.0004
18876SOL     OW68686   8.586   7.307   3.586  0.1213  0.8603  0.0249
18876SOL    HW168687   8.633   7.389   3.554  2.6896 -0.4973  0.1532
18876SOL    HW268688   8.542   7.262   3.508 -1.5693  2.4839  0.0055
18877SOL     OW68689   3.849   8.163   8.400 -0.1006  0.2744 -0.1795
18877SOL    HW168690   3.889   8.134   8.312 -1.4278 -0.0172 -0.6924
18877SOL    HW268691   3.785   8.093   8.432 -0.8133  1.1217  0.2469
18878SOL     OW68692   0.242   8.662   6.276 -0.3513  0.8885 -0.4133
18878SOL    HW168693   0.178   8.686   6.204 -1.0066  1.8794  0.4762
18878SOL    HW268694   0.336   8.676   6.244 -0.5507 -1.1053 -1.9042
18879SOL     OW68695   9.315   5.812   5.071 -0.2562 -0.0517  0.5395
18879SOL    HW168696   9.300   5.731   5.128 -0.7213  0.3286  0.9589
18879SOL    HW268697   9.305   5.894   5.126  0.5152  0.2903  0.1757
18880SOL     OW68698   0.578   3.827   1.876  0.1476 -0.7084  0.3738
18880SOL    HW168699   0.565   3.741   1.826  0.0531  0.2732 -1.3075
18880SOL    HW268700   0.662   3.822   1.929  0.4508 -1.6295 -0.1848
18881SOL     OW68701   7.827   9.991   5.860  0.4002  0.4585  0.1116
18881SOL    HW168702   7.854  10.026   5.771  1.5322  1.2598  0.7594
18881SOL    HW268703   7.807  10.067   5.922 -2.7199 -0.0998 -0.1268
18882SOL     OW68704   4.294   5.816   1.355 -0.4650 -0.1820 -0.0309
18882SOL    HW168705   4.240   5.769   1.284 -1.7479  0.2080  0.6762
18882SOL    HW268706   4.284   5.767   1.442 -0.4507  0.4590  0.3279
18883SOL     OW68707   9.375   6.865   7.239  0.0231 -0.2694  0.1904
18883SOL    HW168708   9.285   6.827   7.217  0.1818 -0.9212  0.6613
18883SOL    HW268709   9.401   6.837   7.332  0.6453  0.0405  0.1101
18884SOL     OW68710   2.545   0.600   5.969 -0.5920 -0.2681  0.0562
18884SOL    HW168711   2.485   0.673   6.002 -1.2123 -0.8075  0.1341
18884SOL    HW268712   2.575   0.620   5.876 -0.9148 -0.0145  0.0084
18885SOL     OW68713   5.023   4.883   0.212  0.5992  0.9402 -0.1046
18885SOL    HW168714   5.075   4.868   0.296 -1.5731 -2.1687  0.8224
18885SOL    HW268715   5.060   4.826   0.139  1.3674  2.2789 -0.7747
18886SOL     OW68716   9.750   4.438   3.323  0.0142  0.7377 -0.0540
18886SOL    HW168717   9.801   4.446   3.237  1.2702  0.1278  0.6195
18886SOL    HW268718   9.779   4.510   3.386 -0.4961  0.8387  0.0661
18887SOL     OW68719   9.873   4.959   4.277  0.6905  0.0974  0.2465
18887SOL    HW168720   9.943   4.936   4.209  2.4480 -0.1120  2.1006
18887SOL    HW268721   9.866   4.885   4.344 -1.3768  0.0904  0.0617
18888SOL     OW68722   3.430   3.603   3.973 -0.4537 -0.4015  0.4362
18888SOL    HW168723   3.330   3.597   3.972 -0.4967 -0.0232  1.4665
18888SOL    HW268724   3.464   3.578   4.064  0.3358  0.2668  0.3308
18889SOL     OW68725   2.857   3.954   0.438 -0.4648 -0.6135 -0.0582
18889SOL    HW168726   2.885   4.038   0.391  0.2605 -1.2546 -0.7967
18889SOL    HW268727   2.782   3.974   0.501  0.3527  0.7625  0.4955
18890SOL     OW68728   4.751   6.283   7.969  0.4932  0.0640 -0.4655
18890SOL    HW168729   4.718   6.327   8.053 -0.6000 -1.1985 -0.2238
18890SOL    HW268730   4.676   6.276   7.904  0.6169 -1.6181 -0.4332
18891SOL     OW68731   1.104   5.354   4.256 -0.5541 -0.3807  0.3973
18891SOL    HW168732   1.124   5.412   4.335  3.2359 -3.1893  1.6597
18891SOL    HW268733   1.156   5.387   4.177  0.1308 -0.8695  0.6299
18892SOL     OW68734   7.958   7.354   0.199 -0.1304  0.3520  0.6622
18892SOL    HW168735   7.967   7.280   0.266  1.3061  0.0091  0.1050
18892SOL    HW268736   8.004   7.328   0.114  1.1574  2.2442  0.7538
18893SOL     OW68737   4.026   3.123   5.345  0.1609 -0.1893  0.1192
18893SOL    HW168738   3.979   3.196   5.296 -1.0448 -1.2014 -0.2626
18893SOL    HW268739   4.116   3.106   5.303  0.5880  1.2768  0.4192
18894SOL     OW68740   2.405   1.657   9.640 -0.0086  0.2513 -0.3465
18894SOL    HW168741   2.421   1.714   9.559 -0.1491  0.0739 -0.5023
18894SOL    HW268742   2.358   1.573   9.612 -0.4418  0.3816 -0.0158
18895SOL     OW68743   4.213   5.939   9.970  0.2872  0.3211 -0.2315
18895SOL    HW168744   4.233   5.841   9.965 -0.0084  0.2288  0.2744
18895SOL    HW268745   4.267   5.980  10.043  1.9323  0.9421 -1.7634
18896SOL     OW68746   1.589   2.450   2.442 -0.6288  0.1139  0.1251
18896SOL    HW168747   1.578   2.353   2.462  0.7894  0.2231  1.5117
18896SOL    HW268748   1.529   2.503   2.502  1.1754  0.2672  1.8162
18897SOL     OW68749   8.192   0.776   4.326 -0.5500 -0.1012 -0.2630
18897SOL    HW168750   8.270   0.824   4.285 -0.2989 -0.8895 -0.7213
18897SOL    HW268751   8.222   0.686   4.358 -0.3076  1.2099  3.3621
18898SOL     OW68752   7.704   3.913   0.369 -0.1784 -0.5618 -0.1741
18898SOL    HW168753   7.780   3.923   0.433 -0.3811  0.0214 -0.0199
18898SOL    HW268754   7.730   3.947   0.279 -0.9332  1.5693  0.4007
18899SOL     OW68755   9.363   4.091   6.670 -0.2102  0.5240  0.0986
18899SOL    HW168756   9.401   4.168   6.618  0.4026  1.0003  1.2576
18899SOL    HW268757   9.263   4.099   6.672 -0.1461  1.3196  0.2647
18900SOL     OW68758   8.030   5.798   1.556 -0.1703  0.1337 -0.8858
18900SOL    HW168759   8.089   5.787   1.476 -0.1269 -0.1420 -0.8174
18900SOL    HW268760   8.050   5.886   1.600  3.0548 -1.6224  1.4176
18901SOL     OW68761   0.832   5.861   9.952  0.1911  0.0094  0.1166
18901SOL    HW168762   0.912   5.800   9.956 -1.6621 -2.4716  0.4874
18901SOL    HW268763   0.813   5.897  10.043  1.0784  0.9139 -0.0396
18902SOL     OW68764   6.495   0.936   8.708  0.5729  0.3606 -0.1712
18902SOL    HW168765   6.445   1.022   8.721  0.3185  0.4187 -1.4503
18902SOL    HW268766   6.525   0.929   8.613  0.4155 -1.0687 -0.1298
18903SOL     OW68767   4.733   0.567   4.601 -0.2248  0.0266 -0.6268
18903SOL    HW168768   4.706   0.592   4.694  0.9927  1.4072 -0.6325
18903SOL    HW268769   4.734   0.467   4.593  1.7712 -0.1890  1.5110
18904SOL     OW68770   6.545   0.014   5.894 -0.4342 -0.1838  0.1645
18904SOL    HW168771   6.465   0.071   5.913  0.1493  1.5612 -2.2766
18904SOL    HW268772   6.606   0.015   5.973 -0.2519  2.9911  0.0610
18905SOL     OW68773   8.831   9.580   7.691 -0.2890  0.1253  0.2133
18905SOL    HW168774   8.866   9.670   7.665  2.1491 -1.0453 -0.6275
18905SOL    HW268775   8.842   9.566   7.789  2.3964 -0.5407 -0.1553
18906SOL     OW68776   4.945   2.255   8.415  0.0266  0.1253 -0.5351
18906SOL    HW168777   4.963   2.325   8.485  1.3576  0.6544 -1.4014
18906SOL    HW268778   4.859   2.210   8.436  0.1506  0.6351  1.1788
18907SOL     OW68779   4.200   7.459   9.913 -0.0301  0.2400 -0.7150
18907SOL    HW168780   4.260   7.537   9.926  0.3934  0.5623 -4.1812
18907SOL    HW268781   4.108   7.490   9.889 -0.2143 -0.3156 -0.7488
18908SOL     OW68782   8.519   2.079   9.956  0.2553 -0.2528 -0.5472
18908SOL    HW168783   8.477   2.170   9.963  0.8434  0.0953 -1.4112
18908SOL    HW268784   8.448   2.010   9.945 -0.1118  0.3337 -2.0049
18909SOL     OW68785   6.655   5.349   7.744  0.0319  0.0128  0.4396
18909SOL    HW168786   6.630   5.332   7.840 -1.0900  0.4447  0.2328
18909SOL    HW268787   6.715   5.276   7.712 -1.6159 -1.5061  0.7123
18910SOL     OW68788   9.401   5.644   0.088 -0.1256 -0.2722 -0.4869
18910SOL    HW168789   9.408   5.741   0.067 -1.6933 -0.0739 -0.1495
18910SOL    HW268790   9.434   5.590   0.011  1.0441  0.5163 -0.5527
18911SOL     OW68791   9.771   9.515   5.082  0.3778 -0.1037  0.4993
18911SOL    HW168792   9.759   9.429   5.132 -0.4878 -0.2461  0.0593
18911SOL    HW268793   9.809   9.496   4.991  0.7567  0.0414  0.6235
18912SOL     OW68794   3.514   1.423   8.639  0.5303  0.4442 -0.7820
18912SOL    HW168795   3.585   1.416   8.569  0.3534 -2.8071 -0.7231
18912SOL    HW268796   3.504   1.335   8.685 -1.8037  1.5485  0.9310
18913SOL     OW68797   1.409   8.069   3.624  0.0195 -0.1745 -0.4454
18913SOL    HW168798   1.354   8.077   3.541 -0.9740  0.3440  0.2420
18913SOL    HW268799   1.356   8.103   3.702 -0.0093 -2.8769  0.7941
18914SOL     OW68800   7.146   3.562   9.728 -0.3650  0.1898 -0.0216
18914SOL    HW168801   7.228   3.514   9.758 -1.0828 -0.5747  0.7269
18914SOL    HW268802   7.167   3.659   9.714  0.4997  0.1201  0.8109
18915SOL     OW68803   4.733   1.649   4.737  0.8539 -0.2912 -0.1303
18915SOL    HW168804   4.648   1.631   4.788  0.7964 -1.6600 -0.6918
18915SOL    HW268805   4.721   1.730   4.680  0.0036 -0.3261 -0.0104
18916SOL     OW68806   9.188   7.527   3.298 -0.2019 -0.6225 -0.4222
18916SOL    HW168807   9.160   7.433   3.317  1.1585 -0.9784 -0.1179
18916SOL    HW268808   9.254   7.527   3.222  1.0326 -0.0851  0.6402
18917SOL     OW68809   1.673   9.937   9.006 -0.0451  0.2277  0.0272
18917SOL    HW168810   1.598   9.885   9.049 -1.2563  0.6171 -1.5755
18917SOL    HW268811   1.734   9.874   8.959  0.5578 -0.0751  1.1924
18918SOL     OW68812   8.383   6.236   5.152 -0.1841  0.7796 -0.3571
18918SOL    HW168813   8.451   6.217   5.222 -1.0737  3.5761  1.3377
18918SOL    HW268814   8.428   6.277   5.072  0.4451  0.3688 -0.2146
18919SOL     OW68815   0.308   5.835   4.263 -0.2699  0.5156 -0.2080
18919SOL    HW168816   0.227   5.782   4.288 -0.3591  1.0233  0.6013
18919SOL    HW268817   0.306   5.856   4.165 -1.1532  0.6011 -0.1671
18920SOL     OW68818   4.139   1.214   0.234  0.1020  0.2016 -0.2475
18920SOL    HW168819   4.111   1.238   0.327  0.6521  3.4252 -0.8240
18920SOL    HW268820   4.139   1.297   0.178  1.2666 -1.4335 -2.7397
18921SOL     OW68821   2.679   2.310   4.366  0.2616 -0.4778  0.4988
18921SOL    HW168822   2.672   2.212   4.384 -0.0774 -0.4099  0.7402
18921SOL    HW268823   2.746   2.326   4.294 -0.2561 -0.9482 -0.0937
18922SOL     OW68824   9.751   1.446   1.414 -0.3652 -0.3191 -0.4335
18922SOL    HW168825   9.743   1.356   1.457  1.2684  0.2278  1.0723
18922SOL    HW268826   9.678   1.506   1.448  0.0312 -0.3384  0.4601
18923SOL     OW68827   4.979   7.874   2.493 -0.0458  0.1828  0.2677
18923SOL    HW168828   5.034   7.807   2.543  0.1096  1.1760  1.4669
18923SOL    HW268829   4.948   7.835   2.407 -1.9361 -2.2909  1.9884
18924SOL     OW68830   3.533   9.686   6.102 -0.1295  0.4051 -0.4347
18924SOL    HW168831   3.471   9.615   6.068 -0.1455 -0.3276  1.0873
18924SOL    HW268832   3.627   9.662   6.078  0.0087 -0.8868  1.3211
18925SOL     OW68833   8.868   3.996   0.806  0.8547 -0.4099  0.5349
18925SOL    HW168834   8.912   3.908   0.825 -0.2352 -2.0706 -3.8769
18925SOL    HW268835   8.933   4.056   0.759  0.1765 -0.7115 -0.8121
18926SOL     OW68836   9.935   1.028   1.446  0.1611  0.0192  0.7996
18926SOL    HW168837   9.938   0.943   1.499 -0.0787 -0.7273 -0.3635
18926SOL    HW268838  10.027   1.067   1.440  1.1793 -2.6355 -2.5778
18927SOL     OW68839   8.564   7.925   0.711 -0.2945 -0.6521  0.3890
18927SOL    HW168840   8.512   8.010   0.711  0.0234 -0.4317 -1.4160
18927SOL    HW268841   8.501   7.849   0.693 -0.5303 -0.7854  1.7057
18928SOL     OW68842   0.724   9.594   6.887  0.3838 -0.0419 -0.2046
18928SOL    HW168843   0.743   9.669   6.824 -1.8438  1.0995  0.4453
18928SOL    HW268844   0.760   9.618   6.978 -1.5929  0.9119  0.3548
18929SOL     OW68845   3.013   9.510   0.746 -0.7113 -0.5666 -0.2735
18929SOL    HW168846   2.964   9.594   0.722 -0.4654 -0.6064 -0.9499
18929SOL    HW268847   2.965   9.463   0.819 -1.9903 -0.8896 -1.3086
18930SOL     OW68848   7.465   7.600   2.834 -0.3631  0.3335  0.1144
18930SOL    HW168849   7.403   7.573   2.908 -0.1227  1.4075  0.7206
18930SOL    HW268850   7.539   7.534   2.827 -1.8132 -1.2458 -0.9427
18931SOL     OW68851   3.992   3.648   5.999  0.0822  0.4301 -0.3247
18931SOL    HW168852   3.948   3.645   5.909 -0.6806  1.5549  0.0032
18931SOL    HW268853   3.922   3.658   6.070  0.8635  2.5875  0.1835
18932SOL     OW68854   4.148   1.270   2.483 -0.1783 -0.0033 -0.4141
18932SOL    HW168855   4.216   1.333   2.520 -1.1726  2.4807 -2.5983
18932SOL    HW268856   4.059   1.316   2.478 -0.7547 -1.2666 -2.8015
18933SOL     OW68857   4.277   1.566   9.685 -0.3857  0.1569  0.1131
18933SOL    HW168858   4.316   1.481   9.722  1.2112  0.0885 -1.6506
18933SOL    HW268859   4.346   1.638   9.686 -0.8811  0.6513 -1.0680
18934SOL     OW68860   9.283   8.509   6.864  0.6805  0.1862 -0.1094
18934SOL    HW168861   9.377   8.515   6.899  0.9570 -0.6007 -0.7007
18934SOL    HW268862   9.220   8.494   6.940  1.3619 -2.3279  0.0172
18935SOL     OW68863   7.670   9.856   7.497  0.5028  0.1448  0.1792
18935SOL    HW168864   7.615   9.859   7.413 -1.8109  1.5668  1.6982
18935SOL    HW268865   7.646   9.773   7.548  1.2756 -0.2723 -0.1302
18936SOL     OW68866   8.221   4.177   5.839 -0.0389  0.1078 -0.6743
18936SOL    HW168867   8.227   4.272   5.810  0.8992  0.3208  0.2173
18936SOL    HW268868   8.308   4.147   5.878 -0.3943 -1.0411 -0.7291
18937SOL     OW68869   8.822   0.861   5.278 -0.7249  0.3659 -0.1399
18937SOL    HW168870   8.803   0.838   5.183 -0.7092  0.4564 -0.1655
18937SOL    HW268871   8.921   0.855   5.295 -0.6532  0.9910 -0.3020
18938SOL     OW68872   3.757   5.031   4.516  0.3094 -0.2583  0.2235
18938SOL    HW168873   3.768   4.932   4.511 -0.3277 -0.2849 -0.7927
18938SOL    HW268874   3.728   5.057   4.608  0.3249 -1.0386  0.4506
18939SOL     OW68875   4.409   3.832   4.389  0.2173 -0.0564 -0.0580
18939SOL    HW168876   4.430   3.919   4.433  0.0919 -0.6718  1.2502
18939SOL    HW268877   4.316   3.804   4.414 -0.0845 -0.1029 -1.2354
18940SOL     OW68878   3.017   6.189   9.771  0.2575  0.3342  0.0053
18940SOL    HW168879   3.036   6.285   9.748  1.1550  0.2472  0.3564
18940SOL    HW268880   3.065   6.166   9.856 -0.8725 -0.1039  0.5299
18941SOL     OW68881   4.103   0.047   8.281  0.3383  0.1543  0.6911
18941SOL    HW168882   4.061  -0.028   8.230  0.1766  0.5808  0.1926
18941SOL    HW268883   4.179   0.012   8.336  0.1095 -0.4126  0.6433
18942SOL     OW68884   9.867   3.136   0.705  0.2203  0.0135 -0.2983
18942SOL    HW168885   9.876   3.082   0.621  0.8032 -0.7311  0.2370
18942SOL    HW268886   9.889   3.232   0.686  0.9173 -0.2555 -0.8730
18943SOL     OW68887   8.357   6.059   1.955 -0.1692  0.3185 -0.4946
18943SOL    HW168888   8.435   6.029   2.010 -0.9984  2.3843  1.8837
18943SOL    HW268889   8.382   6.058   1.858  1.6346 -2.4697 -0.0494
18944SOL     OW68890   3.085   1.647   3.769  0.1405 -0.3261 -0.2200
18944SOL    HW168891   2.993   1.680   3.747  0.3170  0.5732  0.3699
18944SOL    HW268892   3.097   1.555   3.731 -0.2301  0.4117 -2.1985
18945SOL     OW68893   1.525   7.606   9.718 -0.0430  0.1420  0.0138
18945SOL    HW168894   1.594   7.668   9.756  2.2941 -0.4040 -3.1411
18945SOL    HW268895   1.457   7.660   9.667  2.3763  0.1676 -3.3208
18946SOL     OW68896   2.382   2.163   4.162 -0.2568  0.3917 -0.1684
18946SOL    HW168897   2.434   2.247   4.171 -0.7651  0.4929  1.9837
18946SOL    HW268898   2.290   2.184   4.128 -0.6545  0.7958  1.1516
18947SOL     OW68899   7.185   1.717   6.879 -0.0079  0.1767 -0.5727
18947SOL    HW168900   7.092   1.685   6.898  1.4277 -2.1923  2.9198
18947SOL    HW268901   7.203   1.710   6.781 -2.2175 -2.9984 -0.8193
18948SOL     OW68902   4.341   9.280   7.827 -0.8878 -0.0926 -0.3298
18948SOL    HW168903   4.336   9.250   7.732  1.9854 -1.5125 -0.0897
18948SOL    HW268904   4.356   9.201   7.887 -0.8935  0.9774  1.1109
18949SOL     OW68905   8.541   2.926   4.387 -0.1408 -0.3907 -0.2354
18949SOL    HW168906   8.583   2.955   4.474  2.2033 -0.1273 -1.4168
18949SOL    HW268907   8.585   2.841   4.356 -1.0031 -0.5109 -1.1496
18950SOL     OW68908   9.075   8.190   3.006  0.3506 -0.4703 -0.3667
18950SOL    HW168909   9.041   8.168   3.098 -0.9057  0.9887 -0.4570
18950SOL    HW268910   9.063   8.288   2.989  1.2287 -0.6058 -1.8239
18951SOL     OW68911   1.959   9.012   3.339  0.1213 -0.1642  0.2824
18951SOL    HW168912   1.946   9.111   3.338  0.2646 -0.1467 -0.5308
18951SOL    HW268913   2.056   8.991   3.349 -0.0840 -0.2526  2.3182
18952SOL     OW68914   9.534   3.576   8.149  0.1538 -0.1778 -0.3745
18952SOL    HW168915   9.588   3.517   8.090 -1.1609 -0.7016 -1.0837
18952SOL    HW268916   9.507   3.525   8.231  2.4235  0.7105  0.9651
18953SOL     OW68917   3.081   5.674   8.131 -0.3875  0.2741  0.0455
18953SOL    HW168918   3.085   5.740   8.206  0.7062  1.2176 -0.8283
18953SOL    HW268919   3.008   5.700   8.068 -1.3829 -0.5832  0.8163
18954SOL     OW68920   6.798   7.358   5.078 -0.3248 -0.1990  0.1745
18954SOL    HW168921   6.894   7.376   5.102 -0.2333  1.0325 -1.0769
18954SOL    HW268922   6.781   7.388   4.985 -2.0115 -0.1822  0.4812
18955SOL     OW68923   4.817   9.559   7.764 -0.0155  0.2323  0.6454
18955SOL    HW168924   4.872   9.485   7.802  0.6319 -0.5441 -1.7260
18955SOL    HW268925   4.720   9.540   7.779  0.1915 -0.4752  1.1271
18956SOL     OW68926   0.023   0.692   4.048  0.8269 -0.2239  0.0367
18956SOL    HW168927   0.021   0.593   4.056  0.8893 -0.2797 -0.6373
18956SOL    HW268928   0.007   0.733   4.138 -2.2047 -0.8106 -0.1725
18957SOL     OW68929   7.609   9.441   3.542 -0.8117  0.2791 -0.5007
18957SOL    HW168930   7.596   9.343   3.556 -0.2413  0.0687 -1.3531
18957SOL    HW268931   7.595   9.490   3.628 -0.5902 -0.6061  0.0456
18958SOL     OW68932   7.928   6.040   2.971  0.1747  0.2459 -0.7775
18958SOL    HW168933   8.008   5.985   2.948  1.5964  1.7118  0.5238
18958SOL    HW268934   7.943   6.134   2.941 -0.0803  1.0378  1.5171
18959SOL     OW68935   1.332   8.850   5.520 -0.6895 -0.0426  0.4562
18959SOL    HW168936   1.281   8.891   5.596 -1.2160  0.2821 -0.0656
18959SOL    HW268937   1.365   8.922   5.459 -0.8075 -0.3381  0.0404
18960SOL     OW68938   8.234   0.203   8.058 -0.3499 -0.0705 -0.2660
18960SOL    HW168939   8.175   0.122   8.060 -0.1873 -0.1721  1.0004
18960SOL    HW268940   8.250   0.230   7.963 -3.0567  0.4262 -0.6116
18961SOL     OW68941   1.843   3.988   4.819 -0.0237  0.1735  0.3575
18961SOL    HW168942   1.774   3.988   4.891 -0.9050 -0.0415 -0.4786
18961SOL    HW268943   1.856   4.082   4.785 -0.6155  0.0691 -0.1582
18962SOL     OW68944   3.319   6.637   4.520 -0.2617  0.3532 -0.3263
18962SOL    HW168945   3.254   6.668   4.590  0.3469  0.8228  0.0384
18962SOL    HW268946   3.408   6.680   4.536  0.6707 -1.7610  0.3155
18963SOL     OW68947   4.824   3.604   5.670 -0.6048 -0.1265 -0.3129
18963SOL    HW168948   4.753   3.540   5.642  0.6313 -0.4120 -2.9465
18963SOL    HW268949   4.913   3.571   5.637  0.5674  0.9885  1.6352
18964SOL     OW68950   0.858   4.157   9.522  0.4959 -0.1308 -0.2138
18964SOL    HW168951   0.820   4.066   9.507  1.5401 -0.7262  0.6781
18964SOL    HW268952   0.804   4.225   9.472 -1.7095 -0.9386  1.0462
18965SOL     OW68953   3.533   8.193   0.809 -0.1192  0.0135  0.5203
18965SOL    HW168954   3.575   8.142   0.884  0.1871  0.1889  0.4720
18965SOL    HW268955   3.463   8.137   0.765 -1.1618  0.3436  1.7124
18966SOL     OW68956   7.747   7.621   6.085  0.0915 -0.0106 -0.2088
18966SOL    HW168957   7.760   7.548   6.017 -0.9841 -1.9322  1.5819
18966SOL    HW268958   7.818   7.690   6.074  1.4160 -1.5596 -1.6773
18967SOL     OW68959   1.086   9.747   8.679  0.0961 -0.5309  0.5203
18967SOL    HW168960   1.031   9.703   8.609  0.0830  0.0861  0.1339
18967SOL    HW268961   1.174   9.700   8.688  0.5493  0.0684 -0.7097
18968SOL     OW68962   9.007   7.638   6.869  0.3489  0.9280  0.0309
18968SOL    HW168963   9.081   7.657   6.932 -0.4369  0.6943  1.0346
18968SOL    HW268964   8.985   7.721   6.817  1.0881  1.0793 -0.0412
18969SOL     OW68965   4.641   9.978   2.726 -0.3710 -0.1844 -0.0180
18969SOL    HW168966   4.653  10.078   2.721 -1.8262  0.0717  1.2002
18969SOL    HW268967   4.659   9.938   2.637  0.4516  1.1532 -0.4667
18970SOL     OW68968   3.894   3.537   7.817 -0.4467  0.0620  0.1755
18970SOL    HW168969   3.897   3.570   7.911  0.3271  0.4816  0.0124
18970SOL    HW268970   3.938   3.604   7.757 -1.2724 -0.0241 -0.5405
18971SOL     OW68971   5.598   0.576   3.835 -0.2526 -0.4895 -0.5435
18971SOL    HW168972   5.621   0.508   3.905  0.9015  1.2887  0.8312
18971SOL    HW268973   5.522   0.632   3.867  0.8416  0.8892 -0.3261
18972SOL     OW68974   7.704   1.407   4.452  0.0282  0.7300 -0.2901
18972SOL    HW168975   7.734   1.394   4.546  2.0161  0.7178 -0.8935
18972SOL    HW268976   7.607   1.430   4.450 -0.6317 -1.7682  1.5937
18973SOL     OW68977   3.671   8.639   0.118  0.6296 -0.1458 -0.4960
18973SOL    HW168978   3.652   8.590   0.032  1.7923 -0.4828 -0.5828
18973SOL    HW268979   3.677   8.573   0.193  2.3536 -0.1815 -0.6369
18974SOL     OW68980   1.306   2.795   4.605  0.0063 -0.0838 -0.0304
18974SOL    HW168981   1.282   2.701   4.627 -0.3954  0.5666  2.4025
18974SOL    HW268982   1.286   2.854   4.683 -1.0881  2.2594 -2.0257
18975SOL     OW68983   7.452   8.232   7.058  0.0288  0.6617 -0.4580
18975SOL    HW168984   7.360   8.267   7.041 -0.5212 -0.4667  0.1327
18975SOL    HW268985   7.462   8.143   7.014  0.9872  0.9809 -0.8867
18976SOL     OW68986   0.010   2.567   5.714 -0.0841 -0.5577 -0.5385
18976SOL    HW168987  -0.063   2.507   5.684  0.4398 -1.2935 -0.3517
18976SOL    HW268988   0.085   2.565   5.647  0.7061 -1.5211  0.3510
18977SOL     OW68989   4.558   8.727   5.185 -0.0708 -0.7222  0.1194
18977SOL    HW168990   4.556   8.814   5.234 -1.2898 -0.2674 -0.7161
18977SOL    HW268991   4.501   8.660   5.234  0.5790 -0.9507  0.5679
18978SOL     OW68992   4.616   4.367   0.012 -0.0541 -0.1882 -0.3154
18978SOL    HW168993   4.612   4.453  -0.038 -0.4011  0.4292  0.7488
18978SOL    HW268994   4.526   4.323   0.010 -1.2886  1.9252  3.3056
18979SOL     OW68995   2.685   2.564   3.569  0.9201 -0.8130 -0.0680
18979SOL    HW168996   2.753   2.541   3.500 -1.3726 -3.4225 -1.5874
18979SOL    HW268997   2.662   2.661   3.563  1.4654 -0.7920 -2.3677
18980SOL     OW68998   2.710   4.927   0.705 -0.1768 -0.0349 -0.0011
18980SOL    HW168999   2.642   4.999   0.717 -1.4685 -1.3103  0.5320
18980SOL    HW269000   2.676   4.842   0.745  2.6534 -0.2043  2.2190
18981SOL     OW69001   6.212   8.263   7.421  0.1826  0.1710  0.0542
18981SOL    HW169002   6.223   8.270   7.322 -1.7055 -0.0098 -0.1731
18981SOL    HW269003   6.263   8.184   7.455  1.2357  0.5223 -0.6981
18982SOL     OW69004   5.457   2.936   0.626  0.1712 -0.1884  0.0942
18982SOL    HW169005   5.486   2.950   0.721 -3.7389  1.7412  1.0758
18982SOL    HW269006   5.507   2.998   0.566  0.0827  1.1303  1.3645
18983SOL     OW69007   6.170   9.292   4.479 -0.3375 -0.4182 -0.6046
18983SOL    HW169008   6.242   9.230   4.449 -1.1647 -1.9499  0.5104
18983SOL    HW269009   6.206   9.356   4.548  0.4408  0.1718 -1.5453
18984SOL     OW69010   4.548   1.851   9.352  0.3795  0.2759  0.0213
18984SOL    HW169011   4.542   1.839   9.451 -2.0391  0.3102 -0.1020
18984SOL    HW269012   4.471   1.805   9.308  2.3338 -1.2083 -1.9959
18985SOL     OW69013   6.649   3.641   1.960 -0.5431 -0.2238 -0.0226
18985SOL    HW169014   6.564   3.688   1.936 -0.2591  1.0469  1.3484
18985SOL    HW269015   6.727   3.694   1.927 -0.2400 -0.1521  0.7852
18986SOL     OW69016   5.859   0.060   7.188  0.0509  0.3175  0.4631
18986SOL    HW169017   5.824   0.085   7.278 -0.0131 -0.1077  0.5560
18986SOL    HW269018   5.797  -0.004   7.144 -0.2626  1.0401 -0.1644
18987SOL     OW69019   8.734   9.765   1.921  0.0165  0.0133 -0.2685
18987SOL    HW169020   8.689   9.764   1.832 -1.8806 -1.0358  0.6841
18987SOL    HW269021   8.793   9.684   1.929 -0.6262 -0.4422 -0.1524
18988SOL     OW69022   2.350   1.825   7.954  0.3878 -0.2304  0.2257
18988SOL    HW169023   2.277   1.773   7.909  1.5817  0.0759 -2.1451
18988SOL    HW269024   2.340   1.922   7.932  1.5585 -0.1970 -0.2147
18989SOL     OW69025   7.134   7.112   4.576  0.2319 -0.5492 -0.2321
18989SOL    HW169026   7.144   7.128   4.674 -1.9118  0.4095 -0.1429
18989SOL    HW269027   7.080   7.030   4.560  0.1038 -0.3944 -0.6107
18990SOL     OW69028   7.014   7.304   4.150  0.8787  0.1529 -0.4592
18990SOL    HW169029   7.044   7.394   4.119  1.2396  0.8647  1.8629
18990SOL    HW269030   7.090   7.256   4.193  0.2185 -0.5155 -0.0210
18991SOL     OW69031   2.594   4.838   4.867 -0.4239 -0.0669  0.4545
18991SOL    HW169032   2.694   4.835   4.862 -0.4224  0.5947  0.0292
18991SOL    HW269033   2.559   4.746   4.881  0.3194 -0.1114  2.0880
18992SOL     OW69034   0.395   3.917   0.902 -0.2585 -0.1150  0.5628
18992SOL    HW169035   0.444   3.852   0.960 -0.4032 -1.0091 -0.3055
18992SOL    HW269036   0.305   3.936   0.941  0.1743  0.3491  1.3495
18993SOL     OW69037   2.273   6.964   2.078 -0.3317 -0.4778  0.1519
18993SOL    HW169038   2.368   6.972   2.107  0.1180  0.5730 -1.5291
18993SOL    HW269039   2.234   6.878   2.112  1.0480 -0.6623  1.2859
18994SOL     OW69040   0.125   8.167   8.352 -0.3005  0.1654 -0.2855
18994SOL    HW169041   0.093   8.109   8.277 -0.3714 -0.2325  0.0541
18994SOL    HW269042   0.205   8.124   8.395  0.4842  0.9813 -0.9090
18995SOL     OW69043   8.625   8.768   7.447 -0.2570 -0.9706  0.1923
18995SOL    HW169044   8.677   8.762   7.532 -1.1663 -0.8917  0.7530
18995SOL    HW269045   8.599   8.863   7.430 -1.3861 -1.2051  0.6089
18996SOL     OW69046   5.370   2.266  10.024 -0.5217  0.3093  0.4209
18996SOL    HW169047   5.279   2.235   9.996 -1.6367  1.7824  2.2870
18996SOL    HW269048   5.404   2.333   9.958  0.4345 -2.2096 -1.7615
18997SOL     OW69049   3.547   6.890   4.173 -0.5148  0.1094  0.1061
18997SOL    HW169050   3.621   6.952   4.148  0.1408 -0.5969  0.2562
18997SOL    HW269051   3.577   6.830   4.248 -1.4626  0.2541  0.6118
18998SOL     OW69052   0.765   4.887   5.481  0.2539  0.0467  0.5300
18998SOL    HW169053   0.680   4.864   5.432  0.1332  0.1091  0.7109
18998SOL    HW269054   0.843   4.858   5.426  0.1203  0.2901  0.2116
18999SOL     OW69055   5.764   7.418   7.244  0.0235 -0.5058  0.2416
18999SOL    HW169056   5.782   7.495   7.182 -1.1645 -0.7387 -0.4158
18999SOL    HW269057   5.828   7.344   7.223  0.9679  0.1806  0.6694
19000SOL     OW69058   8.884   0.288   9.129 -0.1797  0.1797  0.8720
19000SOL    HW169059   8.821   0.268   9.204 -1.5971  1.3374  0.0237
19000SOL    HW269060   8.845   0.254   9.043 -0.7782  2.9604 -0.0015
19001SOL     OW69061   2.354   8.063   3.434  0.0978 -0.2936  0.2218
19001SOL    HW169062   2.295   8.028   3.362  1.1692 -1.9070  0.0963
19001SOL    HW269063   2.392   8.151   3.406  1.2334 -1.3414 -1.6003
19002SOL     OW69064   0.300   6.596   6.872  0.0718  0.5720 -0.5058
19002SOL    HW169065   0.250   6.675   6.908  0.6201  0.6609  0.0548
19002SOL    HW269066   0.240   6.517   6.869 -0.5721  1.0706 -1.3385
19003SOL     OW69067   1.612   1.321   4.753  0.4542 -0.4067  0.2648
19003SOL    HW169068   1.588   1.265   4.674  1.4949  0.6171 -0.8194
19003SOL    HW269069   1.711   1.334   4.756  0.3612  0.1513  1.3297
19004SOL     OW69070   7.548   4.533   6.561 -0.2553  0.4168  0.7196
19004SOL    HW169071   7.570   4.619   6.516  1.0158 -0.2428  0.0486
19004SOL    HW269072   7.570   4.540   6.659  0.9009  0.4892  0.4587
19005SOL     OW69073   0.329   0.662   2.785 -0.1018  0.3423 -0.6079
19005SOL    HW169074   0.291   0.579   2.742 -0.3889 -0.5986  1.4080
19005SOL    HW269075   0.296   0.669   2.879  1.9782  1.3550  0.0852
19006SOL     OW69076   0.824   0.099   4.962 -0.3349  0.0280 -0.1700
19006SOL    HW169077   0.890   0.164   4.926 -0.6946 -0.4296 -1.7267
19006SOL    HW269078   0.783   0.135   5.046  1.3092  0.6508  0.3798
19007SOL     OW69079   3.614   9.412   9.131 -0.1056 -0.6678  0.4153
19007SOL    HW169080   3.672   9.487   9.098 -2.1962  0.0083 -1.8113
19007SOL    HW269081   3.565   9.442   9.213 -0.4525  0.1963 -0.1008
19008SOL     OW69082   3.822   5.541   1.790  0.1649 -0.0922 -0.6429
19008SOL    HW169083   3.845   5.526   1.886  1.7858 -0.0122 -1.0064
19008SOL    HW269084   3.739   5.597   1.784  0.9668  1.2916  0.7192
19009SOL     OW69085   0.665   6.822   3.577 -0.2248 -0.0857  0.4001
19009SOL    HW169086   0.639   6.749   3.514  1.2073 -0.3647  0.1134
19009SOL    HW269087   0.624   6.805   3.666 -0.8878 -0.5977 -0.0024
19010SOL     OW69088   6.633   3.752   1.060  0.3054 -0.0102 -0.7171
19010SOL    HW169089   6.537   3.732   1.043  0.3574 -0.9444  0.0737
19010SOL    HW269090   6.650   3.850   1.045 -1.0325  0.3976  0.3175
19011SOL     OW69091   9.179   8.150   5.405 -0.5775  0.3685  0.3249
19011SOL    HW169092   9.146   8.196   5.487  2.1315  1.3990  0.8970
19011SOL    HW269093   9.240   8.211   5.354  0.0690 -1.2733 -0.9306
19012SOL     OW69094   9.700   4.054   9.348  0.4473 -0.0311 -0.2727
19012SOL    HW169095   9.776   4.041   9.411  0.6407  0.6404 -0.3589
19012SOL    HW269096   9.639   3.974   9.352  1.7030 -1.0331 -0.9816
19013SOL     OW69097   4.014   6.320   4.415  0.0527  0.1571  0.2415
19013SOL    HW169098   4.048   6.231   4.385 -0.6212 -0.5526  1.5805
19013SOL    HW269099   4.041   6.337   4.509 -1.6365  0.4238  0.6963
19014SOL     OW69100   4.144   2.409   7.672 -0.0614  0.4661 -0.3757
19014SOL    HW169101   4.239   2.388   7.649 -0.3865  1.3149 -2.5592
19014SOL    HW269102   4.139   2.501   7.712  0.3121 -0.4693  1.9178
19015SOL     OW69103   9.196   5.143   8.158 -0.2032  0.2934 -0.0406
19015SOL    HW169104   9.109   5.094   8.152 -0.1273  0.2518 -0.9356
19015SOL    HW269105   9.268   5.079   8.186 -0.1910 -0.0075 -0.7506
19016SOL     OW69106   0.990   6.716   5.793  0.1855  0.4676 -0.1295
19016SOL    HW169107   1.086   6.691   5.780  0.7755  2.3653  0.5046
19016SOL    HW269108   0.968   6.714   5.890 -0.4094  0.1257 -0.2660
19017SOL     OW69109   3.603   6.432   9.482 -0.6022 -0.1793 -0.5179
19017SOL    HW169110   3.685   6.444   9.537 -1.1666  0.6862  0.1613
19017SOL    HW269111   3.608   6.490   9.401 -0.2319 -0.6596 -0.8367
19018SOL     OW69112   3.552   7.717   4.697  0.5831 -0.1574  0.1101
19018SOL    HW169113   3.516   7.628   4.726  0.3852 -0.1961 -0.2413
19018SOL    HW269114   3.494   7.789   4.735  1.0088 -0.1590  0.7684
19019SOL     OW69115   9.914   3.251   4.234 -0.6144  0.6605  0.2531
19019SOL    HW169116   9.989   3.309   4.202 -1.3570  1.5841  0.1701
19019SOL    HW269117   9.952   3.166   4.271  0.4566  0.9977 -0.0262
19020SOL     OW69118   4.090   4.319   5.966  0.5504  0.0717 -0.6631
19020SOL    HW169119   4.160   4.381   5.933  0.5475  0.2740 -0.2890
19020SOL    HW269120   4.078   4.331   6.065  1.2185 -1.1826 -0.4214
19021SOL     OW69121   4.489   8.798   2.817  0.1074  0.0209 -0.0070
19021SOL    HW169122   4.574   8.847   2.799 -0.2055  0.5797  0.0360
19021SOL    HW269123   4.478   8.723   2.752 -0.7937  1.7224 -1.8625
19022SOL     OW69124   1.616   1.512   7.411  0.0976 -0.3858  0.0193
19022SOL    HW169125   1.556   1.433   7.423 -0.3664 -0.0710 -0.2115
19022SOL    HW269126   1.711   1.485   7.428 -0.2582 -0.5588  1.7820
19023SOL     OW69127   2.966   1.981   1.908 -0.0759  0.2405 -0.1963
19023SOL    HW169128   3.002   1.919   1.839 -0.2442 -0.1920  0.1042
19023SOL    HW269129   2.869   1.961   1.924 -0.0742  0.4303  0.0661
19024SOL     OW69130   3.564   8.366   4.968  0.2549  0.3786  0.5845
19024SOL    HW169131   3.603   8.376   5.059  0.2432  0.1522  0.6143
19024SOL    HW269132   3.471   8.331   4.975  0.3814  0.0151  0.4712
19025SOL     OW69133   1.819   2.380   4.137  0.3675 -0.1979  0.4051
19025SOL    HW169134   1.722   2.396   4.118  0.6811  1.2386 -0.0525
19025SOL    HW269135   1.831   2.361   4.234 -0.6324 -2.5986  0.1111
19026SOL     OW69136   9.814   3.711   8.355  0.6520  0.0680 -0.9501
19026SOL    HW169137   9.880   3.781   8.385  1.4617 -0.8285 -0.6326
19026SOL    HW269138   9.803   3.718   8.255  0.7169  0.6575 -0.9223
19027SOL     OW69139   7.551   3.867   1.792 -0.7024  0.0884 -0.3796
19027SOL    HW169140   7.516   3.882   1.699 -0.3075  1.3295 -0.3369
19027SOL    HW269141   7.568   3.955   1.835  0.8553 -0.4923  0.2165
19028SOL     OW69142   6.118   3.961   2.421 -0.3405  0.2989 -0.0606
19028SOL    HW169143   6.081   3.924   2.506  0.6520 -0.3550  0.0926
19028SOL    HW269144   6.171   4.043   2.441  0.7141 -0.4071  0.0833
19029SOL     OW69145   1.409   7.923   8.435 -0.5014  0.6756 -0.4655
19029SOL    HW169146   1.441   7.829   8.425 -0.2595  0.7278 -0.1856
19029SOL    HW269147   1.370   7.954   8.349 -1.1216  0.1177 -0.3997
19030SOL     OW69148   0.855   5.869   6.712 -1.0242  0.1407  0.1306
19030SOL    HW169149   0.949   5.903   6.713 -0.5357 -1.1749  0.8103
19030SOL    HW269150   0.792   5.944   6.729 -0.1249  1.1172 -0.7696
19031SOL     OW69151   2.985   7.930   2.159  0.5592  0.1308 -0.4686
19031SOL    HW169152   2.980   7.858   2.228  3.2011  0.1127 -0.2544
19031SOL    HW269153   2.918   8.001   2.180 -0.2405 -0.9670  0.7902
19032SOL     OW69154   0.320   9.879   8.660  0.3085 -0.3792 -0.3197
19032SOL    HW169155   0.366   9.894   8.747  0.2374 -0.6800 -0.2277
19032SOL    HW269156   0.365   9.804   8.611  0.1801 -0.3917 -0.4196
19033SOL     OW69157   1.312   5.604   4.700  0.4201  0.8625  0.1674
19033SOL    HW169158   1.336   5.557   4.784  1.3257  1.1269  0.0611
19033SOL    HW269159   1.294   5.701   4.719 -1.8754  0.4115  0.4588
19034SOL     OW69160   2.795   8.070   6.895  0.2960  0.0501  0.4000
19034SOL    HW169161   2.857   8.065   6.973 -0.7631 -0.0529  1.2388
19034SOL    HW269162   2.705   8.101   6.925 -0.4612 -1.1465 -0.5734
19035SOL     OW69163   0.459   1.829   1.972  0.0437  0.6445  0.5764
19035SOL    HW169164   0.486   1.743   1.927  0.6416  1.5054 -0.7493
19035SOL    HW269165   0.503   1.835   2.061  2.3497  0.8962 -0.5338
19036SOL     OW69166   9.682   1.087   6.135 -0.2638  0.0889 -0.0738
19036SOL    HW169167   9.763   1.143   6.155 -0.4331  0.1776  0.3633
19036SOL    HW269168   9.706   1.018   6.067  0.2112  0.0524  0.1241
19037SOL     OW69169   6.663   8.047   6.090  0.1451 -0.2295 -0.0407
19037SOL    HW169170   6.589   8.040   6.157  2.2703 -1.5775  2.1890
19037SOL    HW269171   6.698   8.140   6.089 -0.2421 -0.0784  0.3188
19038SOL     OW69172   0.565   7.765   3.596  0.2415  0.0226 -0.0079
19038SOL    HW169173   0.543   7.797   3.689  0.8046 -0.2527  0.2248
19038SOL    HW269174   0.561   7.842   3.533  0.4969  0.3408  0.3579
19039SOL     OW69175   8.407   9.121   7.334  0.1229  0.2816 -0.5946
19039SOL    HW169176   8.442   9.194   7.275 -0.4099  0.5598 -0.5799
19039SOL    HW269177   8.314   9.097   7.305  0.4812 -0.7312 -0.9053
19040SOL     OW69178   1.401   2.251   9.939  0.0160  0.3984  0.6056
19040SOL    HW169179   1.342   2.209   9.870  1.9285  0.3782 -1.0711
19040SOL    HW269180   1.361   2.337   9.970 -0.7451  0.5420 -0.7427
19041SOL     OW69181   7.966   1.491   0.078  0.3842  0.0739  0.2152
19041SOL    HW169182   7.993   1.416   0.018  0.7506  2.0482 -2.1400
19041SOL    HW269183   8.024   1.492   0.159  0.3575 -2.1789  0.2886
19042SOL     OW69184   0.607   9.515   1.822  0.4452 -0.2782  0.0857
19042SOL    HW169185   0.538   9.448   1.849 -1.5506  1.6940  0.0410
19042SOL    HW269186   0.639   9.564   1.903  1.7561 -1.1324  0.0946
19043SOL     OW69187   2.953   8.637  10.008 -0.2391 -0.3681 -0.2510
19043SOL    HW169188   2.908   8.548  10.006  0.9780 -0.9905 -0.2006
19043SOL    HW269189   3.043   8.628  10.050 -0.7327  1.1835  1.1794
19044SOL     OW69190   4.514   2.594   7.668  0.5531 -0.6547 -0.6293
19044SOL    HW169191   4.437   2.639   7.713  1.2029 -0.4662  0.2907
19044SOL    HW269192   4.561   2.659   7.609 -0.8165 -1.1179 -2.2827
19045SOL     OW69193   5.513   9.798   7.250  0.1927 -0.2083  0.2720
19045SOL    HW169194   5.422   9.832   7.275 -0.2165 -1.2993  0.2744
19045SOL    HW269195   5.569   9.790   7.332 -0.3432 -1.4033  0.5263
19046SOL     OW69196   8.452   9.808   2.133  0.0198 -0.2904 -0.2394
19046SOL    HW169197   8.455   9.814   2.033  0.3079 -1.9173 -0.3398
19046SOL    HW269198   8.357   9.802   2.163  0.0052 -1.8503 -0.5629
19047SOL     OW69199   9.726   2.821   9.113 -0.5418 -0.2991  0.6909
19047SOL    HW169200   9.752   2.727   9.089  1.3793 -0.1713  2.1651
19047SOL    HW269201   9.805   2.869   9.150 -1.3045  2.1681 -0.7458
19048SOL     OW69202   1.706   9.797   9.914  0.0563  0.0858  0.0058
19048SOL    HW169203   1.606   9.789   9.917  0.0419  0.2766  0.0571
19048SOL    HW269204   1.737   9.852   9.992  0.2522 -0.4826  0.3377
19049SOL     OW69205   8.987   1.835   1.652  0.3176 -0.1656  0.0338
19049SOL    HW169206   9.038   1.897   1.592  0.6801 -1.9986 -1.6051
19049SOL    HW269207   8.894   1.870   1.665  0.5061  0.7033 -0.8751
19050SOL     OW69208   9.830   1.861   5.664  0.8998 -0.0965 -0.3713
19050SOL    HW169209   9.865   1.943   5.618  0.8490 -0.1233 -0.4585
19050SOL    HW269210   9.899   1.824   5.725  0.8330  0.1554 -0.1434
19051SOL     OW69211   7.635   9.254   5.818 -0.0853 -0.3258 -0.2667
19051SOL    HW169212   7.649   9.197   5.900 -1.6043 -3.3973 -2.0345
19051SOL    HW269213   7.710   9.239   5.754 -0.0312  0.3485 -0.3604
19052SOL     OW69214   8.727   1.102   1.045 -0.0228  0.5229  0.6887
19052SOL    HW169215   8.628   1.114   1.048  0.0223  0.7285  1.3955
19052SOL    HW269216   8.748   1.005   1.032 -0.2948  0.0568  3.4545
19053SOL     OW69217   4.969   5.693   1.391  0.1781 -0.3042  0.0449
19053SOL    HW169218   4.913   5.619   1.352  1.6262 -1.1291 -0.4834
19053SOL    HW269219   5.054   5.701   1.339  0.6624  0.7934  1.0039
19054SOL     OW69220   6.994   7.699   5.016 -0.1077 -0.0052  0.0231
19054SOL    HW169221   7.060   7.631   5.049 -1.1218 -1.0343 -0.0444
19054SOL    HW269222   6.914   7.699   5.076 -1.3745 -0.9306 -1.6461
19055SOL     OW69223   4.980   5.060   8.577 -0.5138  0.7157 -0.0873
19055SOL    HW169224   4.923   5.076   8.497  2.2899  0.4707 -2.1907
19055SOL    HW269225   5.069   5.104   8.565  0.7172 -1.1090  1.9459
19056SOL     OW69226   0.425   8.032   8.054 -0.1584  0.3797 -0.2217
19056SOL    HW169227   0.403   7.953   8.112 -0.8052 -1.2729 -2.6496
19056SOL    HW269228   0.357   8.104   8.069 -0.2392  0.0368  1.1372
19057SOL     OW69229   3.071   4.545   7.054  0.3304  0.3594 -0.2968
19057SOL    HW169230   3.170   4.543   7.042  0.3677 -0.5487  0.1884
19057SOL    HW269231   3.049   4.550   7.151 -0.1300 -1.9560 -0.2516
19058SOL     OW69232   0.078   4.791   1.984 -0.1106  0.3044  0.1041
19058SOL    HW169233   0.042   4.829   2.069  1.2715  0.6681  0.5452
19058SOL    HW269234   0.155   4.847   1.953 -0.4132 -0.0053 -1.2214
19059SOL     OW69235   2.548   9.964   5.529 -0.1535  0.6445  0.4643
19059SOL    HW169236   2.564   9.943   5.626  0.6468 -1.8845 -0.1761
19059SOL    HW269237   2.627  10.012   5.492  1.4587 -2.1753  0.0516
19060SOL     OW69238   0.169   1.933   3.240 -0.3015 -0.6082  0.1975
19060SOL    HW169239   0.228   1.864   3.198 -0.0696 -0.6791  0.6433
19060SOL    HW269240   0.103   1.966   3.172  0.0811 -0.7157 -0.2258
19061SOL     OW69241   3.523   5.500   0.612  0.3440  0.0587  0.1375
19061SOL    HW169242   3.587   5.455   0.673  0.3408 -0.5040 -0.2632
19061SOL    HW269243   3.561   5.587   0.581  0.5842  0.0813  0.5032
19062SOL     OW69244   4.031   2.172   5.814 -0.1732  0.0912 -0.1401
19062SOL    HW169245   3.978   2.103   5.764  0.0375  0.0072 -0.2458
19062SOL    HW269246   4.108   2.128   5.860  0.5725  0.4081 -1.0679
19063SOL     OW69247   4.372   8.229   2.709 -0.1003 -0.3742  0.5820
19063SOL    HW169248   4.364   8.218   2.610  1.7432 -0.7405  0.4509
19063SOL    HW269249   4.281   8.236   2.749 -0.8810 -0.5732 -1.0956
19064SOL     OW69250   1.266   0.616   0.447  0.0110  0.4717 -0.2064
19064SOL    HW169251   1.214   0.593   0.364  1.1873 -0.2915 -0.7441
19064SOL    HW269252   1.363   0.625   0.424  0.5165 -0.8637  1.2848
19065SOL     OW69253   3.051   0.733   8.192 -0.3283 -0.3911  0.5763
19065SOL    HW169254   2.960   0.757   8.159 -0.8893 -1.1791  1.5092
19065SOL    HW269255   3.043   0.670   8.269  1.0045 -0.2618  0.8380
19066SOL     OW69256   1.798   4.291   9.854  0.5210  0.1079 -0.2185
19066SOL    HW169257   1.845   4.209   9.822  1.9214  0.9644 -0.3672
19066SOL    HW269258   1.707   4.265   9.888  0.6388 -1.3859 -0.9895
19067SOL     OW69259   6.624   9.860   7.810  0.1111 -0.0512  0.3530
19067SOL    HW169260   6.546   9.856   7.749 -0.8297 -1.5930  1.6056
19067SOL    HW269261   6.695   9.919   7.771 -0.5299 -0.8611 -2.1083
19068SOL     OW69262   9.797   3.651   6.413  0.6043  0.2092  0.3911
19068SOL    HW169263   9.784   3.676   6.509 -1.0411  2.6393 -0.4259
19068SOL    HW269264   9.841   3.727   6.364 -0.4144 -0.2149 -1.2132
19069SOL     OW69265   8.776   9.341   1.369 -0.0609  0.0851  0.1310
19069SOL    HW169266   8.809   9.360   1.276  0.3719  0.0825  0.2816
19069SOL    HW269267   8.854   9.323   1.429 -0.2127  2.0713  0.9616
19070SOL     OW69268   2.095   4.008   0.398 -0.3884 -0.8136  0.0772
19070SOL    HW169269   2.152   3.928   0.418  0.8575 -0.0101 -0.2242
19070SOL    HW269270   2.089   4.020   0.299  0.2805  0.0721  0.1413
19071SOL     OW69271   4.969   8.280   6.788 -0.3040 -0.2805 -0.2757
19071SOL    HW169272   4.914   8.200   6.766 -1.8825  0.8643 -0.5434
19071SOL    HW269273   4.920   8.338   6.853  1.4224 -0.2229  1.0215
19072SOL     OW69274   7.050   0.529   5.867 -0.4847  0.2068 -0.0167
19072SOL    HW169275   6.964   0.482   5.887 -0.5896  0.3352 -0.1615
19072SOL    HW269276   7.125   0.484   5.916 -0.3891 -0.8538 -1.1227
19073SOL     OW69277   0.173   7.852   0.404 -0.7478 -0.4643 -0.1046
19073SOL    HW169278   0.145   7.816   0.315  1.0169  3.4423 -2.3640
19073SOL    HW269279   0.093   7.884   0.454 -1.6575 -1.8329 -0.6514
19074SOL     OW69280   7.124   6.903   6.952  0.1066 -0.6327 -0.1039
19074SOL    HW169281   7.098   6.999   6.961 -1.6010 -1.1551  0.5963
19074SOL    HW269282   7.162   6.870   7.038 -0.1477 -0.8397 -0.0715
19075SOL     OW69283   5.947   8.652   6.471 -0.4761  0.2107 -0.2494
19075SOL    HW169284   5.979   8.702   6.552 -1.5986  0.1171  0.2521
19075SOL    HW269285   5.998   8.684   6.390  0.4843  0.4624  0.4467
19076SOL     OW69286   8.711   6.340   0.340  0.1938 -0.6118 -0.2267
19076SOL    HW169287   8.791   6.280   0.339 -0.1318 -1.0624  0.7384
19076SOL    HW269288   8.641   6.302   0.280  0.1215 -1.0079  0.1097
19077SOL     OW69289   9.521   7.663   1.735  0.1582  0.0958 -0.4994
19077SOL    HW169290   9.543   7.652   1.638 -1.2436 -0.3522 -0.7781
19077SOL    HW269291   9.500   7.759   1.754 -0.4891  0.0261 -0.8442
19078SOL     OW69292   9.945   4.713   6.945 -0.0226  0.3229 -0.1604
19078SOL    HW169293   9.992   4.661   6.874 -2.1254  1.4461 -2.4515
19078SOL    HW269294   9.869   4.659   6.981 -0.4639  0.6975 -0.5237
19079SOL     OW69295   9.640   6.765   7.597 -0.6892  0.1235  0.1520
19079SOL    HW169296   9.683   6.675   7.589 -1.0217  0.0569 -0.9940
19079SOL    HW269297   9.668   6.808   7.683  0.1675 -0.7067  0.2983
19080SOL     OW69298   7.321   1.253   4.492 -0.7882  0.2753  0.4992
19080SOL    HW169299   7.345   1.167   4.446  0.6519 -0.1740  2.0222
19080SOL    HW269300   7.402   1.312   4.496 -1.1346  0.6934  1.5801
19081SOL     OW69301   5.341   4.644   7.699  0.1737  0.1750  0.0994
19081SOL    HW169302   5.272   4.716   7.691 -0.1904 -0.0665  0.9923
19081SOL    HW269303   5.390   4.635   7.612  0.2667  1.5390 -0.0099
19082SOL     OW69304   4.315   6.639   3.392  0.7861  0.4389 -0.1188
19082SOL    HW169305   4.400   6.663   3.438  0.1478  0.5993  0.9923
19082SOL    HW269306   4.328   6.646   3.293  1.3035  3.0500  0.0900
19083SOL     OW69307   9.265   8.869   7.004  0.2545  0.8452 -0.3065
19083SOL    HW169308   9.306   8.888   6.915  1.4088  1.1842  0.2914
19083SOL    HW269309   9.172   8.835   6.991  1.8893 -3.2704 -1.8541
19084SOL     OW69310   7.490   9.701   6.760 -0.5179 -0.2948 -0.1534
19084SOL    HW169311   7.431   9.777   6.732  1.0900  1.1341  0.2547
19084SOL    HW269312   7.565   9.693   6.695 -0.4845 -1.3257  0.0125
19085SOL     OW69313   9.855   9.711   0.261  0.3875 -0.8093  0.4655
19085SOL    HW169314   9.834   9.645   0.334  0.4544  0.0628  1.2833
19085SOL    HW269315   9.783   9.708   0.192 -0.2478 -0.8538  1.1222
19086SOL     OW69316   2.895   7.743   2.367  0.1347  0.4306 -0.2505
19086SOL    HW169317   2.837   7.680   2.315  2.9270 -3.0223  0.6382
19086SOL    HW269318   2.850   7.766   2.453 -2.2752  2.2034 -1.9058
19087SOL     OW69319   8.916   1.507   0.579 -0.7179 -0.1477 -0.0290
19087SOL    HW169320   8.999   1.537   0.625 -0.6864 -0.0484 -0.1519
19087SOL    HW269321   8.837   1.521   0.639 -0.6033 -0.5549  0.2182
19088SOL     OW69322   3.039   2.924   6.504  0.0704 -0.5043  0.3839
19088SOL    HW169323   3.004   2.837   6.467 -0.1185 -0.9147  1.5205
19088SOL    HW269324   3.014   2.931   6.600  0.0460  0.8416  0.2769
19089SOL     OW69325   0.212   6.441   9.222  0.4297  0.5429 -0.9179
19089SOL    HW169326   0.262   6.356   9.204 -0.5161 -0.4033  0.7685
19089SOL    HW269327   0.254   6.516   9.170  1.3959 -0.9038 -2.2747
19090SOL     OW69328   9.877   0.770   6.328 -0.3462  0.0678  0.5449
19090SOL    HW169329   9.837   0.680   6.312 -0.4174  0.2008 -0.0256
19090SOL    HW269330   9.942   0.791   6.256  0.8440 -0.1946  1.5337
19091SOL     OW69331   1.288   1.770   0.098 -0.0408  0.3824 -0.4526
19091SOL    HW169332   1.334   1.817   0.174 -1.9508 -0.4237  1.2248
19091SOL    HW269333   1.349   1.769   0.019  0.0233  5.9051 -0.6953
19092SOL     OW69334   3.181   5.781   6.815 -0.0229 -0.3474 -0.7418
19092SOL    HW169335   3.182   5.681   6.810  1.6125 -0.3759 -0.1101
19092SOL    HW269336   3.214   5.810   6.905 -0.8942  0.7625 -0.7643
19093SOL     OW69337   1.544   8.963   5.859  0.3109 -0.6554  0.3613
19093SOL    HW169338   1.587   9.040   5.906  1.2102 -0.0929 -1.3362
19093SOL    HW269339   1.446   8.980   5.851  0.6663  0.8862 -1.0075
19094SOL     OW69340   0.981   9.235   9.909  0.3698 -0.1342 -0.0589
19094SOL    HW169341   0.909   9.177   9.872 -0.6116  0.8007  0.3565
19094SOL    HW269342   1.050   9.178   9.955  1.6081 -1.3029 -3.2657
19095SOL     OW69343   0.076   8.693   0.538  0.4232 -0.3016 -0.6669
19095SOL    HW169344   0.083   8.752   0.458  1.7652  1.1736  0.5076
19095SOL    HW269345   0.141   8.617   0.529  0.6321 -0.0904 -0.9218
19096SOL     OW69346   8.649   5.336   9.213  0.1247 -0.3143  0.1707
19096SOL    HW169347   8.747   5.338   9.195  0.2098  1.2230  0.7275
19096SOL    HW269348   8.625   5.410   9.275 -1.6627  0.4653 -1.4025
19097SOL     OW69349   1.232   8.586   3.755  0.4646  0.4875 -0.2566
19097SOL    HW169350   1.279   8.647   3.691 -1.1089  0.3947 -1.5305
19097SOL    HW269351   1.194   8.639   3.830  0.2170  0.9203 -0.6838
19098SOL     OW69352   3.276   7.231   5.259 -0.3325 -0.7037  0.6848
19098SOL    HW169353   3.273   7.326   5.228 -0.8398 -1.2525 -1.0139
19098SOL    HW269354   3.291   7.171   5.180  0.8027 -1.9831  1.8393
19099SOL     OW69355   3.203   2.637   1.183 -0.1653 -0.5175  0.5811
19099SOL    HW169356   3.205   2.713   1.248  0.0755  0.8474 -1.0085
19099SOL    HW269357   3.195   2.551   1.234  1.7483  0.3837  2.5064
19100SOL     OW69358   2.710   9.664   1.187  0.3482 -0.6968  0.4564
19100SOL    HW169359   2.749   9.735   1.129  0.8589 -0.5245  0.9996
19100SOL    HW269360   2.643   9.611   1.136  1.1210 -0.8316 -0.4267
19101SOL     OW69361   6.925   2.005   4.363 -0.2752 -0.3019 -0.1151
19101SOL    HW169362   6.996   1.961   4.308 -2.4594 -1.8768 -1.7487
19101SOL    HW269363   6.873   2.068   4.306 -1.2599 -0.4139  0.6515
19102SOL     OW69364   5.198   6.667   1.666 -0.0011 -0.1849  0.0806
19102SOL    HW169365   5.235   6.585   1.621  0.7574  0.5702 -0.6903
19102SOL    HW269366   5.273   6.726   1.694 -0.5207 -0.1563  1.4102
19103SOL     OW69367   4.392   7.108   1.069 -0.2617  0.3502 -0.2063
19103SOL    HW169368   4.460   7.056   1.017  0.5156  0.1652  0.9589
19103SOL    HW269369   4.434   7.194   1.100 -0.9118  0.7448 -0.4297
19104SOL     OW69370   2.764   9.370   2.420  0.2813 -0.0579  0.2240
19104SOL    HW169371   2.671   9.354   2.454 -0.0152 -1.3103 -1.1319
19104SOL    HW269372   2.830   9.350   2.492 -0.5306  2.0891  1.6196
19105SOL     OW69373   5.175   1.436   9.439 -0.4505  0.2775 -0.0853
19105SOL    HW169374   5.144   1.529   9.419  1.2367  0.7538 -0.5293
19105SOL    HW269375   5.266   1.422   9.400 -0.2826 -1.2423  0.8311
19106SOL     OW69376   3.969   0.483   8.035  0.0072  0.4429 -0.7703
19106SOL    HW169377   3.875   0.509   8.057 -0.9787 -2.2333 -1.7327
19106SOL    HW269378   3.999   0.410   8.096  0.5470 -0.5356 -2.1897
19107SOL     OW69379   2.329   0.855   4.050 -0.1012 -0.0437 -0.0316
19107SOL    HW169380   2.371   0.852   3.960  1.4439 -0.0634  0.6768
19107SOL    HW269381   2.244   0.803   4.049 -1.1552  1.6229 -2.0021
19108SOL     OW69382   2.637   3.959   6.671 -0.5679  0.1792  0.0608
19108SOL    HW169383   2.558   3.914   6.713 -0.8437 -0.1439 -0.8079
19108SOL    HW269384   2.717   3.899   6.679 -0.7735 -0.1689 -0.4665
19109SOL     OW69385   4.251   3.197   8.584 -0.3863  0.4036 -0.1179
19109SOL    HW169386   4.235   3.136   8.662  1.5964 -1.7857 -1.3571
19109SOL    HW269387   4.167   3.247   8.564 -2.5574 -2.9683  0.0703
19110SOL     OW69388   7.375   9.351   7.884  0.4163  0.4723 -0.5002
19110SOL    HW169389   7.376   9.323   7.788 -3.6644  0.5787 -0.6788
19110SOL    HW269390   7.390   9.450   7.890  0.0598  0.5655 -1.1073
19111SOL     OW69391   3.139   3.446   1.574  0.3721 -0.4460 -0.4610
19111SOL    HW169392   3.072   3.385   1.615 -0.7991  0.1664 -1.4320
19111SOL    HW269393   3.174   3.508   1.643 -0.2142 -0.6390  0.0127
19112SOL     OW69394   2.687   1.810   2.777  0.6354  0.1405 -0.2374
19112SOL    HW169395   2.668   1.878   2.847  1.0981 -1.2140  1.2472
19112SOL    HW269396   2.625   1.732   2.789  2.1523 -1.0629  0.0581
19113SOL     OW69397   1.722   0.685   8.462  0.3568  0.2372  0.4592
19113SOL    HW169398   1.775   0.724   8.537 -0.1075  0.4761  0.6691
19113SOL    HW269399   1.753   0.592   8.444  1.8839  0.9181 -0.4547
19114SOL     OW69400   0.585   1.460   8.970  0.1016 -0.3287  0.4508
19114SOL    HW169401   0.503   1.516   8.982 -0.8309 -1.7116  0.7084
19114SOL    HW269402   0.666   1.518   8.969 -1.1646  1.5462 -4.1476
19115SOL     OW69403   2.591   2.962   4.534 -0.1196 -0.0474 -0.0640
19115SOL    HW169404   2.516   3.022   4.504  0.8094  0.0576 -2.2837
19115SOL    HW269405   2.580   2.872   4.491  0.7453 -0.1841  0.0047
19116SOL     OW69406   5.605   4.770   1.914  0.2390 -0.5658 -0.4544
19116SOL    HW169407   5.665   4.791   1.990 -1.1623  3.1999 -0.3143
19116SOL    HW269408   5.511   4.760   1.947 -0.0402 -1.0928 -1.3860
19117SOL     OW69409   2.043   3.301   9.452 -0.2177 -0.1587 -0.2857
19117SOL    HW169410   1.968   3.289   9.387  1.1325 -0.3885 -1.7957
19117SOL    HW269411   2.013   3.267   9.542 -2.3949  0.9862 -0.5302
19118SOL     OW69412   9.634   3.171   4.215 -0.4270 -0.7127  0.4311
19118SOL    HW169413   9.717   3.225   4.230 -0.1513 -0.3155 -2.3596
19118SOL    HW269414   9.554   3.231   4.221 -0.1947 -0.2002 -1.5429
19119SOL     OW69415   9.642   8.936   6.663  0.4529  0.5446  0.2029
19119SOL    HW169416   9.722   8.886   6.697  0.1876  0.4115  0.6380
19119SOL    HW269417   9.600   8.884   6.589 -1.0401 -0.9190  2.0281
19120SOL     OW69418   8.928   3.042   3.333  0.5211 -0.0159 -0.0675
19120SOL    HW169419   8.989   3.065   3.257  0.8416 -1.3625 -0.2323
19120SOL    HW269420   8.943   2.947   3.360 -1.1812 -0.2247  0.1899
19121SOL     OW69421   4.264   3.692   8.873 -0.6111  0.1628  0.3971
19121SOL    HW169422   4.285   3.609   8.820  0.1311  0.0649  0.8307
19121SOL    HW269423   4.167   3.712   8.866 -0.7046 -0.4453 -0.1488
19122SOL     OW69424   9.851   3.298   5.613 -0.0116 -0.5950 -0.1974
19122SOL    HW169425   9.934   3.286   5.667 -0.3116  0.1189  0.4414
19122SOL    HW269426   9.803   3.211   5.604  1.1362 -1.1429 -1.1206
19123SOL     OW69427   1.487   6.610   8.455  0.1994 -0.4752 -0.1156
19123SOL    HW169428   1.451   6.525   8.418 -1.2478  0.4675 -0.9389
19123SOL    HW269429   1.586   6.614   8.439 -0.0027 -1.2136 -1.6609
19124SOL     OW69430   0.352   4.296   5.554 -0.3758 -0.1134  0.0634
19124SOL    HW169431   0.341   4.372   5.489  0.6141 -1.1121 -1.2918
19124SOL    HW269432   0.292   4.221   5.527  1.2839 -1.1765 -0.6855
19125SOL     OW69433   1.553   1.494   9.067  0.1187 -0.0820 -0.7767
19125SOL    HW169434   1.582   1.416   9.011 -1.9677 -1.2159 -0.3254
19125SOL    HW269435   1.514   1.564   9.008  1.0747  0.2035 -1.0820
19126SOL     OW69436   0.269   8.191   0.976 -0.2217  0.2606 -0.1582
19126SOL    HW169437   0.362   8.227   0.975  0.1583 -0.7101 -0.1982
19126SOL    HW269438   0.218   8.234   1.050  0.2897  0.7219 -0.0676
19127SOL     OW69439   0.231   7.357   3.210 -0.1365 -0.6207 -0.1590
19127SOL    HW169440   0.269   7.406   3.289 -0.6762  0.4632 -0.5552
19127SOL    HW269441   0.302   7.343   3.141 -0.0022 -0.2974 -0.0861
19128SOL     OW69442   0.374   2.871   6.927 -0.3919 -0.3927 -0.3996
19128SOL    HW169443   0.422   2.943   6.878 -0.1143 -0.5659 -0.3851
19128SOL    HW269444   0.436   2.828   6.993 -0.6755 -0.3641 -0.1140
19129SOL     OW69445   7.599   1.213   5.021  0.1039 -0.5502  0.2070
19129SOL    HW169446   7.608   1.302   5.064 -1.2770 -0.2596 -0.0849
19129SOL    HW269447   7.685   1.163   5.029  1.9568  2.0539 -2.4347
19130SOL     OW69448   3.180   3.928   1.931 -0.1374 -0.2625  0.4092
19130SOL    HW169449   3.254   3.892   1.988 -0.1574  0.4268  0.8708
19130SOL    HW269450   3.186   4.027   1.927  0.5225 -0.3555 -1.6904
19131SOL     OW69451   5.420   5.289   7.936 -0.0890  0.2923 -0.5869
19131SOL    HW169452   5.428   5.283   8.036  0.6168  2.5985 -0.4654
19131SOL    HW269453   5.359   5.217   7.903  2.7081 -2.9659  1.0759
19132SOL     OW69454   0.155   9.541   6.202 -0.1631 -0.1103  0.0641
19132SOL    HW169455   0.089   9.545   6.277 -0.3239 -1.2145 -0.0051
19132SOL    HW269456   0.246   9.524   6.239 -0.0475  0.5992  0.1020
19133SOL     OW69457   5.223   0.738   6.347 -0.9886 -0.3213 -0.1368
19133SOL    HW169458   5.134   0.706   6.380 -1.4950 -0.6487 -1.7535
19133SOL    HW269459   5.228   0.724   6.248  0.2534  1.1700 -0.2943
19134SOL     OW69460   5.002   9.084   4.000  0.3021  0.4767 -0.0713
19134SOL    HW169461   5.034   9.168   3.956 -0.1362  0.1384 -1.0627
19134SOL    HW269462   4.904   9.073   3.983  0.1381  0.3045  0.9590
19135SOL     OW69463   0.646   6.062   9.509 -0.5055  0.0784 -0.2776
19135SOL    HW169464   0.645   5.976   9.560 -1.5780  1.2709  1.7738
19135SOL    HW269465   0.687   6.047   9.419 -1.3388 -2.7368 -0.2358
19136SOL     OW69466   9.338   6.253   4.010 -0.1669 -0.4565 -0.3002
19136SOL    HW169467   9.351   6.340   3.962 -2.3885  0.4904  0.7580
19136SOL    HW269468   9.252   6.255   4.061 -0.4114 -3.4242 -0.5108
19137SOL     OW69469   1.735   5.928   7.350 -0.0848  0.4498  0.3928
19137SOL    HW169470   1.828   5.939   7.315  0.3440 -0.3104  1.2657
19137SOL    HW269471   1.718   5.831   7.370 -0.7970  0.6883  0.9616
19138SOL     OW69472   9.761   5.504   3.550 -0.6901 -0.1062  0.2016
19138SOL    HW169473   9.759   5.551   3.462  3.6497 -0.3786 -0.1366
19138SOL    HW269474   9.752   5.572   3.624 -1.1156  0.4874 -0.3870
19139SOL     OW69475   4.754   6.625   4.174  0.3656 -0.4002 -0.1867
19139SOL    HW169476   4.686   6.639   4.101  2.4048  3.0341 -1.5506
19139SOL    HW269477   4.707   6.627   4.262 -1.5611  0.2347 -1.1784
19140SOL     OW69478   6.604   0.699   4.312 -0.0827 -0.0696 -0.4812
19140SOL    HW169479   6.696   0.737   4.323 -0.3143  0.1775  0.7322
19140SOL    HW269480   6.538   0.773   4.304 -0.1421 -0.2506 -1.7030
19141SOL     OW69481   8.903   1.271   3.690 -0.0093 -0.4690  0.1946
19141SOL    HW169482   8.825   1.325   3.659 -0.4937 -1.9165 -1.1194
19141SOL    HW269483   8.899   1.180   3.651  1.8261 -0.8760  0.8959
19142SOL     OW69484   4.533   1.250   5.149  0.3768 -0.2735 -0.0598
19142SOL    HW169485   4.579   1.213   5.229  0.9709 -0.8146 -0.6363
19142SOL    HW269486   4.457   1.309   5.177  0.1632 -0.9889  0.8902
19143SOL     OW69487   3.853   0.359   1.991 -0.0711  0.5651  0.0372
19143SOL    HW169488   3.810   0.271   1.975 -0.8554  0.9753 -0.1317
19143SOL    HW269489   3.789   0.420   2.039  0.8024  0.7226  1.0419
19144SOL     OW69490   6.732   4.348   9.813 -0.2840 -0.1786 -0.2331
19144SOL    HW169491   6.773   4.340   9.722  1.8527 -0.5149  0.7200
19144SOL    HW269492   6.749   4.264   9.865 -0.6058  0.3994  0.8171
19145SOL     OW69493   6.137   0.150   4.470 -0.3217 -0.2796  0.0775
19145SOL    HW169494   6.097   0.210   4.539  0.7249  0.4190  0.0828
19145SOL    HW269495   6.084   0.156   4.385 -0.1001  0.8003  0.0175
19146SOL     OW69496   6.715   8.867   2.869 -0.1405 -0.1923  0.0361
19146SOL    HW169497   6.618   8.878   2.888 -0.0822 -0.1672  0.3299
19146SOL    HW269498   6.768   8.893   2.950  0.1678  0.9768 -0.5274
19147SOL     OW69499   8.301   9.927   6.172 -0.0494  0.6266  0.3388
19147SOL    HW169500   8.209   9.966   6.166 -0.0337  0.7359  0.7828
19147SOL    HW269501   8.299   9.846   6.230  0.6169  2.1228  2.4952
19148SOL     OW69502   4.845   4.282   6.925  0.3325 -0.7219 -0.5992
19148SOL    HW169503   4.760   4.231   6.912 -0.2247  0.4307 -1.5091
19148SOL    HW269504   4.919   4.238   6.874  0.8767 -3.1545  2.1497
19149SOL     OW69505   7.807   4.083   4.759  0.6739  1.3228  0.4196
19149SOL    HW169506   7.737   4.037   4.705  1.1248  0.4552  0.5682
19149SOL    HW269507   7.840   4.163   4.709  0.8316  0.7358 -0.4300
19150SOL     OW69508   7.954   8.359   7.001 -0.3361 -0.1964 -0.3021
19150SOL    HW169509   7.856   8.343   7.005 -0.7161  1.8245 -0.8863
19150SOL    HW269510   7.979   8.430   7.067  0.4821  0.3934 -1.2293
19151SOL     OW69511   3.578   2.757   7.957 -0.3771 -0.1749  0.5573
19151SOL    HW169512   3.607   2.839   7.909  1.2696 -0.3728  1.1942
19151SOL    HW269513   3.488   2.728   7.923  0.6571 -0.2059 -2.2704
19152SOL     OW69514   4.130   2.470   2.182 -0.1450  0.3826 -0.1165
19152SOL    HW169515   4.162   2.378   2.163  0.1490  0.9798 -2.6224
19152SOL    HW269516   4.177   2.535   2.123 -1.9881  1.8876  0.0151
19153SOL     OW69517   5.488   1.222   6.046  0.5256  0.1173  0.9170
19153SOL    HW169518   5.554   1.277   6.097 -0.5337  1.7915  0.5233
19153SOL    HW269519   5.403   1.274   6.033  0.3977 -0.6370 -1.6673
19154SOL     OW69520   1.272   1.821   3.485  0.0463 -0.5056  0.3098
19154SOL    HW169521   1.281   1.884   3.408 -0.4775 -0.3705  0.3527
19154SOL    HW269522   1.362   1.804   3.525  0.3288 -0.6258 -0.3664
19155SOL     OW69523   9.437   2.824   0.480  0.5430 -0.4177  0.5862
19155SOL    HW169524   9.482   2.828   0.391 -1.1445  1.1449 -0.2161
19155SOL    HW269525   9.499   2.861   0.550  1.0348  0.4234 -0.2843
19156SOL     OW69526   4.406   2.164   0.765 -0.3991  0.2645 -0.3861
19156SOL    HW169527   4.339   2.221   0.717 -0.8372 -1.0325 -1.3442
19156SOL    HW269528   4.421   2.200   0.857 -2.7201  0.3613 -0.0209
19157SOL     OW69529   9.028   4.477   6.962  0.1412 -0.5592 -0.6584
19157SOL    HW169530   8.992   4.523   7.043 -0.2196 -1.5447 -0.2537
19157SOL    HW269531   9.114   4.431   6.985 -0.0354 -0.9601 -0.8009
19158SOL     OW69532   0.576   0.515   3.820 -0.5812 -0.3288 -0.1540
19158SOL    HW169533   0.589   0.417   3.832  0.2295 -0.1801  0.2734
19158SOL    HW269534   0.659   0.555   3.779 -0.4899  0.3387  0.6671
19159SOL     OW69535   5.903   1.313   3.638 -0.1762 -0.5435 -0.1601
19159SOL    HW169536   5.998   1.314   3.670  0.1713 -0.4638 -1.1811
19159SOL    HW269537   5.899   1.273   3.546 -1.2404 -1.3339  0.2207
19160SOL     OW69538   4.484   1.939   5.947 -0.0506  0.0358 -0.2492
19160SOL    HW169539   4.490   1.841   5.927 -0.0616  0.0300 -0.2244
19160SOL    HW269540   4.510   1.956   6.042  0.5506  0.1291 -0.4246
19161SOL     OW69541   1.489   9.751   6.197 -0.0645  0.6243 -0.4975
19161SOL    HW169542   1.507   9.803   6.280 -1.1749  2.1966 -1.2200
19161SOL    HW269543   1.570   9.698   6.172  0.3751  0.3615  1.4018
19162SOL     OW69544   8.578   4.539   4.993  0.0489 -0.2636  0.4419
19162SOL    HW169545   8.481   4.546   4.967  0.0727  1.0916  0.6904
19162SOL    HW269546   8.633   4.594   4.930  0.6474 -0.9067  0.4007
19163SOL     OW69547   8.103   4.999   5.020  0.9266 -0.0457  0.3536
19163SOL    HW169548   8.101   4.900   5.004  1.2905 -0.2560  1.5926
19163SOL    HW269549   8.047   5.021   5.100  0.5128  0.7988 -0.1665
19164SOL     OW69550   4.200   8.655   5.447  0.3845 -0.6917  0.4292
19164SOL    HW169551   4.207   8.670   5.545  0.3604  0.5258  0.2539
19164SOL    HW269552   4.104   8.648   5.421  0.4181 -1.8866  0.6136
19165SOL     OW69553   2.229   8.956   3.335  0.7779  0.2638  0.5383
19165SOL    HW169554   2.299   8.921   3.273  0.5735 -0.4030  0.6797
19165SOL    HW269555   2.242   8.917   3.426  1.7071  2.0472  1.1876
19166SOL     OW69556   9.562   0.630   6.602  0.1036 -0.0733 -0.4326
19166SOL    HW169557   9.585   0.533   6.600 -1.1710 -0.4551  1.9379
19166SOL    HW269558   9.462   0.640   6.600  0.2111  1.1531  0.4310
19167SOL     OW69559   4.043   0.114   1.744 -0.3269  0.4112  0.0890
19167SOL    HW169560   3.999   0.057   1.813 -0.4420  0.7234  0.2723
19167SOL    HW269561   4.134   0.141   1.776 -0.0774 -0.0587 -0.2000
19168SOL     OW69562   6.875   2.027   0.969 -0.3181 -0.1541 -0.1693
19168SOL    HW169563   6.911   2.094   0.904  0.2519 -0.6684 -0.3803
19168SOL    HW269564   6.847   1.945   0.921 -0.8740 -0.1352  0.1118
19169SOL     OW69565   7.212   8.104   8.276  0.1349 -0.2291 -0.4845
19169SOL    HW169566   7.143   8.165   8.314  0.9022  0.1285  0.3565
19169SOL    HW269567   7.198   8.095   8.177 -0.7242  0.3345 -0.4185
19170SOL     OW69568   3.747   8.576   0.802 -0.0759 -0.4393  0.2670
19170SOL    HW169569   3.667   8.538   0.850  0.5987  0.7960  2.4362
19170SOL    HW269570   3.822   8.509   0.805 -0.3393 -0.7467  0.0897
19171SOL     OW69571   8.321   0.745   8.713  0.8121 -0.3963  0.5027
19171SOL    HW169572   8.364   0.765   8.801 -0.4707 -1.7038  1.4626
19171SOL    HW269573   8.383   0.770   8.639  2.0636  0.3736  1.7819
19172SOL     OW69574   0.406   8.627   3.674  0.1242 -0.6736 -0.1088
19172SOL    HW169575   0.439   8.535   3.690  0.5675 -0.4270  0.4000
19172SOL    HW269576   0.483   8.688   3.656  0.1403  0.2579  2.8370
19173SOL     OW69577   7.858   9.952   9.041 -0.3333 -0.0273  0.0144
19173SOL    HW169578   7.897  10.008   8.969 -0.4839 -0.6828 -0.5833
19173SOL    HW269579   7.930   9.898   9.084 -0.3462 -0.1457 -0.1082
19174SOL     OW69580   0.274   5.672   1.763  0.1465  0.1477  0.4292
19174SOL    HW169581   0.219   5.682   1.680 -1.5035 -0.1934  1.4395
19174SOL    HW269582   0.247   5.588   1.811  2.0484 -0.3833  0.6175
19175SOL     OW69583   9.453   0.261   4.346  0.2243  0.3980  0.2021
19175SOL    HW169584   9.487   0.188   4.287 -0.0213  0.9015 -0.5765
19175SOL    HW269585   9.479   0.350   4.308 -1.0853  0.7592  0.1246
19176SOL     OW69586   6.462   0.516   3.578 -0.1606  0.1515  0.0619
19176SOL    HW169587   6.468   0.541   3.675 -0.5801 -2.2742  0.7394
19176SOL    HW269588   6.375   0.548   3.540  0.1950  1.4953  0.3442
19177SOL     OW69589   4.080   6.094   0.321  0.1598  0.2294 -0.0603
19177SOL    HW169590   4.028   6.122   0.240  1.2937  0.1333 -0.8259
19177SOL    HW269591   4.177   6.107   0.305  0.7390 -3.9079 -0.3592
19178SOL     OW69592   9.141   9.583   1.138  0.0546 -0.1565  0.6085
19178SOL    HW169593   9.146   9.630   1.226  0.8055  0.0681  0.4533
19178SOL    HW269594   9.229   9.541   1.118 -0.1108 -0.2036 -0.0348
19179SOL     OW69595   3.373   6.502   9.680  0.6150 -0.8023  0.2774
19179SOL    HW169596   3.427   6.583   9.705  0.1856 -0.0429 -1.2082
19179SOL    HW269597   3.418   6.453   9.606 -0.0559 -0.9114 -0.0550
19180SOL     OW69598   8.414   7.142   7.746  0.7315  0.2892  0.2234
19180SOL    HW169599   8.488   7.075   7.741  0.8793  0.2967  1.9373
19180SOL    HW269600   8.327   7.094   7.753  0.4994  0.2764 -2.2120
19181SOL     OW69601   8.530   3.766   7.609 -0.1066 -0.0162 -0.1041
19181SOL    HW169602   8.492   3.810   7.690  0.4390  3.0340 -1.4551
19181SOL    HW269603   8.484   3.678   7.595 -2.9078  1.1530  1.3158
19182SOL     OW69604   0.291   3.133   1.055  0.2343  0.0892  0.5306
19182SOL    HW169605   0.335   3.054   1.013 -0.7100 -0.1836  0.0338
19182SOL    HW269606   0.210   3.103   1.106  0.7032  0.5591  1.5782
19183SOL     OW69607   1.736   7.766   8.289 -0.1659 -0.3308  0.2530
19183SOL    HW169608   1.724   7.838   8.357 -3.2940  0.7433 -1.3133
19183SOL    HW269609   1.656   7.705   8.290  0.3614 -1.1074 -1.4865
19184SOL     OW69610   6.889   2.374   2.432  0.1568 -0.7558  0.2113
19184SOL    HW169611   6.969   2.428   2.455 -2.3245  3.0993  0.2435
19184SOL    HW269612   6.834   2.359   2.514  0.1144 -2.1661 -0.0613
19185SOL     OW69613   0.105   9.815   7.737 -0.3590 -0.0019  0.2569
19185SOL    HW169614   0.038   9.740   7.741  0.6652 -0.8914  0.7618
19185SOL    HW269615   0.191   9.785   7.776  0.1492  1.3664  0.2014
19186SOL     OW69616   3.294   0.905   5.226  0.6126  0.0985  0.0296
19186SOL    HW169617   3.264   0.921   5.320  1.0408  0.0048  0.1856
19186SOL    HW269618   3.241   0.830   5.186  1.0278 -0.4474  0.4945
19187SOL     OW69619   7.592   9.635   3.056 -0.0763 -0.1918  0.8016
19187SOL    HW169620   7.625   9.696   2.985 -1.5869 -0.5959 -0.2857
19187SOL    HW269621   7.669   9.595   3.105  0.9273  2.3208  1.3117
19188SOL     OW69622   1.179   2.907   9.057  0.1028  0.0782  0.6493
19188SOL    HW169623   1.128   2.938   9.137 -0.4016  0.2213  0.2706
19188SOL    HW269624   1.173   2.976   8.985 -2.7520 -1.7828 -0.9732
19189SOL     OW69625   0.463   3.935   9.581  0.7137 -0.6306 -0.2632
19189SOL    HW169626   0.510   3.970   9.662  1.3708 -0.8131 -0.5666
19189SOL    HW269627   0.498   3.844   9.559  0.0941 -0.8444 -0.3856
19190SOL     OW69628   5.758   3.726   2.351  0.5415  0.7255  0.0360
19190SOL    HW169629   5.794   3.818   2.364  1.3617  0.3899  0.1203
19190SOL    HW269630   5.748   3.707   2.253 -0.0659  1.0744  0.0299
19191SOL     OW69631   4.036   4.517   1.623 -0.1774  0.4848 -0.3045
19191SOL    HW169632   4.112   4.518   1.688 -0.6034  0.4238  0.2008
19191SOL    HW269633   3.978   4.597   1.637 -1.6149 -0.7351  1.0306
19192SOL     OW69634   7.020   9.135   4.346  0.2398 -0.6023 -0.0457
19192SOL    HW169635   6.927   9.135   4.309  0.2339  0.1110 -0.0258
19192SOL    HW269636   7.020   9.172   4.438  0.3039 -2.1259  0.5755
19193SOL     OW69637   0.314   1.685   5.584 -0.0577  0.4760  0.1814
19193SOL    HW169638   0.368   1.769   5.578  1.0655 -0.0979  1.8308
19193SOL    HW269639   0.230   1.703   5.635  0.3400  0.5348  0.8262
19194SOL     OW69640   2.958   3.274   4.142 -0.0352  0.1507 -0.5730
19194SOL    HW169641   3.037   3.286   4.081 -0.2631  0.6282 -0.7744
19194SOL    HW269642   2.960   3.344   4.213 -0.7019  0.6345 -1.0346
19195SOL     OW69643   7.851   0.795   1.599 -0.2046  0.5263 -0.4069
19195SOL    HW169644   7.797   0.819   1.680 -0.1810  1.1893 -0.5883
19195SOL    HW269645   7.948   0.810   1.618 -0.1780  0.4444 -0.4766
19196SOL     OW69646   6.853   8.074   7.378 -0.2025 -0.2738  0.1302
19196SOL    HW169647   6.832   8.171   7.380 -2.4364 -0.7519  1.4123
19196SOL    HW269648   6.865   8.040   7.472  4.7126 -0.4318 -0.4030
19197SOL     OW69649   8.896   5.088   0.617 -0.2023  0.4939  0.5139
19197SOL    HW169650   8.951   5.023   0.668 -1.8362 -0.7104  0.7901
19197SOL    HW269651   8.955   5.141   0.556  1.1233 -1.4627  0.0502
19198SOL     OW69652   8.786   9.950   4.104 -0.2866  0.0558  0.0141
19198SOL    HW169653   8.803  10.026   4.167 -0.2935 -1.3281  1.7297
19198SOL    HW269654   8.706   9.970   4.047  0.0306  1.5453  0.0809
19199SOL     OW69655   3.266   0.935   2.263 -0.3535 -0.1125  0.3080
19199SOL    HW169656   3.355   0.954   2.304 -0.1868 -3.1585  1.5052
19199SOL    HW269657   3.279   0.911   2.167  0.3307 -1.9639  0.8347
19200SOL     OW69658   1.583   1.255   2.168  0.1990  1.0135  0.2232
19200SOL    HW169659   1.635   1.215   2.243  0.0357  0.1275 -0.1377
19200SOL    HW269660   1.643   1.318   2.117  0.4967  1.1119  0.6821
19201SOL     OW69661   9.650   1.563   2.841  0.2090 -0.3838 -0.2232
19201SOL    HW169662   9.627   1.483   2.786  1.5137  0.3248 -1.8256
19201SOL    HW269663   9.659   1.643   2.783  2.2128  0.2656  0.8985
19202SOL     OW69664   9.321   2.316   2.686 -0.3521 -0.1980 -0.8216
19202SOL    HW169665   9.223   2.321   2.702 -0.3059 -0.4415 -0.4321
19202SOL    HW269666   9.368   2.383   2.744 -0.3414  0.4030 -1.5227
19203SOL     OW69667   7.221   0.787   0.587  0.4290  0.2507 -0.0867
19203SOL    HW169668   7.231   0.878   0.546  0.9993  0.8365  1.3188
19203SOL    HW269669   7.199   0.721   0.516  0.7769  1.3589 -1.2464
19204SOL     OW69670   2.363   0.072   8.472 -0.2267 -0.3546 -0.1213
19204SOL    HW169671   2.321   0.084   8.383 -1.9901 -0.0389  0.7289
19204SOL    HW269672   2.452   0.118   8.474 -0.1679 -0.3948 -1.7143
19205SOL     OW69673   5.386   1.901   4.894  0.1931  1.1819  0.7345
19205SOL    HW169674   5.378   1.932   4.989  0.6213 -0.3638  1.2830
19205SOL    HW269675   5.348   1.809   4.885 -0.1216  1.4380 -0.6617
19206SOL     OW69676   6.351   0.071   8.735 -0.0283  0.0709  0.7687
19206SOL    HW169677   6.404  -0.007   8.703 -0.7604  0.3887 -1.2766
19206SOL    HW269678   6.368   0.085   8.833  0.7277 -2.1395  0.9793
19207SOL     OW69679   3.553   9.368   7.905 -0.0929  0.1840  0.1677
19207SOL    HW169680   3.480   9.400   7.845 -1.6038 -0.4752  1.6223
19207SOL    HW269681   3.640   9.373   7.856 -1.1793  0.3504 -1.8242
19208SOL     OW69682   2.384   6.573   2.469 -0.0421 -0.3997 -0.2602
19208SOL    HW169683   2.407   6.527   2.383  0.7286  0.7028 -0.6546
19208SOL    HW269684   2.290   6.607   2.463 -0.1720 -0.7851 -0.4641
19209SOL     OW69685   8.014   3.678   3.121  0.1895 -0.2789  0.4124
19209SOL    HW169686   8.037   3.599   3.178 -1.0745 -0.4582  0.6825
19209SOL    HW269687   8.068   3.675   3.038 -0.4207 -1.8898  0.0424
19210SOL     OW69688   9.655   0.825   9.630  0.0838  0.4460 -0.4064
19210SOL    HW169689   9.697   0.914   9.619  0.8757  0.3841  1.8577
19210SOL    HW269690   9.592   0.827   9.708 -1.1899 -0.5158 -1.3753
19211SOL     OW69691   3.566   8.800   7.732 -0.0778 -0.2680  0.0708
19211SOL    HW169692   3.504   8.873   7.760  4.1847  2.9283  1.7598
19211SOL    HW269693   3.544   8.717   7.782 -2.9070  0.7555  0.6516
19212SOL     OW69694   2.946   4.013   3.920  0.0108 -0.4453  0.5365
19212SOL    HW169695   2.895   4.098   3.903  0.6624 -0.5356 -2.0854
19212SOL    HW269696   2.889   3.950   3.973 -0.3265  1.7606  2.8504
19213SOL     OW69697   4.156   5.251   4.499 -0.0422  0.6336  0.7154
19213SOL    HW169698   4.094   5.321   4.533 -0.1762  0.2179  1.3328
19213SOL    HW269699   4.103   5.172   4.467  0.0202  1.4367 -1.4502
19214SOL     OW69700   5.587   6.862   2.676  0.0804  0.0534  0.4392
19214SOL    HW169701   5.489   6.854   2.658 -0.3467  2.2684  1.5889
19214SOL    HW269702   5.637   6.793   2.623 -1.9574 -0.0756 -1.3668
19215SOL     OW69703   9.961   8.097   2.041  0.0363  0.3322 -0.9665
19215SOL    HW169704   9.908   8.111   1.958 -3.2282  2.2940  1.2988
19215SOL    HW269705   9.905   8.049   2.109  3.1888 -2.7363 -0.3846
19216SOL     OW69706   8.797   6.882   8.837  0.2861 -0.0119  0.3738
19216SOL    HW169707   8.779   6.858   8.742 -0.4462  1.3919  0.1487
19216SOL    HW269708   8.854   6.964   8.841  1.9104 -1.1261  1.1481
19217SOL     OW69709   9.254   4.962   4.240  0.4818 -0.0059  0.1694
19217SOL    HW169710   9.264   4.991   4.335  0.6191  0.3703  0.0407
19217SOL    HW269711   9.157   4.944   4.220  0.4701 -0.2239  0.4188
19218SOL     OW69712   3.490   8.923   9.431  0.1354  0.1920  0.2314
19218SOL    HW169713   3.573   8.923   9.486 -0.5613  0.7846  1.2920
19218SOL    HW269714   3.430   8.849   9.461 -0.7773  1.2648  1.1053
19219SOL     OW69715   0.890   2.655   9.732  0.0624 -0.4118 -0.0551
19219SOL    HW169716   0.967   2.621   9.678 -0.2932  0.0106 -0.8402
19219SOL    HW269717   0.909   2.641   9.829  0.1007 -2.4499 -0.3398
19220SOL     OW69718   9.203   3.713   7.199 -0.0185 -0.0074  0.2620
19220SOL    HW169719   9.109   3.725   7.169 -0.0864  0.8918  0.8044
19220SOL    HW269720   9.258   3.790   7.169  0.3141 -0.0149  0.8397
19221SOL     OW69721   5.131   4.258   0.528 -0.3451 -0.1600 -0.3378
19221SOL    HW169722   5.062   4.309   0.580 -1.0247 -1.8624  0.4790
19221SOL    HW269723   5.203   4.226   0.590  0.2505  0.0786 -0.8955
19222SOL     OW69724   6.532   0.287   8.654 -0.3629  0.2267 -0.3133
19222SOL    HW169725   6.619   0.245   8.681 -1.3356 -0.9738  1.0049
19222SOL    HW269726   6.456   0.237   8.695 -1.7792  0.1046 -2.9940
19223SOL     OW69727   0.768   2.657   4.022 -0.5668  0.3277 -0.3194
19223SOL    HW169728   0.838   2.595   3.985 -0.3494  0.2532  0.2035
19223SOL    HW269729   0.734   2.620   4.108 -0.3843  0.9694  0.0336
19224SOL     OW69730   8.774   4.738   9.831  0.2197 -0.1127 -0.3509
19224SOL    HW169731   8.764   4.654   9.777 -0.8988 -0.5935  0.5851
19224SOL    HW269732   8.720   4.730   9.915 -1.2232  2.1665 -1.0078
19225SOL     OW69733   1.868   5.436   9.712 -0.2373 -0.5847 -0.1983
19225SOL    HW169734   1.819   5.366   9.764  0.4486 -0.4897  0.5870
19225SOL    HW269735   1.943   5.394   9.661  1.6483 -0.1612  2.0867
19226SOL     OW69736   7.917   9.760   6.906  0.7847  0.0895  0.0595
19226SOL    HW169737   7.898   9.678   6.853  0.1348  0.0901  0.2909
19226SOL    HW269738   7.946   9.834   6.845 -2.2875  0.8271 -0.6006
19227SOL     OW69739   2.965   9.709   9.639 -0.4343 -0.1378 -0.0893
19227SOL    HW169740   2.902   9.717   9.716  0.3031  0.5007  0.4594
19227SOL    HW269741   2.945   9.626   9.588 -0.6537 -0.7934  1.0460
19228SOL     OW69742   7.217   5.305   9.960  0.3222 -0.7647 -0.1217
19228SOL    HW169743   7.178   5.295   9.868  0.0865 -0.9999  0.0027
19228SOL    HW269744   7.301   5.359   9.955  0.0589 -0.3841 -0.4130
19229SOL     OW69745   1.692   2.628   6.042  0.1699  0.2879  0.2389
19229SOL    HW169746   1.790   2.611   6.031 -0.1547 -0.7842 -1.1229
19229SOL    HW269747   1.667   2.710   5.990 -0.1185 -0.9619 -1.6735
19230SOL     OW69748   4.513   8.304   7.257 -0.0620  0.0420  0.1763
19230SOL    HW169749   4.463   8.269   7.179  0.3549 -0.7204  0.2443
19230SOL    HW269750   4.562   8.387   7.230  0.1550 -0.2678 -0.4013
19231SOL     OW69751   1.532   8.540   4.231 -0.6835  0.0311 -0.0511
19231SOL    HW169752   1.474   8.568   4.154 -0.5231 -0.5387 -0.3773
19231SOL    HW269753   1.501   8.586   4.314 -0.8664  0.6357 -0.4523
19232SOL     OW69754   1.537   9.975   0.195  0.2127  0.2617 -0.0967
19232SOL    HW169755   1.617   9.987   0.136  0.7158  0.6235  0.6587
19232SOL    HW269756   1.544   9.889   0.244  1.2217  1.3055  1.6287
19233SOL     OW69757   4.432   4.211   7.663 -0.4184 -0.5000 -0.3375
19233SOL    HW169758   4.379   4.259   7.733  1.7335  2.5845 -0.7201
19233SOL    HW269759   4.518   4.180   7.702  1.0276  1.6935 -1.6634
19234SOL     OW69760   8.994   8.612   6.633 -0.4967 -0.1615  0.5474
19234SOL    HW169761   8.903   8.651   6.618  0.0656  0.2746 -2.1091
19234SOL    HW269762   8.997   8.520   6.592  1.2854  1.2671 -2.7785
19235SOL     OW69763   0.806   5.863   9.660 -0.0664  0.2618  0.3208
19235SOL    HW169764   0.819   5.882   9.757 -1.1260  1.6328  0.1974
19235SOL    HW269765   0.873   5.915   9.607  0.8441 -0.8729  0.3293
19236SOL     OW69766   7.872   4.305   7.708  0.4319  0.7402 -0.0613
19236SOL    HW169767   7.774   4.323   7.693  0.4568 -0.8415 -2.3840
19236SOL    HW269768   7.926   4.363   7.647  0.8555 -0.0506 -0.4362
19237SOL     OW69769   8.931   2.317   1.853  0.0238  0.1523 -0.3362
19237SOL    HW169770   8.885   2.268   1.927  0.5174  0.4412  0.1550
19237SOL    HW269771   8.983   2.393   1.890 -1.4026  1.5588 -1.1789
19238SOL     OW69772   2.063   9.153   0.245  0.3273  0.1157  0.1396
19238SOL    HW169773   2.124   9.076   0.261  0.5082  0.7101  2.4206
19238SOL    HW269774   1.980   9.142   0.299  1.4280  2.7096  2.4689
19239SOL     OW69775   5.850   8.431   6.120 -0.6664 -0.5068 -0.0787
19239SOL    HW169776   5.763   8.480   6.133 -1.2253 -1.9304  1.7875
19239SOL    HW269777   5.834   8.333   6.131  1.2567 -0.7467  0.6910
19240SOL     OW69778   0.769   2.739   8.815  0.4016  0.8297  0.1075
19240SOL    HW169779   0.816   2.799   8.879 -1.2550 -0.6621  2.8220
19240SOL    HW269780   0.813   2.649   8.814 -1.4253 -0.1227  1.5806
19241SOL     OW69781   0.394   6.562   3.131 -0.3478  0.4585  0.6452
19241SOL    HW169782   0.328   6.523   3.068 -0.2288  0.1586  0.7034
19241SOL    HW269783   0.359   6.648   3.167 -0.3747  0.6798  0.0979
19242SOL     OW69784   1.915   0.819   8.578  0.1857 -0.0378 -0.5052
19242SOL    HW169785   1.915   0.820   8.678  2.2180  0.0815 -0.4879
19242SOL    HW269786   1.955   0.904   8.544  0.8845 -0.6988 -1.3759
19243SOL     OW69787   0.516   2.283   4.103  0.5779 -0.1371  0.1360
19243SOL    HW169788   0.470   2.365   4.137 -0.5295 -1.2928  1.4869
19243SOL    HW269789   0.565   2.305   4.019 -0.4810  1.6849 -0.0326
19244SOL     OW69790   4.664   9.839   8.276 -0.1720 -0.3060  0.0546
19244SOL    HW169791   4.596   9.909   8.254 -0.0887 -0.4649 -0.7329
19244SOL    HW269792   4.652   9.809   8.371 -0.7115  0.2098  0.1517
19245SOL     OW69793   1.488   0.506   0.062 -0.0237  0.0909 -0.0728
19245SOL    HW169794   1.523   0.447  -0.011 -1.3950 -3.2203  1.8299
19245SOL    HW269795   1.388   0.500   0.064 -0.0570  0.9116  1.4453
19246SOL     OW69796   3.924   5.155   3.685  0.4734  0.4093  0.0704
19246SOL    HW169797   4.018   5.169   3.714  0.7736  2.2401 -1.6472
19246SOL    HW269798   3.890   5.238   3.640 -0.9638 -1.2455 -2.0340
19247SOL     OW69799   7.397   7.011   2.408 -0.1261  0.5401 -0.0609
19247SOL    HW169800   7.398   7.075   2.331  1.0692  1.1635  0.4572
19247SOL    HW269801   7.484   6.962   2.412 -0.8266 -0.7279 -0.1124
19248SOL     OW69802   2.935   4.401   5.893 -0.0003  0.6054  0.4780
19248SOL    HW169803   2.890   4.490   5.899  0.3285  0.7859  0.1946
19248SOL    HW269804   2.879   4.333   5.942 -1.2466  0.5704 -0.9727
19249SOL     OW69805   0.727   9.911   2.101 -0.2743 -0.1842 -0.0524
19249SOL    HW169806   0.737   9.825   2.050 -0.0480  0.5483 -1.2793
19249SOL    HW269807   0.812   9.963   2.096 -1.0565  1.0367 -1.0720
19250SOL     OW69808   3.697   1.008   9.320 -0.2929  0.1586 -0.8527
19250SOL    HW169809   3.640   1.090   9.314  1.1622  1.3279  0.5327
19250SOL    HW269810   3.727   0.981   9.228  0.7022  2.3067 -1.1983
19251SOL     OW69811   8.900   1.580   1.708  0.1315  0.0730  0.1845
19251SOL    HW169812   8.901   1.550   1.803  0.2040  2.1365  0.8729
19251SOL    HW269813   8.935   1.674   1.702  1.0341 -0.3522 -2.0055
19252SOL     OW69814   5.287   7.799   4.194 -0.0497 -0.1367  0.3577
19252SOL    HW169815   5.218   7.785   4.123  1.1448  0.7022 -0.9931
19252SOL    HW269816   5.331   7.712   4.216  0.7247 -0.1312 -1.1270
19253SOL     OW69817   0.950   6.293   6.994  0.4568 -0.3392  0.2687
19253SOL    HW169818   0.872   6.308   7.054  0.3757  1.4231 -0.2435
19253SOL    HW269819   1.035   6.306   7.045  0.4174 -1.5739  0.6583
19254SOL     OW69820   6.464   0.541   8.513  0.1530  0.4474  0.0003
19254SOL    HW169821   6.494   0.480   8.586 -1.0526 -0.6559 -0.4242
19254SOL    HW269822   6.415   0.619   8.553  2.5559  1.7126  0.6173
19255SOL     OW69823   5.701   4.418   0.648 -0.2543  0.3126 -0.0596
19255SOL    HW169824   5.741   4.493   0.596 -0.3116  0.4997  0.1619
19255SOL    HW269825   5.663   4.350   0.586  0.1282  0.2864 -0.2675
19256SOL     OW69826   5.969   0.842   0.981 -0.0719 -0.0253  0.6921
19256SOL    HW169827   6.001   0.755   1.019 -1.3184  0.5560  3.1743
19256SOL    HW269828   5.879   0.828   0.939 -0.2832  0.0665  1.1126
19257SOL     OW69829   1.391   9.653   2.047  0.0742 -0.2664  0.3081
19257SOL    HW169830   1.353   9.729   1.994 -0.8228 -0.8341  0.1172
19257SOL    HW269831   1.476   9.682   2.092  0.4975  0.4140 -0.9143
19258SOL     OW69832   6.759   1.314   0.234 -0.0659 -0.4877  0.1056
19258SOL    HW169833   6.838   1.369   0.263  0.5800 -1.3895  0.0601
19258SOL    HW269834   6.694   1.307   0.310 -1.1751  2.1167 -0.5383
19259SOL     OW69835   8.512   9.083  10.028  0.7183  0.1040 -0.0615
19259SOL    HW169836   8.521   9.054   9.933 -2.6239 -1.5447  0.0408
19259SOL    HW269837   8.520   9.183  10.033 -1.0649  0.4057 -2.3931
19260SOL     OW69838   9.771   5.511   5.062 -0.0284  0.0273  0.1106
19260SOL    HW169839   9.827   5.457   4.999 -0.3978  0.7276 -0.8287
19260SOL    HW269840   9.829   5.556   5.129  0.4465 -0.0834 -0.2262
19261SOL     OW69841   3.047   3.887   8.054  0.1974 -0.4215  0.0091
19261SOL    HW169842   2.970   3.923   8.106 -1.0765 -2.8734 -0.0775
19261SOL    HW269843   3.032   3.903   7.956 -0.7021 -1.7370 -0.0834
19262SOL     OW69844   7.230   0.520   4.122 -0.1899 -0.7233  0.1187
19262SOL    HW169845   7.148   0.499   4.068  1.0884  1.0641 -2.5698
19262SOL    HW269846   7.311   0.495   4.070  1.0600  0.0867  1.6534
19263SOL     OW69847   2.718   1.817   9.194 -0.0125 -0.5521 -0.3085
19263SOL    HW169848   2.720   1.741   9.260  1.1235 -1.5990 -1.5189
19263SOL    HW269849   2.637   1.809   9.136 -1.0498  0.4089  0.9833
19264SOL     OW69850   6.495   8.918   7.831  0.0675 -0.0215  0.1583
19264SOL    HW169851   6.435   8.839   7.840 -3.0519  2.5467  3.0956
19264SOL    HW269852   6.559   8.920   7.909 -0.2937  0.6647  0.4426
19265SOL     OW69853   0.587   9.901   6.701 -0.0356  0.2837 -0.4039
19265SOL    HW169854   0.676   9.854   6.702  0.8019  1.7436 -2.7422
19265SOL    HW269855   0.532   9.865   6.625 -1.7120 -1.0251  1.3871
19266SOL     OW69856   9.033   9.573   2.451  0.9908 -0.2903 -0.5537
19266SOL    HW169857   8.937   9.549   2.439  1.7210 -1.8895 -3.7245
19266SOL    HW269858   9.044   9.672   2.444 -0.3767 -0.1099 -0.3032
19267SOL     OW69859   0.299   9.597   2.556  0.3960 -0.2577  0.5876
19267SOL    HW169860   0.394   9.624   2.545  0.1668  0.0744 -0.5718
19267SOL    HW269861   0.239   9.673   2.532 -0.1864 -0.8337  0.1925
19268SOL     OW69862   7.340   9.587   8.948 -0.3436 -0.0042 -0.5510
19268SOL    HW169863   7.268   9.538   8.899 -0.1614  1.1382 -1.9657
19268SOL    HW269864   7.308   9.610   9.040 -1.6699  0.2137 -1.0578
19269SOL     OW69865   0.761   6.748   0.810 -0.0225 -0.1215  0.1999
19269SOL    HW169866   0.771   6.685   0.733 -0.2709  0.7006 -0.5199
19269SOL    HW269867   0.826   6.823   0.800 -0.9718  0.6946  0.0663
19270SOL     OW69868   9.870   6.237   3.143  0.6502 -0.6130  0.2856
19270SOL    HW169869   9.802   6.311   3.137  0.3758 -0.8250  0.7170
19270SOL    HW269870   9.948   6.258   3.084  0.3470 -0.2168  0.0237
19271SOL     OW69871   7.233   2.477   3.460  0.2200 -0.1952 -0.3323
19271SOL    HW169872   7.219   2.378   3.454 -0.6832 -0.0370 -0.8769
19271SOL    HW269873   7.146   2.525   3.445  0.3603  0.6425  1.4121
19272SOL     OW69874   3.877   9.018   5.794  0.1679 -0.5380 -0.0067
19272SOL    HW169875   3.798   9.066   5.832  1.1790  0.6766  0.5813
19272SOL    HW269876   3.904   9.060   5.708 -0.0822 -1.2262 -0.4272
19273SOL     OW69877   1.377   5.582   0.918  0.1784 -0.4442  0.1092
19273SOL    HW169878   1.387   5.624   1.008 -2.4340  1.0268 -0.2384
19273SOL    HW269879   1.307   5.511   0.922 -0.9819  0.6172 -1.0675
19274SOL     OW69880   2.608   2.710   7.370  0.4614 -0.1592  0.4686
19274SOL    HW169881   2.624   2.782   7.438 -0.9690  0.2936  0.3574
19274SOL    HW269882   2.558   2.749   7.292  1.0412 -0.9408 -0.2994
19275SOL     OW69883   9.097   9.507   2.172  0.4072  0.1654  0.2529
19275SOL    HW169884   9.064   9.539   2.261 -0.0506 -0.1231  0.1880
19275SOL    HW269885   9.033   9.440   2.135  1.5581 -1.1069  0.5462
19276SOL     OW69886   2.244   6.309   8.669  0.1474  0.3849 -1.2317
19276SOL    HW169887   2.269   6.312   8.766 -1.9675 -1.5323 -0.6032
19276SOL    HW269888   2.250   6.401   8.631 -1.4780  1.6371  1.3827
19277SOL     OW69889   2.192   3.145   1.558  0.2837 -0.0152  0.1356
19277SOL    HW169890   2.220   3.219   1.619 -1.5256  0.5970  0.2554
19277SOL    HW269891   2.188   3.060   1.609 -1.5266  0.5486  0.9615
19278SOL     OW69892   6.542   2.653   0.056 -0.2861  0.3805 -0.1018
19278SOL    HW169893   6.574   2.637  -0.037  0.9809  2.3439 -0.0216
19278SOL    HW269894   6.576   2.579   0.115 -2.3467 -1.6821 -1.4298
19279SOL     OW69895   0.193   9.139   3.699 -0.6869 -0.6113  0.2266
19279SOL    HW169896   0.228   9.064   3.755 -0.5770  0.2826  1.3696
19279SOL    HW269897   0.099   9.160   3.726 -0.1988  0.6764  0.9755
19280SOL     OW69898   6.647   3.187   0.495  0.2198 -0.4687  0.2577
19280SOL    HW169899   6.674   3.119   0.562 -0.0739  0.4501  1.3212
19280SOL    HW269900   6.664   3.279   0.531 -1.7838  0.0752 -0.1182
19281SOL     OW69901   0.889   6.988   8.437  0.1579  0.4403  0.4009
19281SOL    HW169902   0.951   7.051   8.484  1.2162 -0.9920  0.9447
19281SOL    HW269903   0.844   6.929   8.504  2.5406 -2.4054 -0.4018
19282SOL     OW69904   0.436   1.040   3.252  0.3181 -0.0574 -0.0258
19282SOL    HW169905   0.387   1.086   3.178 -1.4367 -0.6445  0.7466
19282SOL    HW269906   0.423   1.090   3.338  2.4555  0.7012 -0.1173
19283SOL     OW69907   9.026   2.213   6.615 -0.2275 -0.0339 -0.0575
19283SOL    HW169908   9.092   2.161   6.561  3.1847  0.9289  2.9985
19283SOL    HW269909   8.993   2.290   6.562  1.4429 -0.3036 -1.5391
19284SOL     OW69910   9.086   8.254   1.117 -0.0261  0.2939 -0.6954
19284SOL    HW169911   9.051   8.293   1.201  1.7738  1.1563 -0.3232
19284SOL    HW269912   9.120   8.327   1.057  1.1201 -0.5014 -1.0321
19285SOL     OW69913   4.832   6.278   9.210 -0.0768 -0.8855  0.3752
19285SOL    HW169914   4.803   6.189   9.245  0.4263 -1.4956 -0.7234
19285SOL    HW269915   4.779   6.300   9.128 -1.9435  0.9744  2.0063
19286SOL     OW69916   3.192   2.531   4.055  0.0285 -0.1902 -0.1011
19286SOL    HW169917   3.131   2.576   4.120  0.1940  0.1307 -0.1687
19286SOL    HW269918   3.138   2.489   3.982 -0.0967  0.2771 -0.2766
19287SOL     OW69919   6.145   0.404   1.832  0.0980  0.0237  0.1760
19287SOL    HW169920   6.103   0.353   1.757  0.5376  0.2912 -0.2582
19287SOL    HW269921   6.074   0.446   1.888 -0.2127  0.3600 -0.4706
19288SOL     OW69922   3.839   0.471   3.592  0.2654  0.1370 -0.4008
19288SOL    HW169923   3.776   0.479   3.669  2.7382  0.3922  1.6730
19288SOL    HW269924   3.854   0.375   3.571 -1.6916  0.0852 -1.7008
19289SOL     OW69925   0.739   7.690   8.110  0.6872  0.2739 -0.0337
19289SOL    HW169926   0.662   7.683   8.047 -0.5233  0.2110  1.4289
19289SOL    HW269927   0.751   7.785   8.138  0.6553  0.1741  0.3289
19290SOL     OW69928   0.743   3.507   0.289  0.1801 -0.2619  0.4405
19290SOL    HW169929   0.809   3.581   0.306  0.8130 -1.2279  2.2653
19290SOL    HW269930   0.700   3.480   0.376  0.3477 -2.4157 -0.1341
19291SOL     OW69931   0.967   5.527   0.169 -0.4563  0.1603 -0.2516
19291SOL    HW169932   1.047   5.537   0.110 -0.0186 -1.3738  0.0516
19291SOL    HW269933   0.993   5.478   0.253 -1.3166  1.2782  0.6905
19292SOL     OW69934   3.090   3.346   6.556  0.1018  0.3350 -0.2708
19292SOL    HW169935   3.064   3.398   6.475 -2.6906 -1.5518 -0.6767
19292SOL    HW269936   3.027   3.367   6.631 -0.2253 -1.4049 -0.0305
19293SOL     OW69937   2.926   5.265   0.308 -0.1700 -0.1531  0.1499
19293SOL    HW169938   2.864   5.288   0.382 -0.1199  1.1540 -0.1972
19293SOL    HW269939   2.873   5.234   0.229 -0.2795 -0.6455  0.4171
19294SOL     OW69940   6.052   1.337   4.898 -0.0020  0.5760 -0.2301
19294SOL    HW169941   6.102   1.279   4.963  0.8626  0.4304 -1.0075
19294SOL    HW269942   6.110   1.415   4.873  0.3859 -0.3124 -2.1853
19295SOL     OW69943   9.783   5.423   4.013  0.3951 -0.0841  0.0343
19295SOL    HW169944   9.689   5.454   3.998  0.4837 -0.4889 -1.4394
19295SOL    HW269945   9.784   5.324   4.023  0.6808 -0.0898 -0.0518
19296SOL     OW69946   1.194   9.652   1.162 -0.4342 -0.0162  0.3996
19296SOL    HW169947   1.293   9.661   1.149 -0.4018 -1.2985 -0.3248
19296SOL    HW269948   1.174   9.564   1.205 -1.1487  0.9169  2.0209
19297SOL     OW69949   0.164   2.376   4.206  0.2564  0.1095 -0.1586
19297SOL    HW169950   0.095   2.305   4.191  1.3028 -0.6587 -1.4502
19297SOL    HW269951   0.240   2.338   4.257  1.7367 -0.2881 -2.5734
19298SOL     OW69952   8.755   2.889   0.541 -0.3632  0.1404  0.3260
19298SOL    HW169953   8.727   2.800   0.575  0.2747  0.1510  0.8804
19298SOL    HW269954   8.776   2.883   0.443 -0.2631 -0.3224  0.3791
19299SOL     OW69955   6.907   2.911   2.610  0.1106  0.1774  0.7470
19299SOL    HW169956   6.856   2.860   2.680 -0.1190  0.0591  0.4920
19299SOL    HW269957   6.869   2.893   2.520 -0.3163  1.2245  0.7115
19300SOL     OW69958   8.388   8.679   5.784 -0.4189 -0.1561  0.5135
19300SOL    HW169959   8.476   8.690   5.738 -1.1985  0.5367 -0.8322
19300SOL    HW269960   8.345   8.768   5.796 -0.9676 -0.4984  1.0953
19301SOL     OW69961   0.484   2.374   6.307 -0.2751  0.0856 -0.1435
19301SOL    HW169962   0.480   2.470   6.335  2.0332  0.3501 -0.6586
19301SOL    HW269963   0.537   2.322   6.373 -2.2798 -1.0531  0.6172
19302SOL     OW69964   8.911   8.651   9.924 -0.0242  0.2466 -0.2503
19302SOL    HW169965   8.920   8.551   9.925 -1.0262  0.1582  0.5132
19302SOL    HW269966   8.824   8.677   9.965 -0.2009  1.3989 -1.3416
19303SOL     OW69967   3.424   0.065   6.190  0.1670 -0.1116 -0.0282
19303SOL    HW169968   3.395   0.133   6.123 -1.2030 -1.6287 -1.0173
19303SOL    HW269969   3.493   0.006   6.150  0.2998 -0.2101  0.3413
19304SOL     OW69970   4.377   9.043   6.976 -0.1071  0.1343 -0.9025
19304SOL    HW169971   4.468   9.085   6.975  0.0666 -0.2122  0.5881
19304SOL    HW269972   4.383   8.951   7.012 -1.4965  1.1603  2.1200
19305SOL     OW69973   1.241   5.196   7.866 -0.2414 -0.1793 -0.1847
19305SOL    HW169974   1.228   5.152   7.955  1.0436  3.0712  1.6842
19305SOL    HW269975   1.336   5.189   7.838 -0.2411  0.4725 -0.3659
19306SOL     OW69976   1.781   4.860   3.412 -0.2161  0.1648 -0.1939
19306SOL    HW169977   1.748   4.833   3.502 -0.7723 -2.1190 -1.0499
19306SOL    HW269978   1.713   4.920   3.368 -1.5321 -1.4869 -0.4484
19307SOL     OW69979   1.323   9.798   0.795  0.5389  0.2787  0.3843
19307SOL    HW169980   1.315   9.877   0.734  2.3759  0.1584 -0.0503
19307SOL    HW269981   1.267   9.724   0.759  0.0472  0.8672 -0.0801
19308SOL     OW69982   1.178   0.452   1.644  0.7134  0.0007 -0.1102
19308SOL    HW169983   1.193   0.406   1.556  0.0806 -1.3472  0.4748
19308SOL    HW269984   1.157   0.548   1.628 -2.4686 -0.8783 -1.6513
19309SOL     OW69985   7.679   4.454   0.482  0.1703  0.4700  0.5229
19309SOL    HW169986   7.661   4.379   0.546  0.6733 -1.4048 -1.4838
19309SOL    HW269987   7.665   4.542   0.528 -0.2803 -0.8522  2.9490
19310SOL     OW69988   3.506   6.889   3.812 -0.3606  0.0741  0.2724
19310SOL    HW169989   3.554   6.965   3.768 -2.0687  0.7829 -0.3912
19310SOL    HW269990   3.521   6.893   3.911  1.7034 -0.2767  0.0115
19311SOL     OW69991   2.519   1.447   0.615 -0.2947 -0.7987 -0.4377
19311SOL    HW169992   2.573   1.518   0.661 -0.1190 -0.1159 -1.6544
19311SOL    HW269993   2.579   1.392   0.557 -0.2123 -2.7939  1.4760
19312SOL     OW69994   7.230   9.733   8.121 -0.1117 -0.4098  0.6541
19312SOL    HW169995   7.131   9.740   8.133 -0.0928  0.1030  0.5244
19312SOL    HW269996   7.254   9.639   8.096 -0.5088 -0.6736  1.2303
19313SOL     OW69997   1.183   8.606   8.244  0.2119 -0.4615  0.2704
19313SOL    HW169998   1.087   8.618   8.220  0.0150  0.1369  1.3290
19313SOL    HW269999   1.219   8.691   8.283  1.0505 -0.8096  0.2680
19314SOL     OW70000   9.233   4.827   8.093 -0.4669  0.4982  0.0795
19314SOL    HW170001   9.173   4.774   8.032  0.3944 -1.2262  0.6766
19314SOL    HW270002   9.230   4.787   8.185 -0.9437  2.4337  0.9186
19315SOL     OW70003   2.927   2.185   8.134 -0.0011 -0.0905 -0.6465
19315SOL    HW170004   2.917   2.223   8.042 -1.9124 -1.3692 -0.9996
19315SOL    HW270005   2.865   2.231   8.197 -0.2715 -0.6774 -0.4768
19316SOL     OW70006   0.573   1.393   4.752 -0.3885 -0.7607 -0.2053
19316SOL    HW170007   0.596   1.480   4.797 -0.5338  0.9443 -3.2876
19316SOL    HW270008   0.481   1.366   4.778 -0.1243 -0.3193  1.2514
19317SOL     OW70009   2.096   2.521   9.190  0.3871  0.0329 -0.2308
19317SOL    HW170010   2.081   2.469   9.106 -0.4050 -0.4217  0.1923
19317SOL    HW270011   2.075   2.464   9.269  1.6430  0.2934  0.2958
19318SOL     OW70012   3.745   0.237   7.983  0.2551 -0.2079 -0.0830
19318SOL    HW170013   3.722   0.307   8.051 -2.2482 -0.0500 -1.0196
19318SOL    HW270014   3.693   0.154   8.003 -0.6095 -0.1161 -1.8497
19319SOL     OW70015   1.528   3.427   2.953  0.6578  0.0220  0.2243
19319SOL    HW170016   1.608   3.438   3.011  2.0420 -0.5817 -1.5386
19319SOL    HW270017   1.508   3.514   2.907  2.3903 -0.6913 -1.9563
19320SOL     OW70018   1.217   0.967   0.409  0.5903 -0.2162 -0.4057
19320SOL    HW170019   1.293   0.920   0.365  0.4628 -0.2080 -0.6362
19320SOL    HW270020   1.228   0.963   0.508  0.6535 -0.6047 -0.4299
19321SOL     OW70021   9.137   0.140   7.161  0.2367  0.7859  0.0088
19321SOL    HW170022   9.146   0.048   7.200  0.5584  1.3763  1.3335
19321SOL    HW270023   9.118   0.132   7.063  0.7213 -0.6872  0.0167
19322SOL     OW70024   9.277   6.496   0.075  0.8677 -0.3812  0.0852
19322SOL    HW170025   9.186   6.457   0.067  1.1583 -1.2572  0.9729
19322SOL    HW270026   9.295   6.556  -0.003 -0.1176 -0.9045 -0.5429
19323SOL     OW70027   2.229   3.539   9.513 -0.0543  0.0710 -0.4339
19323SOL    HW170028   2.246   3.630   9.474  0.8685 -0.1049 -0.4477
19323SOL    HW270029   2.163   3.491   9.455 -0.2744  0.5934 -0.6283
19324SOL     OW70030   5.705   9.363   6.726 -0.0520 -0.4752 -0.2494
19324SOL    HW170031   5.627   9.424   6.716 -0.2294 -0.5787  0.5267
19324SOL    HW270032   5.701   9.293   6.654 -0.6457 -0.4533 -0.2417
19325SOL     OW70033   4.073   1.977   3.475 -0.2918 -0.5403  0.2423
19325SOL    HW170034   4.011   2.029   3.533  1.3758  1.5373  0.2398
19325SOL    HW270035   4.159   1.960   3.525  0.3636 -0.5246 -0.8627
19326SOL     OW70036   3.595   2.730   4.947  0.4422 -0.0176 -0.0058
19326SOL    HW170037   3.578   2.662   5.019  0.8897  2.0612  2.1083
19326SOL    HW270038   3.621   2.817   4.989 -0.5996  1.6189 -2.6551
19327SOL     OW70039   1.016   2.471   7.066 -0.0455 -0.4469  0.7454
19327SOL    HW170040   0.932   2.516   7.034  0.3264  0.0217  0.4137
19327SOL    HW270041   1.005   2.441   7.160  0.0057  1.1285  1.2579
19328SOL     OW70042   4.471   1.066   4.312 -0.0491  0.1640 -0.1248
19328SOL    HW170043   4.403   0.993   4.303 -1.0547  1.1159 -0.3440
19328SOL    HW270044   4.552   1.031   4.359  0.4612 -1.7340 -2.2848
19329SOL     OW70045   0.860   7.172   0.899 -0.0546  0.1806  0.7148
19329SOL    HW170046   0.941   7.195   0.953  0.8294  0.7130 -0.8328
19329SOL    HW270047   0.874   7.084   0.854  0.2820  0.9660 -0.7483
19330SOL     OW70048   3.153   3.687   8.558  0.2109 -0.7058 -0.4650
19330SOL    HW170049   3.095   3.729   8.488  0.4915  2.0977  0.9190
19330SOL    HW270050   3.121   3.715   8.648  2.0860 -1.3506  0.4108
19331SOL     OW70051   3.201   2.454   7.204 -0.1877  0.3538 -0.1940
19331SOL    HW170052   3.137   2.399   7.150 -0.1969  1.9642 -1.8505
19331SOL    HW270053   3.293   2.445   7.167 -0.1089  1.0975 -0.1941
19332SOL     OW70054   4.286   1.672   4.650 -0.4463  0.3612  0.7301
19332SOL    HW170055   4.329   1.756   4.616  0.3398 -1.4811 -3.0903
19332SOL    HW270056   4.187   1.681   4.645 -0.3648  1.0324  0.2303
19333SOL     OW70057   7.748   2.254   3.539  0.4761  0.6012 -0.1961
19333SOL    HW170058   7.691   2.182   3.579 -1.4831  2.0346 -0.3376
19333SOL    HW270059   7.833   2.262   3.592  0.0202 -0.7394  0.7733
19334SOL     OW70060   7.547   9.059   8.901  0.1687 -0.3563 -0.0707
19334SOL    HW170061   7.584   9.126   8.966  0.6460 -0.3963 -0.2933
19334SOL    HW270062   7.604   9.058   8.819 -0.9412  0.3165 -0.8635
19335SOL     OW70063   7.796   6.409   2.732  0.2037 -0.5363  0.2135
19335SOL    HW170064   7.756   6.323   2.762  1.2367 -0.5264  1.6398
19335SOL    HW270065   7.895   6.408   2.746  0.6746 -0.3430 -2.7818
19336SOL     OW70066   4.314   7.603   4.178  0.4139 -0.6576 -0.2329
19336SOL    HW170067   4.334   7.512   4.142  0.6517 -1.2477  1.3821
19336SOL    HW270068   4.242   7.597   4.246  0.9817  0.2510  0.4526
19337SOL     OW70069   3.075   7.440   0.681 -0.7528 -0.3514  0.8612
19337SOL    HW170070   2.998   7.484   0.728 -0.4219 -0.7158  1.7497
19337SOL    HW270071   3.124   7.382   0.746 -0.2507 -0.7999  0.0732
19338SOL     OW70072   4.249   9.052   5.710  0.5660 -0.2596 -0.2556
19338SOL    HW170073   4.280   9.033   5.617  0.1582 -0.4771 -0.3446
19338SOL    HW270074   4.151   9.071   5.710  0.6920  0.4153  0.0305
19339SOL     OW70075   8.979   9.147   3.277 -0.1490  0.2956  0.2881
19339SOL    HW170076   8.890   9.118   3.241  0.2413 -1.0136  0.3483
19339SOL    HW270077   9.012   9.079   3.342  1.7182 -0.1367 -1.0613
19340SOL     OW70078   0.410   2.558   4.118  0.8048 -0.2327  0.2570
19340SOL    HW170079   0.358   2.566   4.203  1.8092  0.2902  0.8348
19340SOL    HW270080   0.352   2.586   4.041  0.4691  1.0834  0.9767
19341SOL     OW70081   0.167   6.158   1.360 -0.4622 -0.2171 -0.2375
19341SOL    HW170082   0.204   6.091   1.425 -0.8836 -0.4578 -0.2483
19341SOL    HW270083   0.076   6.187   1.390 -0.4988 -0.0426 -0.5190
19342SOL     OW70084   2.441   2.702   1.922  0.2980 -0.0747  0.6734
19342SOL    HW170085   2.376   2.698   1.998 -0.7266  0.4523 -0.1513
19342SOL    HW270086   2.390   2.700   1.836  1.5203 -2.8070 -0.0465
19343SOL     OW70087   9.007   5.697   9.954 -0.0292  0.1340  0.6778
19343SOL    HW170088   9.030   5.631  10.026 -0.0297 -0.5704  0.0414
19343SOL    HW270089   9.015   5.790   9.990 -0.5003 -0.2258  1.7274
19344SOL     OW70090   4.640   9.250   8.766  0.0236 -0.0304  0.5817
19344SOL    HW170091   4.735   9.242   8.736  0.4140  0.6605  1.5912
19344SOL    HW270092   4.617   9.174   8.827 -0.0231 -0.1149  0.4586
19345SOL     OW70093   2.186   6.845   0.541 -0.4118  0.2131  0.5215
19345SOL    HW170094   2.244   6.897   0.478 -0.0410  0.3559  0.9696
19345SOL    HW270095   2.198   6.748   0.524 -0.6769  0.2590  0.0560
19346SOL     OW70096   8.604   8.086   6.819  0.2462 -0.2007  0.3640
19346SOL    HW170097   8.691   8.040   6.799  0.5990  0.4481  0.4126
19346SOL    HW270098   8.622   8.176   6.857 -0.3749 -1.5520  4.1465
19347SOL     OW70099   0.404   1.101   8.550  0.3854 -0.1013  0.0439
19347SOL    HW170100   0.342   1.031   8.583  0.7170 -0.1578  0.5528
19347SOL    HW270101   0.369   1.192   8.575  0.5006 -0.1321  0.3139
19348SOL     OW70102   9.246   3.888   2.891 -0.3648 -0.4930  0.1737
19348SOL    HW170103   9.178   3.921   2.825  1.3025  0.4150 -1.1132
19348SOL    HW270104   9.199   3.857   2.974 -2.2865  0.9182 -0.3578
19349SOL     OW70105   0.449   5.331   2.991 -1.0120 -0.0662 -0.0573
19349SOL    HW170106   0.430   5.242   2.950 -1.3184  0.4093 -0.9588
19349SOL    HW270107   0.541   5.330   3.032 -0.3989 -0.3105 -1.4253
19350SOL     OW70108   0.044   1.019   8.645  0.1881  0.7408  0.1617
19350SOL    HW170109   0.069   1.070   8.728  0.0451 -0.0919  0.7284
19350SOL    HW270110   0.120   0.960   8.617 -0.6516 -0.8915  1.1930
19351SOL     OW70111   0.680   1.537   7.427 -0.2483  0.3780 -0.3533
19351SOL    HW170112   0.660   1.635   7.422 -0.6984  0.3043 -0.0553
19351SOL    HW270113   0.770   1.520   7.389  0.3934  1.0917  0.8200
19352SOL     OW70114   2.218   0.108   5.406  0.0653  0.1956  0.3164
19352SOL    HW170115   2.181   0.183   5.352  2.1054  0.8853 -0.1837
19352SOL    HW270116   2.260   0.144   5.490 -0.3374 -0.5404  0.8386
19353SOL     OW70117   0.606   7.280   4.851  0.0966  0.1875 -0.2601
19353SOL    HW170118   0.654   7.243   4.772  0.6273 -0.7633  0.5027
19353SOL    HW270119   0.534   7.215   4.880 -2.1492  1.8993 -1.8269
19354SOL     OW70120   8.657   7.022   3.563 -0.0804  0.3567  0.1679
19354SOL    HW170121   8.750   7.057   3.550 -0.0440  0.2079  0.0183
19354SOL    HW270122   8.649   6.981   3.653  0.1310 -0.0458  0.0039
19355SOL     OW70123   3.308   8.460   5.311  0.1605 -0.6972  0.9300
19355SOL    HW170124   3.309   8.368   5.273 -1.0732 -1.2129  2.1333
19355SOL    HW270125   3.248   8.518   5.256  1.5021 -0.3991 -0.2622
19356SOL     OW70126   4.354   0.282   4.734  0.4710  0.1349 -0.2463
19356SOL    HW170127   4.352   0.357   4.669  2.0186 -0.1097 -0.6126
19356SOL    HW270128   4.391   0.315   4.821 -0.4552  0.1815  0.1355
19357SOL     OW70129   3.575   8.919   9.853  0.8674 -0.0443  0.0691
19357SOL    HW170130   3.598   9.006   9.896 -0.6736  0.6922 -0.5703
19357SOL    HW270131   3.628   8.908   9.769  1.8251 -0.2099  0.6880
19358SOL     OW70132   1.745   7.772   9.728 -0.2005 -0.0282  0.1904
19358SOL    HW170133   1.782   7.845   9.671  0.1225  0.4679  1.0329
19358SOL    HW270134   1.762   7.792   9.824  0.7330 -1.6639  0.3911
19359SOL     OW70135   1.300   3.856   2.379  0.3579 -0.1292 -0.4857
19359SOL    HW170136   1.332   3.947   2.406  1.2428 -0.3526 -0.7513
19359SOL    HW270137   1.220   3.831   2.433 -0.4328  1.1796 -1.0515
19360SOL     OW70138   2.853   0.065   6.449  0.2642 -0.2492  0.0637
19360SOL    HW170139   2.947   0.050   6.477  0.5737 -0.2554 -0.9463
19360SOL    HW270140   2.804   0.114   6.521  1.2642  0.5223  0.2283
19361SOL     OW70141   9.339   6.568   0.900  0.2670  0.6441  0.2021
19361SOL    HW170142   9.367   6.472   0.889  2.4886  1.2129  0.5943
19361SOL    HW270143   9.254   6.572   0.952 -1.7228 -1.2653 -2.7850
19362SOL     OW70144   1.521   5.628   7.380 -0.6264  0.5592  0.2579
19362SOL    HW170145   1.454   5.620   7.454 -0.4573 -1.8531  0.1880
19362SOL    HW270146   1.474   5.642   7.293 -0.8839  2.1935  0.6605
19363SOL     OW70147   8.099   5.646   3.197 -0.1401  0.1156 -0.1994
19363SOL    HW170148   8.131   5.723   3.253 -0.4317  1.2692 -1.6078
19363SOL    HW270149   8.102   5.671   3.100 -1.5220 -1.1879 -0.5947
19364SOL     OW70150   9.183   5.373   2.087  0.1004  0.2007 -0.6861
19364SOL    HW170151   9.136   5.357   2.174 -1.1633  0.0992 -1.3619
19364SOL    HW270152   9.270   5.325   2.087 -0.5043 -0.9411  0.0146
19365SOL     OW70153   1.283   7.051   8.826  0.3615  0.5062 -0.0879
19365SOL    HW170154   1.301   7.122   8.758  0.2942 -0.4656 -1.1316
19365SOL    HW270155   1.333   6.968   8.802  0.4691  0.2079  1.1493
19366SOL     OW70156   3.325   2.922   4.197  0.0643  0.0235 -0.3946
19366SOL    HW170157   3.321   2.994   4.127  0.2317  0.1052 -0.3209
19366SOL    HW270158   3.235   2.913   4.240  0.1749  0.5331 -0.0607
19367SOL     OW70159   9.343   3.598   9.504 -0.6241  0.2824  0.0129
19367SOL    HW170160   9.315   3.502   9.495  0.2327  0.1462 -1.2875
19367SOL    HW270161   9.439   3.602   9.529 -0.9240  0.7956  1.1041
19368SOL     OW70162   1.622   8.009   3.786 -0.0986 -0.2308 -0.1747
19368SOL    HW170163   1.564   7.964   3.855  0.6777 -1.5236 -0.3364
19368SOL    HW270164   1.564   8.053   3.718 -0.8821  0.2340  0.7700
19369SOL     OW70165   0.192   3.469   2.353 -0.0433 -0.5292 -0.0934
19369SOL    HW170166   0.242   3.412   2.419  1.8280  0.2374 -0.8119
19369SOL    HW270167   0.220   3.444   2.260 -0.9354 -0.0246 -0.5001
19370SOL     OW70168   1.625   8.049   3.202 -0.3123  0.8903  0.8459
19370SOL    HW170169   1.673   8.050   3.290 -1.1204  0.6633  1.2953
19370SOL    HW270170   1.628   8.140   3.161  0.4162  0.9023  0.9162
19371SOL     OW70171   6.841   0.163   7.865  0.1579 -1.0264  0.4017
19371SOL    HW170172   6.773   0.169   7.938  1.4226  1.2556  1.4536
19371SOL    HW270173   6.933   0.159   7.906  0.8205 -0.9095 -1.0463
19372SOL     OW70174   2.657   9.303   0.036 -0.1083 -0.6814  0.6161
19372SOL    HW170175   2.643   9.213   0.075  2.1755 -0.7750  1.3447
19372SOL    HW270176   2.723   9.354   0.093  1.2035  0.1769 -1.6038
19373SOL     OW70177   5.605   5.124   2.271 -0.5423  0.0378 -0.3941
19373SOL    HW170178   5.653   5.210   2.291  1.0771 -1.0359  0.4357
19373SOL    HW270179   5.652   5.049   2.317 -1.6291 -1.3703 -1.5652
19374SOL     OW70180   8.400   7.449   6.414  0.6735 -0.5483  0.5617
19374SOL    HW170181   8.348   7.510   6.474  1.9009 -1.1928  2.3198
19374SOL    HW270182   8.384   7.354   6.443  1.6751 -0.8298  0.1953
19375SOL     OW70183   2.273   8.994   9.898  0.3612  0.2402  0.0749
19375SOL    HW170184   2.231   8.906   9.920 -2.3645  1.4514 -0.0898
19375SOL    HW270185   2.359   9.003   9.948 -0.6224 -1.3871  2.1609
19376SOL     OW70186   4.018   7.592   6.499 -0.0208  0.0337  0.2447
19376SOL    HW170187   4.014   7.659   6.425  1.9864  0.1894  0.2366
19376SOL    HW270188   3.971   7.629   6.579 -0.0516  0.9222 -0.1694
19377SOL     OW70189   3.210   4.862   2.505  0.4042 -0.0630  0.0688
19377SOL    HW170190   3.229   4.766   2.524  1.1550 -0.0004 -0.3328
19377SOL    HW270191   3.295   4.907   2.477 -0.1865  0.4351 -0.9226
19378SOL     OW70192   1.808   4.661   5.169  0.3966  0.0831 -0.1651
19378SOL    HW170193   1.894   4.617   5.194 -0.5475 -2.0148 -0.5024
19378SOL    HW270194   1.748   4.665   5.250  0.9575  1.9522  0.1833
19379SOL     OW70195   5.931   2.427   0.239  0.1578  0.2144  0.2413
19379SOL    HW170196   6.012   2.449   0.185 -0.3016 -0.4733 -0.7559
19379SOL    HW270197   5.897   2.337   0.212 -2.1060  1.3458 -0.7698
19380SOL     OW70198   3.364   4.381   1.859  0.2608 -0.1689 -0.2311
19380SOL    HW170199   3.460   4.393   1.882  0.7228 -2.3208 -0.8525
19380SOL    HW270200   3.334   4.456   1.799  0.4990  2.5004  2.8778
19381SOL     OW70201   0.134   2.057   1.563  0.1070 -0.1824  0.8453
19381SOL    HW170202   0.122   1.995   1.485 -3.0934 -1.1497  2.0496
19381SOL    HW270203   0.199   2.016   1.627 -0.8600 -1.6196  0.9320
19382SOL     OW70204   5.646   0.931   3.458  0.1821  0.2327  0.4614
19382SOL    HW170205   5.580   0.928   3.383  0.1144  0.9488  0.4828
19382SOL    HW270206   5.601   0.968   3.540  0.4602  0.1815  0.6384
19383SOL     OW70207   5.070   7.913   1.888 -0.2287 -0.0439 -0.0659
19383SOL    HW170208   4.996   7.976   1.913  0.8161  0.3308  2.2247
19383SOL    HW270209   5.148   7.928   1.949  0.4050 -2.9237 -0.1150
19384SOL     OW70210   4.509   3.012   2.676 -0.4445 -0.0797  0.0513
19384SOL    HW170211   4.450   3.019   2.757  1.1594  1.5493  1.1030
19384SOL    HW270212   4.526   3.104   2.640  1.0543 -0.5891 -0.5463
19385SOL     OW70213   3.221   8.166   2.599 -0.3138 -0.0220  0.0915
19385SOL    HW170214   3.152   8.095   2.597  0.7619 -1.0733 -1.3691
19385SOL    HW270215   3.271   8.163   2.685 -0.8440 -0.4774  0.3825
19386SOL     OW70216   0.635   0.173   6.460  0.2125  0.2646  0.2533
19386SOL    HW170217   0.687   0.152   6.377  0.8039 -0.8057  0.8897
19386SOL    HW270218   0.695   0.219   6.526 -0.0840  0.5219  0.3422
19387SOL     OW70219   4.800   0.079   4.220 -0.6915 -0.7207 -0.0704
19387SOL    HW170220   4.863   0.156   4.213  1.1176 -2.1686  0.0359
19387SOL    HW270221   4.742   0.075   4.138 -0.4502  0.4380 -0.2973
19388SOL     OW70222   2.219   9.020   5.945 -0.3623  0.2860  0.2665
19388SOL    HW170223   2.125   9.029   5.913  0.0930  0.4771 -1.0792
19388SOL    HW270224   2.273   8.972   5.876  0.5267  0.1799  1.0203
19389SOL     OW70225   1.699   0.238   1.649  0.4425  0.6877 -0.6385
19389SOL    HW170226   1.754   0.300   1.593  0.6161 -0.5105 -1.8206
19389SOL    HW270227   1.605   0.273   1.655  0.5952  1.1771 -1.1015
19390SOL     OW70228   2.362   2.369   7.256  0.2237  0.1905 -0.4634
19390SOL    HW170229   2.416   2.299   7.211  0.0815  0.6816 -1.4239
19390SOL    HW270230   2.291   2.326   7.312  0.3081 -0.4296 -0.8314
19391SOL     OW70231   8.037   7.685   9.100 -0.8464 -0.3129 -0.4120
19391SOL    HW170232   8.093   7.625   9.042  0.8498  0.4294  0.4086
19391SOL    HW270233   8.051   7.661   9.196 -0.3565  1.2088 -0.0880
19392SOL     OW70234   1.665   2.205   9.582  0.0235 -0.1564  0.4501
19392SOL    HW170235   1.593   2.262   9.623  1.0363  0.0529  1.9758
19392SOL    HW270236   1.706   2.147   9.652  0.8930 -0.7733 -0.5484
19393SOL     OW70237   2.913   9.339   7.179  0.1527 -0.2008 -0.1090
19393SOL    HW170238   2.819   9.372   7.187  0.2289  0.3477 -1.3377
19393SOL    HW270239   2.946   9.357   7.086  1.1019 -1.3575  0.0024
19394SOL     OW70240   8.429   9.602   7.752 -0.5633 -0.1053 -0.1202
19394SOL    HW170241   8.387   9.635   7.667 -1.1497  0.0233  0.2212
19394SOL    HW270242   8.502   9.537   7.730 -0.0677  0.6490 -0.7634
19395SOL     OW70243   0.710   7.261   4.003 -0.1585  0.0714 -0.8399
19395SOL    HW170244   0.657   7.189   4.047  0.3018  0.2629  0.0382
19395SOL    HW270245   0.659   7.347   4.009 -0.0190  0.1318 -0.5382
19396SOL     OW70246   1.179   9.683   5.083 -0.6814 -0.3120  0.6596
19396SOL    HW170247   1.131   9.770   5.080  1.2770  0.7446 -0.5033
19396SOL    HW270248   1.277   9.697   5.072 -0.4160 -2.7351 -0.5230
19397SOL     OW70249   0.433   5.159   6.473 -0.6892  0.3875 -0.6779
19397SOL    HW170250   0.471   5.083   6.421 -0.9550  0.6398 -1.2404
19397SOL    HW270251   0.504   5.229   6.486 -0.8776  0.7349 -1.4889
19398SOL     OW70252   2.107   0.321   1.451 -0.0627  0.5837  0.4379
19398SOL    HW170253   2.139   0.409   1.488  0.1877  0.5587  0.2830
19398SOL    HW270254   2.152   0.246   1.500 -0.8614  0.5253  1.1022
19399SOL     OW70255   5.903   5.055   1.753 -0.3384 -0.0090 -0.1866
19399SOL    HW170256   5.901   4.961   1.717  2.0632  0.4717 -1.7114
19399SOL    HW270257   5.916   5.119   1.677  0.0807  1.4034  1.0666
19400SOL     OW70258   9.444   5.748   4.573  0.5282 -0.3533 -0.2452
19400SOL    HW170259   9.422   5.748   4.670  1.1757 -0.8530 -0.0927
19400SOL    HW270260   9.373   5.699   4.522 -0.2238  0.6051 -0.1249
19401SOL     OW70261   9.142   9.865   7.238 -0.0255 -0.1388 -0.6643
19401SOL    HW170262   9.140   9.780   7.185 -1.3925 -1.3214  1.2292
19401SOL    HW270263   9.236   9.886   7.264 -0.0136 -3.0802  1.9588
19402SOL     OW70264   2.477   5.980   4.709 -0.6334  0.0674  0.2905
19402SOL    HW170265   2.495   6.048   4.780  0.5348 -1.2361  1.2865
19402SOL    HW270266   2.417   5.908   4.745 -0.3231 -0.4153 -0.1411
19403SOL     OW70267   2.492   8.641   3.582  0.3505  0.0074 -0.7105
19403SOL    HW170268   2.576   8.670   3.536  0.4058 -0.1668 -0.7201
19403SOL    HW270269   2.512   8.622   3.678  0.4603 -0.6621 -0.8604
19404SOL     OW70270   2.720   1.367   3.968 -0.4475 -0.8669 -0.1284
19404SOL    HW170271   2.812   1.369   3.928 -0.9860 -3.1284 -1.5835
19404SOL    HW270272   2.687   1.460   3.980  1.0608 -0.0649 -1.9279
19405SOL     OW70273   8.328   7.208   6.512 -0.2125 -0.4064 -0.2983
19405SOL    HW170274   8.250   7.188   6.572 -0.0159  0.0730  0.1202
19405SOL    HW270275   8.321   7.153   6.429  0.0335 -1.8209  0.5977
19406SOL     OW70276   8.165   7.826   2.769  0.7021  0.1892 -0.9161
19406SOL    HW170277   8.133   7.890   2.839  0.1204  1.7021 -2.5301
19406SOL    HW270278   8.244   7.775   2.804  1.5055  2.1642  0.2019
19407SOL     OW70279   0.600   3.920   0.012 -0.5130 -0.2553  0.0972
19407SOL    HW170280   0.577   3.863   0.091  0.4571 -1.0297 -0.1636
19407SOL    HW270281   0.518   3.935  -0.044 -0.7728 -1.4361  0.1422
19408SOL     OW70282   7.318   7.683   3.894  0.2713  0.0731  0.4690
19408SOL    HW170283   7.280   7.750   3.830  0.2506 -0.6415 -0.2763
19408SOL    HW270284   7.382   7.728   3.956  0.7176  0.6685 -0.4197
19409SOL     OW70285   4.381   9.923   3.731 -0.4497 -0.6032 -0.3980
19409SOL    HW170286   4.456   9.976   3.691 -1.1184  0.0261 -0.8267
19409SOL    HW270287   4.317   9.897   3.659 -1.2538 -0.1376  0.1475
19410SOL     OW70288   7.524   7.137   6.894  0.0714  0.2148  0.5609
19410SOL    HW170289   7.596   7.206   6.885 -2.4572  2.9632  0.5244
19410SOL    HW270290   7.480   7.146   6.984 -1.6010 -0.0245 -0.2133
19411SOL     OW70291   6.493   1.635   0.610 -0.3084 -0.4716  0.1257
19411SOL    HW170292   6.426   1.705   0.639  0.3298 -0.1362  0.8094
19411SOL    HW270293   6.468   1.547   0.651  0.3262 -0.0963  1.3562
19412SOL     OW70294   5.689   7.066   5.151  0.3062 -0.2442 -0.4022
19412SOL    HW170295   5.599   7.093   5.119 -0.0212  0.5304  1.1398
19412SOL    HW270296   5.723   6.991   5.095 -0.9087  0.0566 -1.5571
19413SOL     OW70297   2.993   9.885   3.565  0.2453 -0.5733 -0.0351
19413SOL    HW170298   3.013   9.873   3.662 -2.4513 -0.3630  0.5947
19413SOL    HW270299   2.918   9.824   3.538  1.3333 -1.0405 -2.1294
19414SOL     OW70300   4.252   8.919   1.660  0.0313 -0.5208 -0.0451
19414SOL    HW170301   4.179   8.958   1.604  0.8311 -0.8291 -1.3353
19414SOL    HW270302   4.327   8.985   1.668  0.8430 -1.2866 -1.1687
19415SOL     OW70303   7.694   2.752   1.225  0.2713  0.9982 -0.7553
19415SOL    HW170304   7.727   2.694   1.300  0.6466  1.6628 -0.4070
19415SOL    HW270305   7.680   2.695   1.144  0.5543  0.3988 -0.3911
19416SOL     OW70306   3.102   6.549   4.013 -0.2589 -0.1817  0.9511
19416SOL    HW170307   3.182   6.503   3.975 -1.0801 -3.1959  2.6848
19416SOL    HW270308   3.121   6.576   4.108 -1.7338 -2.1858  1.8397
19417SOL     OW70309   0.687   0.446   1.842  0.3828  0.2630  0.3907
19417SOL    HW170310   0.662   0.425   1.937  0.1703  0.3927  0.3641
19417SOL    HW270311   0.785   0.464   1.837  0.3347  0.6062  0.6492
19418SOL     OW70312   7.770   4.761   2.707  0.4215 -0.5139  0.7156
19418SOL    HW170313   7.860   4.784   2.670 -0.0879 -0.5742 -0.5963
19418SOL    HW270314   7.780   4.700   2.785  1.5073 -0.6763  0.4506
19419SOL     OW70315   3.073   2.766   0.178 -0.6433 -0.2010 -0.0485
19419SOL    HW170316   3.163   2.727   0.195 -1.0066 -0.3104  1.7568
19419SOL    HW270317   3.082   2.858   0.141  0.2108 -0.2559  0.0269
19420SOL     OW70318   1.730   8.893   3.581 -0.4652  0.2615 -0.8511
19420SOL    HW170319   1.654   8.952   3.608 -0.1832 -0.2081  1.0706
19420SOL    HW270320   1.804   8.949   3.544 -1.0124  0.9083 -0.9866
19421SOL     OW70321   9.831   1.820   6.740 -0.1742 -0.3578  0.0175
19421SOL    HW170322   9.778   1.821   6.825 -0.9027  0.4684 -0.4410
19421SOL    HW270323   9.832   1.727   6.703  1.0623 -0.9458  1.4909
19422SOL     OW70324   2.841   3.524   9.421 -0.9811 -0.4285  0.0698
19422SOL    HW170325   2.849   3.596   9.489 -1.6328 -0.4807  0.2045
19422SOL    HW270326   2.747   3.492   9.416 -1.1703  0.2946 -1.5864
19423SOL     OW70327   8.819   8.437   1.500  0.0791 -0.5077  0.1951
19423SOL    HW170328   8.902   8.397   1.461  0.2524  0.0896 -0.0435
19423SOL    HW270329   8.764   8.478   1.428  1.3266  2.3205  0.7675
19424SOL     OW70330   1.837   0.415   1.448 -0.0991  0.5267 -0.0207
19424SOL    HW170331   1.804   0.394   1.355  0.6309  0.5192 -0.2781
19424SOL    HW270332   1.929   0.380   1.459 -0.0369  0.8813  0.5816
19425SOL     OW70333   2.606   1.173   7.225  0.6942 -0.4138  0.3363
19425SOL    HW170334   2.541   1.115   7.176 -0.4013  1.0215  0.0568
19425SOL    HW270335   2.611   1.145   7.320  1.0744 -1.7322 -0.0663
19426SOL     OW70336   2.862   1.285   3.577 -0.3626 -0.6007  0.1636
19426SOL    HW170337   2.939   1.348   3.567 -1.0899  0.6196  2.0811
19426SOL    HW270338   2.777   1.336   3.581 -1.1324 -1.8336 -0.0575
19427SOL     OW70339   5.411   5.202   1.509  0.3286 -0.3782  0.6766
19427SOL    HW170340   5.414   5.143   1.428 -0.0214 -0.8251  0.9875
19427SOL    HW270341   5.345   5.275   1.495  0.6834 -0.1194  0.3336
19428SOL     OW70342   9.274   7.392   0.275 -0.8783 -0.1928  0.2604
19428SOL    HW170343   9.251   7.299   0.247  0.0991 -0.3123 -0.1796
19428SOL    HW270344   9.253   7.404   0.372  1.1688 -1.6243  0.9074
19429SOL     OW70345   8.052   7.517   4.925  0.9226  0.3190 -0.1374
19429SOL    HW170346   7.999   7.493   4.845  0.1036  1.8033 -0.0580
19429SOL    HW270347   8.139   7.558   4.897 -0.0738  2.3890 -0.3074
19430SOL     OW70348   4.722   2.111   8.462  0.5107  0.0487 -0.4433
19430SOL    HW170349   4.632   2.146   8.487  0.1850 -1.1496  0.1181
19430SOL    HW270350   4.711   2.038   8.394  1.2228  1.5480 -2.1879
19431SOL     OW70351   3.243   1.229   7.901  0.0517 -0.4740 -0.1885
19431SOL    HW170352   3.210   1.166   7.971  0.3434 -2.7002 -1.9987
19431SOL    HW270353   3.343   1.228   7.899  0.1300  1.5987  1.1217
19432SOL     OW70354   9.756   8.706   0.213 -0.1952 -0.0270 -0.1196
19432SOL    HW170355   9.665   8.664   0.210  0.1488 -0.8862  1.0536
19432SOL    HW270356   9.747   8.806   0.209 -1.0558 -0.1490 -2.3079
19433SOL     OW70357   4.624   0.823   6.164 -0.4776 -0.0819  0.1610
19433SOL    HW170358   4.586   0.822   6.071 -1.3071  0.0841  0.4958
19433SOL    HW270359   4.619   0.731   6.203 -0.0641 -0.1668  0.0204
19434SOL     OW70360   8.199   3.179   0.504 -0.3579 -0.0670  0.3196
19434SOL    HW170361   8.149   3.165   0.589 -1.0116 -0.3999 -0.1108
19434SOL    HW270362   8.151   3.132   0.429  0.9485 -0.9036  0.0017
19435SOL     OW70363   1.231   0.515   4.377 -0.1943  1.0356 -0.2634
19435SOL    HW170364   1.190   0.486   4.290 -0.8938  0.2654  0.3174
19435SOL    HW270365   1.161   0.517   4.448  1.1675 -2.6403  1.3236
19436SOL     OW70366   1.521   0.607   0.324  0.4666  0.4216  0.3483
19436SOL    HW170367   1.504   0.572   0.232 -0.8761  2.2975 -0.1438
19436SOL    HW270368   1.613   0.581   0.353  0.1857 -1.8726 -0.7217
19437SOL     OW70369   8.922   7.348   8.728  0.0555  0.4361 -0.5644
19437SOL    HW170370   8.891   7.403   8.806  1.1543 -0.4117  0.4810
19437SOL    HW270371   8.991   7.399   8.677  3.1029 -0.9721  1.9814
19438SOL     OW70372   9.728   9.635   6.680 -0.0702 -0.3266  0.0814
19438SOL    HW170373   9.650   9.574   6.669  0.0373 -0.7307  1.4955
19438SOL    HW270374   9.812   9.580   6.684  0.4635  0.1867 -2.9534
19439SOL     OW70375   9.044   4.496   8.265  0.0056 -0.2465 -0.0858
19439SOL    HW170376   9.004   4.444   8.190 -0.6222  1.0572 -0.6817
19439SOL    HW270377   8.995   4.476   8.350  0.4051 -1.3562 -0.1212
19440SOL     OW70378   2.129   1.313   3.816  0.5617 -0.4027 -0.4678
19440SOL    HW170379   2.195   1.245   3.784  0.7302  0.9714 -3.2009
19440SOL    HW270380   2.178   1.388   3.861  0.6566 -0.4838 -0.4363
19441SOL     OW70381   1.809   4.943   5.506 -0.0178 -0.3047 -0.1530
19441SOL    HW170382   1.883   4.941   5.574  1.1951 -0.4544 -1.4571
19441SOL    HW270383   1.775   4.850   5.491 -2.5328  0.0921  2.6190
19442SOL     OW70384   4.911   1.762   0.857 -0.0762  0.2180  0.0363
19442SOL    HW170385   4.921   1.842   0.798 -0.0961 -1.8597 -2.8935
19442SOL    HW270386   5.002   1.729   0.883  0.0758 -1.1030 -2.0445
19443SOL     OW70387   6.030   6.585   2.229 -0.3634 -0.0424 -0.2498
19443SOL    HW170388   5.969   6.550   2.300 -0.7777  1.6392  0.2389
19443SOL    HW270389   6.125   6.572   2.258 -0.5014 -1.0770 -0.2377
19444SOL     OW70390   7.206   7.605   4.622  0.0132 -0.2538 -0.2238
19444SOL    HW170391   7.295   7.618   4.666 -1.4522  1.5588  2.3163
19444SOL    HW270392   7.207   7.652   4.533  0.7891  2.0293  0.9342
19445SOL     OW70393   3.249   7.476   5.171  0.0352  0.2105  0.0256
19445SOL    HW170394   3.206   7.549   5.224 -1.3573 -0.7008  0.1923
19445SOL    HW270395   3.225   7.486   5.075 -0.4655 -0.2150  0.0986
19446SOL     OW70396   3.515   3.356   5.825 -0.2015 -0.2215  0.3079
19446SOL    HW170397   3.416   3.350   5.809 -0.0477 -0.5763 -0.5220
19446SOL    HW270398   3.556   3.266   5.812  0.0323 -0.3676  2.0244
19447SOL     OW70399   6.413   4.728   8.649  0.0895 -0.1816  0.3183
19447SOL    HW170400   6.459   4.778   8.722  1.2241  0.2829 -0.7109
19447SOL    HW270401   6.352   4.659   8.689  1.1100 -0.2942  1.6909
19448SOL     OW70402   8.888   8.096   7.197  0.3145  0.6024 -0.4188
19448SOL    HW170403   8.962   8.054   7.144  1.4234 -0.5085  1.9235
19448SOL    HW270404   8.808   8.037   7.196  0.6327  0.1626 -0.1594
19449SOL     OW70405   4.262   4.528   5.982  0.4347  0.1414  0.3006
19449SOL    HW170406   4.305   4.482   6.060  1.3554  0.2821 -0.1122
19449SOL    HW270407   4.238   4.622   6.007 -0.4237 -0.2055  0.7989
19450SOL     OW70408   8.039   1.748   5.079  0.4602 -0.5295 -0.4348
19450SOL    HW170409   8.028   1.799   4.994 -0.6447 -0.7771 -0.4502
19450SOL    HW270410   8.102   1.797   5.140 -0.2360  0.6200 -0.6365
19451SOL     OW70411   4.877   0.009   0.980  0.0654  0.1262 -0.0588
19451SOL    HW170412   4.895   0.057   0.894  1.5646  0.7420  0.5779
19451SOL    HW270413   4.910   0.064   1.056  2.2076 -2.0780  0.6734
19452SOL     OW70414   0.363   1.905   7.860  0.4394  0.1785 -0.0330
19452SOL    HW170415   0.456   1.908   7.822 -0.2233  1.5733 -1.6046
19452SOL    HW270416   0.364   1.947   7.951  0.8845  2.5799 -1.1088
19453SOL     OW70417   2.587   9.329   3.029 -0.7301  0.7362 -0.0868
19453SOL    HW170418   2.625   9.241   3.001 -1.3529  0.7825 -1.1065
19453SOL    HW270419   2.567   9.327   3.127 -1.1987 -0.4250 -0.2013
19454SOL     OW70420   9.128   0.992   1.951  0.2506 -0.1765 -0.1058
19454SOL    HW170421   9.183   0.920   1.908  0.7279 -0.7556  1.4067
19454SOL    HW270422   9.031   0.973   1.936  0.4182  0.3997 -2.0869
19455SOL     OW70423   8.990   6.025   3.316 -0.5148 -0.3919 -0.2266
19455SOL    HW170424   8.966   6.121   3.312 -0.0328 -0.1873  1.3309
19455SOL    HW270425   9.082   6.012   3.280 -1.0430 -0.4628 -1.5833
19456SOL     OW70426   3.189   1.809   5.994  0.4688  0.0657  0.1046
19456SOL    HW170427   3.213   1.748   5.918  0.4337 -0.0494  0.1858
19456SOL    HW270428   3.093   1.836   5.985  0.8263  1.1199 -0.6346
19457SOL     OW70429   0.789   8.462   6.494 -0.3252 -0.3189  0.0102
19457SOL    HW170430   0.698   8.427   6.469  0.5980 -2.4645 -0.5191
19457SOL    HW270431   0.802   8.451   6.592  0.6239 -3.2491 -0.3865
19458SOL     OW70432   1.099   3.201   3.130  0.0927 -0.5518  0.5125
19458SOL    HW170433   1.153   3.285   3.121  0.0309 -0.7368 -1.7531
19458SOL    HW270434   1.034   3.213   3.205 -0.3976  1.7181 -0.2085
19459SOL     OW70435   2.677   9.482   7.227  0.2590 -0.3324  0.0148
19459SOL    HW170436   2.606   9.476   7.156  0.2767  1.6121 -0.1922
19459SOL    HW270437   2.660   9.562   7.284  3.3045  1.1887 -1.1483
19460SOL     OW70438   9.329   8.387   4.452  0.3102 -0.3378  0.2288
19460SOL    HW170439   9.320   8.412   4.356  0.3940  0.4492  0.4238
19460SOL    HW270440   9.359   8.466   4.505 -0.6582 -0.5114  1.0585
19461SOL     OW70441   0.560   0.928   4.103  0.3720 -0.4088 -0.3925
19461SOL    HW170442   0.624   0.970   4.038  0.1689 -1.4393 -1.2645
19461SOL    HW270443   0.541   0.834   4.075 -1.5002 -0.1296 -0.1350
19462SOL     OW70444   1.376   2.366   5.614  0.5878 -0.0138  0.2956
19462SOL    HW170445   1.385   2.349   5.712  0.4121 -0.1719  0.2843
19462SOL    HW270446   1.281   2.390   5.593  0.8133  0.9133  0.3023
19463SOL     OW70447   5.616   9.386   5.072  0.8372 -0.1664  0.2476
19463SOL    HW170448   5.589   9.362   5.165  0.0159  0.6963  0.2370
19463SOL    HW270449   5.535   9.410   5.019  1.5299  1.5443 -0.0583
19464SOL     OW70450   8.346   6.904   4.621 -0.1972  0.0373 -0.2588
19464SOL    HW170451   8.386   6.819   4.654  1.8758  1.3121  0.5967
19464SOL    HW270452   8.367   6.978   4.684  1.0387  1.8765 -2.7193
19465SOL     OW70453   0.605   9.210   4.620  0.3003  0.3596 -0.1392
19465SOL    HW170454   0.688   9.221   4.565 -0.0967  0.6844 -0.6809
19465SOL    HW270455   0.547   9.141   4.578  0.3842 -0.0080  0.3501
19466SOL     OW70456   4.325   7.672   7.109 -0.1309  0.0097  0.1998
19466SOL    HW170457   4.288   7.600   7.168 -0.4135  0.5119  0.6418
19466SOL    HW270458   4.272   7.756   7.121 -0.2043  0.1138 -0.7889
19467SOL     OW70459   8.242   4.757   1.137 -0.2307  0.7386 -0.2884
19467SOL    HW170460   8.253   4.685   1.069  0.2434  1.7338 -1.2910
19467SOL    HW270461   8.277   4.844   1.100  0.5980  1.1801  1.4427
19468SOL     OW70462   2.640   7.526   7.379  0.1733 -0.3503  0.0776
19468SOL    HW170463   2.728   7.479   7.378  0.4892  0.2109  0.5748
19468SOL    HW270464   2.587   7.495   7.458 -0.2349 -0.9626 -0.4298
19469SOL     OW70465   7.974   8.808   1.133  0.0225  0.4476 -0.0279
19469SOL    HW170466   8.066   8.815   1.171 -0.6336  0.9928  1.4693
19469SOL    HW270467   7.972   8.853   1.043  1.1074  0.8116  0.1183
19470SOL     OW70468   4.217   4.414   5.173 -0.3304 -0.3583 -0.3293
19470SOL    HW170469   4.164   4.417   5.089 -0.5192  0.5088 -0.1836
19470SOL    HW270470   4.179   4.345   5.235 -2.0519  1.0918  0.2714
19471SOL     OW70471   1.587   9.892   1.271  0.0357  0.3194  0.8889
19471SOL    HW170472   1.526   9.971   1.269  0.4853  0.6579  0.5312
19471SOL    HW270473   1.639   9.891   1.356 -1.5505 -0.7909  1.8620
19472SOL     OW70474   5.337   6.035   2.098 -0.4129 -0.0584 -0.2794
19472SOL    HW170475   5.279   6.089   2.160  1.0351  0.5840  0.5398
19472SOL    HW270476   5.305   6.048   2.004 -0.2447  2.0753 -0.0750
19473SOL     OW70477   3.610   4.113   8.140  0.2734 -0.1209 -0.4156
19473SOL    HW170478   3.681   4.049   8.111  0.0228 -0.8421  0.5405
19473SOL    HW270479   3.526   4.063   8.163 -1.5863  0.9677 -4.4719
19474SOL     OW70480   5.139   0.851   3.888  0.1644  0.3047 -0.0550
19474SOL    HW170481   5.052   0.892   3.860 -0.3267 -1.9162 -1.9543
19474SOL    HW270482   5.136   0.831   3.986 -1.5671  0.0575 -0.1325
19475SOL     OW70483   7.089   1.150   5.593  0.6344 -0.0420 -0.2234
19475SOL    HW170484   7.128   1.060   5.610 -0.3939 -0.4173  0.2432
19475SOL    HW270485   7.079   1.199   5.680 -0.8092 -0.3401 -0.2051
19476SOL     OW70486   6.991   3.135   2.943 -1.0718  0.0704  0.1397
19476SOL    HW170487   7.035   3.050   2.972  0.7494  0.7976 -0.3793
19476SOL    HW270488   7.020   3.209   3.004 -1.1964  0.6663 -0.5218
19477SOL     OW70489   8.186   9.997   0.285  0.4350 -0.3774 -0.5778
19477SOL    HW170490   8.165   9.993   0.188  4.5523 -2.2040 -1.4875
19477SOL    HW270491   8.263  10.059   0.301 -0.3007  0.0472  1.5509
19478SOL     OW70492   3.724   3.980   8.639 -0.4302 -0.1584 -0.4912
19478SOL    HW170493   3.677   3.924   8.571  1.3519 -0.2135 -1.6764
19478SOL    HW270494   3.696   3.950   8.731  0.5602 -3.0506 -1.0878
19479SOL     OW70495   5.732   0.812   5.078 -0.6299 -0.3524 -0.0677
19479SOL    HW170496   5.776   0.722   5.085 -2.8794 -1.4083  1.2046
19479SOL    HW270497   5.695   0.837   5.168 -0.1000  1.8363 -0.4331
19480SOL     OW70498   9.782   5.239   3.411  0.4207  0.2136 -0.4522
19480SOL    HW170499   9.810   5.322   3.460  0.2906  1.1006 -1.8588
19480SOL    HW270500   9.808   5.247   3.315 -2.6683  0.0844 -1.3264
19481SOL     OW70501   4.621   6.083   1.062 -0.2662  0.4004  0.5822
19481SOL    HW170502   4.702   6.034   1.031 -0.5876  0.0010  0.3640
19481SOL    HW270503   4.648   6.156   1.125  0.2811  0.4427  0.2985
19482SOL     OW70504   7.470   3.383   5.652 -0.2254 -0.2733  0.1025
19482SOL    HW170505   7.550   3.397   5.711 -0.8216 -2.5258  1.4855
19482SOL    HW270506   7.478   3.441   5.571  1.4031  1.6499  1.6098
19483SOL     OW70507   0.816   8.998   7.224  1.2388 -0.0957 -0.2161
19483SOL    HW170508   0.821   8.902   7.251  1.7639  0.1710  0.6311
19483SOL    HW270509   0.901   9.045   7.250  1.3158  0.4107 -1.3530
19484SOL     OW70510   6.733   7.715   7.751  0.1023 -0.2031 -0.1029
19484SOL    HW170511   6.776   7.632   7.718  0.7574  0.5696 -1.2291
19484SOL    HW270512   6.692   7.698   7.841  2.1027 -1.1628  0.6612
19485SOL     OW70513   1.219   9.909   3.683  0.5492  0.5785  0.1193
19485SOL    HW170514   1.142   9.957   3.724  0.2965  0.9419 -0.7561
19485SOL    HW270515   1.199   9.811   3.677 -0.1174  0.7579 -0.6923
19486SOL     OW70516   8.786   7.498   6.097  0.0906  0.0216 -0.0299
19486SOL    HW170517   8.734   7.515   6.181 -0.1606 -0.4915 -0.0831
19486SOL    HW270518   8.884   7.503   6.116  0.0951 -2.7033  0.8538
19487SOL     OW70519   0.701   0.955   6.209 -0.0294  0.0924 -0.2631
19487SOL    HW170520   0.683   0.905   6.293  0.4145 -0.1498 -0.3073
19487SOL    HW270521   0.736   0.892   6.139  0.4367  0.4426 -0.3527
19488SOL     OW70522   3.976   3.232   9.632  0.2581  0.2117  0.4474
19488SOL    HW170523   3.907   3.231   9.560  0.2225 -0.9214  0.4928
19488SOL    HW270524   3.971   3.319   9.682 -0.8788  0.2819  0.2203
19489SOL     OW70525   2.275   7.062   1.843  0.2969 -0.6365  0.2058
19489SOL    HW170526   2.207   7.025   1.780 -0.2273 -1.1664  1.0894
19489SOL    HW270527   2.263   7.022   1.933 -0.0745  1.4177  1.1026
19490SOL     OW70528   0.488   1.516   8.371  0.6591  0.5121  0.1229
19490SOL    HW170529   0.506   1.605   8.413 -1.4470  0.5560  1.0279
19490SOL    HW270530   0.442   1.529   8.283  2.4620  0.3513 -0.8632
19491SOL     OW70531   3.839   5.452   4.012 -0.2226  0.2196  0.3339
19491SOL    HW170532   3.789   5.452   3.926 -0.6362  0.5329  0.5745
19491SOL    HW270533   3.775   5.464   4.088  0.2363  0.7811  0.6323
19492SOL     OW70534   1.254   7.145   4.769 -0.8304 -0.1283 -0.0681
19492SOL    HW170535   1.328   7.208   4.792  0.0592 -0.6820 -1.3263
19492SOL    HW270536   1.236   7.086   4.847 -0.5908  0.6323  0.5777
19493SOL     OW70537   8.498   9.403   5.189 -0.0977  0.2756  0.2335
19493SOL    HW170538   8.432   9.344   5.236 -0.6851  0.6964 -0.0542
19493SOL    HW270539   8.540   9.352   5.114  0.0167 -0.0434  0.5130
19494SOL     OW70540   8.106   8.391   0.707  0.0283 -0.0311  0.3660
19494SOL    HW170541   8.177   8.393   0.778 -0.5008  0.8128  0.8836
19494SOL    HW270542   8.026   8.342   0.741  0.4247 -1.1469 -0.2871
19495SOL     OW70543   6.614   8.797   6.236 -0.0559 -0.0255 -0.0753
19495SOL    HW170544   6.646   8.738   6.162  0.8354 -1.2213  1.2453
19495SOL    HW270545   6.517   8.778   6.255  0.3547 -1.4359  0.6795
19496SOL     OW70546   4.268   3.919   6.681 -0.1810  0.0259 -0.2383
19496SOL    HW170547   4.299   3.856   6.752 -0.8530 -1.3414 -1.1417
19496SOL    HW270548   4.207   3.987   6.721 -0.8390 -0.9530  0.4209
19497SOL     OW70549   2.082   8.828   6.125 -0.8624 -0.2992  0.0148
19497SOL    HW170550   2.071   8.883   6.042 -0.9180  2.4217  1.7740
19497SOL    HW270551   2.172   8.845   6.165 -1.5976 -0.0130  1.6101
19498SOL     OW70552   8.224   4.105   7.991 -0.0671 -0.4010 -0.1065
19498SOL    HW170553   8.165   4.039   8.037  0.5015 -0.3967  0.6345
19498SOL    HW270554   8.235   4.186   8.048  0.0887 -0.1069 -0.5484
19499SOL     OW70555   4.284   6.890   1.675 -0.2881 -0.1001  0.1604
19499SOL    HW170556   4.376   6.921   1.651 -0.0217 -0.3666  0.8289
19499SOL    HW270557   4.217   6.940   1.620  0.2719 -0.1619 -0.5890
19500SOL     OW70558   9.657   5.792   5.225  0.4843 -0.4935  0.5873
19500SOL    HW170559   9.653   5.770   5.127 -1.5364 -1.7684  0.9289
19500SOL    HW270560   9.633   5.888   5.238 -3.2208 -1.2659  0.1012
19501SOL     OW70561   2.608   6.275   2.610 -0.1481 -0.0796  0.0927
19501SOL    HW170562   2.650   6.277   2.700 -1.8060 -1.3990  0.9213
19501SOL    HW270563   2.508   6.282   2.619 -0.1595  4.1303 -1.8628
19502SOL     OW70564   2.877   1.451  10.056  0.6420  0.5544  0.0256
19502SOL    HW170565   2.810   1.379  10.074  1.6628 -0.5105 -0.3706
19502SOL    HW270566   2.868   1.482   9.962 -0.0708  1.2440  0.3161
19503SOL     OW70567   7.986   0.593   8.912 -0.2748 -0.4928 -0.7574
19503SOL    HW170568   7.905   0.645   8.888 -0.2633 -0.1087  0.0135
19503SOL    HW270569   8.049   0.591   8.834  0.0978  1.3709 -0.5312
19504SOL     OW70570   6.992   6.302   1.405  0.0762  0.3805 -0.0653
19504SOL    HW170571   6.940   6.230   1.359 -1.3754  1.4397 -0.1047
19504SOL    HW270572   7.066   6.333   1.345 -0.1019 -0.1579 -0.5722
19505SOL     OW70573   2.996   5.545   2.675  0.0557  0.2231 -0.4759
19505SOL    HW170574   3.042   5.533   2.763  0.0593 -1.2031 -0.6670
19505SOL    HW270575   3.037   5.622   2.626  0.0743  1.0079  0.7515
19506SOL     OW70576   3.270   4.302   4.658  0.2822 -0.3218 -0.2876
19506SOL    HW170577   3.285   4.261   4.748 -0.7819  0.0010  0.0342
19506SOL    HW270578   3.322   4.250   4.590  0.4318 -1.0740  0.3847
19507SOL     OW70579   3.417   3.165   0.128 -0.2027 -0.3279 -0.3157
19507SOL    HW170580   3.406   3.264   0.135 -0.4593 -0.3959  0.2191
19507SOL    HW270581   3.352   3.120   0.189  1.8007 -0.7585  1.5647
19508SOL     OW70582   8.314   9.301   0.147 -0.0080  0.5835  0.4172
19508SOL    HW170583   8.400   9.327   0.102  0.2845 -1.2622 -0.1116
19508SOL    HW270584   8.325   9.310   0.246  1.0082 -0.2512  0.3906
19509SOL     OW70585   3.115   5.229   8.513  0.1149 -0.1486 -0.2851
19509SOL    HW170586   3.124   5.314   8.462  1.3915 -0.3666 -0.4336
19509SOL    HW270587   3.156   5.154   8.461  1.6632 -0.3337  1.1538
19510SOL     OW70588   2.783   8.138   2.508  0.0672 -0.0041  0.4820
19510SOL    HW170589   2.719   8.204   2.548  0.2822 -0.0418  0.8942
19510SOL    HW270590   2.768   8.049   2.550  0.5722  0.0480  0.7770
19511SOL     OW70591   5.970   8.153   3.692 -0.2731 -0.4696 -0.0304
19511SOL    HW170592   5.975   8.088   3.616  1.2377  0.6326 -0.8932
19511SOL    HW270593   6.038   8.129   3.761  1.9111  1.5199 -1.4338
19512SOL     OW70594   3.035   5.478   9.766 -0.0553  0.0487 -0.2519
19512SOL    HW170595   3.106   5.458   9.698 -0.1443 -1.2356  0.0157
19512SOL    HW270596   2.950   5.500   9.719  0.2386  0.5565 -0.5617
19513SOL     OW70597   8.660   7.481   6.359 -0.3945  0.3890 -0.3486
19513SOL    HW170598   8.697   7.399   6.403  0.8841  0.9461 -0.3747
19513SOL    HW270599   8.562   7.487   6.379 -0.2903 -0.5676  0.5446
19514SOL     OW70600   4.299   7.597   5.592 -0.6167 -0.1564  0.2110
19514SOL    HW170601   4.290   7.654   5.674  1.8648 -1.1976  1.2677
19514SOL    HW270602   4.215   7.544   5.579 -1.6337  1.1817  1.1754
19515SOL     OW70603   4.822   9.273   9.774 -0.1397  0.0751  0.5352
19515SOL    HW170604   4.726   9.294   9.756  0.1984 -0.3565 -1.9024
19515SOL    HW270605   4.828   9.202   9.844 -1.6435 -0.6947 -0.1000
19516SOL     OW70606   5.389   6.742   2.076 -0.1620  0.4321 -0.3123
19516SOL    HW170607   5.324   6.701   2.013 -0.5623  1.6028 -0.6753
19516SOL    HW270608   5.352   6.828   2.111  0.3334  0.1197  1.0276
19517SOL     OW70609   6.441   4.763   0.634 -0.1042 -0.2632 -0.4709
19517SOL    HW170610   6.500   4.842   0.620 -1.1840  0.4157 -1.3025
19517SOL    HW270611   6.460   4.722   0.723  1.2489  0.2560 -0.5143
19518SOL     OW70612   4.396   1.385   2.565 -0.4996  0.3017 -0.3306
19518SOL    HW170613   4.354   1.441   2.637 -1.1068 -3.0820  2.0676
19518SOL    HW270614   4.484   1.426   2.539 -0.2147  1.5813  2.4156
19519SOL     OW70615   9.143   7.453   4.741 -0.0503  0.1019  0.1706
19519SOL    HW170616   9.209   7.516   4.701 -0.3078  0.0664 -0.3216
19519SOL    HW270617   9.149   7.365   4.695 -0.5336  0.1418  0.0208
19520SOL     OW70618   7.813   9.380   5.479 -0.5686 -0.0307 -0.1503
19520SOL    HW170619   7.811   9.312   5.552  1.9684 -0.3374 -0.3058
19520SOL    HW270620   7.791   9.470   5.516 -1.1213 -0.4774  0.6159
19521SOL     OW70621   7.090   1.405   8.837 -0.0309  0.5828  0.0209
19521SOL    HW170622   7.084   1.332   8.904 -0.4536  0.3268 -0.2898
19521SOL    HW270623   7.012   1.466   8.846  0.4615  1.1547  0.4575
19522SOL     OW70624   5.131   7.352   4.634  0.2566 -0.0711  0.6670
19522SOL    HW170625   5.189   7.426   4.601  2.1616 -2.5003 -1.6739
19522SOL    HW270626   5.052   7.341   4.573  1.8501 -2.1960 -1.0935
19523SOL     OW70627   7.429   8.586   7.171 -0.1085 -0.4465  0.0886
19523SOL    HW170628   7.339   8.614   7.205 -0.9081 -2.5157 -0.2585
19523SOL    HW270629   7.430   8.587   7.071  0.7217  0.9778  0.1020
19524SOL     OW70630   8.944   2.874   7.512 -1.2124 -0.3358 -0.0645
19524SOL    HW170631   9.006   2.950   7.492 -0.6678 -0.1607  2.1829
19524SOL    HW270632   8.855   2.890   7.469 -0.4050  0.4822 -1.4531
19525SOL     OW70633   5.132   1.582   0.660  0.2160  0.0223 -0.9307
19525SOL    HW170634   5.150   1.595   0.757  0.8848 -2.1556 -0.7229
19525SOL    HW270635   5.084   1.495   0.646  1.6626 -0.5390 -2.6733
19526SOL     OW70636   2.661   5.200   3.117  0.5183 -0.0385 -0.3910
19526SOL    HW170637   2.627   5.282   3.071  1.9506 -0.0712 -1.5434
19526SOL    HW270638   2.599   5.176   3.192 -0.6717  1.2751 -0.9230
19527SOL     OW70639   8.264   3.170   3.304  0.0316 -0.4466 -0.3246
19527SOL    HW170640   8.244   3.183   3.207 -0.4515  0.1573 -0.1476
19527SOL    HW270641   8.218   3.241   3.357  0.0720 -0.9415  0.3730
19528SOL     OW70642   7.219   2.517   1.706  0.4942 -0.0081 -0.2570
19528SOL    HW170643   7.225   2.589   1.775 -0.0478 -0.1681 -0.0408
19528SOL    HW270644   7.237   2.428   1.748  0.1200 -0.1102 -0.3102
19529SOL     OW70645   6.100   6.260   2.062  0.0223 -0.5164 -0.1746
19529SOL    HW170646   6.129   6.338   2.008  0.3210  0.4501  1.3684
19529SOL    HW270647   6.001   6.265   2.079  0.1124 -0.2625  0.2701
19530SOL     OW70648   8.839   1.265   4.590  0.2773  0.0236  0.5422
19530SOL    HW170649   8.832   1.358   4.626  0.6872 -0.2430  1.3536
19530SOL    HW270650   8.928   1.226   4.617  0.0633 -0.6365  0.3048
19531SOL     OW70651   7.670   7.402   6.843 -0.4063 -0.0237  0.0707
19531SOL    HW170652   7.659   7.458   6.925 -0.6312 -1.4993  1.0780
19531SOL    HW270653   7.767   7.377   6.833 -0.5508 -0.8540  0.6063
19532SOL     OW70654   4.203   6.731   4.176  0.2637 -0.1473 -0.8372
19532SOL    HW170655   4.172   6.797   4.245  0.4390 -0.4382 -0.4800
19532SOL    HW270656   4.225   6.779   4.091  0.6722  0.2918 -0.4859
19533SOL     OW70657   7.028   6.684   5.240 -0.1538 -0.5080  0.0512
19533SOL    HW170658   7.002   6.780   5.236  1.1645 -0.0958  0.9345
19533SOL    HW270659   7.061   6.662   5.332  0.6542 -1.5040 -0.4678
19534SOL     OW70660   8.741   6.298   1.027 -0.3528 -0.4112 -0.1836
19534SOL    HW170661   8.781   6.332   0.942 -1.2114  1.3482  0.1057
19534SOL    HW270662   8.648   6.333   1.037  0.6163  1.4918  2.7018
19535SOL     OW70663   8.037   8.198   6.569 -0.1429  0.1153 -0.1638
19535SOL    HW170664   8.063   8.114   6.523 -1.7825 -1.2467  1.2991
19535SOL    HW270665   8.017   8.178   6.665 -2.3868  1.8136 -0.2382
19536SOL     OW70666   1.023   1.632   1.966 -0.1802 -0.0055  0.0751
19536SOL    HW170667   0.971   1.716   1.949  0.2746 -0.0290 -1.5294
19536SOL    HW270668   1.121   1.652   1.957 -0.0934 -0.8305 -0.9034
19537SOL     OW70669   8.460   5.449   5.369 -0.2144  0.2815 -0.5089
19537SOL    HW170670   8.478   5.511   5.292  1.4263  0.0822 -0.2879
19537SOL    HW270671   8.503   5.485   5.452 -0.5846 -0.3605 -0.0301
19538SOL     OW70672   3.160   1.879   7.900 -0.3490 -0.1077 -0.2851
19538SOL    HW170673   3.243   1.827   7.922  0.3884  1.1598 -0.0440
19538SOL    HW270674   3.079   1.823   7.921  0.4352 -1.5664 -1.0522
19539SOL     OW70675   4.746   8.931   2.793  0.3942  0.1045 -0.2025
19539SOL    HW170676   4.785   9.008   2.843 -2.1529  0.7866  0.7829
19539SOL    HW270677   4.750   8.848   2.850 -0.6081  0.4224  0.3357
19540SOL     OW70678   4.065   0.398   1.188  0.7454  0.9211 -0.4280
19540SOL    HW170679   4.160   0.416   1.161  1.0208  0.2707  0.1143
19540SOL    HW270680   4.058   0.396   1.287 -0.0430  2.0529 -0.4490
19541SOL     OW70681   0.964   0.610   4.962 -0.2071 -0.0296 -0.1691
19541SOL    HW170682   0.960   0.616   5.061  0.3314  1.0569 -0.2120
19541SOL    HW270683   0.927   0.693   4.921 -1.4824 -0.9315 -0.9045
19542SOL     OW70684   8.498   3.127   1.989 -0.2525  0.3917 -0.1252
19542SOL    HW170685   8.467   3.066   2.062 -0.5770  1.0429  0.2814
19542SOL    HW270686   8.461   3.218   2.003  0.1128  0.6534 -0.8171
19543SOL     OW70687   4.575   4.796   7.289  0.3149 -0.3478  0.0236
19543SOL    HW170688   4.575   4.697   7.275 -1.1259 -0.4957  0.9542
19543SOL    HW270689   4.485   4.833   7.265  0.1946  0.4447  1.6735
19544SOL     OW70690   6.043   9.889   6.930 -0.0983  0.0911  0.1602
19544SOL    HW170691   5.969   9.831   6.895  0.3109  0.0621 -0.6766
19544SOL    HW270692   6.084   9.845   7.010 -1.2519  0.3057  0.8830
19545SOL     OW70693   8.272   9.435   4.112 -0.0174  0.2544 -0.0072
19545SOL    HW170694   8.313   9.429   4.203  0.6826 -0.1449 -0.3469
19545SOL    HW270695   8.344   9.435   4.042 -0.6428 -3.3369 -0.7443
19546SOL     OW70696   3.931   5.904   9.309 -0.2208  0.0293 -0.1930
19546SOL    HW170697   3.888   5.992   9.330  0.1941 -0.2619  2.0733
19546SOL    HW270698   3.951   5.857   9.395 -0.2664 -2.1982 -1.3927
19547SOL     OW70699   8.460   8.138   6.432 -0.6465 -0.0465 -0.1462
19547SOL    HW170700   8.431   8.217   6.486  0.7998  0.6882 -0.4200
19547SOL    HW270701   8.501   8.070   6.492 -0.2415  0.1940 -0.1560
19548SOL     OW70702   9.202   8.400   7.518 -0.2308 -0.1100  0.1419
19548SOL    HW170703   9.147   8.322   7.487 -1.5478  0.8936 -0.0930
19548SOL    HW270704   9.273   8.420   7.451 -1.5804  0.5670 -1.1119
19549SOL     OW70705   0.610   4.398   8.360  0.2979  0.3002 -0.7117
19549SOL    HW170706   0.571   4.442   8.280  1.6450  0.3983 -1.3226
19549SOL    HW270707   0.696   4.443   8.385 -1.3424  1.8907  2.2978
19550SOL     OW70708   3.610   5.264   9.318  0.0165  0.4811  0.4360
19550SOL    HW170709   3.695   5.236   9.276  0.3954  1.5680  0.4497
19550SOL    HW270710   3.614   5.362   9.340 -0.6738  0.2221  1.7705
19551SOL     OW70711   9.468   6.097   6.580  0.3892 -0.0759  0.2094
19551SOL    HW170712   9.408   6.018   6.565 -0.7431  0.5927  1.1142
19551SOL    HW270713   9.414   6.174   6.614  1.2715  1.4904 -1.8063
19552SOL     OW70714   5.734   7.274   4.807 -0.5853 -0.0992 -0.5878
19552SOL    HW170715   5.745   7.206   4.735 -0.8152  0.1135 -0.8219
19552SOL    HW270716   5.799   7.254   4.881 -0.3119 -0.2836 -0.8742
19553SOL     OW70717   9.358   3.548   4.909  0.5913  0.2957  0.3323
19553SOL    HW170718   9.267   3.564   4.948  0.2085 -0.8564 -0.0701
19553SOL    HW270719   9.416   3.627   4.928 -0.2278  0.6715  1.3619
19554SOL     OW70720   5.400   7.584   1.479  0.1413 -0.0391  0.4667
19554SOL    HW170721   5.424   7.498   1.525 -0.9774  0.2577  1.6273
19554SOL    HW270722   5.377   7.565   1.384  1.4935 -0.7956  0.2774
19555SOL     OW70723   9.069   4.091   0.410  0.4245  0.0672 -0.6558
19555SOL    HW170724   9.069   3.991   0.422 -0.3493  0.2386  0.8425
19555SOL    HW270725   9.137   4.132   0.470 -1.5694  0.7099  1.2142
19556SOL     OW70726   1.954   1.753   4.453 -0.0121  0.1782  0.3879
19556SOL    HW170727   1.980   1.753   4.550  0.2631  2.6963  0.3540
19556SOL    HW270728   2.034   1.777   4.397 -0.0792 -1.6303 -0.5103
19557SOL     OW70729   2.960   0.004   7.330 -0.1217  0.4222  0.3424
19557SOL    HW170730   3.046   0.008   7.280 -0.3725  2.2777  0.0406
19557SOL    HW270731   2.918  -0.086   7.317 -0.0146  0.7374 -2.4939
19558SOL     OW70732   1.891   7.901   6.035 -0.3285  0.1460 -0.6444
19558SOL    HW170733   1.969   7.928   6.092 -0.8048 -2.0316  1.0870
19558SOL    HW270734   1.925   7.873   5.945  0.7567  0.5278 -0.3679
19559SOL     OW70735   2.819   3.954   8.666 -0.0211  0.5701 -0.0395
19559SOL    HW170736   2.818   4.033   8.605  0.6980  2.1939  1.9918
19559SOL    HW270737   2.913   3.931   8.690 -0.3273  0.6867  1.3433
19560SOL     OW70738   0.022   9.221   0.624  0.4766 -0.3138  0.0125
19560SOL    HW170739   0.039   9.313   0.657  2.0506  0.7647 -3.5186
19560SOL    HW270740   0.109   9.172   0.613 -0.1472 -1.3374 -0.5191
19561SOL     OW70741   2.387   3.332   5.401 -0.2311 -0.3462  0.2409
19561SOL    HW170742   2.381   3.430   5.418 -1.3908  0.0239 -2.2075
19561SOL    HW270743   2.304   3.288   5.434  0.0352 -0.4372  0.7996
19562SOL     OW70744   2.800   3.683   0.832  0.0450 -0.3199 -0.2572
19562SOL    HW170745   2.881   3.704   0.776 -1.7225 -0.3942 -2.8961
19562SOL    HW270746   2.784   3.585   0.831 -0.3352 -0.2596 -0.0665
19563SOL     OW70747   8.224   1.668   9.732 -0.1257 -0.2749 -0.4071
19563SOL    HW170748   8.136   1.632   9.699 -0.1666  0.3531 -0.9922
19563SOL    HW270749   8.280   1.696   9.654 -1.0721  3.2176  0.0683
19564SOL     OW70750   3.398   4.312   5.796  0.5450  0.1914 -0.3195
19564SOL    HW170751   3.392   4.216   5.767  0.9068 -0.0428  0.3532
19564SOL    HW270752   3.409   4.370   5.716  0.5281 -0.3547 -0.7228
19565SOL     OW70753   0.013   2.746   1.270  0.1884  0.0070  0.2765
19565SOL    HW170754  -0.081   2.730   1.300  0.2470 -1.5827 -0.3347
19565SOL    HW270755   0.075   2.742   1.348 -0.1982  0.5477  0.6082
19566SOL     OW70756   0.093   6.459   1.150 -0.1069  0.2483  0.1181
19566SOL    HW170757   0.031   6.486   1.224 -0.7039  1.0478 -0.6539
19566SOL    HW270758   0.187   6.461   1.182 -0.3410  0.8935  0.7664
19567SOL     OW70759   5.059   5.620   9.025 -0.5361  0.1697 -0.0536
19567SOL    HW170760   5.098   5.549   9.084  1.4974  2.4275  1.4182
19567SOL    HW270761   5.067   5.591   8.929  0.1230 -1.6503  0.5318
19568SOL     OW70762   7.542   3.480   1.520  0.5142  0.0862  0.2961
19568SOL    HW170763   7.552   3.415   1.445  0.5380 -0.3556  0.6795
19568SOL    HW270764   7.516   3.431   1.603 -0.9248  0.7522  0.2399
19569SOL     OW70765   2.030   0.083   4.168  0.1318  0.0471  0.1598
19569SOL    HW170766   2.073   0.133   4.243 -2.0646  1.1185  0.7369
19569SOL    HW270767   2.036  -0.015   4.186  3.0351  0.1148 -0.1886
19570SOL     OW70768   1.938   2.066   7.203  0.0614  0.0215  0.9872
19570SOL    HW170769   1.984   1.997   7.147  1.3783  1.1121  0.7101
19570SOL    HW270770   1.932   2.151   7.151 -1.2776  0.2078  1.4486
19571SOL     OW70771   7.734   1.355   7.592  0.1162  0.0985  0.1737
19571SOL    HW170772   7.827   1.373   7.625  0.3768  0.3777 -0.6847
19571SOL    HW270773   7.698   1.438   7.549 -0.2959 -0.1977 -0.0491
19572SOL     OW70774   4.995   8.434   2.912 -0.4235  0.0478  0.3573
19572SOL    HW170775   5.089   8.465   2.928  0.4308 -2.6481  0.8016
19572SOL    HW270776   4.939   8.459   2.990  1.0336 -2.4430  2.2852
19573SOL     OW70777   1.193   4.372   2.031 -0.1497 -0.0482  0.0869
19573SOL    HW170778   1.267   4.343   1.972  0.4023 -0.3456  0.9139
19573SOL    HW270779   1.114   4.400   1.976 -0.8060 -3.3683 -0.7286
19574SOL     OW70780   9.680   4.275   6.756  0.3197  0.6231  0.0531
19574SOL    HW170781   9.640   4.301   6.668 -2.1560 -0.3178  0.8587
19574SOL    HW270782   9.683   4.175   6.763  0.3085  0.6878  1.1082
19575SOL     OW70783   1.005   9.987   7.618 -0.6322  0.0579  0.3894
19575SOL    HW170784   1.077   9.986   7.549  1.3600 -1.5095  2.4020
19575SOL    HW270785   0.941   9.911   7.601  0.0088 -0.4894  0.4094
19576SOL     OW70786   8.722   2.179   8.918  0.2178  0.2934  0.1174
19576SOL    HW170787   8.817   2.178   8.948  0.0981  0.9244  0.5108
19576SOL    HW270788   8.718   2.212   8.823  0.5167 -0.9961 -0.3621
19577SOL     OW70789   6.542   2.189   1.513  0.1432  0.5004 -0.0770
19577SOL    HW170790   6.594   2.274   1.498 -0.3386  0.7490 -0.3532
19577SOL    HW270791   6.580   2.117   1.455  1.2495  0.2360  0.9651
19578SOL     OW70792   3.934   0.758   7.707  0.2624  0.3831 -0.0008
19578SOL    HW170793   3.920   0.856   7.722 -0.4666  0.4887 -1.2427
19578SOL    HW270794   3.894   0.733   7.618  1.2914 -0.8463 -0.1202
19579SOL     OW70795   4.777   9.949   9.718  0.3900 -0.3040 -0.1863
19579SOL    HW170796   4.745   9.867   9.765 -0.5856  0.2332  0.1051
19579SOL    HW270797   4.712  10.024   9.733  1.9196  0.9006  0.6420
19580SOL     OW70798   7.437   0.170   4.985  0.0002  0.2435  0.8542
19580SOL    HW170799   7.530   0.202   4.967  1.1615 -2.4207  1.8829
19580SOL    HW270800   7.376   0.204   4.913  1.4506  3.2241  0.9500
19581SOL     OW70801   7.534   7.389   3.074  0.3406  0.2664  0.2050
19581SOL    HW170802   7.456   7.342   3.033  0.8773 -0.8837  0.4902
19581SOL    HW270803   7.505   7.435   3.158 -0.1890  0.4901 -0.0949
19582SOL     OW70804   2.125   1.446   5.084 -0.5081  0.2842  0.0764
19582SOL    HW170805   2.086   1.354   5.073  0.4890 -0.2848  1.2244
19582SOL    HW270806   2.187   1.464   5.008 -0.4218 -0.1385  0.0401
19583SOL     OW70807   8.685   3.426   6.290 -0.1720 -0.2521 -0.1959
19583SOL    HW170808   8.692   3.487   6.368 -0.1050 -0.2577 -0.1973
19583SOL    HW270809   8.734   3.465   6.212  0.2339 -0.5093 -0.0723
19584SOL     OW70810   1.674   7.900   0.643  0.4437  0.1934 -0.0627
19584SOL    HW170811   1.712   7.985   0.678 -1.5846  0.9437  0.3634
19584SOL    HW270812   1.583   7.886   0.680  1.3593 -3.0077  1.2111
19585SOL     OW70813   1.369   5.735   6.760  0.1784  0.5282  0.5550
19585SOL    HW170814   1.407   5.780   6.680 -1.7531  0.8989 -0.1802
19585SOL    HW270815   1.278   5.700   6.739 -0.5687  1.0771  2.7089
19586SOL     OW70816   2.999   9.360   5.624 -0.1715  0.5775  0.2410
19586SOL    HW170817   3.089   9.396   5.597  0.1484 -1.0895 -0.9789
19586SOL    HW270818   3.010   9.265   5.656 -1.6492  0.0070 -0.9211
19587SOL     OW70819   2.479   8.178   8.056  0.6248 -0.8388 -0.4631
19587SOL    HW170820   2.512   8.260   8.008 -0.4536  0.9208  1.7233
19587SOL    HW270821   2.405   8.136   8.003  1.2753 -0.5089 -1.6679
19588SOL     OW70822   1.612   3.455   1.834 -0.1727 -0.3010 -0.0877
19588SOL    HW170823   1.555   3.380   1.800 -1.1110 -0.3675  1.5906
19588SOL    HW270824   1.674   3.421   1.904 -0.0708  0.3499  0.1373
19589SOL     OW70825   2.469   9.481   0.138 -0.2389  0.0296  0.0733
19589SOL    HW170826   2.372   9.462   0.150 -0.3191  0.5561  0.2578
19589SOL    HW270827   2.509   9.412   0.077 -0.8408  0.1140 -0.4197
19590SOL     OW70828   9.285   4.045   8.261 -0.0074  0.4051 -0.2315
19590SOL    HW170829   9.201   4.044   8.315  0.3976  0.7281  0.4142
19590SOL    HW270830   9.353   3.985   8.304  1.0882  2.3808  0.8746
19591SOL     OW70831   2.533   6.977   6.065  0.0804  0.1097  0.3963
19591SOL    HW170832   2.439   6.958   6.094  0.5684 -0.0952  1.9135
19591SOL    HW270833   2.572   6.895   6.025 -0.8264  0.5845 -1.5197
19592SOL     OW70834   5.024   1.296   9.835  0.3614 -0.1887  0.3278
19592SOL    HW170835   5.067   1.332   9.918 -0.6868  1.1629  0.2785
19592SOL    HW270836   5.093   1.247   9.782  0.9388 -1.5288  2.2311
19593SOL     OW70837   0.897   5.159   7.753 -0.2514  0.0700 -0.2950
19593SOL    HW170838   0.931   5.085   7.811  0.0492 -0.4726 -1.1601
19593SOL    HW270839   0.921   5.247   7.794  0.1596 -0.3143  0.2879
19594SOL     OW70840   7.913   8.883   4.193 -0.3651  0.1293  0.8455
19594SOL    HW170841   7.971   8.921   4.121 -0.9987 -0.5820 -0.0484
19594SOL    HW270842   7.839   8.948   4.212  1.9946  2.1145  3.6316
19595SOL     OW70843   9.502   5.298   6.435 -0.7902  0.0741 -0.2278
19595SOL    HW170844   9.421   5.356   6.442 -1.7478 -1.2379 -0.2248
19595SOL    HW270845   9.533   5.271   6.527 -1.1638 -0.5149 -0.2699
19596SOL     OW70846   1.971   7.067   0.069  0.6934 -0.9341 -0.3997
19596SOL    HW170847   1.930   7.118   0.145 -1.4714  0.0264 -2.1722
19596SOL    HW270848   1.935   6.974   0.068 -1.6333 -0.0762 -1.9892
19597SOL     OW70849   2.600   2.667   9.860  0.0950  0.7743  0.0423
19597SOL    HW170850   2.686   2.635   9.821 -1.0372 -2.1765 -0.2344
19597SOL    HW270851   2.546   2.713   9.790 -0.5121 -1.5591 -1.0724
19598SOL     OW70852   3.875   9.175   2.843 -0.5748  0.0574 -0.1372
19598SOL    HW170853   3.803   9.186   2.775  0.7869  0.4536 -1.5393
19598SOL    HW270854   3.963   9.165   2.797  0.5624  1.7789  1.5897
19599SOL     OW70855   9.226   3.283   4.041  0.2591  0.9293 -0.0579
19599SOL    HW170856   9.250   3.201   3.990  0.8050  0.3600  1.0796
19599SOL    HW270857   9.129   3.304   4.028  0.2758  0.4795 -0.8780
19600SOL     OW70858   7.299   0.035   6.486 -0.1415 -0.3076 -0.1907
19600SOL    HW170859   7.203   0.045   6.464  0.1956 -0.5505 -1.8006
19600SOL    HW270860   7.349  -0.000   6.407  1.4439  0.7064  0.3249
19601SOL     OW70861   8.640   5.048   0.490  0.6037  0.8500  0.1806
19601SOL    HW170862   8.613   4.954   0.468  2.2919  0.9351 -2.4905
19601SOL    HW270863   8.724   5.047   0.545 -0.1001  0.7784  1.2643
19602SOL     OW70864   9.176   0.045   6.499  0.2739  0.4436  0.3350
19602SOL    HW170865   9.169   0.101   6.582 -1.7578  0.1965  0.3568
19602SOL    HW270866   9.123   0.088   6.425  0.9697 -0.0287 -0.4402
19603SOL     OW70867   4.006   4.146   0.194  0.4055  0.1864 -0.3460
19603SOL    HW170868   3.956   4.211   0.135  0.3991  0.1718 -0.3562
19603SOL    HW270869   4.086   4.112   0.145  0.5255  0.3473 -0.2629
19604SOL     OW70870   9.962   2.743   5.429 -0.1688 -0.4630 -0.1025
19604SOL    HW170871  10.042   2.705   5.383 -0.9082 -2.6546  0.3886
19604SOL    HW270872   9.992   2.811   5.496  1.0968  0.6606 -1.7605
19605SOL     OW70873   7.856   3.249   0.144 -0.0518 -0.0357  0.4339
19605SOL    HW170874   7.773   3.232   0.091  0.1219 -0.8792  0.4190
19605SOL    HW270875   7.892   3.340   0.122 -0.2442 -0.1868 -0.5453
19606SOL     OW70876   0.391   3.785   4.033 -0.6227 -0.0801 -0.2810
19606SOL    HW170877   0.305   3.834   4.052 -1.3850 -1.5244  0.1220
19606SOL    HW270878   0.372   3.706   3.974  0.2787 -0.9275  0.5434
19607SOL     OW70879   6.267   4.741   0.435  0.0895 -0.7060  0.4280
19607SOL    HW170880   6.314   4.703   0.356  0.3175  0.8146 -0.1895
19607SOL    HW270881   6.334   4.765   0.505  0.2005  0.7104 -0.1307
19608SOL     OW70882   7.234   6.985   2.662  0.3796  0.7983 -0.1699
19608SOL    HW170883   7.223   7.065   2.721  0.8175  0.1508  0.8218
19608SOL    HW270884   7.324   6.945   2.678 -0.2679 -0.5489  0.1888
19609SOL     OW70885   6.690   9.854   6.641  0.3558  0.5853 -0.0537
19609SOL    HW170886   6.612   9.913   6.660 -0.1021 -0.6904  2.2643
19609SOL    HW270887   6.659   9.772   6.593  0.2702  0.1186  0.7919
19610SOL     OW70888   4.855   3.693   8.791  0.0821 -0.1869 -0.1678
19610SOL    HW170889   4.844   3.788   8.761  1.0984 -0.7963 -2.6092
19610SOL    HW270890   4.767   3.646   8.788 -0.0753  0.1495 -0.9164
19611SOL     OW70891   6.287   5.871   8.050 -0.0252  0.4916  0.4197
19611SOL    HW170892   6.285   5.940   8.123  0.2128 -0.7304  1.6004
19611SOL    HW270893   6.276   5.780   8.090  0.6893 -0.2423 -1.0198
19612SOL     OW70894   2.271   7.839   0.701  0.2389 -0.1423  0.3926
19612SOL    HW170895   2.284   7.926   0.654  0.3743  0.2847  1.1984
19612SOL    HW270896   2.360   7.805   0.733 -0.1019  0.7072  2.3004
19613SOL     OW70897   3.123   2.244   4.335 -0.5575 -0.1511  0.0850
19613SOL    HW170898   3.178   2.317   4.377  2.9447 -0.8270 -3.1222
19613SOL    HW270899   3.051   2.285   4.279  1.8343  0.9453 -2.2749
19614SOL     OW70900   9.293   5.443   9.407  0.3799 -0.7918  0.1739
19614SOL    HW170901   9.365   5.376   9.428  1.9700  1.0289  0.7505
19614SOL    HW270902   9.282   5.505   9.485 -0.6615 -0.0297 -0.5665
19615SOL     OW70903   9.382   3.132   0.387  0.2552  0.2449 -0.4534
19615SOL    HW170904   9.308   3.088   0.437  0.1100 -0.4036 -1.2236
19615SOL    HW270905   9.457   3.152   0.450 -0.9749  1.8665  0.5350
19616SOL     OW70906   1.178   1.334   0.824 -0.1765  0.1195 -0.1542
19616SOL    HW170907   1.155   1.343   0.921 -0.2682 -1.7118  0.0068
19616SOL    HW270908   1.266   1.289   0.815 -1.3980 -2.1524 -0.9562
19617SOL     OW70909   0.780   9.168   8.780  0.0201  0.1120  0.6831
19617SOL    HW170910   0.724   9.097   8.738 -1.7219  0.6682  2.0206
19617SOL    HW270911   0.756   9.257   8.740  0.8116  0.2068  0.4109
19618SOL     OW70912   9.466   0.371   3.665 -0.4483  0.0720 -0.1031
19618SOL    HW170913   9.417   0.434   3.606 -0.1052  0.3722 -0.0707
19618SOL    HW270914   9.486   0.286   3.615 -1.1742 -0.1268 -0.0498
19619SOL     OW70915   8.183   4.687   7.900 -0.4038 -0.1283  0.3371
19619SOL    HW170916   8.096   4.680   7.852  0.4709 -1.5549 -1.1025
19619SOL    HW270917   8.177   4.756   7.972 -2.1135  1.1873 -1.0448
19620SOL     OW70918   6.202   7.820   7.789  0.0008 -0.4708 -0.2500
19620SOL    HW170919   6.146   7.900   7.767 -0.7731 -1.2825 -1.2683
19620SOL    HW270920   6.263   7.800   7.712 -0.6894 -1.5917 -0.5233
19621SOL     OW70921   3.412   8.813   0.099 -0.1243  0.5047 -0.0968
19621SOL    HW170922   3.496   8.773   0.062 -0.6458 -0.8594  0.1664
19621SOL    HW270923   3.417   8.814   0.199 -0.5923  0.0231 -0.0657
19622SOL     OW70924   6.495   5.870   0.998  0.1958  0.1774  0.0456
19622SOL    HW170925   6.418   5.834   0.946 -0.0232 -1.3926  1.4086
19622SOL    HW270926   6.462   5.915   1.081  0.7723 -1.3863  1.1499
19623SOL     OW70927   1.893   1.477   2.424  0.2732 -0.7509 -0.0916
19623SOL    HW170928   1.964   1.448   2.361 -1.4577 -1.8639 -1.5583
19623SOL    HW270929   1.846   1.557   2.387  0.1906 -0.5315  0.4751
19624SOL     OW70930   6.798   0.591   2.866  0.3058 -0.0656  0.0598
19624SOL    HW170931   6.714   0.538   2.880  1.1882 -0.8703  2.6245
19624SOL    HW270932   6.867   0.533   2.824 -0.2339  0.4425 -1.5510
19625SOL     OW70933   2.262   4.698   7.555  0.3693 -0.2420  0.1054
19625SOL    HW170934   2.289   4.759   7.480 -1.4149 -0.7745 -1.0015
19625SOL    HW270935   2.251   4.605   7.519  0.9173 -0.7936  1.3397
19626SOL     OW70936   2.664   2.571   5.070  0.7882  0.4410  0.0907
19626SOL    HW170937   2.671   2.663   5.108  0.6505 -0.4879  2.3958
19626SOL    HW270938   2.600   2.573   4.992 -0.1411  2.0617  0.8489
19627SOL     OW70939   2.932   0.934   7.436  0.0843 -0.1631  0.0365
19627SOL    HW170940   2.955   0.923   7.339  0.0465  2.1224 -0.2711
19627SOL    HW270941   2.849   0.989   7.445  1.5032  1.8298  1.4017
19628SOL     OW70942   2.725   9.097   7.051 -0.2296  0.0009 -0.0803
19628SOL    HW170943   2.695   9.032   6.981 -2.7508 -0.9578  1.8524
19628SOL    HW270944   2.697   9.190   7.024 -1.9157 -0.4622  0.0174
19629SOL     OW70945   3.753   9.382   1.316 -0.5301  0.2414  0.4225
19629SOL    HW170946   3.832   9.443   1.314 -0.9020  0.6925 -1.4489
19629SOL    HW270947   3.783   9.287   1.306 -0.1773  0.3830  0.1256
19630SOL     OW70948   2.764   9.026   0.775 -0.5020  0.4443 -0.3072
19630SOL    HW170949   2.776   9.106   0.716 -0.6675  0.6722 -0.0273
19630SOL    HW270950   2.761   9.054   0.871  3.3710 -0.2421  0.1013
19631SOL     OW70951   2.092   8.474   0.789  0.1225  0.1372 -0.0709
19631SOL    HW170952   2.152   8.511   0.718  1.0189  0.7178  0.9930
19631SOL    HW270953   2.143   8.460   0.873 -0.9636 -0.4707  0.5000
19632SOL     OW70954   0.881   3.131   2.691  0.6506  0.4522 -0.4356
19632SOL    HW170955   0.937   3.101   2.768  2.0921  0.9317 -1.2932
19632SOL    HW270956   0.895   3.228   2.675  1.3944  0.0828 -2.1441
19633SOL     OW70957   9.073   2.727   1.632 -0.0995  0.4365  0.3556
19633SOL    HW170958   9.005   2.713   1.703 -0.7892  0.4728 -0.2958
19633SOL    HW270959   9.161   2.688   1.662 -1.3642 -3.2380 -0.4386
19634SOL     OW70960   3.456   1.292   5.717 -0.9623  0.5289  0.4240
19634SOL    HW170961   3.541   1.303   5.666 -0.2299 -0.1546  1.4750
19634SOL    HW270962   3.474   1.302   5.815 -1.7496 -1.3839  0.7955
19635SOL     OW70963   9.641   6.391   6.583  0.3772  0.1150 -0.2867
19635SOL    HW170964   9.720   6.453   6.584 -0.7349  1.5423  0.2776
19635SOL    HW270965   9.631   6.350   6.673 -0.6418  1.3906  0.1943
19636SOL     OW70966   0.980   2.899   4.059  0.6552  0.3443 -0.4621
19636SOL    HW170967   0.948   2.958   4.133  0.6048  0.0576 -0.2564
19636SOL    HW270968   0.905   2.841   4.027  1.3071 -1.3033  0.9459
19637SOL     OW70969   3.636   1.397   5.912  0.3976  0.4765 -0.6488
19637SOL    HW170970   3.682   1.315   5.878  0.2821 -0.1078  0.5878
19637SOL    HW270971   3.660   1.412   6.008 -1.1615  0.7595 -0.2883
19638SOL     OW70972   0.350   3.198   6.211  0.4174 -0.5544 -0.0732
19638SOL    HW170973   0.256   3.206   6.179  0.4260 -0.2038 -0.0153
19638SOL    HW270974   0.407   3.158   6.140 -0.0391 -2.0399  0.3655
19639SOL     OW70975   2.258   4.290   5.087 -0.0960  0.4207 -0.3294
19639SOL    HW170976   2.314   4.358   5.134  0.4374 -0.5369  0.4387
19639SOL    HW270977   2.161   4.314   5.095  0.1197  1.3705 -0.5208
19640SOL     OW70978   0.364   6.873   8.968  0.2200 -0.1816  0.4054
19640SOL    HW170979   0.434   6.815   8.927 -1.0101 -1.4755  0.1017
19640SOL    HW270980   0.333   6.941   8.901  1.2480  0.4808  0.5808
19641SOL     OW70981   3.822   1.175   5.784  0.0276  0.0746 -0.6709
19641SOL    HW170982   3.783   1.243   5.723 -0.3969 -1.3588 -2.0353
19641SOL    HW270983   3.919   1.161   5.763 -0.0223 -0.1406 -0.7608
19642SOL     OW70984   9.983   1.477   5.082 -0.4407  0.3499  0.2213
19642SOL    HW170985  10.082   1.466   5.073 -0.4573 -1.0237  1.4533
19642SOL    HW270986   9.963   1.568   5.119  0.4882 -0.1368  1.9672
19643SOL     OW70987   9.839   0.953   2.722  0.0836 -0.0784 -0.4516
19643SOL    HW170988   9.918   0.903   2.758 -0.5879 -1.7108 -1.1942
19643SOL    HW270989   9.800   1.009   2.795  0.4961 -1.0979  0.5866
19644SOL     OW70990   2.330   0.722   9.407 -0.3538  0.8696  0.0768
19644SOL    HW170991   2.388   0.666   9.467 -1.1905  1.4044  1.4003
19644SOL    HW270992   2.379   0.806   9.384 -0.1683  0.8159  0.2678
19645SOL     OW70993   7.724   7.301   5.654  0.8500  0.3912 -0.2638
19645SOL    HW170994   7.641   7.295   5.599 -0.4225  1.2356  1.5124
19645SOL    HW270995   7.765   7.210   5.663 -0.0808 -0.0920 -0.8496
19646SOL     OW70996   3.606   3.699   0.959  0.3574  0.1391  0.3896
19646SOL    HW170997   3.640   3.756   1.033  0.1020  1.0043 -0.1474
19646SOL    HW270998   3.654   3.611   0.959  1.6341  0.8280  0.4759
19647SOL     OW70999   3.513   1.812   9.932 -0.1293 -0.2298  0.2745
19647SOL    HW171000   3.611   1.801   9.917 -0.0992  0.3086  0.0685
19647SOL    HW271001   3.491   1.788  10.026  0.3646  0.6203  0.6173
19648SOL     OW71002   4.102   0.187   7.541 -0.3825  0.4639 -0.2257
19648SOL    HW171003   4.173   0.246   7.504 -0.5509  0.8294  0.0352
19648SOL    HW271004   4.117   0.172   7.639 -1.5233  1.7999  0.1711
19649SOL     OW71005   3.444   6.899   3.414  0.5090 -0.0024 -0.0226
19649SOL    HW171006   3.482   6.815   3.454  0.3942 -0.9165 -1.7836
19649SOL    HW271007   3.504   6.930   3.340 -0.1160  0.7540 -0.2161
19650SOL     OW71008   2.830   7.604   2.037 -0.1550  0.0721  0.2845
19650SOL    HW171009   2.878   7.516   2.031 -2.7952 -1.4247  0.6336
19650SOL    HW271010   2.770   7.604   2.116 -1.0805  1.7379 -0.4022
19651SOL     OW71011   4.545   4.245   2.052 -0.4650  0.4801 -0.1482
19651SOL    HW171012   4.625   4.285   2.097  0.1229 -0.5235 -0.2899
19651SOL    HW271013   4.571   4.158   2.009 -0.6575  2.0238 -3.5836
19652SOL     OW71014   2.699   9.772   7.715  0.2234  0.8381  0.0717
19652SOL    HW171015   2.771   9.838   7.693  0.2609  1.5936  2.2777
19652SOL    HW271016   2.613   9.821   7.732 -1.2300 -0.1542 -3.8762
19653SOL     OW71017   2.606   0.451   0.380 -0.4625 -0.0217  0.2627
19653SOL    HW171018   2.539   0.510   0.335 -1.4518 -1.2819  0.0451
19653SOL    HW271019   2.560   0.393   0.448  0.6494  0.1713  1.1983
19654SOL     OW71020   9.012   3.448   7.421  0.6732  0.3476 -0.4459
19654SOL    HW171021   9.049   3.413   7.335  0.2099 -1.6482  0.1430
19654SOL    HW271022   8.949   3.523   7.403  0.9384  0.2508 -1.8008
19655SOL     OW71023   6.095   2.492   1.964 -0.1345  0.4870  0.1824
19655SOL    HW171024   6.173   2.541   2.001 -1.5741  1.9431  1.3937
19655SOL    HW271025   6.040   2.455   2.040  1.4165 -3.8895 -0.6863
19656SOL     OW71026   4.690   1.553   6.392  0.2353  0.3896 -0.1916
19656SOL    HW171027   4.737   1.572   6.478 -0.7640  3.5661 -0.2847
19656SOL    HW271028   4.756   1.555   6.317  0.4563  1.8049  0.0267
19657SOL     OW71029   0.486   9.499   9.125 -0.3174 -0.4137  0.1476
19657SOL    HW171030   0.536   9.571   9.076  1.6447  0.1399  2.8939
19657SOL    HW271031   0.550   9.434   9.165 -1.9765 -2.0356  0.2491
19658SOL     OW71032   7.836   5.469   7.189  0.1142  0.0848 -0.2872
19658SOL    HW171033   7.821   5.457   7.091 -0.7038  0.8126 -0.2515
19658SOL    HW271034   7.883   5.388   7.225 -0.5887 -0.6853 -1.0610
19659SOL     OW71035   1.458   1.735   9.967 -0.6788  0.7826 -0.1478
19659SOL    HW171036   1.405   1.650   9.960 -0.0236  0.4627 -1.3320
19659SOL    HW271037   1.555   1.713   9.975 -0.6150  1.3975  0.8291
19660SOL     OW71038   5.050   2.609   2.638  0.0138 -0.1095  0.0446
19660SOL    HW171039   5.051   2.660   2.724  1.0974 -1.2151  0.7064
19660SOL    HW271040   4.981   2.648   2.577 -0.4840  0.9454  1.2539
19661SOL     OW71041   0.684   3.664   0.678 -0.4174  0.2266 -0.1766
19661SOL    HW171042   0.611   3.625   0.622 -0.4694 -0.2830  0.2387
19661SOL    HW271043   0.674   3.632   0.772 -0.2211  0.9208  0.0848
19662SOL     OW71044   0.385   4.217   7.473  0.3410  0.8332  0.3215
19662SOL    HW171045   0.355   4.301   7.517  0.5376  0.9509  0.2281
19662SOL    HW271046   0.485   4.214   7.469  0.3589  0.2250  1.0437
19663SOL     OW71047   8.454   2.912   5.687  0.1412 -0.1018 -0.0868
19663SOL    HW171048   8.510   2.930   5.768 -0.7687 -0.5343  0.6534
19663SOL    HW271049   8.388   2.986   5.674 -0.8587 -0.8506  0.5800
19664SOL     OW71050   1.715   5.275   9.851  0.1176  0.7256 -0.0443
19664SOL    HW171051   1.708   5.309   9.945  0.5187  1.2961 -0.2166
19664SOL    HW271052   1.647   5.204   9.836  1.4366 -0.8864  1.3218
19665SOL     OW71053   8.612   7.686   3.645  0.1902 -0.7413  0.2313
19665SOL    HW171054   8.554   7.608   3.668  1.0065 -0.6093  2.8759
19665SOL    HW271055   8.580   7.767   3.695  0.5843  0.1633 -0.9422
19666SOL     OW71056   5.192   2.966   1.851 -0.0654 -0.3073  0.1513
19666SOL    HW171057   5.117   3.001   1.907 -2.0634  1.0052 -3.1979
19666SOL    HW271058   5.264   3.035   1.843  2.3706 -2.0995  4.5934
19667SOL     OW71059   8.421   3.898   7.870  0.1186 -0.3889  0.4876
19667SOL    HW171060   8.393   3.824   7.932 -0.3777 -0.2793  0.3977
19667SOL    HW271061   8.367   3.980   7.890  0.4873 -0.1291  0.4132
19668SOL     OW71062   9.867   0.612   2.045  0.1397  0.1784 -0.4982
19668SOL    HW171063   9.830   0.679   2.110  0.9166  1.1039 -0.9957
19668SOL    HW271064   9.936   0.556   2.091 -2.9827 -2.6891  0.9126
19669SOL     OW71065   8.276   5.144   6.511 -0.2964  0.0463 -0.3253
19669SOL    HW171066   8.314   5.054   6.491  0.9296  0.1077  1.6440
19669SOL    HW271067   8.342   5.198   6.565 -1.2852  1.8635 -0.8836
19670SOL     OW71068   5.437   8.428   8.260 -0.4491 -0.5446 -0.0760
19670SOL    HW171069   5.450   8.384   8.349 -0.2480 -1.9473 -0.7894
19670SOL    HW271070   5.526   8.446   8.219 -0.5208  0.7357  0.2867
19671SOL     OW71071   0.711   8.585   5.643  0.4564 -0.2879  0.4612
19671SOL    HW171072   0.723   8.633   5.730 -0.0663 -1.5309  1.2252
19671SOL    HW271073   0.716   8.487   5.658 -0.6584 -0.5395 -0.7703
19672SOL     OW71074   0.932   1.933   3.282 -0.8427 -0.7310 -0.4264
19672SOL    HW171075   0.981   1.857   3.241 -0.8497 -0.7029 -0.4857
19672SOL    HW271076   0.976   2.019   3.257 -1.3334 -0.6594 -1.0529
19673SOL     OW71077   2.164   8.138   1.081 -0.3258  0.0833 -0.3701
19673SOL    HW171078   2.172   8.041   1.061 -2.3344 -0.1679 -0.0719
19673SOL    HW271079   2.140   8.150   1.178  2.5200  1.0053  0.2896
19674SOL     OW71080   8.463   6.384   4.435  0.5218 -0.2846 -0.5370
19674SOL    HW171081   8.555   6.418   4.418  1.0783 -0.1270  2.5421
19674SOL    HW271082   8.468   6.294   4.478 -0.7065  0.5895  1.4741
19675SOL     OW71083   8.869   8.435   5.455  0.0497  0.2311  0.0837
19675SOL    HW171084   8.909   8.356   5.501 -0.9332 -0.6188 -0.5277
19675SOL    HW271085   8.912   8.519   5.490  2.0174 -0.6242 -0.1902
19676SOL     OW71086   9.629   1.993   5.183  0.4320  0.3738  0.2605
19676SOL    HW171087   9.575   1.909   5.171  1.6454 -0.5640  1.1940
19676SOL    HW271088   9.623   2.023   5.278  1.2783  0.4423  0.2964
19677SOL     OW71089   7.192   8.641   3.051 -0.3579  0.1655  0.0702
19677SOL    HW171090   7.136   8.575   3.101  1.2746 -0.8314  0.6012
19677SOL    HW271091   7.185   8.731   3.095  1.4806 -0.8161  2.4501
19678SOL     OW71092   6.631   8.974   3.764 -0.2324 -0.2269 -0.0340
19678SOL    HW171093   6.554   8.924   3.804 -0.0175 -0.4570  0.0906
19678SOL    HW271094   6.715   8.949   3.812 -0.3042  1.1690  0.8426
19679SOL     OW71095   8.400   1.897   4.464  0.0978  0.2126 -0.1349
19679SOL    HW171096   8.308   1.930   4.442 -0.1739  0.4378  1.2904
19679SOL    HW271097   8.453   1.887   4.379 -1.8425 -1.7832 -1.1761
19680SOL     OW71098   3.316   5.210   5.090 -0.5309 -0.2045  0.4992
19680SOL    HW171099   3.293   5.296   5.136  0.5421  1.8398 -2.6447
19680SOL    HW271100   3.403   5.176   5.126 -0.2788  0.7521  0.8207
19681SOL     OW71101   5.241   4.088   1.660  0.3781 -0.2235 -0.5191
19681SOL    HW171102   5.298   4.169   1.650 -0.1794  0.0442 -1.6351
19681SOL    HW271103   5.253   4.050   1.752  0.1273  1.5197  0.2738
19682SOL     OW71104   8.118   9.524   3.875 -0.4601 -0.3300 -0.1583
19682SOL    HW171105   8.028   9.565   3.888 -1.0664 -1.2828 -1.2674
19682SOL    HW271106   8.149   9.483   3.961 -1.0676  0.0357  0.2367
19683SOL     OW71107   0.374   4.708   5.958  0.3644  0.4424 -0.2764
19683SOL    HW171108   0.399   4.748   6.046 -0.2842 -0.9645  0.5644
19683SOL    HW271109   0.381   4.778   5.887 -0.8685  2.0831  1.1596
19684SOL     OW71110   3.407   0.607   5.123  0.1866  0.0091  0.6867
19684SOL    HW171111   3.455   0.519   5.123 -0.0939 -0.1452  0.5572
19684SOL    HW271112   3.430   0.657   5.206  0.3850 -0.1695  0.7384
19685SOL     OW71113   4.954   3.454   6.952  0.9104  0.2541  0.5497
19685SOL    HW171114   4.869   3.403   6.965  0.8119  0.1741 -0.3734
19685SOL    HW271115   5.021   3.426   7.020  0.5792 -0.5128  0.5595
19686SOL     OW71116   9.864   1.509   3.657  0.1480 -0.0757 -0.1145
19686SOL    HW171117   9.936   1.531   3.723 -1.9416  1.4649  1.7230
19686SOL    HW271118   9.839   1.591   3.606 -0.7678 -0.4425 -0.2639
19687SOL     OW71119   0.692   1.544   5.099  0.3560 -0.3658  0.2440
19687SOL    HW171120   0.659   1.450   5.113 -0.7599  0.0771  0.7028
19687SOL    HW271121   0.688   1.567   5.002  0.8799 -0.8859  0.0993
19688SOL     OW71122   7.508   3.164   4.278 -0.6428  0.0349 -0.2204
19688SOL    HW171123   7.424   3.121   4.245 -0.6007 -0.3239  0.1383
19688SOL    HW271124   7.485   3.237   4.342 -0.7457  1.0522 -1.3863
19689SOL     OW71125   0.316   6.906   3.628  0.8869 -0.1204  0.0690
19689SOL    HW171126   0.411   6.894   3.657  1.4115  0.8146 -1.2177
19689SOL    HW271127   0.288   6.828   3.572  0.9645 -0.2931  0.2699
19690SOL     OW71128   3.591   8.840   8.859  0.1008  0.2324  0.4698
19690SOL    HW171129   3.633   8.924   8.823  1.3916 -0.0596  1.2763
19690SOL    HW271130   3.590   8.770   8.788 -0.5721  0.7889 -0.0688
19691SOL     OW71131   6.406   2.028   1.159 -0.5412 -0.3884  0.0994
19691SOL    HW171132   6.495   2.040   1.202 -0.3567  0.2497 -0.4524
19691SOL    HW271133   6.412   1.962   1.085 -0.4475 -0.0903 -0.1611
19692SOL     OW71134   1.028   1.137   0.316 -0.5438 -0.3464  0.5397
19692SOL    HW171135   1.108   1.088   0.351  0.4572  1.3538  0.7083
19692SOL    HW271136   1.004   1.101   0.226  2.3868  1.1466 -0.9333
19693SOL     OW71137   0.137   1.696   1.962 -0.1813 -0.2556 -0.2820
19693SOL    HW171138   0.194   1.778   1.966  0.6538 -0.8092 -0.7701
19693SOL    HW271139   0.155   1.640   2.043  1.0266 -1.1143 -1.1199
19694SOL     OW71140   1.441   8.485   8.172  0.2638 -0.1755  0.5125
19694SOL    HW171141   1.354   8.526   8.144  0.8236  1.0852  0.5802
19694SOL    HW271142   1.474   8.531   8.254  1.7497  0.4113 -0.3913
19695SOL     OW71143   3.912   5.883   4.720  0.6134 -0.0475  0.0199
19695SOL    HW171144   3.971   5.816   4.676  0.8904 -0.8897  1.6096
19695SOL    HW271145   3.968   5.950   4.769  0.2705 -0.7879  1.4499
19696SOL     OW71146   1.243   3.411   3.018  0.0119 -0.0162 -0.2992
19696SOL    HW171147   1.330   3.373   2.989 -0.5639 -1.5248 -0.1035
19696SOL    HW271148   1.258   3.495   3.070  1.3374 -0.3761 -0.1031
19697SOL     OW71149   3.423   8.672   7.972 -0.4256 -0.0027 -0.0053
19697SOL    HW171150   3.366   8.609   8.025  1.8694 -1.6221  0.5913
19697SOL    HW271151   3.497   8.706   8.030 -0.5447  1.7882 -0.8784
19698SOL     OW71152   6.512   9.560   5.780  0.0546 -0.0703  0.4631
19698SOL    HW171153   6.604   9.521   5.779 -0.3033 -0.9095 -0.2424
19698SOL    HW271154   6.518   9.660   5.774  1.0242  0.0943  3.2387
19699SOL     OW71155   7.489   5.651   5.776 -0.1770  0.1465  0.2805
19699SOL    HW171156   7.400   5.695   5.793 -0.3251 -0.0750  0.0731
19699SOL    HW271157   7.562   5.715   5.799 -0.3588 -0.3592  2.4102
19700SOL     OW71158   0.131   6.302   0.942  0.2795  0.7913 -0.8714
19700SOL    HW171159   0.048   6.308   0.887  0.7200 -0.6956 -1.7593
19700SOL    HW271160   0.115   6.338   1.033 -1.6338 -0.3966 -0.7150
19701SOL     OW71161   4.835   9.794   3.073  0.9193 -0.1331 -0.3720
19701SOL    HW171162   4.872   9.833   2.988 -1.1103  0.1217 -1.1698
19701SOL    HW271163   4.867   9.848   3.151  0.4851  1.4122 -1.2300
19702SOL     OW71164   2.837   6.211   0.831 -0.7655 -0.0066  0.1120
19702SOL    HW171165   2.798   6.164   0.752  0.0575 -0.9498  0.2553
19702SOL    HW271166   2.878   6.144   0.893  2.1152  0.9735 -0.6129
19703SOL     OW71167   9.194   8.092   8.759  0.0950  0.7588 -0.2082
19703SOL    HW171168   9.257   8.165   8.785  2.5776 -0.4111 -2.6233
19703SOL    HW271169   9.113   8.132   8.716  0.9038  2.1632 -0.4798
19704SOL     OW71170   3.784   4.418   7.400 -0.4801 -0.2528 -0.5685
19704SOL    HW171171   3.742   4.436   7.311 -0.6524 -2.2936 -0.9296
19704SOL    HW271172   3.868   4.471   7.409 -1.8100  1.9334 -0.8808
19705SOL     OW71173   2.943   1.446   1.263  0.4352 -0.4319  0.2106
19705SOL    HW171174   2.986   1.478   1.178  0.9358  3.1726  1.7315
19705SOL    HW271175   2.861   1.500   1.281  0.1830 -1.3406  1.8661
19706SOL     OW71176   2.128   0.510   3.406  0.5788 -0.4924  0.2300
19706SOL    HW171177   2.064   0.585   3.392 -0.2455 -1.1954  0.1994
19706SOL    HW271178   2.186   0.500   3.325  1.4647  0.8279  0.6781
19707SOL     OW71179   3.957   2.869   7.592  0.0854  0.1025 -0.2685
19707SOL    HW171180   3.858   2.872   7.604  0.0064 -0.3621 -0.8108
19707SOL    HW271181   4.000   2.933   7.657 -0.6092  0.8856 -0.5666
19708SOL     OW71182   1.616   7.956   7.059 -0.1910  0.0977 -0.4665
19708SOL    HW171183   1.695   7.944   6.999 -0.0234  0.1812 -0.2637
19708SOL    HW271184   1.617   7.886   7.131 -0.8678 -0.5469 -1.0726
19709SOL     OW71185   2.778   8.196   0.506  0.0222  0.9321 -0.6895
19709SOL    HW171186   2.854   8.131   0.511  0.2369  1.2233 -0.1174
19709SOL    HW271187   2.775   8.236   0.414 -0.5061 -0.3512 -1.2437
19710SOL     OW71188   2.647   3.900  10.057  0.1681 -0.2721  0.2238
19710SOL    HW171189   2.586   3.856   9.990  0.1754 -0.8438  0.5913
19710SOL    HW271190   2.597   3.971  10.106  0.0933 -0.0170 -0.2171
19711SOL     OW71191   0.737   5.623   6.715  0.5796  0.1354 -0.6783
19711SOL    HW171192   0.637   5.617   6.718  0.5152  1.6389  1.9740
19711SOL    HW271193   0.764   5.719   6.704  1.7299 -0.0928  0.1057
19712SOL     OW71194   9.004   7.568   2.603  0.0982  0.6567  0.1250
19712SOL    HW171195   9.023   7.535   2.511 -0.3387  2.1937 -0.5402
19712SOL    HW271196   9.083   7.620   2.637 -0.5781  1.9669 -0.2724
19713SOL     OW71197   4.852   2.457   3.082 -0.3303 -0.0403  0.4036
19713SOL    HW171198   4.931   2.412   3.040  0.3133 -0.0477  1.5919
19713SOL    HW271199   4.773   2.450   3.021 -0.0955 -2.2760  0.3099
19714SOL     OW71200   8.594   4.520   1.922 -0.8093 -0.2455  0.0449
19714SOL    HW171201   8.679   4.539   1.971 -0.8940 -1.0139  0.5012
19714SOL    HW271202   8.548   4.606   1.900 -0.2679  0.1451  0.4273
19715SOL     OW71203   8.122   4.145   2.464  0.2115  0.3097 -0.1934
19715SOL    HW171204   8.133   4.049   2.436 -0.4307 -0.3374  1.7020
19715SOL    HW271205   8.209   4.179   2.500  0.3716  0.3816 -0.6350
19716SOL     OW71206   7.713   2.150   5.954  0.2677 -0.5089  0.4892
19716SOL    HW171207   7.770   2.205   6.015  0.5366  0.3487 -0.5171
19716SOL    HW271208   7.665   2.210   5.890 -0.3142 -1.3696  0.1080
19717SOL     OW71209   9.509   2.049   5.454 -0.3395  0.4049 -0.1452
19717SOL    HW171210   9.456   1.970   5.482  0.1850  0.8396  2.1816
19717SOL    HW271211   9.448   2.126   5.436 -0.6456  0.2578  0.2738
19718SOL     OW71212   3.035   2.802   8.187  0.1930  0.3968  0.0066
19718SOL    HW171213   2.990   2.814   8.099 -0.1497  0.6640  0.2133
19718SOL    HW271214   3.046   2.704   8.206 -1.2771  0.3033  0.4340
19719SOL     OW71215   3.035   9.408   4.293 -0.2363 -0.5518 -0.1322
19719SOL    HW171216   3.054   9.469   4.216 -1.3605 -0.4951 -0.3745
19719SOL    HW271217   3.105   9.421   4.364  0.6954 -0.4776 -1.0580
19720SOL     OW71218   4.404   1.955   1.484 -0.1313  0.0050  0.5448
19720SOL    HW171219   4.384   1.923   1.391 -1.1204  2.4406 -0.1426
19720SOL    HW271220   4.318   1.960   1.536 -0.0850  1.8992  0.4752
19721SOL     OW71221   0.212   5.723   5.016  0.4770 -0.3465 -0.2779
19721SOL    HW171222   0.225   5.626   5.037 -0.7663  0.1853  3.3876
19721SOL    HW271223   0.122   5.737   4.974  0.6970 -0.7711 -0.8973
19722SOL     OW71224   5.759   5.152   9.777 -0.0192 -0.0156 -0.5402
19722SOL    HW171225   5.745   5.251   9.780  2.1308  0.2561  1.7272
19722SOL    HW271226   5.819   5.130   9.700  1.4599  0.7256  0.3862
19723SOL     OW71227   6.012   5.136   9.265 -0.5281  0.5471 -0.2713
19723SOL    HW171228   5.955   5.158   9.186  0.0780  1.4581 -0.4656
19723SOL    HW271229   6.074   5.062   9.241 -1.6453 -0.4704 -0.0490
19724SOL     OW71230   9.109   2.250   4.491  0.3161  0.1444  0.1601
19724SOL    HW171231   9.158   2.163   4.482  0.7202  0.4361 -0.5590
19724SOL    HW271232   9.078   2.261   4.585  2.1263  0.1967  0.7816
19725SOL     OW71233   8.433   1.815   5.137  0.3241 -0.3367 -0.1250
19725SOL    HW171234   8.396   1.832   5.229  0.0082 -1.0031 -0.1281
19725SOL    HW271235   8.473   1.724   5.134  0.6101 -0.1984 -0.5685
19726SOL     OW71236   9.433   5.735   3.194 -0.0989  0.2089  0.2664
19726SOL    HW171237   9.440   5.672   3.116  2.2181  0.4554  0.2488
19726SOL    HW271238   9.390   5.688   3.271 -2.2185 -0.1092 -1.0555
19727SOL     OW71239   3.849   1.096   1.546  0.1305 -0.4144  0.0755
19727SOL    HW171240   3.774   1.030   1.549 -0.4741  0.2948  1.1365
19727SOL    HW271241   3.847   1.144   1.458 -0.9717 -0.0646  0.2796
19728SOL     OW71242   1.383   6.705   4.204 -0.0657  0.2279  0.2325
19728SOL    HW171243   1.458   6.752   4.251 -0.1881 -0.6555  1.3342
19728SOL    HW271244   1.303   6.702   4.265 -0.5316 -0.1039 -0.3931
19729SOL     OW71245   9.068   3.691   5.106 -0.1876  0.3662  0.2880
19729SOL    HW171246   9.120   3.616   5.146  0.2467 -0.2089 -1.3501
19729SOL    HW271247   9.004   3.656   5.039 -0.9670  1.3278  0.5160
19730SOL     OW71248   8.495   3.379   0.160 -0.4579  0.1050 -0.1545
19730SOL    HW171249   8.539   3.448   0.103  0.9058 -0.3786  0.2923
19730SOL    HW271250   8.506   3.404   0.256  0.7104 -1.0941  0.0469
19731SOL     OW71251   8.083   9.010   0.599 -0.0683 -0.5447 -0.1782
19731SOL    HW171252   8.167   9.047   0.639 -0.6969  1.5789 -0.7405
19731SOL    HW271253   8.012   9.006   0.669  0.0573 -0.8707 -0.0689
19732SOL     OW71254   0.865   2.083   4.255  0.4405  0.0851  0.5932
19732SOL    HW171255   0.821   2.171   4.275  1.1896  0.4390  0.7007
19732SOL    HW271256   0.858   2.023   4.334  0.9952  0.4925  0.9537
19733SOL     OW71257   9.032   1.227   9.994 -0.1168 -0.7470 -0.0327
19733SOL    HW171258   9.120   1.180   9.997 -1.2813 -3.1372 -1.0161
19733SOL    HW271259   9.037   1.303   9.930  1.1235 -1.1313 -0.4089
19734SOL     OW71260   9.417   2.121   8.768 -0.1429  0.2307  0.1026
19734SOL    HW171261   9.340   2.172   8.729  1.3241  2.1396 -0.3695
19734SOL    HW271262   9.501   2.172   8.754  0.9625 -0.8748  2.4016
19735SOL     OW71263   2.211   6.844   0.162  0.0268 -0.1626  0.1419
19735SOL    HW171264   2.234   6.888   0.249  0.9845  0.9404 -0.6508
19735SOL    HW271265   2.238   6.748   0.166  2.0468  0.3813  0.3302
19736SOL     OW71266   1.581   7.928   8.074 -0.1980  0.0422 -0.3296
19736SOL    HW171267   1.644   7.901   8.147 -1.0379 -0.7998  0.0816
19736SOL    HW271268   1.633   7.973   8.001  0.9587 -1.0901 -0.2268
19737SOL     OW71269   3.382   7.254   4.365  0.3094  0.6606  0.4394
19737SOL    HW171270   3.289   7.238   4.400  0.0530  1.0737 -0.0486
19737SOL    HW271271   3.441   7.283   4.440  0.3946 -0.9631  1.0318
19738SOL     OW71272   2.030   1.109   8.740 -0.2451 -0.3207  0.0691
19738SOL    HW171273   1.964   1.124   8.667 -0.9118 -0.0276  0.7187
19738SOL    HW271274   2.123   1.120   8.705 -0.5848  0.7027 -0.5296
19739SOL     OW71275   1.570   4.849   2.990  0.5284 -0.1643 -0.0887
19739SOL    HW171276   1.553   4.867   3.087  1.6246 -0.8481  0.2318
19739SOL    HW271277   1.549   4.754   2.970  2.2946 -0.5723 -0.0629
19740SOL     OW71278   7.988   9.375   9.747  0.1435 -0.6631 -0.4500
19740SOL    HW171279   8.056   9.423   9.801 -1.2950  1.0200 -0.0933
19740SOL    HW271280   7.916   9.439   9.719 -1.2238 -2.3604 -0.9203
19741SOL     OW71281   6.744   0.482   7.973  0.1684 -0.2959  0.4805
19741SOL    HW171282   6.824   0.541   7.966 -1.8056  2.7912  2.7111
19741SOL    HW271283   6.688   0.493   7.891  0.8684 -0.6846 -0.0519
19742SOL     OW71284   4.804   2.107   0.655 -0.0661 -0.2242 -0.4493
19742SOL    HW171285   4.888   2.052   0.655  0.4927  0.6209  0.0418
19742SOL    HW271286   4.734   2.060   0.710 -0.2540 -1.4218 -1.6913
19743SOL     OW71287   8.084   3.104   6.260 -0.3116 -0.6007  0.5565
19743SOL    HW171288   8.173   3.104   6.305 -0.2129 -1.0093  0.3619
19743SOL    HW271289   8.067   3.015   6.218 -1.0070 -0.6772  0.9805
19744SOL     OW71290   5.256   8.651   3.758  0.3189 -0.2502  0.0895
19744SOL    HW171291   5.242   8.682   3.664 -1.6684 -1.1869  0.0537
19744SOL    HW271292   5.194   8.701   3.819  0.5491 -0.7073  0.6996
19745SOL     OW71293   7.136   9.219   3.845  0.0326 -0.0938 -0.1886
19745SOL    HW171294   7.067   9.271   3.795 -1.9316 -0.8375  1.6509
19745SOL    HW271295   7.210   9.280   3.875 -1.4544  1.3691  0.6036
19746SOL     OW71296   6.172   2.298   9.240 -0.2081 -0.0435  0.1318
19746SOL    HW171297   6.107   2.261   9.306 -0.8240 -0.7124 -0.8261
19746SOL    HW271298   6.263   2.299   9.279 -0.5244 -0.7137  0.8800
19747SOL     OW71299   6.342   1.135   3.480 -0.0074 -0.1627 -0.3360
19747SOL    HW171300   6.412   1.137   3.409  1.0672 -0.6062  0.6912
19747SOL    HW271301   6.271   1.070   3.455 -0.2839  0.6225 -1.6069
19748SOL     OW71302   3.969   4.988   6.533  0.4185  0.0193  0.3291
19748SOL    HW171303   3.887   4.974   6.477  0.1433 -0.4973  0.8475
19748SOL    HW271304   3.947   5.052   6.607  0.4807 -0.1255  0.4725
19749SOL     OW71305   2.519   0.404   5.374  0.2532  0.1379  0.0641
19749SOL    HW171306   2.463   0.452   5.442 -0.7887  0.7869 -1.2303
19749SOL    HW271307   2.462   0.341   5.322  1.5711 -2.3592  1.5676
19750SOL     OW71308   8.698   8.320   8.391  0.0981 -0.3295  0.5201
19750SOL    HW171309   8.681   8.398   8.450 -3.2491  0.1824 -1.0217
19750SOL    HW271310   8.618   8.260   8.390 -0.0673 -0.2271 -3.5290
19751SOL     OW71311   7.843   9.168   3.369 -0.2531  0.2208  0.0888
19751SOL    HW171312   7.792   9.221   3.301 -1.2873  0.8422  1.3315
19751SOL    HW271313   7.901   9.229   3.422  1.4472 -0.4239 -1.0088
19752SOL     OW71314   9.007   2.573   8.368  0.0996 -0.6632  0.0451
19752SOL    HW171315   8.972   2.648   8.424 -2.1566 -0.1546 -1.9639
19752SOL    HW271316   9.097   2.598   8.331  0.0813  0.3896  0.6990
19753SOL     OW71317   1.568   5.158   5.774 -0.4927  0.0276 -0.1944
19753SOL    HW171318   1.514   5.203   5.703 -0.5740 -0.8374 -0.6938
19753SOL    HW271319   1.514   5.082   5.813 -0.0903 -0.0899  0.1286
19754SOL     OW71320   0.483   5.742   4.930 -0.2694  0.6350 -0.5478
19754SOL    HW171321   0.484   5.812   4.858 -0.5667 -1.0562 -2.2566
19754SOL    HW271322   0.392   5.738   4.971 -0.3617  1.0075 -0.7127
19755SOL     OW71323   2.722   6.193   7.688  0.0681 -0.2815 -0.2018
19755SOL    HW171324   2.690   6.205   7.594  0.7919  0.4043 -0.3642
19755SOL    HW271325   2.812   6.235   7.698  0.7119 -1.7668  0.3745
19756SOL     OW71326   2.173   8.392   3.977  0.0527  0.4063  0.5317
19756SOL    HW171327   2.265   8.404   4.015  0.1797 -1.0928  0.7171
19756SOL    HW271328   2.136   8.481   3.951  1.7327  0.9887  0.0622
19757SOL     OW71329   3.606   2.565   5.456 -0.7133  0.1065  0.0229
19757SOL    HW171330   3.633   2.649   5.407 -0.6260  0.2690  0.3509
19757SOL    HW271331   3.687   2.519   5.491 -0.9229  1.2155  2.0252
19758SOL     OW71332   8.689   4.415   9.006 -0.0489 -0.2885 -0.0843
19758SOL    HW171333   8.641   4.328   9.020 -0.5370 -0.0287 -0.1306
19758SOL    HW271334   8.731   4.417   8.916 -1.5974  0.2568 -0.8108
19759SOL     OW71335   2.410   9.781   7.110  0.6774  0.1666  0.5048
19759SOL    HW171336   2.503   9.806   7.084  1.0155 -0.5556  1.0158
19759SOL    HW271337   2.348   9.855   7.084  1.5383  1.1258  1.1010
19760SOL     OW71338   8.838   9.499   0.796 -0.0337  0.1132 -0.1288
19760SOL    HW171339   8.880   9.412   0.820  0.3043  0.5854  1.0084
19760SOL    HW271340   8.892   9.574   0.834 -0.8217  0.7936 -0.3206
19761SOL     OW71341   1.915   9.518   1.825 -0.2290  0.1577 -0.1934
19761SOL    HW171342   1.895   9.533   1.922 -1.7628 -0.3096 -0.4232
19761SOL    HW271343   1.879   9.428   1.798 -0.7234  0.7259 -1.4412
19762SOL     OW71344   4.214   5.789   2.918  0.3731 -0.1598  0.0081
19762SOL    HW171345   4.309   5.766   2.936  1.0750  1.2473 -1.7128
19762SOL    HW271346   4.204   5.888   2.910 -1.1823 -0.3058 -0.1245
19763SOL     OW71347   6.798   1.044   4.441 -0.1028 -0.3922  0.5486
19763SOL    HW171348   6.861   0.969   4.425  0.5941  0.5969 -1.4524
19763SOL    HW271349   6.812   1.080   4.533  4.2063  1.6012 -0.7961
19764SOL     OW71350   2.548   1.573   7.602  0.3998  0.0935 -0.4186
19764SOL    HW171351   2.548   1.644   7.672 -1.9092  0.0202 -0.2985
19764SOL    HW271352   2.635   1.575   7.552  1.2150  1.5495  1.0239
19765SOL     OW71353   0.764   4.952   4.219 -0.4086  0.3083 -0.4279
19765SOL    HW171354   0.684   4.999   4.183  0.0406  0.8915 -0.6655
19765SOL    HW271355   0.843   5.013   4.217  0.2134 -0.5035 -0.8726
19766SOL     OW71356   0.992   5.348   0.675 -0.2474 -0.3396  0.0226
19766SOL    HW171357   1.044   5.345   0.760 -0.8459  1.6644  0.4957
19766SOL    HW271358   0.902   5.389   0.692 -0.5707 -0.3773 -1.4775
19767SOL     OW71359   9.937   5.097   7.627  0.2949  0.2620  0.7567
19767SOL    HW171360   9.909   5.113   7.722 -0.4948 -3.0263  1.1497
19767SOL    HW271361   9.862   5.055   7.577  1.2328  0.5449 -0.9208
19768SOL     OW71362   8.331   8.873   3.955  0.3611  0.1300  0.1788
19768SOL    HW171363   8.421   8.830   3.958 -0.4570 -1.5935  0.7507
19768SOL    HW271364   8.303   8.885   3.859  1.4995  1.3465 -0.0090
19769SOL     OW71365   7.103   3.199   4.296 -0.3185 -0.1424 -0.4006
19769SOL    HW171366   7.141   3.291   4.284  1.0167 -0.6158  0.0478
19769SOL    HW271367   7.159   3.133   4.244 -1.0717 -0.7413 -0.4585
19770SOL     OW71368   6.755   2.540   1.002 -0.5602 -0.0072 -0.1567
19770SOL    HW171369   6.795   2.545   1.093 -1.1042  0.1298  0.0777
19770SOL    HW271370   6.695   2.460   0.996  0.6898 -0.9011 -0.8868
19771SOL     OW71371   7.368   6.517   1.069 -1.3411 -0.4806 -0.5871
19771SOL    HW171372   7.440   6.587   1.073 -1.4181 -0.3820 -0.9481
19771SOL    HW271373   7.349   6.495   0.974 -0.8429 -1.4878 -0.4612
19772SOL     OW71374   5.016   9.339   9.596 -0.2086  0.8802  0.4009
19772SOL    HW171375   5.095   9.349   9.656  1.7257 -2.0513 -1.5486
19772SOL    HW271376   4.934   9.325   9.652  0.9040  2.1021  2.4051
19773SOL     OW71377   0.980   5.991   1.519  0.0871  0.0695 -0.6260
19773SOL    HW171378   0.969   6.054   1.596 -0.0279 -0.5428 -0.1416
19773SOL    HW271379   0.958   6.039   1.434 -0.4331  0.5576 -0.2199
19774SOL     OW71380   7.595   3.905   4.650  0.1381  0.3436 -0.2343
19774SOL    HW171381   7.520   3.969   4.637 -0.7481 -0.3515  1.2939
19774SOL    HW271382   7.576   3.820   4.602  0.0576  0.2598 -0.0562
19775SOL     OW71383   0.873   2.639   5.684  0.8868  0.5460  0.1542
19775SOL    HW171384   0.963   2.618   5.645  0.9581  1.0246  0.0682
19775SOL    HW271385   0.850   2.734   5.666  0.0971  0.2647 -0.3625
19776SOL     OW71386   7.948   4.866   1.888 -0.1329  0.5051 -0.6772
19776SOL    HW171387   7.956   4.936   1.818  0.8551  0.8262 -0.2478
19776SOL    HW271388   7.851   4.843   1.902 -0.3877  1.0665 -1.5088
19777SOL     OW71389   4.295   5.383   9.270 -0.5355 -0.0111 -0.0685
19777SOL    HW171390   4.251   5.473   9.280 -0.9780 -0.0573 -1.5114
19777SOL    HW271391   4.241   5.326   9.208  1.6016 -0.0256 -1.9698
19778SOL     OW71392   9.849   0.908   3.936 -0.3358  0.0812 -1.0880
19778SOL    HW171393   9.846   0.808   3.939 -1.4212  0.1276 -0.2695
19778SOL    HW271394   9.847   0.938   3.840  0.9131 -0.6922 -1.3633
19779SOL     OW71395   0.178   3.570   0.187 -0.1224 -0.1695  0.1058
19779SOL    HW171396   0.275   3.579   0.209 -0.4868  0.7003  1.4070
19779SOL    HW271397   0.141   3.489   0.233  0.0850 -0.7637 -0.7634
19780SOL     OW71398   0.933   2.413   4.088  0.0414 -0.2037 -0.4530
19780SOL    HW171399   0.882   2.385   4.169  2.4316 -1.6727  0.6224
19780SOL    HW271400   0.887   2.380   4.006 -1.0612 -0.9319  0.4371
19781SOL     OW71401   9.602   7.417   2.650  0.2745  0.1497  0.0300
19781SOL    HW171402   9.598   7.322   2.618  1.9615  0.4632 -1.1872
19781SOL    HW271403   9.696   7.438   2.679 -0.5039  0.8939  2.0814
19782SOL     OW71404   0.903   8.445   6.024 -0.3453  0.1091 -0.2105
19782SOL    HW171405   0.878   8.489   6.110  0.3255 -0.1681  0.1265
19782SOL    HW271406   0.904   8.346   6.036  0.1891  0.0906 -0.4211
19783SOL     OW71407   7.933   7.897   2.269 -0.1840 -0.4604  0.4993
19783SOL    HW171408   7.836   7.903   2.249  0.1836 -0.5900 -1.3928
19783SOL    HW271409   7.946   7.863   2.362 -1.9298 -2.4873  0.0348
19784SOL     OW71410   7.540   4.973   3.413 -0.0836 -0.0930 -0.1493
19784SOL    HW171411   7.489   5.010   3.336 -1.0654 -0.0980  0.4900
19784SOL    HW271412   7.553   4.875   3.401  0.6996  0.0794 -0.8177
19785SOL     OW71413   5.768   3.455   1.253  0.6906 -0.4965 -0.6602
19785SOL    HW171414   5.687   3.404   1.221  0.0992 -0.7548  1.1507
19785SOL    HW271415   5.800   3.516   1.181 -1.6046  0.1843 -1.1482
19786SOL     OW71416   0.977   9.829   8.095  0.6613  0.2858 -0.2975
19786SOL    HW171417   0.979   9.900   8.024  1.2390  0.2403 -0.3272
19786SOL    HW271418   1.015   9.744   8.059  0.0445 -0.0214 -0.2368
19787SOL     OW71419   4.430   4.743   3.548 -0.3714  0.0179 -0.0970
19787SOL    HW171420   4.504   4.777   3.605  0.8344 -1.6954 -0.5728
19787SOL    HW271421   4.413   4.647   3.570  1.0016 -1.0873 -3.3838
19788SOL     OW71422   4.271   7.202   2.111 -0.0663 -0.2347  0.4949
19788SOL    HW171423   4.191   7.211   2.052  0.4582 -1.5684 -0.4464
19788SOL    HW271424   4.293   7.291   2.151 -0.4036  0.7151 -1.3629
19789SOL     OW71425   2.058   9.453   4.012  0.3096  0.4162  0.1662
19789SOL    HW171426   1.958   9.459   4.020  0.4072  1.5692  0.7537
19789SOL    HW271427   2.084   9.459   3.916 -0.1560  1.0163  0.0681
19790SOL     OW71428   2.839   6.099   3.503  0.0055  0.3907  0.3002
19790SOL    HW171429   2.822   6.003   3.486 -0.0384 -0.1358  3.0124
19790SOL    HW271430   2.938   6.117   3.502  0.0209  0.2746 -0.0430
19791SOL     OW71431   7.036   0.675   8.273 -0.2840 -0.8876  0.1117
19791SOL    HW171432   6.989   0.587   8.263  0.0877 -0.7888 -3.2835
19791SOL    HW271433   6.994   0.742   8.211  1.1862  0.5664  0.6403
19792SOL     OW71434   2.834   8.988   6.695  0.0302  0.5382 -0.4057
19792SOL    HW171435   2.885   8.902   6.695  0.6261  0.8847  0.6102
19792SOL    HW271436   2.748   8.975   6.646 -0.1123 -0.7794  0.1707
19793SOL     OW71437   9.769   7.854   1.932 -0.0941  0.3510  0.3611
19793SOL    HW171438   9.849   7.885   1.880 -0.7435  0.8700 -0.3377
19793SOL    HW271439   9.721   7.784   1.880 -1.6784  2.0479 -0.4879
19794SOL     OW71440   1.591   8.846   7.463  0.0188 -0.2119  0.9734
19794SOL    HW171441   1.560   8.937   7.433 -1.1734 -0.9241 -0.0163
19794SOL    HW271442   1.676   8.855   7.515 -1.4151  1.7391  3.0994
19795SOL     OW71443   3.083   6.441   9.684  0.3219  0.0839 -0.4840
19795SOL    HW171444   3.011   6.509   9.679  0.0182 -0.1618  0.4779
19795SOL    HW271445   3.172   6.486   9.691 -0.0261  0.4072  2.3127
19796SOL     OW71446   1.199   6.611   6.210  0.0078  0.0043  0.3336
19796SOL    HW171447   1.233   6.642   6.299 -1.4310  0.3864  0.7624
19796SOL    HW271448   1.181   6.512   6.214  3.8504 -0.8188 -0.7996
19797SOL     OW71449   0.349   4.534   0.925 -0.1324 -0.6043  0.0711
19797SOL    HW171450   0.443   4.564   0.939  0.1462 -0.0567 -2.6740
19797SOL    HW271451   0.337   4.442   0.963  1.1425 -0.2004  1.5134
19798SOL     OW71452   3.058   3.613   2.224  0.5583 -0.0213 -0.2908
19798SOL    HW171453   3.148   3.574   2.206  0.8071  0.3227  0.1843
19798SOL    HW271454   2.996   3.589   2.151  0.6259 -1.5695  0.1581
19799SOL     OW71455   8.363   7.096   3.417 -0.6920  0.0065 -0.6307
19799SOL    HW171456   8.366   7.170   3.349  0.0728  0.8944  0.3664
19799SOL    HW271457   8.455   7.075   3.448 -1.1992  1.2041  1.8325
19800SOL     OW71458   1.469   7.873   2.770 -0.3336 -0.6682  1.0808
19800SOL    HW171459   1.497   7.840   2.860  1.0282 -2.8334 -0.0864
19800SOL    HW271460   1.545   7.864   2.706 -1.0585  1.5044 -0.1534
19801SOL     OW71461   8.966   4.796   1.527 -0.0264  0.2745  0.5990
19801SOL    HW171462   8.977   4.884   1.482 -0.5064  0.7370  1.3726
19801SOL    HW271463   8.996   4.723   1.466 -2.7946  0.6877 -1.3303
19802SOL     OW71464   0.414   0.723   8.120  0.2333 -0.0273 -0.3429
19802SOL    HW171465   0.363   0.648   8.162 -0.1043  0.8517  0.8494
19802SOL    HW271466   0.478   0.687   8.052  0.1164 -1.3863  0.2634
19803SOL     OW71467   6.804   5.671   0.221  0.4335  0.2136 -0.9645
19803SOL    HW171468   6.890   5.624   0.239  0.0303 -0.1783  0.0029
19803SOL    HW271469   6.734   5.605   0.192 -0.4098  0.0154  1.3717
19804SOL     OW71470   1.773   3.065   5.397  0.4099  0.6152 -0.4631
19804SOL    HW171471   1.707   3.007   5.444 -0.8594  1.2886 -1.3908
19804SOL    HW271472   1.865   3.045   5.431 -0.2290 -0.5405  0.6233
19805SOL     OW71473   8.868   2.338   4.171 -0.3978  0.5372 -0.1754
19805SOL    HW171474   8.931   2.272   4.214 -0.7156  0.8703  0.8233
19805SOL    HW271475   8.788   2.349   4.229 -1.4345  0.0511 -1.4864
19806SOL     OW71476   2.144   3.188   0.969 -0.0550 -0.2191  0.3773
19806SOL    HW171477   2.215   3.137   1.019 -0.8942 -0.4296  1.3783
19806SOL    HW271478   2.058   3.182   1.019 -0.5829  0.7400 -0.4054
19807SOL     OW71479   6.704   7.989   5.618  0.1647  0.3068  0.1372
19807SOL    HW171480   6.666   8.060   5.677 -1.4953  0.2285 -0.8058
19807SOL    HW271481   6.785   8.024   5.570 -0.0023  1.1983  0.5119
19808SOL     OW71482   9.351   7.032   3.286 -0.0410  0.0372  0.1153
19808SOL    HW171483   9.256   7.054   3.307  0.4154  0.9051  1.3817
19808SOL    HW271484   9.376   6.945   3.331 -0.6991 -1.0594 -1.5947
19809SOL     OW71485   0.418   0.313   5.559  0.3752  0.5036 -0.9746
19809SOL    HW171486   0.424   0.376   5.636  1.0891  0.0798 -0.6773
19809SOL    HW271487   0.461   0.353   5.478  0.8475  0.3913 -0.7795
19810SOL     OW71488   9.060   6.484   8.200  0.0536  0.1797 -0.0350
19810SOL    HW171489   8.994   6.462   8.128 -0.6882 -0.0573  0.7198
19810SOL    HW271490   9.080   6.582   8.198  1.0545 -0.0356 -1.4285
19811SOL     OW71491   5.507   0.494   3.026  0.3792 -0.1196  0.2411
19811SOL    HW171492   5.525   0.586   3.060 -1.2714  0.4880 -0.5091
19811SOL    HW271493   5.462   0.440   3.097 -1.0598  0.4761 -0.2008
19812SOL     OW71494   6.617   4.339   9.444 -0.4459 -0.0541 -0.5725
19812SOL    HW171495   6.699   4.352   9.500 -1.4264 -0.9037  1.0930
19812SOL    HW271496   6.543   4.395   9.480 -1.6395 -2.0681  0.1776
19813SOL     OW71497   6.782   3.368   3.223 -0.6266  0.0858 -0.5249
19813SOL    HW171498   6.819   3.387   3.132  0.0600 -1.4381 -0.5708
19813SOL    HW271499   6.856   3.342   3.285 -1.4354 -1.6879 -0.2777
19814SOL     OW71500   8.216   1.165   7.983 -0.2292 -0.0501  0.5055
19814SOL    HW171501   8.152   1.163   7.906  0.8100  0.8574 -0.4000
19814SOL    HW271502   8.166   1.178   8.068 -1.0164  3.8869 -0.4899
19815SOL     OW71503   8.513   7.196   2.783 -0.1498  0.4408 -0.2641
19815SOL    HW171504   8.481   7.217   2.875  0.6788 -1.0466  0.3822
19815SOL    HW271505   8.503   7.277   2.725 -0.1328  1.5685  1.2728
19816SOL     OW71506   6.633   8.561   3.696 -0.1191  0.3919  0.5604
19816SOL    HW171507   6.618   8.476   3.645  0.5731 -0.4769  1.7780
19816SOL    HW271508   6.545   8.593   3.731 -0.7279  1.4314 -1.8021
19817SOL     OW71509   0.685   1.040   3.871 -0.3516  0.3955  0.1921
19817SOL    HW171510   0.605   1.095   3.851 -0.3550  0.1313 -0.5402
19817SOL    HW271511   0.711   0.987   3.789 -0.4562 -0.8174  0.9385
19818SOL     OW71512   2.651   1.950   3.547 -0.0147 -0.0038 -0.2212
19818SOL    HW171513   2.715   2.025   3.564 -0.4143  0.6099 -1.3787
19818SOL    HW271514   2.698   1.878   3.497 -0.4151  0.7802 -1.7541
19819SOL     OW71515   7.018   0.889   5.053  0.3255  0.5055 -0.4594
19819SOL    HW171516   7.110   0.900   5.017  0.1868 -0.5940 -1.1577
19819SOL    HW271517   7.003   0.794   5.081 -1.0950  0.3314 -1.7569
19820SOL     OW71518   6.488   5.583   8.864 -0.2933  0.2303 -0.8870
19820SOL    HW171519   6.527   5.512   8.806  0.9532 -0.0726  0.2933
19820SOL    HW271520   6.549   5.600   8.941 -1.1467  1.7620 -0.5296
19821SOL     OW71521   9.743   5.119   0.125 -0.3232 -0.3491  0.8333
19821SOL    HW171522   9.833   5.160   0.110 -0.2284 -0.1715  1.8317
19821SOL    HW271523   9.740   5.078   0.216 -1.2568 -0.3416  0.8114
19822SOL     OW71524   2.216   2.625   0.206  0.1994  0.3510 -0.5624
19822SOL    HW171525   2.222   2.540   0.257 -0.0065  0.2570 -0.6916
19822SOL    HW271526   2.258   2.613   0.115  0.0817  0.3581 -0.6179
19823SOL     OW71527   8.373   6.509   9.458 -0.2762 -0.2322  0.1483
19823SOL    HW171528   8.469   6.518   9.431 -0.4770 -0.0685 -0.5220
19823SOL    HW271529   8.318   6.573   9.406 -0.7040 -0.0558  0.8113
19824SOL     OW71530   6.184   5.380   1.112 -0.0090  0.2345  0.1710
19824SOL    HW171531   6.243   5.408   1.037 -0.5695 -1.0646 -0.7646
19824SOL    HW271532   6.238   5.372   1.196  0.9015  0.2204 -0.4204
19825SOL     OW71533   6.951   3.399   8.231  0.4020  0.4658  0.7506
19825SOL    HW171534   6.995   3.364   8.314  2.5089  1.0968 -0.0855
19825SOL    HW271535   6.905   3.323   8.184 -0.2414 -0.0223  2.1251
19826SOL     OW71536   3.821   6.930   1.401  0.0817 -0.1263 -0.7153
19826SOL    HW171537   3.741   6.990   1.390  1.3001  1.6567 -0.0608
19826SOL    HW271538   3.830   6.904   1.497 -0.7208 -1.7839 -1.0727
19827SOL     OW71539   3.983   3.132   0.676  0.1566 -0.3680 -0.2038
19827SOL    HW171540   4.022   3.102   0.763 -0.1288  1.6104  0.6367
19827SOL    HW271541   3.899   3.082   0.658 -0.3270 -0.0764  1.1843
19828SOL     OW71542   9.033   0.774   5.656 -0.1437 -0.3550 -0.1512
19828SOL    HW171543   9.103   0.749   5.724  0.1540  0.2857 -0.2132
19828SOL    HW271544   9.004   0.693   5.607  0.0528 -0.7385  0.3615
19829SOL     OW71545   4.275   9.500   0.400  0.4905  0.1965 -0.0304
19829SOL    HW171546   4.256   9.453   0.314  2.0300 -0.1676 -0.1781
19829SOL    HW271547   4.237   9.593   0.396 -0.9724 -0.4089 -0.4228
19830SOL     OW71548   0.839   5.276   3.663 -0.4805  0.1711 -0.4433
19830SOL    HW171549   0.865   5.371   3.677  1.2955 -0.1563 -1.4070
19830SOL    HW271550   0.740   5.267   3.669 -0.5432  1.8074  1.2326
19831SOL     OW71551   3.012   7.380   3.575 -0.3592 -0.2400 -0.5013
19831SOL    HW171552   3.039   7.294   3.534  0.0585 -0.2227 -0.2597
19831SOL    HW271553   3.000   7.368   3.674 -1.0885 -0.2154 -0.5822
19832SOL     OW71554   3.711   6.992   8.035  0.1906  0.2961 -0.2206
19832SOL    HW171555   3.662   7.024   7.954  1.8603 -0.9323 -1.7833
19832SOL    HW271556   3.653   6.930   8.088 -0.6561  0.5134 -0.9001
19833SOL     OW71557   8.251   4.206   2.806 -0.4300 -0.0957  0.3392
19833SOL    HW171558   8.326   4.264   2.772  0.5414 -1.6575 -0.2488
19833SOL    HW271559   8.185   4.262   2.854  0.5603  1.4915 -0.1078
19834SOL     OW71560   4.208   0.451   4.291  0.2938  0.1964  0.1105
19834SOL    HW171561   4.248   0.452   4.383  1.4804  0.4441 -0.3921
19834SOL    HW271562   4.257   0.384   4.235 -1.0200 -0.6066 -0.0883
19835SOL     OW71563   2.012   3.146   0.659  0.0531 -0.4616 -0.7485
19835SOL    HW171564   2.061   3.152   0.746  0.6827  0.2561 -1.1561
19835SOL    HW271565   1.968   3.233   0.640 -1.3478 -1.0726 -0.4155
19836SOL     OW71566   2.674   4.491   6.098  0.1218 -0.2925  0.3358
19836SOL    HW171567   2.620   4.576   6.100  1.1967  0.4491 -1.3310
19836SOL    HW271568   2.615   4.416   6.069 -0.3298  0.2901 -0.2816
19837SOL     OW71569   2.743   7.653   3.721 -0.0364  0.0130  0.7300
19837SOL    HW171570   2.684   7.581   3.757  0.5214 -1.0248 -0.4066
19837SOL    HW271571   2.819   7.668   3.784 -0.3109 -0.1702  1.1112
19838SOL     OW71572   8.014   7.378   7.282  0.0525 -0.0964 -0.4739
19838SOL    HW171573   8.077   7.364   7.206 -0.3248  0.2677 -0.8598
19838SOL    HW271574   7.962   7.294   7.298  1.2189 -0.6680  0.3947
19839SOL     OW71575   7.671   5.813   4.304 -0.3957 -0.0658 -0.8304
19839SOL    HW171576   7.716   5.788   4.389 -1.3182  0.6624 -0.1190
19839SOL    HW271577   7.725   5.779   4.226  0.0020 -1.4859  0.0457
19840SOL     OW71578   6.367   0.997   2.493 -0.7738  0.5824  0.0574
19840SOL    HW171579   6.302   1.070   2.474 -0.2665  0.6585 -1.4097
19840SOL    HW271580   6.317   0.913   2.515 -1.3697  0.7764 -0.5308
19841SOL     OW71581   2.817   5.207   0.059  0.1611 -0.5211  0.5105
19841SOL    HW171582   2.883   5.270   0.017  1.0621  0.4009  3.2129
19841SOL    HW271583   2.853   5.114   0.056 -0.4564 -0.7211 -2.0477
19842SOL     OW71584   0.597   6.313   0.892 -0.0757 -0.3511 -0.1736
19842SOL    HW171585   0.505   6.287   0.862 -0.8660  2.1431 -0.0932
19842SOL    HW271586   0.596   6.331   0.990  0.0205  1.4483 -0.4790
19843SOL     OW71587   0.896   7.368   6.737  0.5110 -0.1235 -0.3113
19843SOL    HW171588   0.914   7.463   6.761  0.1128  0.4666 -2.2526
19843SOL    HW271589   0.954   7.340   6.661 -1.2869 -0.5677 -1.5626
19844SOL     OW71590   0.038   8.401   5.440 -0.1210  0.4344 -0.2314
19844SOL    HW171591  -0.058   8.406   5.469 -0.1815  1.1671 -0.5458
19844SOL    HW271592   0.051   8.323   5.380 -0.1317 -0.7297  1.2494
19845SOL     OW71593   8.178   8.646   4.088  0.3355  0.4324 -0.3836
19845SOL    HW171594   8.181   8.733   4.039  0.5053 -0.0766 -1.2791
19845SOL    HW271595   8.270   8.620   4.115  0.3359  0.2917 -0.5235
19846SOL     OW71596   7.626   4.117   7.338 -0.2232  0.2860  0.5399
19846SOL    HW171597   7.686   4.044   7.370 -1.2249 -0.5598  0.5266
19846SOL    HW271598   7.569   4.149   7.414  1.5575  2.4052  1.0152
19847SOL     OW71599   2.070   7.486   7.710  0.0024 -0.1225 -0.0158
19847SOL    HW171600   2.161   7.461   7.677 -0.5297  1.1603 -2.5572
19847SOL    HW271601   2.025   7.405   7.748  1.4943 -1.1592 -0.4313
19848SOL     OW71602   2.791   2.819   0.504 -0.0324  1.3434 -0.3614
19848SOL    HW171603   2.776   2.764   0.422 -0.3213  0.1378  0.4846
19848SOL    HW271604   2.708   2.872   0.524  0.2772  2.1766 -1.2278
19849SOL     OW71605   1.347   5.223   0.805  0.1856  0.0930  0.0966
19849SOL    HW171606   1.326   5.240   0.709  2.8233  0.4649 -0.4561
19849SOL    HW271607   1.302   5.139   0.835 -1.3012  0.4043 -1.2349
19850SOL     OW71608   1.820   7.969   9.179  0.4936 -0.4144 -0.3509
19850SOL    HW171609   1.821   7.980   9.079 -1.8462  1.1683 -0.2482
19850SOL    HW271610   1.761   7.893   9.203  1.9758 -1.5333 -0.2060
19851SOL     OW71611   1.554   5.098   6.808 -0.1132 -0.5355  0.0475
19851SOL    HW171612   1.516   5.027   6.748 -1.2776  0.4813 -0.4435
19851SOL    HW271613   1.653   5.097   6.802 -0.1277 -1.9819 -0.1219
19852SOL     OW71614   9.991   0.900   7.465 -0.2287 -0.2324 -0.2471
19852SOL    HW171615  10.078   0.923   7.507  0.4621 -0.6697 -1.4275
19852SOL    HW271616   9.947   0.983   7.430  1.1509 -0.3722 -2.3783
19853SOL     OW71617   4.552   2.044   6.210 -0.2138 -0.7443  0.6004
19853SOL    HW171618   4.506   2.122   6.253 -0.5511 -0.1273 -0.8558
19853SOL    HW271619   4.564   1.971   6.277  0.0528  0.5366  1.9680
19854SOL     OW71620   4.947   2.251   8.895 -0.6161  0.1538  0.1363
19854SOL    HW171621   4.943   2.295   8.984  1.5377  2.9188 -1.0642
19854SOL    HW271622   5.035   2.205   8.884 -0.3728  0.8591 -0.9908
19855SOL     OW71623   1.791   3.492   3.930  0.0699  0.3051 -0.0129
19855SOL    HW171624   1.752   3.564   3.872 -1.2319 -0.3448  0.0298
19855SOL    HW271625   1.749   3.404   3.907  1.5618 -0.4251  0.0254
19856SOL     OW71626   1.699   2.503   5.378  0.0795  0.2520 -0.1553
19856SOL    HW171627   1.659   2.560   5.450  0.3719  0.9307 -0.5185
19856SOL    HW271628   1.653   2.414   5.376 -1.7612  1.1820 -0.8973
19857SOL     OW71629   0.966   9.761   1.289  0.2367 -0.2815 -0.4305
19857SOL    HW171630   0.897   9.696   1.255  0.6900 -0.8263 -0.3279
19857SOL    HW271631   1.050   9.751   1.235  1.3903 -2.0322  1.5815
19858SOL     OW71632   0.664   8.262   7.650 -0.6840  0.7007  0.6548
19858SOL    HW171633   0.593   8.325   7.682 -0.0646  1.6220  0.2301
19858SOL    HW271634   0.622   8.193   7.590 -1.4420  0.4243  1.4955
19859SOL     OW71635   4.345   8.101   2.427 -0.2940  0.0356 -0.3642
19859SOL    HW171636   4.378   8.015   2.388 -0.0861  0.7946 -1.8747
19859SOL    HW271637   4.249   8.114   2.403 -0.3681  0.1576 -0.0063
19860SOL     OW71638   9.513   3.565   6.358 -0.0439  0.1103  0.5251
19860SOL    HW171639   9.468   3.635   6.303  0.2522 -0.0855  0.0315
19860SOL    HW271640   9.612   3.580   6.356 -0.1830  1.4688  2.8751
19861SOL     OW71641   1.019   2.733   4.361  0.1504  0.3610  0.1097
19861SOL    HW171642   1.034   2.671   4.284 -1.0233 -1.0967  1.0242
19861SOL    HW271643   1.087   2.806   4.359  0.9119 -0.3693 -1.5832
19862SOL     OW71644   8.806   4.828   9.047  0.3247 -0.4101  0.5566
19862SOL    HW171645   8.888   4.803   9.099  1.3105  0.0493 -0.7641
19862SOL    HW271646   8.758   4.902   9.094 -0.2763 -1.8095  2.2237
19863SOL     OW71647   3.793   6.072   3.329  0.0848  0.3850  0.5019
19863SOL    HW171648   3.794   5.973   3.343  0.8973  0.5950  2.0248
19863SOL    HW271649   3.709   6.110   3.368  1.3558  0.7004  3.0397
19864SOL     OW71650   5.876   7.703   8.052 -0.5463 -0.5219  0.1462
19864SOL    HW171651   5.895   7.639   8.127 -0.0638 -0.9078 -0.2979
19864SOL    HW271652   5.899   7.795   8.081  0.8902 -0.8345  0.0414
19865SOL     OW71653   5.304   4.544   8.753 -0.8163 -0.1788  0.1457
19865SOL    HW171654   5.278   4.640   8.745  2.4462  0.6878 -0.7733
19865SOL    HW271655   5.354   4.530   8.839 -0.8289 -0.9218  0.0355
19866SOL     OW71656   8.728   1.106   8.489 -0.2400 -0.0229  0.3079
19866SOL    HW171657   8.699   1.135   8.581 -0.9428 -0.2562  0.1607
19866SOL    HW271658   8.660   1.134   8.422 -1.0953 -2.2211  0.1938
19867SOL     OW71659   8.063   1.976   9.541  0.1407  0.2024 -0.0125
19867SOL    HW171660   8.009   1.944   9.619  0.2425  0.4692  0.1714
19867SOL    HW271661   8.003   2.001   9.466 -0.0156  0.9083  0.3450
19868SOL     OW71662   9.053   1.225   0.233 -0.0315 -0.0241 -0.0631
19868SOL    HW171663   9.066   1.232   0.134  0.8420 -0.1409  0.0383
19868SOL    HW271664   9.034   1.316   0.271 -0.1740  0.0485 -0.3081
19869SOL     OW71665   3.092   7.086   5.740  0.2396  0.5075 -0.0533
19869SOL    HW171666   3.054   6.994   5.740  0.6158  0.3542 -0.3385
19869SOL    HW271667   3.117   7.112   5.833 -1.4407  0.9661  0.2878
19870SOL     OW71668   3.917   8.752   0.163  0.3989  0.4689  0.4803
19870SOL    HW171669   3.838   8.691   0.150 -1.8105  3.6271 -1.8023
19870SOL    HW271670   3.999   8.708   0.128 -0.8058 -1.8948  0.5223
19871SOL     OW71671   0.230   7.761   2.912 -0.2293 -0.3164  0.3195
19871SOL    HW171672   0.318   7.743   2.957 -0.1040  0.8955  0.5596
19871SOL    HW271673   0.207   7.857   2.921 -0.6098 -0.2214 -1.4875
19872SOL     OW71674   1.282   5.515   1.642  0.0186  0.7950  0.1726
19872SOL    HW171675   1.227   5.448   1.592  1.1181  0.0795 -0.0807
19872SOL    HW271676   1.221   5.575   1.694 -0.9972 -0.0880  0.0191
19873SOL     OW71677   7.942   7.543   2.399  0.0912  0.3009 -0.2542
19873SOL    HW171678   7.974   7.468   2.457  1.3767 -0.1468 -1.5328
19873SOL    HW271679   7.865   7.588   2.444  0.2145 -0.8751  1.1904
19874SOL     OW71680   8.076   0.268   0.148  0.1266  0.2947  0.5149
19874SOL    HW171681   8.014   0.272   0.070  1.3022 -1.3774 -0.5356
19874SOL    HW271682   8.122   0.179   0.150  0.6025  0.5599  2.7350
19875SOL     OW71683   0.144   5.669   0.023 -0.0062 -0.0869  0.7768
19875SOL    HW171684   0.132   5.749  -0.036 -0.8176  0.4885  1.6981
19875SOL    HW271685   0.183   5.593  -0.030  2.3249  1.4128  0.2454
19876SOL     OW71686   4.600   5.484   2.833  0.2221  0.3375 -0.2162
19876SOL    HW171687   4.554   5.399   2.856 -1.0256  0.1945 -3.0475
19876SOL    HW271688   4.687   5.465   2.788  1.0384  0.6069  1.1944
19877SOL     OW71689   7.336   7.121   5.681 -0.6488 -0.4048 -0.0066
19877SOL    HW171690   7.242   7.133   5.649 -0.4787  2.0336  0.3078
19877SOL    HW271691   7.367   7.205   5.725  1.3856 -1.4868  0.6848
19878SOL     OW71692   3.362   1.285   5.331 -0.1831 -0.4782 -0.2857
19878SOL    HW171693   3.391   1.195   5.363 -0.2330  0.2853  1.9749
19878SOL    HW271694   3.433   1.352   5.351 -2.2990  0.9409  3.0084
19879SOL     OW71695   1.275   3.340   7.340 -0.4567 -0.2615  0.6282
19879SOL    HW171696   1.333   3.294   7.408 -1.8160 -1.5434  0.9441
19879SOL    HW271697   1.230   3.271   7.283  1.0679  0.8210 -1.9262
19880SOL     OW71698   9.132   5.949   2.366 -0.3566  0.4901  0.1938
19880SOL    HW171699   9.102   5.965   2.272 -1.7865 -0.1131  0.5433
19880SOL    HW271700   9.189   6.026   2.396  0.4063  0.5244 -1.2732
19881SOL     OW71701   9.574   1.773   3.786  0.2015  0.1946 -0.3067
19881SOL    HW171702   9.507   1.838   3.751 -0.8339 -1.2052 -0.9599
19881SOL    HW271703   9.538   1.729   3.868  1.0626  0.6994  0.3568
19882SOL     OW71704   7.574   1.130   0.605 -0.0731  0.3739  0.2181
19882SOL    HW171705   7.499   1.166   0.549  0.0337 -1.3036 -1.0419
19882SOL    HW271706   7.567   1.166   0.698 -2.3578  0.3526  0.0670
19883SOL     OW71707   1.531   7.997   7.775  0.4337  0.4142  0.6079
19883SOL    HW171708   1.483   8.078   7.807 -1.9153 -0.2325 -1.1424
19883SOL    HW271709   1.604   8.024   7.712 -0.5344  1.1470 -0.2026
19884SOL     OW71710   9.580   8.262   5.294 -0.5530  0.2016 -0.4613
19884SOL    HW171711   9.611   8.237   5.385 -0.1781  2.0814 -0.0565
19884SOL    HW271712   9.656   8.254   5.229 -0.2793  0.8229 -0.2245
19885SOL     OW71713   0.873   3.755   0.312  0.5137  0.0350  0.1339
19885SOL    HW171714   0.858   3.822   0.240  0.6465  0.0819  0.1499
19885SOL    HW271715   0.964   3.768   0.351  0.0736  0.6509  0.9771
19886SOL     OW71716   9.444   8.400   0.477  0.2221  0.1251  0.5612
19886SOL    HW171717   9.498   8.330   0.523 -1.3517 -1.0388  0.7198
19886SOL    HW271718   9.366   8.426   0.535 -1.3416 -0.7952 -1.0543
19887SOL     OW71719   2.096   9.595   1.063 -0.2795  0.0423 -0.1931
19887SOL    HW171720   2.167   9.657   1.029 -1.2323  0.3108 -1.7464
19887SOL    HW271721   2.061   9.540   0.987 -3.5106  1.7165  0.0082
19888SOL     OW71722   9.436   9.232   7.071 -0.0139 -0.0381 -0.2802
19888SOL    HW171723   9.457   9.135   7.084 -0.4367 -0.0564  0.3320
19888SOL    HW271724   9.415   9.273   7.160  1.6514  0.9835 -0.3428
19889SOL     OW71725   3.966   7.790   7.567 -0.2531  0.4426  0.0179
19889SOL    HW171726   3.916   7.720   7.618 -0.1412 -0.4595 -1.0890
19889SOL    HW271727   3.906   7.866   7.545 -0.4823  0.5096  0.8792
19890SOL     OW71728   6.357   3.927   0.773 -0.2430  0.6792 -0.0854
19890SOL    HW171729   6.447   3.884   0.776  0.1760  1.5771  0.7671
19890SOL    HW271730   6.351   3.986   0.692 -0.3378  0.0373 -0.5455
19891SOL     OW71731   3.844   0.610   0.350  0.2655 -0.1231  0.3407
19891SOL    HW171732   3.840   0.639   0.255  1.1013 -1.1624 -0.0171
19891SOL    HW271733   3.900   0.527   0.358  0.5944  0.2165  1.7922
19892SOL     OW71734   6.249   0.651   8.798  0.0823 -0.3216  0.2637
19892SOL    HW171735   6.290   0.690   8.880 -1.5795  1.9060  0.0708
19892SOL    HW271736   6.234   0.553   8.812 -0.1735  0.0307  2.6221
19893SOL     OW71737   8.316   8.643   0.931  0.6212 -0.2360 -0.0138
19893SOL    HW171738   8.247   8.705   0.971  0.6011 -0.3664  0.1520
19893SOL    HW271739   8.291   8.549   0.951  0.8872 -0.2817  0.1060
19894SOL     OW71740   4.133   4.865   0.568 -0.0744  0.1737  0.0664
19894SOL    HW171741   4.165   4.785   0.618 -2.1113  0.0098  1.1670
19894SOL    HW271742   4.170   4.864   0.476  1.5311 -0.9685  0.7066
19895SOL     OW71743   9.235   9.367   8.194 -0.4770 -0.2873  0.6178
19895SOL    HW171744   9.253   9.341   8.289 -1.3115  2.6577  1.6068
19895SOL    HW271745   9.321   9.397   8.152 -0.1248 -1.4988  0.4599
19896SOL     OW71746   0.797   3.593   0.051 -0.6720 -0.1218 -0.0038
19896SOL    HW171747   0.821   3.690   0.058  3.3612 -1.0929  0.5681
19896SOL    HW271748   0.773   3.557   0.141  0.6669 -0.2983  0.2978
19897SOL     OW71749   4.182   8.242   3.507  0.8905  0.1603 -0.3578
19897SOL    HW171750   4.228   8.162   3.469  0.7244 -0.2994  0.4099
19897SOL    HW271751   4.084   8.237   3.485  1.2185  1.2338 -2.1580
19898SOL     OW71752   3.870   1.134   4.272  0.1183  0.3715  0.1209
19898SOL    HW171753   3.849   1.041   4.243 -1.2433  0.7463 -0.1365
19898SOL    HW271754   3.785   1.184   4.289  0.8191  1.6962 -0.1570
19899SOL     OW71755   0.916   4.781   5.789  0.3783  0.1065 -0.3097
19899SOL    HW171756   0.884   4.814   5.878  0.7430  0.2299 -0.2233
19899SOL    HW271757   0.865   4.699   5.764  0.3203  0.0310  0.0468
19900SOL     OW71758   0.648   7.305  10.040 -0.0749 -0.4701 -0.0763
19900SOL    HW171759   0.634   7.293   9.942  0.6823  0.3545 -0.2991
19900SOL    HW271760   0.713   7.380  10.055  0.6301 -1.2817  1.0274
19901SOL     OW71761   0.443   5.784   2.733  0.2161 -0.1907 -0.0239
19901SOL    HW171762   0.357   5.772   2.684 -0.0795  0.7595  0.2580
19901SOL    HW271763   0.468   5.881   2.735  2.2975 -0.6481 -1.7952
19902SOL     OW71764   3.512   9.872   3.857  0.4260 -0.2588 -0.4467
19902SOL    HW171765   3.451   9.845   3.932  1.1720  1.1470  0.7076
19902SOL    HW271766   3.500   9.970   3.839  1.6917 -0.1641 -0.8087
19903SOL     OW71767   4.058   4.345   7.575  0.6092 -0.1557 -0.2964
19903SOL    HW171768   4.134   4.326   7.513 -0.9194 -0.0549 -2.2795
19903SOL    HW271769   3.984   4.279   7.558 -0.7046  1.2410 -0.1105
19904SOL     OW71770   9.296   1.357   5.969 -0.1216 -0.0975 -0.1533
19904SOL    HW171771   9.351   1.302   6.031 -0.6637  0.2541  0.6650
19904SOL    HW271772   9.272   1.304   5.888  0.8852 -0.4517 -0.2168
19905SOL     OW71773   2.937   7.666   8.150 -0.7430 -0.0824  0.4094
19905SOL    HW171774   3.004   7.620   8.209 -0.4213 -1.0733 -0.6983
19905SOL    HW271775   2.855   7.609   8.142 -1.2818  0.6164  0.8744
19906SOL     OW71776   0.232   0.768   1.493 -0.5978  0.9239  0.1137
19906SOL    HW171777   0.201   0.757   1.398 -0.2683  1.4810 -0.0643
19906SOL    HW271778   0.287   0.851   1.500 -0.7857  0.9927  0.8357
19907SOL     OW71779   3.015   3.274   9.929  0.2471 -0.5228  0.3985
19907SOL    HW171780   3.025   3.204   9.859 -0.1730 -1.5895  1.3907
19907SOL    HW271781   3.073   3.352   9.906  0.7784 -1.2170 -0.6739
19908SOL     OW71782   6.619   8.918   5.832 -0.0195 -0.1142 -0.2869
19908SOL    HW171783   6.710   8.879   5.845 -0.3805 -0.5457  1.0966
19908SOL    HW271784   6.556   8.847   5.804  0.3371  0.4454 -2.5817
19909SOL     OW71785   8.806   0.552   3.481  0.0689  0.4887 -0.2488
19909SOL    HW171786   8.733   0.575   3.545  0.9487  1.2614  0.4857
19909SOL    HW271787   8.875   0.624   3.482  1.5730 -0.9273  0.1459
19910SOL     OW71788   4.953   0.428   5.984  0.1742  0.1699 -0.0565
19910SOL    HW171789   5.019   0.487   5.938  2.2556 -2.0459 -0.0231
19910SOL    HW271790   4.943   0.455   6.079  1.7087 -0.0165  0.1600
19911SOL     OW71791   0.001   3.991   6.773 -0.1902  0.1417  0.1954
19911SOL    HW171792  -0.036   4.013   6.682  1.1772 -0.0599 -0.4132
19911SOL    HW271793   0.088   4.038   6.786 -1.2147  1.5714  2.1064
19912SOL     OW71794   1.723   0.437   2.435 -0.6698 -0.0646 -0.2725
19912SOL    HW171795   1.744   0.343   2.459  2.6078  0.7740  0.4279
19912SOL    HW271796   1.793   0.472   2.372 -0.3255  2.6746  1.5275
19913SOL     OW71797   3.823   4.300   5.407  0.3300  0.1615  0.0309
19913SOL    HW171798   3.760   4.346   5.343  0.6150 -2.1575 -1.9859
19913SOL    HW271799   3.913   4.292   5.365  1.6669  2.2209  2.3680
19914SOL     OW71800   8.393   1.791   7.694  0.1154 -0.1509  0.1100
19914SOL    HW171801   8.433   1.702   7.673 -0.8927 -1.4204  3.3329
19914SOL    HW271802   8.338   1.821   7.616 -0.8417 -3.1213 -0.4455
19915SOL     OW71803   6.118   9.283   4.892 -0.1517 -0.5113 -0.6915
19915SOL    HW171804   6.075   9.287   4.982  1.3428  0.6913 -0.0225
19915SOL    HW271805   6.120   9.188   4.860  0.9609 -1.1901  1.3538
19916SOL     OW71806   1.319   5.856   7.034  0.0041  0.0104 -0.1098
19916SOL    HW171807   1.340   5.825   6.942 -0.7214 -1.8620  0.3511
19916SOL    HW271808   1.381   5.932   7.058  1.4154 -0.6875 -1.4534
19917SOL     OW71809   2.277   6.362   5.189 -0.2635  0.2798  0.5463
19917SOL    HW171810   2.354   6.400   5.137 -0.2440  0.7646  0.9316
19917SOL    HW271811   2.243   6.430   5.253 -1.9146  0.5454 -0.5796
19918SOL     OW71812   1.983   4.975   0.412  0.4130  0.1313  0.7911
19918SOL    HW171813   2.044   4.952   0.489  1.3673 -0.0126  0.0071
19918SOL    HW271814   1.955   4.891   0.366  1.0279  0.2947  0.1005
19919SOL     OW71815   5.821   9.717   6.975  0.5484  0.0146 -0.1507
19919SOL    HW171816   5.853   9.681   7.062 -0.1537  0.5079  0.3233
19919SOL    HW271817   5.776   9.806   6.990 -1.6827 -0.9843 -0.6785
19920SOL     OW71818   1.399   7.024   3.072  0.0272 -0.3945 -0.4734
19920SOL    HW171819   1.428   7.120   3.078 -0.1447 -0.3693 -0.0188
19920SOL    HW271820   1.376   6.991   3.164 -1.4411 -0.3948 -0.8331
19921SOL     OW71821   2.915   5.468   5.842  0.0790 -0.0241  0.0888
19921SOL    HW171822   2.933   5.434   5.934  0.0769 -0.3754 -0.0395
19921SOL    HW271823   2.969   5.550   5.825  1.2770 -0.8644 -0.1710
19922SOL     OW71824   8.732   0.944   5.527  0.4071  0.1745 -0.3599
19922SOL    HW171825   8.732   0.917   5.430  2.5488 -2.5958  0.3621
19922SOL    HW271826   8.715   0.864   5.584  1.8285  1.2920  1.6974
19923SOL     OW71827   4.058   2.152   6.328  0.4073  0.1901  0.0217
19923SOL    HW171828   4.158   2.140   6.323  0.0789 -2.0822 -3.0787
19923SOL    HW271829   4.015   2.065   6.353 -0.9557  0.0397 -2.5895
19924SOL     OW71830   4.424   0.572   6.593  0.2416  0.3190 -1.3958
19924SOL    HW171831   4.496   0.642   6.591  0.7989 -0.1025  1.5660
19924SOL    HW271832   4.457   0.492   6.643 -1.2954 -1.0498 -2.5466
19925SOL     OW71833   4.455   0.249   8.882 -0.2827 -0.6634 -0.1356
19925SOL    HW171834   4.496   0.255   8.791  0.8836 -0.1867  0.4104
19925SOL    HW271835   4.508   0.304   8.946 -2.8526  1.5650  0.2173
19926SOL     OW71836   1.469   4.502   5.015  0.0395  0.1558 -0.5283
19926SOL    HW171837   1.547   4.508   4.953  0.5511  0.2986  0.1271
19926SOL    HW271838   1.462   4.586   5.070  0.1166 -0.3238  0.2263
19927SOL     OW71839   2.524   6.171   5.638  0.0956 -0.2762 -0.6334
19927SOL    HW171840   2.471   6.257   5.642 -1.1497 -1.0280 -0.6490
19927SOL    HW271841   2.621   6.193   5.629  0.0216  1.1746  1.6930
19928SOL     OW71842   4.946   5.262   8.309 -0.2291  0.0070  0.3513
19928SOL    HW171843   4.860   5.238   8.354 -0.2006 -0.7886  0.0030
19928SOL    HW271844   4.929   5.332   8.240 -0.3820  0.7603  1.1414
19929SOL     OW71845   4.111   9.045   9.787 -0.5973 -0.7905  0.1348
19929SOL    HW171846   4.207   9.020   9.776 -0.1237  0.8910  0.4240
19929SOL    HW271847   4.053   8.966   9.763  0.8597 -2.0488  0.6963
19930SOL     OW71848   0.830   3.097   7.658  0.1814  0.1287  0.1162
19930SOL    HW171849   0.803   3.031   7.588 -0.4888 -0.0914  0.5763
19930SOL    HW271850   0.889   3.052   7.725  1.4513  0.5337 -0.7236
19931SOL     OW71851   0.426   7.931  10.030  0.1992 -0.5537  0.0177
19931SOL    HW171852   0.447   7.978   9.945  0.5805 -1.2150 -0.2555
19931SOL    HW271853   0.351   7.978  10.077  2.0366  1.6433  0.8486
19932SOL     OW71854   9.903   4.883   8.554  1.0815  0.2999 -0.4788
19932SOL    HW171855   9.969   4.957   8.537  1.2467  0.0574 -0.8903
19932SOL    HW271856   9.947   4.795   8.536  0.4076  0.1688 -1.5524
19933SOL     OW71857   8.096   9.905   3.498 -0.2667  0.4281 -0.2971
19933SOL    HW171858   8.188   9.874   3.520  0.4797  2.3596 -0.6132
19933SOL    HW271859   8.033   9.828   3.502  1.4060 -0.9609 -0.3692
19934SOL     OW71860   2.842   6.819   1.455 -0.1546 -0.2753  0.3212
19934SOL    HW171861   2.804   6.862   1.537  2.0228  1.7439  0.3530
19934SOL    HW271862   2.825   6.877   1.376  3.3909  1.1120  0.4635
19935SOL     OW71863   9.511   7.110   7.885  0.4540 -0.4648  0.4658
19935SOL    HW171864   9.534   7.185   7.823 -0.5799 -0.8813 -0.4306
19935SOL    HW271865   9.423   7.128   7.929  0.9358 -0.4192  1.4410
19936SOL     OW71866   6.284   0.864   4.765 -0.3029 -0.2303  0.5649
19936SOL    HW171867   6.203   0.806   4.774 -0.0284 -0.5825  0.7491
19936SOL    HW271868   6.266   0.936   4.698 -0.2984 -1.1018 -0.3881
19937SOL     OW71869   7.860   5.431   4.339  0.0125  0.0840  0.1465
19937SOL    HW171870   7.819   5.405   4.252  0.1385 -0.7040  0.3249
19937SOL    HW271871   7.794   5.485   4.392 -0.4818 -0.4338  0.0648
19938SOL     OW71872   5.810   0.735   3.763  0.6327  0.3988 -0.4072
19938SOL    HW171873   5.800   0.835   3.757 -0.9701  0.2271 -0.8004
19938SOL    HW271874   5.720   0.693   3.767  1.3160 -0.9070  2.3176
19939SOL     OW71875   0.323   4.721   1.368 -0.0135  0.3548 -0.1459
19939SOL    HW171876   0.250   4.729   1.300  1.0506 -1.1316 -1.5067
19939SOL    HW271877   0.288   4.675   1.450 -0.2234 -1.8768 -1.4432
19940SOL     OW71878   9.642   2.456   4.253 -0.2655 -0.1195 -0.0718
19940SOL    HW171879   9.582   2.387   4.293 -1.0464 -0.3996 -1.6655
19940SOL    HW271880   9.734   2.419   4.245 -0.4680 -0.6453 -0.0167
19941SOL     OW71881   4.379   8.770   8.675  0.4105 -0.4464  0.3973
19941SOL    HW171882   4.357   8.847   8.736 -1.2285 -0.7873  0.2541
19941SOL    HW271883   4.354   8.684   8.719  0.1440 -0.7570 -0.3502
19942SOL     OW71884   7.877   7.383   3.666  0.2784 -0.3162  0.0328
19942SOL    HW171885   7.850   7.350   3.575  0.3797 -0.3716  0.0226
19942SOL    HW271886   7.941   7.459   3.657 -0.8001  0.6059  0.0493
19943SOL     OW71887   7.911   1.607   8.719 -0.6331 -0.2572  0.9511
19943SOL    HW171888   7.838   1.539   8.728 -0.2037 -0.7053  1.0842
19943SOL    HW271889   7.924   1.654   8.806 -0.9598  0.0232  0.8478
19944SOL     OW71890   3.918   3.244   9.295  0.3787 -0.0104  0.0672
19944SOL    HW171891   3.946   3.148   9.299  0.9825  0.1606  0.0793
19944SOL    HW271892   3.985   3.295   9.241  0.5638  0.5783  0.8447
19945SOL     OW71893   8.330   0.892   0.189  0.0823  0.5906 -0.1805
19945SOL    HW171894   8.385   0.862   0.112  0.6005  1.2543 -0.0739
19945SOL    HW271895   8.372   0.863   0.275 -1.0556 -1.0849 -0.1609
19946SOL     OW71896   7.441   2.665   4.072  0.9172 -0.3373 -0.6541
19946SOL    HW171897   7.525   2.678   4.126  0.9747  0.4439 -0.9344
19946SOL    HW271898   7.374   2.735   4.097  1.1288  0.3300 -1.9681
19947SOL     OW71899   7.170   3.195   3.253 -0.0666 -0.7685 -0.6300
19947SOL    HW171900   7.266   3.204   3.227 -0.0941  1.7726  0.0456
19947SOL    HW271901   7.163   3.134   3.333  1.2387  0.6545  0.6074
19948SOL     OW71902   5.478   7.380   5.153  0.3149 -0.1251  0.4017
19948SOL    HW171903   5.436   7.296   5.118  0.5719  0.2388 -0.7869
19948SOL    HW271904   5.513   7.434   5.077 -2.4500  2.4980  0.9247
19949SOL     OW71905   0.055   0.596   9.586 -0.2364 -0.3547  0.0251
19949SOL    HW171906   0.145   0.611   9.625 -0.0732 -0.2387 -0.3919
19949SOL    HW271907   0.062   0.537   9.506 -0.1042  2.1598 -1.9018
19950SOL     OW71908   8.729   3.390   1.964  0.3927  0.1481  0.5317
19950SOL    HW171909   8.731   3.292   1.982  0.2615  0.1501  0.5572
19950SOL    HW271910   8.761   3.408   1.871 -0.4913  0.0058  0.1998
19951SOL     OW71911   1.032   7.101   7.910 -0.1558 -0.2870 -0.5837
19951SOL    HW171912   0.968   7.099   7.834 -0.3981 -1.2613 -0.3576
19951SOL    HW271913   1.006   7.033   7.978  0.8710 -0.3949 -0.2881
19952SOL     OW71914   1.053   5.397   0.392 -0.3729 -0.2351 -0.0089
19952SOL    HW171915   0.991   5.321   0.373 -0.9427 -0.0720  1.1674
19952SOL    HW271916   1.039   5.430   0.486  1.4672 -0.1818  0.2779
19953SOL     OW71917   8.267   4.633   9.103 -0.7601 -0.1576 -0.1057
19953SOL    HW171918   8.167   4.630   9.108 -0.7481  0.2469  0.4001
19953SOL    HW271919   8.297   4.726   9.081 -0.4471 -0.0218  0.8824
19954SOL     OW71920   4.123   1.130   6.167 -0.0331  0.1611 -0.2425
19954SOL    HW171921   4.187   1.054   6.156 -0.1531  0.3785 -2.5943
19954SOL    HW271922   4.152   1.207   6.111 -0.2688  1.6398  1.6296
19955SOL     OW71923   8.094   3.826   3.935  0.4939  0.0931  0.4006
19955SOL    HW171924   8.116   3.770   3.855  0.8877 -1.9744  1.8869
19955SOL    HW271925   8.003   3.801   3.969 -0.2447  1.9280 -0.1878
19956SOL     OW71926   9.508   0.254   6.913  0.7308 -0.1217  1.0487
19956SOL    HW171927   9.431   0.317   6.909  1.0216  0.2011  0.4779
19956SOL    HW271928   9.474   0.161   6.924  0.1696 -0.2094 -1.1936
19957SOL     OW71929   2.620   1.503   0.116  0.2797 -0.1386  0.3589
19957SOL    HW171930   2.660   1.575   0.058 -4.1096  1.3399 -1.0500
19957SOL    HW271931   2.600   1.540   0.206  2.0174 -0.8857  1.0732
19958SOL     OW71932   6.031   6.202   9.981  0.8393 -0.0248 -0.4681
19958SOL    HW171933   6.045   6.145  10.062  0.5591  3.1919  1.9577
19958SOL    HW271934   6.113   6.258   9.966  0.3403  0.4145 -1.5946
19959SOL     OW71935   2.691   0.266   5.128 -0.0641  0.2537  0.1740
19959SOL    HW171936   2.725   0.353   5.164  1.5916  0.1273 -1.0113
19959SOL    HW271937   2.741   0.243   5.044 -0.6591 -1.7276  0.3379
19960SOL     OW71938   8.883   8.196   3.732 -0.0727  0.0115 -0.1199
19960SOL    HW171939   8.805   8.146   3.769  0.0002  0.3592  0.4968
19960SOL    HW271940   8.867   8.294   3.739  1.3948  0.1285  2.1587
19961SOL     OW71941   3.634   3.258   9.242  0.5150  0.4041 -0.6319
19961SOL    HW171942   3.732   3.236   9.240  0.4789  0.2615 -0.8373
19961SOL    HW271943   3.615   3.330   9.175  0.2957 -0.3273 -1.3650
19962SOL     OW71944   2.850   6.105   4.478 -0.4450 -0.0347 -0.2636
19962SOL    HW171945   2.817   6.013   4.501 -0.3033  0.0556  0.3229
19962SOL    HW271946   2.792   6.145   4.408  0.3126 -1.1168 -1.5310
19963SOL     OW71947   4.392   3.218   1.280  0.3957 -0.5664 -0.1940
19963SOL    HW171948   4.420   3.269   1.199  0.7686  0.9247  0.8610
19963SOL    HW271949   4.448   3.246   1.358 -1.7229 -0.0346  1.1704
19964SOL     OW71950   5.693   0.941   5.984 -0.1841  0.6719  0.2921
19964SOL    HW171951   5.594   0.950   5.996 -0.0926 -0.0608  1.7363
19964SOL    HW271952   5.713   0.863   5.925 -0.4223 -0.2466  1.4119
19965SOL     OW71953   4.240   4.678   1.496 -0.1308 -0.4129 -0.1473
19965SOL    HW171954   4.173   4.606   1.479 -1.0465  0.6457 -1.1113
19965SOL    HW271955   4.213   4.730   1.577 -0.2053 -0.3047 -0.2411
19966SOL     OW71956   5.572   8.835   4.706 -0.4771 -0.2098 -0.4741
19966SOL    HW171957   5.657   8.847   4.757 -1.6283 -1.2459  1.7624
19966SOL    HW271958   5.591   8.788   4.620  1.0656 -1.5875  0.5932
19967SOL     OW71959   8.712   8.916   1.798  0.2672  0.0856 -0.1896
19967SOL    HW171960   8.810   8.899   1.801 -0.2277 -3.2307 -0.2398
19967SOL    HW271961   8.689   8.994   1.856  2.9633  1.1920 -0.5510
19968SOL     OW71962   5.453   9.513   4.874  0.2364 -0.2614  0.0339
19968SOL    HW171963   5.501   9.600   4.869  0.8080 -0.4695  1.5898
19968SOL    HW271964   5.355   9.530   4.886  0.3041  0.1717 -0.0079
19969SOL     OW71965   2.134   6.354   6.363  0.6391  0.3291 -0.2045
19969SOL    HW171966   2.222   6.310   6.343  0.1517 -1.6916  1.8792
19969SOL    HW271967   2.059   6.294   6.335 -0.0790  1.1993 -0.1856
19970SOL     OW71968   0.244   5.929   6.917  0.2429  0.0426  0.1796
19970SOL    HW171969   0.297   6.013   6.910  1.4646 -0.8337 -1.5936
19970SOL    HW271970   0.306   5.851   6.923 -0.8080 -1.0253 -2.1682
19971SOL     OW71971   1.084   8.659   0.356 -0.6824  0.2789 -0.3449
19971SOL    HW171972   1.008   8.716   0.324 -0.0464  1.9817  1.1314
19971SOL    HW271973   1.159   8.664   0.289 -0.2471  1.9842  0.2453
19972SOL     OW71974   1.215   7.571   3.961  0.5198  0.0681 -0.1943
19972SOL    HW171975   1.192   7.507   3.887  1.3107  1.5917 -1.7874
19972SOL    HW271976   1.140   7.636   3.973  0.7641  0.3625 -0.2573
19973SOL     OW71977   3.308   5.147   3.311  0.4891 -0.2346 -0.1753
19973SOL    HW171978   3.223   5.098   3.292 -0.7348  1.5267  0.6632
19973SOL    HW271979   3.379   5.081   3.338 -1.0137 -1.5752  0.6002
19974SOL     OW71980   6.434   5.056   1.868 -0.1801 -0.7310 -0.3953
19974SOL    HW171981   6.361   5.002   1.828 -1.0043  0.1873 -0.1466
19974SOL    HW271982   6.408   5.153   1.869  0.5219 -0.5384  0.8185
19975SOL     OW71983   8.013   1.114   7.798  0.0768  0.1353 -0.6129
19975SOL    HW171984   8.062   1.079   7.718 -0.3407 -0.1818 -0.7290
19975SOL    HW271985   7.926   1.066   7.808 -0.3484  0.9068 -0.5778
19976SOL     OW71986   7.759   5.742   0.077  0.9204  0.2842  0.3116
19976SOL    HW171987   7.708   5.706  -0.001  1.7772  0.0287 -0.1348
19976SOL    HW271988   7.753   5.678   0.153 -0.2054  0.6952  0.5758
19977SOL     OW71989   1.082   2.264   2.320 -0.1016 -0.0402 -0.1185
19977SOL    HW171990   1.028   2.188   2.357 -0.5718  0.3801  0.0662
19977SOL    HW271991   1.180   2.242   2.328 -0.2316 -0.5715  0.0468
19978SOL     OW71992   9.765   8.021   9.294 -0.2456  0.2271 -0.8192
19978SOL    HW171993   9.763   7.924   9.316 -0.4107  0.5123  0.4935
19978SOL    HW271994   9.803   8.035   9.203  0.8833 -0.9835 -0.5377
19979SOL     OW71995   1.264   0.520   3.110 -0.3105 -0.6766 -0.1411
19979SOL    HW171996   1.174   0.559   3.131 -0.3976 -0.7561 -0.3662
19979SOL    HW271997   1.329   0.594   3.094  0.1222 -0.5831  1.8967
19980SOL     OW71998   7.658   6.281   4.808 -0.0496  0.1181  0.1871
19980SOL    HW171999   7.572   6.246   4.769 -1.0301  1.4072  1.1554
19980SOL    HW272000   7.665   6.379   4.792  1.7474 -0.1642 -0.7780
19981SOL     OW72001   8.145   0.042   7.035 -0.1661  0.0821  0.3933
19981SOL    HW172002   8.114   0.130   6.998  2.1615 -0.1871 -2.3266
19981SOL    HW272003   8.244   0.042   7.040 -0.0241 -3.0306 -1.3566
19982SOL     OW72004   4.885   1.677   2.280 -0.3620  0.5014 -0.0344
19982SOL    HW172005   4.912   1.773   2.282  1.3424  0.0258  1.1603
19982SOL    HW272006   4.860   1.647   2.372 -0.4342 -0.3210 -0.3133
19983SOL     OW72007   5.437   4.615   7.956 -0.2720 -0.5626  0.2023
19983SOL    HW172008   5.528   4.579   7.976 -0.6179 -1.5857 -0.0360
19983SOL    HW272009   5.412   4.592   7.862 -1.8580 -2.6149  1.0987
19984SOL     OW72010   6.362   9.689   4.630 -0.0795 -0.2611  0.1810
19984SOL    HW172011   6.392   9.639   4.548 -0.6609 -1.6296  0.7779
19984SOL    HW272012   6.333   9.781   4.604 -0.4831 -0.7613 -1.1998
19985SOL     OW72013   9.303   4.272   1.273  0.1885  0.5929 -0.0782
19985SOL    HW172014   9.313   4.184   1.320  0.7838 -1.4538 -3.8006
19985SOL    HW272015   9.391   4.318   1.269 -0.0413  1.1808  1.5315
19986SOL     OW72016   8.536   1.535   3.372 -0.2871  0.1624  0.0623
19986SOL    HW172017   8.522   1.442   3.338 -0.6073  0.2480 -0.0438
19986SOL    HW272018   8.523   1.601   3.298 -0.1829  0.2989  0.1643
19987SOL     OW72019   9.775   7.865   0.907  0.3778 -0.0916  0.4439
19987SOL    HW172020   9.806   7.903   0.994  1.4571 -0.0427  0.0411
19987SOL    HW272021   9.745   7.939   0.847  1.9859  0.0990 -0.1455
19988SOL     OW72022   0.147   2.111   9.911  0.1623  0.5047  0.1174
19988SOL    HW172023   0.115   2.019   9.890  0.6266  0.1405  0.9660
19988SOL    HW272024   0.070   2.174   9.914 -0.2867 -0.0598  0.5582
19989SOL     OW72025   1.249   8.807   7.244  0.1129 -0.0401 -0.1358
19989SOL    HW172026   1.170   8.869   7.243 -0.7539 -1.0481  2.1596
19989SOL    HW272027   1.331   8.858   7.219 -1.0396  1.3338 -1.2664
19990SOL     OW72028   1.099   5.617   5.611 -0.1853  0.5357 -0.3468
19990SOL    HW172029   1.196   5.628   5.636  0.2982  0.3012 -2.0647
19990SOL    HW272030   1.079   5.520   5.597 -0.7385  0.5602  0.2476
19991SOL     OW72031   5.462   9.012   4.345 -0.1422 -0.4914  0.3593
19991SOL    HW172032   5.442   9.028   4.442 -0.2113  0.7891  0.1309
19991SOL    HW272033   5.378   9.019   4.292  0.5829  3.3458 -0.3965
19992SOL     OW72034   4.281   9.470   4.767 -0.1261 -0.1013 -0.3931
19992SOL    HW172035   4.328   9.515   4.842 -1.0569 -0.4770  0.4247
19992SOL    HW272036   4.342   9.402   4.725  0.7081  0.7519 -0.5759
19993SOL     OW72037   4.787   5.857   3.246  0.4668  0.0195 -0.0731
19993SOL    HW172038   4.782   5.936   3.185  1.9064 -0.0918 -0.3568
19993SOL    HW272039   4.707   5.798   3.232  0.3148  0.4830 -1.1489
19994SOL     OW72040   9.586   3.719   8.774  0.4125 -0.1223 -0.2443
19994SOL    HW172041   9.643   3.687   8.698 -0.0119 -1.8629  0.1578
19994SOL    HW272042   9.570   3.644   8.838 -2.1746  0.3840 -0.2518
19995SOL     OW72043   0.093   6.801   4.334 -0.0931  0.2535  0.2684
19995SOL    HW172044   0.093   6.842   4.243  0.5634  0.6434  0.4389
19995SOL    HW272045   0.003   6.761   4.353 -0.1494 -0.0577 -0.6499
19996SOL     OW72046   9.462   5.260   0.975  0.4491 -0.1662  0.3663
19996SOL    HW172047   9.442   5.182   1.034  1.6922  0.6656  1.9226
19996SOL    HW272048   9.561   5.276   0.974  0.4922 -0.4292 -2.2982
19997SOL     OW72049   4.045   0.926   1.636  0.3463 -0.6324  0.4195
19997SOL    HW172050   3.969   0.977   1.594  0.8214 -1.1422 -1.0916
19997SOL    HW272051   4.122   0.923   1.573  0.2976 -3.2877  0.4261
19998SOL     OW72052   4.970   8.625   5.743 -0.3226  0.3348  0.0566
19998SOL    HW172053   5.019   8.588   5.821 -1.0381 -0.7839 -0.0170
19998SOL    HW272054   4.946   8.551   5.680 -0.9849  1.0360 -0.5303
19999SOL     OW72055   7.041   7.599   4.073 -0.6142  0.0410 -0.2144
19999SOL    HW172056   6.957   7.653   4.072 -1.4113 -1.1988  0.2555
19999SOL    HW272057   7.068   7.579   3.978 -0.9137  0.3307 -0.3627
20000SOL     OW72058   9.511   3.678   4.194 -0.5983 -0.0471 -0.3032
20000SOL    HW172059   9.554   3.603   4.143 -0.2309  0.3234 -0.5443
20000SOL    HW272060   9.534   3.765   4.150 -2.4212  0.0805 -1.0291
20001SOL     OW72061   7.870   3.573   2.340 -0.3164  0.0252 -0.5667
20001SOL    HW172062   7.818   3.627   2.274  1.0770  0.5819 -1.2417
20001SOL    HW272063   7.860   3.612   2.431 -0.1344  0.8216 -0.8833
20002SOL     OW72064   4.547   1.814   6.359  0.0461 -0.3324  0.2572
20002SOL    HW172065   4.572   1.719   6.377 -3.1657 -0.6423  3.8074
20002SOL    HW272066   4.528   1.861   6.446 -1.2582  2.7152 -1.5706
20003SOL     OW72067   4.041   0.681   3.832 -0.1967  0.4443 -0.7503
20003SOL    HW172068   3.994   0.609   3.883  0.6562 -0.5220 -1.3288
20003SOL    HW272069   4.081   0.746   3.896  0.1150 -0.2801 -0.2069
20004SOL     OW72070   2.477   9.753   2.642  0.4933 -0.2258  0.1863
20004SOL    HW172071   2.419   9.717   2.569 -0.9699  0.2846  1.0958
20004SOL    HW272072   2.527   9.678   2.684 -1.0601 -0.9553  0.7645
20005SOL     OW72073   1.627   9.704   6.739  0.1329 -0.7745  0.6085
20005SOL    HW172074   1.609   9.771   6.811  1.4344 -2.6456  2.7389
20005SOL    HW272075   1.725   9.705   6.716 -0.3161 -0.0178 -1.3330
20006SOL     OW72076   7.939   9.900   7.485  0.3183  0.1097  0.6472
20006SOL    HW172077   7.960   9.882   7.389 -0.2897  0.8793  0.3598
20006SOL    HW272078   7.842   9.882   7.501  0.2715  0.6333  0.9522
20007SOL     OW72079   4.116   8.630   0.448  0.3661 -0.0667  0.6365
20007SOL    HW172080   4.206   8.602   0.481  0.5705  0.2575  0.3689
20007SOL    HW272081   4.096   8.722   0.481 -0.7162 -0.8963  2.3027
20008SOL     OW72082   1.638   0.019   2.181  0.1402 -0.0379 -0.0621
20008SOL    HW172083   1.730   0.000   2.216 -0.6636  0.1899  2.2203
20008SOL    HW272084   1.640   0.019   2.081  2.9754  1.6921 -0.0411
20009SOL     OW72085   9.539   4.377   3.961  0.1420  0.5310  0.7034
20009SOL    HW172086   9.602   4.345   3.890  0.9976  3.4427  0.0691
20009SOL    HW272087   9.447   4.342   3.944  0.3158  1.2793 -1.9454
20010SOL     OW72088   3.577   5.454   4.497  0.2486  0.8847 -0.2036
20010SOL    HW172089   3.549   5.535   4.445  3.6749  2.2663  0.0229
20010SOL    HW272090   3.584   5.376   4.434  0.4981  1.6276 -1.1183
20011SOL     OW72091   4.612   0.515   9.337  0.1470  0.0627 -0.4613
20011SOL    HW172092   4.577   0.519   9.431 -0.9035  2.4049 -0.9065
20011SOL    HW272093   4.655   0.427   9.321 -1.7671 -1.2762  1.4966
20012SOL     OW72094   7.621   2.543   5.150  0.4052  0.3360 -0.5711
20012SOL    HW172095   7.701   2.579   5.105 -0.9430  1.5109 -2.0654
20012SOL    HW272096   7.574   2.478   5.089 -0.7184  0.9553 -0.3783
20013SOL     OW72097   9.487   1.781   8.309 -0.0241 -0.2390  0.1950
20013SOL    HW172098   9.524   1.834   8.386 -0.7323  1.6044 -0.6974
20013SOL    HW272099   9.559   1.723   8.271  0.7553  0.0308  1.2384
20014SOL     OW72100   4.309   3.805   6.934 -0.8604  0.1320  0.0895
20014SOL    HW172101   4.289   3.712   6.965 -0.7465 -0.6666 -2.1436
20014SOL    HW272102   4.357   3.854   7.007 -1.1239 -1.4785  1.3879
20015SOL     OW72103   9.262   0.874   0.090  0.0769  0.0496  0.0198
20015SOL    HW172104   9.282   0.955   0.035 -0.0887 -0.8310 -1.3723
20015SOL    HW272105   9.304   0.793   0.048 -2.3872 -1.0863 -0.3734
20016SOL     OW72106   1.057   6.392   2.914  0.2892  0.6295  0.3107
20016SOL    HW172107   1.022   6.430   3.000 -0.2979  1.9527 -0.4959
20016SOL    HW272108   1.144   6.436   2.892 -0.6801  1.9888 -0.9283
20017SOL     OW72109   1.002   2.346   1.058 -0.1185  0.3175 -0.1290
20017SOL    HW172110   0.903   2.336   1.061  0.0256 -1.1562  0.1992
20017SOL    HW272111   1.036   2.312   0.971 -0.0022  1.8833 -0.7066
20018SOL     OW72112   9.442   2.535   5.608  0.5975  0.0238  0.2525
20018SOL    HW172113   9.429   2.534   5.708  0.1719  1.5077  0.2229
20018SOL    HW272114   9.368   2.587   5.566  0.1022 -1.6458 -0.9590
20019SOL     OW72115   8.586   0.730   7.195  0.3483  0.8138  0.1217
20019SOL    HW172116   8.504   0.777   7.229  0.2979  2.0014 -1.5838
20019SOL    HW272117   8.560   0.639   7.163 -0.1177  0.7978  0.5271
20020SOL     OW72118   0.667   7.264   1.048 -0.5615 -0.1750 -0.2094
20020SOL    HW172119   0.601   7.193   1.071  0.2382 -0.6365  0.7407
20020SOL    HW272120   0.741   7.225   0.993 -1.7489  0.6306 -2.4135
20021SOL     OW72121   8.622   6.038   7.204 -0.0627  0.6756  0.1011
20021SOL    HW172122   8.529   6.004   7.214 -0.3642  1.0919 -1.2039
20021SOL    HW272123   8.636   6.117   7.263 -0.1130 -0.1834  1.2996
20022SOL     OW72124   2.466   2.065   2.241  0.0643 -0.4582  0.2233
20022SOL    HW172125   2.449   2.001   2.167 -0.1878  0.3838 -0.4508
20022SOL    HW272126   2.385   2.123   2.255 -0.4479 -1.5952  2.1393
20023SOL     OW72127   5.162   4.905   0.671 -0.6885  0.5914  0.4319
20023SOL    HW172128   5.145   4.807   0.679  2.1664  0.0965  0.9563
20023SOL    HW272129   5.176   4.944   0.763  0.9748  0.9463  0.0372
20024SOL     OW72130   9.549   4.382   1.319  0.3190 -0.3539  0.5144
20024SOL    HW172131   9.500   4.456   1.365  1.3008  0.3689  0.4258
20024SOL    HW272132   9.621   4.421   1.261 -0.8130 -1.2595 -1.5318
20025SOL     OW72133   6.788   3.630   8.331 -0.2482  0.8612 -0.0910
20025SOL    HW172134   6.817   3.541   8.295  0.9164  1.6410 -1.1354
20025SOL    HW272135   6.716   3.667   8.273 -2.4162 -0.4419  1.7016
20026SOL     OW72136   9.761   6.501   5.042  0.3612  0.2281  0.5878
20026SOL    HW172137   9.809   6.421   5.007  0.2336  0.7001 -0.6724
20026SOL    HW272138   9.675   6.514   4.993 -0.2681  0.3696  1.6972
20027SOL     OW72139   6.406   3.115   8.786 -0.4306  0.4972  0.2520
20027SOL    HW172140   6.423   3.206   8.822  1.5659 -0.3360  1.4683
20027SOL    HW272141   6.428   3.046   8.855 -1.5322 -0.9447 -0.7835
20028SOL     OW72142   3.241   2.709   6.750  0.9135 -0.4199 -0.1551
20028SOL    HW172143   3.231   2.741   6.844  1.6337 -0.8893  0.0882
20028SOL    HW272144   3.190   2.769   6.688  0.6187  0.0167  0.5099
20029SOL     OW72145   0.923   9.391   5.141  0.1620  0.2793 -0.4245
20029SOL    HW172146   0.866   9.335   5.202  2.0655 -0.6018  0.5905
20029SOL    HW272147   0.869   9.421   5.063 -1.0276 -2.6263 -0.7734
20030SOL     OW72148   1.791   2.555   1.338 -0.1177  0.2820  0.1330
20030SOL    HW172149   1.722   2.608   1.289 -0.2303 -0.5382 -0.6114
20030SOL    HW272150   1.866   2.531   1.276 -0.8487 -1.8053 -0.0015
20031SOL     OW72151   8.304   5.258   9.417  0.4645 -0.4494 -0.0093
20031SOL    HW172152   8.315   5.199   9.338 -2.0776 -1.3652  0.2738
20031SOL    HW272153   8.287   5.352   9.386 -1.4092 -0.9602 -0.6040
20032SOL     OW72154   1.837   8.324   5.694 -0.0549  0.7087 -0.1288
20032SOL    HW172155   1.863   8.247   5.752  0.1101  0.6774 -0.2422
20032SOL    HW272156   1.907   8.395   5.699  1.1681 -0.3011 -2.1453
20033SOL     OW72157   1.575   5.189   4.986 -0.2787  0.2939  0.2357
20033SOL    HW172158   1.520   5.113   4.950 -2.8840  2.4458 -0.4138
20033SOL    HW272159   1.616   5.161   5.073  1.2792 -2.8855 -1.3931
20034SOL     OW72160   0.563   0.729   6.969 -0.0593  0.2258  0.4877
20034SOL    HW172161   0.612   0.804   7.013  1.0798 -0.5111  0.4864
20034SOL    HW272162   0.626   0.675   6.914 -0.9828 -0.3982  0.0164
20035SOL     OW72163   5.017   9.038   2.186  0.4943  0.0493 -0.5772
20035SOL    HW172164   5.081   9.106   2.222  2.3107 -1.2901 -1.2475
20035SOL    HW272165   5.013   8.960   2.248 -0.5209  0.1448 -0.5211
20036SOL     OW72166   3.930   4.955   8.433  0.2652 -0.1656  0.0938
20036SOL    HW172167   3.881   4.894   8.495 -1.5627 -0.6400 -1.7696
20036SOL    HW272168   3.901   5.049   8.448  1.4151 -0.0068  1.4110
20037SOL     OW72169   6.167   2.869   0.176  0.3676 -0.0197  0.5343
20037SOL    HW172170   6.264   2.882   0.193  0.0077 -0.2517  2.8968
20037SOL    HW272171   6.126   2.956   0.148  1.5222 -0.2643 -2.1366
20038SOL     OW72172   7.461   5.440   7.008 -0.2317 -0.2957 -0.0048
20038SOL    HW172173   7.467   5.387   7.092  0.0492 -0.7802 -0.3236
20038SOL    HW272174   7.379   5.414   6.957 -1.6796  1.6828  1.2358
20039SOL     OW72175   7.173   8.935   3.875 -0.3670  0.1604  0.0841
20039SOL    HW172176   7.220   8.888   3.950 -0.5977  0.8210  0.6506
20039SOL    HW272177   7.146   9.026   3.905  0.6327  0.8892 -1.2188
20040SOL     OW72178   5.413   2.924   1.379  0.0449 -0.1687  0.0102
20040SOL    HW172179   5.433   2.852   1.445  0.6700  0.6818  0.7586
20040SOL    HW272180   5.494   2.981   1.366 -0.9444  1.4266  0.7149
20041SOL     OW72181   2.219   8.776   5.503  0.1118  0.0889 -0.0324
20041SOL    HW172182   2.217   8.683   5.538 -0.5710  0.1041 -0.0352
20041SOL    HW272183   2.174   8.779   5.414  0.1983  0.4042 -0.0656
20042SOL     OW72184   2.598   9.511   1.808 -0.4996  0.1422 -0.2178
20042SOL    HW172185   2.511   9.498   1.761 -1.7514  0.1415  2.0474
20042SOL    HW272186   2.635   9.422   1.836 -0.2566  0.2164 -0.3005
20043SOL     OW72187   4.612   8.071   6.945 -0.1204 -0.5487  0.3564
20043SOL    HW172188   4.650   8.073   7.038  0.2910  0.7990  0.1731
20043SOL    HW272189   4.684   8.046   6.880 -0.1535 -0.4604  0.2851
20044SOL     OW72190   8.284   7.617   4.818 -0.4706  0.3135  0.1632
20044SOL    HW172191   8.236   7.673   4.751  0.0159 -0.3771 -0.7692
20044SOL    HW272192   8.366   7.666   4.850 -0.0735  0.1690 -0.6141
20045SOL     OW72193   9.099   3.994   4.606  0.2788 -0.7355 -0.1615
20045SOL    HW172194   9.046   3.909   4.613  0.8214 -0.9814  1.0666
20045SOL    HW272195   9.165   3.986   4.531  1.4525 -2.0557  0.9665
20046SOL     OW72196   7.911   7.443   6.234 -0.6791 -0.4934 -0.3683
20046SOL    HW172197   7.823   7.488   6.224  0.2845  1.3661 -0.5627
20046SOL    HW272198   7.934   7.395   6.149 -1.0579 -0.1747 -0.6510
20047SOL     OW72199   5.400   0.963   5.979 -0.0798  0.1435 -0.0538
20047SOL    HW172200   5.414   0.932   5.885  1.3850  0.4032  0.0602
20047SOL    HW272201   5.427   1.059   5.987  0.2727 -0.0187  0.7398
20048SOL     OW72202   5.757   1.168   0.964 -0.3944 -0.1354 -0.3713
20048SOL    HW172203   5.691   1.226   0.915 -0.3393 -0.8102 -1.2573
20048SOL    HW272204   5.774   1.207   1.055 -2.1339 -0.0417 -0.0666
20049SOL     OW72205   0.343   5.445   1.345 -0.5010  0.2842  0.0880
20049SOL    HW172206   0.313   5.466   1.251 -0.8708 -1.7125 -0.2641
20049SOL    HW272207   0.409   5.370   1.343  0.2071  0.8533  1.3685
20050SOL     OW72208   5.934   5.768   2.410  0.3039 -0.4150  0.0809
20050SOL    HW172209   5.852   5.720   2.440  0.2461 -0.6423 -0.4373
20050SOL    HW272210   6.009   5.703   2.397  0.4153 -0.2806  0.0408
20051SOL     OW72211   1.198   5.265   4.572 -0.1276 -0.3642 -0.0328
20051SOL    HW172212   1.114   5.209   4.568 -0.1861 -0.2897  0.1452
20051SOL    HW272213   1.177   5.358   4.543 -0.4495  0.0555  1.4880
20052SOL     OW72214   9.699   0.308   3.261  0.0154 -0.2081  0.2815
20052SOL    HW172215   9.632   0.296   3.187 -0.2516  1.3236  0.2558
20052SOL    HW272216   9.788   0.273   3.231 -0.3848 -0.7422 -0.2996
20053SOL     OW72217   6.900   9.042   3.471  0.2123  0.1326 -0.4446
20053SOL    HW172218   6.992   9.010   3.495  0.8023  0.6508 -1.9816
20053SOL    HW272219   6.873   9.115   3.533  0.2361 -1.0016  0.9348
20054SOL     OW72220   0.105   8.875   7.577  0.1231 -0.1394  0.0740
20054SOL    HW172221   0.032   8.942   7.562  0.2419  0.0756  0.4311
20054SOL    HW272222   0.156   8.862   7.492 -1.0622 -1.1725 -0.4888
20055SOL     OW72223   6.645   3.195   1.723  1.0519  0.2573  0.0270
20055SOL    HW172224   6.669   3.100   1.744  0.4572  0.2558  0.7159
20055SOL    HW272225   6.666   3.252   1.802 -1.1355  0.2652  0.6211
20056SOL     OW72226   2.870   0.937   5.654  0.5944 -0.0004 -0.3085
20056SOL    HW172227   2.869   1.026   5.700  3.7919  0.0669 -0.2428
20056SOL    HW272228   2.946   0.882   5.690  0.8332 -1.4025 -2.8396
20057SOL     OW72229   0.227   8.133   4.320 -0.4609 -0.4285 -0.3889
20057SOL    HW172230   0.227   8.089   4.410  0.4121  0.0720 -0.1319
20057SOL    HW272231   0.232   8.064   4.248  1.1216 -0.7637  0.0090
20058SOL     OW72232   2.520   5.353   8.603 -0.0454 -0.4034  0.5261
20058SOL    HW172233   2.464   5.430   8.571 -1.1289 -0.5187  2.0857
20058SOL    HW272234   2.487   5.268   8.562  0.0204 -0.2667  0.1877
20059SOL     OW72235   2.682   8.271   3.465 -0.2166  0.1712  0.3378
20059SOL    HW172236   2.782   8.280   3.461 -0.0652 -1.7140 -1.4987
20059SOL    HW272237   2.655   8.245   3.558  0.9853  0.9214  0.9092
20060SOL     OW72238   7.387   9.537   9.467 -0.5730  0.1604 -0.0515
20060SOL    HW172239   7.449   9.512   9.393 -0.4395  1.2486 -0.3211
20060SOL    HW272240   7.436   9.532   9.554 -0.3076  0.2827 -0.1906
20061SOL     OW72241   8.584   4.369   5.990  0.1409  0.3220 -0.0396
20061SOL    HW172242   8.621   4.444   5.936  1.7463 -1.0795 -0.9447
20061SOL    HW272243   8.530   4.309   5.931  0.6089 -0.3605  0.2101
20062SOL     OW72244   4.148   7.911   9.342 -0.0725  0.2695 -0.3263
20062SOL    HW172245   4.199   7.989   9.306 -0.2869  1.1722  1.2686
20062SOL    HW272246   4.091   7.941   9.418  1.3661 -1.7785  1.6469
20063SOL     OW72247   1.389   7.046   9.665  0.6910  0.2784 -0.2103
20063SOL    HW172248   1.418   7.140   9.645 -0.9387  1.2913  2.0051
20063SOL    HW272249   1.380   7.035   9.764  0.4890 -2.1190 -0.4799
20064SOL     OW72250   3.793   1.013   7.736  0.8649  0.1008 -0.3773
20064SOL    HW172251   3.715   1.048   7.683  1.0512  0.2012 -0.5848
20064SOL    HW272252   3.859   1.087   7.750 -0.2034  0.6927  1.8949
20065SOL     OW72253   8.114   6.678   6.397 -0.5233 -0.0648  0.2047
20065SOL    HW172254   8.101   6.725   6.310  0.9146 -0.7401 -0.3821
20065SOL    HW272255   8.025   6.650   6.433 -1.0810 -0.4422 -1.4178
20066SOL     OW72256   9.888   0.727   3.260  0.4612 -0.3800 -0.0794
20066SOL    HW172257   9.811   0.685   3.308  0.0699 -1.3845 -1.5392
20066SOL    HW272258   9.973   0.705   3.306 -0.1409  1.0348  1.7615
20067SOL     OW72259   1.602   6.755   9.002 -0.4810  0.2903 -0.6082
20067SOL    HW172260   1.590   6.656   8.996 -1.1664  0.4092 -1.2476
20067SOL    HW272261   1.513   6.799   9.011 -0.0909  0.7713  0.9264
20068SOL     OW72262   2.946   7.266   8.727 -0.1872 -0.2405  0.3372
20068SOL    HW172263   3.034   7.224   8.751 -0.7605 -1.7823 -0.1790
20068SOL    HW272264   2.872   7.218   8.775 -0.8034  0.5816  0.2157
20069SOL     OW72265   0.723   0.106   2.954 -0.0835  0.1558  0.3635
20069SOL    HW172266   0.791   0.116   2.881 -2.5618  1.4268 -1.8569
20069SOL    HW272267   0.699   0.197   2.989 -2.2315 -0.0713 -0.4364
20070SOL     OW72268   4.926   5.673   2.649 -0.4594 -0.0816 -0.1689
20070SOL    HW172269   4.955   5.716   2.734 -1.7364  1.9748 -0.7533
20070SOL    HW272270   4.826   5.678   2.641 -0.3697 -0.4678 -1.6877
20071SOL     OW72271   9.111   7.510   0.096  0.2244  0.2720 -0.3344
20071SOL    HW172272   9.185   7.485   0.159 -0.4388  0.3859  0.5074
20071SOL    HW272273   9.039   7.440   0.101 -0.3631  0.8913 -0.0853
20072SOL     OW72274   2.711   8.355   3.870 -0.4175  0.2975 -0.0168
20072SOL    HW172275   2.692   8.447   3.835 -0.1189 -0.2652 -1.7003
20072SOL    HW272276   2.654   8.289   3.822 -1.9096 -0.2378  2.4101
20073SOL     OW72277   7.331   5.483   7.965  0.6973 -0.3697 -0.3679
20073SOL    HW172278   7.334   5.448   8.058  0.7672 -0.8387 -0.5470
20073SOL    HW272279   7.299   5.412   7.903 -0.8280  0.4076 -0.4895
20074SOL     OW72280   9.782   9.065   6.994 -0.0696 -0.3235  0.3882
20074SOL    HW172281   9.684   9.046   6.999  0.1889 -1.7827  0.1325
20074SOL    HW272282   9.797   9.163   6.983 -1.4696  0.0168  1.4258
20075SOL     OW72283   7.919   3.552   5.349 -0.3391 -0.1703  0.0424
20075SOL    HW172284   7.823   3.542   5.322 -0.3609  1.4817 -0.5754
20075SOL    HW272285   7.973   3.478   5.309 -1.2586 -0.7270 -0.1686
20076SOL     OW72286   0.089   2.038   4.411 -0.1588 -0.9151  0.2037
20076SOL    HW172287   0.010   1.976   4.412 -0.9532  0.0923  1.5092
20076SOL    HW272288   0.075   2.111   4.478  1.8201 -0.6449  0.3615
20077SOL     OW72289   0.194   7.900   2.058  0.4820  0.1775 -0.8837
20077SOL    HW172290   0.127   7.974   2.045  0.1102  0.0188  0.0747
20077SOL    HW272291   0.175   7.853   2.145  1.8969  0.1817 -0.5628
20078SOL     OW72292   0.138   4.989   5.213 -0.1149 -0.0975 -0.2641
20078SOL    HW172293   0.080   5.018   5.137 -0.4817  1.9464  0.7316
20078SOL    HW272294   0.224   5.040   5.211 -1.1890  1.9194  2.1187
20079SOL     OW72295   5.764   2.874   0.527  0.5416  0.2183 -0.4388
20079SOL    HW172296   5.702   2.948   0.499  0.4590 -0.5456 -2.3928
20079SOL    HW272297   5.748   2.794   0.468 -0.0287 -1.7032  2.2364
20080SOL     OW72298   2.073   7.417   1.511  0.9839 -0.5241  0.0588
20080SOL    HW172299   2.060   7.342   1.575  0.4359 -0.6029 -0.1354
20080SOL    HW272300   2.064   7.505   1.559 -1.8414 -0.5535 -0.3168
20081SOL     OW72301   3.165   1.608   9.827 -0.1950 -0.0413 -0.2241
20081SOL    HW172302   3.218   1.596   9.743 -3.0362 -1.2038 -1.9249
20081SOL    HW272303   3.207   1.557   9.901  1.3449 -0.5086 -1.4040
20082SOL     OW72304   4.025   0.813   5.719 -0.3969 -0.4911  0.0525
20082SOL    HW172305   3.968   0.763   5.784 -0.4221  0.1972  0.5634
20082SOL    HW272306   3.979   0.815   5.630 -0.3633 -1.4300  0.0085
20083SOL     OW72307   3.933   4.515   8.119 -0.6280  0.2502 -0.7455
20083SOL    HW172308   3.921   4.574   8.039 -1.3342  0.7069 -0.2996
20083SOL    HW272309   3.950   4.570   8.200 -2.3297 -0.0894 -0.1333
20084SOL     OW72310   1.678   0.333   0.706 -0.1345 -0.2407 -0.1777
20084SOL    HW172311   1.623   0.277   0.645 -0.7140  2.5921 -2.3375
20084SOL    HW272312   1.621   0.365   0.783 -0.3997 -0.6754 -0.1905
20085SOL     OW72313   9.620   0.797   8.026 -0.0462 -0.4874  0.0868
20085SOL    HW172314   9.669   0.845   8.099 -1.0335  0.1416  0.3556
20085SOL    HW272315   9.589   0.708   8.060  2.8045 -1.8579 -0.7792
20086SOL     OW72316   0.923   6.696   8.114 -0.0906  0.1229 -0.0603
20086SOL    HW172317   1.019   6.722   8.120 -0.0811  0.0381  0.1626
20086SOL    HW272318   0.888   6.676   8.205 -0.6698  1.4054  0.0039
20087SOL     OW72319   5.335   0.301   5.882 -0.3540  0.3672 -0.1486
20087SOL    HW172320   5.396   0.237   5.928 -0.6285  0.1406 -0.0978
20087SOL    HW272321   5.320   0.381   5.940 -2.4513 -0.9025  1.1254
20088SOL     OW72322   2.845   2.546   8.314  0.0833 -0.4100 -0.3289
20088SOL    HW172323   2.814   2.452   8.324 -0.9664  0.0594  1.0082
20088SOL    HW272324   2.844   2.591   8.403  3.8602 -0.1090 -0.3596
20089SOL     OW72325   9.585   4.137   0.103  0.4749 -0.1769 -0.2591
20089SOL    HW172326   9.610   4.222   0.150 -1.0133  0.2557 -0.2359
20089SOL    HW272327   9.515   4.156   0.034 -0.1110 -1.4351 -0.0204
20090SOL     OW72328   7.902   3.040   1.763 -0.3909 -0.1675 -0.4914
20090SOL    HW172329   7.941   2.990   1.840 -0.9584  1.1486  0.6599
20090SOL    HW272330   7.867   2.975   1.695  0.3350 -1.3285  0.2283
20091SOL     OW72331   9.065   2.401   0.307  0.4018 -0.3298  0.0095
20091SOL    HW172332   9.035   2.360   0.393 -0.1717  1.4489  0.6714
20091SOL    HW272333   9.145   2.458   0.324  0.1141  0.2511 -0.5982
20092SOL     OW72334   9.510   7.700   0.813  0.0274  0.3740  0.0261
20092SOL    HW172335   9.447   7.751   0.754 -1.3740 -0.8150  0.4468
20092SOL    HW272336   9.597   7.748   0.819 -1.0034  2.3143 -0.1820
20093SOL     OW72337   8.777   4.890   5.533 -0.6528  0.1183  0.1762
20093SOL    HW172338   8.765   4.978   5.488  0.8375 -0.6845 -1.8188
20093SOL    HW272339   8.864   4.888   5.581 -0.8128 -0.1686  0.4621
20094SOL     OW72340   0.547   1.492   0.881  0.6561 -0.1191  0.4186
20094SOL    HW172341   0.475   1.423   0.880  1.0743 -0.5607  0.5656
20094SOL    HW272342   0.596   1.490   0.793  0.4061  0.2613  0.2742
20095SOL     OW72343   4.212   3.937   3.650 -0.6191  0.7563  0.3722
20095SOL    HW172344   4.278   3.908   3.581  2.2044  0.8536  2.9202
20095SOL    HW272345   4.156   3.859   3.676  0.0710  0.0752 -0.1449
20096SOL     OW72346   2.454   8.297   3.337  0.0894 -0.2081 -0.3523
20096SOL    HW172347   2.539   8.319   3.385 -0.2805 -0.7163  0.5477
20096SOL    HW272348   2.463   8.321   3.240  0.6259  1.3790  0.0820
20097SOL     OW72349   4.802   6.964   2.720  0.2783  0.3512  0.0725
20097SOL    HW172350   4.754   7.013   2.793 -1.9071 -0.8748 -0.4932
20097SOL    HW272351   4.795   6.866   2.735  2.5665  0.1248 -0.1022
20098SOL     OW72352   5.310   8.124   3.009 -0.2427  0.1878  0.0833
20098SOL    HW172353   5.245   8.099   2.938 -0.4139 -2.0910  1.0018
20098SOL    HW272354   5.260   8.157   3.090 -0.2455 -1.0275  0.5838
20099SOL     OW72355   0.129   5.774   1.561 -0.4535  0.0815 -0.3657
20099SOL    HW172356   0.154   5.870   1.549 -0.1903  0.0138 -0.3815
20099SOL    HW272357   0.031   5.763   1.550 -0.4701  0.3334 -0.4755
20100SOL     OW72358   6.951   9.556   8.694  0.4178 -0.0080 -0.0311
20100SOL    HW172359   6.941   9.571   8.792  0.3547 -2.2651  0.3378
20100SOL    HW272360   7.029   9.496   8.676  0.3994  0.3362 -1.3437
20101SOL     OW72361   8.807   1.239   2.160  0.0044 -0.3368 -0.2105
20101SOL    HW172362   8.760   1.327   2.161 -0.3771 -0.5084 -1.5624
20101SOL    HW272363   8.891   1.247   2.106  1.2252 -0.2015  1.6443
20102SOL     OW72364   0.908   8.858   0.282  0.1106  0.0520  0.0194
20102SOL    HW172365   0.897   8.957   0.289  0.2188  0.0915 -0.3120
20102SOL    HW272366   0.819   8.815   0.272  0.1419  0.2179 -1.0000
20103SOL     OW72367   4.623   3.729   8.336  0.6743  0.0967 -0.0359
20103SOL    HW172368   4.687   3.805   8.348  1.1799 -0.3311 -0.0311
20103SOL    HW272369   4.578   3.709   8.423 -0.5645  1.3738 -0.3704
20104SOL     OW72370   8.429   1.146   1.539 -0.1300 -0.2120  0.0190
20104SOL    HW172371   8.519   1.190   1.544 -0.2669  0.3081 -1.6352
20104SOL    HW272372   8.441   1.047   1.537  0.3736 -0.1634  0.4673
20105SOL     OW72373   4.358   4.477   4.759  0.8020  0.0438 -0.5641
20105SOL    HW172374   4.422   4.432   4.821  1.4621  0.5534 -0.8696
20105SOL    HW272375   4.321   4.558   4.804 -1.9647 -1.8823  0.7914
20106SOL     OW72376   1.368   9.163   9.200 -0.1082 -0.5140  0.0793
20106SOL    HW172377   1.325   9.238   9.149 -0.2050  0.4414  1.5323
20106SOL    HW272378   1.298   9.112   9.250  0.2793  0.2375  1.4118
20107SOL     OW72379   0.660   7.824   1.408 -0.1239  0.5013  0.5852
20107SOL    HW172380   0.754   7.853   1.391  0.2065 -0.4397  0.8304
20107SOL    HW272381   0.604   7.847   1.328  0.0589  2.1118  0.8876
20108SOL     OW72382   4.517   8.908   6.585  0.2779  0.1522 -0.0526
20108SOL    HW172383   4.499   8.981   6.519  0.2987  0.3551  0.1601
20108SOL    HW272384   4.449   8.913   6.658  0.4006  0.0835  0.0673
20109SOL     OW72385   1.884   9.094   5.212 -0.1864 -0.5555 -0.3102
20109SOL    HW172386   1.844   9.095   5.121 -0.3926 -0.8753 -0.2254
20109SOL    HW272387   1.823   9.045   5.275  0.0545 -0.5216 -0.0480
20110SOL     OW72388   0.233   8.808   4.899 -0.2477  0.0236  0.3366
20110SOL    HW172389   0.331   8.793   4.888 -0.3319  0.2829 -0.8443
20110SOL    HW272390   0.184   8.725   4.874 -0.3617  0.0657  0.4181
20111SOL     OW72391   9.127   6.017   1.003 -1.0544  0.3418  0.0867
20111SOL    HW172392   9.172   5.941   1.051 -2.8365 -0.0506  1.1927
20111SOL    HW272393   9.158   6.104   1.041 -0.8246  0.0979  0.4609
20112SOL     OW72394   5.662   8.727   8.642 -0.2380  0.1125 -0.2955
20112SOL    HW172395   5.681   8.654   8.706 -1.1849 -0.6118 -0.8311
20112SOL    HW272396   5.566   8.722   8.612 -0.5535  2.0346  0.2659
20113SOL     OW72397   0.740   3.175   9.795 -0.1313 -0.4855 -0.4981
20113SOL    HW172398   0.758   3.187   9.697  0.3410  1.1654 -0.2291
20113SOL    HW272399   0.697   3.086   9.810 -0.8784 -0.4527 -2.2823
20114SOL     OW72400   5.875   5.496   7.377 -0.0039  0.4097  0.4106
20114SOL    HW172401   5.814   5.444   7.436  0.8923 -0.4702  0.5831
20114SOL    HW272402   5.961   5.446   7.366  0.1899  1.0018 -0.8875
20115SOL     OW72403   9.789   8.513   3.483 -0.1010 -0.7830  0.1793
20115SOL    HW172404   9.748   8.523   3.574 -1.8287 -2.6194 -0.3584
20115SOL    HW272405   9.878   8.557   3.482 -1.3178  1.8351  1.8898
20116SOL     OW72406   7.464   9.124   8.530  0.4862  0.0417  0.0251
20116SOL    HW172407   7.477   9.027   8.551 -1.7444 -0.0107  1.2715
20116SOL    HW272408   7.462   9.136   8.431  2.4061 -0.9352 -0.1674
20117SOL     OW72409   6.644   2.528   9.126  0.2049 -0.0003  0.1911
20117SOL    HW172410   6.682   2.553   9.037  0.3509 -0.5509  0.0961
20117SOL    HW272411   6.718   2.505   9.189  0.0554 -0.7308  0.1078
20118SOL     OW72412   3.796   6.467   9.693  0.2491  0.2122 -0.1493
20118SOL    HW172413   3.895   6.473   9.678  0.1026  0.3539 -1.0479
20118SOL    HW272414   3.757   6.559   9.694 -0.0271  0.1034 -0.8270
20119SOL     OW72415   9.165   5.337   7.922  0.5314  0.2608 -0.0179
20119SOL    HW172416   9.170   5.435   7.943  1.4710  0.3917 -0.7827
20119SOL    HW272417   9.207   5.285   7.996  0.6573  0.4815  0.0674
20120SOL     OW72418   2.467   4.476   3.079  0.0742 -0.0907 -0.2263
20120SOL    HW172419   2.388   4.447   3.026  0.9415 -0.6188 -1.2673
20120SOL    HW272420   2.489   4.406   3.147  1.4519 -1.4146 -1.9545
20121SOL     OW72421   9.124   5.282   6.261 -0.4464 -0.4914  0.1378
20121SOL    HW172422   9.075   5.330   6.188 -0.6540 -0.5401  0.2467
20121SOL    HW272423   9.217   5.259   6.229 -0.4946 -0.4009 -0.0663
20122SOL     OW72424   9.834   6.860   1.092  0.3016  1.0809 -0.1012
20122SOL    HW172425   9.896   6.801   1.041  0.0373  1.8082 -1.2729
20122SOL    HW272426   9.884   6.905   1.166  0.6977  0.0842  0.2394
20123SOL     OW72427   4.755   8.324   9.222 -0.3612  0.0652 -0.1590
20123SOL    HW172428   4.662   8.350   9.196 -0.3913 -1.2501 -1.4511
20123SOL    HW272429   4.760   8.225   9.234  0.9217  0.1000 -0.3099
20124SOL     OW72430   3.982   6.132   9.729  0.0738 -0.2827  0.5187
20124SOL    HW172431   3.999   6.228   9.754 -3.2235  0.6655 -0.5660
20124SOL    HW272432   3.967   6.079   9.812 -1.6729  0.9208  1.0053
20125SOL     OW72433   5.345   2.697   9.678 -0.0403  0.4308 -0.1037
20125SOL    HW172434   5.360   2.789   9.715  1.8884 -1.0771  3.0795
20125SOL    HW272435   5.423   2.671   9.621  0.2373  0.1503  0.3940
20126SOL     OW72436   7.830   0.616   3.471 -0.0206 -0.2696  0.1444
20126SOL    HW172437   7.881   0.599   3.387  0.1363 -1.4717  0.4858
20126SOL    HW272438   7.790   0.531   3.505 -1.9834  0.5973  0.0703
20127SOL     OW72439   3.641   5.942   2.131 -0.2771  0.3592 -0.2858
20127SOL    HW172440   3.646   5.874   2.059  0.6959  0.5499 -0.3940
20127SOL    HW272441   3.555   5.994   2.121  0.0011  0.6099 -1.5072
20128SOL     OW72442   8.395   3.018   8.891  0.7658  0.1455  0.0584
20128SOL    HW172443   8.477   3.025   8.947  3.0171 -3.1784 -2.5893
20128SOL    HW272444   8.400   2.934   8.836 -4.5284 -0.2583 -0.0231
20129SOL     OW72445   7.881   1.637   8.103 -0.5994 -0.1422 -0.3700
20129SOL    HW172446   7.830   1.722   8.118 -0.4005 -0.5294  2.8767
20129SOL    HW272447   7.817   1.562   8.084 -0.9964  0.0823  0.0823
20130SOL     OW72448   1.830   9.754   9.227 -0.3769  0.8300  0.2344
20130SOL    HW172449   1.736   9.764   9.193 -0.4683  0.6073  0.4313
20130SOL    HW272450   1.887   9.716   9.154 -0.3622  1.2936 -0.0033
20131SOL     OW72451   1.173   4.728   9.134  0.5531 -0.6835  0.0152
20131SOL    HW172452   1.247   4.764   9.190  0.1292  0.5568 -0.2092
20131SOL    HW272453   1.162   4.784   9.051 -0.3794 -1.0759 -0.1411
20132SOL     OW72454   3.502   9.029   7.117 -0.1156  0.7309 -0.5389
20132SOL    HW172455   3.492   8.972   7.036  0.8639 -1.0397  0.5411
20132SOL    HW272456   3.412   9.058   7.149 -0.6694 -0.6281 -0.8365
20133SOL     OW72457   8.076   5.110   0.211  0.1250  0.1880 -0.3124
20133SOL    HW172458   8.098   5.085   0.305 -0.0371  1.0313 -0.0426
20133SOL    HW272459   8.011   5.044   0.173 -1.2387  0.8621  0.7933
20134SOL     OW72460   9.865   4.607   3.499  0.2401  0.6522 -0.1458
20134SOL    HW172461   9.943   4.555   3.533 -0.9919 -0.0896  1.6102
20134SOL    HW272462   9.818   4.651   3.575 -2.1305 -0.3897 -0.9448
20135SOL     OW72463   4.373   6.789   6.964 -0.3361  0.6056 -0.1352
20135SOL    HW172464   4.347   6.747   7.051 -0.3739  0.2407 -0.3207
20135SOL    HW272465   4.304   6.767   6.895  0.9262 -1.1575 -0.8740
20136SOL     OW72466   6.459   2.910   8.939 -0.5685 -0.4388 -0.6596
20136SOL    HW172467   6.526   2.846   8.902  0.5853  0.1011  0.4447
20136SOL    HW272468   6.442   2.888   9.036 -0.5700  0.5966 -0.4223
20137SOL     OW72469   8.817   1.022   7.895 -0.1368 -0.1015  0.0246
20137SOL    HW172470   8.853   1.020   7.802 -0.3556 -1.0471 -0.0422
20137SOL    HW272471   8.878   0.969   7.955 -0.6009 -0.4335  0.2026
20138SOL     OW72472   5.709   1.824   0.460 -0.2558  0.0490  0.3628
20138SOL    HW172473   5.719   1.757   0.386 -1.3168  1.0220 -0.6707
20138SOL    HW272474   5.781   1.893   0.452 -0.6741  0.4388 -0.0713
20139SOL     OW72475   3.375   1.808   8.906  0.0711 -0.1084  0.3470
20139SOL    HW172476   3.453   1.826   8.847 -0.2323 -0.1085 -0.0579
20139SOL    HW272477   3.333   1.721   8.881 -0.4236  0.1817  0.1577
20140SOL     OW72478   1.622   4.993   1.065  0.0880  0.5086 -1.2058
20140SOL    HW172479   1.660   4.937   0.992 -1.1554 -0.3451 -1.2184
20140SOL    HW272480   1.576   4.934   1.131 -1.2855  1.5052 -1.2484
20141SOL     OW72481   6.999   3.550   0.893 -0.0888 -0.3343 -0.3052
20141SOL    HW172482   6.906   3.524   0.869 -0.2839 -0.3020  0.4126
20141SOL    HW272483   7.052   3.468   0.915 -0.1329 -0.2947 -0.0552
20142SOL     OW72484   5.923   7.298   4.139 -0.3112 -0.1211 -0.0978
20142SOL    HW172485   5.850   7.269   4.200  1.5534 -2.3971  1.1566
20142SOL    HW272486   5.996   7.341   4.192  0.6208 -0.6657 -0.9154
20143SOL     OW72487   8.971   2.624   9.647 -0.5296  0.1901 -0.3078
20143SOL    HW172488   9.044   2.688   9.622 -2.4128  1.3343 -3.1561
20143SOL    HW272489   8.993   2.533   9.611  0.6477 -0.0664  1.0179
20144SOL     OW72490   2.630   6.203   3.075 -0.0336  0.2134  0.0895
20144SOL    HW172491   2.598   6.113   3.045 -1.7466  0.2578  1.7093
20144SOL    HW272492   2.560   6.271   3.058  1.7409  1.5274 -2.3006
20145SOL     OW72493   9.013   8.295   4.633  0.2889  0.4057  0.5977
20145SOL    HW172494   8.947   8.293   4.708 -0.9612  0.8506 -0.4846
20145SOL    HW272495   9.012   8.207   4.585  0.8154  0.2554  0.8554
20146SOL     OW72496   8.357   6.927   9.735  0.2038  0.1375 -0.5308
20146SOL    HW172497   8.347   6.829   9.719  3.6940 -0.2261 -0.8612
20146SOL    HW272498   8.338   6.948   9.831  0.8760 -1.0947 -0.1225
20147SOL     OW72499   1.172   1.138   1.803 -0.0041  0.9090 -0.1280
20147SOL    HW172500   1.205   1.219   1.853 -1.1073  2.0791 -1.2707
20147SOL    HW272501   1.232   1.122   1.725  0.0982  0.7330 -0.0136
20148SOL     OW72502   8.312   5.763   2.734 -0.3442  0.0490  0.1906
20148SOL    HW172503   8.377   5.733   2.664 -0.0562  1.8949 -0.3702
20148SOL    HW272504   8.279   5.855   2.710  1.1157  1.4650  3.3662
20149SOL     OW72505   2.531   7.235   8.965  0.2635 -0.5224  0.0951
20149SOL    HW172506   2.519   7.277   9.055  0.3051  1.0612 -0.6089
20149SOL    HW272507   2.492   7.296   8.895 -0.7101 -2.2086 -0.8707
20150SOL     OW72508   4.493   6.581   2.632 -0.1113 -0.0413 -0.2113
20150SOL    HW172509   4.421   6.588   2.563  0.0250  0.8674 -0.2739
20150SOL    HW272510   4.477   6.501   2.689  1.2137 -2.3198 -2.9073
20151SOL     OW72511   5.828   9.531   2.992  0.6263  0.0097 -0.0018
20151SOL    HW172512   5.800   9.520   3.088  0.8073 -1.2177 -0.0805
20151SOL    HW272513   5.760   9.487   2.934  2.7622 -3.1903 -0.1961
20152SOL     OW72514   3.554   7.752   9.973 -0.0425  0.3311 -0.5344
20152SOL    HW172515   3.653   7.762   9.960  0.3834 -1.3197  1.1826
20152SOL    HW272516   3.523   7.666   9.932 -0.1766 -0.6749  1.5492
20153SOL     OW72517   1.709   1.722   9.022  0.3245  0.4135  0.7032
20153SOL    HW172518   1.717   1.633   9.067  1.0704  0.1922  0.1486
20153SOL    HW272519   1.771   1.725   8.943  1.0666  1.7963  1.3162
20154SOL     OW72520   0.294   7.425   6.360  0.7135  0.0161  0.0331
20154SOL    HW172521   0.390   7.452   6.359  0.8425 -0.4548 -0.5167
20154SOL    HW272522   0.250   7.456   6.275  0.6273 -0.6417 -0.1663
20155SOL     OW72523   7.861   4.278   0.063 -0.2245 -0.8003 -0.2519
20155SOL    HW172524   7.877   4.247  -0.031  0.1738  0.4151 -0.5899
20155SOL    HW272525   7.948   4.304   0.104 -0.6763  0.9710 -0.3680
20156SOL     OW72526   7.299   8.239   7.514 -0.1913 -0.1426 -0.3236
20156SOL    HW172527   7.340   8.291   7.440 -1.3203  1.8677  0.4406
20156SOL    HW272528   7.253   8.158   7.477 -0.2484  0.5415 -1.7356
20157SOL     OW72529   9.984   0.723   2.801 -0.0936 -0.6597 -0.0999
20157SOL    HW172530  10.026   0.689   2.885 -1.0790 -2.1584 -0.2056
20157SOL    HW272531   9.917   0.657   2.768 -1.9990  1.3686 -0.3628
20158SOL     OW72532   4.433   7.870   1.160 -0.5410  0.1381  0.3983
20158SOL    HW172533   4.397   7.781   1.133  1.0058 -0.2776 -0.3799
20158SOL    HW272534   4.395   7.941   1.101 -1.0592 -0.1336  0.4093
20159SOL     OW72535   1.025   1.640   9.177  0.1098  0.0574  0.2021
20159SOL    HW172536   1.035   1.710   9.106 -0.1755 -1.2540 -1.1684
20159SOL    HW272537   0.996   1.682   9.262 -0.6624  1.5236 -0.7665
20160SOL     OW72538   9.804   0.755   1.210  0.0711  1.0207  0.3469
20160SOL    HW172539   9.756   0.671   1.235 -0.3437  1.3617  0.6877
20160SOL    HW272540   9.747   0.809   1.147 -0.1094  1.5518  0.9625
20161SOL     OW72541   6.903   3.265   2.718 -0.4762 -0.2260 -0.5117
20161SOL    HW172542   6.827   3.222   2.668 -0.3176 -1.0246 -0.0676
20161SOL    HW272543   6.924   3.211   2.799 -0.1088  0.5618 -0.0809
20162SOL     OW72544   3.339   0.084   0.315 -0.2477  0.2718  0.0125
20162SOL    HW172545   3.403   0.153   0.347  0.4794 -0.3856 -0.0157
20162SOL    HW272546   3.245   0.113   0.335  0.1277  0.5853  1.3417
20163SOL     OW72547   2.418   1.654   5.678  0.1582  0.0784 -0.0347
20163SOL    HW172548   2.404   1.747   5.644 -0.7501 -0.0428  0.0057
20163SOL    HW272549   2.446   1.595   5.602 -1.6784 -0.1492 -0.5588
20164SOL     OW72550   5.261   2.209   5.242 -0.4840 -0.2122 -0.2114
20164SOL    HW172551   5.335   2.155   5.282  0.9063  0.7351 -1.4972
20164SOL    HW272552   5.228   2.165   5.159 -1.2273 -0.5067  0.2277
20165SOL     OW72553   7.066   3.461   0.172  0.0782 -0.0912 -0.0418
20165SOL    HW172554   7.087   3.386   0.109 -0.7376  0.5217 -1.0651
20165SOL    HW272555   7.003   3.429   0.242 -0.6971 -0.2269 -0.7958
20166SOL     OW72556   8.757   7.111   7.564 -0.1375  0.2468  0.1490
20166SOL    HW172557   8.741   7.155   7.652  0.1934 -1.3858  1.0328
20166SOL    HW272558   8.830   7.159   7.515  0.0683  0.7998  0.9977
20167SOL     OW72559   2.940   1.754   1.426  0.3103  0.1284  0.3845
20167SOL    HW172560   2.849   1.713   1.438  1.2546 -1.4739  2.4406
20167SOL    HW272561   2.935   1.851   1.449 -0.2869 -0.5875  3.5398
20168SOL     OW72562   8.962   7.107   8.847  0.0715  0.1994 -0.0451
20168SOL    HW172563   8.919   7.187   8.805  1.7428  1.5301  0.7100
20168SOL    HW272564   9.053   7.132   8.881  0.1548 -1.7282  1.2369
20169SOL     OW72565   1.807   1.269   0.735 -0.1152  0.4459 -0.3670
20169SOL    HW172566   1.773   1.210   0.661 -1.9041  0.8636  0.1070
20169SOL    HW272567   1.836   1.357   0.697  1.7240 -0.3775 -0.9516
20170SOL     OW72568   0.571   9.200   7.707 -0.3456  0.0891 -0.3204
20170SOL    HW172569   0.651   9.248   7.743 -1.5715 -0.2533  3.0365
20170SOL    HW272570   0.598   9.109   7.677  0.8369  0.6335 -0.9763
20171SOL     OW72571   9.536   8.961   0.775  0.4575  0.6184 -0.5301
20171SOL    HW172572   9.612   8.951   0.839 -2.8939  0.0052  3.5680
20171SOL    HW272573   9.539   8.888   0.707  3.3875  0.5493 -0.3977
20172SOL     OW72574   8.330   2.683   4.352  0.2601  0.0972  0.0374
20172SOL    HW172575   8.336   2.598   4.301 -1.0950  0.0434 -0.0436
20172SOL    HW272576   8.403   2.745   4.323 -0.5219  0.0873 -1.9872
20173SOL     OW72577   1.176   2.657   2.977 -0.2328 -0.2684 -0.0833
20173SOL    HW172578   1.177   2.598   2.896 -0.7624 -0.0336 -0.2608
20173SOL    HW272579   1.082   2.681   3.000 -0.1174 -0.7269  0.8903
20174SOL     OW72580   2.694   2.499   7.677  0.5173 -0.0907 -0.4820
20174SOL    HW172581   2.597   2.483   7.658  0.7607 -2.3801  0.0535
20174SOL    HW272582   2.742   2.513   7.591 -0.0922 -0.0260 -0.8193
20175SOL     OW72583   4.094   3.069   0.934  0.0476 -0.0160  0.1038
20175SOL    HW172584   4.142   2.983   0.918 -1.6560 -0.5443 -2.5666
20175SOL    HW272585   4.157   3.145   0.919  0.8623 -0.7339 -0.2086
20176SOL     OW72586   3.144   0.002   3.980  0.2147  0.0639 -0.5728
20176SOL    HW172587   3.232  -0.024   4.021 -0.7057 -0.5366  1.0748
20176SOL    HW272588   3.138   0.101   3.973  0.4948  0.1656  0.5346
20177SOL     OW72589   1.646   6.832   5.060 -0.3203  0.0101  0.0816
20177SOL    HW172590   1.637   6.811   5.158  0.5192  1.7698  0.5564
20177SOL    HW272591   1.593   6.914   5.039  0.4152  0.2887 -0.7078
20178SOL     OW72592   5.658   0.817   4.823 -0.4553  0.0644 -0.3623
20178SOL    HW172593   5.697   0.819   4.916 -0.0537 -1.0061 -0.4990
20178SOL    HW272594   5.732   0.824   4.756 -0.8539  2.2342 -0.6089
20179SOL     OW72595   4.877   0.973   0.182 -0.5409 -0.3245 -0.7411
20179SOL    HW172596   4.936   0.894   0.165  1.2484  0.2304  2.5658
20179SOL    HW272597   4.806   0.948   0.248  0.1976  0.8704  0.5277
20180SOL     OW72598   3.556   8.129   5.161  0.3821  0.3982  0.5239
20180SOL    HW172599   3.573   8.125   5.062  0.8050  4.1684  0.3449
20180SOL    HW272600   3.644   8.140   5.209  0.0408  0.4942  1.1347
20181SOL     OW72601   1.196   9.549   4.299  0.8678  0.0075  0.2927
20181SOL    HW172602   1.181   9.625   4.236  1.1977 -1.5091 -1.6875
20181SOL    HW272603   1.250   9.580   4.377  2.0178  1.5464 -1.0758
20182SOL     OW72604   2.110   6.882   5.626 -0.4131 -0.5324 -0.6935
20182SOL    HW172605   2.153   6.916   5.709 -0.6867 -1.0853 -0.3279
20182SOL    HW272606   2.029   6.829   5.649 -0.8911 -0.0890 -1.3481
20183SOL     OW72607   1.261   5.858   5.495  0.4844  0.1110 -0.0120
20183SOL    HW172608   1.199   5.826   5.424  1.0427  0.0713 -0.4918
20183SOL    HW272609   1.292   5.781   5.551  1.3422 -0.1099 -0.7757
20184SOL     OW72610   2.918   5.472  10.004  0.3508 -0.3590 -0.0949
20184SOL    HW172611   2.983   5.507  10.072  0.6723 -0.5259 -0.3129
20184SOL    HW272612   2.966   5.456   9.918  0.5991 -3.0804  0.5125
20185SOL     OW72613   5.412   6.934   4.031 -0.8067  0.1612  0.6158
20185SOL    HW172614   5.403   6.898   3.938  0.8438  0.2110  0.4221
20185SOL    HW272615   5.506   6.965   4.046 -0.6496 -1.2130  2.7791
20186SOL     OW72616   4.092   7.632   9.361 -0.1074  0.4324 -0.1683
20186SOL    HW172617   4.040   7.646   9.445 -2.0819  0.8871 -1.4287
20186SOL    HW272618   4.122   7.720   9.325  0.7551  0.2367  0.0476
20187SOL     OW72619   9.753   6.363   1.710 -0.0022  0.5933 -0.1246
20187SOL    HW172620   9.743   6.451   1.664 -0.2940 -0.9599 -3.0897
20187SOL    HW272621   9.690   6.296   1.670  0.4401 -1.0745  1.8656
20188SOL     OW72622   3.495   6.075   0.807  0.1783 -0.2790  0.2644
20188SOL    HW172623   3.589   6.102   0.829  0.2353 -0.1722 -0.1125
20188SOL    HW272624   3.472   6.105   0.715  0.0508 -1.0114  0.0484
20189SOL     OW72625   1.878   9.923   3.018 -0.2583  0.5159 -0.1828
20189SOL    HW172626   1.898  10.009   3.064 -2.2369 -0.2524  2.2205
20189SOL    HW272627   1.785   9.924   2.983  0.0693 -0.2270 -1.0904
20190SOL     OW72628   8.337   7.884   2.545 -0.1118  0.0364  0.0388
20190SOL    HW172629   8.294   7.895   2.634 -2.3353  1.9909 -1.2150
20190SOL    HW272630   8.281   7.825   2.487 -0.0348  0.8608 -0.9027
20191SOL     OW72631   1.390   1.835   9.692  0.1119 -0.6635  0.6050
20191SOL    HW172632   1.430   1.823   9.783  1.4036 -0.4502  0.0831
20191SOL    HW272633   1.459   1.811   9.622 -0.1760  1.1887 -0.3420
20192SOL     OW72634   8.178   9.660   4.810  0.0960  0.0427  0.5189
20192SOL    HW172635   8.213   9.721   4.882 -0.4299  0.0479  0.7688
20192SOL    HW272636   8.115   9.711   4.752 -0.3745 -0.2810  0.7505
20193SOL     OW72637   0.980   6.653  10.041 -0.1197 -0.0887 -0.6007
20193SOL    HW172638   0.924   6.594   9.984 -0.2172 -1.8052  1.2304
20193SOL    HW272639   1.010   6.603  10.123  2.7076  1.2882 -0.7119
20194SOL     OW72640   4.978   3.806   2.435  0.4390 -0.1417 -0.1530
20194SOL    HW172641   4.940   3.727   2.483  0.2928 -0.8757 -1.4422
20194SOL    HW272642   5.076   3.811   2.451 -0.0126  1.1203  2.3031
20195SOL     OW72643   2.174   4.865   1.233 -0.1440  0.4660 -0.5565
20195SOL    HW172644   2.140   4.958   1.217  0.0041  0.7651  0.7525
20195SOL    HW272645   2.102   4.810   1.274  0.2398  0.4491  0.1004
20196SOL     OW72646   9.809   2.981   3.406 -0.3953 -0.0711 -0.0018
20196SOL    HW172647   9.803   3.045   3.330  0.6969 -1.3670 -1.2004
20196SOL    HW272648   9.849   3.026   3.485 -0.4755  0.9676 -0.5553
20197SOL     OW72649   4.940   2.431   8.615  0.1619 -0.3658  0.1473
20197SOL    HW172650   4.846   2.465   8.610  0.8262  1.2987 -1.7310
20197SOL    HW272651   4.957   2.393   8.706 -1.6238  1.4109  1.2625
20198SOL     OW72652   6.554   0.109   2.256 -0.0390 -0.0969 -0.1548
20198SOL    HW172653   6.502   0.069   2.180  1.0175 -1.7615 -0.0422
20198SOL    HW272654   6.561   0.041   2.329 -0.0078  1.0728  0.9318
20199SOL     OW72655   5.749   3.182   2.365 -0.2011 -0.6033 -0.0247
20199SOL    HW172656   5.758   3.117   2.440  0.3965 -1.7851 -1.0911
20199SOL    HW272657   5.769   3.274   2.398  0.0543 -1.1057  1.2624
20200SOL     OW72658   9.799   7.844   2.513 -0.1966 -0.1792 -0.3935
20200SOL    HW172659   9.809   7.835   2.612  0.4254 -0.2014 -0.4610
20200SOL    HW272660   9.730   7.779   2.481 -2.2017  1.5071  0.3608
20201SOL     OW72661   6.498   5.201   9.368  0.1665  0.0104  0.5399
20201SOL    HW172662   6.488   5.110   9.407 -0.2182  0.1643  0.8071
20201SOL    HW272663   6.491   5.196   9.268  0.8300 -0.3416  0.5091
20202SOL     OW72664   3.076   1.983   0.983  0.2421 -0.1637 -0.0477
20202SOL    HW172665   3.085   1.944   0.891 -0.4914 -0.1721 -0.1205
20202SOL    HW272666   3.062   1.909   1.049  0.7250 -0.1544  0.0685
20203SOL     OW72667   5.965   5.579   9.404 -0.0375  0.1230  0.0069
20203SOL    HW172668   5.942   5.557   9.498 -0.7040  1.5398  0.1804
20203SOL    HW272669   6.055   5.622   9.400  0.1301 -0.2239 -0.0513
20204SOL     OW72670   2.524   3.207   0.588  0.2851  0.6702 -0.3785
20204SOL    HW172671   2.620   3.182   0.602 -0.2158 -1.3668 -0.3561
20204SOL    HW272672   2.487   3.245   0.672  0.1936 -1.6012  0.6323
20205SOL     OW72673   3.059   5.837   9.355 -0.5749  0.2957  0.4332
20205SOL    HW172674   3.073   5.795   9.445  0.3562 -0.7636 -0.1968
20205SOL    HW272675   3.127   5.803   9.291 -2.3037 -0.3045 -1.1471
20206SOL     OW72676   9.185   0.269   3.752 -0.2820 -0.1884  0.1622
20206SOL    HW172677   9.262   0.325   3.720  0.9304 -0.9992  1.6064
20206SOL    HW272678   9.156   0.301   3.842  1.3744 -2.7540  1.6590
20207SOL     OW72679   8.496   5.096   6.882  0.0808 -0.1099 -0.1077
20207SOL    HW172680   8.493   5.134   6.974 -0.0162 -0.3469 -0.0142
20207SOL    HW272681   8.411   5.047   6.863 -0.4955  1.1295 -0.8325
20208SOL     OW72682   5.528   9.760   4.778 -0.3090  0.0063  0.8309
20208SOL    HW172683   5.577   9.843   4.805 -1.4146  0.1148  2.6147
20208SOL    HW272684   5.575   9.717   4.701  0.8656  1.7161  0.5585
20209SOL     OW72685   3.265   2.001   0.237  0.2118  0.6447 -0.0865
20209SOL    HW172686   3.195   1.934   0.213  0.6333 -0.0206  0.5626
20209SOL    HW272687   3.225   2.093   0.233 -0.2654  0.4013 -1.3396
20210SOL     OW72688   2.840   7.812   1.290  1.2627 -0.7270 -0.2485
20210SOL    HW172689   2.840   7.865   1.375 -1.4013 -0.7484 -0.1957
20210SOL    HW272690   2.922   7.754   1.288  2.0431  0.2239  1.6761
20211SOL     OW72691   9.915   1.256   3.732  0.2537  0.2296  0.2176
20211SOL    HW172692   9.876   1.345   3.709  0.4253  0.3716  0.4797
20211SOL    HW272693   9.973   1.264   3.813  1.6374  0.2346 -0.7365
20212SOL     OW72694   8.090   5.331   7.775  0.6577  0.1017  0.5300
20212SOL    HW172695   8.065   5.321   7.871  0.1427 -0.4992  0.3462
20212SOL    HW272696   8.138   5.248   7.745  0.0265 -0.0921  0.0431
20213SOL     OW72697   8.105   9.687   3.163 -0.1237  0.2523 -0.0562
20213SOL    HW172698   8.139   9.673   3.070 -1.2168  1.2285 -0.6305
20213SOL    HW272699   8.022   9.744   3.159 -0.3416  0.0565  1.4918
20214SOL     OW72700   1.774   4.938   6.568 -0.6088 -0.2790  0.7637
20214SOL    HW172701   1.807   4.906   6.480  0.1995 -0.1309  1.0131
20214SOL    HW272702   1.785   5.037   6.575  0.2731 -0.4150  1.4235
20215SOL     OW72703   0.793   3.781   3.951 -0.1602  0.0505  0.2615
20215SOL    HW172704   0.785   3.827   3.863  0.4528  0.9828  0.6847
20215SOL    HW272705   0.721   3.711   3.959 -0.1315 -0.1264 -1.0172
20216SOL     OW72706   3.430   5.835   7.935  0.5064  0.9393 -0.0844
20216SOL    HW172707   3.420   5.934   7.945 -1.0198  1.0285 -2.2428
20216SOL    HW272708   3.360   5.800   7.873  2.0180 -1.2717 -0.6127
20217SOL     OW72709   1.849   7.404   3.228 -0.3446  0.1764  0.1104
20217SOL    HW172710   1.864   7.341   3.305 -0.8509 -0.2973 -0.1761
20217SOL    HW272711   1.777   7.469   3.252  0.5314  0.9779  0.6015
20218SOL     OW72712   7.413   7.149   2.077  0.8148 -0.1916  0.0633
20218SOL    HW172713   7.376   7.188   1.993 -0.4980  0.5604  0.9724
20218SOL    HW272714   7.457   7.221   2.131  1.1248 -0.5478  0.2899
20219SOL     OW72715   6.021   8.317   4.030  0.8355 -0.7024 -0.6029
20219SOL    HW172716   6.084   8.379   3.985 -0.1062  0.4672 -0.3374
20219SOL    HW272717   5.930   8.325   3.988  0.2465 -0.4986  0.6810
20220SOL     OW72718   0.152   6.913   6.594  0.1551 -0.1606 -0.5049
20220SOL    HW172719   0.242   6.902   6.551  1.6462  0.7074  2.2135
20220SOL    HW272720   0.123   7.008   6.585  0.7532  0.1638  0.8670
20221SOL     OW72721   4.840   1.285   7.110 -0.5197 -0.1888 -0.2438
20221SOL    HW172722   4.926   1.285   7.161  0.1171 -2.8818 -1.2454
20221SOL    HW272723   4.782   1.360   7.142  1.3493  0.3866  1.8804
20222SOL     OW72724   8.412   1.954   2.200 -0.5249 -0.3556 -0.5183
20222SOL    HW172725   8.352   1.878   2.175  0.3700 -0.9362 -0.9470
20222SOL    HW272726   8.374   2.003   2.279 -2.3269  0.2272 -1.7125
20223SOL     OW72727   5.587   8.615   5.725 -0.1864 -0.0549  0.4636
20223SOL    HW172728   5.504   8.618   5.670  0.7965  3.0967 -0.9232
20223SOL    HW272729   5.564   8.588   5.819 -2.4915 -0.9073 -0.3093
20224SOL     OW72730   7.281   6.334   0.626 -0.3775 -0.2858 -0.1365
20224SOL    HW172731   7.306   6.298   0.716 -0.1354 -0.7736 -0.3975
20224SOL    HW272732   7.281   6.434   0.629  0.1388 -0.2972  0.2658
20225SOL     OW72733   8.308   6.085   4.307 -0.2004  0.0788  0.6107
20225SOL    HW172734   8.227   6.026   4.314 -0.6451  0.9162  3.0781
20225SOL    HW272735   8.286   6.164   4.249 -0.6737 -0.4234  0.0897
20226SOL     OW72736   9.489   5.548   8.211 -0.0927  0.0247 -0.6612
20226SOL    HW172737   9.452   5.579   8.123 -0.0667 -0.3820 -0.8153
20226SOL    HW272738   9.428   5.480   8.251 -0.2464  0.4057 -0.2316
20227SOL     OW72739   3.131   3.358   1.321  0.2527  0.2643  0.0626
20227SOL    HW172740   3.144   3.389   1.415  2.5493  1.1364 -0.5253
20227SOL    HW272741   3.172   3.267   1.310  0.2904  0.3098 -0.1783
20228SOL     OW72742   0.065   2.765   2.167 -0.4009  0.2103 -0.1089
20228SOL    HW172743   0.165   2.778   2.171 -0.5155  1.1099 -0.1525
20228SOL    HW272744   0.039   2.693   2.232 -0.0124  1.6785  1.7236
20229SOL     OW72745   1.975   4.756   1.393  0.2116  0.7304 -0.0584
20229SOL    HW172746   1.936   4.828   1.450  0.2371 -0.0028  0.8975
20229SOL    HW272747   1.999   4.678   1.450 -1.7566 -0.8813 -1.3655
20230SOL     OW72748   1.593   7.186   6.275 -0.2773  0.5650 -0.4478
20230SOL    HW172749   1.522   7.138   6.327  0.2375 -0.1075 -0.3553
20230SOL    HW272750   1.679   7.183   6.325  0.3690 -0.5839 -1.5737
20231SOL     OW72751   9.811   6.690   5.461 -0.1616  0.6969  0.1500
20231SOL    HW172752   9.896   6.741   5.472  0.9638 -0.9845 -0.5421
20231SOL    HW272753   9.773   6.708   5.370 -0.4138  1.2438  0.3617
20232SOL     OW72754   9.157   1.030   9.716  0.2727 -0.0302  0.0583
20232SOL    HW172755   9.058   1.023   9.709  0.3221 -0.3692 -0.3424
20232SOL    HW272756   9.181   1.100   9.783 -0.2289 -1.0621  1.3165
20233SOL     OW72757   0.349   9.841   7.528 -0.5205 -0.1953  0.1407
20233SOL    HW172758   0.325   9.909   7.597 -0.9782 -0.4984  0.2794
20233SOL    HW272759   0.414   9.882   7.462  1.1135 -0.3628  1.6067
20234SOL     OW72760   5.397   8.167   3.558  0.2844 -0.4534 -0.4307
20234SOL    HW172761   5.312   8.136   3.515  0.0782 -0.8042  0.2206
20234SOL    HW272762   5.383   8.177   3.657  0.4427  1.3860 -0.5738
20235SOL     OW72763   1.204   8.634   4.208  0.0350  0.0593 -0.1544
20235SOL    HW172764   1.287   8.633   4.153 -1.6454  0.6030 -2.8325
20235SOL    HW272765   1.176   8.540   4.228  1.1618 -0.1244  0.5660
20236SOL     OW72766   0.019   4.880   4.067  0.7782  0.0138 -0.3552
20236SOL    HW172767  -0.049   4.814   4.032 -0.2728  0.7083  0.3390
20236SOL    HW272768   0.108   4.836   4.073  0.3535 -0.9720 -1.1296
20237SOL     OW72769   3.667   7.290   3.230 -0.4520  0.1604  0.9226
20237SOL    HW172770   3.601   7.342   3.175  2.0714  0.4187 -1.9651
20237SOL    HW272771   3.711   7.351   3.296 -0.6596  0.7290  0.5399
20238SOL     OW72772   2.948   7.108   4.237  0.5187 -0.3503  0.0877
20238SOL    HW172773   2.937   7.127   4.140  0.0543  0.5987  0.3235
20238SOL    HW272774   2.945   7.009   4.252 -1.0363 -0.4311 -0.6670
20239SOL     OW72775   3.394   1.038   3.896  0.2706 -0.8451 -0.1770
20239SOL    HW172776   3.332   0.962   3.876  1.2206 -1.7107  0.1463
20239SOL    HW272777   3.372   1.076   3.986 -0.3538 -0.5830 -0.4369
20240SOL     OW72778   0.492   7.221   0.794  0.0939  0.1890 -0.0983
20240SOL    HW172779   0.393   7.215   0.809  0.1527  0.5154  0.4639
20240SOL    HW272780   0.533   7.130   0.803 -0.3155 -0.1567 -1.5945
20241SOL     OW72781   4.163   1.885   6.125 -0.0499  0.0174  0.0258
20241SOL    HW172782   4.070   1.864   6.157 -0.3785 -0.4737 -1.2282
20241SOL    HW272783   4.220   1.803   6.133  0.1148  0.1499  0.2154
20242SOL     OW72784   2.796   6.881   9.913  0.7625 -0.1727  0.1320
20242SOL    HW172785   2.766   6.785   9.917  0.5469 -0.1431 -0.8081
20242SOL    HW272786   2.791   6.914   9.819  3.3019 -0.0266  0.0145
20243SOL     OW72787   4.928   1.881   9.051 -0.8233 -0.6293  0.0103
20243SOL    HW172788   4.906   1.788   9.079 -1.7254 -0.0549  1.2488
20243SOL    HW272789   4.856   1.944   9.083  0.2563  0.6262  0.0349
20244SOL     OW72790   7.232   4.953   9.757 -0.4401 -0.1364 -0.6290
20244SOL    HW172791   7.300   4.887   9.788 -1.4972 -1.3452 -0.7941
20244SOL    HW272792   7.231   5.032   9.818  0.4359 -0.5466 -0.0792
20245SOL     OW72793   7.848   1.531   9.050 -0.3479  0.2683 -0.1652
20245SOL    HW172794   7.889   1.622   9.060  0.2570 -0.0499  0.2616
20245SOL    HW272795   7.779   1.534   8.978  0.8106  0.6828 -1.2791
20246SOL     OW72796   8.317   0.279   5.638 -0.4980 -0.2792  0.3366
20246SOL    HW172797   8.361   0.296   5.726 -1.0486 -1.7534  0.9087
20246SOL    HW272798   8.240   0.343   5.626 -0.2465  0.1110  0.7942
20247SOL     OW72799   0.410   2.158   4.601  0.2947  0.4401 -0.7527
20247SOL    HW172800   0.357   2.109   4.671 -0.6689  0.8475 -1.1872
20247SOL    HW272801   0.499   2.114   4.591 -0.3209 -0.8601 -0.6993
20248SOL     OW72802   7.061   4.594   2.807  0.2390 -0.1719 -0.0228
20248SOL    HW172803   7.006   4.653   2.867  1.3461  2.1333 -1.1842
20248SOL    HW272804   7.150   4.579   2.849 -0.4271 -1.9754  0.7808
20249SOL     OW72805   1.229   7.074   7.261 -0.3493  0.2884 -0.1298
20249SOL    HW172806   1.233   7.165   7.303  1.0114 -0.2070  0.8510
20249SOL    HW272807   1.143   7.030   7.287  0.0599  0.3550  1.4332
20250SOL     OW72808   3.702   6.258   2.829  0.2184 -0.1129  0.1918
20250SOL    HW172809   3.762   6.183   2.804  0.0652  0.2231 -1.2476
20250SOL    HW272810   3.647   6.232   2.908  0.6956 -1.2329  0.1659
20251SOL     OW72811   7.523   1.137   3.010 -0.2248  0.1911  0.2384
20251SOL    HW172812   7.503   1.135   2.912  1.8857 -0.9922 -0.1921
20251SOL    HW272813   7.621   1.132   3.025 -0.3928  2.1723  2.3979
20252SOL     OW72814   8.178   4.545   4.402 -0.4216 -0.2040 -0.0711
20252SOL    HW172815   8.244   4.611   4.439 -0.8349  0.8285 -1.1239
20252SOL    HW272816   8.108   4.595   4.350  0.5902 -1.6718 -2.8989
20253SOL     OW72817   3.098   8.596   8.622  0.5880  0.3343  0.1391
20253SOL    HW172818   3.046   8.674   8.588  0.6214  0.5260  0.5360
20253SOL    HW272819   3.168   8.570   8.554 -1.3841 -1.2435 -1.3687
20254SOL     OW72820   0.225   7.577   0.917  0.1464  0.1506  0.4579
20254SOL    HW172821   0.207   7.653   0.979  2.8732  0.0935  1.3376
20254SOL    HW272822   0.275   7.611   0.837 -1.3748 -0.1959 -0.6847
20255SOL     OW72823   7.734   5.093   5.761 -0.0013  0.3858  0.1699
20255SOL    HW172824   7.694   5.001   5.761  1.9750 -0.4959  0.2048
20255SOL    HW272825   7.718   5.137   5.849 -2.7276  0.8989 -0.5307
20256SOL     OW72826   8.190   7.850   3.787 -0.0566  0.2259  0.6091
20256SOL    HW172827   8.206   7.770   3.844  1.9332 -0.1422 -0.4015
20256SOL    HW272828   8.219   7.831   3.693 -0.7814  1.6912  0.0613
20257SOL     OW72829   1.045   5.289   7.518 -0.1938 -0.0957 -0.2542
20257SOL    HW172830   1.115   5.226   7.484 -0.8326 -0.1671 -1.4618
20257SOL    HW272831   0.962   5.237   7.540 -0.3536  0.1816 -0.2035
20258SOL     OW72832   1.004   1.060   9.530  0.3652  0.4773 -0.0054
20258SOL    HW172833   1.074   1.012   9.583 -1.7878 -1.9080  0.7991
20258SOL    HW272834   0.999   1.155   9.559  3.0368  0.6086  0.1186
20259SOL     OW72835   4.872   4.266   7.395  0.3757  0.8932 -0.1398
20259SOL    HW172836   4.919   4.281   7.308 -0.2965  0.4660 -0.5779
20259SOL    HW272837   4.881   4.348   7.452 -0.9660  1.9730 -1.4524
20260SOL     OW72838   7.738   9.816   4.725  0.5855 -0.2053  0.3323
20260SOL    HW172839   7.701   9.892   4.778  1.5667  1.8217 -1.7608
20260SOL    HW272840   7.670   9.786   4.658  0.6514 -0.3435  0.3279
20261SOL     OW72841   1.239   8.597   8.995  0.1746 -0.2375 -0.4404
20261SOL    HW172842   1.306   8.580   8.922 -1.9261 -2.2809 -1.9741
20261SOL    HW272843   1.160   8.645   8.957 -0.2578  0.0942  0.8461
20262SOL     OW72844   9.945   4.449   5.592 -0.4231  0.1435 -0.5335
20262SOL    HW172845  10.015   4.520   5.597  0.6105 -0.9002  0.0426
20262SOL    HW272846   9.985   4.365   5.557 -1.6804 -0.1161 -1.3960
20263SOL     OW72847   6.811   1.688   5.399 -0.2327  0.0127  0.0143
20263SOL    HW172848   6.841   1.783   5.395 -1.3318  0.3016 -2.6225
20263SOL    HW272849   6.711   1.686   5.402 -0.2790 -1.0477 -1.5913
20264SOL     OW72850   2.879   9.392   6.358  0.0644  0.1920  0.5184
20264SOL    HW172851   2.947   9.419   6.426  2.2625  0.9397 -1.9119
20264SOL    HW272852   2.839   9.473   6.315  0.7997 -0.2955 -1.1153
20265SOL     OW72853   9.925   2.018   3.988 -0.1340  0.0004  0.5730
20265SOL    HW172854   9.938   2.079   3.911 -0.6208  1.5244  1.6763
20265SOL    HW272855  10.012   2.006   4.037  0.0393 -0.4874  0.1516
20266SOL     OW72856   0.680   6.134   3.860 -0.1259  0.2422 -0.6246
20266SOL    HW172857   0.758   6.144   3.921  0.4057  1.4923 -1.4784
20266SOL    HW272858   0.631   6.221   3.855 -1.4282 -0.4600 -0.2929
20267SOL     OW72859   3.669   5.204   5.416  0.1414 -0.0129 -0.0136
20267SOL    HW172860   3.723   5.140   5.470 -1.2731  0.4700  2.0100
20267SOL    HW272861   3.587   5.230   5.466 -0.7095  1.2437 -1.9757
20268SOL     OW72862   1.097   6.204   3.935 -0.2099  0.1947 -0.0189
20268SOL    HW172863   1.072   6.183   3.841 -1.0570  0.3466  0.1707
20268SOL    HW272864   1.035   6.157   3.998 -0.1734  0.7555  0.4501
20269SOL     OW72865   4.344   0.562   9.224  0.3512 -0.3052 -0.2517
20269SOL    HW172866   4.437   0.555   9.261 -0.6187 -0.1636  2.3051
20269SOL    HW272867   4.309   0.655   9.238 -0.6168 -0.6828 -0.1029
20270SOL     OW72868   7.999   5.115   5.711  0.0526 -0.6891  0.2637
20270SOL    HW172869   8.039   5.177   5.778 -0.6870 -0.0424  0.1148
20270SOL    HW272870   7.906   5.092   5.739  0.0716 -1.1645 -0.0584
20271SOL     OW72871   8.535   8.362   4.923  0.8161 -0.0192 -0.1612
20271SOL    HW172872   8.454   8.403   4.881 -1.2086 -2.3160  1.4035
20271SOL    HW272873   8.546   8.397   5.016  1.2516 -0.1791 -0.1543
20272SOL     OW72874   4.779   9.680   9.338 -0.0516 -0.2981  0.2298
20272SOL    HW172875   4.681   9.688   9.355 -0.1934 -1.0562 -0.1916
20272SOL    HW272876   4.828   9.672   9.425 -0.5730 -2.0899  0.3778
20273SOL     OW72877   2.907   8.217   5.680 -0.4310 -0.1126  0.0970
20273SOL    HW172878   2.955   8.301   5.658  0.1537 -0.1462  1.2149
20273SOL    HW272879   2.962   8.138   5.652 -1.2151 -0.1292 -1.4392
20274SOL     OW72880   0.508   3.107   5.756  0.6669  0.0416  0.4313
20274SOL    HW172881   0.590   3.156   5.784  1.2429  0.0921 -1.2855
20274SOL    HW272882   0.500   3.109   5.656 -0.8621 -0.8566  0.5158
20275SOL     OW72883   4.017   1.162   7.594  0.3989 -0.2248 -0.1758
20275SOL    HW172884   3.972   1.148   7.506 -0.1683 -1.5606  0.3026
20275SOL    HW272885   4.113   1.134   7.587  0.4094 -0.1264 -0.4290
20276SOL     OW72886   4.217   0.437   6.376 -0.2015  0.3797  0.1827
20276SOL    HW172887   4.246   0.345   6.347  1.2076  1.1975 -1.0750
20276SOL    HW272888   4.240   0.503   6.304  0.5071  1.9983  1.8506
20277SOL     OW72889   1.182   0.199   9.601 -0.3844  0.1822 -0.3284
20277SOL    HW172890   1.122   0.164   9.529 -1.3456  0.5819  0.2666
20277SOL    HW272891   1.266   0.236   9.560  0.1066 -1.6787 -1.0597
20278SOL     OW72892   9.776   1.056   4.879 -0.4642  0.2013  0.1361
20278SOL    HW172893   9.843   1.128   4.861  0.3159 -0.7953 -1.0293
20278SOL    HW272894   9.758   1.006   4.795  0.1528 -1.9343  1.2493
20279SOL     OW72895   2.965   6.421   3.109  0.1755  0.1961  0.3349
20279SOL    HW172896   3.032   6.363   3.062  0.5012 -0.1324  1.1887
20279SOL    HW272897   2.905   6.363   3.165 -0.3005  0.5714  0.2187
20280SOL     OW72898   0.224   6.100   1.093  0.3563  0.3946 -0.1689
20280SOL    HW172899   0.206   6.120   1.189 -0.9211 -0.1868 -0.2715
20280SOL    HW272900   0.190   6.175   1.036 -1.3639 -0.4789 -0.3305
20281SOL     OW72901   8.672   6.064   6.020  0.2729  0.1259  0.2608
20281SOL    HW172902   8.733   6.041   6.096  0.0771  1.8677  0.9622
20281SOL    HW272903   8.653   6.162   6.020 -1.5637 -0.1954 -0.6704
20282SOL     OW72904   6.084   5.466   8.036 -0.4237  0.0021  0.2185
20282SOL    HW172905   6.120   5.376   8.058  0.5480  0.2293 -0.4197
20282SOL    HW272906   6.059   5.469   7.939 -0.8021  0.3077  0.3224
20283SOL     OW72907   7.656   9.221   9.983 -0.0591 -0.5893  0.0401
20283SOL    HW172908   7.653   9.300  10.043 -0.1338 -0.4733 -0.1143
20283SOL    HW272909   7.749   9.209   9.947  0.0524 -0.8306  0.4041
20284SOL     OW72910   9.240   9.240   8.441 -0.2899  0.5714  0.3580
20284SOL    HW172911   9.149   9.215   8.473 -0.4760  1.6827  0.7128
20284SOL    HW272912   9.302   9.248   8.518  0.5011 -1.6563 -0.0011
20285SOL     OW72913   3.731   2.361   2.124 -0.2541  0.1689 -0.1106
20285SOL    HW172914   3.793   2.332   2.197  2.3597 -0.3800 -2.4684
20285SOL    HW272915   3.670   2.286   2.101 -1.6271  0.5954  2.0023
20286SOL     OW72916   1.896   8.788   6.873 -0.3080  0.1329  0.2369
20286SOL    HW172917   1.851   8.851   6.808  0.0712  0.5476  0.3748
20286SOL    HW272918   1.882   8.822   6.966  2.9342  2.0044  0.1243
20287SOL     OW72919   5.766   1.261   0.629  0.0293 -0.1286 -0.0396
20287SOL    HW172920   5.812   1.181   0.668  0.7864  0.8583  1.1298
20287SOL    HW272921   5.675   1.270   0.669 -0.6162 -1.2291 -1.2464
20288SOL     OW72922   0.994   7.825   5.715  0.1228 -0.2190 -0.0369
20288SOL    HW172923   1.013   7.740   5.666  3.4857  0.7471 -0.5691
20288SOL    HW272924   1.021   7.903   5.658  1.7636  1.0092  2.2937
20289SOL     OW72925   7.844   4.294   4.575  0.1394  0.1516 -0.3144
20289SOL    HW172926   7.811   4.370   4.632  0.5068 -1.3102  1.9455
20289SOL    HW272927   7.771   4.264   4.514  0.0543  2.4209 -1.3505
20290SOL     OW72928   7.134   7.142   7.332  0.2239  0.3225 -0.5928
20290SOL    HW172929   7.108   7.069   7.269 -1.0458 -0.0264  0.3117
20290SOL    HW272930   7.109   7.231   7.292 -3.4904 -0.0532  0.7086
20291SOL     OW72931   6.056   4.225   1.130  0.4487  0.5390 -0.0970
20291SOL    HW172932   6.112   4.144   1.112 -2.0870 -0.8248 -2.2204
20291SOL    HW272933   6.010   4.253   1.046  0.4670  3.5929  0.8627
20292SOL     OW72934   6.214   9.795   4.068  0.2844  0.2015  0.0502
20292SOL    HW172935   6.207   9.778   3.969  0.5480  1.3538 -0.1648
20292SOL    HW272936   6.301   9.759   4.101  0.7787  0.9947 -0.3816
20293SOL     OW72937   9.326   3.254   4.519 -0.3562  0.5448 -0.1900
20293SOL    HW172938   9.343   3.317   4.443 -1.9199  0.5907 -0.5223
20293SOL    HW272939   9.298   3.165   4.483  0.5667  0.0462  0.3062
20294SOL     OW72940   4.047   6.322   1.799  0.4565  0.0685 -0.2373
20294SOL    HW172941   4.016   6.388   1.868 -0.4778  1.4896 -1.9823
20294SOL    HW272942   3.968   6.278   1.757  1.0519 -1.4069  0.1668
20295SOL     OW72943   0.054   6.593   7.030  0.5874  0.2522 -0.1375
20295SOL    HW172944   0.077   6.685   7.001  1.7806  0.4312  1.3282
20295SOL    HW272945  -0.026   6.595   7.089  0.6734  0.3668 -0.0240
20296SOL     OW72946   6.185   3.523   1.315  0.2976 -0.1253 -0.4027
20296SOL    HW172947   6.273   3.517   1.267 -0.3064  3.3003 -2.1589
20296SOL    HW272948   6.190   3.595   1.385 -0.6087 -1.0765  0.6497
20297SOL     OW72949   3.809   1.208   1.294  0.1816 -0.0076 -0.7355
20297SOL    HW172950   3.747   1.194   1.217  0.6674 -0.7498 -0.9998
20297SOL    HW272951   3.822   1.306   1.308 -0.4367  0.1449 -1.1696
20298SOL     OW72952   3.719   4.536   7.630 -0.7408 -0.8535  0.5493
20298SOL    HW172953   3.658   4.470   7.674  0.6152 -2.1203  0.5680
20298SOL    HW272954   3.752   4.498   7.544 -1.4870  0.6276 -0.4207
20299SOL     OW72955   9.473   9.071   9.634 -0.2059  0.3205  0.3915
20299SOL    HW172956   9.508   9.159   9.667 -0.4553  1.4626 -2.2677
20299SOL    HW272957   9.387   9.086   9.584  0.4953 -1.2294 -1.3422
20300SOL     OW72958   9.028   7.922   7.470 -0.7350 -0.2787  0.2353
20300SOL    HW172959   8.937   7.949   7.501 -0.5059 -1.2561  1.8073
20300SOL    HW272960   9.020   7.863   7.390 -1.4116  0.8997 -0.5772
20301SOL     OW72961   9.113   7.939   4.089  0.3720 -0.0683  0.1693
20301SOL    HW172962   9.084   7.886   4.010 -1.2777  0.2345  0.5356
20301SOL    HW272963   9.157   8.024   4.059  1.2198 -0.7052 -0.4101
20302SOL     OW72964   6.098   4.827   0.669 -0.4017  0.7735  0.0592
20302SOL    HW172965   6.122   4.789   0.759 -1.2243 -0.1819 -0.1138
20302SOL    HW272966   6.176   4.817   0.608 -0.3189  0.0960  0.2616
20303SOL     OW72967   0.872   4.479   5.052  0.1402 -0.0134 -0.0221
20303SOL    HW172968   0.782   4.450   5.085  0.6372  0.9146  2.2933
20303SOL    HW272969   0.941   4.413   5.080  0.3732  0.0096 -0.5376
20304SOL     OW72970   8.558   2.258   1.512  0.6176 -0.4020 -0.2188
20304SOL    HW172971   8.553   2.170   1.466  0.4833 -0.2689 -0.4639
20304SOL    HW272972   8.644   2.266   1.561 -0.1396 -1.3936  1.2928
20305SOL     OW72973   9.707   1.073   0.985 -0.0385  0.3402 -0.5667
20305SOL    HW172974   9.662   0.992   1.023  1.0611 -0.9267 -1.8902
20305SOL    HW272975   9.779   1.044   0.921  0.9565  2.3586 -0.3898
20306SOL     OW72976   4.533   5.682   8.738 -0.3280 -0.4010  0.6863
20306SOL    HW172977   4.590   5.761   8.758  1.2818 -1.5889  0.8821
20306SOL    HW272978   4.477   5.661   8.818 -0.2327  0.1035  0.8870
20307SOL     OW72979   6.045   5.519   7.729 -0.1813  0.5013 -0.0112
20307SOL    HW172980   6.019   5.589   7.662  0.3968 -0.0551 -0.8322
20307SOL    HW272981   5.968   5.458   7.744 -0.2855  0.5715 -0.2505
20308SOL     OW72982   7.429   9.507   6.958  0.1644 -0.3949  0.0134
20308SOL    HW172983   7.329   9.501   6.952  0.0801 -0.2498  1.1732
20308SOL    HW272984   7.464   9.564   6.884 -0.2817 -3.5211 -2.7308
20309SOL     OW72985   4.434   1.183   2.380 -0.3045 -0.6108  0.0962
20309SOL    HW172986   4.410   1.245   2.454 -0.1687  0.8129 -1.0323
20309SOL    HW272987   4.354   1.168   2.322 -0.1359 -0.8929 -0.0661
20310SOL     OW72988   6.406   8.046   2.888 -0.6703  0.0624  0.8631
20310SOL    HW172989   6.343   8.037   2.811 -0.3618 -1.8341  0.8217
20310SOL    HW272990   6.354   8.066   2.972 -1.1180  0.7439  0.4251
20311SOL     OW72991   2.570   9.862   3.394 -0.2281 -0.3215  0.0812
20311SOL    HW172992   2.590   9.956   3.423 -0.3465 -0.5858  1.0372
20311SOL    HW272993   2.572   9.857   3.294  1.4744  0.3183  0.0651
20312SOL     OW72994   9.610   8.258   6.419 -0.1699 -0.3551 -0.1838
20312SOL    HW172995   9.565   8.248   6.330  0.6402  0.7854 -0.7460
20312SOL    HW272996   9.676   8.333   6.414  1.4771 -1.7188  0.7507
20313SOL     OW72997   5.266   8.351   7.629 -0.1809 -0.1663 -0.1511
20313SOL    HW172998   5.278   8.286   7.553 -2.4946 -0.9805  0.1287
20313SOL    HW272999   5.236   8.301   7.710 -3.0181  1.3390 -0.2089
20314SOL     OW73000   9.706   2.245   7.580 -0.1957 -0.3303 -0.1635
20314SOL    HW173001   9.667   2.205   7.663  0.2150  0.0997  0.2415
20314SOL    HW273002   9.651   2.323   7.551  0.8576  0.8387  0.9254
20315SOL     OW73003   9.533   5.838   1.064 -0.6665  0.2579 -0.0057
20315SOL    HW173004   9.626   5.821   1.032 -0.8315  0.1572 -0.4228
20315SOL    HW273005   9.494   5.755   1.103 -0.9282  0.0666 -0.6868
20316SOL     OW73006   3.723   2.957   6.046  0.2828 -0.1321  0.2342
20316SOL    HW173007   3.789   3.030   6.062 -0.2627  0.1656  1.1859
20316SOL    HW273008   3.689   2.923   6.134 -0.4368 -0.6422 -0.2322
20317SOL     OW73009   4.165   3.504   5.032 -0.1569 -0.4184 -0.9560
20317SOL    HW173010   4.139   3.484   5.126  2.1597 -0.2691 -0.2522
20317SOL    HW273011   4.185   3.418   4.984 -3.0766 -0.6331 -1.8846
20318SOL     OW73012   6.599   1.351   1.483 -0.1598  0.0919 -0.1465
20318SOL    HW173013   6.607   1.257   1.514 -1.4608  0.3769  1.1389
20318SOL    HW273014   6.513   1.390   1.517  0.0127  1.5096 -1.2676
20319SOL     OW73015   0.565   3.605   8.770 -0.3736  0.0193  0.2920
20319SOL    HW173016   0.556   3.641   8.678  1.8430  0.1875  0.1233
20319SOL    HW273017   0.661   3.584   8.789 -0.9327 -0.9624  2.2003
20320SOL     OW73018   4.750   9.676   6.074 -0.5811  0.0117 -0.2448
20320SOL    HW173019   4.706   9.765   6.067 -0.5720  0.1198  1.0605
20320SOL    HW273020   4.818   9.677   6.147  0.7149 -0.5332 -1.4050
20321SOL     OW73021   8.846   2.852   5.932 -0.9099 -0.4113 -0.4012
20321SOL    HW173022   8.882   2.814   6.017 -1.2976 -0.4846 -0.2696
20321SOL    HW273023   8.748   2.870   5.942 -0.8611  0.0119 -0.6796
20322SOL     OW73024   8.274   3.814   4.319  0.0138 -0.6667  0.0103
20322SOL    HW173025   8.318   3.834   4.406  0.7315 -1.5150 -0.1529
20322SOL    HW273026   8.197   3.876   4.306  1.4052  1.1254  0.1056
20323SOL     OW73027   0.789   3.479   3.918  0.0111 -0.4175 -0.5875
20323SOL    HW173028   0.735   3.444   3.995  1.1181 -2.3453 -0.6812
20323SOL    HW273029   0.729   3.491   3.839 -0.6827 -0.5492 -0.0899
20324SOL     OW73030   8.650   3.853   6.290 -0.0667  0.4073  0.3187
20324SOL    HW173031   8.625   3.756   6.289 -1.3212  0.7249 -0.5821
20324SOL    HW273032   8.578   3.906   6.333 -0.6317  1.2497 -1.5985
20325SOL     OW73033   7.225   9.578   6.745  0.3338  0.5546  0.3207
20325SOL    HW173034   7.265   9.510   6.683  3.2581  0.0758  2.6001
20325SOL    HW273035   7.283   9.660   6.747  0.0948  0.7105  2.0718
20326SOL     OW73036   1.161   4.268   3.956 -0.0825 -0.3061  0.3492
20326SOL    HW173037   1.198   4.196   4.014 -1.8179 -0.2638  1.5561
20326SOL    HW273038   1.216   4.351   3.968  1.1156 -1.0353 -0.0325
20327SOL     OW73039   1.183   0.604   7.893 -0.1741 -0.3833  0.0267
20327SOL    HW173040   1.088   0.588   7.866  0.3520 -2.8684 -0.4055
20327SOL    HW273041   1.245   0.559   7.829  1.3083  0.8963  0.5194
20328SOL     OW73042   1.028   2.818   6.738  0.1634 -0.0328 -0.9126
20328SOL    HW173043   1.077   2.750   6.793  0.3456  0.1590 -0.8380
20328SOL    HW273044   1.039   2.798   6.641 -2.3598 -1.9465 -0.8491
20329SOL     OW73045   5.603   8.086   3.406 -0.1017 -0.6332  0.0174
20329SOL    HW173046   5.547   8.118   3.483  0.3783  0.9922 -0.2902
20329SOL    HW273047   5.680   8.148   3.393  0.4912 -1.5726 -1.0268
20330SOL     OW73048   9.570   0.950   8.986  0.0471 -0.0531  0.0778
20330SOL    HW173049   9.622   1.005   8.920 -0.6368  2.4667  1.5583
20330SOL    HW273050   9.477   0.936   8.953  0.6316 -1.6189 -0.9738
20331SOL     OW73051   0.338   4.272   7.904  0.3533 -0.2160  0.4700
20331SOL    HW173052   0.377   4.182   7.887  1.0938  0.1854  0.0244
20331SOL    HW273053   0.240   4.263   7.920  0.5831 -1.2068  1.4017
20332SOL     OW73054   0.114   7.754   0.679  0.1071  0.4378 -0.3953
20332SOL    HW173055   0.139   7.812   0.756 -0.2381 -0.5111  0.4508
20332SOL    HW273056   0.134   7.801   0.593 -0.7155  2.0383  0.2704
20333SOL     OW73057   1.893   4.020   8.529 -0.1170  0.6466  0.2067
20333SOL    HW173058   1.830   4.091   8.563 -0.2343  1.1087 -0.9396
20333SOL    HW273059   1.871   3.933   8.571 -2.7671  0.4073 -1.5869
20334SOL     OW73060   1.349   4.298   9.837 -0.0255  0.0411  0.0368
20334SOL    HW173061   1.339   4.237   9.758 -0.4724 -0.1585  0.2453
20334SOL    HW273062   1.424   4.265   9.895  0.5805  0.4297 -0.5207
20335SOL     OW73063   3.262   9.364   6.450  0.0574  0.1563 -0.1877
20335SOL    HW173064   3.224   9.275   6.475  0.9174 -0.5087 -1.2162
20335SOL    HW273065   3.313   9.356   6.365 -1.6225  2.1019 -1.4022
20336SOL     OW73066   9.899   3.062   3.646 -0.3153 -0.3408 -0.7623
20336SOL    HW173067   9.992   3.040   3.674 -0.4426 -1.5916 -1.2691
20336SOL    HW273068   9.836   3.050   3.723  0.0694  1.5460 -0.1248
20337SOL     OW73069   2.748   4.891   8.976  0.2257  0.0732  0.2594
20337SOL    HW173070   2.842   4.915   8.953  0.2197 -1.1859 -1.1133
20337SOL    HW273071   2.690   4.972   8.968  0.9406  0.5321 -0.2526
20338SOL     OW73072   0.086   4.971   9.395  0.2799 -0.1345  0.2904
20338SOL    HW173073   0.118   4.958   9.302  1.5371  0.3379  0.6465
20338SOL    HW273074   0.099   5.067   9.422  0.5928 -0.4168  1.1880
20339SOL     OW73075   1.641   8.287   8.635  0.1196 -0.2487  0.5564
20339SOL    HW173076   1.593   8.306   8.550 -1.0635  1.9602  1.6784
20339SOL    HW273077   1.728   8.336   8.636  1.1502 -2.0285 -0.2918
20340SOL     OW73078   0.490   1.655   2.304  0.2792 -0.2371  0.4807
20340SOL    HW173079   0.518   1.616   2.392  1.6483 -1.2016 -0.3663
20340SOL    HW273080   0.500   1.587   2.232 -0.9357  0.5109 -0.4265
20341SOL     OW73081   1.722   8.051   8.309  0.0099  0.6069  0.2355
20341SOL    HW173082   1.796   8.103   8.266  0.5400 -0.3431 -0.0354
20341SOL    HW273083   1.733   8.053   8.408 -0.1093  1.2125  0.2349
20342SOL     OW73084   8.565   3.062   9.396 -0.3778 -0.3603  0.1527
20342SOL    HW173085   8.609   3.011   9.470  0.0120 -0.9829 -0.4990
20342SOL    HW273086   8.617   3.146   9.377 -0.2964 -0.3636  0.3642
20343SOL     OW73087   9.241   8.458   2.411 -0.1916 -0.2867 -0.3936
20343SOL    HW173088   9.246   8.371   2.363  1.1656  0.5545 -1.8477
20343SOL    HW273089   9.194   8.525   2.354 -0.5662  0.1220  0.3974
20344SOL     OW73090   2.365   3.710   7.586  0.1656 -0.0553  0.8507
20344SOL    HW173091   2.274   3.742   7.613  0.2438 -1.1711  2.5000
20344SOL    HW273092   2.410   3.780   7.529 -1.0682  1.2050  1.4076
20345SOL     OW73093   1.684   5.575   8.700  0.0004 -0.3342 -0.2996
20345SOL    HW173094   1.588   5.579   8.727 -0.0053  0.4110 -0.4281
20345SOL    HW273095   1.708   5.658   8.649  1.2000  0.3923  1.3827
20346SOL     OW73096   2.132   3.062   8.272 -0.0868 -0.2594 -0.6176
20346SOL    HW173097   2.060   3.026   8.331  2.7005 -3.0780  1.2726
20346SOL    HW273098   2.169   2.988   8.215  1.1662  1.1531 -1.6884
20347SOL     OW73099   9.738   1.510   1.155  0.6305  0.0372 -0.0139
20347SOL    HW173100   9.742   1.478   1.250  1.4123 -0.6213 -0.2633
20347SOL    HW273101   9.696   1.439   1.098 -1.6172  1.1850  0.1397
20348SOL     OW73102   1.125   5.962   8.487  0.1886 -0.3155  0.4591
20348SOL    HW173103   1.157   5.894   8.553 -1.3989  0.9621  2.6161
20348SOL    HW273104   1.141   6.054   8.523 -0.4429  0.4081 -1.0595
20349SOL     OW73105   9.034   7.947   9.933 -0.5681  0.0291  0.3318
20349SOL    HW173106   9.104   7.902   9.877 -1.7324  0.1102 -1.2029
20349SOL    HW273107   9.064   8.039   9.955 -0.0926 -0.0129 -0.1266
20350SOL     OW73108   5.131   2.427   1.535  0.0175 -0.0944  0.1961
20350SOL    HW173109   5.221   2.388   1.553 -0.6315 -1.0900  1.3448
20350SOL    HW273110   5.133   2.478   1.449  1.8557  0.4768  0.5639
20351SOL     OW73111   1.495   7.099   0.697  0.4484 -0.1011 -0.3196
20351SOL    HW173112   1.424   7.029   0.688  0.7719 -0.4213 -0.3883
20351SOL    HW273113   1.475   7.175   0.635  1.0364 -0.9261 -1.5287
20352SOL     OW73114   1.083   5.598   9.172 -0.2005 -0.2933 -0.1581
20352SOL    HW173115   1.140   5.672   9.208  0.1322 -0.5129 -0.2333
20352SOL    HW273116   1.126   5.510   9.190  0.1595 -0.3930 -1.4019
20353SOL     OW73117   8.285   2.925   9.142  0.1176  0.1705  0.3482
20353SOL    HW173118   8.313   3.019   9.122  0.6989 -0.0605  0.0608
20353SOL    HW273119   8.269   2.915   9.241 -1.3227  0.9285  0.1940
20354SOL     OW73120   9.720   3.884   7.543 -0.0937  0.7090  0.3056
20354SOL    HW173121   9.809   3.841   7.556 -0.9240 -0.9524  0.6829
20354SOL    HW273122   9.689   3.869   7.449 -0.2113  0.8195  0.3259
20355SOL     OW73123   0.998   0.434   3.844  0.4179 -0.3394 -0.1905
20355SOL    HW173124   1.059   0.398   3.773  0.4759  0.2801 -0.4563
20355SOL    HW273125   0.921   0.482   3.802  1.1492  1.1925  0.1572
20356SOL     OW73126   0.701   5.738   8.270 -0.2189 -0.0994 -0.2022
20356SOL    HW173127   0.632   5.792   8.222  0.9001  0.6221 -1.0292
20356SOL    HW273128   0.723   5.782   8.357 -1.4286 -0.8034  0.4756
20357SOL     OW73129   5.640   1.684   5.238  0.4709  0.6737  0.2652
20357SOL    HW173130   5.687   1.678   5.326  1.0482 -1.0686 -0.1601
20357SOL    HW273131   5.578   1.606   5.227  0.9376  0.4951 -1.1901
20358SOL     OW73132   5.216   7.119   4.403  0.2208 -0.1065 -0.9429
20358SOL    HW173133   5.191   7.056   4.329  0.5566 -0.6508 -0.5999
20358SOL    HW273134   5.137   7.134   4.462  0.1093 -0.1240 -1.0891
20359SOL     OW73135   1.369   3.269   1.212 -0.3238  0.0505  0.1663
20359SOL    HW173136   1.307   3.305   1.282 -0.0867  0.4034  0.1919
20359SOL    HW273137   1.435   3.339   1.185  0.9822 -0.7580  1.1773
20360SOL     OW73138   1.305   3.826  10.062 -0.8099  0.6971 -0.0914
20360SOL    HW173139   1.376   3.897  10.056 -0.5218  0.2508 -2.4287
20360SOL    HW273140   1.340   3.749  10.116  0.2477  0.7763 -0.6427
20361SOL     OW73141   9.776   2.457   0.538  0.3143  0.4601 -0.0036
20361SOL    HW173142   9.680   2.436   0.520  0.3175 -0.2418  0.7988
20361SOL    HW273143   9.834   2.388   0.494  0.4919  1.2863 -1.1042
20362SOL     OW73144   4.604   3.394   0.108 -0.1236  0.2719  0.0080
20362SOL    HW173145   4.607   3.442   0.196  1.0624  0.1664  0.0283
20362SOL    HW273146   4.694   3.355   0.088 -1.1113 -2.1624  0.1106
20363SOL     OW73147   0.906   2.396   3.605 -0.4705 -0.0686  0.1536
20363SOL    HW173148   0.989   2.445   3.631 -1.0485  0.5514  0.8596
20363SOL    HW273149   0.911   2.371   3.508  1.1848 -1.3918  0.5701
20364SOL     OW73150   7.947   8.926   2.486 -0.2782  0.1739 -0.4271
20364SOL    HW173151   7.995   8.890   2.566 -0.5892  1.9381  0.5609
20364SOL    HW273152   7.943   9.026   2.491  0.0722  0.3476 -2.8515
20365SOL     OW73153   2.017   9.057   7.416  0.2899 -0.1332  0.3115
20365SOL    HW173154   2.086   9.093   7.478  1.2781  1.7694 -1.7968
20365SOL    HW273155   2.061   9.005   7.343 -0.8704 -2.5729  1.2856
20366SOL     OW73156   9.927   9.646   7.364  0.0935  0.0008 -0.8885
20366SOL    HW173157   9.988   9.575   7.330  0.3112 -1.0487  1.5798
20366SOL    HW273158   9.981   9.722   7.401 -0.0586 -0.8581  1.1496
20367SOL     OW73159   1.740   1.972   6.011 -0.4813  0.3720  0.1495
20367SOL    HW173160   1.695   1.914   5.943 -0.5193  1.1865 -0.5211
20367SOL    HW273161   1.670   2.024   6.061 -0.4737 -0.3984  0.9876
20368SOL     OW73162   9.635   1.790   2.067 -0.1434  0.0771  0.1297
20368SOL    HW173163   9.649   1.888   2.081  0.8241  0.1402 -1.2284
20368SOL    HW273164   9.723   1.744   2.063 -0.5440 -0.5794 -1.1761
20369SOL     OW73165   1.410   1.824   6.480 -0.3838  0.0427 -0.3429
20369SOL    HW173166   1.427   1.730   6.451  0.3295 -0.2134  0.8288
20369SOL    HW273167   1.495   1.876   6.475 -0.3761  0.1458  0.6684
20370SOL     OW73168   0.629   5.463   1.370  0.0978 -0.5219 -0.4685
20370SOL    HW173169   0.642   5.505   1.460 -2.2032 -0.2790 -0.2311
20370SOL    HW273170   0.648   5.530   1.298  0.3052 -0.2295 -0.1416
20371SOL     OW73171   5.437   0.960   4.046 -0.3278 -0.1689  0.0811
20371SOL    HW173172   5.533   0.985   4.035 -0.2248 -0.7152 -0.3324
20371SOL    HW273173   5.423   0.918   4.136  0.1644 -1.5821 -0.4819
20372SOL     OW73174   8.780   9.604   6.167 -0.2921  0.1563 -0.1002
20372SOL    HW173175   8.776   9.534   6.095  0.0186  0.6091 -0.5589
20372SOL    HW273176   8.855   9.582   6.230 -1.9830 -1.4955  1.4062
20373SOL     OW73177   4.643   2.526   2.315 -1.0862  0.2324  0.3451
20373SOL    HW173178   4.557   2.566   2.347 -0.4318  1.0290  1.1340
20373SOL    HW273179   4.642   2.520   2.215 -0.2665  4.5606 -0.0358
20374SOL     OW73180   6.769   7.805   6.642 -0.0694 -0.0883  0.2891
20374SOL    HW173181   6.787   7.825   6.738  1.2044  0.5573 -0.0688
20374SOL    HW273182   6.738   7.710   6.633 -0.3590 -0.0978  1.3494
20375SOL     OW73183   9.451   5.599   7.950  0.0959  0.5218 -0.1754
20375SOL    HW173184   9.403   5.686   7.950  0.3790  0.6770 -0.6421
20375SOL    HW273185   9.453   5.561   7.858  3.1856  1.8084 -0.7089
20376SOL     OW73186   2.429   1.375  10.000 -0.2166 -0.1490  0.4728
20376SOL    HW173187   2.440   1.276   9.993  0.7807 -0.3501  3.8455
20376SOL    HW273188   2.462   1.406  10.090 -1.1661  3.1452 -0.2412
20377SOL     OW73189   4.162   5.583   7.632 -0.3780 -0.0741  0.3136
20377SOL    HW173190   4.159   5.581   7.731 -0.0853 -1.2713  0.3137
20377SOL    HW273191   4.254   5.556   7.601 -0.2469  1.0091 -0.2640
20378SOL     OW73192   5.025   1.029   5.965  0.2694  0.2545  0.3665
20378SOL    HW173193   5.124   1.041   5.953  0.2544  0.9674  0.8581
20378SOL    HW273194   4.984   1.118   5.987 -0.3753 -0.1558  0.8440
20379SOL     OW73195   1.240   5.635   9.742  0.0402 -0.0320 -0.7036
20379SOL    HW173196   1.309   5.684   9.795 -0.9372 -1.3088  1.8155
20379SOL    HW273197   1.191   5.700   9.684  0.2369  1.6441  0.9491
20380SOL     OW73198   1.929   5.299   8.164 -0.7422 -0.5125 -0.7979
20380SOL    HW173199   1.851   5.238   8.177  0.4437 -1.6876  1.1463
20380SOL    HW273200   1.997   5.255   8.106  0.3196 -1.2948  0.9857
20381SOL     OW73201   9.520   1.081   8.339 -0.7085  0.0252 -0.1614
20381SOL    HW173202   9.519   0.981   8.332  2.4165 -0.1204  0.7562
20381SOL    HW273203   9.521   1.121   8.248 -0.1699 -0.8155 -0.5260
20382SOL     OW73204   5.011   5.655   1.653  0.7116  0.2620 -0.4327
20382SOL    HW173205   4.997   5.676   1.556  1.4255  1.3320 -0.3101
20382SOL    HW273206   5.027   5.557   1.665  2.5479  0.4150 -1.6106
20383SOL     OW73207   5.791   2.881   2.247  0.3587 -0.1059  0.3155
20383SOL    HW173208   5.780   2.974   2.281 -1.4983 -0.4022  0.5548
20383SOL    HW273209   5.777   2.879   2.148 -3.6686 -0.7438  0.8287
20384SOL     OW73210   3.251   2.649   5.155  0.0199 -0.3658 -0.1124
20384SOL    HW173211   3.217   2.709   5.082  2.3798  1.0460 -0.1037
20384SOL    HW273212   3.190   2.656   5.234 -0.0889  1.5932 -0.3311
20385SOL     OW73213   9.672   5.604   9.397  0.5252  0.5659 -0.7706
20385SOL    HW173214   9.601   5.674   9.393 -0.6935 -0.5922  0.4021
20385SOL    HW273215   9.683   5.562   9.306 -0.3523  0.6912 -0.9327
20386SOL     OW73216   5.579   0.602   2.782  0.4917  0.0212  0.4142
20386SOL    HW173217   5.661   0.548   2.797  1.9054  2.1183  0.4172
20386SOL    HW273218   5.528   0.610   2.867  1.6570  0.9014  1.0337
20387SOL     OW73219   2.552   4.279   7.535 -0.4845 -0.1698  0.3006
20387SOL    HW173220   2.559   4.375   7.560  0.4374 -0.3613  0.8081
20387SOL    HW273221   2.456   4.256   7.516 -1.0535  0.2718  2.4888
20388SOL     OW73222   2.160   4.629   0.898  0.8447 -0.4083 -0.5746
20388SOL    HW173223   2.118   4.542   0.872 -0.8753  0.5565 -1.0789
20388SOL    HW273224   2.089   4.696   0.920  2.1236  1.1464 -1.0454
20389SOL     OW73225   3.331   1.552   9.607  0.2102  0.1145 -0.0130
20389SOL    HW173226   3.338   1.650   9.589  1.3876  0.3569  1.6425
20389SOL    HW273227   3.421   1.516   9.632 -0.6787 -0.8855  1.8074
20390SOL     OW73228   3.563   1.424   1.125 -0.1394 -0.0726  0.4211
20390SOL    HW173229   3.550   1.515   1.166 -0.8833 -0.3871  0.8977
20390SOL    HW273230   3.476   1.375   1.124 -0.1707 -0.0245 -1.6954
20391SOL     OW73231   6.253   9.888   5.642 -0.1027  0.3017 -0.1761
20391SOL    HW173232   6.268   9.809   5.582  1.8846 -1.6162  2.7066
20391SOL    HW273233   6.183   9.866   5.709  0.3774  1.0161  0.5689
20392SOL     OW73234   1.172   0.847   2.890  0.2135 -0.6251 -0.1127
20392SOL    HW173235   1.157   0.927   2.832  1.7953  0.4174  0.8664
20392SOL    HW273236   1.085   0.816   2.928 -0.5182  0.1134 -1.1607
20393SOL     OW73237   8.561   2.415   5.992 -0.0311  0.1433 -0.3374
20393SOL    HW173238   8.542   2.489   5.928 -0.1584  0.0388 -0.4200
20393SOL    HW273239   8.476   2.367   6.014 -0.3445  1.6123  1.6862
20394SOL     OW73240   4.293   4.499   6.703  0.2994 -0.2086 -0.5827
20394SOL    HW173241   4.352   4.561   6.754  0.3806 -2.2080  1.8812
20394SOL    HW273242   4.198   4.530   6.710  0.4962  0.3666 -0.4683
20395SOL     OW73243   5.989   7.946   5.648  0.3182 -0.6515  0.0562
20395SOL    HW173244   5.933   8.025   5.623  2.1245  0.7915  0.4365
20395SOL    HW273245   5.940   7.890   5.714  0.3500  2.0096  2.4137
20396SOL     OW73246   9.531   4.344   9.671 -0.5484  0.1183 -0.1681
20396SOL    HW173247   9.569   4.421   9.620  2.3133 -0.5772  0.8243
20396SOL    HW273248   9.490   4.278   9.607 -1.4771  1.6068 -1.1344
20397SOL     OW73249   5.368   0.226   5.379 -0.0711  0.7543 -0.1503
20397SOL    HW173250   5.435   0.153   5.370  0.7164  1.4036  0.3984
20397SOL    HW273251   5.312   0.231   5.296  0.5818  0.2351 -0.6227
20398SOL     OW73252   8.225   4.769   8.279  0.4563 -0.3372  0.4571
20398SOL    HW173253   8.284   4.850   8.274  0.8220 -0.6313  0.0503
20398SOL    HW273254   8.144   4.784   8.223  0.3060 -0.0742  0.7397
20399SOL     OW73255   5.338   5.021   8.493 -0.4092 -0.5552  0.2833
20399SOL    HW173256   5.312   5.008   8.398 -1.0025  1.1705  0.1965
20399SOL    HW273257   5.290   5.100   8.531  1.1895 -0.1187  1.4755
20400SOL     OW73258   7.785   9.481   8.584 -0.3179  0.6704  0.3618
20400SOL    HW173259   7.764   9.432   8.669  0.7655 -1.1656 -0.4013
20400SOL    HW273260   7.711   9.467   8.519  0.5475 -1.0408 -0.2950
20401SOL     OW73261   1.183   9.200   0.133 -0.1308  0.2656  0.0060
20401SOL    HW173262   1.237   9.149   0.200  0.4956  0.6315 -0.2228
20401SOL    HW273263   1.174   9.295   0.163 -0.9452  0.1334  0.2177
20402SOL     OW73264   7.312   2.963   0.397 -0.3965 -0.0178 -0.6970
20402SOL    HW173265   7.285   2.958   0.493 -2.7482 -0.1703 -1.3431
20402SOL    HW273266   7.315   2.871   0.358  1.0958 -0.0029 -0.6443
20403SOL     OW73267   4.909   2.544   2.214 -0.3474 -0.2233 -0.4525
20403SOL    HW173268   4.899   2.546   2.114 -1.4219  0.8655 -0.3349
20403SOL    HW273269   4.819   2.536   2.256  0.0080  0.4440  0.4442
20404SOL     OW73270   9.494   7.132   2.435 -0.2943 -0.0335 -0.1644
20404SOL    HW173271   9.411   7.126   2.379 -0.8966 -2.4402  0.9127
20404SOL    HW273272   9.573   7.104   2.380 -0.6906 -1.0855 -0.2038
20405SOL     OW73273   1.603   0.955   5.786  0.1984  0.1358 -0.1578
20405SOL    HW173274   1.689   0.976   5.740  0.4000 -1.0725 -0.3353
20405SOL    HW273275   1.543   1.034   5.780  1.1911  0.8934 -0.2715
20406SOL     OW73276   2.269   2.713   1.694  0.0058  0.3053 -0.5128
20406SOL    HW173277   2.239   2.673   1.608 -1.1053 -0.3410  0.1739
20406SOL    HW273278   2.209   2.789   1.718 -1.1311 -1.0039  0.8739
20407SOL     OW73279   5.578   4.699   1.369 -0.4655 -0.2440  0.1710
20407SOL    HW173280   5.570   4.741   1.459 -1.2820  0.4178 -0.2087
20407SOL    HW273281   5.648   4.627   1.372 -1.5337 -1.2587  1.7220
20408SOL     OW73282   5.377   6.403   2.072 -0.2664  0.1063  0.3372
20408SOL    HW173283   5.314   6.360   2.136  0.6616  1.0132  1.9083
20408SOL    HW273284   5.468   6.364   2.084 -0.0182  0.5310 -0.1706
20409SOL     OW73285   3.076   1.184   2.298 -0.6744 -0.0055 -0.0585
20409SOL    HW173286   3.018   1.196   2.379  0.5003 -1.6933  1.0820
20409SOL    HW273287   3.143   1.112   2.316  1.1930  1.2766 -1.6770
20410SOL     OW73288   1.059   2.771   0.661 -0.2541 -0.1482  0.4214
20410SOL    HW173289   1.002   2.841   0.617 -0.1885 -0.1981  0.2569
20410SOL    HW273290   1.003   2.694   0.689 -0.0428 -0.8286 -1.0332
20411SOL     OW73291   8.466   8.867   6.834 -0.5720 -0.4531  0.4310
20411SOL    HW173292   8.493   8.936   6.901 -0.0014 -0.7148  0.4700
20411SOL    HW273293   8.461   8.777   6.879  0.3917 -0.7310 -0.0036
20412SOL     OW73294   6.951   1.065   7.851  0.3678  0.4735 -0.4844
20412SOL    HW173295   6.942   1.145   7.911 -0.3366  0.8294 -1.0483
20412SOL    HW273296   7.046   1.053   7.825  0.2704  2.0318 -1.5995
20413SOL     OW73297   2.906   5.407   4.190 -0.1943  0.2794 -0.0244
20413SOL    HW173298   2.861   5.343   4.127  0.5170  0.2495 -0.5092
20413SOL    HW273299   2.955   5.355   4.260 -2.5507  0.3107  1.7081
20414SOL     OW73300   7.768   6.221   1.394 -0.0771  0.0155  0.0261
20414SOL    HW173301   7.792   6.221   1.491  0.4305 -1.0046 -0.0923
20414SOL    HW273302   7.670   6.240   1.384  0.0309  0.9888  0.6833
20415SOL     OW73303   3.934   2.174   5.044 -0.3337 -0.4074 -0.1737
20415SOL    HW173304   3.901   2.183   4.950 -1.2962  0.6921  0.2572
20415SOL    HW273305   3.880   2.105   5.091 -0.7413  0.0015 -0.0384
20416SOL     OW73306   5.934   9.018   5.978 -0.0670 -0.8882 -0.3801
20416SOL    HW173307   5.905   9.032   6.072 -0.2983  0.0767 -0.5867
20416SOL    HW273308   5.908   8.927   5.948 -1.8530 -0.4725 -0.1795
20417SOL     OW73309   7.522   7.972   6.982 -0.1663  0.0778 -0.2693
20417SOL    HW173310   7.560   7.932   7.066 -0.4646 -1.2945 -0.7752
20417SOL    HW273311   7.596   8.014   6.929  0.3130 -0.6313 -0.1787
20418SOL     OW73312   7.051   1.173   3.772 -0.2169  0.2459 -0.8274
20418SOL    HW173313   7.038   1.244   3.703 -0.7552 -0.5104 -1.5024
20418SOL    HW273314   7.092   1.092   3.730 -0.5566 -0.2253 -0.2664
20419SOL     OW73315   0.880   1.592   6.172 -0.0597  0.0677  0.0266
20419SOL    HW173316   0.821   1.587   6.091  0.8504  0.2670 -0.6538
20419SOL    HW273317   0.823   1.591   6.255 -0.8657 -3.3934 -0.5084
20420SOL     OW73318   8.139   9.245   7.750  0.0376  0.1359  0.5110
20420SOL    HW173319   8.207   9.299   7.702  0.4041  0.1611  1.0504
20420SOL    HW273320   8.104   9.298   7.828 -0.3484 -0.0115  0.4425
20421SOL     OW73321   2.718   9.712   9.211  0.3582  0.4235 -0.5848
20421SOL    HW173322   2.705   9.705   9.112 -1.9723 -0.9669 -0.2319
20421SOL    HW273323   2.769   9.633   9.243 -0.2937  0.0294 -0.4923
20422SOL     OW73324   8.517   0.380   9.805  0.4822  0.1328 -0.0428
20422SOL    HW173325   8.428   0.336   9.809 -0.3576  1.8344  0.5007
20422SOL    HW273326   8.518   0.460   9.865  2.2552  0.3545 -0.3211
20423SOL     OW73327   8.295   3.622   9.318 -0.4844  0.2598  0.6642
20423SOL    HW173328   8.233   3.614   9.239  0.3068  0.8025 -0.0187
20423SOL    HW273329   8.355   3.700   9.305  1.7634 -1.4841  0.3613
20424SOL     OW73330   0.638   1.339   1.270 -0.1545  0.5690  0.1362
20424SOL    HW173331   0.615   1.317   1.364  0.9053 -0.7874  0.0775
20424SOL    HW273332   0.592   1.275   1.208 -1.0798  1.6265 -0.3036
20425SOL     OW73333   8.585   4.656   1.516  0.2747 -0.1076 -0.0555
20425SOL    HW173334   8.539   4.710   1.587  1.7916 -1.5671  2.1086
20425SOL    HW273335   8.559   4.560   1.526  1.6093 -0.5282 -0.6156
20426SOL     OW73336   3.194   3.907   2.623  0.8677 -0.4273  0.0149
20426SOL    HW173337   3.169   3.827   2.569  0.6279 -0.8455  0.7289
20426SOL    HW273338   3.132   3.915   2.701  0.7371  0.5982 -0.1856
20427SOL     OW73339   8.954   3.071   3.851  0.4485  0.2318 -0.3673
20427SOL    HW173340   8.934   3.035   3.760  0.9552  0.0170 -0.3948
20427SOL    HW273341   9.053   3.087   3.860  0.7706 -2.3822  1.0852
20428SOL     OW73342   5.192   1.751   1.184 -0.2579  0.4679  0.1299
20428SOL    HW173343   5.259   1.722   1.252  0.2542  0.0175 -0.5557
20428SOL    HW273344   5.158   1.843   1.207 -0.7796 -0.0530  1.4843
20429SOL     OW73345   9.464   0.775   9.838  0.3911 -0.3263  0.4301
20429SOL    HW173346   9.432   0.715   9.911  0.8489 -1.5622 -0.3696
20429SOL    HW273347   9.395   0.779   9.766  0.5862 -0.3259  0.2422
20430SOL     OW73348   3.135   3.769   1.673  0.0314 -0.5471  0.0440
20430SOL    HW173349   3.148   3.806   1.766 -1.1485 -0.5994  0.2374
20430SOL    HW273350   3.214   3.793   1.617  0.7700 -0.5299  1.0728
20431SOL     OW73351   6.854   9.106   5.418 -0.4457 -0.3325 -0.5960
20431SOL    HW173352   6.902   9.040   5.476 -0.6383 -1.1272 -1.3271
20431SOL    HW273353   6.802   9.169   5.476 -0.7523 -1.2019  0.0950
20432SOL     OW73354   6.777   6.682   1.746  0.1754  0.7204  0.2201
20432SOL    HW173355   6.785   6.584   1.728  0.5984  0.9769 -1.0201
20432SOL    HW273356   6.867   6.718   1.771  0.3382  1.1001 -0.9109
20433SOL     OW73357   2.725   8.739   3.482 -0.6585 -0.3732 -0.2658
20433SOL    HW173358   2.775   8.733   3.569 -0.6218  1.0658 -0.1781
20433SOL    HW273359   2.779   8.695   3.410 -1.0070 -2.1798  0.5693
20434SOL     OW73360   3.143   5.059   5.247  0.1752 -0.7094  0.2275
20434SOL    HW173361   3.175   5.050   5.342 -0.7637 -0.2367  0.5927
20434SOL    HW273362   3.218   5.095   5.191  0.1182  1.0154  1.2036
20435SOL     OW73363   9.517   2.886   9.299 -0.1224 -0.2819  0.1678
20435SOL    HW173364   9.461   2.939   9.235 -1.6271 -1.7940  0.1860
20435SOL    HW273365   9.601   2.856   9.253  0.1388  1.0160 -0.2258
20436SOL     OW73366   8.588   9.124   1.299  0.2051 -0.2342  0.2746
20436SOL    HW173367   8.636   9.040   1.323  1.8428  0.1170 -1.6103
20436SOL    HW273368   8.648   9.202   1.312  1.9108 -0.1363 -6.1865
20437SOL     OW73369   5.143   7.703   7.729 -0.0740 -0.5244  0.6117
20437SOL    HW173370   5.057   7.753   7.721  0.4263  0.2224 -0.1903
20437SOL    HW273371   5.203   7.727   7.653  0.5106 -1.6998  0.6872
20438SOL     OW73372   2.610   6.669   3.870  0.3382  0.6383 -0.0781
20438SOL    HW173373   2.691   6.683   3.927  0.3657  1.5493 -0.3520
20438SOL    HW273374   2.572   6.757   3.842  0.1058  0.1979 -1.1768
20439SOL     OW73375   7.894   4.691   3.128 -0.3749 -0.1529 -0.3087
20439SOL    HW173376   7.899   4.791   3.119 -0.7828 -0.0774  0.2788
20439SOL    HW273377   7.931   4.664   3.217 -0.4051 -0.5085 -0.4067
20440SOL     OW73378   8.723   7.220   0.592 -0.4727  0.6209  0.1041
20440SOL    HW173379   8.655   7.291   0.575 -1.2372 -0.0839  0.1731
20440SOL    HW273380   8.788   7.216   0.517 -2.1683 -0.5933 -1.3429
20441SOL     OW73381   0.657   6.531   6.155 -0.6444  0.0873 -0.0573
20441SOL    HW173382   0.679   6.531   6.253 -1.2417  1.9638  0.0887
20441SOL    HW273383   0.651   6.436   6.123  3.7261 -0.5648  0.7587
20442SOL     OW73384   1.092   9.062   2.619 -0.2858  0.1440  0.1400
20442SOL    HW173385   1.009   9.116   2.602  0.3329  1.3471  0.8490
20442SOL    HW273386   1.070   8.965   2.614 -1.3362  0.4593 -1.5374
20443SOL     OW73387   5.363   1.187   5.444  0.5893 -0.3841 -0.2248
20443SOL    HW173388   5.386   1.094   5.415  2.4592 -0.7475  2.2747
20443SOL    HW273389   5.311   1.183   5.530 -1.9067  0.8042 -1.6037
20444SOL     OW73390   1.328   0.865   5.094  0.0747  0.4560  0.2391
20444SOL    HW173391   1.356   0.869   5.190 -2.7722 -3.1222  1.3106
20444SOL    HW273392   1.254   0.931   5.079  0.1992  0.6862  0.6251
20445SOL     OW73393   8.847   3.184   2.613  0.1002  0.9348  0.1125
20445SOL    HW173394   8.922   3.162   2.549 -1.1418 -0.5666 -0.8589
20445SOL    HW273395   8.882   3.181   2.706  1.2794  0.2964 -0.3327
20446SOL     OW73396   7.512   1.602   8.228  0.3394 -1.0296 -0.1644
20446SOL    HW173397   7.475   1.576   8.317 -0.7139  0.3246 -0.1965
20446SOL    HW273398   7.602   1.646   8.240 -0.4137  0.4060  0.3730
20447SOL     OW73399   1.945   3.350   6.859 -0.1352  0.3232 -0.2009
20447SOL    HW173400   1.923   3.282   6.928  1.7482  1.1115  1.2169
20447SOL    HW273401   1.996   3.425   6.900  0.1606  1.2996 -2.2558
20448SOL     OW73402   7.343   3.246   2.786 -0.7220 -0.5424  0.3705
20448SOL    HW173403   7.316   3.337   2.817  2.2814  0.4369  0.2484
20448SOL    HW273404   7.265   3.201   2.742 -2.1542  2.0693  0.1549
20449SOL     OW73405   7.780   7.231   5.125 -0.1326  0.2115  0.0414
20449SOL    HW173406   7.752   7.135   5.125  1.2724 -0.2115  0.2655
20449SOL    HW273407   7.790   7.262   5.031 -0.6992  0.1766 -0.0342
20450SOL     OW73408   8.871   4.503   7.845  0.1098 -0.0012 -0.4072
20450SOL    HW173409   8.929   4.425   7.822 -0.4342 -0.4999 -0.0985
20450SOL    HW273410   8.790   4.471   7.896  0.7088  0.9399  1.1714
20451SOL     OW73411   8.266   9.087   2.465  0.0884 -0.4437  0.3883
20451SOL    HW173412   8.267   9.005   2.522  0.6095 -1.4585 -1.0627
20451SOL    HW273413   8.266   9.061   2.369 -4.2712  1.1824 -0.1820
20452SOL     OW73414   1.450   1.538   5.134 -0.4901  0.0329  0.2321
20452SOL    HW173415   1.451   1.497   5.043 -0.6572  1.8577 -0.6120
20452SOL    HW273416   1.515   1.490   5.192 -2.0212 -2.6160 -0.1637
20453SOL     OW73417   3.700   7.459   8.509 -0.1178 -0.3201  0.2034
20453SOL    HW173418   3.727   7.391   8.441 -0.3041 -0.8289  0.6255
20453SOL    HW273419   3.606   7.441   8.538  0.4509 -1.0347  1.6814
20454SOL     OW73420   4.985   3.980   1.879  0.1125 -0.6584  0.0268
20454SOL    HW173421   5.072   3.939   1.851 -0.3821 -0.1682 -2.2766
20454SOL    HW273422   4.914   3.953   1.815 -0.4747  2.8359 -0.8918
20455SOL     OW73423   8.355   2.054   3.326  0.2404  0.1138 -0.3186
20455SOL    HW173424   8.427   1.985   3.334 -0.7453 -1.0650 -1.3708
20455SOL    HW273425   8.274   2.025   3.377 -0.1166  0.5863 -0.6069
20456SOL     OW73426   0.614   6.493   4.909  0.2295 -0.3259  0.0069
20456SOL    HW173427   0.697   6.535   4.946 -0.1329 -0.9340  1.5938
20456SOL    HW273428   0.612   6.396   4.936 -1.9516  0.1619  1.7407
20457SOL     OW73429   6.265   4.255   8.251  0.3053 -0.3221  0.5798
20457SOL    HW173430   6.278   4.351   8.278  0.0941 -0.5387  1.4578
20457SOL    HW273431   6.351   4.205   8.266  0.9163  0.0757 -1.4024
20458SOL     OW73432   8.199   5.288   3.859  0.1503 -0.2112  0.0988
20458SOL    HW173433   8.214   5.204   3.910  0.6886 -0.4520 -0.4532
20458SOL    HW273434   8.286   5.323   3.825 -0.0337  0.7446  0.6011
20459SOL     OW73435   3.231   5.749   6.151 -0.1320 -0.1101 -0.4961
20459SOL    HW173436   3.265   5.843   6.156 -1.4464  0.3341  0.2548
20459SOL    HW273437   3.140   5.744   6.192  0.3433 -1.9199  0.3835
20460SOL     OW73438   4.715   4.049   1.513 -0.3595 -0.5801 -0.2228
20460SOL    HW173439   4.706   4.075   1.416  0.8941  0.8783  0.0190
20460SOL    HW273440   4.646   4.097   1.566  1.3975  1.7367  0.0985
20461SOL     OW73441   7.184   2.304   1.133 -0.1066 -0.0024  0.2806
20461SOL    HW173442   7.112   2.327   1.068 -2.2793 -3.1701  1.4396
20461SOL    HW273443   7.224   2.388   1.171 -0.6023  1.8436 -3.0901
20462SOL     OW73444   0.469   2.684   9.513 -0.6372 -0.2769 -0.1379
20462SOL    HW173445   0.544   2.635   9.468 -0.3407 -0.1266  0.1854
20462SOL    HW273446   0.507   2.755   9.573 -1.0156 -0.8058  0.7311
20463SOL     OW73447   0.149   7.715   7.606 -0.1877 -0.2957  0.5947
20463SOL    HW173448   0.206   7.659   7.666  1.4236  2.9376  2.2488
20463SOL    HW273449   0.053   7.701   7.628  0.1573 -2.5733  0.7605
20464SOL     OW73450   2.403   1.027   7.131 -0.4203 -0.6951  0.5909
20464SOL    HW173451   2.346   0.955   7.090 -0.7741 -0.0351 -0.0786
20464SOL    HW273452   2.344   1.089   7.183 -0.6205  1.1423 -1.7334
20465SOL     OW73453   3.293   5.473   9.609  0.0779  0.0037  0.1401
20465SOL    HW173454   3.383   5.450   9.646  0.3494 -0.7155 -0.9587
20465SOL    HW273455   3.284   5.436   9.516 -0.8833  1.1415 -0.2275
20466SOL     OW73456   2.335   6.084   1.534 -0.3444 -0.3599  0.2520
20466SOL    HW173457   2.278   6.113   1.610 -0.7514 -0.1304 -0.1417
20466SOL    HW273458   2.388   6.162   1.500  0.9626 -0.7824  1.2615
20467SOL     OW73459   1.095   7.508   6.406 -0.2337  0.0073  0.2439
20467SOL    HW173460   1.038   7.449   6.349  0.4165 -0.2280 -0.1710
20467SOL    HW273461   1.042   7.588   6.435  0.2882  1.7520 -3.2937
20468SOL     OW73462   6.107   7.410   4.309  0.3931  0.3970 -0.0156
20468SOL    HW173463   6.044   7.371   4.376  1.6409 -1.9894 -0.1713
20468SOL    HW273464   6.161   7.482   4.351  0.5472 -0.4761  1.2975
20469SOL     OW73465   3.490   7.109   7.849 -0.0979  0.5720 -0.4266
20469SOL    HW173466   3.426   7.109   7.926 -1.2675  0.6486 -1.3977
20469SOL    HW273467   3.478   7.025   7.796  1.3366  0.0924 -0.0217
20470SOL     OW73468   1.662   7.349   6.857 -0.2160  0.5269 -0.2514
20470SOL    HW173469   1.633   7.317   6.767 -0.7366  0.1171  0.0629
20470SOL    HW273470   1.673   7.272   6.919 -2.0840  0.9919  0.6853
20471SOL     OW73471   2.870   1.338   2.434 -0.3897 -0.2269 -0.5645
20471SOL    HW173472   2.840   1.414   2.377 -0.5223 -0.2355 -0.5063
20471SOL    HW273473   2.795   1.273   2.446  0.3385 -1.4504 -2.4001
20472SOL     OW73474   5.039   5.201   9.526 -0.4472 -0.3812  0.0898
20472SOL    HW173475   5.071   5.178   9.434  1.0533  1.2855  0.1672
20472SOL    HW273476   4.980   5.281   9.522  0.8661  0.6235  0.7509
20473SOL     OW73477   0.431   8.104   6.748 -0.6248  0.3812 -0.1142
20473SOL    HW173478   0.345   8.127   6.702  0.0127  2.0055 -0.5488
20473SOL    HW273479   0.473   8.026   6.703 -1.0141  0.6811 -1.0178
20474SOL     OW73480   8.925   7.666   9.082  0.3080  0.5936 -0.0266
20474SOL    HW173481   8.912   7.684   9.179  0.8026  1.8938 -0.1820
20474SOL    HW273482   8.962   7.748   9.038  2.2794 -0.7253 -0.8840
20475SOL     OW73483   8.881   4.187   4.373  0.3198 -0.2176  0.5689
20475SOL    HW173484   8.924   4.271   4.340 -0.1613 -0.4701 -0.7192
20475SOL    HW273485   8.906   4.173   4.469  1.4737  0.6948  0.4199
20476SOL     OW73486   4.540   7.773   6.603  0.1747 -0.0655 -0.2804
20476SOL    HW173487   4.562   7.870   6.610 -0.8493  0.1480  0.0576
20476SOL    HW273488   4.441   7.761   6.597  0.1555 -1.2030  1.8237
20477SOL     OW73489   9.274   9.101   9.087  0.2374  0.4913 -0.3102
20477SOL    HW173490   9.179   9.072   9.074 -0.0015  0.2228  1.8134
20477SOL    HW273491   9.315   9.049   9.162  1.8086  1.1906 -0.6586
20478SOL     OW73492   2.860   9.029   3.824 -0.1980  1.0054  0.1534
20478SOL    HW173493   2.832   8.964   3.895  1.1751  0.7141  0.4463
20478SOL    HW273494   2.781   9.056   3.770 -0.9761 -0.0349  0.7618
20479SOL     OW73495   4.740   5.384   2.242 -0.2977 -0.0735  0.1132
20479SOL    HW173496   4.727   5.426   2.153 -0.2036  0.5249  0.3778
20479SOL    HW273497   4.659   5.329   2.266 -0.1086 -0.6564 -0.5598
20480SOL     OW73498   7.695   2.895   9.372 -0.3521  0.5038  0.0531
20480SOL    HW173499   7.686   2.914   9.274  0.1453 -0.4300 -0.1810
20480SOL    HW273500   7.791   2.873   9.393 -0.2717  1.5934  0.9186
20481SOL     OW73501   3.387   2.719   7.517  0.5736 -0.7895  0.3282
20481SOL    HW173502   3.357   2.792   7.456 -2.3041 -2.2134 -0.0628
20481SOL    HW273503   3.447   2.656   7.468  0.5685 -0.3683 -0.2182
20482SOL     OW73504   7.767   8.997   3.930 -0.3804 -0.1038 -0.0758
20482SOL    HW173505   7.694   9.020   3.994  1.5039 -1.3948  2.6486
20482SOL    HW273506   7.728   8.951   3.850 -2.7548  1.2859  0.2251
20483SOL     OW73507   0.373   3.981   8.232  0.0170  0.5709 -0.0767
20483SOL    HW173508   0.427   4.025   8.303  0.7955  0.8711 -0.8421
20483SOL    HW273509   0.279   3.969   8.264  0.4204  0.4563  1.0994
20484SOL     OW73510   8.283   7.403   4.265 -0.5992  0.1870 -0.0131
20484SOL    HW173511   8.324   7.413   4.174  0.5392  1.6915  0.6420
20484SOL    HW273512   8.347   7.437   4.334 -1.5330 -0.7559  1.3427
20485SOL     OW73513   9.570   8.874   5.593  0.1389 -0.0641 -0.5808
20485SOL    HW173514   9.601   8.870   5.498  0.1720 -0.0636 -0.5694
20485SOL    HW273515   9.566   8.782   5.632  0.5108 -0.0316 -0.4611
20486SOL     OW73516   4.750   5.310   6.464 -0.1987  0.7730 -0.3163
20486SOL    HW173517   4.792   5.336   6.377  0.2996  0.1601 -0.2691
20486SOL    HW273518   4.680   5.240   6.447  0.7682 -0.2610 -0.0999
20487SOL     OW73519   2.092   8.008   2.955  0.4142 -0.0149 -0.1739
20487SOL    HW173520   2.052   8.057   3.033 -0.8281  0.4271 -1.0872
20487SOL    HW273521   2.103   8.070   2.878  0.3268 -0.7805 -0.8157
20488SOL     OW73522   4.776   5.337   1.683 -0.0689  0.0578  0.2140
20488SOL    HW173523   4.733   5.417   1.641  0.5135 -0.3447 -1.1881
20488SOL    HW273524   4.734   5.319   1.772  0.1488  2.2307  0.7936
20489SOL     OW73525   9.435   4.674   9.379 -0.3691 -0.2527  0.5509
20489SOL    HW173526   9.376   4.653   9.301 -1.2008  0.8779  0.8535
20489SOL    HW273527   9.497   4.749   9.355 -0.3072 -0.2112  0.8317
20490SOL     OW73528   1.968   0.133   9.946  0.2968 -0.0103 -0.1723
20490SOL    HW173529   1.927   0.224   9.937  0.0142 -0.0516  0.6139
20490SOL    HW273530   2.000   0.102   9.857  0.9869  1.1374 -0.3303
20491SOL     OW73531   1.498   3.107   8.299  0.4725 -0.0895 -0.5122
20491SOL    HW173532   1.472   3.202   8.285 -0.9662 -0.1548  1.4341
20491SOL    HW273533   1.584   3.104   8.351  0.9568  0.1314 -1.2897
20492SOL     OW73534   2.104   5.098   1.883  0.2860 -0.6159 -0.3686
20492SOL    HW173535   2.196   5.060   1.870  0.2280 -0.7401 -0.4280
20492SOL    HW273536   2.051   5.084   1.799 -0.4586 -2.4450  0.3638
20493SOL     OW73537   6.897   0.645   6.821 -0.1697  0.3602 -0.1598
20493SOL    HW173538   6.914   0.741   6.800 -0.0907  0.1383 -1.1432
20493SOL    HW273539   6.947   0.587   6.756 -0.8127 -0.3315 -0.0486
20494SOL     OW73540   4.356   1.637   0.117 -0.2475 -0.4247  0.6540
20494SOL    HW173541   4.261   1.658   0.138 -0.2848 -0.5086  0.5714
20494SOL    HW273542   4.382   1.552   0.162 -0.3008 -0.5592  0.4299
20495SOL     OW73543   3.345   7.690   7.797  0.0220  0.8090  0.4104
20495SOL    HW173544   3.362   7.732   7.886 -0.1080 -1.1477  1.3881
20495SOL    HW273545   3.301   7.756   7.736 -0.9729  1.8059  2.1861
20496SOL     OW73546   5.866   6.734   0.938 -0.1745 -0.5607 -0.0122
20496SOL    HW173547   5.815   6.800   0.995  0.1936 -1.0233  0.8560
20496SOL    HW273548   5.821   6.726   0.849 -1.6509 -0.9787  0.7509
20497SOL     OW73549   5.050   1.448   8.803  0.1182  0.0411 -0.0483
20497SOL    HW173550   5.037   1.404   8.714 -0.1698  0.2400 -0.1077
20497SOL    HW273551   5.003   1.536   8.803 -1.0858 -0.5860  0.7772
20498SOL     OW73552   0.000   2.279   8.781 -0.2827  0.0016 -0.0026
20498SOL    HW173553  -0.026   2.341   8.855 -0.2125 -0.0365  0.0554
20498SOL    HW273554   0.062   2.326   8.718  1.6254 -0.7110  1.2834
20499SOL     OW73555   6.069   1.296   1.125  0.7417  0.0067 -0.0230
20499SOL    HW173556   6.099   1.252   1.041  0.8082 -0.3819  0.2047
20499SOL    HW273557   6.033   1.387   1.104  0.5871 -0.1611 -0.4946
20500SOL     OW73558   8.182   0.731   6.370  0.3592  0.1237  0.0626
20500SOL    HW173559   8.157   0.822   6.403  0.6613 -0.1905  1.1768
20500SOL    HW273560   8.213   0.738   6.275  0.0804  1.1368  0.0372
20501SOL     OW73561   1.478   8.439   9.481 -0.3234 -0.1468 -0.1224
20501SOL    HW173562   1.460   8.344   9.505 -1.4741 -0.1243 -0.8973
20501SOL    HW273563   1.399   8.495   9.505  1.2531  1.0314  2.6012
20502SOL     OW73564   4.617   7.971   5.500  0.5239 -0.2155  0.4397
20502SOL    HW173565   4.612   7.906   5.424  2.1651 -1.1337  1.0951
20502SOL    HW273566   4.527   7.979   5.543  0.1359 -1.5093 -0.1076
20503SOL     OW73567   7.592   7.530   4.960 -0.5774 -0.0608 -0.3433
20503SOL    HW173568   7.567   7.447   5.009 -0.7607  0.6150  0.7431
20503SOL    HW273569   7.651   7.586   5.019  0.8577 -0.1487 -1.6544
20504SOL     OW73570   3.727   0.721   5.904  0.4386  0.0744  0.4357
20504SOL    HW173571   3.704   0.745   5.999  0.2304 -0.0498  0.4173
20504SOL    HW273572   3.713   0.623   5.890  0.5845  0.0715  0.3091
20505SOL     OW73573   0.122   1.719   3.454  0.1272  0.2425 -0.1490
20505SOL    HW173574   0.171   1.706   3.540  1.5940 -3.3994 -1.4377
20505SOL    HW273575   0.168   1.790   3.399  2.0675 -0.8363  0.0369
20506SOL     OW73576   3.906   4.854   9.907 -0.1682  0.0760  0.0315
20506SOL    HW173577   3.837   4.867   9.979 -0.6575 -0.9893 -0.2313
20506SOL    HW273578   3.912   4.757   9.884  2.9360 -0.1473  1.5275
20507SOL     OW73579   4.224   9.142   3.858 -0.5620  0.8447 -0.6345
20507SOL    HW173580   4.135   9.147   3.902 -0.3230  0.5276 -0.1055
20507SOL    HW273581   4.285   9.212   3.897 -0.0461 -0.0837  0.2478
20508SOL     OW73582   8.891   3.049   9.139 -0.5774 -0.1007 -0.5568
20508SOL    HW173583   8.973   3.000   9.168 -0.0049 -0.9741 -3.4624
20508SOL    HW273584   8.869   3.119   9.206  2.8986  0.5618 -0.0036
20509SOL     OW73585   1.936   9.421   9.794  0.7541  0.2898  0.0073
20509SOL    HW173586   1.986   9.340   9.826 -0.3557 -0.2825  0.3117
20509SOL    HW273587   1.895   9.401   9.705  0.3054  0.4475  0.1798
20510SOL     OW73588   0.967   5.627   1.305 -0.0918  0.0016  0.3730
20510SOL    HW173589   0.929   5.622   1.397 -0.5132  0.1862  0.2072
20510SOL    HW273590   0.948   5.717   1.266  0.4996  0.0942  0.2844
20511SOL     OW73591   1.288   7.910   9.192  0.2467  0.2011  0.1863
20511SOL    HW173592   1.338   7.825   9.183  0.4196  0.4297 -1.0280
20511SOL    HW273593   1.221   7.918   9.119  0.1159  1.0291  0.3880
20512SOL     OW73594   1.735   2.702   1.578  0.2598 -0.2843 -0.3253
20512SOL    HW173595   1.686   2.673   1.660 -1.8457 -2.7146 -2.3114
20512SOL    HW273596   1.762   2.621   1.525 -0.5341  1.2183 -3.1734
20513SOL     OW73597   8.973   2.855   8.473 -0.3912  0.3154  0.5836
20513SOL    HW173598   9.019   2.935   8.435  0.1898 -0.2004  0.1805
20513SOL    HW273599   8.880   2.850   8.437  0.7343 -1.1740 -2.2805
20514SOL     OW73600   1.980   7.050   0.907  0.2296  0.2804 -0.2265
20514SOL    HW173601   1.895   7.029   0.859 -0.2530  0.6826  0.4331
20514SOL    HW273602   2.052   7.072   0.841  0.2982 -1.7517 -0.8579
20515SOL     OW73603   4.633   0.057   6.368  0.2704  0.5097  0.2505
20515SOL    HW173604   4.640   0.007   6.281 -1.1912  2.2288 -0.8810
20515SOL    HW273605   4.665  -0.002   6.442  1.2081 -1.1149 -1.3934
20516SOL     OW73606   3.852   1.602   9.413  0.1595  0.0800  0.7302
20516SOL    HW173607   3.788   1.610   9.336  0.9190 -0.5284  0.0315
20516SOL    HW273608   3.817   1.536   9.479  0.5125 -0.9626 -0.1083
20517SOL     OW73609   2.657   4.946   6.072  0.0507  0.1021 -0.3132
20517SOL    HW173610   2.598   4.866   6.083 -2.0776  1.8126  0.9665
20517SOL    HW273611   2.749   4.916   6.044 -0.7920 -2.7452 -0.1491
20518SOL     OW73612   8.758   1.865   3.014 -0.1712  0.1517  0.3289
20518SOL    HW173613   8.827   1.849   2.943  1.2823  1.6435  1.3633
20518SOL    HW273614   8.702   1.944   2.989 -1.5490 -1.0825 -0.5281
20519SOL     OW73615   9.230   0.935   5.148 -0.3093  0.1883 -0.0931
20519SOL    HW173616   9.287   0.922   5.067 -1.7840 -0.7487 -1.0036
20519SOL    HW273617   9.284   0.977   5.221  1.5782 -0.8043 -0.8989
20520SOL     OW73618   2.521   4.791   4.458 -0.1763  0.0712  0.1810
20520SOL    HW173619   2.512   4.736   4.374  0.4555 -1.1278  0.8804
20520SOL    HW273620   2.476   4.879   4.445 -2.4032 -1.1288 -0.5108
20521SOL     OW73621   9.259   4.558   2.049  0.2350 -0.6601  0.0692
20521SOL    HW173622   9.320   4.636   2.030  0.4558 -0.9695 -0.4983
20521SOL    HW273623   9.178   4.564   1.990  0.4826 -1.1203 -0.3201
20522SOL     OW73624   7.963   4.908   7.161 -0.2604 -0.5031  0.5427
20522SOL    HW173625   7.938   4.817   7.128 -0.8749 -0.7022  1.5268
20522SOL    HW273626   7.915   4.926   7.247  0.8742  0.2178  1.0405
20523SOL     OW73627   1.683   2.274   8.352 -0.5385 -0.1452 -0.4084
20523SOL    HW173628   1.712   2.351   8.408 -0.0839  0.3546 -1.3083
20523SOL    HW273629   1.658   2.197   8.410  1.3532 -0.1363  0.4443
20524SOL     OW73630   9.927   8.943   6.296  0.8263  0.1543  0.0622
20524SOL    HW173631   9.992   8.919   6.368 -0.5621 -2.6240  0.4504
20524SOL    HW273632   9.854   9.000   6.334  0.0316 -1.4035  0.9097
20525SOL     OW73633   6.961   0.562   9.149  0.4590 -0.4961  0.0997
20525SOL    HW173634   7.048   0.512   9.159  1.3343  1.4621  3.2204
20525SOL    HW273635   6.966   0.622   9.069  1.9175 -0.5438  0.1383
20526SOL     OW73636   3.666   9.550   1.725 -0.6678 -1.0790 -0.5550
20526SOL    HW173637   3.588   9.519   1.779  0.1421 -0.1216  1.1934
20526SOL    HW273638   3.653   9.645   1.700  0.5256 -0.5348  0.8526
20527SOL     OW73639   4.263   9.082   4.476 -0.3549 -0.4385  0.2349
20527SOL    HW173640   4.181   9.118   4.431 -0.6852 -0.2820  0.9651
20527SOL    HW273641   4.318   9.032   4.409 -0.6602  0.1125 -0.4325
20528SOL     OW73642   1.135   7.143   9.659 -0.1967 -0.0807  0.1767
20528SOL    HW173643   1.224   7.099   9.650 -0.0917  0.4072 -1.3227
20528SOL    HW273644   1.082   7.096   9.729 -0.0079 -2.5128 -1.2458
20529SOL     OW73645   7.868   3.359   1.312  0.3039  0.5765  0.3604
20529SOL    HW173646   7.789   3.311   1.351  1.2802 -0.0565  1.5693
20529SOL    HW273647   7.900   3.428   1.377  2.0554 -0.6017  0.7502
20530SOL     OW73648   7.406   5.714   8.496 -0.8695  0.4252  0.0652
20530SOL    HW173649   7.339   5.677   8.560  1.5407  0.5086  2.6875
20530SOL    HW273650   7.461   5.784   8.541  0.9092  0.4692 -2.0804
20531SOL     OW73651   1.693   2.164   6.717 -0.2042 -0.2292  0.4918
20531SOL    HW173652   1.762   2.185   6.648  0.1361 -1.7810  0.3395
20531SOL    HW273653   1.708   2.071   6.751 -0.1312  0.6575  2.9359
20532SOL     OW73654   9.871   3.333   7.678 -0.1145 -0.4824  0.3667
20532SOL    HW173655   9.852   3.285   7.593  2.7877 -0.8469 -0.1368
20532SOL    HW273656   9.930   3.276   7.735  2.2272  1.8689  0.3817
20533SOL     OW73657   1.028   9.162   7.281  0.9858  0.1357  0.1073
20533SOL    HW173658   1.078   9.116   7.354  1.2941 -0.7690 -0.6561
20533SOL    HW273659   1.091   9.183   7.206  0.4577  0.0221 -0.3713
20534SOL     OW73660   0.525   6.352   2.335  0.4686 -0.0598 -0.0334
20534SOL    HW173661   0.454   6.283   2.327  0.1072 -0.0935  2.9754
20534SOL    HW273662   0.610   6.317   2.295 -0.3645 -1.2768 -0.7524
20535SOL     OW73663   2.103   0.225   0.118  0.2654 -0.0882 -0.3062
20535SOL    HW173664   2.123   0.182   0.030 -0.3891 -0.1184 -0.4470
20535SOL    HW273665   2.171   0.197   0.185 -0.4071 -1.7078 -0.2741
20536SOL     OW73666   8.499   8.118   4.761  0.0875  0.2175 -0.3864
20536SOL    HW173667   8.519   8.191   4.827 -1.7064 -0.5696  1.0885
20536SOL    HW273668   8.418   8.143   4.708 -0.7133 -0.8140  0.3374
20537SOL     OW73669   4.065   9.615   5.395 -0.2723  0.2201 -0.5468
20537SOL    HW173670   4.109   9.550   5.456 -0.1667  0.7617 -0.0346
20537SOL    HW273671   4.116   9.701   5.396  0.7302 -0.3161 -2.7425
20538SOL     OW73672   2.202   2.616   7.222 -0.2926  0.7051  0.3357
20538SOL    HW173673   2.278   2.669   7.184 -0.3609 -1.1514 -2.6131
20538SOL    HW273674   2.238   2.534   7.266 -0.4807  0.4539  0.0290
20539SOL     OW73675   0.963   2.856   1.852  0.0756  0.2749  0.0959
20539SOL    HW173676   0.970   2.756   1.854 -0.2714  0.2333 -0.6661
20539SOL    HW273677   0.867   2.882   1.844  0.3365  0.6352 -1.9754
20540SOL     OW73678   8.488   6.743   0.529  0.4258 -0.0898 -0.4063
20540SOL    HW173679   8.561   6.808   0.508 -0.6572  0.9128 -1.1134
20540SOL    HW273680   8.468   6.687   0.448  0.1733 -0.1252 -0.3230
20541SOL     OW73681   0.280   8.288   7.459 -0.5187 -0.1594  0.0408
20541SOL    HW173682   0.286   8.213   7.525 -0.9159 -1.0241 -0.8842
20541SOL    HW273683   0.320   8.371   7.498  0.5432 -1.0273  0.8298
20542SOL     OW73684   2.491   4.488   5.608  0.1498  0.4546  0.1861
20542SOL    HW173685   2.463   4.490   5.704 -0.0006 -0.1196  0.1522
20542SOL    HW273686   2.586   4.519   5.600  0.5903 -0.7794  0.6647
20543SOL     OW73687   0.203   2.304   9.110 -0.0901 -0.5943  0.2244
20543SOL    HW173688   0.169   2.389   9.150  0.8115 -0.9072  1.6941
20543SOL    HW273689   0.253   2.325   9.026 -0.1599  0.2947  0.3963
20544SOL     OW73690   0.221   3.292   9.718 -0.4153 -0.1051  0.0891
20544SOL    HW173691   0.285   3.321   9.789 -0.0082  0.8568 -0.6655
20544SOL    HW273692   0.162   3.368   9.693 -0.5842 -0.4533 -0.5802
20545SOL     OW73693   0.376   8.397   7.029  0.6265 -0.0249  0.2778
20545SOL    HW173694   0.452   8.386   6.965  1.6172  1.4858  1.1928
20545SOL    HW273695   0.290   8.387   6.979  1.3979 -0.4068 -1.0000
20546SOL     OW73696   6.723   1.340   2.034 -0.1896  0.7588 -0.2280
20546SOL    HW173697   6.789   1.302   2.100 -0.4188  0.6294 -0.0759
20546SOL    HW273698   6.631   1.336   2.072 -0.7138 -1.8438 -1.6467
20547SOL     OW73699   7.093   7.787   6.937 -0.0342  0.3825 -0.2669
20547SOL    HW173700   7.009   7.827   6.900  0.6757  0.9954 -1.2487
20547SOL    HW273701   7.171   7.844   6.912  0.6688 -0.1598  0.6754
20548SOL     OW73702   8.160   0.745   3.447 -0.0173  0.0546  0.0179
20548SOL    HW173703   8.140   0.695   3.531  0.3481  1.3413  0.8946
20548SOL    HW273704   8.253   0.722   3.416 -0.4129 -0.9466 -0.4206
20549SOL     OW73705   6.248   6.020   0.551 -0.5114 -0.8097 -0.2327
20549SOL    HW173706   6.327   6.061   0.597 -0.2744 -0.3563 -1.0372
20549SOL    HW273707   6.167   6.030   0.609 -0.1164 -0.6806  0.3030
20550SOL     OW73708   2.895   7.007   0.315 -0.6049 -0.3171  0.4094
20550SOL    HW173709   2.893   7.054   0.227  0.2164 -2.0594 -0.5852
20550SOL    HW273710   2.836   7.054   0.380  0.9773  2.6401 -0.2141
20551SOL     OW73711   9.291   9.475   0.581  0.3836  0.4398  0.1369
20551SOL    HW173712   9.255   9.562   0.615 -0.9472 -0.7103  1.7669
20551SOL    HW273713   9.281   9.405   0.652 -2.2140 -2.0248 -2.5310
20552SOL     OW73714   3.707   7.047   9.346 -0.7991  0.0865  0.1436
20552SOL    HW173715   3.633   6.996   9.390  0.0922 -2.2475 -0.9991
20552SOL    HW273716   3.697   7.042   9.247 -0.7757  2.3007  0.0071
20553SOL     OW73717   8.676   4.554   0.719  0.3247 -0.1589  0.1029
20553SOL    HW173718   8.589   4.572   0.671  1.2896  0.3257 -1.5047
20553SOL    HW273719   8.745   4.619   0.687  1.4680 -0.9965  0.8646
20554SOL     OW73720   5.360   3.617   2.273 -0.6963  0.6241 -0.0845
20554SOL    HW173721   5.262   3.606   2.284 -0.4439  0.4587  2.2820
20554SOL    HW273722   5.408   3.549   2.329  0.7688  1.4139 -0.3461
20555SOL     OW73723   3.096   1.701   4.807 -0.0149 -0.0362 -0.2448
20555SOL    HW173724   3.186   1.660   4.819  0.0230  0.2175  0.3384
20555SOL    HW273725   3.106   1.790   4.762  0.7399  3.2625  5.8715
20556SOL     OW73726   9.466   4.290   1.823 -0.6040  0.2224  0.2434
20556SOL    HW173727   9.527   4.229   1.874 -0.5589  0.9187  1.0413
20556SOL    HW273728   9.371   4.276   1.854 -0.5308  0.9106  0.8049
20557SOL     OW73729   8.271   4.210   6.393 -0.2000  0.2293 -0.4122
20557SOL    HW173730   8.248   4.249   6.482  0.4860 -0.8360  0.2506
20557SOL    HW273731   8.187   4.190   6.342 -0.6199 -0.0951  0.4065
20558SOL     OW73732   1.973   9.671   9.906 -0.0540 -0.4876 -0.3303
20558SOL    HW173733   1.874   9.688   9.902 -0.1316 -0.7212  0.3806
20558SOL    HW273734   1.992   9.578   9.875 -0.3828 -1.4534  2.2475
20559SOL     OW73735   9.626   7.187   2.949 -0.6833  0.0226 -0.7134
20559SOL    HW173736   9.609   7.172   2.852 -1.5200  0.6667 -0.6694
20559SOL    HW273737   9.678   7.272   2.961 -1.3986  0.4424 -0.5411
20560SOL     OW73738   3.842   7.306   2.569  0.0291  0.3788 -0.3751
20560SOL    HW173739   3.782   7.231   2.598  1.1106 -1.5461 -2.9221
20560SOL    HW273740   3.887   7.345   2.649 -1.4765 -0.9131  1.1357
20561SOL     OW73741   8.017   4.073   4.952  0.0398 -0.2276 -0.0954
20561SOL    HW173742   7.996   4.111   5.042  1.0219  0.6625 -0.2195
20561SOL    HW273743   7.933   4.053   4.902 -0.6126 -4.2710  2.4441
20562SOL     OW73744   0.251   8.459   4.018  0.3710  0.1213 -0.3308
20562SOL    HW173745   0.265   8.544   3.968  0.1314  0.8881  0.8905
20562SOL    HW273746   0.153   8.437   4.020  0.3879  0.0510 -0.2657
20563SOL     OW73747   1.250   4.395   4.838  0.0027  0.2414 -0.1982
20563SOL    HW173748   1.304   4.403   4.922  0.5651 -2.7087 -0.2498
20563SOL    HW273749   1.194   4.313   4.842 -1.4643  1.1330 -1.8858
20564SOL     OW73750   9.001   0.424   1.819 -0.4959  0.0157 -0.3404
20564SOL    HW173751   8.985   0.351   1.885 -2.7565 -0.1269 -0.9948
20564SOL    HW273752   9.005   0.384   1.727 -0.6534  0.5918 -0.5964
20565SOL     OW73753   2.120   1.940   8.857 -0.3879 -0.0952  0.1653
20565SOL    HW173754   2.136   2.023   8.910 -0.3837 -0.4415  0.7140
20565SOL    HW273755   2.139   1.860   8.914 -1.8881 -0.4986  0.1234
20566SOL     OW73756   0.338   4.578   4.606  0.0319  0.5754  0.2127
20566SOL    HW173757   0.384   4.661   4.575 -1.0622  0.3644 -2.0734
20566SOL    HW273758   0.384   4.498   4.569 -0.9927  0.3032 -0.5105
20567SOL     OW73759   7.906   0.248   4.589 -0.2556 -0.4299 -0.2597
20567SOL    HW173760   7.971   0.266   4.516 -0.4621 -0.8618 -0.5528
20567SOL    HW273761   7.952   0.253   4.677  0.0271 -0.0593 -0.4267
20568SOL     OW73762   1.299   5.900   1.286 -0.6987 -0.1929 -0.7885
20568SOL    HW173763   1.322   5.993   1.256 -0.4205 -0.1151 -0.3401
20568SOL    HW273764   1.200   5.892   1.299 -0.6603  0.2302 -0.2022
20569SOL     OW73765   1.634   8.882   9.617 -0.1459 -0.4742  0.1140
20569SOL    HW173766   1.620   8.800   9.673 -1.8772 -0.4599 -0.2847
20569SOL    HW273767   1.547   8.912   9.579  0.4174  1.7308  0.4946
20570SOL     OW73768   8.752   8.974   6.509  0.3639  0.4338  0.2183
20570SOL    HW173769   8.811   8.924   6.445 -0.3964  0.1577 -0.2651
20570SOL    HW273770   8.704   8.909   6.567  1.1325  0.6846  1.1615
20571SOL     OW73771   3.580   5.546   4.102  0.6905 -0.0043  0.4003
20571SOL    HW173772   3.623   5.633   4.078 -0.8949  0.6093 -0.3436
20571SOL    HW273773   3.563   5.543   4.200 -0.2096  1.0100  0.2919
20572SOL     OW73774   7.822   3.714   9.441  0.4773  0.0746 -0.0126
20572SOL    HW173775   7.837   3.692   9.345  0.5396  0.3345 -0.0635
20572SOL    HW273776   7.848   3.636   9.498  1.2863  0.2411 -0.1509
20573SOL     OW73777   1.645   1.548   9.361 -0.6034  0.1736  0.3607
20573SOL    HW173778   1.587   1.517   9.285 -0.9822  2.3372 -0.3002
20573SOL    HW273779   1.705   1.475   9.390 -0.9190 -0.9066 -1.6113
20574SOL     OW73780   9.937   4.210   0.811 -0.2501 -0.2975 -0.1269
20574SOL    HW173781   9.994   4.136   0.846  0.1887  0.0150 -0.1854
20574SOL    HW273782   9.888   4.178   0.729 -0.8395 -0.8445  0.4222
20575SOL     OW73783   3.025   0.529   6.487 -0.2477 -0.1148  0.0742
20575SOL    HW173784   3.070   0.444   6.460  1.0192  0.1552  1.3110
20575SOL    HW273785   2.963   0.558   6.414  0.2456 -1.4299 -0.8901
20576SOL     OW73786   5.620   3.709   2.614  0.0139  0.2072 -0.8309
20576SOL    HW173787   5.644   3.781   2.679  1.4454 -0.2919 -0.7711
20576SOL    HW273788   5.684   3.711   2.537  0.0818 -0.9934 -0.8169
20577SOL     OW73789   1.666   9.554   0.721 -0.2493  0.0823  0.4070
20577SOL    HW173790   1.733   9.620   0.755  0.5196 -0.4253 -0.0903
20577SOL    HW273791   1.587   9.552   0.782 -0.0831  1.1331  0.6714
20578SOL     OW73792   0.274   4.099   6.760 -0.0373 -0.5487  0.5104
20578SOL    HW173793   0.373   4.107   6.769 -0.3545  2.0722  2.1982
20578SOL    HW273794   0.250   4.088   6.664  1.8237 -0.0807 -0.0276
20579SOL     OW73795   7.445   6.235   7.602 -0.0084 -0.0801  0.2139
20579SOL    HW173796   7.503   6.218   7.681  2.7195 -3.2665 -2.3216
20579SOL    HW273797   7.483   6.311   7.548  0.1527 -0.2639  0.0687
20580SOL     OW73798   3.456   1.589   1.889 -0.1035 -0.6280  0.5811
20580SOL    HW173799   3.376   1.535   1.864 -1.8242  1.6486  1.0413
20580SOL    HW273800   3.494   1.554   1.975 -1.9919 -0.2874  1.5764
20581SOL     OW73801   3.760   5.111   8.910 -0.3526  0.1152 -0.4170
20581SOL    HW173802   3.835   5.116   8.844 -0.1163 -1.8732 -0.3254
20581SOL    HW273803   3.705   5.194   8.904 -1.1607 -0.6039 -4.1089
20582SOL     OW73804   1.667   2.574   9.227 -0.4146 -0.0451  0.2020
20582SOL    HW173805   1.674   2.486   9.274  3.0398 -0.0699 -0.2150
20582SOL    HW273806   1.660   2.648   9.294  1.6398 -0.3034  0.7338
20583SOL     OW73807   2.239   8.160   2.063  0.1281  0.3903 -0.5048
20583SOL    HW173808   2.170   8.177   1.993  1.4691 -1.2900 -2.2701
20583SOL    HW273809   2.313   8.226   2.055 -0.0917  0.6880 -0.1400
20584SOL     OW73810   5.372   8.640   4.334 -0.4478  0.0997  0.4118
20584SOL    HW173811   5.343   8.690   4.416 -1.0062  0.0824  0.2312
20584SOL    HW273812   5.459   8.676   4.302  0.6860 -1.0883  2.0563
20585SOL     OW73813   9.147   2.082   3.963 -0.1095 -0.3232 -0.0261
20585SOL    HW173814   9.237   2.046   3.989 -0.4685 -0.7832  0.5930
20585SOL    HW273815   9.086   2.007   3.940  0.1809  0.0730 -2.1756
20586SOL     OW73816   4.030   6.386   9.860 -0.1429  0.3758 -0.5918
20586SOL    HW173817   4.079   6.349   9.939  0.6322  0.4473 -1.0331
20586SOL    HW273818   3.956   6.446   9.891  0.4841  0.8058  0.0647
20587SOL     OW73819   2.646   2.064   4.453 -0.3490  0.9262  0.5464
20587SOL    HW173820   2.652   2.081   4.552 -3.2706 -1.5728  1.2626
20587SOL    HW273821   2.719   2.002   4.426 -0.1210  0.8305  1.3585
20588SOL     OW73822   2.943   1.754   7.625  0.7282  0.0344  0.0290
20588SOL    HW173823   2.916   1.846   7.597  2.9280  0.8972  0.6865
20588SOL    HW273824   2.870   1.690   7.601 -0.2403  1.7193 -1.7133
20589SOL     OW73825   6.566   4.022   1.268  0.1389 -0.2564 -0.3561
20589SOL    HW173826   6.658   4.023   1.230  0.9027  2.9842  1.3854
20589SOL    HW273827   6.500   4.032   1.194  1.3979  1.4871 -1.2932
20590SOL     OW73828   4.382   8.818   7.118  0.0447 -0.2392  0.1218
20590SOL    HW173829   4.383   8.862   7.208 -0.9545  0.1670 -0.0641
20590SOL    HW273830   4.347   8.725   7.128  1.1038 -0.6266  0.3368
20591SOL     OW73831   4.755   3.620   6.224  0.3214 -0.5584  0.4130
20591SOL    HW173832   4.735   3.707   6.177  0.0676 -0.5701  0.4998
20591SOL    HW273833   4.721   3.544   6.169 -1.4042 -0.4922  1.3806
20592SOL     OW73834   7.787   8.247   9.163  0.3184 -0.0440 -0.3567
20592SOL    HW173835   7.788   8.254   9.262 -2.5031 -2.1510 -0.1208
20592SOL    HW273836   7.726   8.316   9.125 -1.4929 -1.5985 -0.3333
20593SOL     OW73837   0.961   4.787   7.597  0.1396 -0.3088  1.2711
20593SOL    HW173838   0.879   4.824   7.641 -0.2887  1.0757 -0.6348
20593SOL    HW273839   1.040   4.843   7.620 -0.4992  1.9111 -1.5721
20594SOL     OW73840   0.971   3.457   2.371 -0.1974 -0.0310  0.0835
20594SOL    HW173841   0.911   3.532   2.341 -1.0476 -0.2659  1.1510
20594SOL    HW273842   1.061   3.494   2.394 -1.2852  1.0774  2.8048
20595SOL     OW73843   6.634   8.563   6.070 -0.0565 -0.0986 -0.3014
20595SOL    HW173844   6.710   8.521   6.021  0.1950  1.1053 -0.9670
20595SOL    HW273845   6.547   8.532   6.031  0.1404  0.7740 -1.4779
20596SOL     OW73846   0.597   6.046   7.053 -0.1042 -0.4392 -0.2701
20596SOL    HW173847   0.594   6.104   7.134  1.4610  0.7054 -1.0130
20596SOL    HW273848   0.687   6.053   7.010 -0.5015 -2.0039 -1.4088
20597SOL     OW73849   8.789   2.393   2.316  0.1060 -0.4389 -0.3513
20597SOL    HW173850   8.728   2.341   2.376  0.0262  0.0106 -0.0354
20597SOL    HW273851   8.878   2.404   2.360 -0.5566  1.5705  0.5593
20598SOL     OW73852   1.414   7.221   3.852  0.4844  0.1639 -0.4331
20598SOL    HW173853   1.491   7.278   3.823  0.4653  0.3642 -0.0884
20598SOL    HW273854   1.415   7.211   3.951 -0.6101  1.1295 -0.3170
20599SOL     OW73855   4.242   0.074   8.917 -0.2831 -0.0938  0.4739
20599SOL    HW173856   4.182   0.081   8.838 -1.7946  1.5397  1.7382
20599SOL    HW273857   4.315   0.142   8.908  1.1688 -1.7628 -0.8285
20600SOL     OW73858   5.707   9.202   3.762 -0.0160  0.0155  0.0294
20600SOL    HW173859   5.783   9.145   3.795 -0.0275 -0.4889 -0.8172
20600SOL    HW273860   5.628   9.144   3.742  0.4433  0.1206 -2.2371
20601SOL     OW73861   0.439   2.899   9.268  0.4830 -0.4641 -0.6284
20601SOL    HW173862   0.356   2.899   9.323  0.1964  0.1822 -1.0582
20601SOL    HW273863   0.459   2.805   9.238  1.6037 -1.1136  1.9767
20602SOL     OW73864   5.447   8.789   9.139 -0.4387  0.0799 -0.2814
20602SOL    HW173865   5.460   8.721   9.067  0.8628 -0.6817  0.6672
20602SOL    HW273866   5.387   8.751   9.210 -0.1816  0.1365 -0.0356
20603SOL     OW73867   4.122   2.797   7.391 -0.1223  0.5796  0.1014
20603SOL    HW173868   4.151   2.705   7.420 -0.8069  0.3766  0.1596
20603SOL    HW273869   4.060   2.835   7.460  0.2669  1.1417  0.1425
20604SOL     OW73870   3.504   1.986   9.711 -0.2787 -0.3673 -0.2488
20604SOL    HW173871   3.587   1.968   9.659  0.5478  0.2464  0.8356
20604SOL    HW273872   3.497   1.922   9.787 -0.3267  0.1562  0.1939
20605SOL     OW73873   1.381   7.533   5.124  0.1822  0.3609 -0.0340
20605SOL    HW173874   1.337   7.568   5.207  0.2705 -0.9603  0.5758
20605SOL    HW273875   1.476   7.510   5.144 -0.1939 -1.3095 -0.1381
20606SOL     OW73876   3.696   8.114   7.277 -0.3756 -0.0217 -0.0025
20606SOL    HW173877   3.610   8.078   7.239 -0.1208 -1.1944  0.5005
20606SOL    HW273878   3.763   8.040   7.283  0.2867  0.6321  0.7223
20607SOL     OW73879   0.856   3.094   4.220  0.4465 -0.3172  0.2258
20607SOL    HW173880   0.796   3.035   4.274  0.9913 -1.0844  0.0108
20607SOL    HW273881   0.908   3.154   4.281 -0.4586  0.2690  0.4158
20608SOL     OW73882   4.159   4.074   2.656 -0.4618  0.1930 -0.2939
20608SOL    HW173883   4.168   3.976   2.638 -0.0095 -0.0773  1.3285
20608SOL    HW273884   4.124   4.088   2.748 -2.7477  1.5490 -1.3410
20609SOL     OW73885   1.366   1.308   0.587 -0.0673  0.5941  0.1350
20609SOL    HW173886   1.369   1.306   0.487  1.6171 -0.5185  0.1975
20609SOL    HW273887   1.342   1.217   0.621 -1.0789  1.0752  0.7556
20610SOL     OW73888   1.006   7.940   7.824 -0.0768 -0.0634  0.1887
20610SOL    HW173889   0.923   7.986   7.856 -0.1214  0.4785 -0.7003
20610SOL    HW273890   1.060   8.003   7.769  0.3696 -0.7608 -0.1804
20611SOL     OW73891   0.376   6.671   6.300 -0.2321  0.1680 -0.1162
20611SOL    HW173892   0.328   6.583   6.305  0.6945 -0.2787  1.1763
20611SOL    HW273893   0.469   6.661   6.337  0.6639  1.1645 -2.0002
20612SOL     OW73894   2.881   2.320   4.189 -0.0689 -0.1643 -0.3591
20612SOL    HW173895   2.855   2.405   4.143 -0.5638  0.3324  0.8469
20612SOL    HW273896   2.869   2.244   4.126 -0.7246  0.5187 -1.0662
20613SOL     OW73897   8.562   0.863   8.177  0.0613 -0.3918 -0.8197
20613SOL    HW173898   8.588   0.945   8.228 -3.9893 -0.2720  1.2240
20613SOL    HW273899   8.638   0.798   8.178  1.7014  1.4806  1.4396
20614SOL     OW73900   7.458   5.385   7.668 -0.1069  0.8379 -0.4844
20614SOL    HW173901   7.489   5.293   7.642 -0.5208  0.5374  0.0823
20614SOL    HW273902   7.498   5.452   7.606  1.2158  0.4040 -0.1098
20615SOL     OW73903   7.883   9.848   3.137 -0.5153  0.5157 -0.3828
20615SOL    HW173904   7.903   9.934   3.090  0.6872  0.6621  0.3774
20615SOL    HW273905   7.787   9.846   3.164 -0.9800  0.8548 -1.9655
20616SOL     OW73906   1.913   7.466   9.937  0.1068 -0.4632 -0.2931
20616SOL    HW173907   1.982   7.403   9.972 -1.4083 -2.1328 -0.2355
20616SOL    HW273908   1.834   7.467   9.998 -0.4362  0.5102 -0.9880
20617SOL     OW73909   4.631   3.115   9.392 -0.2882 -0.5326 -0.3900
20617SOL    HW173910   4.568   3.192   9.396 -0.4449 -0.7421  1.2851
20617SOL    HW273911   4.723   3.149   9.368 -0.6660 -0.0203 -1.1346
20618SOL     OW73912   5.372   0.494   6.094  0.3419  0.3372 -0.5954
20618SOL    HW173913   5.346   0.586   6.065  1.8603  0.5343 -1.3604
20618SOL    HW273914   5.360   0.487   6.193 -2.3442  0.4881 -0.8665
20619SOL     OW73915   8.751   0.368   7.082  0.0484 -0.3804  0.0246
20619SOL    HW173916   8.738   0.458   7.041  2.2026  0.2323  0.5658
20619SOL    HW273917   8.731   0.296   7.016 -1.8852  0.4887 -0.3488
20620SOL     OW73918   6.958   0.965   9.614 -0.1452  0.4536 -0.3988
20620SOL    HW173919   6.916   0.875   9.599  0.6514  0.1067 -0.6006
20620SOL    HW273920   6.978   0.976   9.711 -0.3090  0.4418 -0.3638
20621SOL     OW73921   3.219   8.717   5.081  0.6696 -0.1645 -0.0820
20621SOL    HW173922   3.237   8.700   4.984 -0.4080 -0.4764 -0.2320
20621SOL    HW273923   3.153   8.650   5.115 -0.0376  0.8229  0.5083
20622SOL     OW73924   5.091   4.794   2.314  0.5615  0.2826 -0.5943
20622SOL    HW173925   5.036   4.822   2.236 -0.9928  0.6652  0.6334
20622SOL    HW273926   5.076   4.696   2.332 -0.3555  0.5768  0.2513
20623SOL     OW73927   3.187   8.654   6.876  0.3218  0.1358  0.1615
20623SOL    HW173928   3.177   8.741   6.925 -1.1461  0.0878 -0.0172
20623SOL    HW273929   3.148   8.581   6.931  1.0890 -0.3409  0.0796
20624SOL     OW73930   4.128   5.517   7.921  0.1327 -0.4403  0.3106
20624SOL    HW173931   4.213   5.470   7.899  0.3235  0.3879 -0.7582
20624SOL    HW273932   4.117   5.523   8.020  0.4811 -2.0495  0.4566
20625SOL     OW73933   1.875   2.433   9.512  0.2657 -0.5676  0.6442
20625SOL    HW173934   1.931   2.404   9.435  0.6186 -1.2199  1.1350
20625SOL    HW273935   1.843   2.353   9.562 -1.6103 -0.2114  0.0261
20626SOL     OW73936   9.319   2.841   5.050  0.2536  0.4993 -0.4545
20626SOL    HW173937   9.321   2.851   4.950  0.7064  1.2326 -0.3805
20626SOL    HW273938   9.411   2.855   5.086 -0.3110  2.5065  0.2602
20627SOL     OW73939   5.070   2.534   0.067 -0.0656  0.2556 -0.1059
20627SOL    HW173940   5.129   2.610   0.042  0.4911  0.9882  3.2828
20627SOL    HW273941   4.977   2.550   0.033  0.5494  1.3962 -1.2533
20628SOL     OW73942   1.610   5.406   0.765 -0.4138  0.1750  0.2741
20628SOL    HW173943   1.660   5.492   0.776 -1.2499  0.5886  0.8508
20628SOL    HW273944   1.588   5.368   0.855  0.1810 -0.7753  0.0217
20629SOL     OW73945   1.968   7.698   3.172  0.1597 -0.2039 -0.1543
20629SOL    HW173946   1.918   7.781   3.198  0.1041 -0.4663  0.5677
20629SOL    HW273947   1.903   7.624   3.153  0.1321  0.3375 -2.3143
20630SOL     OW73948   0.911   1.525   7.306 -0.2398 -0.5449  0.4939
20630SOL    HW173949   0.944   1.535   7.213  1.0049  1.7537  1.1469
20630SOL    HW273950   0.985   1.492   7.365 -0.1217  0.9113  1.2102
20631SOL     OW73951   9.601   1.357   9.169  0.3714  0.0158 -0.1585
20631SOL    HW173952   9.510   1.385   9.200  1.0050  0.2737  1.4892
20631SOL    HW273953   9.671   1.398   9.227  1.5425 -0.3905 -1.2558
20632SOL     OW73954   9.287   2.208   8.345  0.3573  0.0846 -0.0577
20632SOL    HW173955   9.247   2.270   8.277 -0.4116 -1.3873 -0.9669
20632SOL    HW273956   9.216   2.180   8.410  0.5521 -0.3841 -0.0490
20633SOL     OW73957   8.135   5.413   2.060 -0.1683  0.2827 -0.4484
20633SOL    HW173958   8.159   5.377   2.149 -0.0031 -0.3973 -0.7682
20633SOL    HW273959   8.116   5.511   2.068  2.2294  0.7457 -0.1125
20634SOL     OW73960   0.235   6.607   3.809  0.1022 -0.1950  0.3598
20634SOL    HW173961   0.310   6.618   3.875  0.4003 -1.1485  0.1782
20634SOL    HW273962   0.266   6.551   3.733 -0.6353 -0.1380  0.0202
20635SOL     OW73963   0.029   9.647   4.843 -0.8559  0.8248 -0.1518
20635SOL    HW173964  -0.009   9.724   4.792  1.3958  0.8375 -1.8731
20635SOL    HW273965  -0.028   9.566   4.828 -1.3417  1.3250 -1.0741
20636SOL     OW73966   0.374   6.585   1.648 -0.3584  0.0235 -0.1038
20636SOL    HW173967   0.361   6.495   1.691 -1.2779  0.1858 -0.0309
20636SOL    HW273968   0.289   6.612   1.602  0.0425  0.6764 -0.4562
20637SOL     OW73969   7.856   3.155   2.301 -0.1625  0.4637  1.1348
20637SOL    HW173970   7.905   3.080   2.254  0.9195  1.8425  0.0064
20637SOL    HW273971   7.922   3.224   2.330 -1.4521  2.6804 -0.9697
20638SOL     OW73972   8.663   0.649   0.207  0.1836  0.2283  0.3717
20638SOL    HW173973   8.758   0.620   0.197  0.2359  0.5427 -0.0979
20638SOL    HW273974   8.644   0.722   0.141 -1.3801 -2.2142 -1.9834
20639SOL     OW73975   9.473   6.995   7.005 -0.2322  0.0779  0.0711
20639SOL    HW173976   9.572   6.993   7.024 -0.2130  2.3414  0.3716
20639SOL    HW273977   9.425   6.942   7.076  0.7040 -0.5303  0.2683
20640SOL     OW73978   9.762   5.543   4.251  0.1788  0.2328 -0.1360
20640SOL    HW173979   9.793   5.507   4.163  0.5912  1.3027 -0.4284
20640SOL    HW273980   9.663   5.561   4.246  0.0761 -0.3318 -0.1663
20641SOL     OW73981   7.323   5.586   9.265  0.0799  0.8790  0.5156
20641SOL    HW173982   7.346   5.544   9.177 -1.6943  0.3767  0.2684
20641SOL    HW273983   7.404   5.588   9.324  1.1278  0.6758 -0.9054
20642SOL     OW73984   1.934   9.033   1.516  0.1735  0.1745 -0.7744
20642SOL    HW173985   1.878   9.115   1.526 -0.1444 -0.0179 -0.9476
20642SOL    HW273986   2.030   9.055   1.533 -0.1519  0.1715  1.0864
20643SOL     OW73987   1.521   8.203   4.999 -0.0394  0.3428 -0.1470
20643SOL    HW173988   1.539   8.116   5.045 -0.5613  0.4639  0.3015
20643SOL    HW273989   1.455   8.255   5.053 -0.3707  0.6522 -0.8523
20644SOL     OW73990   3.050   0.500   5.939  0.0308  0.5572  0.4827
20644SOL    HW173991   3.046   0.565   5.863 -1.4464 -0.0453  0.0221
20644SOL    HW273992   3.086   0.412   5.905  4.5079  1.8054  1.6326
20645SOL     OW73993   9.926   1.637   6.335  0.1771  0.2937 -0.3403
20645SOL    HW173994   9.872   1.659   6.254  0.3054  2.5243  0.1670
20645SOL    HW273995   9.867   1.641   6.416  0.5065  0.0157 -0.0852
20646SOL     OW73996   9.224   1.498   8.068 -0.2648 -0.0835  0.1833
20646SOL    HW173997   9.181   1.459   7.987  0.3561 -0.8995  0.2525
20646SOL    HW273998   9.317   1.528   8.046 -0.0537 -0.4150  0.6285
20647SOL     OW73999   9.455   9.273   8.613  0.1138 -0.0358 -0.6946
20647SOL    HW174000   9.439   9.264   8.711 -1.7261  0.8081 -0.9016
20647SOL    HW274001   9.527   9.340   8.596 -0.0163  0.2900  0.0551
20648SOL     OW74002   3.068   6.931   7.938 -0.5142  0.2421  0.3632
20648SOL    HW174003   3.133   6.987   7.887 -0.8668 -0.7009 -1.1617
20648SOL    HW274004   2.985   6.984   7.955 -0.4124  0.5550 -0.0979
20649SOL     OW74005   9.359   1.436   9.278 -0.0666 -0.4328 -0.5928
20649SOL    HW174006   9.284   1.394   9.228 -0.9164  0.2680  0.0859
20649SOL    HW274007   9.377   1.527   9.241 -1.0761  0.3181  0.7161
20650SOL     OW74008   7.411   3.046   3.893 -0.1596 -0.1181 -0.5854
20650SOL    HW174009   7.328   3.009   3.851 -0.1755 -0.7191 -0.0291
20650SOL    HW274010   7.464   3.095   3.823 -0.6147 -0.3570 -1.1077
20651SOL     OW74011   6.359   8.279   3.355 -0.7087 -0.4252 -0.4000
20651SOL    HW174012   6.269   8.319   3.372 -1.4220 -1.8013 -0.7997
20651SOL    HW274013   6.357   8.182   3.382  0.6590 -0.4533 -0.3863
20652SOL     OW74014   0.443   8.641   0.363  0.0308  0.1587  0.1351
20652SOL    HW174015   0.369   8.605   0.419 -0.0328  0.0856  0.0052
20652SOL    HW274016   0.413   8.646   0.267  0.6064 -1.0263 -0.1119
20653SOL     OW74017   6.115   7.808   5.390 -0.0946  0.1947  0.2787
20653SOL    HW174018   6.045   7.805   5.318  0.0541  3.1172 -0.0311
20653SOL    HW274019   6.074   7.840   5.475  0.7283  1.3084  0.2579
20654SOL     OW74020   1.097   5.630   2.711 -0.2926 -0.6374  0.3165
20654SOL    HW174021   1.073   5.569   2.636  1.2180  1.0870 -1.6049
20654SOL    HW274022   1.196   5.639   2.717 -0.4884  2.1163  0.1455
20655SOL     OW74023   6.223   0.634   7.143 -0.5870 -0.4162 -0.0732
20655SOL    HW174024   6.288   0.565   7.175 -0.3531  0.1236  0.6444
20655SOL    HW274025   6.154   0.649   7.214 -0.9252 -0.2752 -0.4342
20656SOL     OW74026   3.907   6.430   2.011  0.2126 -0.1485  0.2168
20656SOL    HW174027   3.827   6.469   1.966  0.2622 -0.5598 -0.2300
20656SOL    HW274028   3.951   6.500   2.067 -0.8772 -0.1104  1.0586
20657SOL     OW74029   7.179   2.123   2.254  0.0376 -0.1294  0.0669
20657SOL    HW174030   7.191   2.210   2.206  0.8889 -1.1464 -1.6406
20657SOL    HW274031   7.087   2.119   2.293 -0.2988  1.1905 -0.5603
20658SOL     OW74032   1.493   0.043   4.004  0.5356  0.3336  0.8141
20658SOL    HW174033   1.581   0.034   4.052  0.5216  1.2777  1.0161
20658SOL    HW274034   1.436   0.110   4.052 -0.3358 -0.3462  0.7361
20659SOL     OW74035   9.754   6.658   0.458 -0.1940  0.4268 -0.0573
20659SOL    HW174036   9.841   6.685   0.416  0.6403 -0.5784  0.9953
20659SOL    HW274037   9.717   6.735   0.511 -0.0696  0.9304 -0.7016
20660SOL     OW74038   2.219   6.388   3.609  0.0502  0.3045  1.1171
20660SOL    HW174039   2.217   6.396   3.510 -2.2094  2.7324  1.3165
20660SOL    HW274040   2.307   6.422   3.644  1.0159 -0.9520 -0.0374
20661SOL     OW74041   6.981   3.792   3.504 -0.0187  0.0670  0.2337
20661SOL    HW174042   6.971   3.817   3.408 -0.7786  1.0737  0.5715
20661SOL    HW274043   7.024   3.866   3.555  1.0127 -0.7281  0.5550
20662SOL     OW74044   0.881   1.047   8.686 -0.5624 -0.0320  0.2231
20662SOL    HW174045   0.865   0.956   8.647 -0.2788 -0.2518  0.6222
20662SOL    HW274046   0.795   1.098   8.686 -0.2421  0.5945 -2.2949
20663SOL     OW74047   8.437   8.608   4.182 -0.2366 -0.0170  0.1893
20663SOL    HW174048   8.404   8.658   4.263 -1.1791  0.8856 -0.7342
20663SOL    HW274049   8.534   8.627   4.168 -0.3915  0.8706  0.3350
20664SOL     OW74050   3.395   5.250   5.505 -0.0640  0.3610  0.4501
20664SOL    HW174051   3.354   5.173   5.554 -1.3409  1.6614  1.4733
20664SOL    HW274052   3.333   5.328   5.508 -0.3209  0.4244 -3.4860
20665SOL     OW74053   9.551   7.739   5.986 -0.1033 -0.1459 -0.4280
20665SOL    HW174054   9.499   7.675   5.930 -0.1734 -0.7529  0.3207
20665SOL    HW274055   9.498   7.822   5.999 -1.8911 -1.6091  2.1940
20666SOL     OW74056   9.052   9.068   1.913  0.1376 -0.2462  0.2323
20666SOL    HW174057   9.019   9.003   1.981 -0.1879  0.3681  0.6679
20666SOL    HW274058   9.136   9.033   1.870 -0.6335 -1.4427 -0.3114
20667SOL     OW74059   2.994   2.018   6.998 -0.4694  0.0338  0.0986
20667SOL    HW174060   2.925   1.946   6.989  0.9352 -1.4247  0.6983
20667SOL    HW274061   3.076   1.994   6.946  0.1741  1.0103  0.6252
20668SOL     OW74062   2.399   1.019   8.307  0.4008 -0.3755  0.2662
20668SOL    HW174063   2.369   0.924   8.308 -0.3752 -0.1484 -0.6843
20668SOL    HW274064   2.487   1.026   8.261 -0.3231 -0.4165 -1.1311
20669SOL     OW74065   2.488   2.615   8.103  0.3813 -0.2462  0.1076
20669SOL    HW174066   2.473   2.528   8.151 -0.0210 -0.4611 -0.4065
20669SOL    HW274067   2.561   2.666   8.149  0.9076 -1.0401  0.1691
20670SOL     OW74068   7.362   6.892   1.954  0.0716 -0.3470  0.5045
20670SOL    HW174069   7.446   6.839   1.940  0.6670  0.9269 -0.9513
20670SOL    HW274070   7.382   6.970   2.013  0.0696  0.3013 -0.3420
20671SOL     OW74071   5.227   4.465   9.899 -0.1536  0.0744 -0.3499
20671SOL    HW174072   5.148   4.405   9.908 -0.9288  1.3478  1.5613
20671SOL    HW274073   5.274   4.471   9.987  0.4313  1.5389 -0.7562
20672SOL     OW74074   1.151   3.557   6.466 -0.1399  0.1442 -0.5565
20672SOL    HW174075   1.203   3.520   6.389  0.3839  1.2541 -0.7540
20672SOL    HW274076   1.054   3.539   6.453  0.0417 -0.4970 -1.0112
20673SOL     OW74077   6.162   9.303   2.685  0.1955  0.2066 -0.1437
20673SOL    HW174078   6.257   9.296   2.655 -0.3630  0.5113 -2.0595
20673SOL    HW274079   6.158   9.356   2.769  2.0653 -2.8724  1.9804
20674SOL     OW74080   6.590   4.090   0.252 -0.1961  0.2184  0.5319
20674SOL    HW174081   6.611   4.175   0.301  0.6190 -0.3171  1.1295
20674SOL    HW274082   6.541   4.029   0.313 -0.0359 -0.0724  0.3684
20675SOL     OW74083   9.939   7.638   1.638 -0.4517  0.4478  0.6313
20675SOL    HW174084   9.927   7.621   1.736 -1.3976  1.3761  0.6882
20675SOL    HW274085   9.949   7.736   1.623 -0.0964  0.2877 -0.1867
20676SOL     OW74086   2.947   8.376   5.001 -0.6483  0.4930  0.6761
20676SOL    HW174087   2.981   8.414   4.914 -0.1562  1.5933  1.3406
20676SOL    HW274088   2.911   8.284   4.985 -0.0724  0.4773 -0.5972
20677SOL     OW74089   2.364   9.109   7.109  0.0324 -0.2940  0.1373
20677SOL    HW174090   2.373   9.010   7.093  0.5300 -0.3022  0.4590
20677SOL    HW274091   2.340   9.125   7.205  1.9331 -0.0082  0.5784
20678SOL     OW74092   7.233   0.647   9.593 -0.2626 -0.0013  0.0797
20678SOL    HW174093   7.250   0.709   9.670 -3.1700 -0.3929  1.1319
20678SOL    HW274094   7.145   0.670   9.551 -0.4851 -2.1981 -0.7305
20679SOL     OW74095   9.438   3.743   6.169 -0.4076  0.1490  0.5418
20679SOL    HW174096   9.404   3.741   6.074  1.8806 -0.8313 -0.2898
20679SOL    HW274097   9.408   3.828   6.213 -0.4132  1.2246 -1.4654
20680SOL     OW74098   7.011   3.815   8.360 -0.1321  0.1538  0.2917
20680SOL    HW174099   6.928   3.764   8.381  0.4523 -0.4680  1.1691
20680SOL    HW274100   7.091   3.763   8.390  0.6513  0.1838 -1.6776
20681SOL     OW74101   6.058   8.192   8.047 -0.5420 -0.0309  0.5266
20681SOL    HW174102   6.129   8.237   7.993 -1.5921 -0.2042 -1.0314
20681SOL    HW274103   6.023   8.255   8.116 -0.2322  0.6948  0.0232
20682SOL     OW74104   5.899   5.062   2.044  0.1952 -0.1158 -0.3956
20682SOL    HW174105   5.979   5.004   2.031 -0.9876 -1.7153 -0.8037
20682SOL    HW274106   5.847   5.067   1.959  0.3240  1.6310 -0.3817
20683SOL     OW74107   2.700   6.859   2.998 -0.0565 -0.4048 -0.1016
20683SOL    HW174108   2.603   6.867   2.975 -0.1794 -0.2871  0.4580
20683SOL    HW274109   2.716   6.774   3.048 -0.1788  0.4395  1.3934
20684SOL     OW74110   5.725   6.974   1.874 -0.3336 -0.3175 -0.3894
20684SOL    HW174111   5.801   6.936   1.926  1.6576  4.8072  0.7634
20684SOL    HW274112   5.655   7.007   1.938 -0.2114  1.4454 -1.1591
20685SOL     OW74113   4.917   5.127   6.619 -0.1677 -0.2405  0.1377
20685SOL    HW174114   4.826   5.159   6.594  0.2766  0.8063 -0.1973
20685SOL    HW274115   4.976   5.206   6.638  0.6872 -0.8989  0.2741
20686SOL     OW74116   9.496   4.749   8.268  0.4588  0.1491 -0.4446
20686SOL    HW174117   9.463   4.777   8.178 -0.3836 -0.9945 -0.5195
20686SOL    HW274118   9.546   4.663   8.259  0.6775  0.2161  0.1301
20687SOL     OW74119   2.864   8.000   1.480  0.2834  0.5025  0.6061
20687SOL    HW174120   2.867   8.085   1.428  0.7897  0.1215  0.0000
20687SOL    HW274121   2.945   7.994   1.539  0.4978  0.2194  0.2873
20688SOL     OW74122   0.990   5.328   3.164 -0.0673  0.3207 -0.5581
20688SOL    HW174123   0.913   5.267   3.181  0.6096 -0.4167 -0.1201
20688SOL    HW274124   0.963   5.398   3.098 -1.3726  0.5741  0.2262
20689SOL     OW74125   7.955   4.691   2.204 -0.1306 -0.2725  0.2268
20689SOL    HW174126   7.888   4.650   2.266  0.9256 -3.7938 -0.8386
20689SOL    HW274127   7.910   4.723   2.121 -0.7935 -0.4544  0.5169
20690SOL     OW74128   8.295   2.301   1.026 -0.0596  0.0912 -0.0864
20690SOL    HW174129   8.272   2.377   1.086 -1.0459 -1.5476  1.6871
20690SOL    HW274130   8.215   2.275   0.972  0.8989  1.7185 -2.3177
20691SOL     OW74131   0.902   6.538   9.453  1.0762  0.8017 -0.1881
20691SOL    HW174132   0.854   6.451   9.466  0.9674  0.7563 -0.9143
20691SOL    HW274133   0.861   6.608   9.512  1.1277  0.3784  0.3581
20692SOL     OW74134   3.972   0.491   0.775 -0.0460  0.2977 -0.2232
20692SOL    HW174135   3.970   0.454   0.682 -3.3127  1.2509 -0.5622
20692SOL    HW274136   3.973   0.415   0.841  1.2961 -0.3666 -0.9708
20693SOL     OW74137   9.943   6.143   8.718  1.0948 -0.0730  0.2629
20693SOL    HW174138   9.922   6.229   8.764  0.8743  0.2403 -0.4094
20693SOL    HW274139   9.867   6.117   8.659  1.2482 -0.6239  0.3090
20694SOL     OW74140   2.826   0.273   7.888 -0.4467 -0.0437  0.6571
20694SOL    HW174141   2.757   0.287   7.817 -0.2751 -0.3626  0.4300
20694SOL    HW274142   2.895   0.209   7.856 -1.3737 -1.6451  1.8252
20695SOL     OW74143   8.648   7.340   1.070  0.4108  0.4052  0.3543
20695SOL    HW174144   8.585   7.405   1.113 -0.5366 -0.3696  0.1576
20695SOL    HW274145   8.606   7.304   0.987  0.1737 -1.8476  1.4419
20696SOL     OW74146   3.444   0.242   5.672  0.4499  0.0573 -0.8293
20696SOL    HW174147   3.408   0.202   5.756  3.0495 -0.3138  0.1673
20696SOL    HW274148   3.438   0.341   5.676  1.3597  0.0800  0.1967
20697SOL     OW74149   1.896   1.454   3.463  0.0321 -0.0011 -0.4887
20697SOL    HW174150   1.882   1.447   3.561  2.1115  1.3865 -0.0488
20697SOL    HW274151   1.831   1.520   3.424  1.5633  2.2315  0.5932
20698SOL     OW74152   0.080   3.302   4.972  0.0496  0.0067  0.0590
20698SOL    HW174153   0.018   3.352   4.913  1.1179  1.0467 -0.1861
20698SOL    HW274154   0.027   3.255   5.043 -0.9724  1.2760  0.1572
20699SOL     OW74155   2.999   5.192   8.748  0.0176  0.1403 -0.5007
20699SOL    HW174156   2.928   5.262   8.755  0.3910  0.3391  2.0379
20699SOL    HW274157   3.051   5.206   8.665 -0.3229  2.5180 -0.3678
20700SOL     OW74158   1.045   5.277   8.605 -0.1810  0.2242 -0.1310
20700SOL    HW174159   1.102   5.226   8.669  1.8910  0.6463 -1.5815
20700SOL    HW274160   1.048   5.374   8.628  0.6896  0.3953 -0.9270
20701SOL     OW74161   9.550   6.352   7.635  0.2310  0.5226 -0.7811
20701SOL    HW174162   9.625   6.418   7.630  0.8091 -0.1835 -1.4162
20701SOL    HW274163   9.586   6.259   7.637 -0.6555  0.0572 -3.6769
20702SOL     OW74164   7.844   6.829   6.051  0.3234  0.5652  0.2450
20702SOL    HW174165   7.779   6.824   6.126  0.3541  0.2227  0.2494
20702SOL    HW274166   7.797   6.813   5.964  0.4101  0.2661  0.2527
20703SOL     OW74167   4.967   1.158   6.534 -0.7399 -0.4170 -0.4367
20703SOL    HW174168   5.051   1.167   6.587 -1.7171 -1.8831  1.3959
20703SOL    HW274169   4.900   1.225   6.565 -1.1431 -0.9528 -0.1420
20704SOL     OW74170   3.838   5.922   8.420 -0.1164 -0.1490  0.1745
20704SOL    HW174171   3.811   5.910   8.516 -0.9716  2.6705  0.3303
20704SOL    HW274172   3.916   5.984   8.415  1.4505 -2.1591 -0.8213
20705SOL     OW74173   9.136   5.607   6.283 -0.1036 -0.0212 -0.5265
20705SOL    HW174174   9.038   5.596   6.268 -0.3438 -0.6866  1.4950
20705SOL    HW274175   9.168   5.687   6.232 -2.1610  1.6593  0.7238
20706SOL     OW74176   2.747   2.700   1.859 -0.6517  0.6486 -0.0423
20706SOL    HW174177   2.790   2.719   1.947 -0.8847 -0.3576  0.2942
20706SOL    HW274178   2.649   2.686   1.873  0.0558 -4.9714  0.3891
20707SOL     OW74179   4.752   7.529   5.073 -0.4505 -0.0428  0.0030
20707SOL    HW174180   4.849   7.505   5.075 -0.5071 -0.2297  0.7656
20707SOL    HW274181   4.700   7.462   5.125 -0.7124  1.2811  1.4960
20708SOL     OW74182   0.150   6.114   4.308  0.2202  0.2089 -0.7830
20708SOL    HW174183   0.178   6.019   4.315  0.8091  0.3162 -1.6324
20708SOL    HW274184   0.219   6.166   4.257 -1.3701  0.5374 -2.6535
20709SOL     OW74185   3.371   4.231   7.639 -0.2296 -0.5116  0.0250
20709SOL    HW174186   3.313   4.306   7.609 -0.7186 -0.8593  0.0971
20709SOL    HW274187   3.419   4.257   7.723 -1.4765 -0.7841  0.8463
20710SOL     OW74188   5.361   1.297   4.838 -0.7199  0.3083  0.0169
20710SOL    HW174189   5.456   1.281   4.812 -0.7784 -1.7658  1.0180
20710SOL    HW274190   5.347   1.395   4.856  0.6523  0.9633 -2.2999
20711SOL     OW74191   2.415   3.481   2.716 -0.5168 -0.8661 -0.0082
20711SOL    HW174192   2.337   3.449   2.663 -0.1745 -3.2507  0.8922
20711SOL    HW274193   2.394   3.570   2.757 -1.5710 -0.0072 -2.3346
20712SOL     OW74194   6.869   2.441   2.075  0.2665  0.2802  0.2684
20712SOL    HW174195   6.791   2.467   2.132  0.0917  0.4874 -0.0655
20712SOL    HW274196   6.852   2.467   1.980 -0.7119 -2.6853 -0.4259
20713SOL     OW74197   9.089   4.372   4.877 -0.6440 -0.5110 -0.8761
20713SOL    HW174198   9.113   4.285   4.834  0.0600 -0.6459 -0.2197
20713SOL    HW274199   9.170   4.431   4.882 -0.9786 -0.0574 -0.7607
20714SOL     OW74200   2.564   7.351   7.052  0.0493  0.0381 -0.4548
20714SOL    HW174201   2.521   7.405   6.980  0.0794 -1.6532 -1.7839
20714SOL    HW274202   2.617   7.277   7.011 -2.0091 -2.5226  1.2983
20715SOL     OW74203   5.488   3.006   1.750 -0.1366  1.0085 -0.1674
20715SOL    HW174204   5.493   3.004   1.850  0.0226  0.8992 -0.1778
20715SOL    HW274205   5.557   2.944   1.711 -1.7747 -0.7707 -0.3052
20716SOL     OW74206   3.987   1.254   1.005 -0.3183 -0.6367 -0.3118
20716SOL    HW174207   3.943   1.340   1.032  1.0871 -0.4686  1.4800
20716SOL    HW274208   4.066   1.274   0.947 -0.7106 -0.7937 -0.9080
20717SOL     OW74209   2.677   9.636   5.695  0.3556  0.6412  0.2882
20717SOL    HW174210   2.688   9.645   5.596  2.3950 -1.6795  0.2659
20717SOL    HW274211   2.766   9.621   5.738 -0.6374  0.4398  2.3545
20718SOL     OW74212   3.136   4.523   8.222  0.6277  0.3243 -0.5330
20718SOL    HW174213   3.080   4.484   8.295 -0.5096  1.0604 -1.0001
20718SOL    HW274214   3.233   4.508   8.243  0.4073  2.1744  2.0435
20719SOL     OW74215   0.654   2.643   1.934  0.3579 -0.6807 -0.2259
20719SOL    HW174216   0.670   2.591   2.018  0.2926 -0.8295 -0.3054
20719SOL    HW274217   0.727   2.623   1.869  0.9956  0.2527  0.1872
20720SOL     OW74218   5.702   9.392   9.426 -0.0433 -0.0383 -0.3392
20720SOL    HW174219   5.608   9.374   9.397  0.3509 -3.2482  0.2193
20720SOL    HW274220   5.724   9.337   9.506  2.4612  0.2630 -0.7690
20721SOL     OW74221   2.425   3.425   8.332  0.4584 -0.2611  0.1246
20721SOL    HW174222   2.513   3.378   8.339 -0.0616 -1.1946  0.4343
20721SOL    HW274223   2.438   3.521   8.357  1.0995 -0.7361  1.7447
20722SOL     OW74224   9.807   1.514   1.734  0.4143 -0.0632  0.5626
20722SOL    HW174225   9.772   1.591   1.681 -0.6023 -0.2054  1.0259
20722SOL    HW274226   9.832   1.439   1.672  1.5216  0.6730  0.1039
20723SOL     OW74227   6.160   1.187   1.777 -0.1388  0.2613 -0.4242
20723SOL    HW174228   6.082   1.225   1.826 -1.0601 -0.0950 -1.5894
20723SOL    HW274229   6.133   1.103   1.730  1.5378 -1.1084  1.0076
20724SOL     OW74230   2.214   7.066   1.561  0.1020  0.1900  0.3453
20724SOL    HW174231   2.198   7.040   1.466  1.1840  1.4368 -0.1929
20724SOL    HW274232   2.152   7.014   1.621  1.4521 -2.8116 -0.7628
20725SOL     OW74233   6.098   1.790   0.355 -0.7167 -0.4255 -0.3107
20725SOL    HW174234   6.061   1.702   0.326 -2.5674  0.0013  0.6494
20725SOL    HW274235   6.024   1.855   0.366  0.5531  1.0386 -0.2281
20726SOL     OW74236   9.034   0.942   7.272  0.2632  0.3786  0.1409
20726SOL    HW174237   9.031   1.028   7.221 -2.0575  0.3360  0.1522
20726SOL    HW274238   9.110   0.944   7.336  2.4851  0.9331 -2.4072
20727SOL     OW74239   8.675   9.911   5.441  0.1978  0.4306 -0.3812
20727SOL    HW174240   8.592   9.901   5.497 -0.1615 -0.2729 -1.0247
20727SOL    HW274241   8.755   9.907   5.500 -0.1948  0.0675  0.1366
20728SOL     OW74242   0.854   8.858   0.769  0.2114 -0.2265 -0.5437
20728SOL    HW174243   0.879   8.953   0.789 -1.6411 -0.1558  1.6715
20728SOL    HW274244   0.924   8.797   0.806  0.6633  0.2112 -0.6653
20729SOL     OW74245   9.748   2.248   3.589  0.1909 -0.2190  0.2832
20729SOL    HW174246   9.768   2.303   3.670 -3.8770 -1.1252  1.9868
20729SOL    HW274247   9.740   2.152   3.614  1.4945 -0.8928 -1.7072
20730SOL     OW74248   8.589   2.432   5.226 -0.1626 -0.1001 -0.0618
20730SOL    HW174249   8.627   2.516   5.189 -1.6849  0.6788  0.1133
20730SOL    HW274250   8.646   2.401   5.302 -0.2175  1.3852  0.6023
20731SOL     OW74251   8.482   4.474   0.042  0.0617  0.3134  0.1775
20731SOL    HW174252   8.555   4.542   0.036  0.6582 -0.2040  1.4812
20731SOL    HW274253   8.515   4.393   0.091 -1.8343  0.6880  2.1253
20732SOL     OW74254   6.239   5.540   1.486  0.5685  0.4468  0.2881
20732SOL    HW174255   6.269   5.559   1.580 -0.5667 -1.5685  1.0872
20732SOL    HW274256   6.167   5.604   1.460  0.9546  1.0759  0.7694
20733SOL     OW74257   4.338   1.160   1.772 -0.3482  0.1697 -0.2998
20733SOL    HW174258   4.289   1.095   1.831 -0.0694  0.1381 -0.0982
20733SOL    HW274259   4.275   1.229   1.738 -0.9864 -1.0814 -1.7565
20734SOL     OW74260   0.776   4.956   1.386 -0.2029 -0.0514  0.9044
20734SOL    HW174261   0.824   4.868   1.381 -0.2729 -0.0110 -0.6529
20734SOL    HW274262   0.682   4.940   1.417  0.0359 -0.4283  1.4473
20735SOL     OW74263   3.230   4.768   8.991  0.0905  0.1373  0.0767
20735SOL    HW174264   3.248   4.765   8.892  0.6616  0.0378  0.1798
20735SOL    HW274265   3.317   4.775   9.040 -0.2629  1.5216  0.5250
20736SOL     OW74266   7.770   9.672   2.742  0.2508 -0.1993 -0.3836
20736SOL    HW174267   7.853   9.704   2.696 -0.8776 -0.2943 -2.5771
20736SOL    HW274268   7.794   9.604   2.811  2.1917  1.4645  0.6454
20737SOL     OW74269   4.409   6.020   0.074 -0.8026  0.1099 -0.3979
20737SOL    HW174270   4.439   6.114   0.089 -2.1431  0.4456  0.2251
20737SOL    HW274271   4.381   5.980   0.161  0.2560 -1.0533 -0.5674
20738SOL     OW74272   9.901   9.905   5.676  0.2333 -0.3496  0.1223
20738SOL    HW174273   9.972   9.837   5.660 -1.3385 -1.6410 -1.5776
20738SOL    HW274274   9.817   9.877   5.629 -0.3201  2.9744 -0.9804
20739SOL     OW74275   1.831   0.192   2.426  0.6118  0.3626  0.0937
20739SOL    HW174276   1.848   0.123   2.357  0.4700  0.9751 -0.5603
20739SOL    HW274277   1.918   0.224   2.463  0.8722  2.2968 -2.0645
20740SOL     OW74278   0.352   4.000   6.387  0.0004 -0.8143 -0.8422
20740SOL    HW174279   0.431   3.938   6.379  1.7918  1.2553  0.5379
20740SOL    HW274280   0.298   3.994   6.303  1.0112 -3.0370 -1.3945
20741SOL     OW74281   2.527   5.574   3.542 -0.4333  0.3407  0.1284
20741SOL    HW174282   2.559   5.543   3.452  0.2750 -0.3529  0.6191
20741SOL    HW274283   2.429   5.593   3.537 -0.2397  1.1127 -1.0128
20742SOL     OW74284   5.095   2.330   2.622 -0.1988 -0.1984 -0.0572
20742SOL    HW174285   5.016   2.296   2.571 -0.1694 -1.0398  0.4452
20742SOL    HW274286   5.086   2.428   2.637 -0.1730  0.0762 -1.7550
20743SOL     OW74287   6.278   2.054   5.084 -0.3019 -0.3106  0.2219
20743SOL    HW174288   6.271   1.955   5.089 -1.1848 -0.3926 -1.9114
20743SOL    HW274289   6.319   2.080   4.996 -0.8477  1.2235  0.4083
20744SOL     OW74290   5.561   5.079   0.732  0.0700 -0.4590 -0.2738
20744SOL    HW174291   5.483   5.098   0.671  0.6059  1.0247 -0.5011
20744SOL    HW274292   5.580   4.981   0.730 -1.5188 -0.7877 -0.5528
20745SOL     OW74293   9.753   2.039   1.345  0.3403  0.1711 -0.4081
20745SOL    HW174294   9.812   2.069   1.420  1.4194 -1.0207 -0.7627
20745SOL    HW274295   9.768   2.098   1.266  0.0127  0.7484 -0.0389
20746SOL     OW74296   9.308   7.944   7.538 -0.1892  0.3813  0.3031
20746SOL    HW174297   9.212   7.927   7.513 -0.4395  2.2021 -0.0726
20746SOL    HW274298   9.313   8.025   7.597  0.7837 -1.6883  3.1725
20747SOL     OW74299   0.784   3.819   2.804  0.5645  0.0358 -0.2186
20747SOL    HW174300   0.761   3.852   2.712 -0.6070  0.6381  0.2796
20747SOL    HW274301   0.841   3.886   2.850  1.6463 -0.5368 -0.7190
20748SOL     OW74302   0.658   4.701   4.332 -0.5054  0.6200 -0.5321
20748SOL    HW174303   0.679   4.787   4.286  0.5324  2.9089  3.9313
20748SOL    HW274304   0.734   4.675   4.391 -2.1309 -1.6339  0.6586
20749SOL     OW74305   9.279   6.831   4.793 -0.1813 -0.1298  0.1310
20749SOL    HW174306   9.318   6.866   4.878  0.8980 -1.2164  0.0936
20749SOL    HW274307   9.352   6.806   4.731 -0.9647  1.1625 -1.3501
20750SOL     OW74308   3.094   9.220   0.115 -0.0368  0.2600  0.0892
20750SOL    HW174309   3.090   9.281   0.036 -1.0120 -0.8483 -0.7276
20750SOL    HW274310   3.188   9.187   0.127  0.3833  1.4590  0.2005
20751SOL     OW74311   3.561   9.982   9.680  0.7608 -1.1303 -0.4404
20751SOL    HW174312   3.562   9.928   9.764  1.2144 -1.4968 -0.6816
20751SOL    HW274313   3.572   9.921   9.602  2.0077 -0.6063 -0.6752
20752SOL     OW74314   2.751   7.504   9.748 -0.0628  0.0150  0.3526
20752SOL    HW174315   2.750   7.572   9.674  1.4990 -1.9462 -1.5447
20752SOL    HW274316   2.692   7.427   9.723 -1.5076  0.4382  2.3093
20753SOL     OW74317   1.863   5.160   5.878  0.2783 -0.4615  0.2182
20753SOL    HW174318   1.778   5.168   5.826 -0.0462 -1.5662  0.5701
20753SOL    HW274319   1.940   5.190   5.821 -0.1124 -1.3249 -0.7862
20754SOL     OW74320   9.524   7.486   7.922  0.3836  0.2004 -0.3669
20754SOL    HW174321   9.596   7.434   7.968 -0.3719 -0.7858 -0.3094
20754SOL    HW274322   9.558   7.578   7.902  2.0145 -0.5837 -1.2589
20755SOL     OW74323   8.308   1.868   9.892  0.6726  0.2746 -0.2780
20755SOL    HW174324   8.286   1.953   9.844 -1.0751  0.1243  0.2142
20755SOL    HW274325   8.275   1.790   9.839  0.7313 -0.0102  0.0975
20756SOL     OW74326   1.505   0.518   1.530  0.1203  0.0167  0.1150
20756SOL    HW174327   1.438   0.546   1.461  1.1242 -1.3053 -1.4098
20756SOL    HW274328   1.466   0.446   1.587 -0.4989  0.7088  0.5785
20757SOL     OW74329   3.814   4.656   6.284  0.1182  0.6232  0.0462
20757SOL    HW174330   3.836   4.636   6.189  1.6790 -0.3923  0.6012
20757SOL    HW274331   3.721   4.626   6.304  0.8522 -2.0821 -0.3480
20758SOL     OW74332   5.533   2.173   2.020 -0.2485  0.1935 -0.9112
20758SOL    HW174333   5.597   2.197   2.093  0.9298  0.8224 -2.1329
20758SOL    HW274334   5.484   2.089   2.045  1.3269 -0.5178 -0.1090
20759SOL     OW74335   9.466   7.315   9.837 -0.5318 -0.3234 -0.3843
20759SOL    HW174336   9.407   7.286   9.762  0.0666  0.1504 -1.0421
20759SOL    HW274337   9.559   7.329   9.803  0.0254 -1.3084  0.6965
20760SOL     OW74338   3.182   8.352   3.581  0.1165 -0.6216  0.0305
20760SOL    HW174339   3.246   8.275   3.586  0.6055 -0.2004  0.3831
20760SOL    HW274340   3.118   8.348   3.657  1.4538  0.4573  1.2414
20761SOL     OW74341   3.403   4.353   2.988  0.8111 -0.0433  0.2040
20761SOL    HW174342   3.305   4.350   2.969  0.3594  1.0392  2.2753
20761SOL    HW274343   3.448   4.278   2.940 -1.0875 -0.8326 -0.3973
20762SOL     OW74344   2.894   9.969   9.719  0.3356 -0.1525 -0.0895
20762SOL    HW174345   2.834  10.035   9.673 -0.4545 -1.8068 -1.5197
20762SOL    HW274346   2.923   9.899   9.653 -0.6928 -2.5097  1.8672
20763SOL     OW74347   4.434   4.505   3.167  0.5852 -0.4521  0.6203
20763SOL    HW174348   4.464   4.435   3.101  1.2848  1.5787 -1.2751
20763SOL    HW274349   4.334   4.503   3.174  0.5237 -0.8726 -0.2893
20764SOL     OW74350   9.244   9.978   1.041 -0.0219 -0.1585  0.2953
20764SOL    HW174351   9.163   9.925   1.016  1.7828 -2.7728 -0.2607
20764SOL    HW274352   9.301   9.994   0.960  0.1582  1.4431  0.7158
20765SOL     OW74353   1.769   8.777   6.181 -0.1366  0.0715  0.4323
20765SOL    HW174354   1.731   8.740   6.096 -0.4019 -2.3019  1.5483
20765SOL    HW274355   1.852   8.829   6.160  1.3517 -2.7784 -1.0374
20766SOL     OW74356   3.021   0.066   4.378  0.3274  0.3107 -0.2533
20766SOL    HW174357   3.106   0.085   4.328  0.9410 -1.4677  0.0690
20766SOL    HW274358   2.959   0.015   4.320  0.8289 -1.2962  0.5894
20767SOL     OW74359   3.849   0.091   4.761 -0.1014  0.5049 -0.2503
20767SOL    HW174360   3.811   0.010   4.807  0.0746  1.4280  1.5606
20767SOL    HW274361   3.937   0.067   4.720  0.7463  0.1606  1.7071
20768SOL     OW74362   2.507   1.121   9.964 -0.2144  0.1836 -0.3799
20768SOL    HW174363   2.599   1.141   9.997 -0.8756  1.6904  0.6156
20768SOL    HW274364   2.480   1.029   9.994  0.6736  0.0262 -0.0452
20769SOL     OW74365   3.141   0.096   9.502 -0.4509 -0.3373  0.5640
20769SOL    HW174366   3.136   0.049   9.414  0.6533 -0.6099  0.6354
20769SOL    HW274367   3.231   0.139   9.511 -0.6529 -0.1034  1.4443
20770SOL     OW74368   6.485   1.125   9.766 -0.5648  0.4118 -0.8550
20770SOL    HW174369   6.412   1.080   9.817 -0.7635  1.5196 -0.1364
20770SOL    HW274370   6.543   1.176   9.829 -1.3087  2.4905 -1.8205
20771SOL     OW74371   5.605   6.644   1.343  0.3101 -0.2473  0.0457
20771SOL    HW174372   5.545   6.641   1.262  1.9431  1.5208 -1.2514
20771SOL    HW274373   5.623   6.739   1.368  0.9962 -0.7829  1.6314
20772SOL     OW74374   3.266   5.788   3.112 -0.6270  0.3292  0.0799
20772SOL    HW174375   3.254   5.698   3.071 -0.4793  0.5168 -0.3757
20772SOL    HW274376   3.189   5.846   3.089 -1.3732 -0.0804  1.4581
20773SOL     OW74377   9.433   4.152   9.492  0.3707  0.2336  0.4857
20773SOL    HW174378   9.343   4.117   9.465  0.1864  0.7610  0.4082
20773SOL    HW274379   9.498   4.138   9.418 -0.3902  2.6662 -0.7024
20774SOL     OW74380   3.549   8.553   2.117  0.0475  0.8404 -0.1958
20774SOL    HW174381   3.541   8.606   2.202 -2.5547  0.0018  0.1311
20774SOL    HW274382   3.511   8.607   2.042 -1.3773  0.0106 -0.0937
20775SOL     OW74383   1.730   2.883   4.228 -0.0421 -0.0077 -0.6071
20775SOL    HW174384   1.702   2.930   4.312 -0.4232 -2.3669  0.6034
20775SOL    HW274385   1.824   2.849   4.239  0.7691  1.6817 -2.0233
20776SOL     OW74386   4.940   5.514  10.065 -0.8149  0.2076 -0.1838
20776SOL    HW174387   5.015   5.568  10.102 -1.8683  1.3580  0.3203
20776SOL    HW274388   4.968   5.471   9.980 -0.2604  2.3382 -1.1096
20777SOL     OW74389   4.313   5.095   6.462  0.2609 -0.0355 -0.3764
20777SOL    HW174390   4.322   5.000   6.432 -0.5691 -0.7090  1.4865
20777SOL    HW274391   4.224   5.131   6.433  0.0379 -0.2351  0.0677
20778SOL     OW74392   0.404   9.590   3.848  0.1996  0.0179  0.2201
20778SOL    HW174393   0.422   9.662   3.781  0.2114 -0.4624 -0.2965
20778SOL    HW274394   0.410   9.500   3.803 -0.4893 -0.2728  0.7044
20779SOL     OW74395   7.617   3.067   8.880  0.2816 -0.0826 -0.0679
20779SOL    HW174396   7.566   3.153   8.885 -0.0489 -0.1295 -2.0398
20779SOL    HW274397   7.687   3.075   8.808  1.8018 -0.6609  1.3354
20780SOL     OW74398   9.441   8.079   2.567  0.1478  0.6772  0.4456
20780SOL    HW174399   9.516   8.025   2.606  0.9874 -0.7305 -2.9364
20780SOL    HW274400   9.466   8.175   2.566  1.0820  0.4523  1.1726
20781SOL     OW74401   1.518   4.163   0.647 -0.1653  0.1752  0.3437
20781SOL    HW174402   1.550   4.083   0.698  0.1397 -0.2467 -0.5103
20781SOL    HW274403   1.546   4.246   0.695  1.0695 -0.2081  0.3023
20782SOL     OW74404   7.673   0.882   1.788 -0.2177 -0.0189  0.0022
20782SOL    HW174405   7.703   0.973   1.816  0.3013  0.0790 -0.8430
20782SOL    HW274406   7.609   0.846   1.856 -0.2131  0.8553  0.4880
20783SOL     OW74407   6.257   0.373   8.829  0.5520 -0.3323 -0.0042
20783SOL    HW174408   6.193   0.329   8.766  0.6855 -0.1770 -0.2440
20783SOL    HW274409   6.283   0.308   8.900  0.8157 -0.6648 -0.4071
20784SOL     OW74410   5.430   6.301   3.142 -0.0359  0.1425 -0.6643
20784SOL    HW174411   5.388   6.313   3.052 -1.4759  1.6110  0.1523
20784SOL    HW274412   5.476   6.213   3.146 -0.3019 -0.1250 -2.6936
20785SOL     OW74413   3.472   9.572   4.433 -0.0560  0.2477  0.4505
20785SOL    HW174414   3.535   9.496   4.447 -1.7479 -1.0908  0.9399
20785SOL    HW274415   3.482   9.639   4.507  1.9254  0.8619 -0.3532
20786SOL     OW74416   2.405   5.938   6.597  0.2331 -0.0610 -0.3536
20786SOL    HW174417   2.317   5.896   6.619 -0.9539  1.2881 -2.3349
20786SOL    HW274418   2.477   5.869   6.603 -1.1385 -1.5065 -0.0232
20787SOL     OW74419   9.289   8.976   2.148  0.0412  0.0149  0.3808
20787SOL    HW174420   9.236   9.048   2.193  1.0599  0.0514  1.5538
20787SOL    HW274421   9.384   9.005   2.138  0.5365 -1.2634  1.1445
20788SOL     OW74422   4.085   2.152   1.461 -0.4983  0.0061  0.0649
20788SOL    HW174423   4.003   2.123   1.412 -0.9243  0.8841  0.2535
20788SOL    HW274424   4.142   2.208   1.401 -0.4361  0.0811  0.1919
20789SOL     OW74425   8.651   5.206   3.697 -0.0936 -0.0610 -0.2409
20789SOL    HW174426   8.683   5.137   3.631 -1.2347  0.0886 -0.9602
20789SOL    HW274427   8.730   5.246   3.743  0.7004 -0.4319 -1.2427
20790SOL     OW74428   0.901   9.187   0.257 -0.6263  0.0561 -0.0159
20790SOL    HW174429   0.974   9.217   0.195 -0.0272 -1.7085 -0.1793
20790SOL    HW274430   0.941   9.149   0.340 -1.4233  1.7983  1.1842
20791SOL     OW74431   4.939   8.775   6.102 -0.8834 -0.0182  0.4419
20791SOL    HW174432   4.935   8.842   6.028 -1.6058  0.8056  1.2104
20791SOL    HW274433   5.023   8.789   6.155 -0.4510 -0.4967 -0.1106
20792SOL     OW74434   2.274   9.875   5.753 -0.0741 -0.1674 -0.0664
20792SOL    HW174435   2.251   9.856   5.849  2.1615  2.6507  1.0880
20792SOL    HW274436   2.192   9.864   5.697 -1.7085 -0.6878  2.3430
20793SOL     OW74437   3.607   8.035   6.177 -0.0316  0.2854 -0.1152
20793SOL    HW174438   3.588   8.115   6.119  0.5501  0.9378  0.5817
20793SOL    HW274439   3.702   8.037   6.206  0.0274 -0.7589 -0.2222
20794SOL     OW74440   0.977   0.716   6.935 -0.0905  0.3635  0.4794
20794SOL    HW174441   0.985   0.755   7.027  3.0545  3.7737 -1.0775
20794SOL    HW274442   1.067   0.685   6.905 -0.5252  1.8053 -2.4530
20795SOL     OW74443   3.575   4.727   5.004  0.0828  0.5145  0.9206
20795SOL    HW174444   3.624   4.814   5.001 -1.7739  1.5335 -0.7282
20795SOL    HW274445   3.477   4.744   4.994 -0.0585 -2.0013 -2.7088
20796SOL     OW74446   4.691   2.553   9.649 -0.2258  0.0029 -0.2625
20796SOL    HW174447   4.655   2.604   9.571  1.1551  2.1000  0.4229
20796SOL    HW274448   4.724   2.617   9.718 -1.2483 -1.8041  1.9893
20797SOL     OW74449   3.588   5.113   2.690 -0.5094  0.3532  0.2623
20797SOL    HW174450   3.577   5.186   2.622  1.9685  1.9212  1.4417
20797SOL    HW274451   3.626   5.032   2.646 -0.4866  0.8000 -0.5483
20798SOL     OW74452   8.959   5.346   6.696  0.5676  0.0618  0.1152
20798SOL    HW174453   8.882   5.283   6.692  0.6617 -0.0095 -0.6949
20798SOL    HW274454   8.925   5.439   6.713  0.0329  0.4824 -2.9720
20799SOL     OW74455   9.116   3.468   7.786 -0.2879  0.2879  0.2402
20799SOL    HW174456   9.086   3.457   7.691 -0.5005  2.1207  0.0789
20799SOL    HW274457   9.036   3.480   7.844 -0.1144 -0.0144  0.5401
20800SOL     OW74458   7.500   2.833   0.680 -0.6153  0.1548 -0.6582
20800SOL    HW174459   7.569   2.881   0.735 -1.5962  0.7529  0.0793
20800SOL    HW274460   7.545   2.771   0.617  0.6029  0.5578 -0.2071
20801SOL     OW74461   3.259   4.802   1.048 -0.1744 -0.3491  0.2297
20801SOL    HW174462   3.171   4.795   1.002 -0.6031  0.2686  0.9305
20801SOL    HW274463   3.327   4.750   0.998 -0.8240 -0.4117 -0.6051
20802SOL     OW74464   9.864   0.090   0.138  0.0225 -0.6871 -0.4137
20802SOL    HW174465   9.898   0.150   0.211  0.0180 -0.4189 -0.6314
20802SOL    HW274466   9.777   0.049   0.167  0.1857 -0.8359 -0.1370
20803SOL     OW74467   5.779   1.330   0.076  0.5699 -0.1107  0.0908
20803SOL    HW174468   5.868   1.375   0.068  0.3059  0.3233 -0.4501
20803SOL    HW274469   5.779   1.268   0.155  0.7969  1.1806  1.1350
20804SOL     OW74470   8.525   1.485   1.883 -0.2251  0.1019 -0.4303
20804SOL    HW174471   8.442   1.431   1.870 -0.3644  0.2565 -0.1888
20804SOL    HW274472   8.585   1.475   1.804  0.4704 -1.6863  0.3138
20805SOL     OW74473   9.860   2.979   4.895  0.2936 -0.0492 -0.2681
20805SOL    HW174474   9.909   3.038   4.831  0.0504 -0.2956 -0.6797
20805SOL    HW274475   9.920   2.904   4.924  0.0128 -0.6190 -1.1351
20806SOL     OW74476   7.805   5.998   7.115 -0.2644 -0.6122  0.1227
20806SOL    HW174477   7.873   6.054   7.068 -0.1480 -0.3479  0.6088
20806SOL    HW274478   7.850   5.923   7.162 -0.4308 -1.1798 -0.6171
20807SOL     OW74479   2.774   4.585   3.342  0.1718  0.4122 -0.4124
20807SOL    HW174480   2.821   4.606   3.428  0.3809  1.5837 -0.7912
20807SOL    HW274481   2.776   4.666   3.283 -0.4867 -0.1943 -1.2834
20808SOL     OW74482   5.353   2.836   8.962  0.1558  0.3145  0.5879
20808SOL    HW174483   5.302   2.909   8.915  1.5031  0.2388 -1.0352
20808SOL    HW274484   5.322   2.831   9.057 -0.8955  2.1192  0.3848
20809SOL     OW74485   2.539   9.110   0.216  0.3571 -0.2866 -0.1439
20809SOL    HW174486   2.610   9.070   0.274  0.0532 -0.1207  0.3485
20809SOL    HW274487   2.455   9.056   0.224 -0.3729  1.0181  1.3258
20810SOL     OW74488   2.672   4.881   1.720  0.0387  0.0996 -0.2610
20810SOL    HW174489   2.589   4.834   1.690 -1.2715  1.8657  0.5516
20810SOL    HW274490   2.652   4.936   1.801  2.3875 -0.7418  0.9302
20811SOL     OW74491   4.952   0.243   4.624 -0.4227  0.0045  0.1744
20811SOL    HW174492   5.050   0.259   4.625 -0.3277 -0.3892 -1.4053
20811SOL    HW274493   4.931   0.159   4.675  0.3281 -1.2198 -1.4824
20812SOL     OW74494   1.570   9.777   7.014  0.0167 -0.0709 -0.0928
20812SOL    HW174495   1.592   9.843   7.087 -0.9079  0.5404 -0.3640
20812SOL    HW274496   1.595   9.685   7.045  0.4853  0.2939  0.6415
20813SOL     OW74497   1.075   3.992   2.687 -0.4201  0.0547 -0.0019
20813SOL    HW174498   1.080   4.087   2.655  1.0619 -0.1394 -0.3850
20813SOL    HW274499   1.047   3.990   2.783 -0.5597  0.8727 -0.0239
20814SOL     OW74500   6.140   2.943   9.604 -0.6914 -0.2092 -0.1079
20814SOL    HW174501   6.103   2.886   9.530  1.8683 -0.0416 -1.5497
20814SOL    HW274502   6.219   2.898   9.645  0.6683  1.7706 -0.5079
20815SOL     OW74503   5.071   3.463   7.350  0.3550 -0.2727 -0.5139
20815SOL    HW174504   4.985   3.451   7.302  0.4261  0.0854 -0.7354
20815SOL    HW274505   5.065   3.422   7.441  0.4079 -1.4410 -1.0269
20816SOL     OW74506   9.254   2.611   3.378 -0.2982 -0.0296  0.6852
20816SOL    HW174507   9.277   2.665   3.297 -1.4374  1.4476  1.3301
20816SOL    HW274508   9.320   2.629   3.450 -0.8322  0.7444  0.9932
20817SOL     OW74509   1.795   8.919   3.116  0.0509 -0.0633 -0.2939
20817SOL    HW174510   1.810   8.820   3.110 -2.3481 -0.5873  1.3696
20817SOL    HW274511   1.853   8.957   3.187  0.3345 -0.4473 -0.3167
20818SOL     OW74512   0.089   3.559   3.002  0.2994 -0.4032 -0.2099
20818SOL    HW174513   0.138   3.642   2.975 -2.5572  0.9106 -1.5690
20818SOL    HW274514   0.071   3.560   3.100  0.3040  0.5968 -0.2197
20819SOL     OW74515   2.411   6.358   1.480 -0.6233 -0.6941  0.1831
20819SOL    HW174516   2.400   6.396   1.388 -0.7715  0.1399  0.5415
20819SOL    HW274517   2.339   6.393   1.540  1.2935  1.2877  1.4128
20820SOL     OW74518   1.479   5.063   1.759  0.1573 -0.1304  0.1915
20820SOL    HW174519   1.382   5.045   1.749 -0.1488  1.9559 -0.7680
20820SOL    HW274520   1.518   5.092   1.672  1.5774 -0.6030  0.6390
20821SOL     OW74521   1.693   0.372   8.042 -0.2595 -0.1634 -0.0251
20821SOL    HW174522   1.746   0.293   8.013 -1.5613 -1.1875  0.3331
20821SOL    HW274523   1.606   0.342   8.080 -0.9865  1.4665 -0.3380
20822SOL     OW74524   2.211   7.050   5.894 -0.2048 -0.4209  0.3109
20822SOL    HW174525   2.302   7.090   5.896  0.4048 -1.8847  2.4320
20822SOL    HW274526   2.143   7.123   5.901  0.7280  0.7980 -2.6157
20823SOL     OW74527   3.454   2.341   9.978 -0.8996 -0.0211 -0.2464
20823SOL    HW174528   3.419   2.399  10.051  0.6226  0.0577  0.4288
20823SOL    HW274529   3.531   2.286  10.012 -0.0209  0.1979 -1.8454
20824SOL     OW74530   4.370   5.232   8.201 -0.2982  0.0634 -0.0573
20824SOL    HW174531   4.402   5.151   8.251  1.6713 -1.3568 -3.4812
20824SOL    HW274532   4.270   5.228   8.192 -0.2478 -1.8578  0.0260
20825SOL     OW74533   7.668   3.345   0.795 -0.5087 -0.8672 -0.2125
20825SOL    HW174534   7.623   3.355   0.707 -0.0721  0.0317 -0.3452
20825SOL    HW274535   7.768   3.347   0.782 -0.4190  2.6134  0.6214
20826SOL     OW74536   9.211   2.130   9.221 -0.0825  0.9755 -0.5732
20826SOL    HW174537   9.226   2.031   9.221 -2.0192  0.6691  0.1971
20826SOL    HW274538   9.236   2.166   9.131 -1.0525 -0.4905 -1.4604
20827SOL     OW74539   0.269   6.910   2.601  0.2391 -0.3665 -0.9120
20827SOL    HW174540   0.356   6.861   2.605  0.1965 -0.3447  0.6411
20827SOL    HW274541   0.195   6.846   2.583  0.3358 -0.7042 -0.1467
20828SOL     OW74542   5.442   7.450   3.705 -0.0591 -0.1375  0.1162
20828SOL    HW174543   5.410   7.358   3.725 -0.0521 -0.6866 -2.2177
20828SOL    HW274544   5.516   7.474   3.768  0.4751 -2.0385  0.2502
20829SOL     OW74545   4.438   9.420   8.852 -0.2061 -0.6810  0.3616
20829SOL    HW174546   4.499   9.351   8.813  1.8714  0.6202  1.2441
20829SOL    HW274547   4.387   9.380   8.929 -1.2781 -2.0670 -1.0448
20830SOL     OW74548   8.913   4.861   9.615 -0.0776  0.7495 -0.3683
20830SOL    HW174549   8.875   4.822   9.699  0.5286 -0.4555 -0.6409
20830SOL    HW274550   8.846   4.851   9.541  0.1492  0.0330 -0.4839
20831SOL     OW74551   0.160   3.273   5.274 -0.8137 -0.4275  0.2856
20831SOL    HW174552   0.095   3.346   5.253  0.3852  0.3394 -0.8281
20831SOL    HW274553   0.204   3.292   5.362 -0.3367  0.3350 -0.1092
20832SOL     OW74554   2.491   7.199   1.520 -0.4784 -0.0036  0.5897
20832SOL    HW174555   2.520   7.176   1.427  0.5068 -0.3445  0.9732
20832SOL    HW274556   2.415   7.140   1.547  1.0633 -1.8147  1.0231
20833SOL     OW74557   5.904   2.869   2.680 -0.9534  0.5728 -0.3638
20833SOL    HW174558   5.864   2.826   2.760 -0.0101 -0.5048 -0.4574
20833SOL    HW274559   5.948   2.800   2.623 -0.4199  1.5070 -1.1064
20834SOL     OW74560   3.582   6.338   3.623 -0.3343 -1.0655  0.5781
20834SOL    HW174561   3.672   6.358   3.662  0.4642 -2.3164 -0.5778
20834SOL    HW274562   3.585   6.250   3.576 -1.7722 -0.4489 -0.7092
20835SOL     OW74563   9.282   9.039   7.813 -0.0226 -0.3258 -0.2317
20835SOL    HW174564   9.360   8.986   7.847  0.8268  1.6258  0.9237
20835SOL    HW274565   9.225   9.067   7.890  1.1255  2.9040 -0.5067
20836SOL     OW74566   5.593   3.518   9.467  0.5675  0.4865 -0.6028
20836SOL    HW174567   5.669   3.482   9.523 -0.1712  0.4948  0.4254
20836SOL    HW274568   5.561   3.604   9.506 -0.7988 -0.1493 -0.2800
20837SOL     OW74569   0.830   6.059   6.945 -0.2783  0.5599 -0.2759
20837SOL    HW174570   0.870   6.150   6.960  0.1128  1.0112 -3.5890
20837SOL    HW274571   0.903   5.995   6.920 -0.8085 -0.1958  0.0937
20838SOL     OW74572   7.499   3.918   9.441 -0.6861  0.0650  0.5722
20838SOL    HW174573   7.546   4.002   9.469 -2.6097  0.8673  1.4819
20838SOL    HW274574   7.507   3.850   9.513 -0.4193 -0.0180  0.4686
20839SOL     OW74575   2.473   8.549   4.716 -0.2444 -0.3307  0.1718
20839SOL    HW174576   2.426   8.570   4.801  1.0269 -1.4765  1.1661
20839SOL    HW274577   2.413   8.573   4.639 -1.6052  0.2266  1.3679
20840SOL     OW74578   9.287   8.377   1.895 -0.1347  0.6955  0.5751
20840SOL    HW174579   9.266   8.383   1.797  2.9465 -1.4842 -0.2966
20840SOL    HW274580   9.327   8.464   1.925  2.4176  0.1582 -1.0668
20841SOL     OW74581   1.697   0.546   6.374 -0.3532 -0.1096 -0.1590
20841SOL    HW174582   1.756   0.510   6.301 -0.8454  1.4008 -1.3117
20841SOL    HW274583   1.637   0.616   6.337 -1.7952 -0.5167  1.3583
20842SOL     OW74584   4.613   2.438   2.933  0.2450 -0.0034 -0.1928
20842SOL    HW174585   4.581   2.346   2.910  0.2450 -0.1370  0.3413
20842SOL    HW274586   4.607   2.497   2.852  1.6501 -0.8670 -0.9426
20843SOL     OW74587   5.370   5.505   9.236  0.2892 -0.1234  0.0860
20843SOL    HW174588   5.387   5.580   9.300  0.3590 -0.3638  0.3507
20843SOL    HW274589   5.375   5.539   9.142 -0.2176  0.3189  0.2180
20844SOL     OW74590   1.071   4.207   5.644  0.0070  0.6916  0.3583
20844SOL    HW174591   0.985   4.183   5.687  0.2171 -0.4020  0.1732
20844SOL    HW274592   1.075   4.306   5.630 -1.5684  0.6520 -0.3857
20845SOL     OW74593   2.959   1.944   3.624  0.1671  0.2556 -0.1136
20845SOL    HW174594   2.962   1.896   3.711 -2.1103 -0.5633 -0.4547
20845SOL    HW274595   2.924   1.882   3.553 -1.1352  1.8845 -0.9299
20846SOL     OW74596   3.696   1.368   0.803 -0.5533  0.1624  0.5155
20846SOL    HW174597   3.692   1.326   0.893 -3.4660 -2.5913 -0.8139
20846SOL    HW274598   3.776   1.334   0.754  0.8591  1.4239  1.9138
20847SOL     OW74599   7.017   1.312   1.636 -0.2410  0.1452 -0.3564
20847SOL    HW174600   7.109   1.292   1.604 -0.6086 -1.0092 -0.6976
20847SOL    HW274601   6.977   1.231   1.680 -1.5637  0.2402 -1.3464
20848SOL     OW74602   2.282   8.425   1.967  0.1730 -0.3294 -0.0375
20848SOL    HW174603   2.376   8.445   1.940  0.4092 -0.5253  0.6470
20848SOL    HW274604   2.260   8.474   2.052 -0.2998 -0.3946 -0.1163
20849SOL     OW74605   2.754   6.380   4.361 -0.3835 -0.2791 -0.3217
20849SOL    HW174606   2.717   6.309   4.301  0.4386 -3.0750  2.3276
20849SOL    HW274607   2.850   6.361   4.381 -0.2440  1.3800  0.7567
20850SOL     OW74608   1.201   0.782   8.794 -0.5835 -0.2225 -0.0698
20850SOL    HW174609   1.273   0.715   8.813  1.0381  1.0458 -1.6006
20850SOL    HW274610   1.161   0.762   8.704 -1.7758 -0.5945  0.5384
20851SOL     OW74611   4.129   6.481   9.578 -0.7941  0.0558  0.3406
20851SOL    HW174612   4.125   6.581   9.577 -0.5874  0.0639 -1.4262
20851SOL    HW274613   4.119   6.448   9.672 -0.5910  1.7437  0.9711
20852SOL     OW74614   0.329   0.051   0.391 -0.6225 -0.3737 -0.9547
20852SOL    HW174615   0.398   0.052   0.463  0.6009 -0.3657 -2.1193
20852SOL    HW274616   0.245   0.009   0.426  0.0673 -0.6716  0.3639
20853SOL     OW74617   9.174   5.533   2.785  0.5118  0.1090  0.4694
20853SOL    HW174618   9.265   5.531   2.744  0.1433  0.5488 -0.3845
20853SOL    HW274619   9.150   5.441   2.817 -0.2130 -0.8246 -2.6136
20854SOL     OW74620   0.311   2.958   7.868  0.3536  0.2035  0.4561
20854SOL    HW174621   0.282   3.001   7.953  1.7147  0.0045  1.0415
20854SOL    HW274622   0.410   2.941   7.871  0.5653  0.9402 -1.4823
20855SOL     OW74623   1.094   9.666   3.624  0.0577 -0.3516 -0.2524
20855SOL    HW174624   1.027   9.599   3.656  1.6287 -1.9794 -0.3182
20855SOL    HW274625   1.068   9.697   3.532 -1.8365  0.7627  0.6237
20856SOL     OW74626   5.354   1.323   9.110  0.0360  0.3068 -0.4267
20856SOL    HW174627   5.409   1.400   9.078 -2.1856  1.5265 -1.3919
20856SOL    HW274628   5.370   1.310   9.208  0.5981  1.8574 -0.3010
20857SOL     OW74629   6.164   2.939   8.766  0.2365  0.0799 -0.3488
20857SOL    HW174630   6.179   2.866   8.832  0.8498 -0.2549 -0.8521
20857SOL    HW274631   6.246   2.995   8.758  0.0427  0.3397 -0.5536
20858SOL     OW74632   9.278   4.365   9.821  0.4410 -0.5392  0.0852
20858SOL    HW174633   9.327   4.329   9.900 -0.8534 -0.8838  0.7302
20858SOL    HW274634   9.344   4.406   9.757  1.8292 -3.1140 -0.2064
20859SOL     OW74635   0.148   5.144   3.245  0.6120  0.0162  0.4280
20859SOL    HW174636   0.184   5.236   3.238 -2.2981  1.1636 -0.3379
20859SOL    HW274637   0.170   5.106   3.335 -0.4871  2.5272  1.8222
20860SOL     OW74638   2.165   3.961   9.221 -0.0991  0.5868 -0.0739
20860SOL    HW174639   2.223   3.951   9.140  0.9670 -0.9623  0.8446
20860SOL    HW274640   2.079   3.913   9.206  1.3104 -2.3591  0.8040
20861SOL     OW74641   3.322   1.508   3.946 -0.2897  0.3039 -0.3055
20861SOL    HW174642   3.313   1.605   3.923 -0.5341  0.3570  0.0061
20861SOL    HW274643   3.309   1.496   4.045  0.8311  0.0979 -0.1713
20862SOL     OW74644   4.611   9.007   2.272  0.1033  0.4193  0.2174
20862SOL    HW174645   4.558   9.092   2.269 -0.6290 -0.0396 -0.0197
20862SOL    HW274646   4.707   9.026   2.249  0.2553  1.4186  1.6601
20863SOL     OW74647   3.155   3.525   8.117 -1.0618 -0.4719 -0.4222
20863SOL    HW174648   3.133   3.617   8.149 -1.4064 -0.9268  0.6665
20863SOL    HW274649   3.253   3.508   8.131 -0.9103 -0.1144 -1.0303
20864SOL     OW74650   8.363   4.714   7.620 -0.5326 -0.0580  0.0288
20864SOL    HW174651   8.313   4.766   7.690 -0.4158  0.5407 -0.3299
20864SOL    HW274652   8.461   4.722   7.636 -0.5196 -0.3106  0.0754
20865SOL     OW74653   3.356   7.491   1.601  0.1126  0.2780  0.8082
20865SOL    HW174654   3.265   7.486   1.643 -0.5517 -0.8526 -0.7185
20865SOL    HW274655   3.426   7.476   1.671 -0.8916  0.6598  1.9081
20866SOL     OW74656   2.086   1.400   1.050 -0.1483 -0.1672 -0.0315
20866SOL    HW174657   2.104   1.447   0.963 -0.9541 -0.3618 -0.3098
20866SOL    HW274658   1.987   1.387   1.061 -0.0646 -0.0133  0.9865
20867SOL     OW74659   4.868   0.148   2.541 -0.1983 -0.1188 -0.5937
20867SOL    HW174660   4.960   0.165   2.578 -0.6438 -1.3505  1.1460
20867SOL    HW274661   4.802   0.207   2.586 -0.2988  0.6227 -1.7014
20868SOL     OW74662   9.606   2.726   1.792 -0.2966  0.0644  0.0872
20868SOL    HW174663   9.622   2.627   1.793 -0.2679  0.0765  1.5887
20868SOL    HW274664   9.682   2.773   1.837 -0.3278  0.7751 -0.5856
20869SOL     OW74665   8.550   8.586   6.875  0.0941 -0.3837  0.5463
20869SOL    HW174666   8.470   8.527   6.860 -1.1507  1.4844 -0.3533
20869SOL    HW274667   8.559   8.605   6.973 -2.1188  1.4241  0.4604
20870SOL     OW74668   1.065   8.030   3.933 -0.2546 -0.8613 -0.1879
20870SOL    HW174669   1.086   8.122   3.900 -1.4959 -1.1637 -1.9219
20870SOL    HW274670   1.033   8.034   4.027 -0.4980  0.5074 -0.3221
20871SOL     OW74671   2.252   0.577   8.585 -0.1749 -0.0923 -0.2496
20871SOL    HW174672   2.199   0.619   8.511 -1.7312 -0.4075  0.6674
20871SOL    HW274673   2.341   0.549   8.550 -1.0334 -0.5760 -2.1162
20872SOL     OW74674   2.309   2.604  10.026  0.4835 -0.2348 -0.0429
20872SOL    HW174675   2.303   2.511   9.990  0.6814  0.2094 -1.2433
20872SOL    HW274676   2.360   2.662   9.962  1.7010  0.3438  1.4198
20873SOL     OW74677   1.823   3.813   3.230 -0.1794  0.4117  0.2085
20873SOL    HW174678   1.827   3.907   3.266  1.5693 -0.4246  2.2763
20873SOL    HW274679   1.912   3.788   3.194 -1.6632  0.9175 -4.1319
20874SOL     OW74680   5.364   5.047   0.529 -0.1136 -0.2540  0.2343
20874SOL    HW174681   5.321   5.096   0.454  0.9278  1.3406  0.6453
20874SOL    HW274682   5.296   4.994   0.578 -0.9586 -0.5926 -1.2760
20875SOL     OW74683   0.044   8.538   5.761 -0.2153 -0.9347  0.0702
20875SOL    HW174684   0.126   8.558   5.708 -0.4960 -2.5735 -1.0457
20875SOL    HW274685  -0.000   8.456   5.723 -2.1563 -0.2905  0.8732
20876SOL     OW74686   9.870   8.317   6.612 -0.3302  0.2663 -0.5803
20876SOL    HW174687   9.892   8.413   6.593 -2.8558  0.8467 -0.6960
20876SOL    HW274688   9.808   8.311   6.690  1.2070 -1.4280  0.5797
20877SOL     OW74689   7.994   0.637   8.432  0.0185  0.0011  0.2070
20877SOL    HW174690   8.066   0.605   8.370  0.8471  2.4013 -0.1435
20877SOL    HW274691   7.931   0.696   8.381  1.8876  3.7403  2.0070
20878SOL     OW74692   3.315   2.269   3.328  0.1550  0.6712 -0.3033
20878SOL    HW174693   3.226   2.231   3.305 -0.1947  2.0030 -1.1782
20878SOL    HW274694   3.307   2.329   3.407  1.1365 -2.9047  2.6767
20879SOL     OW74695   0.979   0.335   0.488  0.4441  0.1078  0.0420
20879SOL    HW174696   0.988   0.397   0.410 -2.9052 -0.3987 -0.8221
20879SOL    HW274697   0.913   0.372   0.553  1.7842 -0.4032  1.7152
20880SOL     OW74698   8.219   1.233   8.483  0.0914 -0.0014 -0.0505
20880SOL    HW174699   8.281   1.157   8.461 -0.0500 -0.2527  0.4123
20880SOL    HW274700   8.270   1.319   8.482  0.3051 -0.1286 -0.3382
20881SOL     OW74701   4.282   8.072   1.023 -1.2037 -0.0171  0.0204
20881SOL    HW174702   4.195   8.024   1.029 -1.5934  0.5565 -0.9024
20881SOL    HW274703   4.266   8.171   1.031 -0.6085  0.0746  0.1029
20882SOL     OW74704   2.629   7.515   0.339  0.1506 -0.3316 -0.0748
20882SOL    HW174705   2.615   7.581   0.413 -0.4477  0.0382 -0.5116
20882SOL    HW274706   2.545   7.506   0.286  1.0177  0.5240 -1.6263
20883SOL     OW74707   7.784   1.708   3.439 -0.4680  0.1463 -0.1498
20883SOL    HW174708   7.760   1.624   3.487 -1.4431  0.3336 -0.2977
20883SOL    HW274709   7.841   1.686   3.360 -0.2765 -0.3207  0.1166
20884SOL     OW74710   3.918   8.174   8.092 -0.2622  0.1213 -0.0517
20884SOL    HW174711   3.929   8.249   8.028 -1.4430  0.4737  0.1376
20884SOL    HW274712   3.994   8.110   8.082 -0.3514  0.2444 -1.7017
20885SOL     OW74713   0.032   8.909   8.732  0.5828  0.1735  0.1880
20885SOL    HW174714  -0.029   8.864   8.798 -0.2155 -0.0059 -0.6668
20885SOL    HW274715   0.000   8.891   8.639  1.9871  0.0191 -0.2733
20886SOL     OW74716   0.364   6.746   4.431 -0.4338 -0.1766  0.0697
20886SOL    HW174717   0.269   6.768   4.409  0.0778  0.3122 -1.6660
20886SOL    HW274718   0.424   6.820   4.400  0.5502 -0.5929  0.9377
20887SOL     OW74719   8.505   7.278   3.287  0.1916  0.8420 -0.3962
20887SOL    HW174720   8.602   7.256   3.298  0.4535  1.5262 -1.2170
20887SOL    HW274721   8.496   7.361   3.232 -0.8121  1.7515  1.0987
20888SOL     OW74722   7.646   5.721   2.260  0.0875 -0.0891 -0.0905
20888SOL    HW174723   7.673   5.817   2.259 -2.2367  0.5820 -0.8705
20888SOL    HW274724   7.552   5.713   2.294  0.0632 -2.0332 -0.5356
20889SOL     OW74725   6.094   3.066   2.723 -0.3815  0.4679 -0.0280
20889SOL    HW174726   6.008   3.016   2.709 -1.1011  1.0879  2.0128
20889SOL    HW274727   6.170   3.013   2.686 -1.5281 -0.5650 -0.9290
20890SOL     OW74728   9.368   7.607   4.639 -0.3031  0.5755  0.2275
20890SOL    HW174729   9.437   7.572   4.576 -0.9148  1.7129 -1.0864
20890SOL    HW274730   9.391   7.700   4.667 -0.3032  0.2640  1.2833
20891SOL     OW74731   0.446   3.841   2.281 -0.0809 -0.4783  0.6043
20891SOL    HW174732   0.528   3.790   2.256  0.2801 -0.5789  1.9639
20891SOL    HW274733   0.448   3.862   2.379 -1.2815  0.2339  0.4871
20892SOL     OW74734   1.616   4.294   5.968  0.0344  0.2351 -0.0671
20892SOL    HW174735   1.687   4.262   6.030 -0.8592 -1.2313  0.2387
20892SOL    HW274736   1.533   4.315   6.020 -0.5428 -0.4761 -0.6864
20893SOL     OW74737   9.771   9.494   7.556  0.2181 -0.6046  0.3616
20893SOL    HW174738   9.683   9.540   7.568 -0.6645 -1.8895 -1.0342
20893SOL    HW274739   9.829   9.548   7.495  0.4302  0.2500  1.2922
20894SOL     OW74740   4.036   1.129   7.122  0.4369 -0.0618 -0.1982
20894SOL    HW174741   4.010   1.217   7.081 -0.6141 -0.3223 -0.0925
20894SOL    HW274742   4.123   1.099   7.083  0.8897  1.1160 -0.1059
20895SOL     OW74743   9.702   8.201   5.549 -0.2784  0.1441 -0.4015
20895SOL    HW174744   9.662   8.112   5.572  0.6744 -0.6957 -1.8601
20895SOL    HW274745   9.798   8.203   5.576 -0.2494  0.6674 -0.5275
20896SOL     OW74746   2.413   2.999   5.951  0.7197  0.5269  0.3122
20896SOL    HW174747   2.471   3.015   5.872  3.0705  0.3620  1.9607
20896SOL    HW274748   2.452   2.926   6.007 -0.4700  1.1990  2.0579
20897SOL     OW74749   4.136   2.482   3.433  0.7223 -0.5045  0.2257
20897SOL    HW174750   4.040   2.488   3.461  0.4681  1.0530 -0.9291
20897SOL    HW274751   4.154   2.548   3.360  2.5205 -1.2421 -0.0271
20898SOL     OW74752   9.652   4.628   2.217 -0.1145  0.7565  0.2177
20898SOL    HW174753   9.662   4.593   2.124 -0.8467  0.7936  0.1200
20898SOL    HW274754   9.666   4.727   2.217  0.4528  0.6795  0.2459
20899SOL     OW74755   2.219   6.113   5.778 -0.1962  0.0766 -0.2546
20899SOL    HW174756   2.139   6.163   5.746 -0.1386 -0.4967 -1.2992
20899SOL    HW274757   2.295   6.177   5.791 -0.2574  0.3432 -1.1519
20900SOL     OW74758   8.719   4.258   6.226  0.3408 -0.1736  0.5668
20900SOL    HW174759   8.673   4.317   6.160  0.0400 -0.0996  0.8387
20900SOL    HW274760   8.759   4.179   6.180 -1.9826 -1.4207  0.6097
20901SOL     OW74761   9.776   5.434   1.749 -0.0640 -0.2196 -0.1759
20901SOL    HW174762   9.702   5.492   1.784 -0.7645 -0.3651 -1.4063
20901SOL    HW274763   9.737   5.356   1.700  0.9032 -0.2653 -0.8827
20902SOL     OW74764   9.492   9.480   1.780 -0.0616  0.6284  0.9015
20902SOL    HW174765   9.476   9.457   1.876  0.1341  0.4288  0.8879
20902SOL    HW274766   9.482   9.578   1.767 -1.8500  0.4550  0.7861
20903SOL     OW74767   2.308   3.884   0.070  0.4685 -0.0329 -0.3035
20903SOL    HW174768   2.237   3.911   0.005  0.4527 -2.0014 -1.1413
20903SOL    HW274769   2.373   3.959   0.082 -1.8722  1.9054  0.6829
20904SOL     OW74770   1.743   3.787   6.942  0.0204  0.0281 -1.5386
20904SOL    HW174771   1.670   3.853   6.922 -0.3630 -0.4374 -1.6849
20904SOL    HW274772   1.831   3.834   6.939 -0.2290  0.4899 -1.8706
20905SOL     OW74773   7.674   6.658   2.196 -0.3925  0.5107  0.0501
20905SOL    HW174774   7.720   6.746   2.213 -0.8006  0.6412  0.4822
20905SOL    HW274775   7.590   6.653   2.249 -0.0036 -0.4453  0.6022
20906SOL     OW74776   4.499   4.349   1.812 -0.4563  0.9663 -0.1624
20906SOL    HW174777   4.536   4.315   1.899  0.7480  0.5027 -0.8405
20906SOL    HW274778   4.436   4.425   1.830 -0.8592  0.3335  1.1661
20907SOL     OW74779   2.786   3.835   1.886 -0.2265  0.0532 -0.0175
20907SOL    HW174780   2.848   3.898   1.840  0.9725  0.4315  2.0495
20907SOL    HW274781   2.788   3.746   1.841 -0.2409  0.8338 -1.5957
20908SOL     OW74782   8.954   5.400   1.082  0.3598  0.4599 -0.7313
20908SOL    HW174783   8.874   5.448   1.046  0.8592 -0.1410 -2.6932
20908SOL    HW274784   8.991   5.339   1.012  2.2704  0.3850  0.3016
20909SOL     OW74785   2.455   3.138   1.401 -0.1017  0.1769 -0.5813
20909SOL    HW174786   2.387   3.133   1.474  2.1516 -0.3626  1.5358
20909SOL    HW274787   2.452   3.228   1.358 -3.3460 -0.4175 -1.7638
20910SOL     OW74788   7.894   2.641   4.157 -0.1963 -0.3291 -0.4011
20910SOL    HW174789   7.892   2.588   4.242 -2.6833 -0.8999 -0.7599
20910SOL    HW274790   7.981   2.627   4.110  0.2336 -1.9628  0.8396
20911SOL     OW74791   3.291   2.596   2.549 -0.1960  0.4235 -0.4325
20911SOL    HW174792   3.248   2.538   2.618  0.0239  0.3747 -0.3358
20911SOL    HW274793   3.353   2.661   2.594  0.9484 -0.4757 -0.6777
20912SOL     OW74794   1.397   8.620   7.047 -0.3832 -0.1288 -0.2301
20912SOL    HW174795   1.421   8.567   7.128 -1.6149 -0.7296 -0.2469
20912SOL    HW274796   1.406   8.562   6.966 -0.7449 -0.0136 -0.3528
20913SOL     OW74797   2.950   1.703   7.884  0.3622 -0.0129  0.3599
20913SOL    HW174798   2.932   1.710   7.786  0.5343 -1.1703  0.2420
20913SOL    HW274799   2.949   1.607   7.912  0.7401  0.2787  1.4111
20914SOL     OW74800   1.867   8.468   2.946 -0.5266 -0.0236  0.4799
20914SOL    HW174801   1.853   8.386   2.890 -1.2326  0.3800  0.0531
20914SOL    HW274802   1.959   8.502   2.931 -0.4831 -0.3080  0.0720
20915SOL     OW74803   3.758   6.842  10.011 -0.1474  0.4072  0.2065
20915SOL    HW174804   3.670   6.867   9.971  0.9066  2.0129 -1.1756
20915SOL    HW274805   3.810   6.924  10.031  1.4131 -0.5484  0.1624
20916SOL     OW74806   5.647   8.890   6.794 -0.1033  0.1718  0.1302
20916SOL    HW174807   5.601   8.948   6.861 -1.3453  0.2139 -0.7662
20916SOL    HW274808   5.623   8.794   6.811  2.8623 -0.2842  2.3586
20917SOL     OW74809   3.212   8.036   6.885  0.5685 -0.1330  0.4228
20917SOL    HW174810   3.303   8.051   6.924  1.3648 -1.8831 -0.6738
20917SOL    HW274811   3.146   8.019   6.959  1.2656  0.5066  1.1911
20918SOL     OW74812   3.869   7.685   6.714  0.1546  0.2705  0.5065
20918SOL    HW174813   3.895   7.682   6.810 -1.6004 -1.7600  0.9538
20918SOL    HW274814   3.771   7.668   6.705 -0.0515  2.3179 -1.5268
20919SOL     OW74815   3.508   9.356   8.588 -0.5142 -0.5938 -0.1601
20919SOL    HW174816   3.598   9.314   8.603  0.0734  1.0193  0.9726
20919SOL    HW274817   3.448   9.333   8.665  0.0921  1.3357  0.9213
20920SOL     OW74818   1.126   6.142   1.735 -0.2094  0.3379 -0.0587
20920SOL    HW174819   1.031   6.115   1.753  0.3992 -0.9590  1.2633
20920SOL    HW274820   1.166   6.080   1.667  0.0911  0.0927  0.3434
20921SOL     OW74821   9.621   3.645   3.119 -0.6540 -0.6969 -0.0515
20921SOL    HW174822   9.569   3.684   3.044 -0.0324  0.4525  0.1090
20921SOL    HW274823   9.559   3.619   3.194 -1.0136  0.4481  0.0469
20922SOL     OW74824   7.337   2.150   5.249 -0.2640  0.6580 -0.4801
20922SOL    HW174825   7.330   2.229   5.309  0.6185  0.6148 -0.3068
20922SOL    HW274826   7.426   2.151   5.203 -1.0647  0.8941 -2.0702
20923SOL     OW74827   7.126   2.173   0.812 -0.2600  0.0931 -0.4296
20923SOL    HW174828   7.119   2.271   0.834  1.5927 -0.0165  0.7985
20923SOL    HW274829   7.219   2.142   0.830 -0.2980 -1.4653 -2.7093
20924SOL     OW74830   1.499   2.957   2.398  0.5450 -0.8848 -0.1020
20924SOL    HW174831   1.410   2.996   2.422  1.2442  0.5779  0.1777
20924SOL    HW274832   1.501   2.937   2.300  0.6428  1.0586 -0.5093
20925SOL     OW74833   6.832   1.528   9.721 -0.0424  0.1020  0.4894
20925SOL    HW174834   6.861   1.617   9.757  0.1695 -0.2844  1.2954
20925SOL    HW274835   6.873   1.455   9.777 -1.0090 -0.4870  0.4454
20926SOL     OW74836   1.089   6.680   9.656 -0.1758 -0.0494  0.7671
20926SOL    HW174837   1.131   6.689   9.566 -1.6886 -0.5310 -0.0213
20926SOL    HW274838   0.990   6.694   9.648 -0.3129  0.0372  2.3807
20927SOL     OW74839   4.324   8.815   3.432  0.2867  0.6652 -0.1569
20927SOL    HW174840   4.328   8.753   3.511  0.2757  0.9018  0.0304
20927SOL    HW274841   4.258   8.780   3.366 -0.9562  1.3402  0.6952
20928SOL     OW74842   9.533   0.999   7.812 -0.4299  0.4543  0.2987
20928SOL    HW174843   9.479   0.917   7.789 -3.0598  2.0797  0.4699
20928SOL    HW274844   9.558   0.996   7.909  1.7872 -1.3875 -0.2780
20929SOL     OW74845   2.268   4.364   9.381 -0.4273  0.0594 -1.1528
20929SOL    HW174846   2.258   4.357   9.282  1.7732  0.9575 -1.4558
20929SOL    HW274847   2.294   4.458   9.405 -3.1100  0.4232  0.4803
20930SOL     OW74848   3.996   0.027   2.814  0.1679  0.3205 -0.1147
20930SOL    HW174849   4.018  -0.060   2.857 -0.5632 -0.3940 -1.1725
20930SOL    HW274850   3.962   0.091   2.883 -1.9111 -1.1230  0.2460
20931SOL     OW74851   2.162   6.575   4.559  0.5873 -0.2816  0.2670
20931SOL    HW174852   2.225   6.502   4.585 -0.7543 -1.5635 -0.0206
20931SOL    HW274853   2.140   6.631   4.639  2.7542  0.7421  0.1986
20932SOL     OW74854   0.348   0.867   0.947  0.3425  0.0374 -0.2383
20932SOL    HW174855   0.446   0.868   0.923  0.4148  2.7344 -0.0682
20932SOL    HW274856   0.338   0.870   1.046  0.0850 -0.2035 -0.2585
20933SOL     OW74857   3.859   5.044   2.200 -0.1425  0.0353 -0.0174
20933SOL    HW174858   3.898   4.977   2.137 -0.5135  0.0928 -0.3116
20933SOL    HW274859   3.898   5.031   2.291  3.3558  2.4558 -1.0616
20934SOL     OW74860   2.250   8.805   9.388 -0.0655  0.0220  0.5171
20934SOL    HW174861   2.250   8.844   9.480 -2.0409  0.9652  0.1328
20934SOL    HW274862   2.335   8.753   9.374  0.1010 -0.4201  2.9720
20935SOL     OW74863   8.354   4.065   1.879  0.2689 -0.3712  0.1191
20935SOL    HW174864   8.437   4.047   1.828 -0.1733 -1.1564 -0.3344
20935SOL    HW274865   8.274   4.043   1.822 -0.2294 -1.3389  1.1690
20936SOL     OW74866   4.055   1.703   6.403  0.0681 -0.1491 -0.0777
20936SOL    HW174867   3.999   1.786   6.409  0.9605  0.5134 -0.8265
20936SOL    HW274868   4.115   1.708   6.324 -0.3691 -1.8417 -0.5442
20937SOL     OW74869   9.980   1.848   0.533 -0.0445  0.1959 -0.3485
20937SOL    HW174870  10.023   1.932   0.568  0.8953 -1.1041  1.6857
20937SOL    HW274871   9.881   1.853   0.549  0.1202  0.5082  0.5971
20938SOL     OW74872   2.613   2.288   8.564 -0.1714 -0.5303  0.0456
20938SOL    HW174873   2.565   2.216   8.615  1.3359 -1.9714 -0.5291
20938SOL    HW274874   2.657   2.351   8.629 -1.1290 -0.3702  0.5454
20939SOL     OW74875   4.353   9.709   6.835 -0.4777  0.3868 -0.0507
20939SOL    HW174876   4.340   9.713   6.934 -0.4273  1.7283 -0.0998
20939SOL    HW274877   4.326   9.618   6.802 -2.0825  0.4694  0.9699
20940SOL     OW74878   2.146   1.961   3.706  0.0588 -0.1743 -0.3040
20940SOL    HW174879   2.099   1.989   3.623  1.9411  1.2152 -0.9384
20940SOL    HW274880   2.241   1.938   3.684  0.5125 -0.0119  1.4147
20941SOL     OW74881   0.279   7.490   7.717  0.0749  0.5861 -0.3687
20941SOL    HW174882   0.282   7.512   7.815  1.1397  0.9857 -0.4821
20941SOL    HW274883   0.354   7.429   7.695  0.5859  1.4909 -1.1743
20942SOL     OW74884   7.028   0.422   4.805  0.1681 -0.1485 -0.3246
20942SOL    HW174885   7.066   0.393   4.892 -1.3718 -0.8252  0.1284
20942SOL    HW274886   7.079   0.501   4.771  1.2494 -0.3522  0.8118
20943SOL     OW74887   3.519   9.710   0.499  0.8253  0.1251  0.3056
20943SOL    HW174888   3.618   9.722   0.491  0.7475  0.5670 -0.0210
20943SOL    HW274889   3.499   9.618   0.533  1.2953 -0.4116 -0.8743
20944SOL     OW74890   8.000   6.016   0.683 -0.2093  0.1349  0.5308
20944SOL    HW174891   8.043   5.992   0.770 -0.8903  1.2973  1.2008
20944SOL    HW274892   7.983   5.933   0.630 -0.0080 -0.6007  1.6119
20945SOL     OW74893   9.491   9.413   4.930 -0.2485 -0.3103  0.4954
20945SOL    HW174894   9.398   9.432   4.898 -0.3413 -3.6896 -1.5116
20945SOL    HW274895   9.543   9.498   4.934 -1.5378  0.9177 -4.6644
20946SOL     OW74896   4.407   7.550   1.485  0.6100  0.2196  0.2758
20946SOL    HW174897   4.415   7.568   1.583  2.7437 -1.6846  0.4927
20946SOL    HW274898   4.314   7.520   1.463  0.1852  0.4516  1.7540
20947SOL     OW74899   2.352   2.077   1.010  0.2536 -0.2674  0.2277
20947SOL    HW174900   2.412   2.136   1.065 -0.2968 -1.2031  1.8640
20947SOL    HW274901   2.284   2.034   1.070 -0.6601 -0.9376 -1.2777
20948SOL     OW74902   9.592   2.445   8.558  0.3131  0.1336 -0.1544
20948SOL    HW174903   9.617   2.516   8.623 -1.0471  0.5630 -0.0729
20948SOL    HW274904   9.515   2.477   8.502  0.4748 -0.8123 -0.9263
20949SOL     OW74905   1.908   8.507   2.383 -0.0563  0.2266  0.0015
20949SOL    HW174906   1.815   8.519   2.417  0.6848 -0.1619  2.1996
20949SOL    HW274907   1.916   8.416   2.342 -1.1515  0.9805 -2.0006
20950SOL     OW74908   5.476   8.137   7.169  0.0442 -0.5619 -1.1676
20950SOL    HW174909   5.520   8.077   7.237 -0.2075 -0.6244 -1.0585
20950SOL    HW274910   5.429   8.080   7.101 -0.7434 -0.4810 -0.6973
20951SOL     OW74911   8.849   9.465   9.334  0.1509  0.0339 -0.3575
20951SOL    HW174912   8.807   9.534   9.393 -0.2034  0.5480 -1.2039
20951SOL    HW274913   8.800   9.460   9.248  0.8693 -0.4812 -0.7455
20952SOL     OW74914   1.808   5.136   6.150 -0.2452 -0.3517 -0.3434
20952SOL    HW174915   1.840   5.055   6.200 -0.9298  0.1425  0.9255
20952SOL    HW274916   1.835   5.129   6.054  1.1719 -1.2747  0.1098
20953SOL     OW74917   3.752   5.491   8.146 -0.3461  0.3868 -0.5492
20953SOL    HW174918   3.808   5.526   8.071 -0.7026  1.0308 -0.5124
20953SOL    HW274919   3.664   5.537   8.147 -0.3952  0.2827  0.1828
20954SOL     OW74920   5.830   6.901   1.364  0.1398 -0.0257 -0.1208
20954SOL    HW174921   5.807   6.955   1.445 -1.2810 -1.0371  0.1768
20954SOL    HW274922   5.913   6.848   1.383 -0.4454 -0.6191  0.8740
20955SOL     OW74923   3.435   3.263   8.668  0.1209 -0.7545 -0.1229
20955SOL    HW174924   3.441   3.165   8.691  0.1033 -0.8897 -0.7014
20955SOL    HW274925   3.516   3.290   8.616  1.6253  0.2488  2.6528
20956SOL     OW74926   1.203   0.540   0.077 -0.4989 -0.5131 -0.1472
20956SOL    HW174927   1.160   0.478   0.012 -1.4815 -0.3441  0.3358
20956SOL    HW274928   1.167   0.633   0.064  0.2913 -0.2121 -0.2580
20957SOL     OW74929   0.011   9.052   7.915  0.3699  0.1538  0.7627
20957SOL    HW174930  -0.077   9.057   7.869 -0.6148 -0.8881  2.4498
20957SOL    HW274931   0.082   9.096   7.860 -0.6923 -1.3471 -1.8740
20958SOL     OW74932   1.673   3.346   8.589 -0.2410  0.5542 -0.4027
20958SOL    HW174933   1.683   3.261   8.537  1.7771  0.0541  0.7636
20958SOL    HW274934   1.713   3.422   8.538  0.6638  0.2733 -0.1144
20959SOL     OW74935   7.206   9.703   4.217 -0.1313 -0.4499 -0.1183
20959SOL    HW174936   7.129   9.641   4.231  0.9172 -1.7484 -0.0584
20959SOL    HW274937   7.275   9.659   4.160 -0.2067  1.3677 -1.6668
20960SOL     OW74938   5.362   0.643   3.564  0.3791  0.0165 -0.0463
20960SOL    HW174939   5.381   0.555   3.608 -0.3641 -0.7092 -1.1541
20960SOL    HW274940   5.377   0.716   3.630 -2.3172 -1.1473  1.9670
20961SOL     OW74941   7.518   2.230   0.376  0.5709  0.1431  0.6245
20961SOL    HW174942   7.586   2.235   0.449  0.8199 -0.6378  0.4466
20961SOL    HW274943   7.480   2.321   0.360  1.8096  0.6381  0.4940
20962SOL     OW74944   0.298   7.099   9.880 -0.1991  0.4124 -0.0867
20962SOL    HW174945   0.209   7.052   9.884 -0.2822  0.4887 -0.8815
20962SOL    HW274946   0.283   7.197   9.866  0.0057  0.4036 -0.3801
20963SOL     OW74947   7.821   0.923   9.116 -0.3788 -0.3135  0.1171
20963SOL    HW174948   7.880   0.996   9.080  1.0209 -0.2251  2.4799
20963SOL    HW274949   7.777   0.953   9.200 -1.6874 -1.3668 -0.1677
20964SOL     OW74950   1.393   2.896   6.398  0.2825  0.1565  0.0183
20964SOL    HW174951   1.410   2.825   6.466 -0.2626 -0.3258 -0.3535
20964SOL    HW274952   1.397   2.986   6.443  1.1632 -0.0880  0.4493
20965SOL     OW74953   7.548   9.323   3.917 -0.1474 -0.2530  0.8153
20965SOL    HW174954   7.487   9.284   3.848 -0.5759  1.6573  0.0648
20965SOL    HW274955   7.539   9.423   3.916  0.9047 -0.1198  2.6641
20966SOL     OW74956   0.767   1.014   9.698  0.3413 -0.3309 -0.4115
20966SOL    HW174957   0.854   0.975   9.666  0.4428  0.2226 -0.8128
20966SOL    HW274958   0.698   0.942   9.704  0.9100 -0.8323  0.2043
20967SOL     OW74959   6.154   5.046   1.317 -0.7511  0.8696  0.0488
20967SOL    HW174960   6.186   5.141   1.308 -0.8123  1.0780  1.8388
20967SOL    HW274961   6.058   5.047   1.345 -0.0373  0.3382  2.7031
20968SOL     OW74962   9.435   5.319   3.741 -0.5059 -0.4842  0.0541
20968SOL    HW174963   9.438   5.383   3.665 -1.7953 -0.5827 -0.1024
20968SOL    HW274964   9.499   5.244   3.725  1.3875  1.0050  0.4814
20969SOL     OW74965   4.215   0.200   3.120 -0.2728 -0.0229  0.0317
20969SOL    HW174966   4.251   0.288   3.151  2.6757 -1.1922  0.0867
20969SOL    HW274967   4.289   0.133   3.116 -1.8834 -1.7536 -2.8305
20970SOL     OW74968   4.065   8.928   4.157  0.2419  0.0682  0.1846
20970SOL    HW174969   4.052   9.023   4.184  1.8085 -0.3953  2.6917
20970SOL    HW274970   4.156   8.917   4.115 -0.3588 -0.1267 -1.0910
20971SOL     OW74971   2.718   0.381   3.883  0.7780  0.3713  0.1223
20971SOL    HW174972   2.711   0.476   3.851 -0.5141  0.0902 -0.4591
20971SOL    HW274973   2.768   0.327   3.816 -0.1018  0.2376 -0.4239
20972SOL     OW74974   5.476   0.118   7.163 -0.0671 -0.2713 -0.4071
20972SOL    HW174975   5.530   0.196   7.132  0.1426 -0.2360  0.0430
20972SOL    HW274976   5.383   0.148   7.184  0.0430 -0.1146 -0.1289
20973SOL     OW74977   2.950   3.288   4.424  0.3669 -0.8806  0.0810
20973SOL    HW174978   2.857   3.283   4.460  0.9965 -0.2464  1.8613
20973SOL    HW274979   3.006   3.217   4.465  0.8920 -0.6900 -0.2969
20974SOL     OW74980   8.363   4.871   2.373  0.3241 -0.3180  0.0631
20974SOL    HW174981   8.270   4.888   2.340  0.8441  0.3141 -1.0977
20974SOL    HW274982   8.412   4.958   2.380  1.1219 -0.7453 -0.1961
20975SOL     OW74983   7.686   3.921   4.101 -0.2640  0.3789  0.5983
20975SOL    HW174984   7.721   3.881   4.186  1.6843 -0.7090 -0.6812
20975SOL    HW274985   7.642   3.849   4.047 -0.7114  0.8835  0.2960
20976SOL     OW74986   9.025   9.671   1.579 -0.2415 -0.0862 -0.2168
20976SOL    HW174987   9.043   9.633   1.670 -0.9225 -1.8834 -0.8164
20976SOL    HW274988   8.941   9.725   1.582 -1.1884 -1.5519 -0.1659
20977SOL     OW74989   0.076   6.187   4.580  0.1419  0.1335 -0.3909
20977SOL    HW174990  -0.022   6.167   4.586  0.1954  0.1401  0.6224
20977SOL    HW274991   0.123   6.111   4.537 -0.5008  0.7463 -2.2466
20978SOL     OW74992   3.369   7.505   7.478  0.0856 -0.7802  0.1026
20978SOL    HW174993   3.431   7.552   7.541 -0.6013  1.2441 -0.6987
20978SOL    HW274994   3.275   7.521   7.505 -0.2004 -0.2508 -1.1686
20979SOL     OW74995   1.873   6.492   0.432  0.3546  0.1191 -0.5012
20979SOL    HW174996   1.884   6.420   0.501 -3.7846 -0.6248 -0.4497
20979SOL    HW274997   1.901   6.457   0.343 -0.4787 -1.1934 -0.2711
20980SOL     OW74998   2.215   0.613   1.579 -0.3662  0.2321 -0.0963
20980SOL    HW174999   2.312   0.609   1.603 -0.6873 -0.0361  1.2106
20980SOL    HW275000   2.161   0.619   1.663 -1.3853  2.3470 -0.8765
20981SOL     OW75001   3.285   1.024   4.959 -0.3763 -0.0265 -0.2548
20981SOL    HW175002   3.302   0.969   5.041 -1.5628 -1.5958 -1.0421
20981SOL    HW275003   3.299   0.968   4.878  0.7185  1.5025 -1.1493
20982SOL     OW75004   8.136   9.337   7.390 -0.1091  0.1454 -0.0387
20982SOL    HW175005   8.095   9.247   7.400 -0.1020  0.1161 -0.2800
20982SOL    HW275006   8.216   9.344   7.450 -0.4182  0.1771  0.3715
20983SOL     OW75007   0.257   7.606   6.151 -0.5847 -0.5765 -0.2089
20983SOL    HW175008   0.159   7.626   6.157 -0.6803 -1.6315  2.2027
20983SOL    HW275009   0.309   7.685   6.183 -0.7846 -1.4473  2.3901
20984SOL     OW75010   1.400   2.771   8.915  0.4808 -0.2674  0.3257
20984SOL    HW175011   1.414   2.688   8.969  1.5667 -0.2931  0.0284
20984SOL    HW275012   1.334   2.830   8.961  1.5613 -0.1835  1.8033
20985SOL     OW75013   2.359   3.298   7.029  0.6423  0.5659  0.2108
20985SOL    HW175014   2.383   3.205   7.056 -2.7465 -0.6366 -0.6620
20985SOL    HW275015   2.370   3.309   6.930 -0.3006  0.6304  0.1061
20986SOL     OW75016   7.254   0.787   3.984 -0.0885  0.2104  0.0285
20986SOL    HW175017   7.325   0.807   3.917 -0.1438  1.7700  0.3995
20986SOL    HW275018   7.267   0.696   4.021  0.2416 -0.4773 -1.7335
20987SOL     OW75019   4.175   7.433   3.044  0.5129  0.6056 -0.0131
20987SOL    HW175020   4.090   7.444   3.095 -0.3802  0.4478 -1.4502
20987SOL    HW275021   4.194   7.335   3.032 -0.2493  0.6196 -1.5320
20988SOL     OW75022   0.579   1.188   3.491 -0.2599 -0.0831  0.6131
20988SOL    HW175023   0.581   1.241   3.576 -0.6677 -0.4656  0.8642
20988SOL    HW275024   0.630   1.237   3.420  0.5351 -0.0240  1.2279
20989SOL     OW75025   7.330   4.898   0.639 -0.3459  0.3749  0.2719
20989SOL    HW175026   7.391   4.823   0.611  0.8601  1.5584 -0.3519
20989SOL    HW275027   7.360   4.934   0.727 -1.7546 -0.7541  1.2336
20990SOL     OW75028   2.475   2.722   2.934  0.5275  0.1318  0.0571
20990SOL    HW175029   2.534   2.643   2.914 -0.3952 -0.6058  0.2591
20990SOL    HW275030   2.399   2.694   2.992  0.3643  1.2380  0.3883
20991SOL     OW75031   8.837   7.450   6.941 -0.3566 -0.1672 -0.7913
20991SOL    HW175032   8.770   7.448   7.015 -0.7267 -1.7523 -1.1370
20991SOL    HW275033   8.892   7.533   6.947  1.3028 -1.4266  2.7718
20992SOL     OW75034   8.021   0.955   4.231 -0.2824  0.2934 -0.9241
20992SOL    HW175035   8.087   0.880   4.244 -0.0620  0.6702  0.1656
20992SOL    HW275036   7.941   0.939   4.289  0.3379  1.5622  0.2963
20993SOL     OW75037   6.300   0.084   3.251  0.1692  0.4043 -0.2122
20993SOL    HW175038   6.334   0.177   3.259 -0.7330  1.1207 -3.9787
20993SOL    HW275039   6.373   0.025   3.216  0.6466 -0.2565  1.8662
20994SOL     OW75040   7.880   0.006   2.554  0.4723  0.1559  0.0861
20994SOL    HW175041   7.804   0.068   2.576  0.9045  0.8938 -0.4937
20994SOL    HW275042   7.957   0.058   2.517  2.3482 -0.1947  3.2775
20995SOL     OW75043   1.605   3.888   2.278  0.2286  0.6536 -0.3911
20995SOL    HW175044   1.639   3.913   2.368 -0.6687 -1.1581  0.4729
20995SOL    HW275045   1.509   3.915   2.270 -0.3220 -1.1165  0.0101
20996SOL     OW75046   3.462   5.537   5.691  0.7306 -0.3365 -0.5346
20996SOL    HW175047   3.403   5.566   5.766  0.9447  0.7971 -0.7862
20996SOL    HW275048   3.407   5.490   5.622  0.0823  0.8658 -0.8499
20997SOL     OW75049   0.052   2.376   3.198  0.3556 -0.2266 -0.9810
20997SOL    HW175050   0.030   2.351   3.103  1.5207  0.2677 -1.3834
20997SOL    HW275051   0.042   2.474   3.210 -3.6665 -0.7259  0.4597
20998SOL     OW75052   7.859   2.990   0.461 -0.5257  0.4900  0.1869
20998SOL    HW175053   7.778   3.045   0.443 -0.1647  1.2951  1.0124
20998SOL    HW275054   7.931   3.013   0.395 -0.4413  0.8800  0.4125
20999SOL     OW75055   1.725   1.256   6.120  0.7297 -0.1005  0.0510
20999SOL    HW175056   1.759   1.163   6.113 -0.4577 -0.6432  1.3198
20999SOL    HW275057   1.628   1.258   6.096  0.8280  0.8643 -0.2920
21000SOL     OW75058   8.557   5.159   1.925  0.1666 -0.3327  0.4327
21000SOL    HW175059   8.603   5.128   1.842  0.0764 -2.1531  1.0516
21000SOL    HW275060   8.601   5.243   1.958 -0.0233  0.6180 -1.6376
21001SOL     OW75061   2.957   7.911   9.794 -0.3610 -0.0159  0.7211
21001SOL    HW175062   2.945   7.815   9.768 -1.3346  0.2871  0.0177
21001SOL    HW275063   3.050   7.925   9.828  0.4697 -0.7811 -1.1294
21002SOL     OW75064   5.383   0.923   1.161 -0.6647  0.2602 -0.0705
21002SOL    HW175065   5.420   0.919   1.068  1.8952  0.4619  0.9212
21002SOL    HW275066   5.332   1.008   1.173 -0.0758  0.7460 -0.9549
21003SOL     OW75067   8.670   9.486   2.989 -0.0175  0.0758 -0.0730
21003SOL    HW175068   8.711   9.513   3.076 -0.2794 -1.2476  0.4794
21003SOL    HW275069   8.706   9.544   2.916  0.6938  0.7783  0.8165
21004SOL     OW75070   0.451   5.235   9.770 -0.1830  0.6900  0.0019
21004SOL    HW175071   0.369   5.199   9.815 -1.2577  0.0804 -2.3625
21004SOL    HW275072   0.426   5.314   9.715  0.3623 -0.8575 -2.5363
21005SOL     OW75073   0.828   6.486   0.218  0.1947 -0.8974 -0.4969
21005SOL    HW175074   0.925   6.475   0.236  0.3404  0.5140 -0.3865
21005SOL    HW275075   0.795   6.570   0.262 -1.4495 -2.2653  0.9810
21006SOL     OW75076   0.928   4.173   1.198 -0.2819  0.3336 -0.4042
21006SOL    HW175077   0.890   4.129   1.280  0.6840 -0.6459 -0.4807
21006SOL    HW275078   1.028   4.173   1.203 -0.2630  2.0612 -0.6508
21007SOL     OW75079   8.792   4.731   0.225 -0.4345 -0.5315  0.2438
21007SOL    HW175080   8.736   4.780   0.292 -2.3665 -1.6242 -0.5390
21007SOL    HW275081   8.857   4.671   0.273 -0.6594 -0.0637  1.1426
21008SOL     OW75082   1.445   5.214   4.466 -0.1242  0.0737 -0.3874
21008SOL    HW175083   1.502   5.286   4.505 -0.7384 -1.3965  3.5419
21008SOL    HW275084   1.351   5.223   4.501 -0.9259 -0.8471 -2.2359
21009SOL     OW75085   7.363   0.269   6.623  0.2158  0.4934  0.3069
21009SOL    HW175086   7.357   0.206   6.546  1.0844  0.5882  0.1607
21009SOL    HW275087   7.286   0.252   6.685 -0.1995  0.0751 -0.3138
21010SOL     OW75088   3.898   2.738   9.084  0.0368  0.2402  0.6209
21010SOL    HW175089   3.950   2.655   9.063  0.7700  0.5960  1.0198
21010SOL    HW275090   3.961   2.812   9.106 -0.6342  0.7570  0.8147
21011SOL     OW75091   1.834   5.532   0.218  0.4854 -0.1238  0.5631
21011SOL    HW175092   1.926   5.569   0.233 -0.0541  1.4164  0.0948
21011SOL    HW275093   1.766   5.592   0.259 -0.4192 -0.5261 -0.3175
21012SOL     OW75094   1.390   7.230   0.942 -0.3536 -0.5283  0.1194
21012SOL    HW175095   1.472   7.195   0.897  0.0212 -0.7472  0.9741
21012SOL    HW275096   1.320   7.158   0.942 -0.7763 -0.1328 -1.1754
21013SOL     OW75097   2.315   1.666   3.751 -0.3252  0.3021 -0.6122
21013SOL    HW175098   2.236   1.681   3.810  0.2072 -1.2286  0.5340
21013SOL    HW275099   2.371   1.748   3.749  0.4749 -0.1075  2.3225
21014SOL     OW75100   3.388   7.131   9.588 -0.0518 -0.1689  0.3368
21014SOL    HW175101   3.444   7.049   9.600  1.7143  1.2440  2.0387
21014SOL    HW275102   3.320   7.114   9.517  0.3946 -3.0404  0.5197
21015SOL     OW75103   3.724   2.272   4.253  0.4112  0.2846  0.4306
21015SOL    HW175104   3.742   2.332   4.175 -0.2614  0.7184  0.6039
21015SOL    HW275105   3.644   2.215   4.234 -1.7602  2.6776  2.0566
21016SOL     OW75106   4.639   0.482   5.385 -0.5220  0.3028 -0.2736
21016SOL    HW175107   4.725   0.532   5.373 -1.0328  0.6093 -2.9337
21016SOL    HW275108   4.599   0.506   5.473  1.6341  0.8816  0.5888
21017SOL     OW75109   0.351   3.646   1.445  0.1507  0.2814 -0.0449
21017SOL    HW175110   0.359   3.744   1.464  1.4835  0.1636  0.0023
21017SOL    HW275111   0.254   3.619   1.452 -0.0193  1.2382  1.7116
21018SOL     OW75112   0.859   8.430   1.833  0.8353 -0.3986  0.1783
21018SOL    HW175113   0.914   8.415   1.751 -0.5636 -1.4422 -0.5924
21018SOL    HW275114   0.795   8.354   1.845  0.0037  0.4683  1.4185
21019SOL     OW75115   9.087   5.995   5.576 -0.4955 -0.2382  0.0257
21019SOL    HW175116   9.171   6.048   5.583  0.1686 -1.2780 -0.0006
21019SOL    HW275117   9.024   6.022   5.649  0.3636 -0.3633  0.8074
21020SOL     OW75118   5.723   9.968   9.217  0.3326 -0.5145  0.3954
21020SOL    HW175119   5.633   9.925   9.216  0.9938 -1.9373 -0.4514
21020SOL    HW275120   5.780   9.925   9.287  0.4758  0.1017  0.6548
21021SOL     OW75121   0.843   6.135   6.423 -0.0884 -0.1845 -0.5944
21021SOL    HW175122   0.783   6.159   6.500 -1.9267 -0.6272 -1.8464
21021SOL    HW275123   0.814   6.048   6.384  0.2008  0.5021 -2.3934
21022SOL     OW75124   8.378   8.625   8.347 -0.2250 -0.3549 -0.1024
21022SOL    HW175125   8.457   8.678   8.375 -1.6924  1.0890  1.4247
21022SOL    HW275126   8.384   8.604   8.249  0.2638  2.8624 -0.8180
21023SOL     OW75127   6.753   7.010   3.503 -0.5042  0.3104  0.3779
21023SOL    HW175128   6.766   6.913   3.480 -1.9938  0.3221 -0.5449
21023SOL    HW275129   6.838   7.060   3.483 -0.0998 -0.5980 -0.2173
21024SOL     OW75130   7.798   1.789   9.421 -0.2406  0.4657 -0.1311
21024SOL    HW175131   7.837   1.725   9.354 -0.1671  0.3924 -0.0200
21024SOL    HW275132   7.864   1.804   9.495 -0.8434 -0.5133  0.6192
21025SOL     OW75133   6.328   9.626   7.922  0.0511 -0.0098  0.5965
21025SOL    HW175134   6.420   9.640   7.959 -0.7373  1.3543  2.1304
21025SOL    HW275135   6.334   9.608   7.824  1.9331  0.4382  0.6024
21026SOL     OW75136   7.789   6.113   3.185  0.3670 -0.1834 -0.2391
21026SOL    HW175137   7.848   6.084   3.110  0.6420  0.9596 -0.4755
21026SOL    HW275138   7.845   6.135   3.265  0.1044 -1.0348  0.1851
21027SOL     OW75139   1.190   3.824   2.008  0.4531  0.1531 -0.2126
21027SOL    HW175140   1.276   3.773   2.006  0.4394  0.1053  0.2855
21027SOL    HW275141   1.154   3.833   1.916  0.0904 -1.3359 -0.2130
21028SOL     OW75142   1.094   3.669   7.927 -0.2132  1.1069 -0.2170
21028SOL    HW175143   1.145   3.739   7.977  2.7215 -0.9949 -0.1096
21028SOL    HW275144   1.043   3.712   7.853 -0.7224  3.6720  1.5524
21029SOL     OW75145   1.313   5.942   2.011  0.4645 -0.2916 -0.3387
21029SOL    HW175146   1.387   5.949   1.944  0.3739  0.1475 -0.3945
21029SOL    HW275147   1.347   5.968   2.102  0.8133 -1.7234 -0.0428
21030SOL     OW75148   9.132   8.716   0.536 -0.0966  0.1974 -0.7735
21030SOL    HW175149   9.161   8.709   0.441  1.0066 -0.9599 -0.3639
21030SOL    HW275150   9.180   8.793   0.580 -0.3036  0.4785 -1.0343
21031SOL     OW75151   7.158   3.654   2.574 -0.7242 -0.0199 -0.1564
21031SOL    HW175152   7.169   3.739   2.522 -1.1880  0.5237  0.6246
21031SOL    HW275153   7.135   3.676   2.669  0.4387 -1.0033  0.3596
21032SOL     OW75154   2.046   4.554   3.485 -0.5212  0.0071  0.0076
21032SOL    HW175155   2.025   4.600   3.398  2.1884  1.3215 -0.0094
21032SOL    HW275156   2.041   4.621   3.560 -0.6771 -0.6254  0.5628
21033SOL     OW75157   4.841   2.505   1.376 -0.2863  0.2938  0.7290
21033SOL    HW175158   4.901   2.473   1.450  0.8063 -0.0504 -0.2946
21033SOL    HW275159   4.795   2.426   1.335 -0.2721  0.4081  0.4982
21034SOL     OW75160   2.913   5.687   9.056 -0.0973  0.2225  0.4132
21034SOL    HW175161   2.996   5.714   9.106  0.9752  1.1437 -1.8019
21034SOL    HW275162   2.885   5.761   8.996 -2.9665  0.1685  1.5998
21035SOL     OW75163   1.499   4.241   6.297  0.1367  0.0702 -0.6259
21035SOL    HW175164   1.558   4.276   6.369  2.5994 -1.0894 -1.9864
21035SOL    HW275165   1.460   4.317   6.245  0.6609  0.8735  0.1489
21036SOL     OW75166   0.404   9.448   5.001 -0.2738  0.7836  0.4907
21036SOL    HW175167   0.322   9.504   5.014  0.0300  1.2569  0.3698
21036SOL    HW275168   0.456   9.446   5.086 -0.4648  0.3950  0.5987
21037SOL     OW75169   8.335   3.721   4.078  0.5051 -0.1440 -0.0461
21037SOL    HW175170   8.253   3.748   4.027  0.7726  0.5900 -0.0959
21037SOL    HW275171   8.321   3.741   4.175  0.4097 -0.5483  0.0268
21038SOL     OW75172   2.485   7.327   4.208  0.7139  0.0515 -0.4948
21038SOL    HW175173   2.407   7.268   4.183  0.8803 -0.3338 -0.1233
21038SOL    HW275174   2.565   7.300   4.155  1.1977 -1.0958  0.7791
21039SOL     OW75175   0.915   4.716   1.372 -0.5684 -0.2032 -0.1680
21039SOL    HW175176   0.910   4.644   1.442 -0.1570 -0.5585 -0.4967
21039SOL    HW275177   1.002   4.708   1.323 -0.2884  0.8459  0.1382
21040SOL     OW75178   7.893   9.776   9.879  0.4379 -0.1720 -0.7320
21040SOL    HW175179   7.948   9.729   9.810  1.4587  0.1594 -0.1611
21040SOL    HW275180   7.864   9.864   9.844  1.1945  0.1168 -0.6365
21041SOL     OW75181   7.833   0.283   9.003  0.1129 -0.6806  0.2094
21041SOL    HW175182   7.933   0.279   9.016  0.2203  0.6012 -0.2313
21041SOL    HW275183   7.809   0.363   8.949 -1.3138 -0.0970  1.6814
21042SOL     OW75184   7.377   0.265   4.711  0.5810  0.4494  0.0865
21042SOL    HW175185   7.354   0.253   4.615 -0.6562  1.4102  0.2489
21042SOL    HW275186   7.397   0.362   4.728 -0.2194  0.4630  1.0026
21043SOL     OW75187   4.613   3.632   5.153 -0.2662  0.5814 -0.0257
21043SOL    HW175188   4.691   3.683   5.188 -0.1540  0.7259 -0.4953
21043SOL    HW275189   4.542   3.695   5.122 -0.5619  0.4510  0.3800
21044SOL     OW75190   8.891   3.109   7.207 -0.0430  0.3151 -0.1012
21044SOL    HW175191   8.970   3.085   7.152 -0.6719 -1.4451 -0.2842
21044SOL    HW275192   8.817   3.140   7.148 -0.8260 -1.8731 -0.3378
21045SOL     OW75193   6.601   9.883   2.436 -0.1601 -0.0935 -0.0945
21045SOL    HW175194   6.555   9.887   2.524 -0.7124  1.5015 -0.4437
21045SOL    HW275195   6.694   9.847   2.448 -0.6186 -0.9207  0.9628
21046SOL     OW75196   8.146   2.485   8.420 -0.2964  0.2972 -0.1920
21046SOL    HW175197   8.182   2.543   8.493 -2.5133  0.7503  0.5709
21046SOL    HW275198   8.049   2.467   8.436 -0.0380 -2.2976 -1.3020
21047SOL     OW75199   3.796   6.509   4.922 -0.3389  0.7119  0.2204
21047SOL    HW175200   3.864   6.444   4.957 -0.2814  1.0543  0.7496
21047SOL    HW275201   3.714   6.505   4.978 -0.8035  0.2176 -0.4921
21048SOL     OW75202   3.333   9.186   0.734 -0.2421  0.2555  0.1804
21048SOL    HW175203   3.281   9.170   0.650  0.7029 -0.6184 -0.2434
21048SOL    HW275204   3.390   9.107   0.754  1.3975  1.4434  0.3093
21049SOL     OW75205   8.261   3.483   8.212 -0.5303  0.3036 -0.3252
21049SOL    HW175206   8.311   3.559   8.255  0.2810 -0.1563 -0.4472
21049SOL    HW275207   8.265   3.403   8.272 -0.0823 -0.0977 -0.8928
21050SOL     OW75208   3.286   8.197   5.250  0.1598  0.2078  0.0866
21050SOL    HW175209   3.360   8.164   5.191 -0.0659  2.7918 -1.7259
21050SOL    HW275210   3.203   8.146   5.232 -0.1345  1.5126 -2.5317
21051SOL     OW75211   3.426   1.847   8.420 -0.3344 -0.2432  0.3142
21051SOL    HW175212   3.355   1.844   8.491 -0.4653  0.3761  0.2075
21051SOL    HW275213   3.450   1.942   8.400 -0.8489 -0.3810 -1.0257
21052SOL     OW75214   9.757   2.754   1.387 -0.1446 -0.4911 -0.3928
21052SOL    HW175215   9.680   2.794   1.436  0.0286  0.7132 -1.0760
21052SOL    HW275216   9.727   2.726   1.295 -0.4025 -2.4722  0.2666
21053SOL     OW75217   1.859   1.385   3.095 -0.0624 -0.3494 -0.6096
21053SOL    HW175218   1.847   1.396   3.194  0.6721 -0.4861 -0.5014
21053SOL    HW275219   1.812   1.301   3.065 -0.4213 -0.2227 -0.4075
21054SOL     OW75220   4.475   5.206   1.817  0.9201  0.0448  0.7353
21054SOL    HW175221   4.477   5.145   1.896  4.0425 -0.0227  0.6684
21054SOL    HW275222   4.469   5.153   1.733  0.5930 -0.0139  0.7946
21055SOL     OW75223   7.989   5.904   2.194 -0.4850 -0.1859  0.1453
21055SOL    HW175224   8.015   5.811   2.166  0.6210  0.7410 -2.0312
21055SOL    HW275225   8.072   5.959   2.207 -1.0341 -0.0257  3.5137
21056SOL     OW75226   2.240   0.002   8.696  0.0893  0.2068  0.4878
21056SOL    HW175227   2.163  -0.059   8.680  0.7424 -0.4139 -0.3484
21056SOL    HW275228   2.281   0.027   8.608  1.6437 -0.5114  0.9951
21057SOL     OW75229   8.196   7.014   0.677 -0.0881  0.2424 -0.1287
21057SOL    HW175230   8.253   6.977   0.750  1.7635  2.0170 -0.6213
21057SOL    HW275231   8.104   7.030   0.712  0.7814  1.1315  1.8749
21058SOL     OW75232   4.143   8.229   9.785 -0.4399  0.4657  0.1449
21058SOL    HW175233   4.143   8.131   9.803  0.9882  0.5535  0.6905
21058SOL    HW275234   4.084   8.249   9.706 -0.8640 -0.8000  0.1325
21059SOL     OW75235   0.174   9.449   7.470 -0.2420  0.0095  0.0448
21059SOL    HW175236   0.261   9.409   7.501 -0.3442 -1.0539 -1.0416
21059SOL    HW275237   0.185   9.549   7.463  1.0632 -0.1616 -0.6067
21060SOL     OW75238   1.860   5.079   4.988  0.0407 -0.1394  0.2414
21060SOL    HW175239   1.940   5.124   4.948 -0.5319  0.4404 -0.2657
21060SOL    HW275240   1.811   5.143   5.046 -0.7172 -0.1455 -0.3909
21061SOL     OW75241   6.887   7.299   3.239  0.9417 -0.4368  0.4641
21061SOL    HW175242   6.821   7.355   3.290 -0.6939 -0.8112 -1.1719
21061SOL    HW275243   6.913   7.220   3.295  0.8512  0.2888  1.5599
21062SOL     OW75244   4.292   4.649   0.286 -0.0427 -0.3001  0.4312
21062SOL    HW175245   4.211   4.706   0.282  0.7152  0.8182  0.8269
21062SOL    HW275246   4.273   4.568   0.341 -1.2638 -0.6700 -0.5207
21063SOL     OW75247   8.922   2.506   1.256 -0.3824  0.4244  0.3370
21063SOL    HW175248   8.933   2.520   1.158 -3.0726  1.4166  0.1487
21063SOL    HW275249   9.001   2.544   1.304 -0.3876  2.5110 -1.2507
21064SOL     OW75250   2.048   3.262   5.920 -0.7810  0.3560 -0.0748
21064SOL    HW175251   2.049   3.234   6.015 -2.1044 -0.6450 -0.3523
21064SOL    HW275252   2.088   3.191   5.863 -0.0738  0.9130 -0.2819
21065SOL     OW75253   1.808   6.703   6.887  0.3194 -0.3665 -0.0975
21065SOL    HW175254   1.833   6.687   6.982  2.8318 -2.5540 -1.0558
21065SOL    HW275255   1.786   6.615   6.844 -1.6019  0.6912 -1.3421
21066SOL     OW75256   4.574   4.596   6.836 -0.0094  0.4450  0.3622
21066SOL    HW175257   4.620   4.516   6.798 -1.6007 -0.6502  0.7133
21066SOL    HW275258   4.548   4.658   6.762 -1.5159 -0.8393 -0.2060
21067SOL     OW75259   6.572   2.949   2.603 -0.0994  0.1508 -0.1035
21067SOL    HW175260   6.554   2.950   2.505  1.2458 -1.9093 -0.3979
21067SOL    HW275261   6.504   3.006   2.650  0.5780  2.9916 -2.4225
21068SOL     OW75262   1.391   5.402   3.120  0.5072 -0.2255  0.1184
21068SOL    HW175263   1.394   5.493   3.163 -0.2726 -0.2564  0.2493
21068SOL    HW275264   1.459   5.343   3.163  0.3202 -0.0025  0.7327
21069SOL     OW75265   4.620   4.707   1.215  0.2869 -0.3459 -0.2668
21069SOL    HW175266   4.647   4.661   1.130 -0.2155 -0.6022 -0.2895
21069SOL    HW275267   4.701   4.734   1.266  0.5884 -0.7118 -0.5538
21070SOL     OW75268   5.591   2.123   5.253  0.1280 -0.5888  0.5263
21070SOL    HW175269   5.524   2.056   5.220 -0.5670 -0.1144  0.9613
21070SOL    HW275270   5.681   2.101   5.215 -0.5194 -0.4694 -1.1284
21071SOL     OW75271   1.629   7.097   1.692 -0.3544  0.3220 -0.1273
21071SOL    HW175272   1.533   7.125   1.683 -0.2053  0.6197 -0.8281
21071SOL    HW275273   1.658   7.053   1.608 -0.3222 -1.1544  0.6540
21072SOL     OW75274   8.823   2.667   1.796  0.2748 -0.2205 -0.1439
21072SOL    HW175275   8.746   2.731   1.797  1.3877  1.1570 -0.7827
21072SOL    HW275276   8.789   2.574   1.779 -1.2763  0.3064  0.0114
21073SOL     OW75277   3.417   4.894   4.433 -0.3307 -0.1762  0.3506
21073SOL    HW175278   3.420   4.978   4.489 -0.3337 -0.8135  1.3161
21073SOL    HW275279   3.468   4.909   4.348 -0.0705  0.7016  0.6522
21074SOL     OW75280   3.449   3.354   3.190 -0.0430 -0.2275 -0.4620
21074SOL    HW175281   3.459   3.442   3.145  0.8771  0.0489  0.2671
21074SOL    HW275282   3.537   3.326   3.230 -0.8533 -0.4146  1.2233
21075SOL     OW75283   5.820   7.308   5.354 -0.2388 -0.7413  0.0970
21075SOL    HW175284   5.795   7.240   5.285 -0.5713  0.2812 -0.7993
21075SOL    HW275285   5.909   7.285   5.393  0.1945 -1.0408 -1.0542
21076SOL     OW75286   0.261   9.566   6.733  0.3529  0.0354  0.3142
21076SOL    HW175287   0.190   9.521   6.787  0.8177 -0.3197  0.6334
21076SOL    HW275288   0.219   9.628   6.668 -0.2071  0.8640  1.4418
21077SOL     OW75289   0.991   1.222   8.495 -0.0351  0.0779  0.5098
21077SOL    HW175290   0.904   1.215   8.447 -0.0297 -0.3443  0.5655
21077SOL    HW275291   0.985   1.175   8.583 -0.4476  1.9005  1.4897
21078SOL     OW75292   4.771   7.637   1.366  0.4437 -0.0563 -0.1173
21078SOL    HW175293   4.688   7.694   1.370  0.7346  0.3329  0.4006
21078SOL    HW275294   4.825   7.664   1.286  0.7025  0.5742  0.2646
21079SOL     OW75295   2.478   4.225   9.778 -0.5835  0.0498 -0.0356
21079SOL    HW175296   2.417   4.168   9.834 -0.3548 -0.8132 -0.6616
21079SOL    HW275297   2.430   4.309   9.752 -1.0697 -0.0493  0.5325
21080SOL     OW75298   9.328   3.200   6.224 -0.2026  0.0120  0.1345
21080SOL    HW175299   9.355   3.289   6.187 -0.1145  0.8342  2.1002
21080SOL    HW275300   9.410   3.144   6.241 -0.2980 -0.7119 -1.7178
21081SOL     OW75301   0.674   1.616   5.647  0.1209  0.3211  0.6842
21081SOL    HW175302   0.668   1.644   5.551 -0.7888  2.2500  1.2666
21081SOL    HW275303   0.750   1.553   5.659 -1.3515 -2.0442 -1.7896
21082SOL     OW75304   5.360   2.338   5.605 -0.4127  0.5032 -0.1857
21082SOL    HW175305   5.381   2.352   5.702 -1.0241  0.9333 -0.1163
21082SOL    HW275306   5.269   2.375   5.584  0.1640  1.3926 -1.1677
21083SOL     OW75307   0.193   0.462   4.477 -0.2955  0.2863  0.3906
21083SOL    HW175308   0.207   0.552   4.518  0.6338 -0.0538  0.8217
21083SOL    HW275309   0.261   0.398   4.512  2.1236  0.5855 -3.4485
21084SOL     OW75310   0.844   5.793   4.060 -0.3552 -0.0606 -0.3259
21084SOL    HW175311   0.941   5.807   4.038 -0.2762  1.1609  0.7465
21084SOL    HW275312   0.818   5.699   4.036  0.3576  0.4306 -3.2509
21085SOL     OW75313   2.999   8.312   3.850 -0.1455 -0.1780 -0.5882
21085SOL    HW175314   3.035   8.399   3.884 -1.2530 -0.8391  2.4251
21085SOL    HW275315   2.900   8.309   3.864 -0.4128 -1.1657 -2.4629
21086SOL     OW75316   7.929   3.040   2.884 -0.4659  0.2883  0.0075
21086SOL    HW175317   7.873   3.073   2.961 -0.1690 -1.2538  0.8975
21086SOL    HW275318   7.895   3.081   2.799 -0.9609  1.8238  0.9190
21087SOL     OW75319   3.410   4.951   3.657  0.4979  0.1575 -0.5778
21087SOL    HW175320   3.314   4.922   3.659  1.0207 -1.6442 -0.4686
21087SOL    HW275321   3.457   4.914   3.737  0.6305  3.4905  0.9619
21088SOL     OW75322   8.617   2.920   3.378  0.0180  0.7190  0.4969
21088SOL    HW175323   8.587   3.015   3.371  1.1498  1.1823  1.7773
21088SOL    HW275324   8.695   2.904   3.317 -0.6600  0.4074 -0.2920
21089SOL     OW75325   1.634   5.855   2.185  0.1230  0.3227  0.4216
21089SOL    HW175326   1.654   5.758   2.173 -0.1208  0.2984  0.1993
21089SOL    HW275327   1.719   5.907   2.183  0.2796  0.0858  0.8087
21090SOL     OW75328   6.778   0.280   2.221  0.2207 -0.3189 -0.4434
21090SOL    HW175329   6.756   0.344   2.147  0.4609 -0.8114 -0.9462
21090SOL    HW275330   6.705   0.213   2.229  0.7140 -0.9269 -0.9710
21091SOL     OW75331   3.234   1.801   2.108  0.7177  0.3799 -0.0283
21091SOL    HW175332   3.139   1.835   2.110  0.3044 -0.8041  0.7942
21091SOL    HW275333   3.235   1.706   2.078  1.6295  0.3118  0.1975
21092SOL     OW75334   0.724   2.322   4.267  0.2737 -0.0204 -0.7203
21092SOL    HW175335   0.693   2.318   4.362 -0.8604  1.2053 -1.0236
21092SOL    HW275336   0.651   2.290   4.207  0.1768  1.3188 -1.3338
21093SOL     OW75337   2.489   9.671   9.371 -0.8312 -0.0401 -0.3383
21093SOL    HW175338   2.571   9.690   9.318 -0.8125  0.1328 -0.2486
21093SOL    HW275339   2.492   9.577   9.404  0.4319  0.6590  1.6211
21094SOL     OW75340   7.201   1.228   4.728 -0.0674  0.2463 -0.2383
21094SOL    HW175341   7.243   1.246   4.639  0.1174  1.3097  0.0593
21094SOL    HW275342   7.271   1.231   4.800 -0.1589 -0.9253 -0.0827
21095SOL     OW75343   1.727   0.462   2.741  0.1567  0.3413  0.2655
21095SOL    HW175344   1.683   0.430   2.657  0.0114 -0.6718  0.7195
21095SOL    HW275345   1.817   0.500   2.719  0.4701 -0.6910 -0.2462
21096SOL     OW75346   6.269   4.166   2.517 -0.1831 -0.0418 -0.1984
21096SOL    HW175347   6.368   4.150   2.518 -0.5280 -2.2796  0.6080
21096SOL    HW275348   6.237   4.182   2.610 -0.7181 -0.2060 -0.3500
21097SOL     OW75349   9.582   1.865   3.406 -0.2551 -0.1727 -0.3878
21097SOL    HW175350   9.567   1.771   3.436 -1.4935  0.4804  1.0501
21097SOL    HW275351   9.538   1.879   3.317 -0.6377 -0.7592 -0.2918
21098SOL     OW75352   4.923   9.671   6.271  0.2442 -0.0540 -0.2478
21098SOL    HW175353   5.012   9.709   6.249  1.4708 -1.7809  1.5361
21098SOL    HW275354   4.929   9.618   6.356 -2.4345 -0.3327 -0.1721
21099SOL     OW75355   5.765   4.624   8.062  0.0627  0.0198 -0.2444
21099SOL    HW175356   5.742   4.687   7.988  0.1993  0.1911 -0.1397
21099SOL    HW275357   5.857   4.588   8.049 -0.3392 -0.8296 -0.7783
21100SOL     OW75358   1.326   8.723   7.951  0.0776 -0.6482  0.4665
21100SOL    HW175359   1.283   8.665   7.881  0.2518 -1.4319  1.0000
21100SOL    HW275360   1.256   8.781   7.994  0.5043  2.5925 -2.9103
21101SOL     OW75361   5.729   8.590   7.522 -0.3264  0.4572 -0.6207
21101SOL    HW175362   5.648   8.535   7.540  0.8904 -0.7188  1.4037
21101SOL    HW275363   5.810   8.542   7.555  1.0165  2.4736 -0.8848
21102SOL     OW75364   6.028   4.532   2.149  0.0721  0.6190  0.3200
21102SOL    HW175365   6.059   4.451   2.199  2.5682  0.8645 -0.7264
21102SOL    HW275366   6.018   4.608   2.212  3.0569  0.8927  0.5570
21103SOL     OW75367   0.256   0.530   7.363 -0.4566 -0.0344  0.0944
21103SOL    HW175368   0.199   0.492   7.290 -2.5183  0.0475  1.5945
21103SOL    HW275369   0.316   0.601   7.326 -1.1161 -0.3321 -1.5893
21104SOL     OW75370   1.935   4.535   9.812 -0.3273  0.3259 -0.1187
21104SOL    HW175371   1.877   4.453   9.812  1.1410 -0.7430 -0.4010
21104SOL    HW275372   2.018   4.516   9.760  1.2535  1.1168  2.0530
21105SOL     OW75373   7.735   5.126   5.043  0.2501  0.4979 -0.0562
21105SOL    HW175374   7.757   5.136   4.946 -1.7399  0.1373 -0.5581
21105SOL    HW275375   7.685   5.206   5.075 -0.8199 -0.2439  0.1659
21106SOL     OW75376   5.516   1.319   0.237 -0.1598 -0.2710 -0.0267
21106SOL    HW175377   5.608   1.343   0.208 -0.7867 -0.3615 -2.2096
21106SOL    HW275378   5.484   1.385   0.305  1.3675 -0.0364  0.4806
21107SOL     OW75379   7.356   3.786   3.764  0.3118 -0.0621  0.1739
21107SOL    HW175380   7.394   3.874   3.733 -2.2589  1.2230  0.5214
21107SOL    HW275381   7.343   3.726   3.685 -1.4552  1.3032 -0.6072
21108SOL     OW75382   8.237   0.039   5.805 -0.3581  0.1880 -0.7542
21108SOL    HW175383   8.263   0.093   5.725 -1.9229 -1.6405 -2.5177
21108SOL    HW275384   8.298  -0.039   5.814 -0.8192 -0.1744 -0.7552
21109SOL     OW75385   0.638   7.951   7.891  0.1424  0.2634 -0.0831
21109SOL    HW175386   0.597   7.920   7.806  0.1655 -0.3230  0.1186
21109SOL    HW275387   0.568   7.996   7.947 -0.0794 -0.1646 -0.0170
21110SOL     OW75388   2.419   4.809   7.942  0.5096 -0.1340 -0.3768
21110SOL    HW175389   2.335   4.820   7.889  0.3469 -0.8633 -0.2830
21110SOL    HW275390   2.483   4.882   7.920  0.7466 -0.8608 -2.1723
21111SOL     OW75391   4.189   8.147   0.721 -0.3448 -0.0017 -0.1657
21111SOL    HW175392   4.098   8.177   0.751  0.5832  2.7188  0.0911
21111SOL    HW275393   4.244   8.122   0.801 -0.5327 -0.6891 -0.2477
21112SOL     OW75394   2.939   8.741   6.686 -0.0993 -0.0177  0.4595
21112SOL    HW175395   2.997   8.728   6.605  0.8232  0.3928  1.0460
21112SOL    HW275396   2.911   8.652   6.721  1.0467 -0.2569  0.7872
21113SOL     OW75397   1.970   6.337   4.015  0.3498  0.4280  0.1467
21113SOL    HW175398   2.065   6.358   4.037  0.1654  0.3003  1.0768
21113SOL    HW275399   1.923   6.421   3.988  0.4697  0.6620  0.6596
21114SOL     OW75400   2.245   9.634   7.666  0.0946  0.1477  1.1723
21114SOL    HW175401   2.342   9.614   7.681  0.1177  0.3846  1.3344
21114SOL    HW275402   2.233   9.732   7.651 -0.2157  0.2248  1.9020
21115SOL     OW75403   4.391   2.970   1.141 -0.3366  0.0704 -0.2569
21115SOL    HW175404   4.320   2.969   1.071 -0.1839 -0.2311 -0.4069
21115SOL    HW275405   4.368   3.038   1.210 -0.9940 -0.3279 -0.0758
21116SOL     OW75406   8.347   2.724   5.961 -0.0490  0.0389 -0.2589
21116SOL    HW175407   8.309   2.639   5.999  0.1558  0.0632  0.0015
21116SOL    HW275408   8.347   2.795   6.032 -0.8900  0.4697 -0.6718
21117SOL     OW75409   0.323   9.425   4.526 -0.0102 -0.1505 -0.8183
21117SOL    HW175410   0.322   9.489   4.603  1.1481 -0.5741 -0.4389
21117SOL    HW275411   0.403   9.445   4.468 -0.8104  0.0914 -1.8506
21118SOL     OW75412   2.497   0.814   3.825  0.3100  0.4253 -0.0263
21118SOL    HW175413   2.439   0.798   3.745 -1.4549 -2.0994  1.7060
21118SOL    HW275414   2.571   0.747   3.827  0.1189  0.2329  0.6752
21119SOL     OW75415   8.577   6.873   3.820  0.3289 -0.6828  0.3238
21119SOL    HW175416   8.500   6.880   3.883 -0.6175  0.7404 -0.9758
21119SOL    HW275417   8.568   6.790   3.765  0.3473 -1.1150  0.9603
21120SOL     OW75418   0.544   9.214   0.851  0.2065 -0.1360 -0.4412
21120SOL    HW175419   0.516   9.293   0.904 -0.0598 -2.3984  2.9492
21120SOL    HW275420   0.609   9.242   0.780 -0.9931  3.2709 -0.2899
21121SOL     OW75421   5.849   9.125   3.442 -0.4063  0.6644  0.7102
21121SOL    HW175422   5.858   9.219   3.410 -2.5096  0.9575  0.8750
21121SOL    HW275423   5.799   9.125   3.529 -0.3967 -0.5924  0.7241
21122SOL     OW75424   5.346   3.071   0.057  0.1690 -0.2612 -0.0940
21122SOL    HW175425   5.417   3.003   0.036  0.5303 -0.1267  0.6587
21122SOL    HW275426   5.257   3.036   0.029  0.4569 -0.7007 -0.4694
21123SOL     OW75427   8.378   6.022   8.408 -0.5099 -0.0568 -0.2395
21123SOL    HW175428   8.340   6.084   8.477  0.6936  2.5656 -1.8343
21123SOL    HW275429   8.318   6.021   8.328  0.1034  0.0305 -0.7045
21124SOL     OW75430   9.176   3.824   9.607 -0.4487 -0.1204  0.0792
21124SOL    HW175431   9.203   3.867   9.693 -0.2565 -0.0955  0.0078
21124SOL    HW275432   9.230   3.740   9.594 -1.5770 -0.9585  0.7344
21125SOL     OW75433   9.238   8.762   7.665  0.9465  0.2351 -0.2185
21125SOL    HW175434   9.229   8.684   7.727  0.3816 -0.5900 -1.3061
21125SOL    HW275435   9.238   8.847   7.717  1.1669 -0.4736  0.9533
21126SOL     OW75436   3.273   0.177   4.260  0.5055  0.3570  0.2016
21126SOL    HW175437   3.227   0.246   4.317  0.2999  1.0455 -0.7904
21126SOL    HW275438   3.304   0.219   4.175  1.9837 -0.3727  0.3724
21127SOL     OW75439   0.365   0.286   4.600  0.3299  0.0591  0.6092
21127SOL    HW175440   0.299   0.234   4.654 -1.5439  1.4503 -0.2935
21127SOL    HW275441   0.422   0.223   4.546 -0.5571 -1.1347  1.0607
21128SOL     OW75442   0.167   5.503   6.147 -0.2994 -0.2518  0.0475
21128SOL    HW175443   0.160   5.473   6.242  0.6693  0.3471  0.3210
21128SOL    HW275444   0.247   5.562   6.137 -0.8859  0.3892 -0.9580
21129SOL     OW75445   0.704   2.079   2.388 -0.1575 -0.0756 -0.1133
21129SOL    HW175446   0.653   2.128   2.458  0.2581  0.9855 -0.5312
21129SOL    HW275447   0.800   2.073   2.415 -0.0228  0.2108 -0.5083
21130SOL     OW75448   2.911   3.429   6.772  0.1726  0.1241 -0.0735
21130SOL    HW175449   2.858   3.370   6.834  1.2523 -2.1620 -1.2757
21130SOL    HW275450   2.855   3.508   6.745 -1.2845 -0.3076  1.5909
21131SOL     OW75451   1.150   2.212   2.956  0.3150  0.7049 -0.1391
21131SOL    HW175452   1.212   2.144   2.916 -0.5412  0.0908 -0.4315
21131SOL    HW275453   1.204   2.288   2.993  1.4596 -1.2878  2.4649
21132SOL     OW75454   3.851   7.095   8.265 -0.1595  0.7327  0.3002
21132SOL    HW175455   3.821   7.040   8.187 -0.8203  2.0060 -0.3540
21132SOL    HW275456   3.799   7.180   8.268  1.2774  1.6094  0.9364
21133SOL     OW75457   2.250   8.589   7.499 -0.3570 -0.1671  0.0495
21133SOL    HW175458   2.185   8.579   7.575 -2.3800  0.9837 -1.4914
21133SOL    HW275459   2.280   8.684   7.494 -0.1539 -0.2635 -0.5305
21134SOL     OW75460   8.441   6.617   2.675  0.1273  1.0360  0.1565
21134SOL    HW175461   8.477   6.603   2.766 -0.2992 -0.3538  0.1201
21134SOL    HW275462   8.514   6.606   2.607 -0.2602 -1.5330  0.0974
21135SOL     OW75463   7.505   1.213   9.557 -0.1449 -0.1370  0.0972
21135SOL    HW175464   7.502   1.307   9.524  0.7168 -0.5285 -1.1047
21135SOL    HW275465   7.444   1.156   9.501  1.2973 -0.7965 -0.8249
21136SOL     OW75466   6.839   4.123   9.946  0.3488  0.3621 -0.0844
21136SOL    HW175467   6.900   4.047   9.921  1.1892  1.2426 -0.7408
21136SOL    HW275468   6.889   4.187  10.004  0.3853  1.6179 -1.4684
21137SOL     OW75469   3.402   1.360   8.276  0.3932  0.0788  0.3106
21137SOL    HW175470   3.472   1.294   8.303  0.8458  0.6773  0.6061
21137SOL    HW275471   3.436   1.453   8.289 -0.8385  0.3921  1.4936
21138SOL     OW75472   0.402   0.295   7.476 -0.4557 -0.0918  0.3298
21138SOL    HW175473   0.341   0.332   7.405  0.5975 -0.8481 -0.9845
21138SOL    HW275474   0.371   0.203   7.501 -0.9147  0.2312  0.9870
21139SOL     OW75475   3.325   7.833   1.583 -0.2100  0.4427 -0.1108
21139SOL    HW175476   3.382   7.814   1.502  0.9313  0.0629  0.7614
21139SOL    HW275477   3.380   7.819   1.666 -1.7733 -0.5164  0.7711
21140SOL     OW75478   0.178   6.256   5.908 -0.2156 -0.6506  0.4764
21140SOL    HW175479   0.224   6.326   5.963 -2.2709  1.0607  0.0820
21140SOL    HW275480   0.159   6.176   5.965  0.8965 -0.3192  1.3155
21141SOL     OW75481   7.060   9.646   5.926  0.5815 -0.2160 -0.2718
21141SOL    HW175482   7.020   9.705   5.856  0.7989  1.5675  1.0705
21141SOL    HW275483   7.117   9.576   5.883  0.4539  0.6614 -1.8830
21142SOL     OW75484   2.091   1.379   2.811 -0.4446  0.3899 -0.0047
21142SOL    HW175485   2.068   1.408   2.904  1.7005 -0.8258  0.9499
21142SOL    HW275486   2.136   1.455   2.763  0.8071  0.2217  0.8647
21143SOL     OW75487   6.022   8.632   4.380 -0.1777  0.8663  0.4670
21143SOL    HW175488   5.948   8.573   4.412 -1.6848  2.6811  0.3692
21143SOL    HW275489   6.067   8.675   4.458  2.4746 -2.1626  0.7112
21144SOL     OW75490   8.069   0.138   9.373 -0.1933 -0.0945 -0.3592
21144SOL    HW175491   8.129   0.171   9.446  1.5884  0.0022 -1.8063
21144SOL    HW275492   8.041   0.044   9.392 -0.8553  0.3961  1.1051
21145SOL     OW75493   0.590   8.810   5.688 -0.2661 -0.2531  0.2254
21145SOL    HW175494   0.644   8.807   5.772 -0.4575  1.2636  0.4142
21145SOL    HW275495   0.608   8.727   5.634 -0.7867 -1.6403  2.1280
21146SOL     OW75496   3.334   1.984   3.494  0.1009  0.6246 -0.2421
21146SOL    HW175497   3.262   2.052   3.476  0.7250  1.4939  0.4916
21146SOL    HW275498   3.301   1.893   3.470 -1.3275  0.9944  0.2751
21147SOL     OW75499   7.789   2.064   7.983 -0.2515  0.3461  0.2170
21147SOL    HW175500   7.771   2.026   8.074 -2.0137 -1.8759 -0.9940
21147SOL    HW275501   7.764   1.996   7.913  3.2575  1.0905 -1.9010
21148SOL     OW75502   8.471   5.014   7.757 -0.2748  0.1900 -0.1098
21148SOL    HW175503   8.517   5.103   7.756 -0.0578  0.0765 -0.5503
21148SOL    HW275504   8.499   4.962   7.676 -0.3353 -0.3108  0.1918
21149SOL     OW75505   4.212   7.480   7.449 -0.4558 -0.2364  0.1619
21149SOL    HW175506   4.204   7.381   7.441 -0.2671 -0.2717  0.3982
21149SOL    HW275507   4.132   7.523   7.408 -0.7163 -0.4999  0.3857
21150SOL     OW75508   8.615   0.503   5.721 -0.0600  0.2504  0.0553
21150SOL    HW175509   8.705   0.461   5.705 -0.2758  0.0026 -0.5177
21150SOL    HW275510   8.559   0.441   5.776 -0.3834 -0.2262 -0.8018
21151SOL     OW75511   5.078   3.622   0.208 -0.3002 -0.3136  0.2903
21151SOL    HW175512   5.040   3.646   0.119  1.2210 -1.7792 -0.7957
21151SOL    HW275513   5.172   3.655   0.214 -0.6614  0.5049  1.6984
21152SOL     OW75514   6.621   2.682   2.700 -0.3485 -0.2474  0.0857
21152SOL    HW175515   6.620   2.782   2.697  0.4956 -0.2618 -0.7864
21152SOL    HW275516   6.563   2.646   2.627  1.9014 -0.4122 -1.6597
21153SOL     OW75517   7.809   7.171   2.308 -0.0525  0.0491 -0.1183
21153SOL    HW175518   7.890   7.179   2.250 -0.6381 -0.0696 -0.9756
21153SOL    HW275519   7.746   7.246   2.286  0.0565  0.4597  0.9254
21154SOL     OW75520   5.089   5.817   8.730 -0.2122 -0.3585  0.1688
21154SOL    HW175521   5.013   5.831   8.666 -0.3985 -2.2343 -0.0464
21154SOL    HW275522   5.067   5.741   8.791  1.2363 -0.5201  0.4974
21155SOL     OW75523   7.663   0.450   7.031  0.1764 -0.1760  0.7610
21155SOL    HW175524   7.633   0.490   7.117  1.6707  4.5702 -0.7845
21155SOL    HW275525   7.583   0.429   6.974 -0.6353  1.7846  1.1435
21156SOL     OW75526   0.348   3.353   4.911  0.5242  0.0341  0.4672
21156SOL    HW175527   0.388   3.399   4.990 -0.4084  0.5723  0.6328
21156SOL    HW275528   0.249   3.355   4.918  0.4300  0.1479 -0.7539
21157SOL     OW75529   8.051   1.427   2.482  0.3784  0.8574  0.0373
21157SOL    HW175530   8.068   1.526   2.475 -0.8315  0.9520 -2.1079
21157SOL    HW275531   8.113   1.379   2.420  2.4472  0.0598  2.6535
21158SOL     OW75532   5.831   9.121   7.311  0.4092 -0.4679  0.4268
21158SOL    HW175533   5.898   9.049   7.294  0.4954 -0.3871  0.4244
21158SOL    HW275534   5.766   9.090   7.381 -0.0814 -0.8973 -0.2057
21159SOL     OW75535   5.624   7.870   4.808 -0.3535 -0.4232  0.5484
21159SOL    HW175536   5.647   7.780   4.844 -0.2188 -1.4461 -2.0246
21159SOL    HW275537   5.540   7.865   4.755  0.7202  0.5358 -1.3014
21160SOL     OW75538   0.425   8.721   6.060  0.2332  0.3636 -0.9967
21160SOL    HW175539   0.408   8.686   5.968  0.3432  1.2935 -1.3759
21160SOL    HW275540   0.410   8.820   6.062  0.1256  0.3382  0.0128
21161SOL     OW75541   6.016   8.248   6.782  0.2994 -0.1653 -0.6490
21161SOL    HW175542   5.961   8.178   6.738  0.7908 -1.0878  0.1971
21161SOL    HW275543   6.113   8.234   6.758  0.3722  0.3701 -0.6755
21162SOL     OW75544   4.929   7.936   7.144  0.0232 -0.1665  0.1098
21162SOL    HW175545   5.001   7.999   7.117 -0.2795  0.6083  1.0729
21162SOL    HW275546   4.949   7.845   7.107  1.7956 -0.1043  0.8340
21163SOL     OW75547   2.794   4.594   7.079 -0.4082  0.1380 -0.1971
21163SOL    HW175548   2.892   4.577   7.070 -0.2647  0.2891  1.0392
21163SOL    HW275549   2.775   4.642   7.165 -1.4701  0.9261 -0.8533
21164SOL     OW75550   2.285   9.700   6.588  0.0569  0.1444  0.1036
21164SOL    HW175551   2.302   9.798   6.579 -0.2525  0.0850 -1.1584
21164SOL    HW275552   2.334   9.665   6.668  2.6089  0.7279 -1.1691
21165SOL     OW75553   8.688   5.771   7.985 -0.1814 -0.1624 -0.0040
21165SOL    HW175554   8.717   5.855   7.940  0.0411  0.5144  1.3756
21165SOL    HW275555   8.594   5.748   7.958 -0.6190  1.1002  0.4214
21166SOL     OW75556   2.863   2.631   8.857  0.1575 -0.4086 -0.4158
21166SOL    HW175557   2.800   2.563   8.820 -1.0081  0.3895  0.0880
21166SOL    HW275558   2.895   2.601   8.947  1.1534 -1.2121 -1.0305
21167SOL     OW75559   9.989   2.794   0.994  0.3387  0.7705 -0.5000
21167SOL    HW175560  10.023   2.701   0.984  0.0113  0.4932  0.9238
21167SOL    HW275561   9.963   2.811   1.089 -1.6581  1.6016 -1.1578
21168SOL     OW75562   3.322   7.836  10.058  0.3264 -0.3686  0.3422
21168SOL    HW175563   3.407   7.790  10.034 -1.3717 -2.1565 -2.6803
21168SOL    HW275564   3.257   7.768  10.093 -0.2515  0.7808  1.5168
21169SOL     OW75565   4.159   8.685   3.253 -0.3728  1.1605 -0.0091
21169SOL    HW175566   4.176   8.643   3.342 -2.3557  0.4720  0.0806
21169SOL    HW275567   4.171   8.618   3.180  0.6995  1.5808 -0.2328
21170SOL     OW75568   5.094   8.905   4.946 -0.9830 -0.3511  0.0372
21170SOL    HW175569   5.189   8.915   4.918 -1.4699  0.8286 -1.2355
21170SOL    HW275570   5.074   8.808   4.961  0.4725 -0.5830  0.5541
21171SOL     OW75571   8.768   3.082   8.367  0.1161 -0.4200 -0.1667
21171SOL    HW175572   8.711   3.162   8.388 -0.0379  0.6633 -4.3583
21171SOL    HW275573   8.864   3.110   8.361  0.6645 -1.4725  2.7713
21172SOL     OW75574   8.946   4.528   9.406 -0.4014  0.4047 -0.3463
21172SOL    HW175575   9.040   4.495   9.404 -0.2068  1.0454 -1.7583
21172SOL    HW275576   8.915   4.533   9.501  0.9351  0.0636  0.1149
21173SOL     OW75577   3.313   2.334   0.671  0.4783 -0.0886 -0.2907
21173SOL    HW175578   3.253   2.311   0.594 -3.5498 -0.8091  2.8733
21173SOL    HW275579   3.331   2.252   0.725 -0.9073  1.2535  2.2806
21174SOL     OW75580   7.866   6.080   3.861 -0.0087  0.7267 -0.0800
21174SOL    HW175581   7.783   6.050   3.814  1.5114 -1.6721 -1.3617
21174SOL    HW275582   7.864   6.050   3.956 -0.5693  0.6360 -0.1188
21175SOL     OW75583   8.076   0.914   4.567  0.3261 -0.3876 -0.1408
21175SOL    HW175584   8.118   0.883   4.482  0.5162 -0.2685 -0.0895
21175SOL    HW275585   8.089   1.013   4.577 -5.1302  0.8649 -3.1620
21176SOL     OW75586   1.032   5.096   0.118  0.3267  0.2156  0.2845
21176SOL    HW175587   0.976   5.096   0.035 -0.4254 -1.4612  0.7886
21176SOL    HW275588   0.973   5.109   0.198  0.7714 -0.5965  0.7449
21177SOL     OW75589   7.348   9.308   4.292  0.0557  1.0146  0.1780
21177SOL    HW175590   7.430   9.262   4.260 -0.5307  0.3953 -0.4649
21177SOL    HW275591   7.332   9.287   4.388 -0.0412  0.1141 -0.0298
21178SOL     OW75592   8.984   9.889   0.958  0.1589 -0.4132  0.0391
21178SOL    HW175593   8.924   9.918   0.884  1.5412  2.1028 -0.1511
21178SOL    HW275594   9.023   9.799   0.936  0.6603  0.3486 -2.3673
21179SOL     OW75595   1.036   3.784   2.501 -0.3137 -0.4379 -0.1222
21179SOL    HW175596   0.959   3.724   2.524  0.2753 -0.4624  1.8507
21179SOL    HW275597   1.047   3.853   2.572  1.7787 -0.7195 -0.1528
21180SOL     OW75598   2.710   7.570   9.295 -0.5779  0.1987 -0.7699
21180SOL    HW175599   2.629   7.605   9.342 -0.4793  0.2837 -0.6612
21180SOL    HW275600   2.693   7.478   9.262  0.1438 -0.7774  1.5103
21181SOL     OW75601   0.782   3.585   6.762  0.0958 -0.4591 -0.4474
21181SOL    HW175602   0.752   3.533   6.682 -1.9855  0.1873 -0.1103
21181SOL    HW275603   0.719   3.661   6.778  1.8058  0.8167  0.4260
21182SOL     OW75604   4.158   4.849   1.835  0.0148 -0.0834 -0.5761
21182SOL    HW175605   4.125   4.873   1.744 -1.4689  0.5769  0.1212
21182SOL    HW275606   4.149   4.928   1.896 -0.5944 -1.0234  0.5725
21183SOL     OW75607   8.995   3.490   9.790  0.3494  0.3265 -0.1863
21183SOL    HW175608   9.085   3.454   9.816  0.0007 -0.4852 -0.0715
21183SOL    HW275609   8.985   3.583   9.825 -0.3613 -0.9415  3.1763
21184SOL     OW75610   4.705   4.019   5.923 -0.2769 -0.3624 -0.3408
21184SOL    HW175611   4.742   3.988   5.835  2.1508  2.4061 -0.3743
21184SOL    HW275612   4.641   4.094   5.908  0.4073  0.3445  0.2590
21185SOL     OW75613   6.497   3.351   8.940 -0.0396  0.3593  0.1619
21185SOL    HW175614   6.484   3.450   8.950 -0.8463  0.2303  0.4122
21185SOL    HW275615   6.469   3.306   9.025 -0.6460 -0.1798 -0.3309
21186SOL     OW75616   0.442   3.572   0.286 -0.0041 -0.2996 -0.4729
21186SOL    HW175617   0.515   3.518   0.244 -1.2684 -0.7632 -2.1251
21186SOL    HW275618   0.473   3.666   0.299  0.5721 -0.2681 -2.0326
21187SOL     OW75619   7.955   0.206   2.284  0.1710 -0.4849 -0.0925
21187SOL    HW175620   7.882   0.226   2.349 -1.2994 -2.7922 -0.9878
21187SOL    HW275621   8.043   0.204   2.332 -0.4305  1.3387  1.1615
21188SOL     OW75622   5.985   0.723   3.970  0.4583  0.2354 -0.0541
21188SOL    HW175623   6.037   0.809   3.974 -0.4391  0.7335  1.3560
21188SOL    HW275624   5.907   0.735   3.909 -0.5306  0.9266  1.3187
21189SOL     OW75625   3.472   0.506   5.770  0.2390  0.4469  0.0636
21189SOL    HW175626   3.423   0.548   5.847 -2.8617 -2.4276 -0.2537
21189SOL    HW275627   3.560   0.472   5.802 -0.6639 -0.0017  2.1697
21190SOL     OW75628   0.827   4.139   8.947  0.0465 -0.5323 -0.0308
21190SOL    HW175629   0.786   4.049   8.962  0.0615 -0.3668  1.0553
21190SOL    HW275630   0.783   4.184   8.869 -0.2421 -1.3100 -0.3154
21191SOL     OW75631   2.759   4.817   3.216 -0.3203 -0.3155  0.0633
21191SOL    HW175632   2.814   4.856   3.143 -0.3381  0.6158  0.5421
21191SOL    HW275633   2.737   4.888   3.283 -0.6261 -1.0734  0.7758
21192SOL     OW75634   9.001   1.708   6.759  0.2482 -0.5508  0.2392
21192SOL    HW175635   8.960   1.624   6.793 -2.1381  0.1830 -0.7217
21192SOL    HW275636   9.022   1.769   6.836 -1.0129 -0.7002  0.7106
21193SOL     OW75637   0.639   0.776   1.563  0.1969 -0.3403  0.1882
21193SOL    HW175638   0.571   0.724   1.614 -2.7255  0.2052 -2.9410
21193SOL    HW275639   0.685   0.717   1.498  0.1668  0.0483 -0.1879
21194SOL     OW75640   4.275   0.924   6.181 -0.2263  0.0362 -0.0065
21194SOL    HW175641   4.303   0.862   6.108 -1.8349 -0.2615 -0.3740
21194SOL    HW275642   4.246   0.871   6.260  0.3490  0.3527  0.4236
21195SOL     OW75643   0.977   5.300   8.340  0.3116 -0.2118 -0.5158
21195SOL    HW175644   1.010   5.300   8.434  0.6347  1.4906 -0.6085
21195SOL    HW275645   0.879   5.282   8.339  0.2317  0.1455  0.1900
21196SOL     OW75646   4.893   6.315   9.608 -0.8606 -0.1620  0.1506
21196SOL    HW175647   4.876   6.382   9.680 -0.1706  0.2889 -0.0975
21196SOL    HW275648   4.867   6.354   9.519  0.3108  0.1065 -0.0929
21197SOL     OW75649   5.417   3.280   0.463 -0.3597 -0.0769  0.1992
21197SOL    HW175650   5.437   3.373   0.431  1.6846  0.1760  2.1584
21197SOL    HW275651   5.380   3.284   0.556 -0.4090 -1.2367  0.2321
21198SOL     OW75652   2.279   5.355   0.930 -0.2089  0.2306 -0.1389
21198SOL    HW175653   2.192   5.307   0.923 -1.1398  1.8006  0.4344
21198SOL    HW275654   2.345   5.298   0.978 -1.5319 -0.1607  1.2419
21199SOL     OW75655   1.844   9.732   3.494  0.3486 -0.1416  0.7087
21199SOL    HW175656   1.900   9.812   3.471  0.0063  0.5303  2.1389
21199SOL    HW275657   1.845   9.719   3.593 -2.4479  0.1742  0.8005
21200SOL     OW75658   9.081   2.401   4.014 -0.3198  0.0094 -0.0269
21200SOL    HW175659   9.015   2.377   4.086 -0.3522  0.2609  0.0257
21200SOL    HW275660   9.066   2.342   3.935  0.6025 -1.1954  0.6754
21201SOL     OW75661   0.394   6.665   4.041  0.3031 -0.1779 -0.0789
21201SOL    HW175662   0.476   6.608   4.036  0.0915 -0.4712 -0.2225
21201SOL    HW275663   0.420   6.760   4.057  0.7534  0.0050 -1.8266
21202SOL     OW75664   4.639   2.774   7.520  0.1217 -0.2401  1.2185
21202SOL    HW175665   4.617   2.872   7.523 -0.0430 -0.3207  3.2800
21202SOL    HW275666   4.710   2.758   7.452 -1.5556  0.9552 -0.9041
21203SOL     OW75667   4.564   4.066   6.602  0.3120  0.1017  0.0275
21203SOL    HW175668   4.607   3.976   6.594 -0.7442 -0.3841 -0.2743
21203SOL    HW275669   4.465   4.056   6.593  0.1725  1.2668  0.2428
21204SOL     OW75670   4.884   4.770   7.010  0.0116  0.5622  0.3529
21204SOL    HW175671   4.874   4.672   6.994  0.7193  0.4451  0.5881
21204SOL    HW275672   4.853   4.820   6.930 -0.5336  0.1562  0.3039
21205SOL     OW75673   2.621   4.974   5.117 -0.0311  0.0356  0.7384
21205SOL    HW175674   2.608   5.057   5.062  2.7057  0.3251  0.4639
21205SOL    HW275675   2.576   4.897   5.072  0.8073  0.5996 -1.1099
21206SOL     OW75676   3.729   6.778   4.793 -0.0458 -0.3135  0.4602
21206SOL    HW175677   3.731   6.789   4.694  2.2444 -0.1754  0.5052
21206SOL    HW275678   3.762   6.687   4.817 -1.4475 -0.6721  1.0618
21207SOL     OW75679   1.186   1.241   3.476 -0.4776 -0.5139 -1.0683
21207SOL    HW175680   1.186   1.332   3.518 -0.2609  0.0203 -2.2246
21207SOL    HW275681   1.100   1.195   3.499  0.5348 -1.1077  1.8042
21208SOL     OW75682   4.849   9.321   1.979 -0.4621 -0.7475 -0.2401
21208SOL    HW175683   4.945   9.296   1.963  0.2102  2.2842 -1.2044
21208SOL    HW275684   4.790   9.268   1.919  0.8229 -0.8154 -1.4576
21209SOL     OW75685   8.077   3.883   2.356  0.1685 -0.6522  0.0433
21209SOL    HW175686   7.983   3.904   2.381  0.9327  1.4763  1.2158
21209SOL    HW275687   8.092   3.909   2.260 -0.2257 -0.2810  0.0782
21210SOL     OW75688   4.294   1.739   7.374  0.2039 -0.0218 -0.1141
21210SOL    HW175689   4.347   1.671   7.424  1.1541  0.6762 -0.1635
21210SOL    HW275690   4.282   1.821   7.430 -0.4662 -0.0164 -0.2604
21211SOL     OW75691   9.597   3.873   0.148  0.3201 -0.0609  0.1489
21211SOL    HW175692   9.613   3.971   0.135 -1.2977  0.6669  3.2436
21211SOL    HW275693   9.623   3.824   0.065  2.4194  2.8333 -0.9777
21212SOL     OW75694   6.004   4.193   2.660 -0.0232 -0.2454 -0.8051
21212SOL    HW175695   5.916   4.223   2.697  0.6839  0.7212  0.1150
21212SOL    HW275696   6.006   4.093   2.657 -0.5740 -0.3114  0.5939
21213SOL     OW75697   6.482   2.403   2.802 -0.1945 -0.3154  0.2891
21213SOL    HW175698   6.543   2.482   2.809  0.0944 -0.6918  2.3490
21213SOL    HW275699   6.537   2.320   2.798 -0.5358 -0.5289  0.0683
21214SOL     OW75700   0.344   1.991   9.588 -0.7007 -0.2293 -0.0997
21214SOL    HW175701   0.337   1.911   9.646 -2.0709  0.3348  0.5454
21214SOL    HW275702   0.396   1.969   9.505 -2.3434 -2.2041 -0.6492
21215SOL     OW75703   2.175   3.226   5.508 -0.2578  0.0854 -0.4356
21215SOL    HW175704   2.139   3.138   5.476 -0.4482  0.5834 -1.6190
21215SOL    HW275705   2.102   3.277   5.554  0.3433 -1.1886  2.0675
21216SOL     OW75706   3.411   4.450   8.263 -0.6587  0.4859  0.6524
21216SOL    HW175707   3.422   4.383   8.336  0.2452 -2.0806 -1.7585
21216SOL    HW275708   3.495   4.504   8.253 -0.5267  0.3423  0.9867
21217SOL     OW75709   4.602   2.877   0.113  0.1240  0.1375 -0.0810
21217SOL    HW175710   4.592   2.817   0.193  2.5121 -0.0522  0.1079
21217SOL    HW275711   4.553   2.963   0.130 -1.6779 -0.9452  0.4407
21218SOL     OW75712   4.264   2.378   4.898 -0.0844  0.2255  0.5401
21218SOL    HW175713   4.231   2.395   4.806  0.0651  0.2818  0.4971
21218SOL    HW275714   4.282   2.280   4.909  0.0208  0.2373  0.4694
21219SOL     OW75715   4.017   9.815   1.547  0.2718 -0.4502  0.1541
21219SOL    HW175716   3.945   9.883   1.532 -0.6429 -1.7214 -1.3967
21219SOL    HW275717   4.021   9.793   1.645 -2.1462 -1.0651  0.1591
21220SOL     OW75718   7.039   0.410   8.814 -0.3031 -0.3005  0.1465
21220SOL    HW175719   7.095   0.483   8.777 -0.9579 -0.5953 -1.4878
21220SOL    HW275720   6.944   0.441   8.821 -0.1418 -0.1191  2.0051
21221SOL     OW75721   2.861   5.557   0.845  0.0503 -0.0558 -0.3370
21221SOL    HW175722   2.805   5.577   0.765  0.3939  1.3748 -0.2303
21221SOL    HW275723   2.883   5.459   0.847 -2.5141 -0.6689 -0.3206
21222SOL     OW75724   3.781   0.328   2.601 -0.3487 -0.0050  0.0893
21222SOL    HW175725   3.740   0.326   2.691  1.6296 -0.5899  1.0123
21222SOL    HW275726   3.881   0.326   2.610 -0.1473 -1.8115 -2.1424
21223SOL     OW75727   3.588   7.722   9.571  0.3396  0.4941 -0.8179
21223SOL    HW175728   3.594   7.625   9.595  1.9301  0.1386 -2.5477
21223SOL    HW275729   3.513   7.736   9.506 -1.1004  0.7510  0.8615
21224SOL     OW75730   4.489   2.729   0.345  0.2830 -0.0407  0.0919
21224SOL    HW175731   4.526   2.656   0.287 -0.1597  0.0388 -0.2914
21224SOL    HW275732   4.390   2.724   0.345  0.1865  1.6747 -1.3854
21225SOL     OW75733   3.882   7.143   3.273  0.4179  0.4180  0.0305
21225SOL    HW175734   3.794   7.190   3.269  0.1449  0.0169  1.2006
21225SOL    HW275735   3.947   7.197   3.326  1.1731  1.1573 -1.6034
21226SOL     OW75736   5.138   1.683   4.336 -0.2989 -0.3065 -0.3090
21226SOL    HW175737   5.162   1.728   4.250  2.7202 -0.7886  0.2047
21226SOL    HW275738   5.068   1.736   4.384  0.2141  1.6126 -1.6430
21227SOL     OW75739   0.073   0.229   7.406  0.0223 -0.3820 -0.2835
21227SOL    HW175740   0.062   0.298   7.334  0.7882 -0.9656 -0.9580
21227SOL    HW275741   0.110   0.272   7.488  0.7654 -0.0483 -0.7949
21228SOL     OW75742   0.730   9.026   4.056  0.0411 -0.4080  0.3566
21228SOL    HW175743   0.822   9.034   4.019  0.8052 -3.1329  1.5376
21228SOL    HW275744   0.733   9.030   4.156 -1.3031  0.9728  0.3597
21229SOL     OW75745   9.442   0.533   3.901 -0.8158 -0.0310  0.8332
21229SOL    HW175746   9.500   0.493   3.830 -4.5215 -2.2834 -1.1029
21229SOL    HW275747   9.447   0.632   3.896  2.4873 -0.1617  0.4888
21230SOL     OW75748   3.710   0.129   3.096 -0.2776  0.0897  0.2301
21230SOL    HW175749   3.698   0.040   3.141 -0.0566  0.5911  1.2903
21230SOL    HW275750   3.774   0.118   3.019 -0.1995 -0.6560  0.3925
21231SOL     OW75751   3.897   9.510   3.571  0.2911 -0.3093 -0.0451
21231SOL    HW175752   3.882   9.558   3.658  0.9374 -2.0195  1.0466
21231SOL    HW275753   3.986   9.536   3.534  0.8011 -0.9284  0.7290
21232SOL     OW75754   7.418   2.305   4.054 -0.1775 -0.0009  0.3433
21232SOL    HW175755   7.425   2.393   4.102 -0.5727 -1.0209  2.3506
21232SOL    HW275756   7.433   2.318   3.956  0.2776  2.2178  0.6942
21233SOL     OW75757   8.839   8.956   3.878  0.8992 -0.3419 -0.0099
21233SOL    HW175758   8.877   8.886   3.817 -0.4731 -1.2170  0.1201
21233SOL    HW275759   8.752   8.989   3.841  1.1072  0.6719  0.3849
21234SOL     OW75760   1.554   9.118   3.614  0.1367  0.1547  0.0793
21234SOL    HW175761   1.463   9.102   3.653 -0.7118  2.1472 -0.9960
21234SOL    HW275762   1.564   9.215   3.592  2.0424 -0.2735 -1.0470
21235SOL     OW75763   4.040   2.527   5.350  0.0787  0.1489  0.2373
21235SOL    HW175764   4.063   2.456   5.284  0.8691 -1.8258  2.5344
21235SOL    HW275765   4.124   2.561   5.393 -0.5128  0.1847  1.4034
21236SOL     OW75766   1.517   6.432   6.613  0.3525 -0.1868 -0.0653
21236SOL    HW175767   1.437   6.472   6.658  0.3230 -0.5338  0.1888
21236SOL    HW275768   1.489   6.392   6.525 -0.0519 -1.7318  0.7567
21237SOL     OW75769   1.295   0.905   3.227 -0.3427  0.2610  0.0994
21237SOL    HW175770   1.288   1.004   3.219 -0.4174  0.2550  0.0931
21237SOL    HW275771   1.341   0.868   3.147 -0.5976  0.2566 -0.0427
21238SOL     OW75772   6.983   3.620   9.445 -0.0034 -0.1587 -0.4522
21238SOL    HW175773   7.022   3.612   9.537 -0.2217  1.2093 -0.2211
21238SOL    HW275774   7.021   3.701   9.400 -0.0868 -0.6871 -1.4707
21239SOL     OW75775   0.850   3.645   9.708  0.0103 -0.1360 -0.4676
21239SOL    HW175776   0.832   3.586   9.786  0.1209  1.9425  1.1687
21239SOL    HW275777   0.875   3.736   9.740  0.9341  0.5145 -2.9191
21240SOL     OW75778   8.017   8.511   5.759  0.5503  0.1001  0.1198
21240SOL    HW175779   8.082   8.477   5.691  0.0240  0.6155 -0.6606
21240SOL    HW275780   8.065   8.529   5.845  0.8751 -2.3441  0.4725
21241SOL     OW75781   7.506   3.981   8.761  0.8894  0.2682 -0.5816
21241SOL    HW175782   7.475   3.933   8.679  0.2065 -0.7844  0.2950
21241SOL    HW275783   7.488   4.079   8.750 -0.8572 -0.0786 -0.9489
21242SOL     OW75784   2.644   6.524   8.502  0.5191 -0.2572  0.0746
21242SOL    HW175785   2.701   6.592   8.455  1.0641 -0.5139  0.3586
21242SOL    HW275786   2.602   6.464   8.435 -1.3968  1.4688 -0.3078
21243SOL     OW75787   5.347   7.101   3.195 -0.0040 -0.0447 -0.3850
21243SOL    HW175788   5.410   7.086   3.119  0.7202  0.4498  0.1149
21243SOL    HW275789   5.389   7.067   3.280 -0.2325  0.6847  0.0159
21244SOL     OW75790   6.952   1.765   6.350  0.2467 -0.2258 -0.2561
21244SOL    HW175791   7.018   1.825   6.397  0.2752 -1.4587  1.3219
21244SOL    HW275792   6.892   1.821   6.293  0.4460  1.3020  0.9737
21245SOL     OW75793   5.585   2.430   0.704 -0.2862 -0.1453 -0.4054
21245SOL    HW175794   5.664   2.386   0.661 -1.0786  0.2107 -2.2703
21245SOL    HW275795   5.535   2.363   0.759  1.2354 -0.3960  0.7307
21246SOL     OW75796   0.735   5.844   4.341  0.0728  0.0961  0.1626
21246SOL    HW175797   0.792   5.815   4.264 -1.2495 -0.5822 -0.5721
21246SOL    HW275798   0.685   5.926   4.316  0.6908  0.6760  0.8028
21247SOL     OW75799   7.092   6.878   3.286  0.1621 -0.1639  0.0731
21247SOL    HW175800   7.143   6.927   3.215 -0.0320  0.9292  0.6905
21247SOL    HW275801   7.101   6.780   3.270  0.7801  0.0540 -1.0073
21248SOL     OW75802   4.506   1.377   0.697 -0.4554 -0.7687 -0.1302
21248SOL    HW175803   4.581   1.316   0.723 -0.5823 -0.7199  0.3639
21248SOL    HW275804   4.521   1.467   0.738 -1.3961 -1.0993  0.9710
21249SOL     OW75805   6.462   0.019   6.622 -0.1971  0.0589  0.3969
21249SOL    HW175806   6.455  -0.003   6.525 -1.5049  1.0631  0.2555
21249SOL    HW275807   6.415  -0.051   6.676 -1.0296  0.4686  0.1967
21250SOL     OW75808   4.088   0.606   3.560 -0.0193  0.2769 -0.3280
21250SOL    HW175809   4.001   0.558   3.552 -0.1089  0.6831 -1.8785
21250SOL    HW275810   4.092   0.653   3.648 -1.8049  1.1182 -0.6855
21251SOL     OW75811   4.379   2.080   9.376  0.3880 -0.3142 -0.4079
21251SOL    HW175812   4.378   2.002   9.313 -3.0677 -1.8290  1.3579
21251SOL    HW275813   4.339   2.052   9.464  3.2637  2.2731  1.8318
21252SOL     OW75814   0.506   8.771   1.263  0.1687 -0.1684  0.0313
21252SOL    HW175815   0.489   8.725   1.350 -0.9394  0.7153  0.2969
21252SOL    HW275816   0.427   8.828   1.240  1.4521  1.4585 -0.3892
21253SOL     OW75817   2.055   9.123   8.159 -0.2029 -0.0699  0.2458
21253SOL    HW175818   2.081   9.125   8.063 -0.5766 -0.3855  0.1346
21253SOL    HW275819   2.127   9.077   8.212 -0.0388  0.0274  0.1076
21254SOL     OW75820   3.837   5.321   2.155 -0.6650 -0.3925 -0.0651
21254SOL    HW175821   3.887   5.243   2.191  1.3478 -0.8323 -3.6115
21254SOL    HW275822   3.798   5.299   2.066 -0.2251  2.5425 -1.0667
21255SOL     OW75823   6.635   3.304   0.938  0.3106 -0.4372 -0.1012
21255SOL    HW175824   6.589   3.317   1.026  1.7297  1.3400  0.4183
21255SOL    HW275825   6.712   3.241   0.949  0.7289  0.0861  0.0525
21256SOL     OW75826   8.735   2.603   5.450  0.3245 -0.0520  0.5884
21256SOL    HW175827   8.653   2.655   5.474 -0.1866 -0.2708 -0.6550
21256SOL    HW275828   8.741   2.521   5.508 -1.8607 -1.5233 -1.1823
21257SOL     OW75829   3.571   6.826   8.236 -0.1377 -0.5526 -0.0880
21257SOL    HW175830   3.619   6.743   8.265 -0.9795 -0.3848  1.8263
21257SOL    HW275831   3.473   6.817   8.256 -0.1583  1.1161  0.6424
21258SOL     OW75832   8.475   6.699   0.822 -0.6549  0.3457  0.0221
21258SOL    HW175833   8.453   6.717   0.726 -0.3322 -0.2679 -0.1683
21258SOL    HW275834   8.488   6.786   0.870  0.3379  0.6442 -0.7637
21259SOL     OW75835   0.153   1.458   6.435 -0.0793 -0.0494  0.3968
21259SOL    HW175836   0.070   1.508   6.409 -0.4122 -0.5303  0.5284
21259SOL    HW275837   0.211   1.446   6.354  0.8155  2.0441  0.6997
21260SOL     OW75838   8.990   9.109   0.258  0.0268  0.4523  0.3153
21260SOL    HW175839   9.044   9.190   0.234  0.9349 -0.1339  0.3496
21260SOL    HW275840   8.893   9.129   0.246  0.2289  1.6424  0.6036
21261SOL     OW75841   4.999   7.754   5.314 -0.5520 -0.4321  0.1589
21261SOL    HW175842   4.993   7.739   5.216  0.3637  1.0857 -0.1300
21261SOL    HW275843   5.051   7.679   5.356 -1.2796 -1.2843 -0.4433
21262SOL     OW75844   3.524   7.754   2.444 -0.5533  0.1664 -0.1336
21262SOL    HW175845   3.540   7.703   2.529 -0.5515 -0.7593 -0.6866
21262SOL    HW275846   3.611   7.769   2.397 -0.6572 -0.1127 -0.4190
21263SOL     OW75847   1.406   5.678   2.742 -0.7487 -0.3182 -0.2329
21263SOL    HW175848   1.442   5.593   2.704  0.5993 -0.5222  1.4347
21263SOL    HW275849   1.445   5.756   2.691  2.2996 -0.5279  1.6546
21264SOL     OW75850   8.282   4.047   5.280 -0.1671 -0.0982 -0.3366
21264SOL    HW175851   8.273   3.981   5.205  0.4730  0.0613 -0.5603
21264SOL    HW275852   8.376   4.082   5.282 -0.2338  0.0360  0.4268
21265SOL     OW75853   7.544   6.792   4.518 -0.7145 -0.2243 -0.2515
21265SOL    HW175854   7.512   6.700   4.494 -0.6946 -0.0438 -0.9812
21265SOL    HW275855   7.617   6.785   4.586 -1.0335 -0.7233  0.0476
21266SOL     OW75856   1.270   0.756   7.158 -0.5360 -0.4414 -0.0184
21266SOL    HW175857   1.273   0.737   7.256 -2.7260 -0.5410  0.0586
21266SOL    HW275858   1.205   0.831   7.141 -1.6095 -1.6972 -1.5686
21267SOL     OW75859   6.979   0.202   7.139  0.6442 -0.1757  0.2590
21267SOL    HW175860   6.900   0.143   7.156  2.0821 -1.8364  1.4189
21267SOL    HW275861   6.950   0.297   7.135 -1.4659 -0.8028  0.2255
21268SOL     OW75862   9.887   7.660   7.669 -0.5594 -0.4142 -0.5876
21268SOL    HW175863   9.822   7.727   7.636 -1.2327 -0.7133  0.1047
21268SOL    HW275864   9.900   7.671   7.768 -0.6228 -1.2506 -0.4787
21269SOL     OW75865   8.780   7.972   2.639 -0.2830 -0.2018  0.2223
21269SOL    HW175866   8.806   8.033   2.714  1.8393  0.7127 -1.2035
21269SOL    HW275867   8.704   8.013   2.588  0.3057  0.6572  0.0267
21270SOL     OW75868   0.044   5.979   2.870  0.1424 -0.4249  0.3344
21270SOL    HW175869  -0.035   5.995   2.930 -0.5166  0.5026 -0.7584
21270SOL    HW275870   0.057   5.881   2.857  0.6518 -0.6793  2.4414
21271SOL     OW75871   4.055   8.336   3.953  0.0898 -0.6718 -0.5143
21271SOL    HW175872   3.994   8.400   4.001 -0.9276  0.0461 -2.6976
21271SOL    HW275873   4.150   8.361   3.971 -0.2893  1.3855 -1.1683
21272SOL     OW75874   2.850   7.626   6.316 -0.0944  0.4656 -0.0863
21272SOL    HW175875   2.866   7.672   6.403  1.4381 -2.0651  1.0252
21272SOL    HW275876   2.911   7.663   6.247  2.0484 -0.7281  1.1180
21273SOL     OW75877   9.558   3.338   0.876  0.0308 -0.0702  0.1827
21273SOL    HW175878   9.534   3.432   0.852 -1.8715 -0.3059  1.1283
21273SOL    HW275879   9.480   3.278   0.860  0.3215 -1.0372  2.2471
21274SOL     OW75880   2.094   0.401   3.642 -0.1432  0.9335 -0.3906
21274SOL    HW175881   2.137   0.449   3.566 -0.2772  0.5715 -0.7034
21274SOL    HW275882   2.162   0.345   3.689 -0.1432  0.8297 -0.5112
21275SOL     OW75883   1.165   8.726   3.038  0.7000  0.5285 -0.0594
21275SOL    HW175884   1.122   8.692   3.121 -1.5635 -0.8543 -1.7504
21275SOL    HW275885   1.151   8.825   3.031  2.1430  0.9065  1.8628
21276SOL     OW75886   4.225   3.497   5.810 -0.3611  0.4679  0.3208
21276SOL    HW175887   4.243   3.569   5.877 -0.7869  0.2520  0.6672
21276SOL    HW275888   4.235   3.408   5.853  2.3465  0.2592 -0.6544
21277SOL     OW75889   4.429   0.715   7.137  0.0756  0.1940  0.3251
21277SOL    HW175890   4.476   0.768   7.208 -0.5439  1.6413 -0.3217
21277SOL    HW275891   4.340   0.755   7.119  0.1067 -0.3219 -1.0838
21278SOL     OW75892   7.710   6.641   3.071  0.0244 -0.3458  0.2354
21278SOL    HW175893   7.743   6.547   3.077 -0.2280 -0.3553  1.8167
21278SOL    HW275894   7.771   6.701   3.123  0.1277  0.3488 -0.6833
21279SOL     OW75895   2.465   1.410   7.212  0.0474  0.0861 -0.4671
21279SOL    HW175896   2.368   1.400   7.233  0.4134 -1.6510  0.5623
21279SOL    HW275897   2.511   1.322   7.226  1.8615  1.0057 -0.4261
21280SOL     OW75898   8.758   3.216   0.027 -0.2421 -0.2866  0.2750
21280SOL    HW175899   8.690   3.159  -0.021 -1.3987 -0.1761  1.7249
21280SOL    HW275900   8.723   3.238   0.118  1.3618  0.5649  0.6894
21281SOL     OW75901   0.047   0.162   3.906 -0.2415 -0.0741 -0.2662
21281SOL    HW175902   0.033   0.261   3.901 -0.4900  0.0135  1.7011
21281SOL    HW275903   0.079   0.138   3.998  0.0566 -1.7860 -0.8138
21282SOL     OW75904   2.675   0.977   4.490  0.3115 -0.4453  0.3180
21282SOL    HW175905   2.610   1.030   4.436 -0.5684  1.4404  3.0883
21282SOL    HW275906   2.691   0.888   4.447 -1.1290  0.5764 -2.4120
21283SOL     OW75907   1.800   1.369   5.866  0.1756 -0.4314 -0.0082
21283SOL    HW175908   1.900   1.376   5.867  0.2320 -1.2118  1.3504
21283SOL    HW275909   1.766   1.364   5.959 -1.4324  3.3515 -0.3003
21284SOL     OW75910   3.203   6.577   0.382  0.3213 -0.0916 -0.4466
21284SOL    HW175911   3.192   6.625   0.469 -0.5657  3.1633 -2.3046
21284SOL    HW275912   3.300   6.566   0.362  0.5226  0.5642  0.1714
21285SOL     OW75913   3.427   8.148   4.312  0.2633 -0.4273 -0.1432
21285SOL    HW175914   3.518   8.187   4.326  0.3107 -0.8550  0.7769
21285SOL    HW275915   3.420   8.061   4.361 -0.7755 -0.1945  0.1377
21286SOL     OW75916   1.986   3.873   9.519  0.0955  0.1309 -0.5902
21286SOL    HW175917   2.032   3.960   9.508  1.5500 -0.0534  3.1615
21286SOL    HW275918   1.893   3.888   9.554  0.6876  0.1952  1.0101
21287SOL     OW75919   2.000   4.960   8.057  0.6956  0.0471  0.4681
21287SOL    HW175920   2.069   5.005   8.000  0.6415 -0.7919 -0.2642
21287SOL    HW275921   2.034   4.869   8.084  1.1182  0.7930  2.5339
21288SOL     OW75922   1.970   2.546   6.082 -0.2041 -0.2809  0.2192
21288SOL    HW175923   1.963   2.450   6.054  1.7566 -0.1514 -0.8031
21288SOL    HW275924   2.031   2.553   6.161 -2.0992 -0.1020  1.7048
21289SOL     OW75925   9.828   4.942   9.258 -0.2809  0.5738 -0.5170
21289SOL    HW175926   9.904   4.949   9.323 -1.2119 -2.2055  0.9290
21289SOL    HW275927   9.862   4.903   9.172  0.2139  0.7416 -0.4012
21290SOL     OW75928   1.218   7.564   6.009  0.0667 -0.4919  0.1154
21290SOL    HW175929   1.282   7.540   6.082  0.3173  0.9522  0.3847
21290SOL    HW275930   1.208   7.663   6.004 -1.4918 -0.6523 -0.4998
21291SOL     OW75931   8.853   8.135   5.720  0.3646 -0.2740 -0.5978
21291SOL    HW175932   8.756   8.126   5.741  0.3055  3.7251  1.2159
21291SOL    HW275933   8.906   8.082   5.786 -0.4931 -0.1762  0.1865
21292SOL     OW75934   6.679   3.924   8.146 -0.1128  0.0280 -0.3093
21292SOL    HW175935   6.693   3.973   8.233  1.3288  0.0036 -0.5221
21292SOL    HW275936   6.608   3.854   8.158 -0.0055  0.1066  0.8166
21293SOL     OW75937   8.195   3.589   7.124  0.1946  0.2225 -0.2484
21293SOL    HW175938   8.225   3.616   7.215  0.4286 -0.7864 -0.0150
21293SOL    HW275939   8.256   3.518   7.089  0.0622  0.5511 -1.1644
21294SOL     OW75940   2.695   8.282   8.496  0.3295 -0.2607  0.4541
21294SOL    HW175941   2.625   8.250   8.432  1.7948 -0.7020 -0.9730
21294SOL    HW275942   2.731   8.370   8.465  2.4889 -1.4310 -0.5375
21295SOL     OW75943   2.484   0.009   6.307  0.2131  0.2298  0.4371
21295SOL    HW175944   2.541  -0.073   6.306  0.4709  0.3806  1.7172
21295SOL    HW275945   2.473   0.043   6.214 -0.8258 -1.8803 -0.2255
21296SOL     OW75946   3.144   0.693   5.149  0.2015 -0.4046  0.1153
21296SOL    HW175947   3.067   0.672   5.088 -0.2768  1.5747  0.0021
21296SOL    HW275948   3.214   0.622   5.139 -1.2701 -1.8416 -0.3314
21297SOL     OW75949   9.629   1.087   0.147 -0.0158 -0.7208 -0.0361
21297SOL    HW175950   9.554   1.026   0.172 -0.1730 -0.2250  0.7243
21297SOL    HW275951   9.710   1.064   0.200 -0.5901  0.8699  1.5640
21298SOL     OW75952   0.843   6.090   8.030  0.9211  0.1270 -0.5151
21298SOL    HW175953   0.900   6.013   8.003 -0.8378 -1.1987 -0.5417
21298SOL    HW275954   0.839   6.156   7.955 -0.1397 -1.2950 -1.7462
21299SOL     OW75955   6.782   5.489   6.973  0.4065  0.3211  0.3611
21299SOL    HW175956   6.798   5.410   7.032 -0.1589  0.0264  0.1265
21299SOL    HW275957   6.846   5.562   6.997  1.9327 -0.7394 -0.4215
21300SOL     OW75958   0.560   3.961   5.127 -0.0218  0.0293 -0.4142
21300SOL    HW175959   0.623   3.971   5.049  0.7230 -0.5568  0.0958
21300SOL    HW275960   0.587   3.881   5.180  0.3750  1.2602  1.2823
21301SOL     OW75961   1.173   4.884   4.765  0.4448  0.0096 -0.5158
21301SOL    HW175962   1.079   4.868   4.793 -0.2033  0.3157 -2.4019
21301SOL    HW275963   1.197   4.980   4.780  0.2095  0.0989 -0.7077
21302SOL     OW75964   1.894   6.363   1.140  0.2669  0.4659 -0.9663
21302SOL    HW175965   1.907   6.294   1.212 -2.2109  0.7311 -0.1943
21302SOL    HW275966   1.960   6.348   1.067  2.7860  0.1313  1.3022
21303SOL     OW75967   9.901   0.995   9.033  0.0206 -0.4754 -0.2040
21303SOL    HW175968   9.855   0.958   8.952 -0.1398 -0.8764  0.0671
21303SOL    HW275969   9.902   0.926   9.105  1.8692 -0.8094 -0.5091
21304SOL     OW75970   0.932   6.520   2.401  0.0542  1.1199 -0.1356
21304SOL    HW175971   0.968   6.512   2.308  0.6891  1.5775  0.0718
21304SOL    HW275972   0.975   6.597   2.447 -0.0462  0.7183  0.6357
21305SOL     OW75973   1.874   5.300   6.935 -0.6955 -0.8122 -0.5603
21305SOL    HW175974   1.781   5.277   6.963  0.2968 -3.2758  0.9280
21305SOL    HW275975   1.875   5.329   6.840 -2.8892 -1.3701 -0.7704
21306SOL     OW75976   6.172   7.544   5.429  0.0389  0.4695 -0.7290
21306SOL    HW175977   6.247   7.523   5.492  0.5373  2.6423 -0.5401
21306SOL    HW275978   6.157   7.643   5.429 -2.7956  0.0579 -0.8247
21307SOL     OW75979   4.529   1.316   6.571 -0.0371 -0.3020  0.1368
21307SOL    HW175980   4.486   1.404   6.590 -0.7511 -1.0669  2.1704
21307SOL    HW275981   4.468   1.260   6.514  0.4275  0.5018 -1.1730
21308SOL     OW75982   0.435   4.834   0.453  0.1536 -0.1083 -0.1644
21308SOL    HW175983   0.336   4.818   0.445 -0.0981  1.0187  0.6128
21308SOL    HW275984   0.482   4.783   0.381 -1.1230  0.5783 -1.5269
21309SOL     OW75985   9.109   2.682   2.903 -0.0151  0.3394 -0.1618
21309SOL    HW175986   9.013   2.703   2.884 -0.1677 -0.2215 -0.0121
21309SOL    HW275987   9.167   2.746   2.852 -0.4603  0.5144 -0.4563
21310SOL     OW75988   7.499   9.588   7.938  0.2286 -1.2104  0.3139
21310SOL    HW175989   7.534   9.675   7.905 -1.5027 -0.0132  1.4985
21310SOL    HW275990   7.575   9.528   7.962  1.4651  0.4303  0.6318
21311SOL     OW75991   1.241   9.068   4.749 -0.7338 -0.0381  0.3790
21311SOL    HW175992   1.213   9.163   4.765 -2.1607 -0.5729  1.1134
21311SOL    HW275993   1.254   9.054   4.651 -1.8662  0.5641  0.1322
21312SOL     OW75994   7.976   0.867   9.916  0.2766 -0.2189  0.0322
21312SOL    HW175995   8.025   0.840   9.999 -0.7747  0.6664  0.9522
21312SOL    HW275996   7.998   0.803   9.843  3.8311  0.8989  0.0227
21313SOL     OW75997   0.414   4.030   4.186  0.5187  0.1728 -0.0391
21313SOL    HW175998   0.452   4.105   4.239  0.0853 -0.4646  1.1838
21313SOL    HW275999   0.438   3.943   4.228 -0.3188 -0.3182 -0.5605
21314SOL     OW76000   2.787   8.730   9.273 -0.4172 -0.3408 -0.0585
21314SOL    HW176001   2.879   8.754   9.243 -1.1172  1.2083 -1.0168
21314SOL    HW276002   2.735   8.813   9.294 -1.7302 -1.1696  0.0568
21315SOL     OW76003   8.868   1.692   8.921 -0.2340 -0.3063 -0.4290
21315SOL    HW176004   8.855   1.791   8.927  1.8346 -0.0992  1.1112
21315SOL    HW276005   8.940   1.672   8.855 -0.3532 -0.7680 -0.4225
21316SOL     OW76006   4.804   8.743   2.603  0.3717  0.7166  0.0098
21316SOL    HW176007   4.772   8.776   2.692 -2.9662 -1.7510 -0.1613
21316SOL    HW276008   4.807   8.643   2.604  2.2716  0.7214 -2.0257
21317SOL     OW76009   9.177   9.410   5.197 -0.1384 -0.2875  0.0997
21317SOL    HW176010   9.252   9.461   5.156 -0.0337  0.1815  0.8514
21317SOL    HW276011   9.179   9.315   5.166  0.6338 -0.2203 -0.0544
21318SOL     OW76012   2.135   0.146   8.349 -0.4260 -0.1023 -0.5532
21318SOL    HW176013   2.066   0.179   8.412  0.1419  0.6292 -0.3129
21318SOL    HW276014   2.191   0.222   8.316 -0.7183 -0.4669 -1.9438
21319SOL     OW76015   1.450   9.018   9.477  0.0931 -1.0990  0.4147
21319SOL    HW176016   1.383   8.952   9.444  0.0720 -1.2223  0.7008
21319SOL    HW276017   1.402   9.090   9.529  0.5158 -3.1199  3.7583
21320SOL     OW76018   2.323   1.704   8.476 -0.0396  0.2527  0.3790
21320SOL    HW176019   2.318   1.781   8.540 -0.7386 -0.3202  1.0227
21320SOL    HW276020   2.360   1.624   8.523 -1.0431 -0.3173  0.2138
21321SOL     OW76021   0.192   3.293   8.308  0.0098 -0.2846 -0.5803
21321SOL    HW176022   0.159   3.387   8.312  0.7796  0.0105 -1.0361
21321SOL    HW276023   0.286   3.292   8.272  1.0220 -0.9659  1.9860
21322SOL     OW76024   9.137   3.660   2.209  0.0316 -0.2181 -1.2171
21322SOL    HW176025   9.228   3.620   2.210 -0.7732 -2.0612 -0.2874
21322SOL    HW276026   9.144   3.759   2.222  1.8229 -0.4735 -0.0753
21323SOL     OW76027   4.428   9.325   5.686  0.4492 -0.1604  0.0403
21323SOL    HW176028   4.381   9.237   5.695  1.7155 -0.9241 -0.6247
21323SOL    HW276029   4.503   9.316   5.620  0.0749  1.6383 -0.6746
21324SOL     OW76030   2.737   4.207   7.758  0.1726  0.2430 -0.6903
21324SOL    HW176031   2.795   4.154   7.696 -0.1864 -0.8677 -0.0746
21324SOL    HW276032   2.665   4.253   7.705  0.4781  0.1138 -1.2172
21325SOL     OW76033   3.807   5.657   9.523  0.3448 -0.7049  0.4370
21325SOL    HW176034   3.898   5.681   9.555  0.0365  0.7096  0.3034
21325SOL    HW276035   3.755   5.616   9.598  0.4139  0.3880  1.1012
21326SOL     OW76036   6.368   6.310   1.617 -0.1341  0.0481  0.5981
21326SOL    HW176037   6.376   6.402   1.578 -1.8996  0.4158  1.0458
21326SOL    HW276038   6.311   6.253   1.557  1.2063 -0.8662  0.1638
21327SOL     OW76039   2.486   7.827   9.714 -0.3150 -0.2640  0.0767
21327SOL    HW176040   2.441   7.854   9.800 -0.2151 -2.5521  0.8701
21327SOL    HW276041   2.482   7.904   9.650 -2.7456  0.6105  1.1807
21328SOL     OW76042   5.098   9.875   9.141 -0.4055 -0.1373  0.1986
21328SOL    HW176043   5.108   9.957   9.198 -0.0232 -0.2393  0.2848
21328SOL    HW276044   5.001   9.858   9.123 -0.4441  0.9726 -0.7314
21329SOL     OW76045   0.068   2.792   1.795 -0.0113 -0.1421  0.3085
21329SOL    HW176046  -0.019   2.810   1.840 -0.3619 -1.2903  0.1095
21329SOL    HW276047   0.052   2.767   1.699  0.6094  0.6280 -0.0094
21330SOL     OW76048   8.598   6.650   3.665 -0.1686 -0.1114 -0.2872
21330SOL    HW176049   8.667   6.654   3.592 -0.3615 -2.0876 -0.6212
21330SOL    HW276050   8.616   6.570   3.723 -0.3842  1.1049  1.4784
21331SOL     OW76051   6.879   0.034   3.446 -0.3368  0.4934  0.1828
21331SOL    HW176052   6.896  -0.065   3.444 -1.0624  0.2976  2.3304
21331SOL    HW276053   6.793   0.054   3.400 -1.2082 -0.1358  1.4993
21332SOL     OW76054   3.041   1.794   2.972  0.0119  0.1391 -0.3495
21332SOL    HW176055   3.053   1.892   2.958  1.4041  0.1357  0.7079
21332SOL    HW276056   3.012   1.751   2.887 -0.4378  1.4312 -0.8594
21333SOL     OW76057   3.819   8.211   1.775 -0.4405  0.3556  0.1892
21333SOL    HW176058   3.773   8.148   1.838 -0.1673  1.0255  1.0740
21333SOL    HW276059   3.878   8.160   1.713  1.4418 -0.0896  2.2929
21334SOL     OW76060   4.190   5.301   9.938 -0.1768  0.2107  0.1319
21334SOL    HW176061   4.160   5.225   9.995 -0.0539  1.1935  1.5326
21334SOL    HW276062   4.113   5.365   9.925 -0.3022 -0.1749 -1.0890
21335SOL     OW76063   9.765   7.746   9.316 -0.2161 -0.8256 -0.0117
21335SOL    HW176064   9.695   7.707   9.375 -0.4599  0.3196  0.4681
21335SOL    HW276065   9.843   7.775   9.372 -0.3110 -0.0411 -0.2701
21336SOL     OW76066   4.527   3.214   2.351  0.0334  0.3926 -0.5966
21336SOL    HW176067   4.446   3.158   2.333  0.2591  0.0643 -0.6073
21336SOL    HW276068   4.609   3.163   2.326  0.2046  1.0253 -1.3360
21337SOL     OW76069   1.027   8.748   7.794 -0.3954  0.0285 -0.3329
21337SOL    HW176070   1.065   8.656   7.804 -1.5994 -0.3015  1.3445
21337SOL    HW276071   1.073   8.810   7.858 -0.5936  0.2734 -0.4265
21338SOL     OW76072   8.334   7.716   5.229 -0.5972  0.0999 -0.0834
21338SOL    HW176073   8.273   7.712   5.149  1.5720 -0.8072 -1.7421
21338SOL    HW276074   8.329   7.807   5.270 -2.1698  0.4066 -0.9019
21339SOL     OW76075   5.397   1.954   9.182  0.3550  0.1755 -0.1851
21339SOL    HW176076   5.331   1.992   9.116  1.4000  0.3748 -1.1457
21339SOL    HW276077   5.371   1.981   9.274 -1.3609 -0.4295 -0.4802
21340SOL     OW76078   2.915   4.855   2.408  0.1535  0.4454  0.2071
21340SOL    HW176079   2.842   4.907   2.364  0.6655  1.4811  0.5710
21340SOL    HW276080   2.980   4.824   2.339  0.5539  1.4239  0.1450
21341SOL     OW76081   1.832   2.411   3.002  0.3355 -0.6401 -0.0635
21341SOL    HW176082   1.831   2.453   2.911 -2.4955  0.0883  0.2568
21341SOL    HW276083   1.890   2.465   3.063 -0.7403  1.0403 -0.4824
21342SOL     OW76084   8.425   3.127   3.750  0.0698  0.1191  0.0279
21342SOL    HW176085   8.439   3.043   3.698  1.4413 -1.2387  2.5103
21342SOL    HW276086   8.354   3.112   3.818  0.3909  0.9624  0.5486
21343SOL     OW76087   9.436   5.396   1.695 -0.2820 -0.2175  0.3550
21343SOL    HW176088   9.429   5.302   1.730 -1.1944 -0.8105 -1.3731
21343SOL    HW276089   9.409   5.398   1.599  0.0705  1.7729  0.2775
21344SOL     OW76090   9.492   0.375   0.516 -0.5252  0.8657 -0.1339
21344SOL    HW176091   9.502   0.312   0.439  0.1712  1.2649 -0.3653
21344SOL    HW276092   9.509   0.468   0.486  0.0192  0.9956  0.5712
21345SOL     OW76093   0.866   9.868   4.293  0.5747  0.4442 -0.2654
21345SOL    HW176094   0.883   9.776   4.329  2.0560  0.7375 -0.1711
21345SOL    HW276095   0.841   9.862   4.197  1.1492 -0.0303 -0.3885
21346SOL     OW76096   8.324   3.423   6.733 -0.0423  0.4996 -0.1281
21346SOL    HW176097   8.403   3.363   6.719 -2.0265 -2.7034  1.8347
21346SOL    HW276098   8.253   3.399   6.668 -0.1649  2.0516 -0.5805
21347SOL     OW76099   0.891   9.273   2.500 -0.9676 -0.2552  0.1389
21347SOL    HW176100   0.861   9.363   2.532 -1.4028  0.0567 -1.0764
21347SOL    HW276101   0.948   9.284   2.418 -2.6161 -1.1444 -1.1827
21348SOL     OW76102   3.037   3.762   8.292  0.6968 -0.0791 -0.2414
21348SOL    HW176103   2.977   3.682   8.288  1.2040 -0.4339 -0.8835
21348SOL    HW276104   3.028   3.814   8.207  1.0194  0.0738 -0.1803
21349SOL     OW76105   7.735   6.146   2.760 -0.8422  0.4527 -0.2556
21349SOL    HW176106   7.692   6.113   2.676 -0.9373 -0.1627  0.0383
21349SOL    HW276107   7.798   6.077   2.795 -1.9838  0.0632  1.0592
21350SOL     OW76108   2.126   3.332   2.182 -0.2155  0.1295  0.3884
21350SOL    HW176109   2.212   3.343   2.132 -0.4851 -1.0495 -0.3466
21350SOL    HW276110   2.064   3.406   2.158 -0.8216 -1.1028 -2.0388
21351SOL     OW76111   1.702   7.092   3.485 -0.4255 -0.2386  0.1270
21351SOL    HW176112   1.690   6.993   3.475  1.6394 -0.6786  1.4900
21351SOL    HW276113   1.797   7.116   3.463 -0.0558  0.9583  2.8187
21352SOL     OW76114   2.047   3.366   4.809 -0.1993 -0.0897  0.6700
21352SOL    HW176115   2.059   3.415   4.722 -3.6990 -0.3335 -0.0125
21352SOL    HW276116   2.017   3.429   4.880  0.2346 -0.3523  1.0952
21353SOL     OW76117   2.022   1.821   0.832  0.1635 -0.5509  0.0448
21353SOL    HW176118   2.049   1.902   0.781  0.4650  0.3287  1.5726
21353SOL    HW276119   1.935   1.839   0.879 -0.4662 -1.5852 -0.6967
21354SOL     OW76120   4.966   1.994   6.540 -0.2736  0.2294 -0.1241
21354SOL    HW176121   4.961   2.050   6.456  0.6471 -0.4719 -0.6523
21354SOL    HW276122   5.046   1.935   6.536 -0.4373 -0.0842  1.0972
21355SOL     OW76123   6.291   0.345   2.365  0.0298  0.1869  0.0592
21355SOL    HW176124   6.386   0.330   2.337  1.2448  1.8463  3.0449
21355SOL    HW276125   6.258   0.265   2.416 -0.1844 -0.4018 -1.0018
21356SOL     OW76126   9.799   4.971   4.712 -0.3577 -0.0899 -0.0184
21356SOL    HW176127   9.782   5.051   4.769 -0.6905 -0.7092  0.7654
21356SOL    HW276128   9.782   4.888   4.765  1.4732 -0.7024 -0.3456
21357SOL     OW76129   0.634   3.937   3.766  0.0704  0.5934  0.2831
21357SOL    HW176130   0.587   3.982   3.842  0.2666 -0.2097  0.8857
21357SOL    HW276131   0.694   4.003   3.721 -0.7696  1.3242  0.2162
21358SOL     OW76132   1.434   8.319   2.263  0.4350  0.5381 -0.2774
21358SOL    HW176133   1.344   8.279   2.285  0.8064  0.4557  1.1607
21358SOL    HW276134   1.497   8.247   2.236 -0.3866  0.7824 -2.9561
21359SOL     OW76135   7.773   1.186   0.407  0.3221 -0.9127  0.1605
21359SOL    HW176136   7.831   1.261   0.438  2.6986 -3.1270  1.3223
21359SOL    HW276137   7.723   1.149   0.485  1.0891 -2.1043  0.1095
21360SOL     OW76138   1.556   1.757   9.502  0.0547 -0.2498 -0.3605
21360SOL    HW176139   1.530   1.834   9.444 -1.2257  0.4094  1.0822
21360SOL    HW276140   1.590   1.682   9.444 -1.0713  0.4409 -1.9504
21361SOL     OW76141   6.607   5.760   7.291 -0.8967 -0.6914  0.0506
21361SOL    HW176142   6.627   5.839   7.350 -0.1709 -1.8727  1.4329
21361SOL    HW276143   6.683   5.747   7.227 -0.9484 -0.3607 -0.0787
21362SOL     OW76144   0.983   3.253   6.221  0.0634  0.0629  0.2117
21362SOL    HW176145   1.064   3.312   6.231  0.9048 -0.9886 -0.3146
21362SOL    HW276146   1.000   3.166   6.266 -0.4173 -0.5193 -0.7286
21363SOL     OW76147   8.865   4.565   4.507 -0.5910 -0.5623 -0.2286
21363SOL    HW176148   8.921   4.529   4.432 -0.2443  1.7560 -1.1359
21363SOL    HW276149   8.771   4.533   4.497  0.1073 -2.8150  0.1395
21364SOL     OW76150   8.820   4.083   2.564 -0.2831  0.6132 -0.6004
21364SOL    HW176151   8.820   4.059   2.661 -1.6020  0.6850 -0.5813
21364SOL    HW276152   8.915   4.089   2.532  0.1492 -1.9174  0.0632
21365SOL     OW76153   5.233   7.925   8.579  0.1136 -0.4226  0.0266
21365SOL    HW176154   5.151   7.876   8.609 -0.4512  0.6345  0.2124
21365SOL    HW276155   5.208   7.993   8.510  0.7119  0.4781  0.6949
21366SOL     OW76156   9.083   0.189   2.356 -0.2516  0.3392 -0.4789
21366SOL    HW176157   9.089   0.283   2.323  0.2723  1.2388  2.0184
21366SOL    HW276158   9.165   0.139   2.329  0.5023  1.2579  0.0715
21367SOL     OW76159   7.875   1.614   4.414 -0.4698 -0.1665 -0.0522
21367SOL    HW176160   7.819   1.531   4.417 -0.7133  0.0072  0.1871
21367SOL    HW276161   7.869   1.654   4.322  0.6360 -1.0894 -0.5435
21368SOL     OW76162   4.587   8.747   8.935 -0.3990 -0.4624  0.0768
21368SOL    HW176163   4.626   8.742   9.027  0.3208  1.9921 -0.0720
21368SOL    HW276164   4.489   8.729   8.940 -0.4964  0.3787  1.4194
21369SOL     OW76165   5.189   3.030   1.283  0.2887  0.4293 -0.0241
21369SOL    HW176166   5.257   2.979   1.335  0.0379  0.5980  0.4802
21369SOL    HW276167   5.121   2.967   1.244  0.5086  0.2978 -0.1929
21370SOL     OW76168   9.101   6.636   4.937 -0.1004  0.3834 -0.8664
21370SOL    HW176169   9.075   6.688   5.019 -0.4879  0.1184 -0.8190
21370SOL    HW276170   9.158   6.693   4.878 -0.4034  0.8179 -0.7452
21371SOL     OW76171   2.674   3.546   5.637  0.4027 -0.3807  0.1475
21371SOL    HW176172   2.724   3.617   5.684 -0.8520  0.2834  0.5122
21371SOL    HW276173   2.581   3.541   5.673 -0.9331  0.8493 -2.9207
21372SOL     OW76174   1.766   1.191   2.854  0.6687  0.3807 -0.1434
21372SOL    HW176175   1.699   1.176   2.927 -0.7229 -1.0822 -1.6688
21372SOL    HW276176   1.747   1.279   2.809 -1.3493 -0.7875 -1.6693
21373SOL     OW76177   8.185   3.753   7.676  0.3449 -0.4638 -0.2934
21373SOL    HW176178   8.180   3.779   7.772  1.7913 -1.3257  0.0414
21373SOL    HW276179   8.209   3.833   7.621  0.1947 -0.1100  0.1573
21374SOL     OW76180   6.960   9.333   4.666  0.1959 -1.0429  0.0050
21374SOL    HW176181   6.940   9.367   4.758  1.0150 -0.5400 -0.0063
21374SOL    HW276182   7.003   9.243   4.672  2.2282 -0.0815  0.2033
21375SOL     OW76183   0.071   2.627   2.619  0.3270  0.0843 -0.1226
21375SOL    HW176184   0.001   2.698   2.627  1.1363  0.5910  3.3121
21375SOL    HW276185   0.162   2.668   2.630  0.8597 -1.2992  0.8843
21376SOL     OW76186   8.881   7.583   3.703 -0.4268  0.3328 -0.0925
21376SOL    HW176187   8.806   7.649   3.708 -0.5479  0.1441  0.6310
21376SOL    HW276188   8.853   7.498   3.747  0.3710  0.4167  0.5880
21377SOL     OW76189   5.989   0.410   4.904  0.3408 -0.2689 -0.1029
21377SOL    HW176190   6.063   0.342   4.906  1.1952  0.5850 -1.5250
21377SOL    HW276191   5.917   0.379   4.842  1.6527  0.9893 -2.3493
21378SOL     OW76192   7.130   2.448   0.410  0.4532 -0.3170 -0.2188
21378SOL    HW176193   7.165   2.490   0.494  1.7609 -0.7336 -0.5450
21378SOL    HW276194   7.128   2.349   0.421 -1.0087 -0.2887 -0.0733
21379SOL     OW76195   3.454   0.450   0.233 -0.2650 -0.2558 -0.0728
21379SOL    HW176196   3.539   0.406   0.204 -0.4872 -0.6918 -0.0632
21379SOL    HW276197   3.473   0.510   0.311  0.7730  2.6796 -2.4472
21380SOL     OW76198   3.055   0.185   8.118 -0.4396  0.3061  0.1666
21380SOL    HW176199   3.133   0.161   8.060 -0.8281  0.4015 -0.4033
21380SOL    HW276200   3.040   0.284   8.114 -0.8487  0.2337 -0.0501
21381SOL     OW76201   5.314   8.467   6.693 -0.1104  0.2303  0.3525
21381SOL    HW176202   5.264   8.390   6.652  1.2457 -0.7817  0.5618
21381SOL    HW276203   5.404   8.436   6.723 -0.9904  0.9425  4.0018
21382SOL     OW76204   6.283   6.106   7.700 -0.2557 -0.4490  0.2639
21382SOL    HW176205   6.203   6.147   7.744 -0.7266 -1.7707  0.6390
21382SOL    HW276206   6.271   6.007   7.693  1.4440 -0.6876  0.5391
21383SOL     OW76207   3.145   7.681   0.139 -0.2773 -0.4040  0.4857
21383SOL    HW176208   3.083   7.607   0.114 -0.8081  0.4820 -0.8566
21383SOL    HW276209   3.094   7.756   0.181 -0.2254  0.5548 -1.1098
21384SOL     OW76210   9.150   2.741   0.171 -0.3217  0.4414 -0.8510
21384SOL    HW176211   9.165   2.712   0.077  0.5386  0.6861 -0.7920
21384SOL    HW276212   9.203   2.824   0.189 -0.2245  0.2141 -0.0584
21385SOL     OW76213   5.904   9.024   7.872  0.0344  0.3005 -0.0488
21385SOL    HW176214   5.938   9.092   7.807 -1.6512  1.9804  0.8100
21385SOL    HW276215   5.879   8.941   7.822  1.7916  0.3923 -1.1364
21386SOL     OW76216   0.050   8.531   8.450  0.3424 -0.1834  0.0898
21386SOL    HW176217   0.066   8.530   8.549 -2.2230  0.3285  0.5272
21386SOL    HW276218   0.065   8.623   8.415  2.7381 -0.6747 -0.2945
21387SOL     OW76219   2.032   6.557   4.974  0.6662 -0.0999  0.6230
21387SOL    HW176220   1.938   6.583   4.953  0.7782  0.7016  1.0736
21387SOL    HW276221   2.038   6.459   4.991 -0.2079 -0.0396  1.2786
21388SOL     OW76222   0.092   2.870   4.125  0.5013  0.3328  0.0327
21388SOL    HW176223   0.010   2.910   4.084 -0.7236 -1.0108  1.0697
21388SOL    HW276224   0.073   2.775   4.149  2.0178  0.3283  1.2762
21389SOL     OW76225   3.344   6.797   7.079 -0.7516  0.2918 -0.2712
21389SOL    HW176226   3.258   6.846   7.098 -0.5279  0.7626 -0.4507
21389SOL    HW276227   3.420   6.861   7.086 -0.1904 -0.5907  2.0204
21390SOL     OW76228   9.792   4.204   5.918  0.6175  0.7166 -0.7020
21390SOL    HW176229   9.706   4.200   5.968  2.1519  0.5222  2.0490
21390SOL    HW276230   9.820   4.300   5.907  1.0895  0.7057  0.3198
21391SOL     OW76231   2.625   1.062   2.968  0.0597  0.2290  0.1317
21391SOL    HW176232   2.555   0.993   2.949 -0.2093  0.5154  0.0862
21391SOL    HW276233   2.621   1.134   2.899  0.1981  0.4016  0.3024
21392SOL     OW76234   3.710   6.713   3.852 -0.2330 -0.4106 -1.1770
21392SOL    HW176235   3.662   6.775   3.791 -1.3055 -0.4797 -0.4014
21392SOL    HW276236   3.650   6.638   3.879  0.0058 -0.0127  0.5234
21393SOL     OW76237   3.384   5.165   4.087  0.1076 -0.2025 -0.2022
21393SOL    HW176238   3.310   5.219   4.046 -0.0873 -0.2861  0.0376
21393SOL    HW276239   3.379   5.171   4.187 -2.1758 -3.6004 -0.0368
21394SOL     OW76240   3.572   2.364   3.938 -0.3630 -0.0527 -0.3657
21394SOL    HW176241   3.551   2.439   3.874 -0.8825 -0.9858 -1.3077
21394SOL    HW276242   3.523   2.380   4.024 -0.2681  0.8248 -0.4669
21395SOL     OW76243   8.154   9.969   5.242  0.5573 -0.3998 -0.1933
21395SOL    HW176244   8.096   9.967   5.161 -0.0481  0.4988  0.2121
21395SOL    HW276245   8.160   9.878   5.282 -0.4507 -0.5212 -0.3215
21396SOL     OW76246   9.472   6.866   5.436  0.6403 -0.3206 -0.1239
21396SOL    HW176247   9.381   6.825   5.431  0.9857 -1.0904 -0.1275
21396SOL    HW276248   9.512   6.847   5.525  0.8666 -0.1262 -0.1855
21397SOL     OW76249   0.188   9.100   2.377 -0.4703 -0.3881 -0.3421
21397SOL    HW176250   0.212   9.138   2.287  1.3228  0.3357  0.4076
21397SOL    HW276251   0.272   9.082   2.428 -1.4838 -0.6368  1.2574
21398SOL     OW76252   8.927   8.865   1.221  0.4087 -0.5521  0.3276
21398SOL    HW176253   8.938   8.856   1.122  0.0860 -1.1132  0.3432
21398SOL    HW276254   9.014   8.894   1.262  0.2966  0.5748 -0.2234
21399SOL     OW76255   8.199   4.634   0.581  0.2975  0.1620  0.4230
21399SOL    HW176256   8.132   4.700   0.544  2.2588  2.1107  0.2327
21399SOL    HW276257   8.155   4.545   0.591 -2.2338  1.2920 -0.0419
21400SOL     OW76258   2.758   1.824   6.985  0.4879  0.7774 -0.3280
21400SOL    HW176259   2.686   1.866   6.930  0.1502  1.1447  0.3922
21400SOL    HW276260   2.762   1.868   7.074  0.2785 -0.5726  0.3646
21401SOL     OW76261   2.346   2.868   0.327  0.0354  0.5380  0.3301
21401SOL    HW176262   2.307   2.778   0.313  0.9872 -0.0074  1.1151
21401SOL    HW276263   2.275   2.930   0.363 -0.5501  0.0489  0.0242
21402SOL     OW76264   5.272   1.585   6.031 -0.5861 -0.2814 -0.0773
21402SOL    HW176265   5.322   1.595   5.946  0.9107 -0.6773  0.7469
21402SOL    HW276266   5.227   1.672   6.054  2.1768  0.9959  0.6969
21403SOL     OW76267   3.868   4.802   2.855 -0.4924  0.0092 -0.5636
21403SOL    HW176268   3.786   4.813   2.912 -0.1071  3.1497 -0.5428
21403SOL    HW276269   3.947   4.838   2.904  0.2359  0.6246 -2.1596
21404SOL     OW76270   5.052   7.119   2.301  0.0122 -0.4623  0.0012
21404SOL    HW176271   4.985   7.084   2.366  0.6675 -1.9090 -0.0711
21404SOL    HW276272   5.012   7.195   2.250 -0.4904  0.6925  2.0811
21405SOL     OW76273   8.392   6.030   1.691 -0.8654  0.2190  0.1459
21405SOL    HW176274   8.442   6.053   1.607 -0.0885  0.5504  0.7020
21405SOL    HW276275   8.380   5.930   1.696 -1.5698  0.2440 -0.7238
21406SOL     OW76276   4.924   9.977   3.248 -0.1488 -0.6695  0.5769
21406SOL    HW176277   4.893  10.069   3.270  1.0548 -0.5562  1.8643
21406SOL    HW276278   4.920   9.920   3.330 -1.0657 -1.8149 -0.2525
21407SOL     OW76279   1.050   0.264   2.337 -0.5577  0.3026 -0.1408
21407SOL    HW176280   1.051   0.165   2.318  0.1549  0.3945 -0.6012
21407SOL    HW276281   1.036   0.314   2.252  3.8953  0.7634 -0.7342
21408SOL     OW76282   5.577   9.597   7.087  0.3839  0.6112 -0.6295
21408SOL    HW176283   5.543   9.655   7.162 -0.5898  0.1872 -0.7404
21408SOL    HW276284   5.677   9.601   7.086  0.5229 -0.7688  1.8364
21409SOL     OW76285   8.075   1.469   3.503  0.2052 -0.2015 -0.5245
21409SOL    HW176286   8.004   1.427   3.446  0.7320 -0.8347 -0.7192
21409SOL    HW276287   8.140   1.399   3.532 -0.0361  0.1182  0.8367
21410SOL     OW76288   9.677   0.984   7.041 -0.1911  0.2859 -0.2300
21410SOL    HW176289   9.768   1.013   7.070 -1.2735  2.5930  0.9386
21410SOL    HW276290   9.672   0.986   6.941  1.2468 -0.6179 -0.3511
21411SOL     OW76291   2.609   2.490   0.555 -0.7000 -0.3567 -0.1978
21411SOL    HW176292   2.516   2.492   0.589 -1.0233 -1.1471 -0.9989
21411SOL    HW276293   2.673   2.489   0.632 -1.3778 -0.8638  0.3690
21412SOL     OW76294   9.101   8.251   6.175 -0.1436 -0.0355 -0.2055
21412SOL    HW176295   9.163   8.221   6.102  1.0055  0.0828  0.7002
21412SOL    HW276296   9.111   8.189   6.253  0.9485  1.6311  1.0210
21413SOL     OW76297   1.576   8.839   9.070 -0.4091 -0.0586 -0.3921
21413SOL    HW176298   1.634   8.901   9.123  0.8635 -1.9474  0.4421
21413SOL    HW276299   1.515   8.790   9.132 -0.2008 -0.9243 -0.8708
21414SOL     OW76300   3.125   0.749   2.399 -0.3817  0.5876  0.7019
21414SOL    HW176301   3.151   0.840   2.364 -1.0474  0.4958 -0.0321
21414SOL    HW276302   3.179   0.729   2.482 -0.5049  1.8106  1.0883
21415SOL     OW76303   7.811   1.104   1.115 -0.5870  0.0150  0.1503
21415SOL    HW176304   7.755   1.040   1.169  0.9894 -1.9701 -0.5090
21415SOL    HW276305   7.798   1.084   1.018  1.3335 -0.5290 -0.0025
21416SOL     OW76306   1.167   2.747   3.962  0.2462  0.1225 -0.1046
21416SOL    HW176307   1.088   2.805   3.983 -0.8850 -1.3068 -0.3002
21416SOL    HW276308   1.250   2.802   3.963 -0.7065  1.5843  0.4785
21417SOL     OW76309   8.434   6.223   9.500  0.2187  0.0114  0.5282
21417SOL    HW176310   8.395   6.300   9.550 -1.5229  0.2527 -1.1138
21417SOL    HW276311   8.508   6.255   9.441  1.1606  0.0010  1.6958
21418SOL     OW76312   5.854   8.838   6.985 -0.5229 -0.4948 -0.2639
21418SOL    HW176313   5.768   8.857   7.031 -0.6146 -2.1851  0.2655
21418SOL    HW276314   5.850   8.874   6.891 -1.6916 -0.3262 -0.1543
21419SOL     OW76315   8.286   0.271   7.780 -0.5472 -0.3117 -0.0692
21419SOL    HW176316   8.302   0.226   7.692  1.4254 -0.6576  0.4560
21419SOL    HW276317   8.203   0.327   7.773 -0.3580 -0.2377 -2.1790
21420SOL     OW76318   9.737   9.943   7.474 -0.4418 -0.4895 -0.5562
21420SOL    HW176319   9.836   9.933   7.470 -0.2350  1.7593 -2.3108
21420SOL    HW276320   9.701   9.892   7.552  2.4193  1.0593  1.8838
21421SOL     OW76321   1.385   7.940   0.768 -0.0142  0.6572 -0.3929
21421SOL    HW176322   1.345   7.849   0.756 -0.0142  0.4035  1.4521
21421SOL    HW276323   1.342   8.004   0.704 -1.1892 -0.2889 -0.5633
21422SOL     OW76324   5.514   0.681   5.469  0.5992 -0.3644  0.5351
21422SOL    HW176325   5.613   0.697   5.469  0.5436 -0.0068  0.3955
21422SOL    HW276326   5.496   0.584   5.483  0.9722 -0.4379  0.5183
21423SOL     OW76327   8.978   7.448   4.949 -0.4229  0.8799 -0.1352
21423SOL    HW176328   8.879   7.436   4.951 -0.5932  1.5654 -2.4695
21423SOL    HW276329   9.011   7.431   4.856  1.6116  0.9446  0.5599
21424SOL     OW76330   0.858   6.444   0.906 -0.3237  0.6112  0.0178
21424SOL    HW176331   0.906   6.429   0.819  0.1871 -0.5785  0.4876
21424SOL    HW276332   0.763   6.417   0.897 -0.5653  1.5969 -0.4987
21425SOL     OW76333   8.590   9.185   5.055  0.1154  0.6298 -0.5833
21425SOL    HW176334   8.598   9.107   4.991  0.5224  0.9805 -0.9693
21425SOL    HW276335   8.573   9.150   5.147  0.9736  0.0385 -0.6338
21426SOL     OW76336   1.358   2.615   7.224 -0.5607  0.3039  0.2806
21426SOL    HW176337   1.329   2.521   7.204  0.1882  0.6110 -2.4665
21426SOL    HW276338   1.278   2.674   7.228 -0.8959 -0.1448  0.2713
21427SOL     OW76339   6.198   5.907   8.776  0.4297 -0.2090 -0.3534
21427SOL    HW176340   6.249   5.829   8.740 -0.5868 -0.8638 -0.4044
21427SOL    HW276341   6.198   5.902   8.876  2.2494  0.9640 -0.2625
21428SOL     OW76342   1.748   8.980   6.742  0.1266 -0.2850  0.4797
21428SOL    HW176343   1.752   9.054   6.809  0.6934  0.1152  0.0159
21428SOL    HW276344   1.769   9.016   6.651  1.6400 -1.2296  0.4287
21429SOL     OW76345   7.035   1.185   3.376 -0.2824 -0.1885 -0.0048
21429SOL    HW176346   7.030   1.120   3.300 -2.2881 -1.6669  1.3625
21429SOL    HW276347   7.106   1.155   3.440 -1.8331 -1.5874  1.0958
21430SOL     OW76348   2.898   6.945   0.881  0.4541  0.5401 -0.1090
21430SOL    HW176349   2.850   7.011   0.938 -0.6568 -0.6302  0.3392
21430SOL    HW276350   2.833   6.880   0.842  1.4496  0.0801 -1.0474
21431SOL     OW76351   6.869   6.833   6.918 -0.0979  0.7192 -0.5244
21431SOL    HW176352   6.818   6.915   6.893 -1.9631 -0.4667 -0.7262
21431SOL    HW276353   6.965   6.856   6.934 -0.6695  2.9721 -0.2669
21432SOL     OW76354   7.741   9.006   8.711  0.1063  0.1112  0.6413
21432SOL    HW176355   7.834   9.000   8.747 -0.0560 -0.9171  0.9066
21432SOL    HW276356   7.742   9.048   8.620  0.6059  1.9718  1.4876
21433SOL     OW76357   1.594   1.631   0.289  0.2426  0.3248 -0.1512
21433SOL    HW176358   1.597   1.729   0.271  1.2952 -0.1011 -2.4252
21433SOL    HW276359   1.499   1.601   0.299 -0.0497  1.7248  1.6054
21434SOL     OW76360   1.507   2.745   9.944 -0.4551  0.1761  0.0699
21434SOL    HW176361   1.560   2.797   9.877 -0.9107  0.6244  0.0525
21434SOL    HW276362   1.439   2.804   9.987  0.1482  0.0157  1.2865
21435SOL     OW76363   7.450   7.352   5.817  0.4559 -0.1031 -0.0237
21435SOL    HW176364   7.547   7.332   5.827  0.5770  0.9096  0.9724
21435SOL    HW276365   7.405   7.344   5.906 -0.1064  0.7513 -0.2258
21436SOL     OW76366   2.567   8.197   9.241 -0.4231  0.6198  0.2625
21436SOL    HW176367   2.520   8.109   9.247 -2.0856  1.2152 -3.1240
21436SOL    HW276368   2.596   8.213   9.147 -0.7981  3.9963  0.6767
21437SOL     OW76369   1.855   6.797   1.504  0.1878  0.0498 -0.1192
21437SOL    HW176370   1.842   6.707   1.546 -0.0191  0.4325  0.6430
21437SOL    HW276371   1.949   6.804   1.470  0.3812 -0.2421  0.3380
21438SOL     OW76372   1.639   6.924   1.420  0.2379  0.1784  0.1214
21438SOL    HW176373   1.701   6.863   1.469  0.6385  0.4109 -0.0870
21438SOL    HW276374   1.685   6.960   1.338 -0.6101 -0.6343 -0.7290
21439SOL     OW76375   5.102   5.130   8.115 -0.8505 -0.6289  0.3380
21439SOL    HW176376   5.185   5.078   8.138  0.1466  1.2969  1.2786
21439SOL    HW276377   5.052   5.151   8.199 -0.3065  1.3963  0.1836
21440SOL     OW76378   6.954   3.147   0.012  0.6213 -0.4353 -0.6397
21440SOL    HW176379   6.901   3.125   0.095  2.0943  1.3197  0.8036
21440SOL    HW276380   6.910   3.222  -0.036 -0.4951 -1.7607 -1.7499
21441SOL     OW76381   3.264   2.279   3.855 -0.0512  0.0650  0.0531
21441SOL    HW176382   3.284   2.204   3.919  1.7216 -0.2150 -0.7934
21441SOL    HW276383   3.166   2.286   3.841 -0.3159 -1.2584  1.1557
21442SOL     OW76384   8.421   1.105   9.539  0.6706  0.2794 -0.3382
21442SOL    HW176385   8.401   1.042   9.464  0.1878  0.2905 -0.2212
21442SOL    HW276386   8.364   1.186   9.531  1.0316  0.5419 -0.2830
21443SOL     OW76387   5.723   4.807  10.045  0.8971  0.3146  0.0701
21443SOL    HW176388   5.759   4.899  10.053  0.1724  0.6102  0.0207
21443SOL    HW276389   5.751   4.752  10.123  1.0753  0.6631  0.2482
21444SOL     OW76390   7.305   9.002   7.696  0.6909  0.2816 -0.0724
21444SOL    HW176391   7.273   9.092   7.667 -0.6583 -0.7036 -1.7431
21444SOL    HW276392   7.277   8.986   7.791 -0.9730  0.7729 -0.4574
21445SOL     OW76393   1.294   2.807   0.792  0.4154 -0.1622  0.3680
21445SOL    HW176394   1.210   2.780   0.744  0.0746 -0.5460  1.1518
21445SOL    HW276395   1.370   2.750   0.761  0.3190 -0.0169 -0.1328
21446SOL     OW76396   0.401   9.460   3.225 -0.0282  0.0809 -0.1628
21446SOL    HW176397   0.500   9.452   3.220 -0.0410 -0.1213 -0.1100
21446SOL    HW276398   0.375   9.556   3.238  0.1793  0.0835  0.2333
21447SOL     OW76399   3.228   5.492  10.013 -0.1992 -0.1932  0.6446
21447SOL    HW176400   3.206   5.551   9.936 -0.2305  0.7284  1.3457
21447SOL    HW276401   3.209   5.397   9.989 -2.3113  0.2967  0.2722
21448SOL     OW76402   6.185   7.827   3.005 -0.0491  0.0937  0.1702
21448SOL    HW176403   6.180   7.924   2.984 -0.7638  0.2107  0.8458
21448SOL    HW276404   6.173   7.813   3.103  1.9121 -0.5422  0.3440
21449SOL     OW76405   5.054   3.660   9.823 -0.1922 -0.2774  0.5526
21449SOL    HW176406   5.135   3.612   9.855  0.2574  0.2017  0.1503
21449SOL    HW276407   4.994   3.680   9.901 -0.1866 -1.1131  0.7745
21450SOL     OW76408   8.577   7.494   5.886 -0.2156 -0.2976 -0.4998
21450SOL    HW176409   8.645   7.463   5.952 -1.6732 -2.1418  0.1801
21450SOL    HW276410   8.508   7.549   5.933 -0.6201 -0.6438 -0.6785
21451SOL     OW76411   1.093   8.712   3.307 -0.0207  0.3773 -0.1261
21451SOL    HW176412   1.153   8.792   3.300 -1.5460  1.5516 -0.2376
21451SOL    HW276413   1.068   8.698   3.403 -0.7247  0.7912 -0.2427
21452SOL     OW76414   1.496   8.684   9.812  0.3529  0.1481 -0.1562
21452SOL    HW176415   1.464   8.589   9.806  1.3477 -0.1712 -0.4889
21452SOL    HW276416   1.571   8.689   9.879 -1.1620  1.0990  1.5099
21453SOL     OW76417   2.391   0.456   0.796 -0.3373  0.1136  0.1585
21453SOL    HW176418   2.482   0.488   0.821  0.2592 -1.2605 -0.2222
21453SOL    HW276419   2.324   0.529   0.813  0.7029  0.8323  1.2468
21454SOL     OW76420   3.290   6.959   0.497  0.9527  1.0673  0.7470
21454SOL    HW176421   3.212   6.949   0.558  1.1270 -2.9330  0.4056
21454SOL    HW276422   3.258   6.975   0.404  0.5074 -0.5898  0.6038
21455SOL     OW76423   3.270   5.215   1.522  0.5278 -0.1656  0.7284
21455SOL    HW176424   3.225   5.298   1.553 -1.6681 -1.2108  0.4779
21455SOL    HW276425   3.295   5.224   1.426 -1.3709 -0.4445  0.1900
21456SOL     OW76426   3.690   6.750   2.069  0.0622  0.1788 -0.4042
21456SOL    HW176427   3.741   6.751   1.983  0.0085 -0.3309 -0.4408
21456SOL    HW276428   3.655   6.658   2.086  0.5907  0.1397  0.4737
21457SOL     OW76429   0.131   3.897   3.542  0.6671  0.2389  0.2387
21457SOL    HW176430   0.191   3.919   3.619  0.4209  0.4234  0.3788
21457SOL    HW276431   0.041   3.937   3.558 -0.1526 -1.8522  1.0827
21458SOL     OW76432   7.651   4.188   8.341  0.4988 -0.5763  0.5082
21458SOL    HW176433   7.633   4.092   8.363 -0.3978 -1.3771 -3.3139
21458SOL    HW276434   7.567   4.240   8.349 -0.0739 -1.0828 -1.8255
21459SOL     OW76435   4.355   1.638   0.492  0.0841 -0.3988 -0.1696
21459SOL    HW176436   4.395   1.558   0.447 -1.2381 -1.0692 -0.1890
21459SOL    HW276437   4.379   1.637   0.589 -0.0843 -0.9196 -0.1329
21460SOL     OW76438   9.339   1.378   3.896  0.2333 -0.3071 -0.1835
21460SOL    HW176439   9.313   1.388   3.800 -1.1462  0.1477  0.2247
21460SOL    HW276440   9.298   1.294   3.933 -0.2233  0.1385  0.3270
21461SOL     OW76441   1.666   7.757   1.955 -0.3234 -0.2561 -0.3941
21461SOL    HW176442   1.731   7.717   2.019 -1.2070 -0.4756  0.3749
21461SOL    HW276443   1.588   7.793   2.005  0.1130  1.8212 -1.1134
21462SOL     OW76444   9.434   4.108   4.480  0.0727  0.2589  0.2836
21462SOL    HW176445   9.472   4.165   4.408 -0.9648 -0.1866 -0.6324
21462SOL    HW276446   9.377   4.037   4.440  1.2916 -1.3959  1.4188
21463SOL     OW76447   4.381   0.225   2.586  0.3937 -0.3090  0.2791
21463SOL    HW176448   4.479   0.238   2.572  0.5118 -0.8027  0.6400
21463SOL    HW276449   4.340   0.187   2.503  0.2688  1.1447 -0.3378
21464SOL     OW76450   9.902   3.412   2.585  0.5042  0.0134  0.2297
21464SOL    HW176451   9.930   3.409   2.489  0.8286  1.0300  0.2840
21464SOL    HW276452   9.943   3.492   2.629  0.2822 -0.3964  1.1943
21465SOL     OW76453   0.812   1.234   2.516 -0.8534  0.1971 -0.0725
21465SOL    HW176454   0.859   1.293   2.582  3.3199  0.4365 -3.0928
21465SOL    HW276455   0.862   1.147   2.507 -0.6186  0.6360 -3.7326
21466SOL     OW76456   9.580   3.315   4.580  0.2643 -0.1863 -0.3067
21466SOL    HW176457   9.483   3.313   4.560  0.3590  0.8306 -0.9172
21466SOL    HW276458   9.606   3.408   4.609  0.3824 -1.2608  3.2256
21467SOL     OW76459   3.680   3.799   1.609 -0.5020  0.6349 -0.5451
21467SOL    HW176460   3.586   3.797   1.644 -0.2658 -0.8626  0.0527
21467SOL    HW276461   3.743   3.818   1.685 -0.2654  0.7818 -0.7789
21468SOL     OW76462   9.095   8.509   8.966 -0.1555 -0.1629 -0.2829
21468SOL    HW176463   9.074   8.413   8.945 -1.3706 -0.0065  0.2116
21468SOL    HW276464   9.025   8.568   8.927  0.5714  0.5212 -0.5498
21469SOL     OW76465   6.126   2.518   1.584 -0.0681 -0.0696 -0.1231
21469SOL    HW176466   6.044   2.576   1.584 -0.4491 -0.6057 -0.7729
21469SOL    HW276467   6.112   2.441   1.647 -0.7268 -1.0796 -1.4774
21470SOL     OW76468   7.389   3.143   1.530  0.2416 -0.2884 -0.0621
21470SOL    HW176469   7.462   3.074   1.535 -0.8586 -1.5208 -0.8143
21470SOL    HW276470   7.305   3.105   1.568 -0.2643  0.8186 -0.0502
21471SOL     OW76471   4.126   9.358   7.976 -0.1566  0.0457 -0.4534
21471SOL    HW176472   4.219   9.321   7.977  0.0219  0.5033 -0.0285
21471SOL    HW276473   4.087   9.354   8.068  0.0318  1.3346 -0.3135
21472SOL     OW76474   2.287   3.233   0.419  0.9443 -0.9176  0.4473
21472SOL    HW176475   2.366   3.240   0.481  0.1982 -0.3964  1.3525
21472SOL    HW276476   2.207   3.203   0.471  0.1609  0.1266 -0.1485
21473SOL     OW76477   1.571   5.245   3.240 -0.9313  0.1780 -0.3633
21473SOL    HW176478   1.546   5.207   3.330 -2.0721  2.3725  0.2992
21473SOL    HW276479   1.625   5.179   3.190 -0.1231 -1.0420  2.0290
21474SOL     OW76480   5.323   3.535   1.305  0.1297 -0.3925  0.1174
21474SOL    HW176481   5.227   3.509   1.295  0.0501 -0.3606  0.7518
21474SOL    HW276482   5.380   3.453   1.301  0.1303 -0.3497 -0.8724
21475SOL     OW76483   1.267   0.695   6.837  0.7177  0.6169 -0.2439
21475SOL    HW176484   1.365   0.717   6.843  0.8950 -0.1481 -0.2428
21475SOL    HW276485   1.254   0.617   6.776  0.0846  0.8392 -0.3983
21476SOL     OW76486   9.580   9.774   7.663  0.2022 -0.5333  0.0355
21476SOL    HW176487   9.601   9.813   7.753 -0.3028 -0.2056  0.0158
21476SOL    HW276488   9.481   9.778   7.648  0.4717  1.3573 -1.4131
21477SOL     OW76489   1.364   7.028   9.959 -0.3604 -0.1967  0.1158
21477SOL    HW176490   1.365   7.111  10.014  1.6225  0.4428 -0.8196
21477SOL    HW276491   1.401   6.952  10.013  0.5849  0.1954  0.0402
21478SOL     OW76492   7.144   3.055   3.482 -0.5546  0.1295 -0.5354
21478SOL    HW176493   7.150   3.131   3.547 -0.4398 -0.0949 -0.2865
21478SOL    HW276494   7.177   2.971   3.525 -2.7348 -0.5176 -0.0898
21479SOL     OW76495   0.395   0.395   3.610  0.5612  0.1170 -0.2194
21479SOL    HW176496   0.464   0.465   3.628  1.1964 -0.3710 -0.7714
21479SOL    HW276497   0.439   0.307   3.596 -0.0585  0.0523 -1.9340
21480SOL     OW76498   8.417   5.607   6.444 -0.1177  0.3399  0.3719
21480SOL    HW176499   8.352   5.545   6.400  0.3049  0.9406 -1.1461
21480SOL    HW276500   8.509   5.590   6.408 -0.0192  1.9035 -0.1734
21481SOL     OW76501   2.880   3.856   5.486  0.5301  0.4466  0.8330
21481SOL    HW176502   2.808   3.801   5.445  1.0455 -0.0100  0.5396
21481SOL    HW276503   2.919   3.917   5.417  1.1929 -0.1099  0.7167
21482SOL     OW76504   2.318   9.839   3.534  0.1360 -0.0798 -0.1134
21482SOL    HW176505   2.416   9.834   3.513  0.4610 -1.0452  1.5432
21482SOL    HW276506   2.296   9.775   3.607 -1.5437  0.9051  0.2766
21483SOL     OW76507   9.211   3.382   9.951  0.0299  0.3523 -0.5114
21483SOL    HW176508   9.156   3.388  10.034 -0.1173 -2.3441 -0.3452
21483SOL    HW276509   9.306   3.366   9.975  0.2945  1.3953 -0.8498
21484SOL     OW76510   6.627   7.045   3.735  0.4998  0.3265 -0.3432
21484SOL    HW176511   6.672   7.038   3.646  0.5419  0.6108 -0.3453
21484SOL    HW276512   6.588   6.956   3.760 -0.2684  0.4574 -1.0502
21485SOL     OW76513   3.129   2.328   6.629  0.2083  0.6815  0.3965
21485SOL    HW176514   3.182   2.396   6.679 -0.6639 -0.0418  2.3615
21485SOL    HW276515   3.048   2.302   6.683 -0.1205 -0.9956 -0.8552
21486SOL     OW76516   1.561   3.363   3.607 -0.1812 -0.4445  0.2291
21486SOL    HW176517   1.572   3.325   3.699 -1.5449 -1.1085  0.1222
21486SOL    HW276518   1.464   3.379   3.589  0.2063  1.1512 -0.5155
21487SOL     OW76519   2.745   2.761   5.302 -0.4496 -0.0045  0.5368
21487SOL    HW176520   2.752   2.723   5.394  0.4145  0.8350  0.8302
21487SOL    HW276521   2.818   2.828   5.289 -1.3222  0.7702 -0.3391
21488SOL     OW76522   7.735   2.854   3.626  0.1961  0.9623 -0.2261
21488SOL    HW176523   7.651   2.881   3.579 -1.1085 -2.6620 -0.1397
21488SOL    HW276524   7.739   2.899   3.715 -0.9680  2.2532 -0.8118
21489SOL     OW76525   6.983   8.487   3.170  0.2242  0.1891  0.0798
21489SOL    HW176526   6.981   8.454   3.264 -1.3992 -1.9660 -0.6793
21489SOL    HW276527   6.893   8.519   3.143  0.0496 -1.5474 -1.5274
21490SOL     OW76528   7.606   9.585   7.157 -0.0481  0.2566 -0.3490
21490SOL    HW176529   7.648   9.494   7.164 -0.0923  0.2282 -0.4625
21490SOL    HW276530   7.540   9.585   7.082  0.1359  0.4562 -0.5101
21491SOL     OW76531   0.323   5.072   8.417  0.5564 -0.0221  0.2607
21491SOL    HW176532   0.286   5.085   8.325  0.1186  0.9810  0.5790
21491SOL    HW276533   0.417   5.040   8.410  0.6586  0.4393 -0.5299
21492SOL     OW76534   8.639   3.801   4.344  0.3271 -0.0124 -0.5808
21492SOL    HW176535   8.625   3.712   4.388 -3.5439 -0.3349 -2.3115
21492SOL    HW276536   8.638   3.789   4.245  1.2796  1.7876 -0.8234
21493SOL     OW76537   9.741   0.058   2.669 -0.4201 -0.6998 -0.3567
21493SOL    HW176538   9.671   0.004   2.716  0.2936  1.7339  3.6828
21493SOL    HW276539   9.707   0.150   2.651  0.9547 -0.2014 -0.4671
21494SOL     OW76540   7.879   6.479   5.797 -0.5955 -0.4177 -0.4766
21494SOL    HW176541   7.820   6.557   5.778 -1.1483 -0.5339  0.7427
21494SOL    HW276542   7.835   6.394   5.765 -1.9185 -0.7142  2.0718
21495SOL     OW76543   9.397   3.703   9.954 -0.3092 -0.1772 -0.4417
21495SOL    HW176544   9.446   3.676   9.872 -0.1695  0.3195 -0.5188
21495SOL    HW276545   9.326   3.770   9.931 -2.3577 -2.3396 -0.6559
21496SOL     OW76546   8.627   0.144   5.353  0.1883  0.1904  0.0533
21496SOL    HW176547   8.664   0.054   5.376  0.6320  0.7270  1.4611
21496SOL    HW276548   8.532   0.134   5.321  0.2596 -0.7775  0.1424
21497SOL     OW76549   9.707   6.167   9.237  0.0860  0.5907  0.1211
21497SOL    HW176550   9.780   6.198   9.176 -0.5390  1.9501  0.0415
21497SOL    HW276551   9.736   6.085   9.285  2.1812  1.8201  1.0327
21498SOL     OW76552   7.600   2.395   8.981  0.0318 -0.2382  0.4186
21498SOL    HW176553   7.690   2.396   8.937 -0.8977  1.3607 -1.5197
21498SOL    HW276554   7.611   2.406   9.080  1.9188  0.8311  0.1028
21499SOL     OW76555   2.840   8.728   8.046  0.5664 -0.0588  0.7451
21499SOL    HW176556   2.850   8.668   8.126 -1.6066 -1.6902 -0.1658
21499SOL    HW276557   2.751   8.773   8.050  0.6865  0.2985 -0.4779
21500SOL     OW76558   4.272   5.456   3.659  0.7839 -0.3507  0.0015
21500SOL    HW176559   4.249   5.389   3.588  1.4352 -1.0224  0.4181
21500SOL    HW276560   4.217   5.438   3.741  3.2736 -2.4706  1.2901
21501SOL     OW76561   5.116   1.491   7.500  0.2872  0.3297 -0.0105
21501SOL    HW176562   5.175   1.452   7.570  0.3290  0.1409 -0.1503
21501SOL    HW276563   5.079   1.579   7.531 -3.0131 -1.6659  2.0012
21502SOL     OW76564   1.746   4.612   1.728  0.3428 -0.8674 -0.9172
21502SOL    HW176565   1.718   4.691   1.672 -2.5729  0.0580  1.6833
21502SOL    HW276566   1.683   4.536   1.713 -0.9552 -0.3504  1.5652
21503SOL     OW76567   6.772   9.918   5.606  0.1617  0.4265 -0.2381
21503SOL    HW176568   6.704   9.862   5.654  0.7663 -0.0703  0.0383
21503SOL    HW276569   6.864   9.893   5.637  0.5519  0.2438 -1.5114
21504SOL     OW76570   0.890   1.084   7.846  0.3719 -0.4692  0.4906
21504SOL    HW176571   0.844   1.172   7.837  0.0489 -0.7678 -0.9077
21504SOL    HW276572   0.822   1.010   7.840  0.7443 -0.8395  0.7882
21505SOL     OW76573   9.562   3.604   9.709  0.6806  0.0058 -0.3673
21505SOL    HW176574   9.547   3.514   9.749  0.3836  0.9133  1.6143
21505SOL    HW276575   9.643   3.602   9.650  0.6256 -1.5539 -0.4002
21506SOL     OW76576   9.342   9.152   3.296 -0.1061  0.4536  0.1680
21506SOL    HW176577   9.296   9.128   3.210  0.5831  0.7291 -0.2864
21506SOL    HW276578   9.427   9.201   3.275 -1.3896  3.1176  1.0639
21507SOL     OW76579   2.985   2.793   7.900  0.0107 -0.1188  0.3946
21507SOL    HW176580   2.934   2.721   7.947 -0.6042  1.2706  1.9217
21507SOL    HW276581   2.970   2.787   7.801 -0.0137 -2.0739  0.5147
21508SOL     OW76582   5.210   9.568   8.898  0.7874 -0.3061  0.0220
21508SOL    HW176583   5.110   9.572   8.890  1.0380  1.0385 -2.8743
21508SOL    HW276584   5.234   9.509   8.975 -2.2591  1.1162  2.1883
21509SOL     OW76585   1.919   3.179   9.701 -0.0202  0.7447  0.0625
21509SOL    HW176586   1.872   3.252   9.751  2.5431  1.4048  1.6378
21509SOL    HW276587   1.970   3.122   9.765 -0.8276 -1.5816 -1.3112
21510SOL     OW76588   9.775   9.460   3.688  0.1161 -0.2935 -0.4677
21510SOL    HW176589   9.790   9.518   3.608 -0.0718  0.3016 -0.0711
21510SOL    HW276590   9.677   9.451   3.704  0.1628 -0.1932 -0.1378
21511SOL     OW76591   3.950   8.185   3.326 -0.1841 -0.2335  0.0683
21511SOL    HW176592   3.956   8.131   3.242  0.7759  0.8671 -0.5995
21511SOL    HW276593   3.869   8.159   3.378 -0.4423 -1.3671 -0.8945
21512SOL     OW76594   7.838   2.428   2.951  0.2310  0.1509  0.3774
21512SOL    HW176595   7.773   2.503   2.959 -0.3121 -0.2921  0.1035
21512SOL    HW276596   7.852   2.406   2.854 -0.3842 -0.7830  0.5030
21513SOL     OW76597   6.702   2.205   5.463 -0.3873 -0.2922 -0.1877
21513SOL    HW176598   6.733   2.146   5.538  0.2253  0.5661  0.2374
21513SOL    HW276599   6.703   2.300   5.493 -0.4217  0.0292 -1.1992
21514SOL     OW76600   9.236   6.915   9.729  0.3711  0.3868 -0.4286
21514SOL    HW176601   9.162   6.869   9.777  0.2477  0.2665 -0.7300
21514SOL    HW276602   9.311   6.932   9.792 -0.1284  0.9977  0.0110
21515SOL     OW76603   7.737   5.710   5.198  0.4921  0.2037  0.1172
21515SOL    HW176604   7.754   5.743   5.105  0.8938 -1.8486 -0.5631
21515SOL    HW276605   7.784   5.623   5.212  0.9327  0.7716  2.4541
21516SOL     OW76606   8.886   8.522   5.839  0.4557 -0.5214  0.5453
21516SOL    HW176607   8.940   8.589   5.788 -0.0029  0.3313  1.1802
21516SOL    HW276608   8.812   8.488   5.781 -0.7240  1.2511  0.9797
21517SOL     OW76609   0.207   0.003   8.112  0.3083 -0.3143  0.1693
21517SOL    HW176610   0.168   0.028   8.023 -1.7785 -0.3665  1.0564
21517SOL    HW276611   0.237   0.085   8.160 -2.0217  0.1017  0.9829
21518SOL     OW76612   4.767   5.549   8.671 -0.1047 -0.1777 -0.3845
21518SOL    HW176613   4.784   5.574   8.576 -0.3834 -1.9384 -0.9099
21518SOL    HW276614   4.683   5.593   8.702 -1.1179 -1.2256 -1.6030
21519SOL     OW76615   1.873   8.050   4.367  0.2931  0.1453  0.3173
21519SOL    HW176616   1.821   7.978   4.413 -2.4649  0.5738 -2.0022
21519SOL    HW276617   1.935   8.009   4.300  0.3294 -0.1706  0.5422
21520SOL     OW76618   6.993   8.118   4.909  0.6856 -0.0613  0.0920
21520SOL    HW176619   6.930   8.067   4.851 -0.9300  0.5416  1.2675
21520SOL    HW276620   7.049   8.054   4.962 -0.1573 -0.6047  0.3342
21521SOL     OW76621   1.793   3.276   5.723 -0.2722 -0.1569  0.5096
21521SOL    HW176622   1.852   3.272   5.642 -0.1385  1.5682  0.4943
21521SOL    HW276623   1.847   3.256   5.805 -0.3612 -1.7003  0.2011
21522SOL     OW76624   3.736   9.226   0.379 -0.0768  0.3065  0.1679
21522SOL    HW176625   3.794   9.159   0.333 -0.7209 -0.3111  0.2581
21522SOL    HW276626   3.754   9.223   0.478 -1.0025 -0.6052  0.3113
21523SOL     OW76627   1.702   8.970   7.195  0.3355 -1.1061  0.0082
21523SOL    HW176628   1.647   8.931   7.121  0.6763 -2.3194  0.3844
21523SOL    HW276629   1.780   8.911   7.214  0.3319 -0.7411  1.2390
21524SOL     OW76630   7.095   0.875   0.992 -0.3537 -0.4445  0.3361
21524SOL    HW176631   7.015   0.877   0.932  1.7073  0.9184 -2.4991
21524SOL    HW276632   7.074   0.923   1.077 -2.1185  1.1659 -0.9486
21525SOL     OW76633   6.610   1.201   1.187  0.1793  0.8891  0.5638
21525SOL    HW176634   6.585   1.251   1.104  0.8551  0.4481  0.0892
21525SOL    HW276635   6.629   1.266   1.260  1.7369  1.3625 -0.2471
21526SOL     OW76636   3.610   1.652   5.784  0.0900 -0.0518 -0.3207
21526SOL    HW176637   3.610   1.563   5.829 -1.7084 -0.9170 -1.9726
21526SOL    HW276638   3.568   1.720   5.844  2.0837 -0.1152  1.2252
21527SOL     OW76639   1.350   7.538   1.553 -0.1301  0.2123  0.3184
21527SOL    HW176640   1.303   7.450   1.564 -3.5491  1.9648  0.1321
21527SOL    HW276641   1.346   7.589   1.639  0.5692  0.8081  0.0027
21528SOL     OW76642   6.738   1.397   1.758 -0.6418 -0.0636 -0.6804
21528SOL    HW176643   6.832   1.376   1.732 -0.7757 -1.1344 -0.3260
21528SOL    HW276644   6.724   1.373   1.854 -0.9216  1.2900 -0.3814
21529SOL     OW76645   5.525   2.656   2.064 -0.4426  0.3545  0.2796
21529SOL    HW176646   5.436   2.617   2.087 -0.6352  0.6513  0.0542
21529SOL    HW276647   5.567   2.693   2.147 -0.5629  0.2808  0.3741
21530SOL     OW76648   3.299   0.139   8.475 -0.1511  1.6411 -0.2832
21530SOL    HW176649   3.276   0.074   8.548  0.0654  0.8390 -0.9293
21530SOL    HW276650   3.389   0.117   8.438  0.1840  2.6799 -0.1008
21531SOL     OW76651   9.439   9.434   1.501  0.1242 -0.0809  0.0667
21531SOL    HW176652   9.463   9.520   1.456 -1.0091  0.9538  1.3810
21531SOL    HW276653   9.433   9.449   1.600 -0.2564 -1.6404  0.2911
21532SOL     OW76654   3.898   5.166   3.383  0.8713  0.1756 -0.3356
21532SOL    HW176655   3.837   5.089   3.402  0.8983 -0.0514 -1.1213
21532SOL    HW276656   3.925   5.163   3.287  4.1390 -1.1491  0.5743
21533SOL     OW76657   1.313   9.015   1.188 -0.2183  0.2905 -0.3990
21533SOL    HW176658   1.333   8.917   1.196 -0.1409  0.3301 -0.1136
21533SOL    HW276659   1.215   9.029   1.203 -0.5346  0.0621 -2.0602
21534SOL     OW76660   6.974   6.782   3.537 -0.0660  0.2053  0.3576
21534SOL    HW176661   7.015   6.873   3.548  0.7890 -0.1037 -0.2355
21534SOL    HW276662   7.046   6.715   3.521 -0.5772 -0.8231  2.2656
21535SOL     OW76663   2.666   5.569   1.973  0.4511 -0.0269  0.4033
21535SOL    HW176664   2.585   5.626   1.962 -0.0245 -0.5234  1.3292
21535SOL    HW276665   2.748   5.625   1.961 -0.0173  0.7707  0.9402
21536SOL     OW76666   7.223   9.871   3.050 -0.0880 -0.0673 -0.3315
21536SOL    HW176667   7.273   9.787   3.028  3.1160  1.5433  0.5650
21536SOL    HW276668   7.197   9.869   3.147  0.0686  0.0287 -0.2878
21537SOL     OW76669   0.632   7.606   5.639 -0.3655 -0.4136 -0.0380
21537SOL    HW176670   0.595   7.699   5.652  0.3389 -0.2936  1.1260
21537SOL    HW276671   0.592   7.567   5.556  1.7516  2.1500 -2.3857
21538SOL     OW76672   1.376   7.145   6.448 -0.7899  0.2506 -0.2235
21538SOL    HW176673   1.303   7.129   6.382 -0.1549  0.7311 -1.0380
21538SOL    HW276674   1.362   7.233   6.493 -0.3558  0.6333 -0.8396
21539SOL     OW76675   0.528   6.984   9.816  0.5200 -0.3183 -0.1389
21539SOL    HW176676   0.441   7.014   9.856  0.0546 -0.3228 -1.1199
21539SOL    HW276677   0.587   7.064   9.803  1.0500 -0.4457  1.4301
21540SOL     OW76678   9.605   7.024   7.526 -0.2119 -0.5893  0.2401
21540SOL    HW176679   9.594   6.925   7.530 -1.5402 -0.4476  0.2832
21540SOL    HW276680   9.702   7.046   7.517 -0.1767 -2.0037 -3.5010
21541SOL     OW76681   9.545   8.106   5.813 -0.2653 -1.1905 -0.0821
21541SOL    HW176682   9.551   8.012   5.780 -0.6007 -1.1345 -0.3028
21541SOL    HW276683   9.631   8.131   5.857  0.0437 -1.4011 -0.5568
21542SOL     OW76684   0.821   4.506   9.850  0.1608 -0.6759 -0.0051
21542SOL    HW176685   0.861   4.593   9.880  0.2846 -0.8074  0.2151
21542SOL    HW276686   0.893   4.448   9.811  0.3837 -1.2976  1.2742
21543SOL     OW76687   5.466   9.637   5.970 -0.8083  0.9041  0.0790
21543SOL    HW176688   5.384   9.693   5.956 -1.8186 -0.7507 -0.7870
21543SOL    HW276689   5.529   9.650   5.893 -1.1470  0.6867 -0.2392
21544SOL     OW76690   0.201   4.599   8.621  0.5874 -0.2588  0.0660
21544SOL    HW176691   0.240   4.668   8.561 -1.5911  1.0784  0.1646
21544SOL    HW276692   0.108   4.578   8.593 -0.6033  0.6159  3.1278
21545SOL     OW76693   9.248   3.605   2.703  0.8976  0.2706  0.3163
21545SOL    HW176694   9.243   3.704   2.699 -1.2860  0.0997 -2.2169
21545SOL    HW276695   9.167   3.568   2.749  1.0626 -0.4119  0.0714
21546SOL     OW76696   9.579   0.844   1.091  0.1915  0.0543  0.0184
21546SOL    HW176697   9.495   0.899   1.090  0.1944  0.1676  2.6188
21546SOL    HW276698   9.565   0.762   1.036 -0.2989  1.9185 -2.7224
21547SOL     OW76699   8.420   4.049   3.491  0.3060 -0.2298  0.4523
21547SOL    HW176700   8.505   4.090   3.458  0.1322  2.1579  2.8034
21547SOL    HW276701   8.435   4.008   3.581 -0.8690 -0.3900  0.5903
21548SOL     OW76702   7.014   6.371   7.820  0.3141 -0.4018 -0.6857
21548SOL    HW176703   7.040   6.410   7.908 -1.7255  0.6959 -0.5421
21548SOL    HW276704   7.096   6.338   7.773  2.0097  3.1439 -0.3892
21549SOL     OW76705   2.017   4.671   9.335 -0.2309  0.7148 -0.1192
21549SOL    HW176706   2.035   4.626   9.248  0.0233 -0.1557  0.3773
21549SOL    HW276707   1.918   4.672   9.353 -0.0967 -2.1494  1.1548
21550SOL     OW76708   4.537   2.579   9.138  0.5666 -0.3611  0.3295
21550SOL    HW176709   4.579   2.599   9.050 -1.7548 -1.7686 -1.1358
21550SOL    HW276710   4.563   2.487   9.168  0.3035 -0.3951  0.4617
21551SOL     OW76711   3.248   5.150   1.171 -0.3799  0.1986 -0.2207
21551SOL    HW176712   3.200   5.074   1.215  0.1993 -0.6461 -1.0407
21551SOL    HW276713   3.183   5.223   1.151 -0.6786  0.5587  1.9310
21552SOL     OW76714   1.618   5.492   6.562  0.0726 -0.5469  0.8447
21552SOL    HW176715   1.568   5.434   6.626 -0.8304 -1.7743 -0.9271
21552SOL    HW276716   1.555   5.556   6.519  0.1970 -1.3566 -0.5832
21553SOL     OW76717   4.553   7.981   6.058  0.2097 -0.7273 -0.3831
21553SOL    HW176718   4.584   7.902   6.006 -0.5266 -0.5124 -1.1516
21553SOL    HW276719   4.613   8.059   6.039  0.1347 -0.7368 -0.6593
21554SOL     OW76720   5.481   3.038   9.607 -0.0271 -0.7177  0.7153
21554SOL    HW176721   5.404   3.017   9.668 -0.9182 -1.0010 -0.4825
21554SOL    HW276722   5.449   3.038   9.512  1.7703 -2.3709  0.0738
21555SOL     OW76723   4.700   9.789   8.540  0.0549  0.3536  0.0594
21555SOL    HW176724   4.762   9.716   8.568  2.5484  2.7809  1.1298
21555SOL    HW276725   4.675   9.844   8.620  0.7656  2.5540 -1.1887
21556SOL     OW76726   8.663   5.571   0.136 -1.0481 -0.0423  0.8185
21556SOL    HW176727   8.648   5.659   0.091  3.3478  0.7549  0.6243
21556SOL    HW276728   8.705   5.508   0.070  2.7640  0.2011  2.8716
21557SOL     OW76729   9.636   0.778   9.178 -0.0397  0.0814  0.1988
21557SOL    HW176730   9.537   0.768   9.190 -0.0534 -1.0417 -0.7710
21557SOL    HW276731   9.655   0.840   9.102  0.0138  0.4658  0.5199
21558SOL     OW76732   6.768   2.346   6.298 -0.1245  0.2043  0.5599
21558SOL    HW176733   6.761   2.247   6.288  1.3154  0.0785  0.7094
21558SOL    HW276734   6.861   2.376   6.275 -0.7808  1.6320 -0.3350
21559SOL     OW76735   7.191   1.481   1.803 -0.1526 -0.1373  0.1808
21559SOL    HW176736   7.146   1.503   1.889  0.7618  1.9417  0.1592
21559SOL    HW276737   7.130   1.426   1.746 -1.3160 -0.2707  1.5419
21560SOL     OW76738   1.748   2.676   8.972  0.0491 -0.2368 -0.3373
21560SOL    HW176739   1.703   2.643   8.888 -0.2105 -0.1602 -0.2267
21560SOL    HW276740   1.744   2.604   9.042 -2.4376  0.8094  0.6421
21561SOL     OW76741   0.963   7.632   0.587  0.0379 -0.2007 -0.3243
21561SOL    HW176742   0.864   7.615   0.581 -0.0820  0.4229 -0.0976
21561SOL    HW276743   1.002   7.576   0.660 -0.5314  1.2481  1.1110
21562SOL     OW76744   8.827   7.088   5.437 -0.9168 -0.4570  0.0043
21562SOL    HW176745   8.871   7.167   5.479  0.5494 -1.3405  0.1462
21562SOL    HW276746   8.750   7.059   5.494 -0.4117 -0.1840  0.8375
21563SOL     OW76747   6.466   7.115   4.698 -0.2201 -0.6279 -0.1714
21563SOL    HW176748   6.421   7.186   4.645 -0.5819 -1.3363 -0.8273
21563SOL    HW276749   6.497   7.153   4.785  0.8574  0.6777 -1.1019
21564SOL     OW76750   2.477   4.161   9.452 -0.5062 -0.4671  0.1833
21564SOL    HW176751   2.431   4.242   9.488  0.9933  1.4661 -2.0730
21564SOL    HW276752   2.487   4.170   9.353  1.6408 -2.3891  0.1776
21565SOL     OW76753   4.370   5.984   9.718  0.2621  0.3843  0.3076
21565SOL    HW176754   4.346   5.991   9.815 -0.1938 -0.5928  0.2725
21565SOL    HW276755   4.387   5.888   9.695  3.3924  0.9086  0.1404
21566SOL     OW76756   5.828   2.913   1.500 -0.2274  0.3366  0.5829
21566SOL    HW176757   5.842   2.835   1.438 -3.3611  0.7736 -0.7941
21566SOL    HW276758   5.906   2.974   1.495  2.4157 -2.7723  1.8425
21567SOL     OW76759   6.696   3.306   8.402  0.2222 -0.6632 -0.1536
21567SOL    HW176760   6.606   3.289   8.444 -0.1917  0.3688 -0.5990
21567SOL    HW276761   6.767   3.261   8.456 -0.2059  1.4105  2.1994
21568SOL     OW76762   2.819   8.654   7.599 -0.0447 -0.1444 -0.4837
21568SOL    HW176763   2.847   8.682   7.691 -1.1759 -0.2152 -0.1098
21568SOL    HW276764   2.896   8.609   7.553  1.0474  1.3515 -0.1874
21569SOL     OW76765   3.853   4.481   8.675 -0.8614  0.1380  0.4084
21569SOL    HW176766   3.808   4.479   8.764 -0.9643 -0.1344  0.3505
21569SOL    HW276767   3.816   4.408   8.618 -0.1546 -0.2517  0.4517
21570SOL     OW76768   4.809   8.035   6.733 -0.4108  0.0673  0.5789
21570SOL    HW176769   4.868   7.962   6.698  0.9358  0.5377  1.8070
21570SOL    HW276770   4.720   8.031   6.688  0.8282 -0.1634 -1.9311
21571SOL     OW76771   8.888   2.009   0.174 -0.4486  0.1766 -1.1307
21571SOL    HW176772   8.808   2.059   0.209 -0.6265  0.3906 -1.8402
21571SOL    HW276773   8.945   2.072   0.122  1.1421  0.4792  0.9050
21572SOL     OW76774   1.703   3.890   9.524 -0.3565  0.1310 -0.4192
21572SOL    HW176775   1.653   3.898   9.610  0.0847  0.5828 -0.2051
21572SOL    HW276776   1.674   3.807   9.476  2.1980 -2.2311  1.9687
21573SOL     OW76777   6.171   1.015   4.566  0.3888 -0.0020  0.2897
21573SOL    HW176778   6.082   1.056   4.547  0.6113  0.7604  0.9006
21573SOL    HW276779   6.240   1.086   4.578  1.1849 -0.6005 -0.6642
21574SOL     OW76780   3.402   9.404   5.134  0.2286  0.0934 -0.1142
21574SOL    HW176781   3.438   9.467   5.203 -1.0726  0.5031  0.2128
21574SOL    HW276782   3.330   9.349   5.175  0.1024 -0.3234 -0.9008
21575SOL     OW76783   0.335   0.323   6.066  0.3702 -0.5058  0.5550
21575SOL    HW176784   0.265   0.361   6.127  1.6926  1.4750  0.8697
21575SOL    HW276785   0.290   0.272   5.992 -1.3899  0.4253  0.9543
21576SOL     OW76786   7.460   0.511   4.754 -0.0491  0.4068 -0.1778
21576SOL    HW176787   7.535   0.498   4.690  1.1204 -1.9591  1.5945
21576SOL    HW276788   7.484   0.582   4.820  0.5788 -0.2110  0.2691
21577SOL     OW76789   8.271   4.027   7.601 -0.2238 -0.1378  0.1305
21577SOL    HW176790   8.340   3.989   7.662 -1.4647 -2.0081  0.3883
21577SOL    HW276791   8.244   4.118   7.633 -2.2516 -1.8336  3.5005
21578SOL     OW76792   3.799   5.593   2.824 -0.1053  0.4352  0.2212
21578SOL    HW176793   3.853   5.636   2.896  1.9760 -1.8327  0.1202
21578SOL    HW276794   3.827   5.630   2.735  1.3892 -0.7510  0.1657
21579SOL     OW76795   8.691   0.585   6.893  0.3110 -0.1563 -0.0302
21579SOL    HW176796   8.675   0.668   6.948  0.2271  0.4752 -0.9916
21579SOL    HW276797   8.603   0.546   6.867  0.3503 -0.6264  0.5336
21580SOL     OW76798   2.150   5.284   6.931 -0.2040  0.5777 -0.3165
21580SOL    HW176799   2.051   5.265   6.926 -0.2289  0.4946  0.4746
21580SOL    HW276800   2.198   5.202   6.962  0.0651  0.7736 -0.2209
21581SOL     OW76801   5.405   5.055   2.096 -0.0888  0.4166 -0.2972
21581SOL    HW176802   5.449   5.056   2.006  1.8519 -0.6560  0.6086
21581SOL    HW276803   5.473   5.074   2.167 -1.1021 -1.1485  1.1344
21582SOL     OW76804   8.372   1.150   6.736 -0.2568  0.2432  0.2695
21582SOL    HW176805   8.450   1.169   6.795 -0.4978 -0.0030  0.6742
21582SOL    HW276806   8.354   1.229   6.678  0.6685  0.0710 -0.2556
21583SOL     OW76807   0.366   8.505   4.944 -0.1290 -0.2093 -0.1091
21583SOL    HW176808   0.434   8.570   4.910  1.0385 -0.9119  0.8353
21583SOL    HW276809   0.333   8.535   5.034 -1.7945  0.6324 -0.9779
21584SOL     OW76810   5.578   7.250   4.162 -0.1281 -0.3295  0.0140
21584SOL    HW176811   5.542   7.242   4.255 -1.1972 -0.7796 -0.4234
21584SOL    HW276812   5.580   7.346   4.135  1.3070 -0.0855  0.9204
21585SOL     OW76813   3.787   7.992   8.806 -0.0604 -0.1667  0.5614
21585SOL    HW176814   3.832   8.081   8.803 -1.6990  0.6543 -0.8471
21585SOL    HW276815   3.742   7.979   8.894  1.0585 -0.0643  1.1559
21586SOL     OW76816   5.843   1.908   0.886 -0.1141  0.2644 -0.0373
21586SOL    HW176817   5.865   1.859   0.970 -2.6457 -0.3448  0.3009
21586SOL    HW276818   5.799   1.846   0.822  2.6466  0.4755 -2.2491
21587SOL     OW76819   9.806   9.835   7.087  0.0146  0.4620 -0.3239
21587SOL    HW176820   9.751   9.751   7.098 -0.4990  1.0218  1.5460
21587SOL    HW276821   9.898   9.818   7.122  0.0792  0.4950 -0.4829
21588SOL     OW76822   9.266   4.259   2.681  0.6685 -0.3603 -0.0185
21588SOL    HW176823   9.286   4.242   2.777 -1.0297 -0.3657  0.3605
21588SOL    HW276824   9.246   4.356   2.667  1.6607 -0.2265 -0.5082
21589SOL     OW76825   7.650   8.468   6.822 -0.5099  0.0208  0.0851
21589SOL    HW176826   7.712   8.428   6.754  0.7615  0.9644  0.6674
21589SOL    HW276827   7.654   8.416   6.906 -0.3707  0.1865  0.1818
21590SOL     OW76828   7.690   3.415   7.857 -0.4672 -0.9738  0.2585
21590SOL    HW176829   7.770   3.356   7.872 -1.6386 -2.4961  0.6154
21590SOL    HW276830   7.638   3.381   7.779 -0.3463  0.4899 -0.4720
21591SOL     OW76831   2.189   7.525   7.177  0.2437  0.3396 -0.6679
21591SOL    HW176832   2.274   7.553   7.222  0.1432  1.8371 -1.3703
21591SOL    HW276833   2.122   7.498   7.246  1.1907 -0.5742 -0.0925
21592SOL     OW76834   2.103   7.162   9.010 -0.1082 -0.7880  0.3998
21592SOL    HW176835   2.072   7.203   8.925  1.4573 -0.9048 -0.2480
21592SOL    HW276836   2.065   7.212   9.088  0.3241  0.7695 -0.3840
21593SOL     OW76837   7.553   0.525   7.303  0.3156  0.5396 -0.3969
21593SOL    HW176838   7.609   0.602   7.333  0.0209 -0.1549  2.1281
21593SOL    HW276839   7.526   0.471   7.383 -2.2278 -0.3155 -1.7915
21594SOL     OW76840   8.311   4.460   5.550  0.4289 -0.6947 -0.4839
21594SOL    HW176841   8.262   4.502   5.627  0.7113 -1.8122  0.3161
21594SOL    HW276842   8.294   4.514   5.467 -0.4197  0.1472  0.2147
21595SOL     OW76843   0.706   2.382   8.693  0.0219 -0.2036 -0.0261
21595SOL    HW176844   0.772   2.408   8.763  0.2855  1.1629 -0.7815
21595SOL    HW276845   0.716   2.284   8.672  0.7456 -0.3461  0.9725
21596SOL     OW76846   4.426   4.298   1.292  0.1416 -0.2369 -0.4445
21596SOL    HW176847   4.341   4.331   1.333 -0.6376  1.5023 -3.3628
21596SOL    HW276848   4.427   4.318   1.195  2.9158 -2.3274 -0.9249
21597SOL     OW76849   0.510   8.130   4.514  0.0108 -0.5244  0.3317
21597SOL    HW176850   0.490   8.201   4.446 -0.1000  0.9930  1.9119
21597SOL    HW276851   0.603   8.096   4.501  0.6916  1.1533  0.6158
21598SOL     OW76852   1.175   6.796   0.853  0.2558  0.1071  0.1380
21598SOL    HW176853   1.144   6.713   0.899  1.3807 -0.9125 -0.9050
21598SOL    HW276854   1.225   6.771   0.770  1.8624  1.7552  0.5707
21599SOL     OW76855   7.615   6.778   2.488 -0.3329  0.5693 -0.2527
21599SOL    HW176856   7.702   6.792   2.536 -0.1319  1.4754 -0.8745
21599SOL    HW276857   7.601   6.680   2.473  1.2845  0.5002 -1.4491
21600SOL     OW76858   6.493   3.749   2.493 -0.1274  0.7629 -0.4951
21600SOL    HW176859   6.550   3.695   2.432  0.0056  0.6772 -0.2981
21600SOL    HW276860   6.506   3.717   2.587 -1.7499 -0.3391 -0.6396
21601SOL     OW76861   0.625   7.630   2.752  0.4938 -0.4546 -0.2027
21601SOL    HW176862   0.699   7.640   2.819  0.7279 -0.5029 -0.4546
21601SOL    HW276863   0.547   7.585   2.795  0.5716 -0.3094  0.0918
21602SOL     OW76864   1.008   9.194   4.950 -1.0306 -0.3234  0.4621
21602SOL    HW176865   0.995   9.259   5.024  0.1772 -0.2126  0.5951
21602SOL    HW276866   1.057   9.238   4.875 -1.5927 -0.6415 -0.1012
21603SOL     OW76867   7.457   9.374   5.117  0.0120  0.0801 -0.1623
21603SOL    HW176868   7.389   9.418   5.058  1.8408 -0.7487 -2.9715
21603SOL    HW276869   7.522   9.443   5.150  0.5120  0.1430 -1.2644
21604SOL     OW76870   7.989   5.786   1.224  0.0930  0.0619 -0.3233
21604SOL    HW176871   7.953   5.879   1.228 -0.0427  0.0155 -0.5158
21604SOL    HW276872   8.089   5.789   1.235  0.0261  0.1793  0.2776
21605SOL     OW76873   4.302   4.434   3.865  0.0507  0.0881 -0.2020
21605SOL    HW176874   4.285   4.340   3.834 -1.0652  0.1350  0.2454
21605SOL    HW276875   4.365   4.432   3.943 -0.5739 -0.3461  0.2960
21606SOL     OW76876   4.690   7.938   4.249 -0.5567 -0.4026  0.4064
21606SOL    HW176877   4.733   7.967   4.335  0.0709  0.6938 -0.2622
21606SOL    HW276878   4.592   7.960   4.252 -0.9721 -2.3668  1.6985
21607SOL     OW76879   3.626   2.257   2.392 -0.1459 -0.1478 -0.3394
21607SOL    HW176880   3.580   2.330   2.343  0.9999  0.4871 -0.4920
21607SOL    HW276881   3.724   2.278   2.399 -0.0748 -0.8656  1.0502
21608SOL     OW76882   4.005   2.645   2.474  0.3561 -0.2846  0.7470
21608SOL    HW176883   4.070   2.721   2.483  1.6142 -1.4298  1.7654
21608SOL    HW276884   3.947   2.641   2.555  0.9640 -0.9863  1.1609
21609SOL     OW76885   2.437   8.209   7.633  0.2378  0.0493  0.0542
21609SOL    HW176886   2.427   8.111   7.647 -3.1141  0.1441 -1.1429
21609SOL    HW276887   2.367   8.240   7.568  0.8019  3.3354  0.9483
21610SOL     OW76888   1.613   4.720   2.187 -0.4953 -0.4291 -0.2058
21610SOL    HW176889   1.668   4.739   2.106  1.7816  1.9983  1.8293
21610SOL    HW276890   1.531   4.776   2.186  1.4319  2.5098  1.0011
21611SOL     OW76891   1.010   7.752   3.995  0.0673 -0.1170 -0.2361
21611SOL    HW176892   0.961   7.716   4.074 -0.2477 -0.5028 -0.5999
21611SOL    HW276893   0.993   7.850   3.986 -1.0156 -0.3370 -0.6277
21612SOL     OW76894   4.631   2.072   0.294 -0.3633  1.0701  0.2206
21612SOL    HW176895   4.556   2.050   0.232  0.3674  0.3353 -0.4117
21612SOL    HW276896   4.594   2.102   0.382 -1.4012  0.2943  0.0537
21613SOL     OW76897   7.636   5.352   2.159  0.2722  0.3630 -0.2170
21613SOL    HW176898   7.726   5.360   2.116  0.5298  2.8327  0.7003
21613SOL    HW276899   7.642   5.292   2.238  1.4208  1.4806  0.5652
21614SOL     OW76900   0.901   6.548   3.702 -0.2074 -0.1463 -0.2030
21614SOL    HW176901   0.925   6.635   3.658 -0.6522  0.9662  1.6655
21614SOL    HW276902   0.836   6.566   3.776  0.2804 -1.9955  0.6862
21615SOL     OW76903   1.051   9.042   1.211 -0.0883  0.4908  0.2422
21615SOL    HW176904   0.994   8.971   1.170 -0.3974  1.5395 -1.1595
21615SOL    HW276905   1.006   9.077   1.293 -1.5918  1.4501 -0.9620
21616SOL     OW76906   8.146   7.167   6.071 -0.3543 -0.1649 -0.6365
21616SOL    HW176907   8.245   7.174   6.061 -0.3685  0.0841 -0.6031
21616SOL    HW276908   8.122   7.078   6.109 -0.1337 -0.1629 -0.4970
21617SOL     OW76909   9.981   1.801   0.982  0.7859  0.5066 -0.1836
21617SOL    HW176910   9.978   1.703   0.963  0.3106  0.5008 -0.0842
21617SOL    HW276911   9.934   1.820   1.068  0.7782  0.8367 -0.2580
21618SOL     OW76912   2.183   1.964   1.212 -0.1271 -0.9295  0.0289
21618SOL    HW176913   2.128   1.963   1.295 -1.0991 -0.3958 -0.5901
21618SOL    HW276914   2.191   1.871   1.175 -1.8892 -0.8344 -0.6771
21619SOL     OW76915   2.094   8.586   7.230 -0.1136 -0.4314 -0.3172
21619SOL    HW176916   2.158   8.569   7.306  2.1790 -1.6769 -2.4662
21619SOL    HW276917   2.063   8.499   7.193  0.3200  0.1514 -2.0693
21620SOL     OW76918   9.403   1.538   9.798 -0.0161 -0.4198  0.2120
21620SOL    HW176919   9.355   1.585   9.872  0.1591  0.3327 -0.1535
21620SOL    HW276920   9.391   1.588   9.712  1.0040 -0.4888  0.0148
21621SOL     OW76921   6.663   3.417   9.661 -0.0196  0.3970  0.0780
21621SOL    HW176922   6.596   3.352   9.623 -0.6589  1.5206 -0.7462
21621SOL    HW276923   6.752   3.403   9.618 -0.1941  0.1778 -0.2107
21622SOL     OW76924   9.946   8.085   2.528  0.0176 -0.4067  0.4859
21622SOL    HW176925   9.983   8.110   2.617 -0.5209 -0.5120  0.7379
21622SOL    HW276926   9.893   8.001   2.537 -0.2330 -0.2869  0.1064
21623SOL     OW76927   6.622   4.618   9.022 -0.1930  0.6705  1.0092
21623SOL    HW176928   6.562   4.580   8.951 -0.3860 -0.2100  1.6332
21623SOL    HW276929   6.703   4.559   9.031  0.9160  2.0003 -0.0185
21624SOL     OW76930   1.183   8.149   7.715 -0.3560  0.2445  0.5275
21624SOL    HW176931   1.177   8.201   7.630  1.1733 -1.0875 -0.4312
21624SOL    HW276932   1.221   8.207   7.787 -0.7319  1.1033  0.0391
21625SOL     OW76933   7.259   3.306   2.241  0.6663 -0.0736  0.7128
21625SOL    HW176934   7.306   3.391   2.218 -1.0806  0.9370  0.7771
21625SOL    HW276935   7.249   3.298   2.340 -0.4600  0.3891  0.6501
21626SOL     OW76936   8.677   9.729   6.792  0.1617 -0.5027 -0.2568
21626SOL    HW176937   8.677   9.631   6.810  1.4838 -0.3847  0.4118
21626SOL    HW276938   8.680   9.745   6.693  2.7189 -1.1332 -0.2959
21627SOL     OW76939   2.038   7.956   4.147 -0.4021  0.9010 -0.1489
21627SOL    HW176940   2.048   8.055   4.134  0.7246  0.7052 -0.8392
21627SOL    HW276941   2.099   7.926   4.221 -0.2118  0.6132 -0.4210
21628SOL     OW76942   5.574   9.646   5.692  0.4499  0.4864  0.2181
21628SOL    HW176943   5.492   9.589   5.691 -0.2406  1.4869 -0.3064
21628SOL    HW276944   5.630   9.626   5.611  0.5241  0.1049  0.3619
21629SOL     OW76945   7.799   5.185   1.553 -0.0278  0.0169  0.2140
21629SOL    HW176946   7.790   5.277   1.516  2.0389 -0.0446 -0.5136
21629SOL    HW276947   7.760   5.119   1.489 -0.3565  0.2733  0.1509
21630SOL     OW76948   9.427   2.037   7.245  0.0847 -0.0261 -0.4509
21630SOL    HW176949   9.332   2.023   7.217  0.8286 -0.6004 -2.7907
21630SOL    HW276950   9.471   1.948   7.258  0.2527  0.2417  0.8114
21631SOL     OW76951   0.788   0.225   5.894 -0.3237  0.1721  0.5619
21631SOL    HW176952   0.719   0.282   5.939 -0.6259  1.1756 -1.1045
21631SOL    HW276953   0.870   0.221   5.950 -1.2919 -0.0000  1.9830
21632SOL     OW76954   0.279   5.419   0.044 -0.2327 -0.1148 -0.6035
21632SOL    HW176955   0.350   5.457  -0.016  0.0254 -0.7669 -0.7108
21632SOL    HW276956   0.293   5.452   0.137  1.0136 -1.3185 -0.3568
21633SOL     OW76957   7.848   9.841   3.747  0.0788  0.2068  0.2512
21633SOL    HW176958   7.843   9.778   3.825 -1.4409 -0.9571 -0.7689
21633SOL    HW276959   7.854   9.789   3.662 -0.7894  1.4398 -0.5772
21634SOL     OW76960   8.919   0.955   8.143 -0.3261 -0.4351  0.4721
21634SOL    HW176961   8.863   0.874   8.159  1.4663 -1.3247  2.6565
21634SOL    HW276962   9.013   0.935   8.170  0.2385  2.2362  0.5617
21635SOL     OW76963   8.543   7.014   2.572 -0.4621  0.4590  0.3120
21635SOL    HW176964   8.509   7.080   2.639 -1.0641 -2.0086  2.5084
21635SOL    HW276965   8.640   6.998   2.587  0.0764  2.0273 -1.2892
21636SOL     OW76966   8.908   1.822   2.785  0.4520  0.3247  0.2416
21636SOL    HW176967   8.994   1.869   2.766 -0.6251  2.1442 -0.3020
21636SOL    HW276968   8.841   1.845   2.714 -1.1219  0.6161  1.7820
21637SOL     OW76969   4.595   7.616   6.176 -0.1733  0.0089  0.5077
21637SOL    HW176970   4.558   7.655   6.092 -0.4349 -0.3871  0.4383
21637SOL    HW276971   4.636   7.527   6.155  2.6469  1.3179  0.1743
21638SOL     OW76972   3.594   5.178   8.466  0.0577  0.1971  0.3202
21638SOL    HW176973   3.677   5.225   8.496 -0.3259  1.3303 -0.3421
21638SOL    HW276974   3.596   5.083   8.496  0.5359  0.8057  2.3205
21639SOL     OW76975   4.435   7.628   7.482  0.0846 -0.0302 -0.7483
21639SOL    HW176976   4.525   7.584   7.474  0.8732  1.7362 -1.9961
21639SOL    HW276977   4.364   7.561   7.465  1.1879 -1.3297 -0.3492
21640SOL     OW76978   2.718   8.030   9.477 -1.2254  0.0917 -0.4211
21640SOL    HW176979   2.747   8.111   9.426 -1.1704  0.2806 -0.0921
21640SOL    HW276980   2.627   8.046   9.516 -2.1133 -0.7823 -2.0925
21641SOL     OW76981   9.325   9.908   4.573  0.0989  0.1556 -0.3734
21641SOL    HW176982   9.419   9.909   4.607 -0.0589  0.9494  0.0274
21641SOL    HW276983   9.281   9.823   4.600  0.2831  0.3567  0.5521
21642SOL     OW76984   4.892   9.067   8.120  0.1722 -0.3841  0.1631
21642SOL    HW176985   4.819   9.123   8.079  0.1909 -0.9481 -0.6363
21642SOL    HW276986   4.965   9.127   8.153  0.0594  0.0836 -0.4334
21643SOL     OW76987   1.730   6.611   8.702 -0.1600  0.1020 -0.2394
21643SOL    HW176988   1.779   6.648   8.781 -1.0648  1.9029 -0.5042
21643SOL    HW276989   1.635   6.593   8.728 -0.3860  0.4357 -0.8277
21644SOL     OW76990   9.302   0.375   7.151 -0.2088  0.1521 -0.2033
21644SOL    HW176991   9.229   0.309   7.166 -0.3674 -0.1896 -2.3482
21644SOL    HW276992   9.391   0.328   7.155 -0.2373  0.1165 -0.0149
21645SOL     OW76993   9.291   1.605   7.253  0.9769 -0.3577 -0.1753
21645SOL    HW176994   9.296   1.585   7.155 -0.4548 -0.0689 -0.3138
21645SOL    HW276995   9.316   1.522   7.305 -2.4361 -1.8532 -0.7756
21646SOL     OW76996   6.194   0.781   2.397  0.7024  0.1419 -0.2513
21646SOL    HW176997   6.206   0.686   2.427  0.8301  0.5800  1.1076
21646SOL    HW276998   6.114   0.820   2.441  0.6761  0.6808 -0.7759
21647SOL     OW76999   3.514   5.065  10.012 -0.4683 -0.8714 -0.1599
21647SOL    HW177000   3.481   5.140   9.955 -0.6798 -0.0939  0.9796
21647SOL    HW277001   3.529   5.097  10.105  3.1085 -1.2604 -0.4996
21648SOL     OW77002   9.560   8.841   8.353  0.0975  0.0130 -0.5236
21648SOL    HW177003   9.622   8.832   8.431  0.2170 -0.3360 -0.6579
21648SOL    HW277004   9.528   8.750   8.325 -0.4839  0.1953 -0.4509
21649SOL     OW77005   0.053   5.701   4.359 -0.1091 -0.5012 -0.0032
21649SOL    HW177006   0.008   5.733   4.275  0.3022  0.9747  0.3191
21649SOL    HW277007   0.056   5.601   4.359  0.9651 -0.5118 -2.3117
21650SOL     OW77008   6.935   9.909   3.786 -0.3779  0.1808 -0.3232
21650SOL    HW177009   6.911   9.987   3.728  0.2386  0.6970  0.1073
21650SOL    HW277010   6.893   9.920   3.876  2.1720  1.5460  0.7365
21651SOL     OW77011   4.567   0.951   7.282 -0.2648 -0.1975 -0.4921
21651SOL    HW177012   4.623   0.968   7.363 -1.0264 -1.3972  0.3002
21651SOL    HW277013   4.625   0.938   7.202  0.6004 -1.7844  0.3887
21652SOL     OW77014   1.543   5.330   2.197 -0.1046 -0.2568 -0.1500
21652SOL    HW177015   1.507   5.321   2.290 -0.6594 -0.6698 -0.4050
21652SOL    HW277016   1.527   5.246   2.146  1.0071 -0.3527 -0.3482
21653SOL     OW77017   5.090   3.352   0.021 -0.7364 -0.1025  0.8289
21653SOL    HW177018   5.155   3.361   0.096  0.1217 -0.5330  0.1535
21653SOL    HW277019   5.140   3.354  -0.066 -1.4106 -2.3022  0.3483
21654SOL     OW77020   8.763   4.898   6.820 -0.7019 -0.1015  0.2423
21654SOL    HW177021   8.757   4.968   6.891 -0.0502  0.2071 -0.0070
21654SOL    HW277022   8.684   4.837   6.827 -0.8670  0.1884  0.9537
21655SOL     OW77023   9.230   7.621   1.172  0.0168  0.0641 -0.4396
21655SOL    HW177024   9.183   7.593   1.255  0.6042  0.6069  0.0832
21655SOL    HW277025   9.326   7.643   1.193 -0.0130  0.8859 -1.1139
21656SOL     OW77026   1.457   4.964   5.918 -0.4021 -0.4681 -0.1011
21656SOL    HW177027   1.536   4.904   5.918  0.9801  1.3100  1.3735
21656SOL    HW277028   1.373   4.908   5.918  0.8162 -2.4490  3.4681
21657SOL     OW77029   8.171   7.156   2.303 -0.2404 -0.2077 -0.1212
21657SOL    HW177030   8.212   7.097   2.373  0.5079  0.4639  0.0137
21657SOL    HW277031   8.120   7.100   2.238 -0.1871 -0.9253  0.4502
21658SOL     OW77032   8.268   9.514   5.423  0.4087 -0.0743 -0.2027
21658SOL    HW177033   8.225   9.433   5.385 -1.1032 -0.3788  2.0632
21658SOL    HW277034   8.315   9.490   5.508  0.3743  1.3204  0.2288
21659SOL     OW77035   7.498   1.062   6.666  0.3689 -0.7415  0.5727
21659SOL    HW177036   7.415   1.053   6.720  0.0523 -0.8195  0.0792
21659SOL    HW277037   7.556   1.133   6.706 -0.3270 -0.0804  0.4302
21660SOL     OW77038   1.252   1.513   9.917  0.6929 -0.2970 -0.4044
21660SOL    HW177039   1.203   1.582   9.865 -0.9830 -1.8420 -0.9329
21660SOL    HW277040   1.285   1.441   9.855  1.5428 -0.4937  0.2622
21661SOL     OW77041   0.454   7.426   3.918 -0.0908 -0.2632  0.2652
21661SOL    HW177042   0.387   7.487   3.961  0.0827 -0.6324  1.0710
21661SOL    HW277043   0.535   7.478   3.892  0.2729 -0.2394  1.4276
21662SOL     OW77044   2.974   3.968   7.134 -0.5731  0.2040 -0.2785
21662SOL    HW177045   2.924   4.026   7.200 -1.5515 -0.5519 -0.3419
21662SOL    HW277046   2.939   3.874   7.139  0.7588 -0.3048 -0.4346
21663SOL     OW77047   9.936   2.602   4.895  0.2347  0.0599  0.3535
21663SOL    HW177048   9.974   2.563   4.812 -1.1901  0.0244 -0.2860
21663SOL    HW277049   9.885   2.533   4.945 -1.1357  0.7327 -0.0862
21664SOL     OW77050   2.463   1.357   2.176  0.1948  0.0930 -0.2275
21664SOL    HW177051   2.547   1.396   2.139 -1.0885  1.4830 -1.7100
21664SOL    HW277052   2.464   1.366   2.276  0.6238  2.4891 -0.4223
21665SOL     OW77053   7.950   7.045   7.916  0.2085  0.0413  0.0820
21665SOL    HW177054   7.937   7.046   8.015  0.7634  0.5472  0.1486
21665SOL    HW277055   7.878   6.990   7.874 -1.7704  2.2503  0.4933
21666SOL     OW77056   2.428   3.471   7.976 -0.0943 -0.1568  0.7513
21666SOL    HW177057   2.393   3.377   7.977 -0.5236  0.0013  0.8081
21666SOL    HW277058   2.357   3.533   8.008 -1.0072  0.5805 -2.5224
21667SOL     OW77059   3.764   1.757   9.643 -0.2810  0.0130 -0.1366
21667SOL    HW177060   3.774   1.754   9.544  0.2309  1.5903 -0.1449
21667SOL    HW277061   3.850   1.789   9.684 -0.2698 -1.2812  0.8600
21668SOL     OW77062   9.744   3.693   5.478  0.3039 -0.0598 -0.2431
21668SOL    HW177063   9.686   3.769   5.507  2.5803  2.0363 -0.9780
21668SOL    HW277064   9.791   3.718   5.393  3.3898 -1.0763  1.1051
21669SOL     OW77065   3.716   4.866   0.043 -0.3963  0.0158 -1.0073
21669SOL    HW177066   3.747   4.882   0.137  0.0330 -2.4771 -0.6878
21669SOL    HW277067   3.634   4.921   0.025 -1.3226 -0.5519  1.3017
21670SOL     OW77068   4.451   7.405   0.704 -0.5276 -0.0886 -0.0758
21670SOL    HW177069   4.503   7.376   0.624  0.4140 -1.1637  0.9072
21670SOL    HW277070   4.353   7.409   0.681 -0.3343 -1.0397 -1.0920
21671SOL     OW77071   9.971   6.773   0.290  0.5199  0.1505 -0.5969
21671SOL    HW177072   9.972   6.737   0.197 -1.3638 -1.2086 -0.1259
21671SOL    HW277073   9.983   6.872   0.287 -0.5602  0.2634 -2.3750
21672SOL     OW77074   7.938   0.766   8.000  0.2158 -0.3900  0.0940
21672SOL    HW177075   7.870   0.700   8.030  0.0665  0.1289  0.9222
21672SOL    HW277076   7.931   0.849   8.056  1.0110 -0.0329 -0.3233
21673SOL     OW77077   6.844   7.297   8.302 -0.4252 -0.1143 -0.8976
21673SOL    HW177078   6.771   7.297   8.234  0.8997 -0.0027 -2.3563
21673SOL    HW277079   6.896   7.212   8.295  0.5016  0.4432 -0.9081
21674SOL     OW77080   8.859   2.717   8.117 -0.3304  0.3189  0.0123
21674SOL    HW177081   8.895   2.668   8.197 -0.5550 -0.8844 -0.6047
21674SOL    HW277082   8.804   2.654   8.062  1.0962  0.7152 -1.9162
21675SOL     OW77083   4.395   8.253   1.571  0.2773 -0.2102 -0.4023
21675SOL    HW177084   4.349   8.338   1.597 -1.2042 -1.5345  1.3625
21675SOL    HW277085   4.484   8.275   1.531  0.0139  2.1626  0.2335
21676SOL     OW77086   8.551   3.624   2.691  0.8292 -0.2917  0.0633
21676SOL    HW177087   8.511   3.533   2.700 -2.1697  1.0912  1.4586
21676SOL    HW277088   8.599   3.631   2.604 -1.2387 -2.3420 -1.2953
21677SOL     OW77089   2.273   4.837   9.693 -0.4346  0.2216 -0.0925
21677SOL    HW177090   2.347   4.868   9.634 -0.8692  0.4331 -0.5273
21677SOL    HW277091   2.187   4.836   9.642 -0.4894 -1.3996 -0.0200
21678SOL     OW77092   8.077   5.169   2.712  0.3588 -0.0068  0.8012
21678SOL    HW177093   8.097   5.214   2.799  1.7688  0.8609  0.0508
21678SOL    HW277094   7.978   5.170   2.696  0.2327  1.4160  1.5665
21679SOL     OW77095   9.745   5.675   8.073 -0.2316  0.3578  0.1276
21679SOL    HW177096   9.750   5.750   8.007 -0.4972 -0.0416 -0.3534
21679SOL    HW277097   9.649   5.654   8.092 -0.1548  0.5537  0.7368
21680SOL     OW77098   8.587   3.926   4.686 -0.7402  0.2954  0.2829
21680SOL    HW177099   8.639   3.963   4.763 -0.2821 -1.2611  0.7373
21680SOL    HW277100   8.580   3.995   4.614  3.1582  0.0911 -0.3999
21681SOL     OW77101   5.731   3.143   9.362 -0.6218 -0.6238 -0.6137
21681SOL    HW177102   5.805   3.145   9.429  0.0212 -0.1854 -1.3184
21681SOL    HW277103   5.648   3.183   9.402 -0.6659 -1.6892  0.3857
21682SOL     OW77104   3.847   1.567   9.901 -0.2073 -0.4097 -0.0608
21682SOL    HW177105   3.844   1.666   9.906 -0.5797 -0.4776  1.5013
21682SOL    HW277106   3.762   1.529   9.940  0.5486 -1.3668  0.6835
21683SOL     OW77107   8.395   5.703   9.154 -0.1786  0.2599 -0.3125
21683SOL    HW177108   8.344   5.630   9.201 -0.9523  0.1477 -1.3185
21683SOL    HW277109   8.440   5.761   9.222  1.3473 -1.7941  0.4727
21684SOL     OW77110   2.383   0.744   6.469 -0.0245  0.4705 -0.3655
21684SOL    HW177111   2.353   0.669   6.410  0.1255  2.1278 -2.6268
21684SOL    HW277112   2.339   0.736   6.559 -0.3145 -2.0647 -0.7046
21685SOL     OW77113   1.040   9.726   7.754 -0.1587  0.5692  0.6573
21685SOL    HW177114   1.030   9.728   7.655 -0.4862 -0.6677  0.6505
21685SOL    HW277115   1.114   9.787   7.782 -0.6784  1.6354 -0.2543
21686SOL     OW77116   2.334   8.892   5.740  0.1947 -0.0537  0.0132
21686SOL    HW177117   2.298   8.841   5.662  0.7607 -0.4273 -0.0052
21686SOL    HW277118   2.353   8.986   5.713 -0.8361  0.1775  0.0414
21687SOL     OW77119   2.256   1.645   8.776  0.0479 -0.1136 -0.0395
21687SOL    HW177120   2.330   1.600   8.825  1.7171 -0.4623 -2.7755
21687SOL    HW277121   2.294   1.717   8.718 -2.0742  1.5582  0.5662
21688SOL     OW77122   0.634   2.125   7.618  0.2698 -0.4826 -0.3920
21688SOL    HW177123   0.583   2.107   7.534  0.6126 -0.7080 -0.5496
21688SOL    HW277124   0.656   2.223   7.623 -1.0987 -0.1877  0.1955
21689SOL     OW77125   3.171   4.070   5.183 -0.1525  0.9444 -0.4522
21689SOL    HW177126   3.091   4.083   5.243 -0.4396  0.1661 -0.6572
21689SOL    HW277127   3.146   4.009   5.108  0.4922  1.1200 -0.8078
21690SOL     OW77128   1.334   1.904   1.551 -0.3359 -0.1845  0.3529
21690SOL    HW177129   1.247   1.873   1.590 -0.4024 -0.2262  0.1679
21690SOL    HW277130   1.407   1.846   1.585 -0.4256 -0.3708  0.2291
21691SOL     OW77131   6.040   5.306   7.063  0.3712  0.3203 -0.5826
21691SOL    HW177132   6.043   5.290   7.161 -0.6392 -2.9440 -1.0460
21691SOL    HW277133   5.988   5.390   7.044 -1.0084 -0.0162  1.5828
21692SOL     OW77134   6.754   9.146   3.279  0.1227 -0.1217 -0.1072
21692SOL    HW177135   6.757   9.246   3.286  0.3306 -0.2676  2.3122
21692SOL    HW277136   6.789   9.106   3.363 -3.0017 -2.2386  0.2593
21693SOL     OW77137   3.819   7.262   6.017  0.1301 -0.0191  0.1657
21693SOL    HW177138   3.777   7.172   6.030  2.8289 -1.5264 -0.9633
21693SOL    HW277139   3.758   7.320   5.963 -1.5877 -1.2107  0.7791
21694SOL     OW77140   5.833   1.459   5.030 -0.4593 -0.1143  0.6211
21694SOL    HW177141   5.907   1.408   4.986 -0.2569  0.3280  0.4432
21694SOL    HW277142   5.793   1.523   4.964 -1.1479 -0.5073  0.6545
21695SOL     OW77143   6.882   3.190   1.021 -0.1733  0.3431 -0.0671
21695SOL    HW177144   6.946   3.145   1.083 -2.6505 -1.8876  0.9717
21695SOL    HW277145   6.922   3.196   0.929  1.8668 -0.1711  0.7777
21696SOL     OW77146   8.327   6.937   5.901  0.2138  0.0534 -0.0102
21696SOL    HW177147   8.266   6.871   5.858 -2.1536  0.0994  3.1259
21696SOL    HW277148   8.315   7.027   5.858 -0.0352 -0.4840 -1.0863
21697SOL     OW77149   2.708   8.480   5.108 -0.1192 -0.5676 -0.3377
21697SOL    HW177150   2.723   8.577   5.130 -1.3796 -0.0021 -1.9108
21697SOL    HW277151   2.793   8.429   5.123  0.7225  0.8914 -0.0611
21698SOL     OW77152   0.216   5.162   7.663 -0.1988 -0.3057 -0.3382
21698SOL    HW177153   0.118   5.150   7.649 -0.3085  0.8724 -0.6537
21698SOL    HW277154   0.245   5.248   7.622  1.2201 -1.2727 -1.3831
21699SOL     OW77155   9.410   7.159   4.136  0.6288 -0.0888  0.2622
21699SOL    HW177156   9.443   7.092   4.069  1.0967  0.8350 -0.4422
21699SOL    HW277157   9.320   7.191   4.108  0.7898  0.2380  0.1149
21700SOL     OW77158   4.823   3.595   0.739  0.2752  0.0027 -0.0217
21700SOL    HW177159   4.831   3.675   0.799  1.8485 -1.3772  1.6595
21700SOL    HW277160   4.846   3.621   0.646  0.2043  1.6436  0.3982
21701SOL     OW77161   7.118   3.819   1.542 -0.2328 -0.2154 -0.1810
21701SOL    HW177162   7.094   3.831   1.446 -1.3694 -0.7797  0.0205
21701SOL    HW277163   7.161   3.729   1.554  1.4150  0.5221 -0.4282
21702SOL     OW77164   0.298   6.467   6.026 -0.0243 -0.1069 -0.3322
21702SOL    HW177165   0.233   6.542   6.029 -0.0618 -0.1986  1.4685
21702SOL    HW277166   0.322   6.439   6.119  0.8124 -1.6082 -0.9746
21703SOL     OW77167   7.991   6.573   0.224 -0.8142  0.2521 -0.5515
21703SOL    HW177168   8.060   6.556   0.154 -0.7335  1.5659 -0.8095
21703SOL    HW277169   7.975   6.490   0.277  0.6088 -0.1893 -0.8112
21704SOL     OW77170   2.284   5.821   9.172  0.2587 -0.3264 -0.2654
21704SOL    HW177171   2.251   5.915   9.182  2.3013  0.4565 -0.7267
21704SOL    HW277172   2.274   5.773   9.259 -0.9388  0.2450 -0.0633
21705SOL     OW77173   9.122   8.939   1.415  0.1771  0.3854 -0.1204
21705SOL    HW177174   9.071   8.991   1.483  0.3927  0.8076 -0.2808
21705SOL    HW277175   9.142   8.848   1.451 -1.0746  0.0583 -0.2302
21706SOL     OW77176   1.386   6.165   1.471 -0.3225  0.2987  0.0165
21706SOL    HW177177   1.477   6.142   1.439 -1.0490 -0.8583 -1.2942
21706SOL    HW277178   1.362   6.110   1.551  0.3079  0.9570  0.6618
21707SOL     OW77179   3.696   3.111   1.614 -0.2479  0.6070  0.4588
21707SOL    HW177180   3.746   3.181   1.562 -1.3004  0.6543 -0.5167
21707SOL    HW277181   3.746   3.024   1.609  1.9036  1.6338  3.0217
21708SOL     OW77182   8.299   6.459   2.976 -0.6301 -0.4744  0.1668
21708SOL    HW177183   8.394   6.431   2.988 -0.4688 -0.0528 -0.1382
21708SOL    HW277184   8.295   6.554   2.945 -1.1964  0.0339  1.7368
21709SOL     OW77185   4.724   5.746   4.032 -0.1042  0.3993 -0.7870
21709SOL    HW177186   4.716   5.676   3.961 -0.6153 -0.0784 -0.2604
21709SOL    HW277187   4.721   5.703   4.122  0.7804  0.9876 -0.4739
21710SOL     OW77188   6.055   1.254   5.835  0.2715 -0.1460 -0.4487
21710SOL    HW177189   5.976   1.195   5.820  1.3276 -1.1873 -1.9490
21710SOL    HW277190   6.052   1.331   5.770 -0.9791  1.3628  1.3452
21711SOL     OW77191   2.839   4.699   3.777  0.0756 -0.1170  0.4572
21711SOL    HW177192   2.806   4.726   3.687  0.0005  1.3595  0.9066
21711SOL    HW277193   2.765   4.705   3.844  0.2347 -0.7919  0.7006
21712SOL     OW77194   9.268   0.705   0.337  0.5457  0.1929 -0.5073
21712SOL    HW177195   9.245   0.788   0.286 -0.9345 -0.8005 -1.5114
21712SOL    HW277196   9.235   0.714   0.431 -0.8609  0.2107 -0.9846
21713SOL     OW77197   4.076   2.486   6.781 -0.8772 -0.7957  0.1153
21713SOL    HW177198   3.991   2.436   6.763 -1.2171 -0.5585  1.0111
21713SOL    HW277199   4.055   2.569   6.833 -0.4651  0.8709 -2.2934
21714SOL     OW77200   6.081   2.159   5.226 -0.2615 -0.1103  0.4645
21714SOL    HW177201   5.995   2.121   5.194 -1.0914  1.4615  0.7716
21714SOL    HW277202   6.155   2.134   5.164 -1.7096  2.3263 -2.3600
21715SOL     OW77203   2.337   9.671   2.420  0.4402 -0.2258 -0.0111
21715SOL    HW177204   2.419   9.623   2.389  1.0217  0.0249  1.1004
21715SOL    HW277205   2.261   9.650   2.360  1.2077 -0.8425 -0.7776
21716SOL     OW77206   9.941   7.014   1.268  0.2821 -0.6658 -0.1677
21716SOL    HW177207   9.895   7.098   1.298  0.5408 -0.3845 -0.5390
21716SOL    HW277208  10.030   7.007   1.314 -0.4233 -1.5721  1.0835
21717SOL     OW77209   2.396   1.413   8.020 -0.5105  0.2241  0.5143
21717SOL    HW177210   2.392   1.353   8.100  0.6971 -2.6560 -1.4662
21717SOL    HW277211   2.304   1.439   7.992 -1.0079 -0.0587  1.8675
21718SOL     OW77212   3.224   0.945   3.541  0.4317 -0.5889  0.7961
21718SOL    HW177213   3.246   0.866   3.598  0.3451  0.1941  1.9266
21718SOL    HW277214   3.159   1.004   3.589  2.4723  1.5006  1.0873
21719SOL     OW77215   8.853   7.151   8.557 -0.2610  0.4670 -0.3965
21719SOL    HW177216   8.867   7.219   8.629 -0.3967 -1.2739  1.3427
21719SOL    HW277217   8.938   7.141   8.505  0.1214  1.1164  0.0874
21720SOL     OW77218   8.133   7.933   3.022  0.0468  0.6563  0.2804
21720SOL    HW177219   8.091   7.855   3.070 -0.0460  1.3618  1.3656
21720SOL    HW277220   8.232   7.926   3.030  0.4279 -2.8048 -5.0748
21721SOL     OW77221   2.982   5.251   5.627 -0.2797  0.0143  0.1927
21721SOL    HW177222   2.939   5.235   5.539  0.3687 -0.5410 -0.0250
21721SOL    HW277223   2.924   5.311   5.682 -0.6961  0.3454 -0.5974
21722SOL     OW77224   6.788   0.507   3.342 -0.2274 -0.6129  0.4771
21722SOL    HW177225   6.742   0.476   3.259  0.3077 -1.5499  0.5261
21722SOL    HW277226   6.882   0.472   3.343  0.0990  0.2722  0.9662
21723SOL     OW77227   7.292   7.798   4.441 -0.3181 -0.6043  0.1271
21723SOL    HW177228   7.390   7.787   4.457 -0.2925  1.7319  1.8655
21723SOL    HW277229   7.278   7.846   4.355  0.1460  0.4491  0.6282
21724SOL     OW77230   0.297   7.999   5.703  0.3207 -0.6535  0.9424
21724SOL    HW177231   0.265   8.066   5.771 -1.1214 -0.1536 -0.1920
21724SOL    HW277232   0.279   8.034   5.611  3.8374 -0.5488  0.2304
21725SOL     OW77233   9.945   6.441   6.136 -0.1817  0.1118 -0.2816
21725SOL    HW177234   9.994   6.524   6.109  1.0005  0.1940  2.0474
21725SOL    HW277235   9.855   6.466   6.173  0.5186  0.4415  1.2302
21726SOL     OW77236   0.957   5.535   2.982 -0.0602 -0.1045  0.1453
21726SOL    HW177237   0.929   5.455   2.929  0.1230  0.5987 -1.0370
21726SOL    HW277238   0.880   5.598   2.989  0.1450  0.1591  0.0394
21727SOL     OW77239   8.485   8.455   3.348 -0.0722  0.2307 -0.1731
21727SOL    HW177240   8.537   8.444   3.433 -1.0113  2.9570  0.8194
21727SOL    HW277241   8.401   8.402   3.354 -0.7651  1.4444  1.1773
21728SOL     OW77242   6.714   6.552   2.423 -0.1615 -0.3224 -0.1893
21728SOL    HW177243   6.796   6.502   2.450 -0.7785 -0.3770  1.6317
21728SOL    HW277244   6.633   6.495   2.441 -0.7968  0.8745  0.7894
21729SOL     OW77245   3.008   2.218   5.697  0.1159 -0.2640 -0.4832
21729SOL    HW177246   3.006   2.311   5.659 -1.6317 -0.6254 -1.3093
21729SOL    HW277247   3.093   2.173   5.669 -0.2876  0.1286 -2.4582
21730SOL     OW77248   0.899   6.955   4.018 -0.3188  0.0013  0.4974
21730SOL    HW177249   0.821   6.894   4.027 -0.7881  0.4316 -0.5188
21730SOL    HW277250   0.887   7.012   3.937  1.6409 -0.7751 -0.3598
21731SOL     OW77251   4.872   9.539   2.364  0.8669 -0.3969 -0.1012
21731SOL    HW177252   4.796   9.565   2.424  1.8458  2.5275 -0.0513
21731SOL    HW277253   4.938   9.484   2.416  0.1498 -0.6052  0.6028
21732SOL     OW77254   8.673   5.016   9.204  0.2618 -0.2507 -0.9249
21732SOL    HW177255   8.757   5.071   9.199  0.5273 -0.6922 -1.4571
21732SOL    HW277256   8.595   5.072   9.180  0.1450  0.7111  1.6137
21733SOL     OW77257   4.632   7.235   0.978  0.0005 -0.3041 -0.3118
21733SOL    HW177258   4.591   7.310   0.927 -1.5550 -0.3109  0.9078
21733SOL    HW277259   4.684   7.272   1.055 -0.5119 -0.4586  0.1090
21734SOL     OW77260   2.031   4.544   2.244  0.0134 -0.1128 -0.0584
21734SOL    HW177261   2.028   4.640   2.217  1.0705 -0.2738 -0.7795
21734SOL    HW277262   2.126   4.513   2.246 -0.2001 -0.7409  1.6417
21735SOL     OW77263   8.429   5.928   5.944 -0.4003 -0.0886  0.3921
21735SOL    HW177264   8.511   5.981   5.962 -1.1473  1.3893 -0.4449
21735SOL    HW277265   8.402   5.878   6.026  1.2200 -0.4349  0.7238
21736SOL     OW77266   8.211   4.270   7.693 -0.0925  0.0367 -0.2589
21736SOL    HW177267   8.286   4.329   7.721  0.7343 -0.9664 -0.3264
21736SOL    HW277268   8.139   4.325   7.652  0.6002  1.0109 -0.1855
21737SOL     OW77269   8.745   8.695   0.242  0.4823 -0.2013 -0.5374
21737SOL    HW177270   8.729   8.682   0.145  0.1368  1.3329 -0.7063
21737SOL    HW277271   8.828   8.750   0.256 -0.1842  0.7024 -0.0278
21738SOL     OW77272   0.436   6.818   0.423  0.2041 -0.5322 -0.1857
21738SOL    HW177273   0.410   6.905   0.379 -0.9191 -0.5082  0.4907
21738SOL    HW277274   0.355   6.759   0.428  1.2429 -2.1637 -1.8484
21739SOL     OW77275   0.714   9.655   6.186 -0.0310 -0.3868  0.0292
21739SOL    HW177276   0.669   9.575   6.148 -1.2137  0.5166 -0.4858
21739SOL    HW277277   0.651   9.732   6.187  1.2062  0.6458  0.1907
21740SOL     OW77278   4.304   0.364   0.184 -0.2081 -0.2138 -0.1577
21740SOL    HW177279   4.350   0.276   0.197 -0.8184 -0.4385  0.5703
21740SOL    HW277280   4.230   0.354   0.119 -0.9592 -0.4937  0.7339
21741SOL     OW77281   2.725   0.004   1.312  0.1127  0.0047 -0.0954
21741SOL    HW177282   2.713  -0.052   1.230 -0.0902  0.9328 -0.7018
21741SOL    HW277283   2.821   0.003   1.339  0.0617 -0.8876  0.0894
21742SOL     OW77284   3.735   1.086   4.748 -0.4788 -0.3068 -0.6299
21742SOL    HW177285   3.719   1.122   4.656 -1.8061 -0.1174 -0.3278
21742SOL    HW277286   3.759   0.989   4.742 -3.1037 -0.9580 -1.0154
21743SOL     OW77287   6.651   0.714   9.123  0.4598 -0.2193  1.2954
21743SOL    HW177288   6.636   0.627   9.170  0.1168 -0.7548  0.2045
21743SOL    HW277289   6.571   0.736   9.067 -0.2176  1.7033  2.9502
21744SOL     OW77290   1.583   2.344   6.495  0.3211 -0.0206 -0.2747
21744SOL    HW177291   1.564   2.322   6.590  1.3612  3.5779  0.8340
21744SOL    HW277292   1.500   2.334   6.440 -0.7483 -0.1833  1.3578
21745SOL     OW77293   7.691   1.877   4.980  0.2270  0.3884 -0.4765
21745SOL    HW177294   7.599   1.846   5.005  1.2269 -0.8623  1.8053
21745SOL    HW277295   7.715   1.957   5.035  0.7334  0.3357 -0.6222
21746SOL     OW77296   3.305   1.580   8.792 -0.2742 -0.2977 -0.5018
21746SOL    HW177297   3.384   1.554   8.737  0.2549  1.1399 -0.4432
21746SOL    HW277298   3.247   1.500   8.807  0.1061 -0.9358 -2.2657
21747SOL     OW77299   3.772   6.576   1.798 -0.1432 -0.0826 -0.2122
21747SOL    HW177300   3.834   6.587   1.721 -1.2514  1.2228 -0.9412
21747SOL    HW277301   3.688   6.628   1.781 -0.4111  0.2101  1.8717
21748SOL     OW77302   5.860   2.572   1.491  0.0020 -0.0152 -0.0956
21748SOL    HW177303   5.831   2.612   1.578  0.3648 -2.3940  1.1661
21748SOL    HW277304   5.859   2.642   1.419  1.9219  2.5430  2.2910
21749SOL     OW77305   9.588   8.742   9.456  0.2811 -0.4941 -0.1944
21749SOL    HW177306   9.498   8.703   9.472  0.3297 -1.1090 -1.3414
21749SOL    HW277307   9.612   8.805   9.530 -2.3254  1.9481 -1.3077
21750SOL     OW77308   2.209   3.246   6.531 -0.5305  0.4483  0.2085
21750SOL    HW177309   2.223   3.345   6.529  0.7357  0.3069 -3.3259
21750SOL    HW277310   2.176   3.218   6.621  1.3551  3.7654  2.0292
21751SOL     OW77311   1.006   5.080   4.547 -0.1403 -0.6929 -0.3631
21751SOL    HW177312   0.921   5.053   4.502 -1.9854  0.8250  2.0652
21751SOL    HW277313   1.061   4.999   4.565 -1.7719 -1.8852 -0.6204
21752SOL     OW77314   1.834   9.269   6.546 -0.5999 -0.1104  0.2181
21752SOL    HW177315   1.777   9.188   6.537  2.0590 -1.8894 -1.1274
21752SOL    HW277316   1.918   9.246   6.595  1.0889  1.2930 -1.8796
21753SOL     OW77317   1.315   2.017   8.554 -0.6031 -0.6455  0.1031
21753SOL    HW177318   1.243   2.047   8.616  0.7339 -0.6821  1.7101
21753SOL    HW277319   1.300   2.057   8.463 -2.1932 -0.0281  0.6186
21754SOL     OW77320   3.830   4.773   9.088  0.2125  0.0160 -0.7129
21754SOL    HW177321   3.826   4.811   9.180  3.3177 -0.4077 -0.3387
21754SOL    HW277322   3.811   4.674   9.092 -0.5442  0.1639 -0.6558
21755SOL     OW77323   7.061   3.909   2.672 -0.0544 -0.1457 -0.4061
21755SOL    HW177324   6.994   3.911   2.597 -0.1883  0.5578 -0.2660
21755SOL    HW277325   7.023   3.955   2.752  1.8160  3.1235 -1.3288
21756SOL     OW77326   3.362   7.349   5.533  0.3456  0.6871  0.1858
21756SOL    HW177327   3.282   7.327   5.589 -0.5852  2.0179 -0.6004
21756SOL    HW277328   3.349   7.314   5.441  0.8628  0.5460  0.1639
21757SOL     OW77329   1.787   4.957   8.425  0.0412  0.3117 -0.1067
21757SOL    HW177330   1.882   4.964   8.456 -0.4963  0.8269  1.5137
21757SOL    HW277331   1.771   4.867   8.385  0.8457 -0.2902  0.9089
21758SOL     OW77332   2.347   8.822   9.677  0.2848 -0.1335  0.2435
21758SOL    HW177333   2.321   8.892   9.744 -1.3300 -1.6158  1.2072
21758SOL    HW277334   2.446   8.819   9.669  0.4188  1.3882  1.1423
21759SOL     OW77335   0.967   9.099   6.090  0.1368  0.3155 -0.5259
21759SOL    HW177336   0.973   9.168   6.018 -0.9123  1.0009  0.0303
21759SOL    HW277337   1.053   9.050   6.096  0.4994  0.7876 -1.7195
21760SOL     OW77338   2.972   4.956   8.270 -0.8722 -0.2739 -0.2572
21760SOL    HW177339   3.016   5.039   8.238 -2.7017  1.0459  0.5464
21760SOL    HW277340   2.875   4.958   8.246 -0.9398 -2.1726 -0.2152
21761SOL     OW77341   7.525   0.777   8.524  0.3595 -0.3638 -0.0247
21761SOL    HW177342   7.481   0.784   8.613 -1.3422  0.1067 -0.8765
21761SOL    HW277343   7.551   0.682   8.507 -2.7578 -1.1944 -0.5744
21762SOL     OW77344   5.165   1.398   0.400 -0.1715  0.0425  0.0491
21762SOL    HW177345   5.146   1.300   0.399  1.0172 -0.2269  1.7133
21762SOL    HW277346   5.085   1.448   0.369 -0.8133 -1.4536 -0.7331
21763SOL     OW77347   1.118   0.432   9.740  0.0440 -0.5473  0.0489
21763SOL    HW177348   1.087   0.425   9.835  1.2854  1.0216  0.6026
21763SOL    HW277349   1.142   0.342   9.706 -2.2388 -1.3980  0.5778
21764SOL     OW77350   0.795   9.779   8.725 -0.8537  0.0984 -0.2914
21764SOL    HW177351   0.752   9.827   8.648 -0.8135  0.9809  0.2331
21764SOL    HW277352   0.894   9.794   8.723 -0.5705 -1.7134 -1.3430
21765SOL     OW77353   4.523   7.255   1.551 -0.3870  0.2453  0.2401
21765SOL    HW177354   4.462   7.252   1.630  1.5671 -1.1154  1.7621
21765SOL    HW277355   4.573   7.341   1.551  0.2634 -0.1173  1.0404
21766SOL     OW77356   4.337   5.070   0.623 -0.5204 -0.2273 -0.6017
21766SOL    HW177357   4.361   4.978   0.652 -1.2308 -0.0186  0.6930
21766SOL    HW277358   4.237   5.078   0.617 -0.4582  0.4247 -0.8046
21767SOL     OW77359   6.902   3.409   0.377 -0.1188  0.9680  0.0584
21767SOL    HW177360   6.810   3.441   0.355  0.2111  2.4752  0.7622
21767SOL    HW277361   6.902   3.369   0.469 -0.2313  0.2221 -0.2611
21768SOL     OW77362   4.211   2.961   4.571 -0.1804  0.2105  0.3853
21768SOL    HW177363   4.265   2.877   4.577  0.4324  0.4996 -0.9302
21768SOL    HW277364   4.262   3.036   4.612  0.4980  0.5218 -1.0277
21769SOL     OW77365   7.068   2.662   4.712 -0.0662  0.2635 -0.3203
21769SOL    HW177366   7.027   2.580   4.752 -2.4241  1.6513  0.1771
21769SOL    HW277367   7.137   2.698   4.776 -0.4633 -0.1871  0.3730
21770SOL     OW77368   9.649   6.035   3.861  0.1775  0.4895 -0.3384
21770SOL    HW177369   9.561   6.029   3.908 -0.8218  1.4600 -2.0365
21770SOL    HW277370   9.706   6.105   3.905 -0.7068  1.3309 -0.5279
21771SOL     OW77371   0.797   1.562   3.427 -0.2240 -0.0878  0.1211
21771SOL    HW177372   0.755   1.631   3.485  0.4837 -0.1387  0.7104
21771SOL    HW277373   0.890   1.592   3.402  0.7242 -1.5596  1.7573
21772SOL     OW77374   1.938   1.618   9.896 -0.1121 -0.3076  0.3184
21772SOL    HW177375   2.032   1.586   9.906 -0.1337 -0.5737 -0.2719
21772SOL    HW277376   1.897   1.574   9.816 -0.4401  0.5059  0.0382
21773SOL     OW77377   1.338   9.396   2.973 -0.0644  0.1588 -0.5351
21773SOL    HW177378   1.383   9.435   2.893  1.8529  0.4370  0.6512
21773SOL    HW277379   1.398   9.404   3.052 -1.7196 -0.5988  0.8260
21774SOL     OW77380   0.718   2.977   0.311 -0.0982 -0.3980 -0.2000
21774SOL    HW177381   0.630   2.939   0.283 -0.0401 -1.3589  0.8606
21774SOL    HW277382   0.718   3.076   0.296 -1.3826 -0.3820 -0.1642
21775SOL     OW77383   1.396   9.027   6.235  0.1318 -0.2919  0.5105
21775SOL    HW177384   1.478   8.979   6.267  0.4538  0.0702  0.2281
21775SOL    HW277385   1.390   9.116   6.280 -1.0303 -1.0154  1.8343
21776SOL     OW77386   3.163   6.664   6.601  0.4416  0.1917 -0.0211
21776SOL    HW177387   3.097   6.589   6.613  1.5073 -0.8066 -0.3250
21776SOL    HW277388   3.227   6.664   6.678  0.0425  1.2179  0.3159
21777SOL     OW77389   3.057   6.362   5.782 -0.0567  0.0621 -0.1921
21777SOL    HW177390   3.113   6.375   5.700  1.5855  0.3670  0.9429
21777SOL    HW277391   3.023   6.268   5.784 -0.1063  0.0475 -1.2114
21778SOL     OW77392   5.765   3.584   2.106  1.0938 -0.2571 -0.4947
21778SOL    HW177393   5.824   3.611   2.030  0.9695 -0.0454 -0.5175
21778SOL    HW277394   5.751   3.485   2.104  1.2288 -0.2737 -0.6476
21779SOL     OW77395   0.190   1.425   7.759  0.2343 -0.0111  0.0956
21779SOL    HW177396   0.180   1.362   7.683 -1.4750 -1.1993  1.2557
21779SOL    HW277397   0.115   1.411   7.824  0.3964  2.5032  0.8985
21780SOL     OW77398   3.405   6.012   4.546 -0.2936 -0.1396  0.3953
21780SOL    HW177399   3.306   5.998   4.550 -0.3693  0.2911  0.1134
21780SOL    HW277400   3.441   5.970   4.462 -0.3909  0.5959 -0.0145
21781SOL     OW77401   8.463   4.917   1.567  0.4661  0.0782  0.6035
21781SOL    HW177402   8.514   4.939   1.484 -0.9977 -2.1641 -0.9684
21781SOL    HW277403   8.369   4.952   1.559 -0.0362 -1.1837  0.7525
21782SOL     OW77404   3.451   7.221   9.188 -1.1628 -0.2969 -0.0004
21782SOL    HW177405   3.452   7.273   9.273 -2.7875 -0.5532  0.1981
21782SOL    HW277406   3.362   7.176   9.177 -0.8825 -0.4912 -1.6987
21783SOL     OW77407   9.341   8.718   8.135 -0.0033  0.0232 -0.1522
21783SOL    HW177408   9.315   8.805   8.178  0.1263 -0.4336  0.8711
21783SOL    HW277409   9.393   8.664   8.200 -1.2228 -1.3909 -0.3270
21784SOL     OW77410   8.424   0.927   6.545  0.1003  0.5232  0.1917
21784SOL    HW177411   8.448   0.835   6.573 -1.0603  0.6878  1.7911
21784SOL    HW277412   8.408   0.984   6.626  1.4635  2.3181 -0.7505
21785SOL     OW77413   4.217   4.097   7.535  0.2951 -0.0595 -1.0362
21785SOL    HW177414   4.294   4.123   7.594 -0.4312  0.5085 -0.3291
21785SOL    HW277415   4.233   4.006   7.497  0.0895 -1.0716  1.2317
21786SOL     OW77416   3.675   4.979   1.793  0.4235  0.0487 -0.0207
21786SOL    HW177417   3.589   5.028   1.778 -0.8286 -1.4497  2.0067
21786SOL    HW277418   3.657   4.881   1.799  2.2834 -0.2842  0.3555
21787SOL     OW77419   7.633   4.112   4.959 -0.6211  0.2098 -0.0020
21787SOL    HW177420   7.637   4.036   5.025 -0.0763 -0.5949 -0.9576
21787SOL    HW277421   7.719   4.117   4.909 -0.9954  0.9058 -0.5757
21788SOL     OW77422   6.114   8.420   6.189 -0.4058 -0.0851  0.3943
21788SOL    HW177423   6.027   8.438   6.142 -0.4108 -0.7892  0.1329
21788SOL    HW277424   6.136   8.497   6.249 -0.2505  0.9584 -0.9879
21789SOL     OW77425   1.689   1.212   1.233  0.2056 -0.0580  0.1075
21789SOL    HW177426   1.757   1.270   1.188 -0.5595  1.1836  0.5322
21789SOL    HW277427   1.735   1.142   1.287  1.1373 -0.1043 -0.7462
21790SOL     OW77428   3.261   6.355   4.510  0.2877 -0.1569  0.2731
21790SOL    HW177429   3.198   6.323   4.439  1.0100  0.4980 -0.6668
21790SOL    HW277430   3.247   6.453   4.525 -0.6664 -0.5236  1.8624
21791SOL     OW77431   4.766   9.724   5.808 -0.5159 -0.6088 -0.4000
21791SOL    HW177432   4.733   9.653   5.745 -1.0049 -1.5859  0.9262
21791SOL    HW277433   4.753   9.694   5.902 -0.4002  1.1080  0.1920
21792SOL     OW77434   3.453   9.009   1.399  0.4817  0.4161  0.5427
21792SOL    HW177435   3.448   9.087   1.336 -0.1958 -1.3449 -1.6742
21792SOL    HW277436   3.549   8.988   1.418  0.6696  1.7014  1.0414
21793SOL     OW77437   4.373   3.417   5.599 -0.2183  0.1684 -0.3378
21793SOL    HW177438   4.309   3.456   5.666 -1.2582 -1.0227 -0.6216
21793SOL    HW277439   4.374   3.318   5.607  1.9316  0.1772 -0.0649
21794SOL     OW77440   8.502   9.458   8.535 -0.2759  0.4479  0.4639
21794SOL    HW177441   8.430   9.505   8.588 -0.1046  2.2106 -0.8069
21794SOL    HW277442   8.485   9.471   8.437 -0.1165 -2.0549  0.0860
21795SOL     OW77443   9.044   1.945   5.858  0.0106  0.1252  0.1115
21795SOL    HW177444   9.085   1.854   5.856  1.9964  1.0064  0.3038
21795SOL    HW277445   8.980   1.951   5.935  1.1222 -0.5640  1.0999
21796SOL     OW77446   9.966   2.155   8.418 -0.3954  0.5318 -0.2506
21796SOL    HW177447   9.960   2.127   8.513  0.9267  0.2619 -0.2480
21796SOL    HW277448   9.935   2.080   8.359 -1.8415  0.9267 -0.0258
21797SOL     OW77449   6.230   8.407   4.412  0.0819  0.1128  0.1438
21797SOL    HW177450   6.170   8.343   4.364  0.0288 -0.1496  0.5652
21797SOL    HW277451   6.187   8.497   4.413  0.5084  0.3501 -1.1432
21798SOL     OW77452   5.297   3.438   8.051 -0.2396  0.0416  0.6364
21798SOL    HW177453   5.319   3.488   7.967  0.5168  1.5799  1.7323
21798SOL    HW277454   5.354   3.355   8.055  0.4368  0.4683  0.1145
21799SOL     OW77455   1.253   2.504   7.736 -0.6916 -0.3096  0.2653
21799SOL    HW177456   1.349   2.489   7.710 -0.4206 -0.4624  1.3519
21799SOL    HW277457   1.216   2.421   7.776 -1.0246  0.0213  0.6446
21800SOL     OW77458   9.469   1.197   2.533  0.0046 -0.1783 -0.1586
21800SOL    HW177459   9.432   1.148   2.454 -0.7483  0.3240 -0.1242
21800SOL    HW277460   9.487   1.292   2.508 -1.4237  0.3075  0.6163
21801SOL     OW77461   6.227   4.981   9.152 -0.9054  0.0797  0.3843
21801SOL    HW177462   6.188   5.025   9.071 -0.4643 -0.6627 -0.2258
21801SOL    HW277463   6.262   4.891   9.128  1.9220  1.0303  0.7544
21802SOL     OW77464   6.240   8.534   7.501  0.0021 -0.7851  0.1597
21802SOL    HW177465   6.205   8.441   7.503 -0.3727 -0.6379  0.7734
21802SOL    HW277466   6.340   8.533   7.494 -0.0595 -1.2190 -0.6492
21803SOL     OW77467   9.269   4.971   6.520  0.3352 -0.2847  0.1602
21803SOL    HW177468   9.224   5.060   6.518  1.0151  0.0444 -0.3942
21803SOL    HW277469   9.335   4.968   6.596 -0.4028 -0.6741  0.8031
21804SOL     OW77470   1.173   7.225   9.018  0.3158  0.4437 -0.2433
21804SOL    HW177471   1.167   7.173   9.103  2.7559  0.2268 -0.1735
21804SOL    HW277472   1.228   7.175   8.952 -0.9163  0.9730 -1.7158
21805SOL     OW77473   0.478   9.715   7.132  0.1943  0.2616  0.1438
21805SOL    HW177474   0.444   9.721   7.038  0.7392  0.3263 -0.0483
21805SOL    HW277475   0.578   9.710   7.132  0.1386 -1.4486  0.6263
21806SOL     OW77476   7.216   7.008   3.060 -0.0848 -0.5684  0.0502
21806SOL    HW177477   7.244   7.079   3.125 -1.2250 -0.2430  0.2009
21806SOL    HW277478   7.297   6.960   3.026  0.7745  1.4820 -0.8482
21807SOL     OW77479   1.611   3.932   8.335  0.0898  0.4821 -0.4533
21807SOL    HW177480   1.687   3.978   8.381  0.3258 -0.6550  0.3227
21807SOL    HW277481   1.637   3.908   8.242  0.7852 -0.1692 -0.0928
21808SOL     OW77482   0.819   5.092   7.504 -0.3474 -0.4675 -0.5355
21808SOL    HW177483   0.840   5.104   7.601 -0.3267  0.0168 -0.5950
21808SOL    HW277484   0.892   5.040   7.460  0.3438  0.5032 -0.5708
21809SOL     OW77485   9.747   1.651   7.107  0.5395  0.2737 -0.1380
21809SOL    HW177486   9.753   1.646   7.206 -1.5471 -0.2725 -0.0243
21809SOL    HW277487   9.797   1.574   7.067  0.7389  0.0685  0.5001
21810SOL     OW77488   1.116   1.394   7.053  0.1684  0.2389 -0.1513
21810SOL    HW177489   1.200   1.432   7.091 -0.4238  1.0935  0.3231
21810SOL    HW277490   1.109   1.298   7.077  1.2122  0.0621 -0.5444
21811SOL     OW77491   5.017   9.905   9.568  0.5874  0.1137  0.3504
21811SOL    HW177492   4.947   9.923   9.637  0.0552 -3.5148  0.8540
21811SOL    HW277493   5.108   9.923   9.607  0.1974 -0.1835  1.4030
21812SOL     OW77494   8.047   5.714   0.541 -0.0496 -0.1122 -0.0216
21812SOL    HW177495   8.124   5.650   0.538  0.3816  0.4098 -0.1667
21812SOL    HW277496   7.995   5.700   0.625  0.6044  0.0028  0.4032
21813SOL     OW77497   2.327   2.540   0.960  0.2660  0.5771  0.1277
21813SOL    HW177498   2.265   2.474   1.004 -0.0313  0.7065 -0.0938
21813SOL    HW277499   2.421   2.505   0.964 -0.0159 -0.3339 -0.8600
21814SOL     OW77500   3.876   3.213   5.986 -0.0845  0.4796 -0.0109
21814SOL    HW177501   3.937   3.265   6.046 -0.5654 -0.3539  1.2181
21814SOL    HW277502   3.817   3.275   5.936  1.4852  1.2811 -0.9088
21815SOL     OW77503   7.627   4.340   1.820  0.3360 -0.3367 -0.1948
21815SOL    HW177504   7.590   4.431   1.801 -1.2228 -0.5838  1.6591
21815SOL    HW277505   7.722   4.337   1.789  0.1726  1.6694 -0.9898
21816SOL     OW77506   0.411   9.504   6.390  0.6545  0.3274  0.5888
21816SOL    HW177507   0.479   9.444   6.348 -0.1672  0.1615 -0.5350
21816SOL    HW277508   0.399   9.478   6.486 -1.1542 -2.6972 -0.3796
21817SOL     OW77509   5.690   3.991   0.558 -0.3469 -0.0435 -0.4231
21817SOL    HW177510   5.777   4.011   0.603 -0.9470 -0.8549  1.1359
21817SOL    HW277511   5.692   4.027   0.465  1.9881 -0.8179 -0.7078
21818SOL     OW77512   1.953   7.716   8.159  0.1714 -0.3515 -0.5973
21818SOL    HW177513   1.869   7.719   8.213 -0.3490  0.1712 -1.4236
21818SOL    HW277514   2.009   7.796   8.180  0.5451 -0.7791  0.0686
21819SOL     OW77515   3.257   4.506   0.185 -0.3935  0.3944  0.0831
21819SOL    HW177516   3.278   4.462   0.272 -0.0780 -1.1426 -0.7463
21819SOL    HW277517   3.301   4.596   0.180 -1.0853  0.8406  1.8260
21820SOL     OW77518   4.628   2.859   0.537  0.9773 -0.1656 -0.8472
21820SOL    HW177519   4.710   2.814   0.572  0.4051 -0.9062 -0.4410
21820SOL    HW277520   4.570   2.791   0.491 -0.4588 -0.0924  0.8080
21821SOL     OW77521   3.998   4.940   0.844 -0.1391  0.3325  0.1186
21821SOL    HW177522   4.090   4.912   0.872 -0.5871 -0.7494  0.5097
21821SOL    HW277523   3.981   4.910   0.751  0.4674  1.8711 -0.5019
21822SOL     OW77524   5.922   7.445   6.235 -0.0065  0.4905  0.0214
21822SOL    HW177525   5.982   7.369   6.209  0.4248  0.7313  0.3041
21822SOL    HW277526   5.971   7.531   6.223 -0.0053  0.6400  1.0533
21823SOL     OW77527   1.395   1.554   5.614 -0.1083 -0.1727  0.3939
21823SOL    HW177528   1.401   1.632   5.553  0.5311  1.1668  2.1064
21823SOL    HW277529   1.484   1.508   5.619  0.7892  1.7362  2.8463
21824SOL     OW77530   9.406   4.579   1.472 -0.2743  0.0704  0.4523
21824SOL    HW177531   9.458   4.600   1.555 -1.3321 -0.5099  1.2685
21824SOL    HW277532   9.329   4.521   1.495 -0.9184  0.3961 -0.8566
21825SOL     OW77533   1.732   7.398   8.991  0.1644 -0.6001 -0.0899
21825SOL    HW177534   1.734   7.401   9.091  0.4274 -0.7865 -0.0877
21825SOL    HW277535   1.736   7.303   8.961 -1.3404 -0.6188 -0.2531
21826SOL     OW77536   7.335   0.881   7.312  0.5387  0.3357 -0.7148
21826SOL    HW177537   7.315   0.801   7.255  0.2901  0.2446 -0.5023
21826SOL    HW277538   7.293   0.962   7.270  3.8604  1.0199 -2.8883
21827SOL     OW77539   4.397   4.310   4.245 -0.0249  0.5426  0.0179
21827SOL    HW177540   4.394   4.358   4.333 -0.0154  1.1880 -0.3343
21827SOL    HW277541   4.442   4.368   4.177 -0.6322  0.3064 -0.5813
21828SOL     OW77542   2.373   5.551   8.131  0.1609  1.2983 -0.5056
21828SOL    HW177543   2.428   5.620   8.083  3.8694 -1.0526  0.2284
21828SOL    HW277544   2.396   5.460   8.097 -4.2731  0.2546 -1.0546
21829SOL     OW77545   1.580   0.334   7.742  0.5596  0.1535  0.0710
21829SOL    HW177546   1.526   0.299   7.665  0.8573 -0.8997  0.3337
21829SOL    HW277547   1.635   0.260   7.780  1.3999  0.9777  0.4736
21830SOL     OW77548   4.994   8.853   4.250  0.1292  0.5179 -0.8310
21830SOL    HW177549   5.052   8.773   4.241 -1.9629 -1.4965  2.6717
21830SOL    HW277550   5.048   8.930   4.286  0.5795 -1.5607  3.2205
21831SOL     OW77551   9.321   8.769   0.322  0.8125  0.1932 -0.1423
21831SOL    HW177552   9.376   8.834   0.374  0.9856  1.4295 -1.8475
21831SOL    HW277553   9.252   8.818   0.269 -0.6081 -1.1911  0.3544
21832SOL     OW77554   5.118   2.722   6.160  0.0161  0.5189 -0.3203
21832SOL    HW177555   5.208   2.703   6.121  0.3492 -0.4196  0.8729
21832SOL    HW277556   5.055   2.649   6.136 -0.0257  0.4123  0.1110
21833SOL     OW77557   2.191   0.439   6.443  0.0417  0.0136 -0.4400
21833SOL    HW177558   2.148   0.496   6.513 -0.8032 -0.8845 -0.2193
21833SOL    HW277559   2.210   0.494   6.362 -1.9491  0.3083 -0.7149
21834SOL     OW77560   4.957   4.821   9.415  0.0712 -0.1730  0.5642
21834SOL    HW177561   4.961   4.889   9.341  3.6643  2.2916  2.8521
21834SOL    HW277562   4.919   4.864   9.497 -0.4793 -1.8526  1.2044
21835SOL     OW77563   0.302   4.221   9.815  0.2854  0.1219 -0.7410
21835SOL    HW177564   0.351   4.261   9.737 -1.4093  0.4647 -1.6459
21835SOL    HW277565   0.204   4.242   9.807  0.1026  0.1788  1.4971
21836SOL     OW77566   1.486   1.383   1.352  0.2054 -1.0112 -0.1489
21836SOL    HW177567   1.544   1.309   1.320 -0.4624 -1.3653 -0.5647
21836SOL    HW277568   1.405   1.345   1.398  0.5706 -0.5217  0.9228
21837SOL     OW77569   1.245   6.930   1.290  0.4658 -0.0728  0.4847
21837SOL    HW177570   1.320   6.993   1.313  1.2387 -0.2007 -1.6056
21837SOL    HW277571   1.160   6.964   1.332  0.7685  2.6504 -0.9523
21838SOL     OW77572   0.723   9.274   6.636 -0.0592  0.1647  0.0627
21838SOL    HW177573   0.756   9.229   6.719 -1.4544  0.4407  0.7851
21838SOL    HW277574   0.652   9.341   6.660  2.1405  2.9740 -0.9369
21839SOL     OW77575   3.472   6.280   4.366  0.3792  0.2042  0.1036
21839SOL    HW177576   3.405   6.310   4.435  1.0070  0.0192  0.7956
21839SOL    HW277577   3.479   6.180   4.367  2.3010  0.3229  1.5980
21840SOL     OW77578   7.064   1.434   9.514 -0.7030 -0.0613  0.5033
21840SOL    HW177579   7.159   1.465   9.525 -1.0786  2.6701 -2.8541
21840SOL    HW277580   7.008   1.471   9.589  0.0662  2.3218 -0.0321
21841SOL     OW77581   8.052   2.366   2.647  0.4476 -0.0316 -0.0446
21841SOL    HW177582   8.131   2.416   2.684 -0.8777  0.9121  1.6205
21841SOL    HW277583   8.043   2.279   2.696  1.7509 -1.1640 -1.7749
21842SOL     OW77584   9.113   0.123   1.242  0.4170 -0.1526 -0.8575
21842SOL    HW177585   9.155   0.049   1.189 -0.7260 -0.0303 -1.9783
21842SOL    HW277586   9.183   0.184   1.277  1.1823  0.1613 -2.8530
21843SOL     OW77587   5.962   5.218   8.334 -0.0182  0.1639 -0.3590
21843SOL    HW177588   5.934   5.305   8.292 -0.3845  0.1673 -0.1079
21843SOL    HW277589   5.927   5.142   8.279  1.5045  0.1709 -1.3760
21844SOL     OW77590   3.898   0.732   0.578  0.2815  0.2501  0.1900
21844SOL    HW177591   3.877   0.664   0.648  0.0709  1.0905  0.9539
21844SOL    HW277592   3.881   0.692   0.487 -2.6394  0.1930  0.6972
21845SOL     OW77593   2.771   6.264  10.020  0.6905  0.0412  0.0876
21845SOL    HW177594   2.762   6.257  10.119 -1.2175  2.2670  0.1033
21845SOL    HW277595   2.865   6.291   9.997  0.9554  0.1971  1.3281
21846SOL     OW77596   4.070   6.420   7.784  0.5272 -0.1179  0.1877
21846SOL    HW177597   4.040   6.348   7.721  0.1107  0.1393  0.0898
21846SOL    HW277598   4.054   6.391   7.878 -1.1804  0.5067  0.1114
21847SOL     OW77599   9.443   3.944   7.133 -0.3361 -0.2984  0.8439
21847SOL    HW177600   9.532   3.957   7.177  1.1654 -0.2198 -2.0755
21847SOL    HW277601   9.406   4.033   7.105  0.5392 -0.6105 -1.4064
21848SOL     OW77602   8.040   1.379   6.770  0.1932 -0.6564  0.4492
21848SOL    HW177603   7.946   1.407   6.788  0.0362 -0.0751 -1.1457
21848SOL    HW277604   8.078   1.334   6.851  0.3893  3.9561  3.0968
21849SOL     OW77605   0.187   3.293   7.622 -0.2776 -0.6931  0.5699
21849SOL    HW177606   0.256   3.221   7.609  1.2042  0.8370 -0.2942
21849SOL    HW277607   0.144   3.314   7.534 -1.5154 -1.2910  1.0211
21850SOL     OW77608   8.789   3.727   2.975 -0.2897  0.2614 -0.0654
21850SOL    HW177609   8.763   3.631   2.961 -0.7720  0.6182 -1.7061
21850SOL    HW277610   8.714   3.786   2.946  0.3137  1.1659  0.2075
21851SOL     OW77611   3.328   0.209   5.940 -0.0622  0.2441 -0.2477
21851SOL    HW177612   3.234   0.189   5.911  0.0168 -0.9946  0.3401
21851SOL    HW277613   3.326   0.259   6.026 -0.1361 -1.9900  1.0731
21852SOL     OW77614   7.182   6.682   4.366 -0.2395 -0.1141  0.1525
21852SOL    HW177615   7.276   6.650   4.354 -0.2098 -0.7135  1.8358
21852SOL    HW277616   7.120   6.621   4.317  0.1356 -0.5439  0.2062
21853SOL     OW77617   0.279   0.281   1.294 -0.6179 -0.4295  0.5273
21853SOL    HW177618   0.301   0.330   1.378  2.5367  1.3438 -1.2290
21853SOL    HW277619   0.193   0.315   1.257 -1.4947 -0.4858  2.4674
21854SOL     OW77620   0.695   8.037   2.595 -0.3130  0.8969  0.1666
21854SOL    HW177621   0.662   8.069   2.506  1.1611 -0.1847 -0.7846
21854SOL    HW277622   0.706   8.116   2.656 -0.7398  1.7153 -0.8008
21855SOL     OW77623   3.975   6.311   5.046 -0.3861 -0.0731  0.3982
21855SOL    HW177624   4.048   6.274   4.988 -0.0006  1.3675 -0.0666
21855SOL    HW277625   3.934   6.237   5.099 -0.9452 -1.4903 -1.9366
21856SOL     OW77626   8.762   7.436   6.674 -0.3195  0.0866  0.1410
21856SOL    HW177627   8.723   7.345   6.662  2.2618 -1.1502  0.8759
21856SOL    HW277628   8.812   7.440   6.760  0.5391  1.8615 -0.4073
21857SOL     OW77629   9.814   2.897   0.076  0.4466 -0.2160 -0.1177
21857SOL    HW177630   9.894   2.873   0.130  2.4580  1.8944 -2.0606
21857SOL    HW277631   9.776   2.984   0.109  1.2666  0.7253 -1.6326
21858SOL     OW77632   6.963   6.698   6.537 -0.0225 -0.3626  0.3763
21858SOL    HW177633   6.882   6.675   6.591  0.6820 -1.0020  1.1899
21858SOL    HW277634   6.982   6.624   6.472 -0.5306  0.1399 -0.3546
21859SOL     OW77635   1.835   3.237   4.237  0.1971  0.0776 -0.1200
21859SOL    HW177636   1.829   3.145   4.197  2.1403  0.2995 -0.9799
21859SOL    HW277637   1.743   3.269   4.259 -0.9410 -0.2803 -3.9189
21860SOL     OW77638   8.573   3.812   5.180  0.1982  0.2103  0.3100
21860SOL    HW177639   8.539   3.827   5.273  0.4025 -0.2119  0.4531
21860SOL    HW277640   8.654   3.869   5.166 -0.6885  1.4026 -0.1156
21861SOL     OW77641   8.017   8.382   9.170  0.2055  0.4130 -0.0856
21861SOL    HW177642   7.939   8.321   9.159  0.8828 -0.5676  0.4600
21861SOL    HW277643   7.986   8.477   9.169 -0.8239  0.0686 -1.2138
21862SOL     OW77644   3.241   9.072   4.034  0.2083 -0.5334 -0.0748
21862SOL    HW177645   3.255   8.974   4.046 -0.3884 -0.7637 -1.1725
21862SOL    HW277646   3.201   9.089   3.944 -0.4105  0.6549  0.4189
21863SOL     OW77647   1.425   7.356   0.413 -0.0972  0.8680  0.3140
21863SOL    HW177648   1.470   7.377   0.326  0.0513  0.2094  0.2349
21863SOL    HW277649   1.398   7.260   0.414  0.7546  0.6407  1.3901
21864SOL     OW77650   5.710   5.656   9.041  0.0959  0.2534 -0.1037
21864SOL    HW177651   5.658   5.719   8.983  1.1370  1.6477  0.4503
21864SOL    HW277652   5.807   5.682   9.039  0.5799 -1.5331 -0.1229
21865SOL     OW77653   1.622   8.496   5.789 -0.6094  0.2000  0.7300
21865SOL    HW177654   1.587   8.552   5.714  1.5188  0.3515 -0.2003
21865SOL    HW277655   1.689   8.430   5.753 -1.4979 -1.5016  2.1218
21866SOL     OW77656   8.464   0.934   7.526  0.1386 -0.3773 -0.3921
21866SOL    HW177657   8.446   0.948   7.624  0.8463  0.5917 -0.4010
21866SOL    HW277658   8.430   0.844   7.499 -2.9069  0.5785  0.0334
21867SOL     OW77659   0.901   8.703   6.930  0.0826 -0.6534  0.9019
21867SOL    HW177660   0.959   8.765   6.878 -0.6560 -0.5942  0.1255
21867SOL    HW277661   0.958   8.638   6.981  0.8259 -0.4784  0.3065
21868SOL     OW77662   4.168   2.868   1.973 -0.1597  0.5719  1.0832
21868SOL    HW177663   4.120   2.917   1.900 -0.1998 -0.2328  0.5649
21868SOL    HW277664   4.116   2.877   2.058 -2.3659 -2.0289  0.0686
21869SOL     OW77665   4.263   4.763   2.693  0.4287  0.0477 -0.7748
21869SOL    HW177666   4.260   4.855   2.653 -1.2303  0.0978 -0.5893
21869SOL    HW277667   4.178   4.715   2.670  0.1199 -0.4769  1.3914
21870SOL     OW77668   8.128   2.351   3.966 -0.1165 -0.3282 -0.1801
21870SOL    HW177669   8.135   2.442   3.925  1.7837 -0.3027  0.1740
21870SOL    HW277670   8.147   2.281   3.897 -2.1931 -0.5025 -0.6061
21871SOL     OW77671   1.075   1.724   3.127  0.0933  0.3392 -0.2258
21871SOL    HW177672   1.135   1.659   3.173  1.2438  1.7417  0.3198
21871SOL    HW277673   1.128   1.779   3.063 -0.8973  0.6082 -0.8375
21872SOL     OW77674   8.273   4.570   0.920 -0.0824 -0.0730 -0.0918
21872SOL    HW177675   8.257   4.475   0.947 -3.4079  0.1988 -0.8221
21872SOL    HW277676   8.262   4.578   0.821  1.8373  0.7779 -0.2388
21873SOL     OW77677   3.699   4.485   4.953 -0.4338  0.2557 -0.0871
21873SOL    HW177678   3.625   4.551   4.966 -0.6242  0.1135 -0.4401
21873SOL    HW277679   3.674   4.421   4.880  0.3015  0.5812 -0.6333
21874SOL     OW77680   0.101   2.277   5.500 -0.5961  0.0739 -0.3627
21874SOL    HW177681   0.016   2.326   5.481 -0.0196  1.1141 -0.2737
21874SOL    HW277682   0.156   2.272   5.416 -1.0167 -1.1613 -0.5838
21875SOL     OW77683   5.339   5.496   8.960 -0.4706  0.0363 -0.3220
21875SOL    HW177684   5.305   5.589   8.947  0.2531  0.0625 -2.2389
21875SOL    HW277685   5.423   5.483   8.908  0.7820 -0.9792  1.8779
21876SOL     OW77686   2.841   2.344   7.852  0.1228 -0.2378 -0.0735
21876SOL    HW177687   2.929   2.308   7.822  0.7835  0.9458  0.4328
21876SOL    HW277688   2.795   2.390   7.776 -0.2564 -1.1875 -0.4414
21877SOL     OW77689   0.163   9.066   5.445  0.2089 -0.5844 -0.4168
21877SOL    HW177690   0.085   9.005   5.460 -0.5575  0.6042  0.5655
21877SOL    HW277691   0.248   9.015   5.456 -0.4221 -2.0338 -2.0753
21878SOL     OW77692   1.360   4.836   6.187  0.0640 -0.4011 -0.0938
21878SOL    HW177693   1.418   4.854   6.108  1.7703 -0.2854  1.1787
21878SOL    HW277694   1.303   4.756   6.168 -0.8157  0.6478 -2.1003
21879SOL     OW77695   4.445   7.353   1.219  0.2019  0.3430 -0.2214
21879SOL    HW177696   4.419   7.354   1.315 -0.2073 -1.2365 -0.2911
21879SOL    HW277697   4.545   7.347   1.211  0.2692  1.0324  0.0940
21880SOL     OW77698   0.081   1.677   5.733  0.3183  0.4576 -0.0057
21880SOL    HW177699   0.040   1.660   5.643 -1.8200  0.0624  1.0105
21880SOL    HW277700   0.062   1.599   5.793  0.4219  1.3716  1.2314
21881SOL     OW77701   6.508   3.703   8.229  0.0498  0.3116  0.0976
21881SOL    HW177702   6.500   3.608   8.201 -2.1368  0.5313 -0.1074
21881SOL    HW277703   6.420   3.736   8.262  0.8515  2.1757  0.4636
21882SOL     OW77704   9.363   1.372   2.015 -0.3695  0.4036 -0.2420
21882SOL    HW177705   9.352   1.364   1.916  1.6597 -1.2934 -0.3522
21882SOL    HW277706   9.373   1.282   2.055  0.0073  1.1481  1.3709
21883SOL     OW77707   9.911   4.839   2.237  0.0658 -0.5199 -0.1656
21883SOL    HW177708   9.922   4.766   2.305  1.4485  1.7715  2.1377
21883SOL    HW277709   9.837   4.900   2.266  0.9229  0.6885 -0.5034
21884SOL     OW77710   8.511   6.068   9.114  0.2706  0.0469 -0.4197
21884SOL    HW177711   8.432   6.128   9.097  0.1777  0.2071  0.5401
21884SOL    HW277712   8.482   5.990   9.170  0.6922 -0.1499 -0.4756
21885SOL     OW77713   9.792   7.546   7.400  0.1176  0.4014  0.2179
21885SOL    HW177714   9.831   7.606   7.470 -1.6333  0.8850  0.8055
21885SOL    HW277715   9.759   7.601   7.323  0.0183  0.0575  0.0101
21886SOL     OW77716   0.454   4.739   7.620 -0.2925  0.3470  0.7585
21886SOL    HW177717   0.464   4.833   7.587  1.5338 -1.3383 -3.8057
21886SOL    HW277718   0.381   4.693   7.569  1.0181 -1.6606  0.6329
21887SOL     OW77719   5.245   5.122   9.675  0.7752 -0.5053  0.0330
21887SOL    HW177720   5.159   5.173   9.675  2.1667  1.9086  0.7673
21887SOL    HW277721   5.256   5.076   9.763 -0.6717 -2.4491 -0.7734
21888SOL     OW77722   2.289   2.930   8.103  0.0676  0.4080 -0.9007
21888SOL    HW177723   2.266   2.859   8.036  0.4827  0.1698 -0.7954
21888SOL    HW277724   2.375   2.906   8.148 -0.1763  0.5959 -0.3265
21889SOL     OW77725   8.646   5.890   4.519 -0.6380  0.1126  0.1398
21889SOL    HW177726   8.739   5.868   4.549 -1.3438 -2.7557  0.3698
21889SOL    HW277727   8.650   5.943   4.434  1.1913  0.0083  0.1338
21890SOL     OW77728   7.124   0.946   1.440 -0.2196  0.0075  0.3426
21890SOL    HW177729   7.041   1.001   1.431 -0.0548  0.4012  1.1517
21890SOL    HW277730   7.108   0.869   1.501 -0.1577 -0.2546  0.0294
21891SOL     OW77731   4.098   1.084   5.741  0.2362  0.0393 -0.4497
21891SOL    HW177732   4.094   0.989   5.775  1.1277  0.5843  1.2719
21891SOL    HW277733   4.181   1.096   5.688  0.2279 -0.0867 -0.4930
21892SOL     OW77734   3.211   1.275   3.814 -0.3905 -0.1071 -0.5114
21892SOL    HW177735   3.274   1.205   3.849 -0.6991  0.2137  0.7088
21892SOL    HW277736   3.254   1.365   3.823 -1.5963  0.2844  1.7761
21893SOL     OW77737   2.282   6.849   3.465  0.1169  0.1156  0.4074
21893SOL    HW177738   2.364   6.800   3.496  0.4746  0.0313 -0.6476
21893SOL    HW277739   2.240   6.799   3.389 -0.7329  0.3295  0.7340
21894SOL     OW77740   1.479   8.275   9.072  0.1004  0.5339 -0.2736
21894SOL    HW177741   1.515   8.205   9.134 -0.6137  0.7311  0.3713
21894SOL    HW277742   1.463   8.360   9.123  0.1536  0.9100 -0.8751
21895SOL     OW77743   2.478   4.842   8.231  0.1347 -0.1657  0.3919
21895SOL    HW177744   2.450   4.838   8.136 -0.3315 -0.6244  0.5495
21895SOL    HW277745   2.398   4.855   8.289  0.4894  0.8345  0.6677
21896SOL     OW77746   7.457   0.509   5.095 -0.1607 -0.2400  0.3256
21896SOL    HW177747   7.489   0.433   5.039  0.2110 -0.2800  0.5941
21896SOL    HW277748   7.516   0.589   5.080 -0.8689  0.1672 -0.3669
21897SOL     OW77749   3.224   4.218   8.645 -0.1557 -0.7643  0.4186
21897SOL    HW177750   3.166   4.161   8.588  1.1009 -1.8277  0.1752
21897SOL    HW277751   3.167   4.271   8.708 -1.3332 -2.5450  0.8943
21898SOL     OW77752   3.026   5.331   0.851 -0.0189  0.0154 -0.1050
21898SOL    HW177753   3.021   5.261   0.780 -0.9369  0.6901 -0.7151
21898SOL    HW277754   3.122   5.360   0.864  0.4081 -1.5576  0.3778
21899SOL     OW77755   1.557   5.298   1.008  0.3793 -0.1099  0.6164
21899SOL    HW177756   1.592   5.205   1.000  0.7601  0.1339 -0.6979
21899SOL    HW277757   1.459   5.299   0.989  0.7040 -0.0018 -1.2340
21900SOL     OW77758   9.078   6.164   0.781  0.2573  0.5842  0.4995
21900SOL    HW177759   9.098   6.091   0.845 -1.1078 -0.0476  0.2387
21900SOL    HW277760   9.027   6.127   0.703  0.7460  1.5660 -0.3001
21901SOL     OW77761   2.051   6.562   6.085  0.7082  0.2313  0.0275
21901SOL    HW177762   2.125   6.500   6.112 -0.0512  0.2866  2.3097
21901SOL    HW277763   2.089   6.651   6.061  1.2590  0.8123  2.9276
21902SOL     OW77764   3.891   4.010   3.488  0.1691  0.0433 -0.3164
21902SOL    HW177765   3.889   3.986   3.585 -2.3804  2.9078  0.4283
21902SOL    HW277766   3.802   3.990   3.448  0.4258  1.1350 -1.4571
21903SOL     OW77767   9.727   6.114   7.000  0.3038 -0.6111  0.0945
21903SOL    HW177768   9.680   6.054   7.064  1.1504 -1.8239 -0.3886
21903SOL    HW277769   9.660   6.171   6.952 -0.6174 -1.8407 -0.1178
21904SOL     OW77770   4.250   9.963   2.398 -0.1443  0.4964 -0.1082
21904SOL    HW177771   4.169  10.006   2.359 -0.4462  0.4826  0.4987
21904SOL    HW277772   4.224   9.910   2.479  0.5908  1.2244  0.6186
21905SOL     OW77773   4.314   3.331   6.218  0.4828  0.1802  0.4209
21905SOL    HW177774   4.371   3.261   6.261 -0.6219  0.1493  1.8574
21905SOL    HW277775   4.317   3.415   6.272  2.3762  1.5208 -1.6775
21906SOL     OW77776   9.335   8.129   6.948  0.1389 -0.2588 -0.4069
21906SOL    HW177777   9.357   8.039   6.911 -1.1382  0.1290 -2.1898
21906SOL    HW277778   9.349   8.198   6.877  1.3945  1.0159  1.0238
21907SOL     OW77779   0.562   1.761   8.657 -0.9911  0.0102  0.1203
21907SOL    HW177780   0.468   1.769   8.690 -0.4433  0.0383  1.6959
21907SOL    HW277781   0.604   1.680   8.697 -0.4118 -0.1303 -0.7697
21908SOL     OW77782   1.775   3.703   3.772 -0.1986 -0.2100 -0.0764
21908SOL    HW177783   1.813   3.789   3.807 -0.2982 -0.6914  1.2039
21908SOL    HW277784   1.677   3.715   3.753 -0.2714 -0.1263  0.3596
21909SOL     OW77785   8.117   4.294   8.204 -0.3178  0.1607  0.3034
21909SOL    HW177786   8.035   4.238   8.190  0.6431 -0.9441 -1.1112
21909SOL    HW277787   8.137   4.345   8.121  0.3253  0.5514  0.6945
21910SOL     OW77788   5.383   9.110   2.708 -0.4103  0.5783  0.4423
21910SOL    HW177789   5.431   9.037   2.757 -1.3358 -1.5107 -1.6429
21910SOL    HW277790   5.290   9.081   2.689 -0.4964  1.9034 -1.2755
21911SOL     OW77791   2.488   3.419   5.148  0.1739 -0.2662  0.4290
21911SOL    HW177792   2.482   3.392   5.244  1.0366  0.0842  0.5881
21911SOL    HW277793   2.501   3.518   5.142  1.7808 -0.4913  0.0101
21912SOL     OW77794   1.399   1.235   7.199  0.1742 -0.0682 -0.0011
21912SOL    HW177795   1.386   1.167   7.128  0.4841 -0.6045  0.4512
21912SOL    HW277796   1.365   1.324   7.167 -3.2059 -1.0810  0.5654
21913SOL     OW77797   2.369   9.213   9.401 -0.1990  0.3825 -0.1960
21913SOL    HW177798   2.407   9.133   9.357 -0.2252  0.7188 -0.8367
21913SOL    HW277799   2.269   9.214   9.389  0.0410  1.8640 -2.4931
21914SOL     OW77800   8.143   0.020   4.289  0.0774  0.0734  0.2563
21914SOL    HW177801   8.142  -0.023   4.199  1.0536  0.7040 -0.0640
21914SOL    HW277802   8.236   0.044   4.314 -0.2848  0.6843  1.0670
21915SOL     OW77803   5.223   1.868   8.417 -0.1704  0.0982 -0.5302
21915SOL    HW177804   5.182   1.796   8.473  1.3032 -0.9700 -0.8058
21915SOL    HW277805   5.279   1.928   8.474  0.1902 -0.1457 -0.6289
21916SOL     OW77806   1.246   7.522   8.220  0.2079 -0.2344  0.1761
21916SOL    HW177807   1.210   7.558   8.134  1.0131 -0.4376 -0.2553
21916SOL    HW277808   1.209   7.431   8.236 -0.2751 -0.0272  0.2659
21917SOL     OW77809   8.805   0.326   5.249 -0.5654  0.3762  0.0650
21917SOL    HW177810   8.801   0.416   5.292 -1.7053  0.0415  0.7042
21917SOL    HW277811   8.728   0.271   5.282 -1.2721 -0.0110 -2.1597
21918SOL     OW77812   5.780   0.115   3.676 -0.0962  0.8557 -0.0867
21918SOL    HW177813   5.719   0.109   3.756 -0.6234  0.8293 -0.4890
21918SOL    HW277814   5.793   0.211   3.651  1.1379  0.9387  0.8458
21919SOL     OW77815   8.950   9.203   8.471  0.0300  0.4509 -0.2666
21919SOL    HW177816   8.899   9.215   8.556 -0.7024 -1.6326 -0.4103
21919SOL    HW277817   8.947   9.288   8.418  0.7035  1.8554  1.8794
21920SOL     OW77818   7.186   4.677   8.182 -0.2323  0.0653  0.6307
21920SOL    HW177819   7.124   4.739   8.229  0.4245  0.0761  1.4924
21920SOL    HW277820   7.271   4.668   8.234  0.2038 -0.5219 -0.1600
21921SOL     OW77821   3.581   5.352   8.987 -0.2628  0.2083 -0.1383
21921SOL    HW177822   3.536   5.329   8.901 -1.0760  1.4263 -0.0538
21921SOL    HW277823   3.548   5.290   9.059 -0.6777  0.1281 -0.3951
21922SOL     OW77824   2.351   4.966   1.846 -0.5602 -0.0782  0.0199
21922SOL    HW177825   2.349   4.895   1.917  0.5511  0.2010  0.3334
21922SOL    HW277826   2.349   4.923   1.756 -0.8686 -0.4708  0.2098
21923SOL     OW77827   0.855   6.057   4.096  0.2477 -0.1977 -0.8484
21923SOL    HW177828   0.853   6.064   4.195  2.6665 -0.5309 -0.7387
21923SOL    HW277829   0.835   5.963   4.068 -1.3379  0.0935 -0.7457
21924SOL     OW77830   5.247   6.124   2.666 -0.1946  0.2067  0.0780
21924SOL    HW177831   5.342   6.153   2.658  0.1316 -0.3536  1.7710
21924SOL    HW277832   5.194   6.195   2.713 -0.6803  0.6394 -1.1102
21925SOL     OW77833   5.133   9.680   2.663  0.1469 -0.9168  0.2845
21925SOL    HW177834   5.212   9.626   2.633  0.8140 -0.0518  0.4719
21925SOL    HW277835   5.049   9.635   2.633  0.6699 -2.4085  1.0027
21926SOL     OW77836   3.271   0.814   5.714 -0.3105  0.7517 -0.1895
21926SOL    HW177837   3.179   0.806   5.752 -0.4768  0.7637 -0.5954
21926SOL    HW277838   3.337   0.820   5.789 -0.5084 -0.7442  0.1147
21927SOL     OW77839   0.443   2.781   2.041  0.0487  0.0211  0.6421
21927SOL    HW177840   0.531   2.737   2.057  0.0584  0.2829  1.3675
21927SOL    HW277841   0.400   2.802   2.129 -0.5914  0.1841  0.2960
21928SOL     OW77842   0.793   1.360  10.049 -0.0716 -0.2010 -0.2813
21928SOL    HW177843   0.708   1.412  10.042 -0.8225 -1.2832  0.5778
21928SOL    HW277844   0.834   1.375  10.139 -0.6785 -1.6329  0.2582
21929SOL     OW77845   7.388   3.854   9.839 -0.0433 -0.7601 -0.2599
21929SOL    HW177846   7.424   3.900   9.919 -0.4313  0.2989 -0.6792
21929SOL    HW277847   7.327   3.780   9.867 -0.1454 -0.4160  0.4174
21930SOL     OW77848   3.361   3.613   7.199 -0.3756 -0.1153  0.5886
21930SOL    HW177849   3.387   3.517   7.206 -0.4125 -0.1441  0.3175
21930SOL    HW277850   3.267   3.621   7.167  0.0589  0.0303 -0.6809
21931SOL     OW77851   5.163   6.197   1.619  0.5657  0.0318  0.0563
21931SOL    HW177852   5.102   6.146   1.680  1.1054 -0.5365  0.1307
21931SOL    HW277853   5.111   6.265   1.568 -0.2341 -0.8637 -0.3333
21932SOL     OW77854   4.973   6.304   1.052 -0.0872  0.2442  0.1961
21932SOL    HW177855   4.959   6.262   1.141  0.8292  1.4049  0.9037
21932SOL    HW277856   4.904   6.270   0.987  0.6032 -2.2496  0.7559
21933SOL     OW77857   8.110   5.899   4.487  0.5745  0.4353  0.0965
21933SOL    HW177858   8.173   5.850   4.546 -1.2205 -2.5824 -0.3896
21933SOL    HW277859   8.059   5.834   4.431  0.6401  3.0662 -3.2064
21934SOL     OW77860   9.588   0.521   2.577 -0.3450 -0.6324  0.2628
21934SOL    HW177861   9.552   0.539   2.486  1.9302  0.3555 -0.4971
21934SOL    HW277862   9.591   0.606   2.629  3.1973 -0.1438 -0.6077
21935SOL     OW77863   7.616   4.271   7.119 -1.0707 -0.0104 -0.1759
21935SOL    HW177864   7.521   4.304   7.114 -0.6169  1.7327  2.0389
21935SOL    HW277865   7.627   4.214   7.200  0.1295  1.0474  0.4144
21936SOL     OW77866   3.829   4.191   7.064  0.0295  0.1354  0.3718
21936SOL    HW177867   3.887   4.142   6.999 -0.6444  0.6991 -0.6755
21936SOL    HW277868   3.840   4.151   7.155  2.8547  0.8932  0.4216
21937SOL     OW77869   3.270   0.835   8.734  0.1136 -0.5438  0.1605
21937SOL    HW177870   3.241   0.802   8.644  1.3327 -2.3258  0.3972
21937SOL    HW277871   3.215   0.790   8.805  1.7599 -2.0843  0.4852
21938SOL     OW77872   8.411   2.728   2.985  0.0333 -0.5261 -0.2412
21938SOL    HW177873   8.405   2.629   2.999 -0.4160 -0.3720  0.6202
21938SOL    HW277874   8.397   2.775   3.071 -0.3042  0.3142 -0.7515
21939SOL     OW77875   9.751   1.989   3.608 -0.0564 -0.3588  1.0160
21939SOL    HW177876   9.690   1.960   3.533  1.5214 -1.5050  0.1298
21939SOL    HW277877   9.736   1.929   3.687 -0.2203 -0.5202  0.8661
21940SOL     OW77878   9.585   4.217   2.282  0.4479  0.0184  0.2556
21940SOL    HW177879   9.535   4.272   2.214  0.7703 -0.7241 -0.5895
21940SOL    HW277880   9.595   4.123   2.248  3.3803  0.4162 -0.0819
21941SOL     OW77881   3.825   2.311   0.827  0.5884 -0.1766 -0.4162
21941SOL    HW177882   3.851   2.237   0.765  0.6297 -0.1503 -0.4301
21941SOL    HW277883   3.727   2.305   0.847  0.6570 -0.4390 -0.1499
21942SOL     OW77884   8.006   2.047   8.632 -0.5671 -0.4970  0.0683
21942SOL    HW177885   8.059   1.981   8.685 -1.4838 -0.1130  1.4646
21942SOL    HW277886   8.047   2.056   8.541  0.4190 -1.8981  0.3536
21943SOL     OW77887   1.151   0.432   8.265 -0.4870 -0.1558 -0.4785
21943SOL    HW177888   1.193   0.520   8.243 -2.2903  0.9753  0.4300
21943SOL    HW277889   1.199   0.391   8.342  2.5022 -1.6299 -3.0098
21944SOL     OW77890   0.148   7.496   9.735  0.0979  0.0110  0.3640
21944SOL    HW177891   0.083   7.425   9.708  1.9771 -1.6049 -0.0044
21944SOL    HW277892   0.215   7.458   9.799  1.6638  1.1935 -0.5304
21945SOL     OW77893   2.818   0.868   7.764  0.0405 -0.0910  0.5255
21945SOL    HW177894   2.916   0.880   7.752  0.0198 -0.4430 -0.0019
21945SOL    HW277895   2.770   0.949   7.730  0.1461  0.0877  0.7970
21946SOL     OW77896   0.848   1.550   3.044  0.1997  0.3065  0.1478
21946SOL    HW177897   0.923   1.602   3.085  0.1647 -0.5000  1.2460
21946SOL    HW277898   0.850   1.456   3.077  0.0640 -0.3258 -1.5877
21947SOL     OW77899   2.861   7.736   5.741  0.3209 -0.4126 -0.2721
21947SOL    HW177900   2.789   7.778   5.796  1.2825  0.6418  0.2116
21947SOL    HW277901   2.898   7.656   5.789 -0.5517 -0.9922 -0.5496
21948SOL     OW77902   4.802   3.896   5.682 -0.4477 -0.3163 -0.7141
21948SOL    HW177903   4.795   3.918   5.585 -0.8934 -1.0320 -0.8574
21948SOL    HW277904   4.814   3.797   5.692  1.1877 -0.0738 -0.0968
21949SOL     OW77905   8.147   1.974   4.414  0.1992  0.0032 -0.4215
21949SOL    HW177906   8.115   2.017   4.498  1.0469 -0.0111 -0.0932
21949SOL    HW277907   8.082   1.995   4.340  0.1697  1.1550 -0.0814
21950SOL     OW77908   2.356   1.937   2.523  0.5906 -0.5375 -0.2002
21950SOL    HW177909   2.361   2.026   2.477 -0.2442  0.8011  2.2329
21950SOL    HW277910   2.331   1.867   2.456  2.5357  0.8173 -2.4137
21951SOL     OW77911   1.465   5.261   2.832  0.1377  0.3733  0.0881
21951SOL    HW177912   1.376   5.308   2.840 -0.6856 -1.0148 -0.8701
21951SOL    HW277913   1.457   5.168   2.868  1.3724  0.4271  0.5353
21952SOL     OW77914   0.089   9.409   0.356  0.3441  0.0543  0.1492
21952SOL    HW177915   0.102   9.480   0.287 -0.5047  0.1191  0.0460
21952SOL    HW277916  -0.008   9.403   0.379  0.2747 -1.6326 -0.4753
21953SOL     OW77917   1.989   7.786   5.786 -0.2134 -0.4922 -0.2346
21953SOL    HW177918   2.008   7.691   5.811  2.1714  0.2244  0.7438
21953SOL    HW277919   2.049   7.814   5.711 -0.2626  0.5473  0.1052
21954SOL     OW77920   8.098   8.992   0.930 -0.3976  0.2976  0.0040
21954SOL    HW177921   8.108   9.041   1.017  1.6621 -0.3343  0.1616
21954SOL    HW277922   8.187   8.989   0.883 -1.0015 -1.2363 -1.1056
21955SOL     OW77923   6.226   5.820   7.786  0.0958  0.0315 -0.4531
21955SOL    HW177924   6.220   5.876   7.869  0.0324  0.4726 -0.7508
21955SOL    HW277925   6.293   5.747   7.799 -2.5908 -2.2047  1.3510
21956SOL     OW77926   8.368   2.903   6.172  0.3589  0.1344 -0.2003
21956SOL    HW177927   8.381   2.977   6.237 -0.1625  0.2961 -0.2818
21956SOL    HW277928   8.330   2.823   6.219  2.9187 -0.8317  0.3345
21957SOL     OW77929   3.865   4.846   1.406 -0.1709  0.6927 -0.3785
21957SOL    HW177930   3.864   4.854   1.306 -1.9492  2.4937 -0.2340
21957SOL    HW277931   3.824   4.927   1.447  3.2299  1.3449  1.9406
21958SOL     OW77932   8.502   9.482   0.457  0.6130 -0.0461  0.4252
21958SOL    HW177933   8.477   9.516   0.547 -1.5475  0.5529 -0.3623
21958SOL    HW277934   8.434   9.415   0.427  0.6376  0.6614 -1.2653
21959SOL     OW77935   8.733   7.401  10.054 -0.5203 -0.1112 -0.1382
21959SOL    HW177936   8.795   7.323  10.065 -1.7359 -1.3315 -1.6328
21959SOL    HW277937   8.772   7.464   9.986  1.1971  1.3940  2.1754
21960SOL     OW77938   9.398   9.006   2.490 -0.0412  0.0820 -0.2573
21960SOL    HW177939   9.442   8.938   2.550  0.1257  0.4553  0.0460
21960SOL    HW277940   9.386   8.967   2.399 -0.6486 -0.6240  0.1200
21961SOL     OW77941   3.003   2.666   2.941  0.2859 -0.2540  0.4814
21961SOL    HW177942   3.033   2.580   2.982  0.0376 -0.4988  0.1534
21961SOL    HW277943   3.065   2.740   2.969  1.6960 -0.8980 -0.8777
21962SOL     OW77944   0.793   2.933   3.013  0.0533  0.2064 -0.0268
21962SOL    HW177945   0.700   2.914   2.983 -0.5384  2.0685  0.5179
21962SOL    HW277946   0.791   2.973   3.105  1.3114  1.1294 -0.3769
21963SOL     OW77947   1.133   3.357   4.382  0.4245 -0.4251  0.2289
21963SOL    HW177948   1.220   3.405   4.374  1.4551 -2.2813 -0.1053
21963SOL    HW277949   1.070   3.391   4.312  1.0822  0.5200  0.0889
21964SOL     OW77950   7.788   1.133   3.099  0.0558 -0.2310  0.1396
21964SOL    HW177951   7.871   1.078   3.097  0.2629  0.1124 -0.5854
21964SOL    HW277952   7.789   1.192   3.180  1.1609  0.7871 -0.6186
21965SOL     OW77953   2.919   1.361   7.529  0.0836  0.7607 -0.3553
21965SOL    HW177954   2.895   1.310   7.446 -0.4959  1.4311 -0.6081
21965SOL    HW277955   3.001   1.322   7.569  0.9487  1.0537 -1.8025
21966SOL     OW77956   1.128   7.763   6.736 -0.1552 -0.5927  0.4951
21966SOL    HW177957   1.091   7.673   6.713  2.2366 -1.2307 -1.0948
21966SOL    HW277958   1.189   7.755   6.815 -0.5942 -0.2090  0.8743
21967SOL     OW77959   4.513   1.925   6.585  0.2305 -1.0958  0.4037
21967SOL    HW177960   4.559   2.014   6.597 -1.8134  0.0858 -0.2767
21967SOL    HW277961   4.492   1.886   6.674  0.4441 -0.5119  0.7116
21968SOL     OW77962   0.310   5.895   8.989  0.4730  0.2452 -0.3942
21968SOL    HW177963   0.374   5.931   8.921 -0.8857 -1.4965 -2.6739
21968SOL    HW277964   0.306   5.795   8.981 -1.4914  0.2256  0.6521
21969SOL     OW77965   1.728   9.101   9.733  0.2509 -0.7311 -0.0075
21969SOL    HW177966   1.692   9.095   9.826 -1.6358  1.3071 -0.5678
21969SOL    HW277967   1.702   9.019   9.682 -2.4325  0.0333  0.0387
21970SOL     OW77968   1.704   2.387   5.652 -0.3167  0.1586  0.0004
21970SOL    HW177969   1.628   2.450   5.634 -1.6617 -0.8785  1.8648
21970SOL    HW277970   1.791   2.434   5.635 -1.3215  2.1938  0.3463
21971SOL     OW77971   0.126   4.935   6.004  0.6164  0.7773 -0.3002
21971SOL    HW177972   0.128   4.968   5.910 -1.1339 -0.2737 -0.7431
21971SOL    HW277973   0.211   4.960   6.051  0.2308  3.9920 -1.2117
21972SOL     OW77974   7.832   9.674   5.055  0.3098 -0.1554 -0.1731
21972SOL    HW177975   7.866   9.588   5.016  0.4418  0.6354 -1.8231
21972SOL    HW277976   7.833   9.667   5.155  0.4331 -2.0274 -0.2845
21973SOL     OW77977   3.294   3.781   5.642 -0.0333  0.0647 -0.1095
21973SOL    HW177978   3.358   3.762   5.716  0.6970 -0.8028 -0.9627
21973SOL    HW277979   3.291   3.704   5.579 -1.4656  0.3501 -0.4054
21974SOL     OW77980   2.022   2.068   5.462 -0.2470  0.0189 -0.4112
21974SOL    HW177981   2.107   2.119   5.473 -0.6678  1.0837 -1.8793
21974SOL    HW277982   2.043   1.970   5.452  0.6255 -0.0089  1.4983
21975SOL     OW77983   1.327   1.755   2.814 -0.2081  1.0427  0.5718
21975SOL    HW177984   1.342   1.771   2.911  0.1356  1.9496  0.3788
21975SOL    HW277985   1.393   1.688   2.780 -0.8003  0.1926  1.1200
21976SOL     OW77986   0.322   0.058   5.646  0.4716 -0.1066 -1.0183
21976SOL    HW177987   0.255   0.015   5.585 -2.4947  1.5725  0.9288
21976SOL    HW277988   0.360   0.139   5.601 -2.2149  1.5233 -0.4640
21977SOL     OW77989   8.542   0.440   7.815  0.1931  0.2594  0.4260
21977SOL    HW177990   8.519   0.520   7.870 -0.4539 -0.0832  0.6565
21977SOL    HW277991   8.474   0.368   7.829  2.7067 -1.7191  3.0084
21978SOL     OW77992   4.961   0.744   8.085  0.1486 -0.2402  0.0114
21978SOL    HW177993   5.005   0.700   8.162  0.5835 -0.4116 -0.3308
21978SOL    HW277994   5.028   0.803   8.038  0.3807 -1.5357 -1.3088
21979SOL     OW77995   2.693   3.188   1.867  0.0406  0.2878  0.1351
21979SOL    HW177996   2.732   3.276   1.840  0.3198  0.8359  2.2436
21979SOL    HW277997   2.763   3.117   1.856 -0.1578  0.3229 -1.4840
21980SOL     OW77998   3.401   0.497   8.066 -0.1787 -0.5531 -0.5152
21980SOL    HW177999   3.436   0.534   7.980  1.5910 -0.4000  0.2430
21980SOL    HW278000   3.387   0.572   8.131 -2.0973 -0.5952 -0.8486
21981SOL     OW78001   4.587   8.447   3.956  0.1742  0.0165 -0.3377
21981SOL    HW178002   4.649   8.459   4.033  0.6219  1.4941 -0.8951
21981SOL    HW278003   4.621   8.375   3.896  0.3082 -0.5124  0.3736
21982SOL     OW78004   3.659   4.455   1.917 -0.4101 -0.4468 -0.1617
21982SOL    HW178005   3.607   4.495   1.992  0.2754  1.3963 -0.6541
21982SOL    HW278006   3.756   4.479   1.927 -0.4328  0.5199 -2.0747
21983SOL     OW78007   2.066   0.288   5.248  0.3998 -0.2202  0.4820
21983SOL    HW178008   2.049   0.343   5.329 -0.8806 -0.9905  0.7489
21983SOL    HW278009   2.153   0.315   5.206  0.2148  1.3633  1.1207
21984SOL     OW78010   9.116   0.651   1.912 -0.1506 -0.0295  0.5075
21984SOL    HW178011   9.105   0.576   1.846 -1.1195 -0.4761  1.1627
21984SOL    HW278012   9.063   0.631   1.994  1.0964  0.4956  1.4575
21985SOL     OW78013   1.279   2.480   9.973  0.0450  0.3467 -0.0141
21985SOL    HW178014   1.283   2.562   9.915 -0.6350  0.4934  0.1516
21985SOL    HW278015   1.202   2.423   9.945 -1.2516  1.1943  1.7870
21986SOL     OW78016   1.390   3.474   7.155  0.1761  0.2472  0.3064
21986SOL    HW178017   1.364   3.563   7.192  1.1648 -0.2283  2.2156
21986SOL    HW278018   1.354   3.402   7.214  1.7121 -0.5406  0.3065
21987SOL     OW78019   8.958   0.547   5.051  0.0793 -0.1615 -0.1647
21987SOL    HW178020   8.960   0.450   5.023 -1.8794 -0.5924  1.1062
21987SOL    HW278021   8.887   0.595   5.001 -0.0491  0.2433  0.3999
21988SOL     OW78022   4.124   4.442   2.853 -0.3401  0.2677  0.1277
21988SOL    HW178023   4.028   4.460   2.875 -0.0056  0.7579  1.2199
21988SOL    HW278024   4.181   4.472   2.929  0.8116  1.3999 -1.1626
21989SOL     OW78025   9.347   8.409   6.260  0.4230  0.5543  0.2512
21989SOL    HW178026   9.356   8.429   6.358 -0.0410  0.8121  0.2408
21989SOL    HW278027   9.268   8.457   6.223  0.1138 -0.1981 -0.0757
21990SOL     OW78028   1.345   3.993   7.849 -0.0008 -0.2755  0.2147
21990SOL    HW178029   1.253   4.002   7.809 -0.0440  0.9156  0.5308
21990SOL    HW278030   1.393   3.916   7.808 -1.2391 -1.0572  0.2172
21991SOL     OW78031   1.297   3.609   3.217 -0.0370 -0.0792 -0.0946
21991SOL    HW178032   1.379   3.645   3.261  0.9209 -0.4768 -1.5440
21991SOL    HW278033   1.244   3.557   3.284  0.8064  0.3112  0.8901
21992SOL     OW78034   3.056   8.920   0.989 -0.3993  0.1294  0.2892
21992SOL    HW178035   3.066   8.915   0.889 -1.5611 -2.5556  0.2631
21992SOL    HW278036   2.961   8.940   1.012 -0.2134  0.3402  0.8669
21993SOL     OW78037   8.685   8.265   0.455 -0.3730 -0.2528 -0.0796
21993SOL    HW178038   8.657   8.315   0.373 -0.2093  2.2256  1.2985
21993SOL    HW278039   8.721   8.176   0.430 -0.1630  0.5341 -2.7104
21994SOL     OW78040   8.727   2.718   8.455 -0.4042  0.0851  0.4033
21994SOL    HW178041   8.658   2.705   8.526 -1.7000  0.3896 -0.7860
21994SOL    HW278042   8.715   2.649   8.384 -0.2110  0.8559 -0.3818
21995SOL     OW78043   1.490   3.185   4.610 -0.2454  0.1238 -0.2893
21995SOL    HW178044   1.418   3.196   4.679 -0.2446  1.3916 -0.4797
21995SOL    HW278045   1.549   3.265   4.610  0.3124 -0.2751 -1.1310
21996SOL     OW78046   5.666   4.675   6.367 -0.1052 -0.1208  0.1044
21996SOL    HW178047   5.651   4.616   6.446  1.4840  0.9006  1.1960
21996SOL    HW278048   5.651   4.622   6.283 -0.0131 -1.7013  1.0595
21997SOL     OW78049   7.005   1.850   9.055 -0.7179  0.0535 -0.6459
21997SOL    HW178050   7.058   1.769   9.031  0.6413  0.8588 -0.4304
21997SOL    HW278051   7.036   1.928   9.000 -2.2225  0.3653 -1.0821
21998SOL     OW78052   3.198   0.693   9.372  0.0339  0.3498 -0.3853
21998SOL    HW178053   3.295   0.708   9.392  0.0816  0.0737 -0.3992
21998SOL    HW278054   3.157   0.641   9.447 -0.1216  0.5302 -0.3442
21999SOL     OW78055   2.287   7.427   8.386 -0.4244 -0.7076  0.2680
21999SOL    HW178056   2.353   7.373   8.438 -1.6339 -0.3291  2.2579
21999SOL    HW278057   2.248   7.371   8.313 -1.0317 -2.2920  1.7538
22000SOL     OW78058   8.091   1.282  10.010 -0.0442  0.0299  0.0155
22000SOL    HW178059   8.177   1.232  10.017 -0.2605 -0.2858  0.4011
22000SOL    HW278060   8.015   1.217  10.002 -0.3999  0.2880  1.3122
22001SOL     OW78061   7.873   4.667   6.453 -0.5472  0.4421  0.4995
22001SOL    HW178062   7.821   4.630   6.376 -0.4016  0.7169  0.2696
22001SOL    HW278063   7.946   4.726   6.419  0.0408 -0.0919  0.8083
22002SOL     OW78064   3.171   5.945   5.607  0.2091  0.7561 -0.7193
22002SOL    HW178065   3.269   5.933   5.617  0.1711  0.6226 -0.5079
22002SOL    HW278066   3.137   5.883   5.535  0.1355  0.1373 -0.1591
22003SOL     OW78067   3.625   9.138   9.073 -0.4960 -0.2217 -0.4952
22003SOL    HW178068   3.626   9.232   9.107 -1.7398 -0.1369 -0.6732
22003SOL    HW278069   3.536   9.096   9.092 -0.1978 -1.1212 -1.0513
22004SOL     OW78070   1.669   5.555   1.071 -0.2742 -0.0066 -0.2532
22004SOL    HW178071   1.672   5.601   0.983  0.1731 -2.3064 -1.4708
22004SOL    HW278072   1.609   5.475   1.065  0.0659 -0.4087  1.4206
22005SOL     OW78073   4.461   5.717   7.800  0.2993  0.0628  0.3186
22005SOL    HW178074   4.468   5.622   7.830  0.9225  0.4568  1.4556
22005SOL    HW278075   4.456   5.721   7.700 -0.8190 -1.2211  0.3249
22006SOL     OW78076   6.894   3.250   0.700  0.3393 -0.2069 -0.0942
22006SOL    HW178077   6.862   3.158   0.679  0.2221  0.0418 -1.0019
22006SOL    HW278078   6.990   3.259   0.675  0.5945 -0.3437  0.8011
22007SOL     OW78079   7.415   3.750   2.048  0.0976  0.1238 -0.4479
22007SOL    HW178080   7.334   3.693   2.037  0.4401 -0.3793 -0.4283
22007SOL    HW278081   7.464   3.755   1.961  0.9402 -0.9679 -0.0480
22008SOL     OW78082   1.779   3.394   8.871  0.0741  0.3461 -0.4411
22008SOL    HW178083   1.741   3.408   8.780 -0.6733  1.5708  0.0489
22008SOL    HW278084   1.730   3.320   8.917 -1.5749  1.7481  0.0928
22009SOL     OW78085   1.124   6.416   9.599  0.0844  0.0616 -0.0732
22009SOL    HW178086   1.168   6.505   9.618 -1.3396  0.6623  0.4933
22009SOL    HW278087   1.054   6.428   9.529  1.0229 -0.9507 -1.1865
22010SOL     OW78088   5.919   4.068   0.684 -0.3392  0.2018  0.7081
22010SOL    HW178089   5.976   3.997   0.725  0.0851  0.0568 -0.1271
22010SOL    HW278090   5.895   4.135   0.754 -1.8552 -1.4568  1.8209
22011SOL     OW78091   0.057   4.551   2.202  0.6621 -0.1441  0.1629
22011SOL    HW178092   0.064   4.607   2.119  0.2695  0.8965  0.8196
22011SOL    HW278093   0.027   4.608   2.278  1.9926 -0.8668  1.2640
22012SOL     OW78094   3.124   0.707   8.547 -0.4804 -0.0599 -0.2613
22012SOL    HW178095   3.027   0.731   8.546 -1.3159 -2.8270  3.4141
22012SOL    HW278096   3.138   0.625   8.492 -0.5591 -0.7336  0.7188
22013SOL     OW78097   5.349   8.249   5.933  0.4997 -0.0320 -0.3337
22013SOL    HW178098   5.396   8.295   5.859  2.2216 -0.7698  0.2813
22013SOL    HW278099   5.250   8.250   5.916  0.6406  2.3547 -1.1537
22014SOL     OW78100   2.273   1.898   8.647  0.6932 -0.0133 -0.1447
22014SOL    HW178101   2.290   1.993   8.620  1.1882 -0.5978 -1.9729
22014SOL    HW278102   2.221   1.896   8.732  1.4321  1.8887  0.3773
22015SOL     OW78103   3.956   8.609   5.333  0.3809  0.1679 -0.6354
22015SOL    HW178104   3.939   8.696   5.379  0.1710 -0.6824  0.9220
22015SOL    HW278105   3.907   8.536   5.380  1.2435 -0.9236 -1.4014
22016SOL     OW78106   1.696   6.748   6.473 -0.1263  0.2809  0.8385
22016SOL    HW178107   1.760   6.677   6.503 -0.0536 -0.4503 -0.9798
22016SOL    HW278108   1.744   6.813   6.415 -1.0061 -0.2517 -0.5100
22017SOL     OW78109   9.076   7.705   1.734  0.1804 -0.0360  0.3003
22017SOL    HW178110   9.038   7.624   1.778  0.3470  0.1882  0.8712
22017SOL    HW278111   9.024   7.786   1.761  0.4653  0.1440  0.3231
22018SOL     OW78112   8.873   1.007   9.959  0.1997  0.2864  0.1693
22018SOL    HW178113   8.890   1.003   9.860  0.0215  0.6989  0.1208
22018SOL    HW278114   8.929   1.079   9.999  1.1504 -0.6479  0.5582
22019SOL     OW78115   3.008   0.011   2.038  0.3381 -0.4465 -0.6312
22019SOL    HW178116   2.955  -0.017   1.958  0.5577  2.0064 -1.6716
22019SOL    HW278117   3.099   0.041   2.009 -0.0146  1.6846  0.3747
22020SOL     OW78118   9.670   3.507   2.265 -0.0120 -0.0709  0.1252
22020SOL    HW178119   9.649   3.452   2.184 -1.3627  1.1879 -0.4142
22020SOL    HW278120   9.768   3.521   2.271  0.1322 -0.4711 -1.1059
22021SOL     OW78121   4.193   9.793   9.889 -0.5288 -0.1347 -0.7725
22021SOL    HW178122   4.257   9.757   9.957 -1.8412 -0.2204  0.4323
22021SOL    HW278123   4.232   9.782   9.797  0.4133 -1.8054 -0.1899
22022SOL     OW78124   7.239   6.074   4.857 -0.4852 -0.1947  0.4699
22022SOL    HW178125   7.216   6.155   4.911 -0.7104  0.0458  0.0122
22022SOL    HW278126   7.256   5.997   4.918  1.9764  0.7492  1.0382
22023SOL     OW78127   6.678   1.247   4.912  0.1869  0.5751  0.3086
22023SOL    HW178128   6.674   1.243   4.812  0.5205  1.1228  0.2701
22023SOL    HW278129   6.738   1.174   4.946 -0.5789 -0.1248  0.1609
22024SOL     OW78130   3.301   4.817   9.462  0.1891  0.8321  0.6053
22024SOL    HW178131   3.374   4.752   9.441 -0.2223  0.2082  1.1122
22024SOL    HW278132   3.332   4.882   9.531  0.4942  0.9925  0.3197
22025SOL     OW78133   7.629   9.898   9.479  0.5942 -0.3648 -0.7305
22025SOL    HW178134   7.537   9.901   9.518  0.5422 -1.2028 -0.7702
22025SOL    HW278135   7.664   9.991   9.468 -0.5719  0.0045 -1.4777
22026SOL     OW78136   8.570   0.542   0.675 -0.0825 -0.1666 -0.2574
22026SOL    HW178137   8.511   0.602   0.730  0.6042  0.1486  0.1394
22026SOL    HW278138   8.517   0.505   0.598 -0.2746  1.6657 -1.0387
22027SOL     OW78139   2.411   6.110   8.084 -0.3488  0.8073 -0.2981
22027SOL    HW178140   2.342   6.174   8.052 -2.3057 -0.1676  1.7940
22027SOL    HW278141   2.399   6.022   8.038  0.8460  1.2181 -1.4410
22028SOL     OW78142   1.311   9.730   5.984  0.3012 -0.2222  0.4352
22028SOL    HW178143   1.369   9.731   6.066 -0.7952  1.0565  1.2231
22028SOL    HW278144   1.314   9.820   5.939  0.0535 -0.5845 -0.3157
22029SOL     OW78145   5.941   1.536   9.327  0.4041  0.1784  0.1660
22029SOL    HW178146   5.873   1.500   9.264  0.2973  0.8439 -0.0997
22029SOL    HW278147   6.008   1.591   9.277  0.0755  1.0595  0.6835
22030SOL     OW78148   3.867   4.888   0.385 -0.0613  0.1471 -0.3337
22030SOL    HW178149   3.863   4.976   0.432  0.2908 -0.0966  0.1640
22030SOL    HW278150   3.829   4.817   0.444 -1.6021  0.1844 -1.2704
22031SOL     OW78151   0.517   8.071   9.836 -0.0859 -0.3982  0.3819
22031SOL    HW178152   0.458   8.128   9.778 -0.7636 -0.4199  1.0361
22031SOL    HW278153   0.609   8.068   9.797  0.1655  1.7763  0.7495
22032SOL     OW78154   5.746   1.790   8.952  0.8230  0.0632  0.7297
22032SOL    HW178155   5.698   1.772   9.037 -0.1140 -1.0912 -0.0283
22032SOL    HW278156   5.701   1.866   8.903  1.5683  0.9556  1.4092
22033SOL     OW78157   7.361   9.847   8.906 -0.0094 -0.4733 -0.3569
22033SOL    HW178158   7.353   9.748   8.908 -2.3226 -0.3348 -1.3875
22033SOL    HW278159   7.349   9.880   8.812 -1.1751  0.8994  0.2507
22034SOL     OW78160   2.036   3.090   8.860 -0.2475 -0.2232  0.5507
22034SOL    HW178161   2.060   3.162   8.794  1.4750 -0.4074  0.9516
22034SOL    HW278162   1.947   3.051   8.837 -0.3727  0.8064 -0.7276
22035SOL     OW78163   9.773   8.974   7.788 -0.3759  0.0472  0.3179
22035SOL    HW178164   9.730   8.904   7.730 -1.7927  1.4856 -0.4049
22035SOL    HW278165   9.729   9.062   7.772  1.3363  1.1039  1.2821
22036SOL     OW78166   8.561   6.360   6.316 -0.0171 -0.4614  0.5476
22036SOL    HW178167   8.614   6.341   6.234  1.0694 -1.3079  1.4405
22036SOL    HW278168   8.481   6.416   6.292  1.2706  0.8422 -0.8019
22037SOL     OW78169   9.046   4.298   7.737  0.4809 -0.1552  0.1754
22037SOL    HW178170   9.053   4.233   7.661 -0.1978  0.3816 -0.3465
22037SOL    HW278171   9.131   4.350   7.744  0.5424 -0.2019 -0.2151
22038SOL     OW78172   4.930   7.290   4.452 -0.1383 -0.0162 -0.4224
22038SOL    HW178173   4.839   7.329   4.437 -1.1510 -0.5436  3.5813
22038SOL    HW278174   4.921   7.196   4.485  1.8809 -0.3341 -0.7334
22039SOL     OW78175   2.735   4.171   6.816  0.1823 -0.5874  0.0813
22039SOL    HW178176   2.686   4.129   6.739 -0.8352 -0.4390  0.6315
22039SOL    HW278177   2.802   4.106   6.852  0.9838 -0.4906 -1.2146
22040SOL     OW78178   8.818   6.110   8.362 -0.4925  0.1290 -0.2160
22040SOL    HW178179   8.863   6.127   8.450  1.4587  0.5485 -1.2514
22040SOL    HW278180   8.767   6.025   8.366  3.8376 -2.6414 -0.2076
22041SOL     OW78181   6.312   7.827   4.139  0.5927 -0.0557  0.3707
22041SOL    HW178182   6.392   7.792   4.090  0.3238 -2.2830  1.4943
22041SOL    HW278183   6.233   7.768   4.122 -0.7968  1.9669 -0.5096
22042SOL     OW78184   2.608   2.304   2.542  0.4514 -0.2559  0.1819
22042SOL    HW178185   2.568   2.240   2.608  2.6262 -1.0693  0.7499
22042SOL    HW278186   2.658   2.253   2.472  1.9585  0.7955  0.4733
22043SOL     OW78187   2.014   6.044   8.104  0.3401 -0.0178 -0.0690
22043SOL    HW178188   1.962   6.005   8.180  1.2423  1.5354  1.3814
22043SOL    HW278189   2.066   5.972   8.059 -1.2480 -1.1917 -0.0952
22044SOL     OW78190   1.323   0.454   7.022 -0.0037  0.3552 -0.0760
22044SOL    HW178191   1.415   0.447   6.983 -0.6221 -1.6123 -1.2288
22044SOL    HW278192   1.278   0.536   6.987 -0.7212 -1.6263 -3.9578
22045SOL     OW78193   6.010   1.951   1.262 -0.2880  0.7610  0.1741
22045SOL    HW178194   6.060   2.037   1.255  0.5209  0.2478 -0.3800
22045SOL    HW278195   6.062   1.878   1.218 -0.9812 -0.0110  0.6138
22046SOL     OW78196   3.328   6.835   8.348 -0.5649  0.5643 -0.4127
22046SOL    HW178197   3.234   6.837   8.384 -0.6030  1.5826 -0.5522
22046SOL    HW278198   3.391   6.813   8.422 -1.0038 -1.1792 -0.5305
22047SOL     OW78199   9.936   9.556   6.409  0.2070 -0.0447 -0.1354
22047SOL    HW178200   9.875   9.487   6.370  0.8484  0.7278 -2.6156
22047SOL    HW278201   9.885   9.641   6.423  0.0424 -0.2438  0.5034
22048SOL     OW78202   1.073   0.275   7.883  0.3786 -0.3589  0.2230
22048SOL    HW178203   1.093   0.346   7.950  0.3635 -0.4346  0.3082
22048SOL    HW278204   1.148   0.209   7.881  0.0514 -0.7512  0.6862
22049SOL     OW78205   1.990   0.237   8.559 -0.0735  0.3440 -0.0345
22049SOL    HW178206   1.921   0.240   8.631  0.7675  1.0293  0.7586
22049SOL    HW278207   2.072   0.286   8.590  0.5318  0.0777 -1.2054
22050SOL     OW78208   1.826   8.455   6.846  0.2390 -0.0873  0.1563
22050SOL    HW178209   1.788   8.526   6.905 -1.1306 -0.9522  0.3383
22050SOL    HW278210   1.751   8.410   6.796  1.1791 -0.7800 -0.6401
22051SOL     OW78211   1.005   6.902   7.347 -1.1980  0.3888  0.2585
22051SOL    HW178212   0.966   6.816   7.379 -0.1551  0.2965  1.3090
22051SOL    HW278213   1.033   6.957   7.425  2.4011 -0.3015 -0.4313
22052SOL     OW78214   1.408   5.703   0.674  0.7747  0.7523  0.4369
22052SOL    HW178215   1.392   5.667   0.766  0.8416  0.0967  0.1909
22052SOL    HW278216   1.390   5.632   0.607  1.4991  0.9990 -0.0198
22053SOL     OW78217   0.895   0.874   0.409 -0.5523  0.0483  0.4936
22053SOL    HW178218   0.807   0.895   0.366 -1.0563  0.9494  1.9107
22053SOL    HW278219   0.943   0.960   0.430  0.1599 -0.4087  0.7370
22054SOL     OW78220   7.712   9.205   9.375 -0.0687 -0.2277 -0.1344
22054SOL    HW178221   7.776   9.168   9.442 -0.6431  0.9475  1.0767
22054SOL    HW278222   7.622   9.161   9.387 -0.3166  0.3791  0.2331
22055SOL     OW78223   3.700   9.584   7.487  0.0754  0.0364  0.0101
22055SOL    HW178224   3.712   9.507   7.550 -0.4189 -0.7378 -0.8314
22055SOL    HW278225   3.709   9.670   7.537  0.9081 -0.5699  0.9061
22056SOL     OW78226   1.268   8.331   9.774  0.0851  0.3865 -0.0059
22056SOL    HW178227   1.176   8.295   9.792 -0.7623  1.8777 -1.2708
22056SOL    HW278228   1.310   8.278   9.700  0.5338 -0.7572  1.0571
22057SOL     OW78229   5.443   3.283   9.402 -0.5122  0.0023 -0.2725
22057SOL    HW178230   5.476   3.273   9.308 -0.0841 -0.7854 -0.0399
22057SOL    HW278231   5.492   3.359   9.446  0.8515 -1.0162 -0.0059
22058SOL     OW78232   1.625   7.302   7.251 -0.2431  0.4612  0.6644
22058SOL    HW178233   1.527   7.317   7.259 -0.2753 -0.2948  1.8020
22058SOL    HW278234   1.668   7.383   7.212 -1.2214  1.0765  0.8465
22059SOL     OW78235   4.133   6.992   7.232  0.1612 -0.2860  0.7309
22059SOL    HW178236   4.227   6.978   7.202 -0.7095 -0.8693 -1.9538
22059SOL    HW278237   4.114   6.937   7.313  2.3821  0.5680  1.8528
22060SOL     OW78238   3.198   7.085   7.330  0.0601 -0.0389  0.1290
22060SOL    HW178239   3.152   7.016   7.274 -0.2124  0.1856  0.0747
22060SOL    HW278240   3.161   7.175   7.309  0.6962  0.1709 -0.0811
22061SOL     OW78241   1.041   1.992   4.571 -0.2834 -0.8402 -0.0013
22061SOL    HW178242   1.097   2.025   4.494 -0.0247 -0.1223  0.4893
22061SOL    HW278243   1.005   1.902   4.549  1.3747 -1.4842 -0.1894
22062SOL     OW78244   9.431   3.695   4.628 -0.0926  0.1588 -0.1616
22062SOL    HW178245   9.382   3.624   4.679  1.4748  0.0565  1.2353
22062SOL    HW278246   9.522   3.661   4.603 -0.0433  1.0000 -1.1627
22063SOL     OW78247   3.505   7.479   4.856  0.1228 -0.0685 -0.2742
22063SOL    HW178248   3.544   7.494   4.947  0.8107  1.0928 -0.7432
22063SOL    HW278249   3.406   7.486   4.860  0.2438  1.6889  0.0947
22064SOL     OW78250   4.669   7.657   3.153 -0.2811  0.4341  0.0551
22064SOL    HW178251   4.762   7.623   3.167 -0.9506 -1.0684  0.9260
22064SOL    HW278252   4.603   7.591   3.189 -1.6487  2.2097  0.8757
22065SOL     OW78253   9.177   2.405   0.715  0.4773 -0.3189  0.8310
22065SOL    HW178254   9.241   2.436   0.645  0.2722 -0.6277  0.5075
22065SOL    HW278255   9.202   2.312   0.743  0.3429 -0.3299  0.9145
22066SOL     OW78256   8.568   5.593   7.125 -0.4399 -0.4156 -1.1425
22066SOL    HW178257   8.608   5.682   7.142  0.4629 -0.9362 -0.4910
22066SOL    HW278258   8.528   5.558   7.210  1.2560 -1.6373 -0.8343
22067SOL     OW78259   0.751   1.751   6.691 -0.6729  0.1042 -0.0721
22067SOL    HW178260   0.841   1.765   6.651 -0.4799  0.2631  0.4214
22067SOL    HW278261   0.684   1.807   6.641 -0.4055  0.4159 -0.0856
22068SOL     OW78262   9.931   1.998   3.127  0.4798 -0.1510 -0.2756
22068SOL    HW178263   9.895   2.007   3.034  0.5129 -0.0674 -0.2802
22068SOL    HW278264   9.896   2.072   3.184  0.6040 -0.0973 -0.2680
22069SOL     OW78265   1.922   0.512   7.564  0.0343  0.1582 -0.2945
22069SOL    HW178266   1.989   0.538   7.633 -0.8607 -0.2940  0.7695
22069SOL    HW278267   1.953   0.542   7.474  1.1785  0.8291  0.3110
22070SOL     OW78268   1.274   5.551   7.958  0.4509  0.6650  0.0781
22070SOL    HW178269   1.351   5.497   7.925 -1.5267 -0.7906 -2.3606
22070SOL    HW278270   1.206   5.490   8.000  0.0219  1.7693  1.0392
22071SOL     OW78271   1.926   0.569   2.304 -1.3161 -0.3801  0.1300
22071SOL    HW178272   1.938   0.649   2.362 -1.7716 -0.8891  0.9311
22071SOL    HW278273   1.892   0.598   2.214 -2.5834  0.2244  0.7982
22072SOL     OW78274   9.900   6.405   7.774 -0.0792  0.2361  0.7946
22072SOL    HW178275   9.985   6.412   7.826  1.3039  0.6184 -1.4842
22072SOL    HW278276   9.878   6.308   7.759  0.6478  0.1506  0.2633
22073SOL     OW78277   9.195   2.933   7.182 -0.2967  0.2097  1.0929
22073SOL    HW178278   9.294   2.938   7.169 -0.7293  0.4921 -2.5021
22073SOL    HW278279   9.166   2.838   7.177 -0.6493  0.4237 -2.0855
22074SOL     OW78280   6.428   4.229   1.090 -0.2633 -0.3273 -0.0850
22074SOL    HW178281   6.352   4.173   1.055 -0.6407 -1.0785  1.8787
22074SOL    HW278282   6.393   4.315   1.125 -0.0451 -0.1455 -0.3065
22075SOL     OW78283   9.750   1.126   7.680 -0.2859  0.3513  0.0927
22075SOL    HW178284   9.672   1.078   7.721  0.2882 -0.0552  0.7143
22075SOL    HW278285   9.756   1.219   7.717  0.1560  0.0271  0.8411
22076SOL     OW78286   4.134   1.283   2.063  0.3521  0.3442  0.8311
22076SOL    HW178287   4.168   1.207   2.119 -0.0971  0.3913  1.1699
22076SOL    HW278288   4.087   1.247   1.983 -0.3107  0.2528  1.2549
22077SOL     OW78289   4.708   3.772   3.262 -0.5871 -0.2288 -0.2838
22077SOL    HW178290   4.670   3.827   3.187  0.9900  0.0484 -0.9106
22077SOL    HW278291   4.705   3.825   3.347 -0.6464  0.1860 -0.5415
22078SOL     OW78292   4.670   2.128   6.657 -0.2104  0.9944  0.0092
22078SOL    HW178293   4.768   2.117   6.640  0.1329  0.7095  2.0747
22078SOL    HW278294   4.650   2.224   6.676  0.0695  0.6772  1.9655
22079SOL     OW78295   3.425   0.403   4.827 -0.4132  0.2331  0.2107
22079SOL    HW178296   3.371   0.333   4.874 -1.5943 -0.8160 -2.6503
22079SOL    HW278297   3.518   0.369   4.813  0.1821  0.8501  2.3829
22080SOL     OW78298   7.072   4.000  10.059  0.5375  0.1760  0.5106
22080SOL    HW178299   7.085   4.095  10.028  1.1218  0.5575  1.9216
22080SOL    HW278300   7.087   3.938   9.982  1.6307  1.1465 -0.0781
22081SOL     OW78301   3.971   3.973   1.500  0.0458 -0.2713  0.7214
22081SOL    HW178302   3.958   3.976   1.599 -1.2160 -1.2003  0.5831
22081SOL    HW278303   4.047   4.034   1.475  1.4858 -1.3091  2.4257
22082SOL     OW78304   9.843   1.784   1.383 -0.0831  0.2055 -0.6643
22082SOL    HW178305   9.774   1.720   1.417 -0.6000 -0.7216 -3.3129
22082SOL    HW278306   9.802   1.875   1.374 -0.4965  0.0239 -0.6522
22083SOL     OW78307   1.829   0.624   8.009 -0.0348 -0.7650  0.0778
22083SOL    HW178308   1.822   0.690   8.084  0.4593  0.5246 -0.9802
22083SOL    HW278309   1.757   0.555   8.018 -0.1798 -0.4417  1.5450
22084SOL     OW78310   3.978   9.748   1.821 -0.0785 -0.3992  0.3816
22084SOL    HW178311   3.980   9.840   1.860 -2.5538  0.0411 -0.4584
22084SOL    HW278312   4.007   9.682   1.890  0.4230  0.8711  1.4046
22085SOL     OW78313   4.515   5.244   2.935  0.0815 -0.1328 -0.3893
22085SOL    HW178314   4.492   5.252   3.032 -0.5226  0.4497 -0.5760
22085SOL    HW278315   4.556   5.154   2.918 -2.7609 -1.5244 -0.1638
22086SOL     OW78316   6.762   9.433   5.776  0.5216  0.0901  0.4981
22086SOL    HW178317   6.842   9.394   5.731 -0.8181 -0.9642 -1.0826
22086SOL    HW278318   6.783   9.453   5.871  2.8266  0.4061 -0.0454
22087SOL     OW78319   0.290   7.713   5.507 -0.2310  0.2710 -0.3713
22087SOL    HW178320   0.249   7.790   5.458 -0.9008  0.3891  0.3793
22087SOL    HW278321   0.320   7.743   5.597  0.3169 -0.1389 -0.4136
22088SOL     OW78322   3.952   5.971   9.942  0.1454  0.4379 -0.1422
22088SOL    HW178323   4.049   5.953   9.958  0.0831 -0.5505 -0.8116
22088SOL    HW278324   3.906   5.886   9.918 -0.9282  0.8711  0.3562
22089SOL     OW78325   3.975   5.469   9.910  0.0110 -0.2371  0.4488
22089SOL    HW178326   3.917   5.392   9.882  1.3137  0.3631 -4.3765
22089SOL    HW278327   3.919   5.535   9.960 -2.0190 -2.4841  1.2756
22090SOL     OW78328   3.394   4.612   9.668 -0.5264  0.4634  0.2401
22090SOL    HW178329   3.301   4.625   9.636 -0.9303 -3.2226 -0.3168
22090SOL    HW278330   3.392   4.562   9.755  0.9291 -0.6388 -0.3397
22091SOL     OW78331   6.924   2.113   2.323  0.1034 -0.1518  0.0536
22091SOL    HW178332   6.942   2.197   2.373  0.0906  1.3056 -2.3119
22091SOL    HW278333   6.845   2.066   2.362  0.4569  0.6342  1.7316
22092SOL     OW78334   1.895   7.819   4.678 -1.2254  0.0570  0.0097
22092SOL    HW178335   1.867   7.727   4.705 -0.6201 -0.8957 -2.5051
22092SOL    HW278336   1.965   7.813   4.607 -0.3469  2.4687  0.6128
22093SOL     OW78337   6.556   9.818   5.734  0.3784  0.4277  0.3339
22093SOL    HW178338   6.490   9.850   5.666 -1.1327  0.0490  1.6011
22093SOL    HW278339   6.562   9.884   5.808  2.4098  1.0879 -0.3830
22094SOL     OW78340   9.768   7.343   7.107  0.2423  0.2147 -0.5884
22094SOL    HW178341   9.676   7.366   7.138  0.3756 -0.9468  0.6734
22094SOL    HW278342   9.787   7.393   7.022 -2.3304 -1.1644 -2.0360
22095SOL     OW78343   4.808   4.183   2.580  0.2881 -0.1775  0.2131
22095SOL    HW178344   4.770   4.274   2.596 -1.1485 -0.7767  0.2796
22095SOL    HW278345   4.870   4.185   2.502  1.8396  1.2836  1.4608
22096SOL     OW78346   5.787   9.405   5.505 -0.4468 -0.6045 -0.5006
22096SOL    HW178347   5.768   9.496   5.469  1.0814 -0.1017 -0.0785
22096SOL    HW278348   5.752   9.399   5.599  2.4901  0.7539  0.7448
22097SOL     OW78349   9.045   5.342   7.228 -0.1594  0.1491  0.2654
22097SOL    HW178350   9.009   5.435   7.232  0.4707  0.5349 -2.0707
22097SOL    HW278351   9.142   5.342   7.252 -0.2120  0.0483  0.4823
22098SOL     OW78352   2.597   3.000   5.719  0.1439 -0.5293  0.0648
22098SOL    HW178353   2.671   3.063   5.695 -1.2826  0.5961 -1.5521
22098SOL    HW278354   2.596   2.924   5.654  1.5432 -2.0016  1.7097
22099SOL     OW78355   4.502   0.440   1.873  0.0032 -0.3263 -0.6027
22099SOL    HW178356   4.518   0.539   1.871 -1.0133 -0.1429 -0.0863
22099SOL    HW278357   4.504   0.404   1.780  2.4600 -0.1731 -0.6271
22100SOL     OW78358   1.772   4.377   5.357  0.1297 -0.2449  0.5350
22100SOL    HW178359   1.836   4.385   5.281  1.0886  1.0070  1.4315
22100SOL    HW278360   1.720   4.293   5.349  0.0553 -0.0043 -1.6137
22101SOL     OW78361   1.927   1.050   4.761 -0.2601 -0.1004  0.1476
22101SOL    HW178362   1.924   1.149   4.747 -1.5932  0.0834  1.6272
22101SOL    HW278363   1.837   1.010   4.739 -0.3914 -0.6781  1.6958
22102SOL     OW78364   4.829   8.586   8.047 -0.4155 -0.4309  0.2028
22102SOL    HW178365   4.777   8.565   7.964  1.0983 -1.7321 -0.4404
22102SOL    HW278366   4.873   8.675   8.038 -2.6187  0.7564  0.8158
22103SOL     OW78367   3.760   6.292   7.402  0.2562  0.5988 -0.2455
22103SOL    HW178368   3.766   6.212   7.461  1.8341  1.4746  0.8528
22103SOL    HW278369   3.846   6.302   7.351  0.0041  1.4633 -0.5048
22104SOL     OW78370   2.745   7.119   8.822 -0.1060  0.1036 -0.2878
22104SOL    HW178371   2.728   7.026   8.789  1.0328 -0.6474  1.2073
22104SOL    HW278372   2.671   7.146   8.883 -0.8601  0.5075 -1.3576
22105SOL     OW78373   2.316   7.714   4.494 -0.1552  0.2952 -0.3378
22105SOL    HW178374   2.365   7.649   4.435 -0.6156  0.7961 -1.2866
22105SOL    HW278375   2.355   7.712   4.586  1.8815  0.9262 -1.1601
22106SOL     OW78376   3.177   3.057   8.295 -0.1718  0.3601 -0.0581
22106SOL    HW178377   3.094   3.048   8.349 -0.1645  1.3035  0.1251
22106SOL    HW278378   3.182   2.984   8.228 -0.2045 -0.8078  1.1858
22107SOL     OW78379   5.503   7.150   4.575  0.0368 -0.5938 -0.4830
22107SOL    HW178380   5.411   7.177   4.544 -0.1797 -2.6792 -1.7775
22107SOL    HW278381   5.571   7.194   4.517 -0.1162  1.1132  0.5984
22108SOL     OW78382   7.464   3.315   8.948  0.3060  0.1714 -0.0892
22108SOL    HW178383   7.532   3.312   9.021 -1.2673  0.5482  1.4247
22108SOL    HW278384   7.430   3.408   8.937 -0.4700 -0.1344 -0.3633
22109SOL     OW78385   6.142   4.293   8.802  0.0437 -0.5146  0.9028
22109SOL    HW178386   6.045   4.319   8.798 -0.1700 -1.2378  1.4518
22109SOL    HW278387   6.168   4.247   8.717 -0.4284 -1.4999  1.2931
22110SOL     OW78388   1.594   7.223   9.373 -0.0060 -0.7132  0.3171
22110SOL    HW178389   1.662   7.157   9.402  0.4098 -0.9615 -1.1663
22110SOL    HW278390   1.560   7.199   9.282 -0.4241  0.6672  0.0866
22111SOL     OW78391   1.997   2.497   1.126 -0.4382  0.2667 -0.6907
22111SOL    HW178392   1.986   2.493   1.027  1.5864  0.0378 -0.9439
22111SOL    HW278393   2.054   2.421   1.156 -0.6662  0.5851  0.5918
22112SOL     OW78394   9.721   0.097   8.991  0.4784  0.3175 -0.6403
22112SOL    HW178395   9.756   0.005   8.974  2.0297  0.7859 -0.0671
22112SOL    HW278396   9.764   0.162   8.929  2.8067  1.3288  1.9138
22113SOL     OW78397   8.773   6.195   3.635  0.0475 -0.0234  0.7951
22113SOL    HW178398   8.870   6.170   3.644 -0.6217 -2.3213  1.8732
22113SOL    HW278399   8.717   6.112   3.635 -1.8648  1.2284 -0.9140
22114SOL     OW78400   0.502   6.264   1.322  0.3694 -0.1578 -0.2359
22114SOL    HW178401   0.557   6.184   1.295 -0.0948 -1.0267  1.3355
22114SOL    HW278402   0.462   6.248   1.412  0.4007  1.9362  0.1757
22115SOL     OW78403   5.275   8.537   2.790 -0.4904 -0.7226 -0.1238
22115SOL    HW178404   5.341   8.610   2.809 -1.3778 -0.3129  1.5187
22115SOL    HW278405   5.315   8.449   2.816 -0.2741 -0.5633  0.0918
22116SOL     OW78406   1.632   5.732   0.256 -0.5716  0.1871 -0.4446
22116SOL    HW178407   1.628   5.823   0.298  2.3637  0.1430  0.0708
22116SOL    HW278408   1.565   5.672   0.300 -2.8082  2.1710 -1.0446
22117SOL     OW78409   2.804   2.190   0.543 -0.3442 -0.0689  0.2516
22117SOL    HW178410   2.875   2.120   0.550 -0.0978  0.0923 -0.5241
22117SOL    HW278411   2.819   2.243   0.459 -2.8996 -1.7297 -1.3081
22118SOL     OW78412   2.209   9.076   7.596  0.8373  0.2480 -0.0611
22118SOL    HW178413   2.296   9.103   7.555  0.4808  0.8576 -0.4184
22118SOL    HW278414   2.189   9.134   7.674  0.9638 -0.1809  0.2937
22119SOL     OW78415   0.812   1.976   5.936 -0.3302 -1.0315 -0.3385
22119SOL    HW178416   0.800   1.934   5.846 -0.8807 -0.3059 -0.6202
22119SOL    HW278417   0.759   1.926   6.004  0.0666 -1.5666 -0.4212
22120SOL     OW78418   4.455   6.063   0.786  0.4013 -0.3822 -0.7038
22120SOL    HW178419   4.453   6.152   0.739  2.8760 -0.6723 -1.4100
22120SOL    HW278420   4.516   6.069   0.864 -0.9309 -0.9414  0.3942
22121SOL     OW78421   9.508   4.043   9.758  0.2942 -0.1976  0.2465
22121SOL    HW178422   9.546   4.130   9.789 -0.1974  0.4983 -1.0824
22121SOL    HW278423   9.472   4.053   9.666  1.3612 -2.1476 -0.4106
22122SOL     OW78424   9.863   9.311   1.263  0.3186 -0.6532  0.1235
22122SOL    HW178425   9.909   9.268   1.186  0.0967  0.2570 -0.5160
22122SOL    HW278426   9.883   9.409   1.264 -0.5424 -0.4728  0.5912
22123SOL     OW78427   2.918   5.630   7.833  0.5971  0.5487  1.1218
22123SOL    HW178428   2.909   5.569   7.912  1.9372 -2.3969 -0.9431
22123SOL    HW278429   2.840   5.617   7.772  1.2176  0.4544  0.3553
22124SOL     OW78430   0.197   6.408   5.159  0.4204  0.2333 -0.2043
22124SOL    HW178431   0.200   6.417   5.259 -2.3388 -0.5294 -0.0174
22124SOL    HW278432   0.217   6.497   5.117  1.5130  0.5796  1.0256
22125SOL     OW78433   9.986   5.131   1.455  0.7499  0.1215 -0.2145
22125SOL    HW178434   9.907   5.141   1.515  0.8004  0.1387 -0.1499
22125SOL    HW278435   9.960   5.081   1.372  0.7539 -0.1736 -0.0371
22126SOL     OW78436   1.382   4.879   2.183 -0.4068 -0.5814  0.1944
22126SOL    HW178437   1.339   4.960   2.224 -1.4990 -2.2265  2.4263
22126SOL    HW278438   1.335   4.856   2.098  0.2778  1.4591 -0.7422
22127SOL     OW78439   0.897   6.942   6.355 -0.0171  0.8646 -0.2315
22127SOL    HW178440   0.832   6.877   6.317 -0.1619  0.5523  0.5455
22127SOL    HW278441   0.962   6.894   6.415  1.7434  0.9538 -2.0072
22128SOL     OW78442   1.400   4.180   3.597  1.1790  0.5755  0.9235
22128SOL    HW178443   1.421   4.271   3.633  0.9758 -0.5326  3.9530
22128SOL    HW278444   1.308   4.154   3.626  1.2307 -0.6130  0.0428
22129SOL     OW78445   8.572   0.488   9.196 -0.4059 -0.3183 -0.7049
22129SOL    HW178446   8.508   0.467   9.270  1.4802 -0.2333  0.9902
22129SOL    HW278447   8.642   0.416   9.191 -0.9490 -0.7119 -2.9052
22130SOL     OW78448   3.711   7.612   7.248 -0.1707  0.4030  0.6055
22130SOL    HW178449   3.669   7.646   7.164 -0.1937  0.9997  0.8614
22130SOL    HW278450   3.656   7.537   7.285  0.5663 -0.7755 -0.6472
22131SOL     OW78451   0.125   9.356   8.758  0.4510  0.5037 -0.0730
22131SOL    HW178452   0.083   9.280   8.809  1.0549 -0.8745 -1.5921
22131SOL    HW278453   0.060   9.432   8.753 -0.4295 -0.1579  0.8780
22132SOL     OW78454   0.314   0.190   2.357  0.2867 -0.0134  0.2401
22132SOL    HW178455   0.290   0.181   2.260  1.2290  0.1232 -0.0116
22132SOL    HW278456   0.315   0.287   2.382  1.5840  0.0413 -0.0138
22133SOL     OW78457   1.447   3.348   2.171 -0.8867  0.4508  0.1494
22133SOL    HW178458   1.387   3.296   2.109 -1.0050  0.8365 -0.0582
22133SOL    HW278459   1.443   3.445   2.148 -0.6711  0.5550  0.5477
22134SOL     OW78460   2.544   7.331   9.223  0.3922 -0.2974 -0.1047
22134SOL    HW178461   2.607   7.255   9.238  0.9036 -0.3715 -2.4051
22134SOL    HW278462   2.460   7.315   9.275  0.3717 -2.6047 -0.7925
22135SOL     OW78463   8.724   2.930   7.354 -0.0576  0.5887  0.2165
22135SOL    HW178464   8.781   2.995   7.303  0.2451  1.7798  2.0590
22135SOL    HW278465   8.631   2.964   7.361 -0.2856  0.0616 -0.1839
22136SOL     OW78466   6.666   0.565   4.723  0.1674  0.0156  0.1012
22136SOL    HW178467   6.616   0.591   4.640  0.9094  1.8839  0.1961
22136SOL    HW278468   6.724   0.487   4.704 -2.0512 -1.5872 -0.2667
22137SOL     OW78469   3.174   9.968   7.173 -0.1829  0.4160  0.1967
22137SOL    HW178470   3.189   9.971   7.075 -1.9904  1.5184 -0.0780
22137SOL    HW278471   3.246  10.019   7.220 -0.9197  2.3710 -0.7674
22138SOL     OW78472   7.930   7.807   6.081  0.3408  0.5844  0.4942
22138SOL    HW178473   8.012   7.771   6.037  0.3207  0.1052  0.8407
22138SOL    HW278474   7.925   7.906   6.068  0.3182  0.4436 -0.6067
22139SOL     OW78475   1.254   3.157   2.053  0.3498 -0.2647 -0.0456
22139SOL    HW178476   1.205   3.074   2.079  0.3101 -0.5406 -0.9617
22139SOL    HW278477   1.321   3.135   1.982 -0.8348  0.7669 -1.5199
22140SOL     OW78478   4.666   0.176   5.988 -0.6719 -0.0368  0.1769
22140SOL    HW178479   4.764   0.158   5.987 -0.3116  1.7310  1.0528
22140SOL    HW278480   4.639   0.223   5.904 -1.1526 -2.3145 -0.9699
22141SOL     OW78481   5.144   5.444   0.755 -0.5856 -0.6279  0.9212
22141SOL    HW178482   5.232   5.469   0.714 -0.7124 -2.3136 -0.4272
22141SOL    HW278483   5.071   5.468   0.691 -0.8905 -2.0075  0.7518
22142SOL     OW78484   9.258   3.992   7.391 -0.0882 -0.1529  0.0572
22142SOL    HW178485   9.253   3.950   7.482  1.0890 -1.0422 -0.2790
22142SOL    HW278486   9.303   3.930   7.328 -1.3905  0.2302 -1.2928
22143SOL     OW78487   6.082   0.954   5.176 -0.9020 -0.0308 -0.3077
22143SOL    HW178488   6.087   0.873   5.118  0.8781  0.9650 -1.5931
22143SOL    HW278489   6.107   0.930   5.270 -0.8635 -1.0557 -0.5736
22144SOL     OW78490   8.553   0.247   6.603  0.1861  0.2498 -0.1044
22144SOL    HW178491   8.478   0.290   6.553 -0.0942  2.0793  1.8185
22144SOL    HW278492   8.640   0.273   6.563 -0.0416  1.6027  0.2612
22145SOL     OW78493   9.787   2.938   7.669 -0.2174 -0.2905 -0.1343
22145SOL    HW178494   9.834   3.012   7.717  0.1084  0.4186 -1.5399
22145SOL    HW278495   9.851   2.894   7.605 -0.7924 -0.8930 -0.2983
22146SOL     OW78496   7.087   2.986   4.794 -0.3367 -0.2896  0.1766
22146SOL    HW178497   7.127   2.983   4.702 -1.3230  0.9800 -0.3031
22146SOL    HW278498   6.999   2.937   4.793 -0.0423 -0.8376  0.6111
22147SOL     OW78499   8.918   6.361   6.598 -0.0759 -0.4148  0.2970
22147SOL    HW178500   8.965   6.290   6.546  1.1829  0.0815  0.7324
22147SOL    HW278501   8.828   6.378   6.558  0.7460 -0.2471 -1.5265
22148SOL     OW78502   5.748   7.793   4.345 -0.5039 -0.8740 -0.6213
22148SOL    HW178503   5.742   7.891   4.359 -1.1003 -1.0937  0.7879
22148SOL    HW278504   5.728   7.771   4.249 -1.5948  0.2801 -0.6680
22149SOL     OW78505   8.747   3.495   6.023  0.1854 -0.2663  0.5260
22149SOL    HW178506   8.799   3.417   5.988  0.6399  0.3249 -0.1267
22149SOL    HW278507   8.679   3.523   5.956  1.8781  1.6472 -0.4588
22150SOL     OW78508   2.119   4.408   6.231 -0.0790 -0.1620 -0.5070
22150SOL    HW178509   2.204   4.429   6.280 -0.3110 -0.8167  0.1786
22150SOL    HW278510   2.091   4.488   6.178  0.4178  0.4025  0.0722
22151SOL     OW78511   8.581   2.386   8.722 -0.2768  0.3784 -0.0195
22151SOL    HW178512   8.545   2.302   8.682  1.4691 -0.4988  0.1973
22151SOL    HW278513   8.587   2.457   8.653 -2.8392  0.6988  0.0444
22152SOL     OW78514   1.580   0.974   4.101  0.5579 -0.5429  0.3959
22152SOL    HW178515   1.605   0.892   4.153  1.5201 -1.8392 -2.0058
22152SOL    HW278516   1.546   0.946   4.011  0.4857  1.7117 -0.2994
22153SOL     OW78517   8.996   4.548   2.853  0.0072 -0.7873  0.4104
22153SOL    HW178518   8.936   4.626   2.875  0.4697 -0.1580 -0.5608
22153SOL    HW278519   8.965   4.468   2.904 -1.5740 -0.4265  0.0444
22154SOL     OW78520   0.885   1.856   2.952 -0.1905 -0.2648  0.0396
22154SOL    HW178521   0.943   1.808   3.018  1.2839 -1.6698 -2.2408
22154SOL    HW278522   0.800   1.884   2.997  0.7845 -1.1898  2.5255
22155SOL     OW78523   0.353   3.107   9.102  0.3651  0.3508  0.3340
22155SOL    HW178524   0.372   3.033   9.167 -0.9566 -0.2002  0.1107
22155SOL    HW278525   0.405   3.093   9.018  0.9002  0.2364  0.6820
22156SOL     OW78526   7.691   8.935   4.375  0.3555 -0.2112  0.0901
22156SOL    HW178527   7.755   8.913   4.449 -0.2911  1.5975  1.2032
22156SOL    HW278528   7.600   8.947   4.413  0.2591  2.0846 -0.7888
22157SOL     OW78529   3.741   3.911   1.870 -0.0537  0.0612 -0.6408
22157SOL    HW178530   3.785   3.841   1.926 -0.9369  0.9873  1.2605
22157SOL    HW278531   3.789   3.998   1.883 -1.0703  0.5750 -0.2897
22158SOL     OW78532   9.143   4.267   5.965 -0.1974 -0.9389 -0.7395
22158SOL    HW178533   9.226   4.323   5.959  1.3631 -3.2671 -1.9324
22158SOL    HW278534   9.071   4.319   6.010  2.2031  0.8014  1.2572
22159SOL     OW78535   3.291   9.828   9.328  0.1373  0.2709  0.0137
22159SOL    HW178536   3.278   9.822   9.427 -0.1288  0.2267 -0.0210
22159SOL    HW278537   3.221   9.888   9.289  0.4578  0.5639 -0.1056
22160SOL     OW78538   1.643   5.489   9.557 -0.0768  0.0334  0.4792
22160SOL    HW178539   1.568   5.449   9.609  1.1359 -0.0444  2.2160
22160SOL    HW278540   1.723   5.497   9.616  1.1008  0.6614 -1.1837
22161SOL     OW78541   3.273   2.127  10.036  0.3053  1.0393  0.6694
22161SOL    HW178542   3.313   2.114  10.127  1.1904  2.4028  0.4764
22161SOL    HW278543   3.319   2.201   9.989 -1.2110  1.3976 -0.2897
22162SOL     OW78544   3.773   1.207   8.929 -0.8184  0.1863 -0.4570
22162SOL    HW178545   3.780   1.119   8.974 -1.1361 -0.1693 -1.0917
22162SOL    HW278546   3.861   1.230   8.887  0.1571  1.5570  2.2041
22163SOL     OW78547   2.789   0.271   0.237 -0.6000 -0.0488  0.1107
22163SOL    HW178548   2.745   0.340   0.293 -0.2708 -0.3550  0.7611
22163SOL    HW278549   2.734   0.187   0.237 -1.1720  0.3130 -0.9527
22164SOL     OW78550   8.493   6.413   1.069  0.0046 -0.5930 -0.0167
22164SOL    HW178551   8.449   6.426   0.980 -1.5076  0.3766  0.8449
22164SOL    HW278552   8.523   6.502   1.104 -0.1304 -0.8637  0.8030
22165SOL     OW78553   9.656   9.816   8.271  0.0806  0.0959  0.1660
22165SOL    HW178554   9.565   9.838   8.236  0.1103  0.7243  0.4803
22165SOL    HW278555   9.703   9.757   8.205 -1.0299 -1.3110  0.6042
22166SOL     OW78556   2.380   5.118   5.265  0.2747 -0.2125 -0.0530
22166SOL    HW178557   2.404   5.215   5.257 -1.0389  0.1287  0.1037
22166SOL    HW278558   2.455   5.063   5.228  1.1578  0.8417  0.1132
22167SOL     OW78559   3.735   4.426   5.628 -0.2222 -0.4566  0.4612
22167SOL    HW178560   3.763   4.376   5.710 -1.0613  0.7517  1.5112
22167SOL    HW278561   3.763   4.375   5.547  0.9028 -1.5166  1.4913
22168SOL     OW78562   0.971   7.832   7.362 -0.3041 -0.1667 -0.5762
22168SOL    HW178563   0.980   7.854   7.459  1.1683 -1.0557 -0.4811
22168SOL    HW278564   0.890   7.775   7.347 -0.3491 -0.3020  0.1875
22169SOL     OW78565   4.873   0.863   7.415 -0.1378  0.0526 -0.0362
22169SOL    HW178566   4.851   0.765   7.421  0.8043 -0.3207 -2.1684
22169SOL    HW278567   4.849   0.908   7.501 -0.1830 -2.1407  1.1353
22170SOL     OW78568   6.939   3.670   2.919 -0.4015 -0.0405  0.5248
22170SOL    HW178569   6.853   3.706   2.883 -0.5514 -0.0494  0.8704
22170SOL    HW278570   7.014   3.730   2.891 -0.6913  0.7172  1.3497
22171SOL     OW78571   3.197   5.811   9.851 -0.0707 -0.3621 -0.2217
22171SOL    HW178572   3.151   5.774   9.770 -0.2722 -2.4852  0.8333
22171SOL    HW278573   3.129   5.836   9.919  0.1741  0.0681 -0.1329
22172SOL     OW78574   0.743   2.174   3.660 -0.4168 -0.3660 -0.2875
22172SOL    HW178575   0.823   2.228   3.634 -0.3850 -0.4090 -0.2786
22172SOL    HW278576   0.719   2.112   3.585  0.1320 -1.0258  0.0788
22173SOL     OW78577   8.712   4.992   4.372  0.2669  0.2454 -0.0053
22173SOL    HW178578   8.652   4.957   4.300 -0.0885 -1.2331  0.9826
22173SOL    HW278579   8.782   4.923   4.393 -0.5870  0.0090  2.1332
22174SOL     OW78580   4.574   3.347   1.094  0.0835  0.3342 -0.1648
22174SOL    HW178581   4.648   3.368   1.158  0.3396 -3.1348  0.7827
22174SOL    HW278582   4.612   3.324   1.005  0.2603 -2.0893  0.4973
22175SOL     OW78583   7.703   8.012   8.976  0.0905 -0.4485  0.0222
22175SOL    HW178584   7.724   8.080   9.046 -3.2856  0.5176  0.1690
22175SOL    HW278585   7.606   7.988   8.979  0.2922 -2.0067 -2.9231
22176SOL     OW78586   4.420   3.115   7.812  0.6202  0.0732 -0.1906
22176SOL    HW178587   4.461   3.093   7.724 -0.3665  0.1885 -0.6839
22176SOL    HW278588   4.481   3.176   7.862  1.3973 -0.3661 -0.5979
22177SOL     OW78589   3.808   6.275   3.137 -0.4247  0.2525 -0.8734
22177SOL    HW178590   3.832   6.192   3.187 -2.2659 -0.7873 -1.6743
22177SOL    HW278591   3.835   6.265   3.041  2.8968  2.1490 -0.2390
22178SOL     OW78592   1.871   6.414   2.799  0.5098  0.6033  0.2588
22178SOL    HW178593   1.805   6.339   2.789  1.7039 -0.3797 -0.3038
22178SOL    HW278594   1.842   6.474   2.874 -0.6736 -0.1857  0.4427
22179SOL     OW78595   8.822   9.304   7.324 -0.2789 -0.0226 -0.3884
22179SOL    HW178596   8.818   9.404   7.326  0.7497 -0.0029  0.8550
22179SOL    HW278597   8.797   9.268   7.413  0.3099 -0.8452 -0.5505
22180SOL     OW78598   0.224   0.135   8.501 -0.1801  0.6943  0.1081
22180SOL    HW178599   0.312   0.097   8.530 -0.8740 -1.6432 -0.7492
22180SOL    HW278600   0.167   0.153   8.581  0.0405 -0.4218  0.5289
22181SOL     OW78601   1.492   0.833   1.148 -0.2221 -0.1454  0.2181
22181SOL    HW178602   1.568   0.770   1.160  0.6802  0.5866 -1.3917
22181SOL    HW278603   1.437   0.805   1.070 -0.1576  0.6992 -0.1443
22182SOL     OW78604   9.251   1.317   8.268 -0.2305  0.0316 -0.4803
22182SOL    HW178605   9.163   1.300   8.312  0.3463  0.5092  0.8952
22182SOL    HW278606   9.241   1.392   8.202 -0.5137  1.2033  0.8619
22183SOL     OW78607   4.398   0.882   4.056  0.1970 -0.0049 -0.7359
22183SOL    HW178608   4.381   0.958   4.118 -0.9602 -0.5610 -0.3548
22183SOL    HW278609   4.311   0.839   4.031  0.6750 -0.0562 -2.4098
22184SOL     OW78610   1.546   4.191   9.989  0.2770  0.3549 -0.3377
22184SOL    HW178611   1.502   4.250  10.056 -1.3466 -0.3920 -0.7345
22184SOL    HW278612   1.587   4.112  10.035  0.1530  0.4252 -0.1065
22185SOL     OW78613   7.314   5.704   0.803 -0.2573  0.1646 -0.0626
22185SOL    HW178614   7.359   5.637   0.861  0.7347  0.7481 -0.1557
22185SOL    HW278615   7.382   5.763   0.759 -1.0514  0.4320 -0.9641
22186SOL     OW78616   0.545   2.792   4.078 -0.0949  0.4642  0.0076
22186SOL    HW178617   0.496   2.708   4.101  0.1430 -0.6493 -3.2403
22186SOL    HW278618   0.636   2.769   4.044  0.3980  2.1262  0.1525
22187SOL     OW78619   9.655   2.181   0.429  0.3516  0.0785 -0.0240
22187SOL    HW178620   9.555   2.180   0.439  0.6559 -0.7764  3.5060
22187SOL    HW278621   9.684   2.098   0.381 -0.5717 -0.0568 -0.3668
22188SOL     OW78622   9.662   4.125   1.926  0.1921 -0.3673  0.2338
22188SOL    HW178623   9.729   4.122   2.001  0.3335  0.2535  0.1295
22188SOL    HW278624   9.710   4.114   1.839  0.3510  1.5554  0.0516
22189SOL     OW78625   0.760   5.344   7.408 -1.0767  0.4141  0.3426
22189SOL    HW178626   0.832   5.356   7.340 -1.0745  0.4922  0.3589
22189SOL    HW278627   0.775   5.258   7.457  0.9772  2.0132  2.6807
22190SOL     OW78628   3.634   5.745   8.809  0.0259 -0.0638 -0.6557
22190SOL    HW178629   3.685   5.691   8.876 -1.9332  0.1849  1.0801
22190SOL    HW278630   3.691   5.820   8.775  1.1468 -0.3963  0.4807
22191SOL     OW78631   8.138   2.661   8.693  0.0394  0.3892  0.0365
22191SOL    HW178632   8.174   2.618   8.776  2.0836 -1.5450 -1.7886
22191SOL    HW278633   8.189   2.746   8.675 -0.2681  0.7060  0.6240
22192SOL     OW78634   9.450   5.756   9.648  0.3962  0.2625 -0.1994
22192SOL    HW178635   9.385   5.687   9.681 -0.4090 -0.1857 -2.6012
22192SOL    HW278636   9.538   5.743   9.692 -0.4032 -0.8067  1.1334
22193SOL     OW78637   7.024   2.414   4.059 -0.0433 -0.1085 -0.2553
22193SOL    HW178638   7.001   2.507   4.029 -0.0349  0.3351  1.0456
22193SOL    HW278639   7.061   2.362   3.983  0.9128  1.2905 -0.7660
22194SOL     OW78640   9.829   9.314   1.999  0.1390 -0.4413 -0.1205
22194SOL    HW178641   9.740   9.358   1.986  0.6684  1.2900  1.7347
22194SOL    HW278642   9.888   9.336   1.921 -0.0605  1.0486  0.1244
22195SOL     OW78643   1.236   8.415   4.898 -0.5664  0.1912 -0.3113
22195SOL    HW178644   1.332   8.441   4.901 -0.6636  0.6998 -1.2468
22195SOL    HW278645   1.187   8.456   4.975 -0.1341  0.3447 -0.1197
22196SOL     OW78646   5.978   0.366   3.680  0.1838  0.2087  0.2543
22196SOL    HW178647   5.988   0.460   3.648  2.1025 -0.0039  0.1788
22196SOL    HW278648   6.051   0.310   3.641 -0.5058 -1.1419  0.9010
22197SOL     OW78649   6.660   0.154   3.256 -0.0359  0.1482  0.1492
22197SOL    HW178650   6.727   0.213   3.211 -0.0959 -1.6305 -2.3482
22197SOL    HW278651   6.580   0.208   3.283  0.6286  1.5001 -0.5572
22198SOL     OW78652   2.059   5.335   8.424  0.1581 -0.4229 -0.1785
22198SOL    HW178653   2.041   5.314   8.328  1.1743  1.0241 -0.7216
22198SOL    HW278654   2.115   5.263   8.464  2.1376  0.3238 -1.5037
22199SOL     OW78655   3.751   5.753   3.974  0.2672 -0.1935 -0.0335
22199SOL    HW178656   3.829   5.815   3.963 -0.9851  1.4109  0.1588
22199SOL    HW278657   3.714   5.730   3.884 -0.3126  0.6684 -0.0170
22200SOL     OW78658   2.390   7.291   1.772  0.2622  0.0744 -0.0201
22200SOL    HW178659   2.446   7.272   1.691  1.5231  2.0829  0.3504
22200SOL    HW278660   2.353   7.206   1.807  1.8234 -1.1306 -1.2058
22201SOL     OW78661   5.733   0.472   4.509  0.0067 -0.8299 -0.3758
22201SOL    HW178662   5.665   0.542   4.490  0.4534 -0.0530  0.8137
22201SOL    HW278663   5.730   0.401   4.438 -0.1444  0.6176 -1.8267
22202SOL     OW78664   9.997   2.181   5.742  0.6195  0.2438  0.1499
22202SOL    HW178665   9.902   2.203   5.716  0.0379  0.0912  2.0584
22202SOL    HW278666  10.059   2.222   5.675 -0.6945  2.4409  0.1909
22203SOL     OW78667   7.806   9.562   4.309 -0.0694  0.4311 -0.3628
22203SOL    HW178668   7.797   9.517   4.398  1.5839 -1.3077 -1.0459
22203SOL    HW278669   7.719   9.604   4.284 -1.2489 -1.1578  0.9587
22204SOL     OW78670   8.834   3.224   0.734 -0.3407 -0.2050 -0.0854
22204SOL    HW178671   8.749   3.191   0.693  0.1075  0.6134 -1.7100
22204SOL    HW278672   8.896   3.146   0.745 -0.6635 -0.5300 -0.4908
22205SOL     OW78673   9.139   6.548   9.704  0.5173 -0.1831  0.9404
22205SOL    HW178674   9.091   6.607   9.769 -0.4529  1.3007 -1.0898
22205SOL    HW278675   9.082   6.470   9.680  0.2673  0.0775  0.6950
22206SOL     OW78676   9.580   4.521   6.077  0.4168  0.1590  0.0263
22206SOL    HW178677   9.638   4.602   6.068  0.1584  0.3400 -0.0150
22206SOL    HW278678   9.565   4.481   5.987  0.0230  0.4319 -0.0314
22207SOL     OW78679   2.202   0.766   2.631  0.2339  0.0820  0.2013
22207SOL    HW178680   2.297   0.794   2.641 -0.0665  0.6936  1.3647
22207SOL    HW278681   2.180   0.758   2.534  1.0207  1.4649 -0.1048
22208SOL     OW78682   0.780   2.843   2.671 -0.2274  0.0130  0.3331
22208SOL    HW178683   0.849   2.914   2.683 -2.0197  1.7066  0.9006
22208SOL    HW278684   0.824   2.754   2.661  2.1249  1.4179 -2.0793
22209SOL     OW78685   8.559   8.104   5.825 -0.1239  0.1152 -0.4926
22209SOL    HW178686   8.529   8.020   5.870  0.7741  0.1884  0.2483
22209SOL    HW278687   8.511   8.182   5.865  1.8449  0.3498  1.4652
22210SOL     OW78688   5.311   5.711   3.514 -0.1461 -0.1841  0.0121
22210SOL    HW178689   5.393   5.759   3.482  0.4345  0.2989  2.1388
22210SOL    HW278690   5.258   5.771   3.574 -1.5514 -0.8377 -0.5456
22211SOL     OW78691   9.682   0.101   6.467  0.2617  0.4876 -0.5166
22211SOL    HW178692   9.701   0.158   6.547  1.7796  0.1250 -0.6117
22211SOL    HW278693   9.596   0.052   6.481  0.5353  0.3900  0.9195
22212SOL     OW78694   7.554   1.316   6.350 -0.1136 -0.0669  0.3640
22212SOL    HW178695   7.524   1.221   6.343 -0.3763  0.0415 -0.0149
22212SOL    HW278696   7.642   1.321   6.398 -0.0568 -0.5054  0.2991
22213SOL     OW78697   9.732   5.203   0.954 -0.7187 -0.3713  0.3155
22213SOL    HW178698   9.772   5.251   0.877  2.0534 -0.7663  1.4458
22213SOL    HW278699   9.739   5.104   0.939  0.4232 -0.4585  1.3247
22214SOL     OW78700   7.100   8.491   8.339 -0.2396  0.2589  0.4603
22214SOL    HW178701   7.172   8.491   8.408 -0.2933  0.4702  0.5160
22214SOL    HW278702   7.137   8.455   8.253 -0.2065 -0.1145  0.6306
22215SOL     OW78703   2.182   6.817   8.390  0.5939 -0.2562 -0.8091
22215SOL    HW178704   2.136   6.755   8.325 -0.8453 -1.3567  1.2025
22215SOL    HW278705   2.254   6.868   8.342 -0.0093 -1.4979 -3.1198
22216SOL     OW78706   8.117   5.829   5.329 -0.2236  0.0451  0.0160
22216SOL    HW178707   8.026   5.872   5.328 -0.9500 -1.4045 -3.0481
22216SOL    HW278708   8.179   5.883   5.273  0.4531  0.3350  1.0531
22217SOL     OW78709   6.476   3.742  10.002 -0.0226  0.2314 -0.1456
22217SOL    HW178710   6.540   3.812  10.033 -1.1633  0.7132  1.2016
22217SOL    HW278711   6.513   3.696   9.921  2.4234 -0.1103  1.1063
22218SOL     OW78712   5.453   2.692   1.570  0.8894 -0.0205 -0.0959
22218SOL    HW178713   5.490   2.599   1.572  1.9172  0.3616 -0.9186
22218SOL    HW278714   5.413   2.714   1.659 -0.3872 -1.6515 -0.2274
22219SOL     OW78715   1.238   5.209   0.240  0.0044 -0.6253 -0.0618
22219SOL    HW178716   1.190   5.295   0.256 -0.3194 -0.7221 -0.4910
22219SOL    HW278717   1.190   5.157   0.170  1.5330 -0.1140 -1.4978
22220SOL     OW78718   4.176   2.424   9.307 -0.0094  0.0520 -0.0450
22220SOL    HW178719   4.272   2.401   9.291  0.4427  1.3052  0.8178
22220SOL    HW278720   4.120   2.381   9.236  1.0171 -1.9526  0.3296
22221SOL     OW78721   3.656   0.082   3.541  0.2896 -0.7226 -0.0961
22221SOL    HW178722   3.635   0.109   3.635  0.4889 -0.4214 -0.1366
22221SOL    HW278723   3.582   0.025   3.505 -0.0350 -0.3965  0.0603
22222SOL     OW78724   8.479   5.321   8.713  0.5470 -0.3494 -0.4504
22222SOL    HW178725   8.473   5.258   8.636 -1.6309 -2.3411  1.2602
22222SOL    HW278726   8.559   5.380   8.703  2.3454 -3.0307 -2.3783
22223SOL     OW78727   7.768   0.963   1.395  0.7761  0.5135 -0.4396
22223SOL    HW178728   7.772   0.909   1.479 -1.9119  1.9388  0.6808
22223SOL    HW278729   7.727   1.052   1.415  2.4357  1.8612 -2.7992
22224SOL     OW78730   5.819   0.152   3.214  0.1587  0.1475 -0.2374
22224SOL    HW178731   5.782   0.204   3.137  1.8528  0.0193 -1.1477
22224SOL    HW278732   5.902   0.104   3.186  0.0425 -1.0093  1.2976
22225SOL     OW78733   1.384   3.135   9.311  0.5699  0.4716 -0.1248
22225SOL    HW178734   1.432   3.048   9.324 -0.9939 -0.4070 -0.0756
22225SOL    HW278735   1.371   3.153   9.214 -1.4919 -0.7263 -0.1060
22226SOL     OW78736   6.792   9.255   7.880 -0.1511  0.0037  0.2917
22226SOL    HW178737   6.804   9.160   7.848 -0.8919  0.0086 -0.0305
22226SOL    HW278738   6.807   9.259   7.978  0.8530 -0.2670  0.1538
22227SOL     OW78739   3.980   4.546   1.051 -0.4810  0.1583 -0.6965
22227SOL    HW178740   3.951   4.491   0.973  0.1658 -0.4070 -0.5435
22227SOL    HW278741   4.027   4.487   1.117  3.6618  1.5108 -2.2435
22228SOL     OW78742   3.903   7.705   5.877  0.7553  0.4312  0.3553
22228SOL    HW178743   3.816   7.701   5.927  1.2997 -0.2736  1.2629
22228SOL    HW278744   3.954   7.621   5.893  0.2381 -0.5121 -2.7101
22229SOL     OW78745   4.809   6.959   1.150 -0.0490 -0.0238 -0.3171
22229SOL    HW178746   4.727   6.979   1.097  0.1668 -0.7221 -0.9180
22229SOL    HW278747   4.842   6.867   1.128  1.1797  0.4384 -0.4462
22230SOL     OW78748   8.434   6.385   8.924  0.3637 -0.1440 -0.0471
22230SOL    HW178749   8.490   6.426   8.851  0.6299  0.6700  0.6140
22230SOL    HW278750   8.447   6.435   9.009  2.0687 -2.6641  1.2444
22231SOL     OW78751   4.449   4.710   5.448 -0.4549 -0.1097 -0.4089
22231SOL    HW178752   4.391   4.628   5.444 -0.5014 -0.0347 -1.3786
22231SOL    HW278753   4.413   4.773   5.517 -1.1378 -0.3612 -0.5323
22232SOL     OW78754   5.794   7.611   4.905  0.1782 -0.2789 -0.2106
22232SOL    HW178755   5.883   7.618   4.860  1.4654  0.2607  2.3334
22232SOL    HW278756   5.807   7.579   4.999 -2.4166 -1.0416 -0.0784
22233SOL     OW78757   0.356   9.613   2.866  0.0307 -0.3157  0.0956
22233SOL    HW178758   0.382   9.702   2.828 -1.7249 -0.5060 -1.6667
22233SOL    HW278759   0.435   9.552   2.865  1.0223  0.9376  0.4717
22234SOL     OW78760   2.958   0.540   7.845  0.0895 -0.7442 -0.0259
22234SOL    HW178761   2.894   0.465   7.855 -2.7441  1.5565 -0.1031
22234SOL    HW278762   2.997   0.539   7.753 -1.1477 -1.1802 -0.5505
22235SOL     OW78763   4.276   8.651   3.847 -0.1809 -0.0503 -0.1387
22235SOL    HW178764   4.186   8.657   3.805  0.1421  0.5488 -0.7483
22235SOL    HW278765   4.280   8.569   3.905 -1.6562  0.7818  1.2012
22236SOL     OW78766   1.120   3.435   2.077 -0.1053  0.0933  0.2501
22236SOL    HW178767   1.167   3.348   2.094 -1.2217 -0.1021  2.4687
22236SOL    HW278768   1.164   3.508   2.128  0.3427  0.7023 -0.9877
22237SOL     OW78769   4.728   1.229   0.722 -0.4525  0.2832  0.2029
22237SOL    HW178770   4.759   1.317   0.686  0.6748 -0.1099  0.1766
22237SOL    HW278771   4.735   1.159   0.651 -2.3024  0.3672 -0.0765
22238SOL     OW78772   0.243   6.826   2.262  0.0016  0.3596 -0.4070
22238SOL    HW178773   0.173   6.760   2.288  0.1360 -0.1744 -1.3463
22238SOL    HW278774   0.204   6.918   2.258 -0.5519  0.1193 -0.5406
22239SOL     OW78775   9.868   2.152   9.097  0.0134  0.0208 -0.8056
22239SOL    HW178776   9.887   2.060   9.062  0.3201 -1.0077  1.9243
22239SOL    HW278777   9.769   2.165   9.106  0.0450 -1.0420  1.2840
22240SOL     OW78778   2.142   0.926   5.172  0.3552 -0.2206  0.1486
22240SOL    HW178779   2.087   0.848   5.142 -0.3292  1.1493 -2.4109
22240SOL    HW278780   2.228   0.928   5.120 -0.4708  1.7284 -1.2547
22241SOL     OW78781   4.211   8.593   7.692 -0.0775  0.1717 -0.1959
22241SOL    HW178782   4.113   8.588   7.707 -0.2848  0.6754 -1.2906
22241SOL    HW278783   4.230   8.589   7.594  1.1711 -2.6577  0.1158
22242SOL     OW78784   6.231   4.404   9.642  0.6569  0.2235  0.0515
22242SOL    HW178785   6.209   4.315   9.601  1.3599  0.6612 -1.2865
22242SOL    HW278786   6.252   4.391   9.739  1.5658 -1.1861 -0.3167
22243SOL     OW78787   5.715   0.046   2.577 -0.0861  0.4345 -0.0359
22243SOL    HW178788   5.661   0.122   2.614  0.5121  0.0165  1.7401
22243SOL    HW278789   5.756  -0.005   2.652 -0.2269 -1.4661 -1.2281
22244SOL     OW78790   1.436   2.712   5.227 -0.1379 -0.0418  0.1198
22244SOL    HW178791   1.522   2.703   5.276  0.0321  1.8433  0.1685
22244SOL    HW278792   1.454   2.714   5.128 -0.3857 -2.6125 -0.0167
22245SOL     OW78793   9.639   8.965   2.337 -0.1954  0.2410  0.0411
22245SOL    HW178794   9.604   8.883   2.381 -0.2246 -0.7219 -1.7516
22245SOL    HW278795   9.734   8.979   2.364  0.0707 -0.8606 -0.3238
22246SOL     OW78796   5.928   2.115   0.688 -0.3629 -0.0142 -0.0136
22246SOL    HW178797   5.968   2.195   0.733 -2.0877  1.4468 -1.0341
22246SOL    HW278798   5.912   2.044   0.756  1.9065  0.1886  0.7760
22247SOL     OW78799   7.105   0.506   6.999 -0.1377  0.2013  0.0679
22247SOL    HW178800   7.102   0.544   6.907  2.3633 -1.6405 -0.8520
22247SOL    HW278801   7.018   0.521   7.045 -0.8814  2.5315 -2.0254
22248SOL     OW78802   4.008   8.202   0.001 -0.2391  0.3517 -0.6696
22248SOL    HW178803   4.037   8.121   0.053  1.2388  0.6501 -1.0076
22248SOL    HW278804   4.019   8.184  -0.097  2.4879  1.8314 -0.6684
22249SOL     OW78805   8.552   6.899   2.980 -0.0567 -0.1654  0.7032
22249SOL    HW178806   8.617   6.950   3.036 -0.0024 -1.1528  1.5658
22249SOL    HW278807   8.522   6.955   2.903 -0.6305  1.4268  2.0923
22250SOL     OW78808   4.762   3.893   1.743 -0.1119  0.4138  0.4898
22250SOL    HW178809   4.739   3.959   1.670 -1.0264 -0.2673  0.1508
22250SOL    HW278810   4.730   3.802   1.716  0.8343 -0.1062  1.1184
22251SOL     OW78811   4.130   4.191   3.586 -0.2008  0.0213  0.4017
22251SOL    HW178812   4.135   4.092   3.602  0.6437  0.1960  1.2808
22251SOL    HW278813   4.035   4.219   3.577 -0.3800 -1.1649 -1.7498
22252SOL     OW78814   9.141   7.898   9.146  0.4258 -0.1308 -0.5282
22252SOL    HW178815   9.181   7.853   9.226  2.3386  0.3615 -1.1705
22252SOL    HW278816   9.203   7.887   9.068 -0.9965  0.1543 -1.7099
22253SOL     OW78817   2.582   9.720   6.446  0.2925  0.4853  0.0125
22253SOL    HW178818   2.620   9.638   6.490  0.2770  0.8837  0.7714
22253SOL    HW278819   2.548   9.783   6.516  1.4445  1.6978 -0.4997
22254SOL     OW78820   2.807   9.661   9.857 -0.2881  0.2359  0.5584
22254SOL    HW178821   2.762   9.735   9.907 -1.3932 -0.2640  0.3210
22254SOL    HW278822   2.892   9.636   9.904 -1.0243  0.1561  1.8640
22255SOL     OW78823   0.931   5.160   8.036 -0.4457 -0.1241  0.0898
22255SOL    HW178824   0.848   5.155   8.092 -0.6301 -1.1318 -0.2771
22255SOL    HW278825   0.994   5.088   8.063  1.0291  1.6286  1.4955
22256SOL     OW78826   1.606   6.666   9.552 -0.1368 -0.2926  0.4002
22256SOL    HW178827   1.685   6.640   9.607  0.4554  1.5111  0.4184
22256SOL    HW278828   1.620   6.636   9.457 -0.0078 -1.0992  0.6723
22257SOL     OW78829   9.210   4.928   0.318 -0.5622  0.5372  0.3816
22257SOL    HW178830   9.289   4.924   0.257 -2.4831  0.9055 -2.1821
22257SOL    HW278831   9.236   4.975   0.403  2.0301  0.3862 -0.2892
22258SOL     OW78832   8.586   9.096   3.783 -0.1494 -0.6786  0.5907
22258SOL    HW178833   8.652   9.172   3.783  0.5208 -1.2558  0.5647
22258SOL    HW278834   8.523   9.108   3.707 -0.8753  0.5616  1.3679
22259SOL     OW78835   8.448   5.332  10.065  0.3889  0.0119 -0.2660
22259SOL    HW178836   8.543   5.362  10.076  0.8943 -2.0229  1.3448
22259SOL    HW278837   8.438   5.241  10.105 -2.1909  0.0818 -0.7029
22260SOL     OW78838   7.788   9.552   6.722  0.6541 -0.5189  0.0722
22260SOL    HW178839   7.729   9.624   6.759 -1.4043 -1.8552 -0.5018
22260SOL    HW278840   7.805   9.483   6.793  1.6679 -0.0562  0.2830
22261SOL     OW78841   1.034   7.739   8.539 -0.5443  0.4389 -0.6306
22261SOL    HW178842   1.008   7.756   8.444 -0.5995 -1.4651 -0.9644
22261SOL    HW278843   0.953   7.723   8.594 -0.3806 -0.7909 -0.7355
22262SOL     OW78844   9.975   7.794   9.489 -0.4470  0.3162 -0.1026
22262SOL    HW178845   9.966   7.888   9.521  1.4726  0.1983  0.8312
22262SOL    HW278846   9.958   7.731   9.565 -0.4461 -0.0659 -0.4165
22263SOL     OW78847   9.638   9.317   9.753 -0.0183 -0.5682 -0.2475
22263SOL    HW178848   9.561   9.336   9.814 -0.4818 -0.4556 -0.8584
22263SOL    HW278849   9.710   9.271   9.804 -0.7163 -1.1635  0.2156
22264SOL     OW78850   6.800   8.582   8.018 -0.4671  0.0747  0.6532
22264SOL    HW178851   6.889   8.553   7.980 -0.0367  2.1203  0.0540
22264SOL    HW278852   6.737   8.603   7.944 -0.0693  2.7571  1.0346
22265SOL     OW78853   0.915   2.575   0.751 -0.0240 -1.0127  0.3955
22265SOL    HW178854   0.946   2.481   0.759 -0.6545 -1.2311  0.2891
22265SOL    HW278855   0.826   2.585   0.794 -0.1330 -0.5525  0.0739
22266SOL     OW78856   6.122   1.698   8.677  0.1100 -0.4797 -0.1356
22266SOL    HW178857   6.095   1.788   8.711  0.2921  0.5483 -2.5633
22266SOL    HW278858   6.218   1.682   8.700  0.4939  0.5932 -0.9345
22267SOL     OW78859   5.044   3.309   8.038  0.1878 -0.3975  0.2818
22267SOL    HW178860   5.121   3.373   8.048 -0.0010 -0.1071 -0.0931
22267SOL    HW278861   5.079   3.215   8.034  0.7010 -0.1588 -1.6846
22268SOL     OW78862   7.728   2.787   4.629 -0.2683  0.0672 -0.4988
22268SOL    HW178863   7.681   2.863   4.585  1.6461  0.1060 -2.5571
22268SOL    HW278864   7.671   2.705   4.624 -1.5351  0.9022  0.0702
22269SOL     OW78865   2.441   3.236   9.835  0.0221 -0.1824 -0.3101
22269SOL    HW178866   2.533   3.274   9.835 -0.3387  0.7037  0.3288
22269SOL    HW278867   2.442   3.146   9.878  0.4500  0.1562  0.3845
22270SOL     OW78868   8.221   0.713   0.595 -0.5565  0.2229 -0.4583
22270SOL    HW178869   8.196   0.805   0.626 -2.2631 -0.5214  0.4923
22270SOL    HW278870   8.271   0.666   0.668 -2.4456 -0.6862  0.2771
22271SOL     OW78871   6.622   8.447   4.045  0.2471  0.1891  0.6108
22271SOL    HW178872   6.704   8.438   3.989  0.7851  1.1849  1.2131
22271SOL    HW278873   6.546   8.477   3.988  0.9327  1.7890  0.4862
22272SOL     OW78874   2.669   6.401   1.563 -0.2743  0.4835 -0.1083
22272SOL    HW178875   2.586   6.373   1.515  0.1806 -1.7579  0.3422
22272SOL    HW278876   2.745   6.341   1.536  0.8300  1.5221  0.6468
22273SOL     OW78877   8.676   7.360   5.452 -0.2076 -1.2050 -0.5381
22273SOL    HW178878   8.776   7.367   5.443 -0.2385  1.9682  0.8188
22273SOL    HW278879   8.652   7.278   5.503  1.5925 -2.9652 -2.4590
22274SOL     OW78880   4.373   2.361   0.408 -0.2344 -0.5049  0.0311
22274SOL    HW178881   4.321   2.397   0.330 -0.5521 -0.4326  0.2769
22274SOL    HW278882   4.465   2.336   0.378  0.1736  1.0297 -0.0262
22275SOL     OW78883   9.039   1.115   2.927  0.5446 -0.2046  0.1781
22275SOL    HW178884   9.134   1.143   2.909 -0.1223  1.8499 -0.3209
22275SOL    HW278885   9.029   1.093   3.024  2.1535 -3.0636 -0.2644
22276SOL     OW78886   0.179   2.830   8.621 -0.3484 -0.3279  0.3043
22276SOL    HW178887   0.109   2.773   8.578 -0.3283  0.4993 -0.8334
22276SOL    HW278888   0.196   2.911   8.564  0.4754  0.2124  1.3103
22277SOL     OW78889   7.636   4.446   8.052  0.3861 -0.3864 -0.5712
22277SOL    HW178890   7.632   4.348   8.032  0.5206 -0.2486 -1.3021
22277SOL    HW278891   7.627   4.460   8.150 -0.3328 -1.0885 -0.5292
22278SOL     OW78892   1.489   0.169   4.743 -0.3198 -0.5267  0.0336
22278SOL    HW178893   1.491   0.268   4.748  2.9628 -0.5717  0.8507
22278SOL    HW278894   1.551   0.138   4.670  0.6252 -2.0065  1.4087
22279SOL     OW78895   8.572   0.612   3.630  0.3261  0.2623 -0.1063
22279SOL    HW178896   8.572   0.666   3.714 -0.8615  0.1565 -0.0179
22279SOL    HW278897   8.513   0.656   3.562 -1.9170 -1.6698  0.5016
22280SOL     OW78898   3.814   8.635   2.299  0.3894  0.0985 -0.6482
22280SOL    HW178899   3.881   8.605   2.232 -1.1305 -2.7183 -0.9859
22280SOL    HW278900   3.780   8.556   2.351 -1.6465  1.6183  0.4193
22281SOL     OW78901   2.212   1.135   2.147  0.2035 -0.3573  0.1489
22281SOL    HW178902   2.202   1.062   2.079  0.1548  0.0745 -0.3079
22281SOL    HW278903   2.236   1.094   2.236 -0.4441 -0.9829  0.0481
22282SOL     OW78904   4.170   8.211   4.836 -0.2692  0.3246 -0.0935
22282SOL    HW178905   4.230   8.292   4.838 -0.8887  0.7714  0.4014
22282SOL    HW278906   4.132   8.195   4.927  0.2591 -0.8401 -0.0738
22283SOL     OW78907   3.024   0.568   6.995 -0.2975 -0.3260  0.1282
22283SOL    HW178908   2.963   0.635   7.037 -0.3207 -1.4492  1.9572
22283SOL    HW278909   2.993   0.548   6.903 -1.0941  1.1484  0.0611
22284SOL     OW78910   7.569   2.378   2.356 -0.6184 -0.3954 -0.5880
22284SOL    HW178911   7.586   2.284   2.325 -0.0965 -0.4378 -0.1846
22284SOL    HW278912   7.645   2.408   2.414 -0.4964  0.4824 -1.1861
22285SOL     OW78913   1.664   9.755   5.345 -0.0952  0.1106 -0.0381
22285SOL    HW178914   1.601   9.806   5.404 -0.8604 -0.3930 -0.4191
22285SOL    HW278915   1.647   9.779   5.250 -0.7871 -1.2326 -0.2505
22286SOL     OW78916   3.557   6.754   7.403  0.2963 -0.5388 -0.4697
22286SOL    HW178917   3.523   6.849   7.404  3.6074  0.7128 -0.2269
22286SOL    HW278918   3.633   6.747   7.339  1.1070 -2.6688  0.7017
22287SOL     OW78919   8.065   1.751   7.565  0.3474 -0.0094 -0.2817
22287SOL    HW178920   8.125   1.767   7.487  1.2674 -0.5943  0.3087
22287SOL    HW278921   8.068   1.830   7.627  0.9028 -0.2555  0.0064
22288SOL     OW78922   9.419   6.231   1.332  0.2224  0.0587  0.2445
22288SOL    HW178923   9.392   6.322   1.299  0.9284  0.6046  1.1352
22288SOL    HW278924   9.451   6.176   1.255  0.1500  0.6949 -0.2464
22289SOL     OW78925   4.822   6.595   1.560 -0.3221  0.0053 -0.0687
22289SOL    HW178926   4.753   6.630   1.497  0.3363  0.5560 -0.4900
22289SOL    HW278927   4.801   6.625   1.653 -1.8236 -1.5934  0.1323
22290SOL     OW78928   9.870   7.222   2.373 -0.0052 -0.4102  0.1524
22290SOL    HW178929   9.947   7.265   2.420  0.7789  0.2482 -1.6877
22290SOL    HW278930   9.815   7.292   2.326 -0.6565 -1.0651 -0.0874
22291SOL     OW78931   1.522   7.942   5.110  0.1308 -0.6347 -0.6197
22291SOL    HW178932   1.563   7.854   5.131 -0.7126 -0.3913  2.2267
22291SOL    HW278933   1.424   7.930   5.094  0.4592 -0.5584 -2.8686
22292SOL     OW78934   2.954   2.314   9.523 -0.6524  0.4155  0.4234
22292SOL    HW178935   2.877   2.309   9.459 -0.2999 -1.4360  0.1098
22292SOL    HW278936   2.926   2.276   9.611  0.6700 -2.9782 -0.5203
22293SOL     OW78937   2.634   6.850   7.926  0.6805 -0.2574  0.2400
22293SOL    HW178938   2.575   6.770   7.923 -0.8939  0.6890  3.1756
22293SOL    HW278939   2.580   6.932   7.905  1.3590  0.4317  1.1393
22294SOL     OW78940   3.292   1.918   8.659  0.6611 -0.4860 -0.2507
22294SOL    HW178941   3.326   1.897   8.750  0.1444 -0.2535 -0.0050
22294SOL    HW278942   3.197   1.889   8.650 -0.0475  1.6176  0.0791
22295SOL     OW78943   3.848   6.556   7.884 -0.3005 -0.4507  0.1522
22295SOL    HW178944   3.929   6.508   7.850 -0.1095  1.2878 -1.8850
22295SOL    HW278945   3.841   6.543   7.983  2.9913  0.1526  0.5044
22296SOL     OW78946   6.262   4.167   9.827  0.4485  0.3241  0.2332
22296SOL    HW178947   6.210   4.210   9.901  0.2948  1.3109 -0.4396
22296SOL    HW278948   6.276   4.070   9.848 -1.1830  0.1762  0.6824
22297SOL     OW78949   4.888   9.359   6.482  0.2806 -0.0127  0.2303
22297SOL    HW178950   4.895   9.273   6.432  2.6097  0.5411 -0.4235
22297SOL    HW278951   4.973   9.378   6.530 -0.6703  1.2735  1.4614
22298SOL     OW78952   7.933   4.839   8.972  0.2954  0.3177  0.3053
22298SOL    HW178953   7.921   4.881   8.882  1.2544  1.9973  0.9394
22298SOL    HW278954   7.965   4.745   8.961 -3.6239 -0.9542 -1.1955
22299SOL     OW78955   3.027   6.667   3.038 -0.6145 -0.1762 -0.3581
22299SOL    HW178956   2.983   6.728   3.104  1.2300  0.1681  0.6000
22299SOL    HW278957   3.010   6.572   3.064 -2.9928 -0.0952 -1.5158
22300SOL     OW78958   8.798   1.311   9.579  0.1563 -0.1462 -0.3406
22300SOL    HW178959   8.802   1.229   9.523 -0.4258  0.0850 -0.7311
22300SOL    HW278960   8.724   1.302   9.646  0.7791 -0.3781  0.3263
22301SOL     OW78961   4.007   7.634   7.315 -0.1642 -0.2402 -0.3121
22301SOL    HW178962   4.033   7.720   7.358  0.2295  0.0127 -1.0552
22301SOL    HW278963   3.907   7.625   7.315 -0.2091  0.2695 -0.3403
22302SOL     OW78964   8.464   5.351   6.145 -0.1181 -0.0900 -0.2136
22302SOL    HW178965   8.563   5.339   6.154  0.0426  1.1852 -0.1021
22302SOL    HW278966   8.424   5.367   6.235 -0.6121 -1.7976 -0.1136
22303SOL     OW78967   0.534   8.181   0.304 -0.1169 -0.1291  0.3002
22303SOL    HW178968   0.569   8.103   0.252  0.7253 -0.2161  0.9850
22303SOL    HW278969   0.549   8.265   0.252  1.7723 -0.0813  0.8698
22304SOL     OW78970   8.539   9.378   0.016 -0.2191  0.1826 -0.1849
22304SOL    HW178971   8.522   9.431  -0.067  0.8763  0.3241 -0.3199
22304SOL    HW278972   8.602   9.427   0.076 -1.7574  0.5416  1.2047
22305SOL     OW78973   7.875   5.460   5.184  0.5032 -0.6062  0.1945
22305SOL    HW178974   7.789   5.420   5.151  0.9478 -1.5567  0.1731
22305SOL    HW278975   7.900   5.420   5.271  1.1384 -0.6276  0.0087
22306SOL     OW78976   1.151   1.456   5.745  0.2582  0.0984  0.5662
22306SOL    HW178977   1.218   1.522   5.711  0.0082 -0.3065 -0.7362
22306SOL    HW278978   1.154   1.373   5.688 -1.7494  0.3029  0.1175
22307SOL     OW78979   3.290   5.253   9.076  0.0964 -0.3177  0.7511
22307SOL    HW178980   3.225   5.303   9.018  1.8830 -0.2208 -1.2016
22307SOL    HW278981   3.334   5.181   9.022  0.9725 -0.9698  2.3114
22308SOL     OW78982   3.701   4.987   3.494  0.3660  0.4108  0.8276
22308SOL    HW178983   3.672   5.067   3.546  0.7577 -0.2678  2.1314
22308SOL    HW278984   3.765   4.933   3.549 -0.8339 -1.4379  0.4705
22309SOL     OW78985   8.734   1.163   1.644 -0.0396  0.2020  0.6006
22309SOL    HW178986   8.715   1.257   1.669 -1.6468 -0.1231  0.6883
22309SOL    HW278987   8.765   1.112   1.724 -0.9791  0.2152  0.9826
22310SOL     OW78988   1.314   1.010   8.831  0.1868  0.4136  0.6740
22310SOL    HW178989   1.248   0.935   8.830  0.2943  0.3179 -0.1104
22310SOL    HW278990   1.405   0.974   8.807  0.2540  0.7710  0.3873
22311SOL     OW78991   0.184   8.045   0.098  0.6374 -0.3317  0.2320
22311SOL    HW178992   0.157   7.953   0.128  0.4425 -0.5683 -0.6538
22311SOL    HW278993   0.117   8.079   0.032 -0.5671  1.3957  2.2651
22312SOL     OW78994   1.792   4.994   6.923 -0.2538  0.5410 -0.4236
22312SOL    HW178995   1.755   4.910   6.882  0.2077  0.7206 -1.2327
22312SOL    HW278996   1.848   4.970   7.003 -1.3196  0.1999  0.2221
22313SOL     OW78997   4.520   7.065   3.794  0.1972 -0.4893 -0.8843
22313SOL    HW178998   4.491   6.979   3.837 -0.1159 -0.2330 -0.5813
22313SOL    HW278999   4.439   7.118   3.768  0.3474  1.1071  1.6995
22314SOL     OW79000   1.272   1.151   1.125 -0.0049  0.2438  0.7275
22314SOL    HW179001   1.275   1.090   1.204  1.1804 -0.1704  0.3823
22314SOL    HW279002   1.360   1.147   1.077  0.1053  2.2442  0.7146
22315SOL     OW79003   8.964   8.207   8.627  0.3181 -0.3001 -0.0498
22315SOL    HW179004   9.000   8.281   8.571 -1.6141 -0.2641 -1.2768
22315SOL    HW279005   8.898   8.154   8.574  0.8584 -2.2561  1.1571
22316SOL     OW79006   5.167   2.153   1.906 -0.3517  0.3353  0.1136
22316SOL    HW179007   5.228   2.230   1.921 -0.1894  0.0411  1.0303
22316SOL    HW279008   5.211   2.069   1.940 -0.1259 -0.3086 -1.7434
22317SOL     OW79009   8.325   3.272   2.493  0.4822 -0.6237 -0.5636
22317SOL    HW179010   8.391   3.337   2.455 -0.6457  1.1123  0.3502
22317SOL    HW279011   8.258   3.322   2.549 -0.1593 -2.6376  0.5184
22318SOL     OW79012   8.117   3.877   9.007  0.3479  0.1871 -0.6575
22318SOL    HW179013   8.045   3.840   8.949 -1.0666  1.8842 -0.0583
22318SOL    HW279014   8.079   3.900   9.097  1.8850  0.0876  0.0367
22319SOL     OW79015   1.777   0.793   8.230  0.1178  0.5993 -0.0028
22319SOL    HW179016   1.759   0.762   8.324 -0.7250 -0.1217 -0.3965
22319SOL    HW279017   1.693   0.830   8.191  0.5212  1.0874 -0.4091
22320SOL     OW79018   7.472   1.989   2.948 -0.6722 -0.0883  0.0034
22320SOL    HW179019   7.521   2.075   2.960  1.7068 -1.4965  0.7725
22320SOL    HW279020   7.430   1.986   2.858  0.8187  1.0989 -0.7446
22321SOL     OW79021   8.002   4.462   1.083 -0.1183  0.3998 -0.4015
22321SOL    HW179022   8.072   4.413   1.032 -0.6711 -2.5779  1.6032
22321SOL    HW279023   7.922   4.404   1.095 -1.0698  2.0165  1.4565
22322SOL     OW79024   1.275   6.594   4.767 -0.3320  0.3343 -0.2223
22322SOL    HW179025   1.207   6.549   4.710 -1.8301  0.1150  1.7104
22322SOL    HW279026   1.338   6.525   4.804 -1.0597  0.1093  0.6306
22323SOL     OW79027   0.037   5.068   1.140 -0.2370 -0.0919  0.2128
22323SOL    HW179028   0.049   5.160   1.105 -0.8644 -0.2875 -0.5272
22323SOL    HW279029  -0.046   5.027   1.102  0.3096 -1.1506  0.1142
22324SOL     OW79030   8.672   1.755   1.266 -0.3171 -0.4469 -0.0686
22324SOL    HW179031   8.588   1.804   1.288 -0.6039 -0.0487 -1.9341
22324SOL    HW279032   8.743   1.778   1.332 -1.4289 -0.1463  1.0382
22325SOL     OW79033   6.729   5.747   0.472  0.0680  0.4307  0.2627
22325SOL    HW179034   6.770   5.732   0.382 -1.8975  1.3121 -0.8129
22325SOL    HW279035   6.791   5.802   0.528  0.9548  0.5542 -0.8214
22326SOL     OW79036   7.402   1.446   5.975  0.1858 -0.1073  0.6567
22326SOL    HW179037   7.419   1.434   5.878 -0.9097  1.1572  0.2928
22326SOL    HW279038   7.385   1.543   5.994  1.5445 -0.1642  2.2908
22327SOL     OW79039   4.399   6.749   4.566 -0.1214  0.1304 -0.0432
22327SOL    HW179040   4.364   6.656   4.578  1.1228 -0.1904  1.1857
22327SOL    HW279041   4.323   6.814   4.578 -0.6468 -0.6388  0.8986
22328SOL     OW79042   5.876   2.447   2.123  0.5438 -0.2852 -0.0546
22328SOL    HW179043   5.811   2.448   2.046  1.6596 -1.5607 -1.0393
22328SOL    HW279044   5.844   2.382   2.192  0.3372 -0.2718 -0.1351
22329SOL     OW79045   7.509   8.558   4.807 -0.5140 -0.0385  0.3111
22329SOL    HW179046   7.477   8.498   4.881 -1.0299  0.5583  0.5769
22329SOL    HW279047   7.441   8.562   4.735 -0.4626  0.1964  0.2749
22330SOL     OW79048   4.838   4.470   8.298 -0.0036 -0.2492  0.1492
22330SOL    HW179049   4.778   4.407   8.249 -1.9032  0.2745  1.7015
22330SOL    HW279050   4.929   4.431   8.307 -0.6032 -1.8589 -0.7071
22331SOL     OW79051   7.695   3.731   2.865 -0.6905 -0.0828 -0.0697
22331SOL    HW179052   7.681   3.672   2.945  0.0137 -1.1851 -0.7426
22331SOL    HW279053   7.793   3.742   2.848 -0.8163 -1.5007 -1.9513
22332SOL     OW79054   4.202   1.292   5.960 -0.1769  0.9716 -0.7644
22332SOL    HW179055   4.179   1.223   5.891 -1.0836  1.5737 -1.0815
22332SOL    HW279056   4.301   1.294   5.974 -0.0886  0.0403 -1.2002
22333SOL     OW79057   6.641   4.351   2.008  0.0373  0.4908  0.3396
22333SOL    HW179058   6.672   4.343   2.103  0.8290 -0.9223 -0.0209
22333SOL    HW279059   6.721   4.357   1.948 -0.3883 -1.1959 -0.4406
22334SOL     OW79060   4.544   3.764   9.214  0.1431  0.2502  0.0530
22334SOL    HW179061   4.538   3.668   9.186 -1.3483  0.1556  0.6335
22334SOL    HW279062   4.527   3.772   9.312  3.9065  0.7501  0.7399
22335SOL     OW79063   1.310   6.628   0.015 -0.1601 -0.4625  0.4192
22335SOL    HW179064   1.222   6.590   0.041 -1.2345  2.0058  0.5083
22335SOL    HW279065   1.305   6.663  -0.079  0.9236 -0.8296  0.2039
22336SOL     OW79066   6.721   3.795   2.829 -0.2892  0.1653 -0.1941
22336SOL    HW179067   6.647   3.731   2.808 -0.9217  0.9144 -0.3206
22336SOL    HW279068   6.704   3.881   2.780  3.0759 -1.1418 -3.9028
22337SOL     OW79069   1.662   2.387   0.769  0.0716 -0.2009 -0.0727
22337SOL    HW179070   1.750   2.341   0.763  1.2344  2.1395 -1.7322
22337SOL    HW279071   1.664   2.454   0.844  0.4856  1.3917 -1.4781
22338SOL     OW79072   9.952   5.700   8.244 -0.2116 -0.4655  0.0905
22338SOL    HW179073   9.968   5.798   8.258  3.4473 -0.9494 -0.1368
22338SOL    HW279074   9.885   5.687   8.172 -1.4303  1.8794  0.7671
22339SOL     OW79075   8.162   8.577   3.561  0.0753 -0.2107  0.1231
22339SOL    HW179076   8.082   8.522   3.536  0.8251 -0.4900 -1.7702
22339SOL    HW279077   8.197   8.623   3.479  0.7508  1.3813  1.2953
22340SOL     OW79078   4.283   7.689   0.790  0.1159 -0.4144 -0.6238
22340SOL    HW179079   4.186   7.715   0.790 -0.5331 -2.7109 -1.0095
22340SOL    HW279080   4.293   7.600   0.745  2.1805 -1.0222  0.9787
22341SOL     OW79081   2.724   0.454   8.789 -0.5814  0.4760 -0.6110
22341SOL    HW179082   2.685   0.450   8.881  1.0847  0.2887  0.1020
22341SOL    HW279083   2.720   0.363   8.747  2.3537 -0.3864  0.8624
22342SOL     OW79084   1.006   1.430   8.776  0.2484  0.5278 -0.7468
22342SOL    HW179085   1.050   1.344   8.800  1.1271  1.1304 -0.1472
22342SOL    HW279086   1.042   1.463   8.689  2.7015  2.1400  0.8041
22343SOL     OW79087   2.530   4.745   8.780  0.6232  0.2571 -0.1652
22343SOL    HW179088   2.480   4.829   8.759  0.4377  0.4022  0.8157
22343SOL    HW279089   2.558   4.747   8.876  0.4238 -0.8952 -0.0794
22344SOL     OW79090   3.293   9.936   4.576 -0.1038 -0.2746  0.0814
22344SOL    HW179091   3.233   9.940   4.497  0.2133 -0.3837 -0.1684
22344SOL    HW279092   3.387   9.955   4.548 -0.1621  0.8676  0.6316
22345SOL     OW79093   9.681   7.289   8.627 -0.4377 -0.0825 -0.1610
22345SOL    HW179094   9.718   7.208   8.672  0.6184  0.2988 -0.3188
22345SOL    HW279095   9.754   7.335   8.576 -1.5120 -0.2924 -1.9544
22346SOL     OW79096   6.839   9.078   7.022 -0.0210 -0.2796 -0.2746
22346SOL    HW179097   6.929   9.119   7.014  0.4882 -1.2991  0.1295
22346SOL    HW279098   6.824   9.015   6.945  0.3133 -1.4149  0.5661
22347SOL     OW79099   4.631   0.395   1.370  0.1748 -0.0691  0.1449
22347SOL    HW179100   4.599   0.300   1.376 -2.2057  0.7672  1.0535
22347SOL    HW279101   4.720   0.403   1.415  0.5487 -1.9185 -0.2101
22348SOL     OW79102   1.397   2.518   2.151 -0.5944 -0.5858 -0.5987
22348SOL    HW179103   1.336   2.565   2.216 -2.1290 -1.9815 -0.9817
22348SOL    HW279104   1.469   2.471   2.202  0.0971  0.9536 -0.1232
22349SOL     OW79105   1.621   1.866   3.013  0.5664 -0.1671 -0.1581
22349SOL    HW179106   1.620   1.816   2.926 -0.1100  0.3711 -0.4618
22349SOL    HW279107   1.715   1.891   3.036  0.5968  1.0782 -1.5398
22350SOL     OW79108   1.193   0.747   4.124 -0.7043 -0.0853  0.2191
22350SOL    HW179109   1.282   0.750   4.170 -1.2117 -0.2557  1.2271
22350SOL    HW279110   1.154   0.839   4.122  0.3492  0.3398 -1.9485
22351SOL     OW79111   1.208   8.260   6.952 -0.0878  0.1437 -0.2659
22351SOL    HW179112   1.296   8.305   6.938  0.1650 -0.0853  0.5206
22351SOL    HW279113   1.210   8.169   6.911  0.5127 -0.3768  0.8718
22352SOL     OW79114   3.462   2.114   1.514 -0.2486  0.3591  0.3005
22352SOL    HW179115   3.532   2.076   1.575 -0.1392  1.0035  0.5852
22352SOL    HW279116   3.433   2.203   1.549  0.7598  1.3375 -1.3037
22353SOL     OW79117   0.339   8.563   6.717  0.4010  0.0469  0.0559
22353SOL    HW179118   0.424   8.532   6.758  0.4931  1.8872  1.2917
22353SOL    HW279119   0.263   8.543   6.779  0.2189  0.4691 -0.0287
22354SOL     OW79120   4.982   9.315   2.766 -1.1347 -0.0143 -0.0099
22354SOL    HW179121   4.950   9.253   2.694 -0.7098  1.0295 -1.1252
22354SOL    HW279122   5.080   9.333   2.752 -1.5037  1.7641 -0.3472
22355SOL     OW79123   5.841   1.267   6.308 -0.0041 -0.0652  0.4612
22355SOL    HW179124   5.821   1.180   6.352 -0.3129  0.2458  0.9522
22355SOL    HW279125   5.855   1.253   6.210  2.3489 -1.0106  0.9086
22356SOL     OW79126   3.991   2.260   9.164 -0.0733 -0.7496  0.2630
22356SOL    HW179127   3.894   2.281   9.180  0.3403  1.2259  0.2521
22356SOL    HW279128   4.006   2.244   9.067 -0.5969 -2.2892  0.4096
22357SOL     OW79129   3.347   9.893   4.114  0.4587  0.2588  0.7095
22357SOL    HW179130   3.300   9.851   4.192  1.0163 -2.6581 -0.4629
22357SOL    HW279131   3.434   9.932   4.145  1.2661 -1.9847  1.3619
22358SOL     OW79132   9.243   4.650   3.605  0.4239  0.2139  0.1958
22358SOL    HW179133   9.280   4.557   3.599 -0.0773  0.0317 -0.0545
22358SOL    HW279134   9.145   4.649   3.583  0.3779  0.7717  0.3702
22359SOL     OW79135   8.784   0.267   2.113  0.1194 -0.6161 -0.4982
22359SOL    HW179136   8.754   0.188   2.060  0.0594 -2.0757  1.6481
22359SOL    HW279137   8.763   0.253   2.210  1.0719  1.5706  0.0704
22360SOL     OW79138   2.545   3.342   3.255 -0.5629  0.5819  0.0590
22360SOL    HW179139   2.449   3.314   3.259 -0.0688 -1.1342  0.6630
22360SOL    HW279140   2.602   3.270   3.295  1.1033  0.9593 -1.5428
22361SOL     OW79141   7.933   2.292   5.771  0.2061 -0.2495  0.2925
22361SOL    HW179142   8.002   2.361   5.748 -0.9422  0.5549 -0.8203
22361SOL    HW279143   7.864   2.289   5.699 -1.1596 -0.7242  1.6024
22362SOL     OW79144   0.388   9.745   9.832 -0.4018  0.0911 -0.0092
22362SOL    HW179145   0.459   9.806   9.797 -1.0317  1.6576  1.4075
22362SOL    HW279146   0.298   9.783   9.811 -0.8229 -0.8950 -0.0361
22363SOL     OW79147   1.912   9.199   2.687  0.3276  0.1635  0.0837
22363SOL    HW179148   1.986   9.257   2.722 -0.6308  1.2478  0.3641
22363SOL    HW279149   1.883   9.135   2.758  1.2356 -0.5047 -0.1459
22364SOL     OW79150   1.632   3.399   3.228  0.2009  0.2945  0.5423
22364SOL    HW179151   1.719   3.349   3.224 -0.0206  0.0667 -2.9512
22364SOL    HW279152   1.567   3.348   3.284  1.3549 -1.0673  0.6748
22365SOL     OW79153   0.073   3.437   1.826  0.1116  0.2382  0.3847
22365SOL    HW179154   0.168   3.466   1.820 -0.0153  0.7231  0.6652
22365SOL    HW279155   0.067   3.338   1.820  0.6069  0.2314  0.0419
22366SOL     OW79156   9.058   6.988   6.156 -0.6533 -0.3502  0.2388
22366SOL    HW179157   9.060   7.069   6.097 -0.0178  0.9144  1.9664
22366SOL    HW279158   9.144   6.937   6.145 -0.0783  0.4757  0.8758
22367SOL     OW79159   6.541   9.172   7.764 -0.1004  0.4190 -0.0310
22367SOL    HW179160   6.529   9.075   7.782  1.1618  0.2736  0.0319
22367SOL    HW279161   6.621   9.206   7.814  0.6029  1.0657 -1.5668
22368SOL     OW79162   3.040   8.897   8.124 -0.1530  0.3870 -0.1648
22368SOL    HW179163   3.102   8.878   8.200 -2.1340  2.4479  2.0827
22368SOL    HW279164   2.973   8.823   8.117 -0.4959  0.6142  0.6726
22369SOL     OW79165   2.628   3.126   0.292 -0.2556  0.7631 -0.0297
22369SOL    HW179166   2.684   3.203   0.262 -1.2987  0.9498 -1.5709
22369SOL    HW279167   2.607   3.135   0.389 -0.0189  2.2034 -0.1027
22370SOL     OW79168   4.789   9.065   3.313 -0.3595  0.3936 -0.2364
22370SOL    HW179169   4.768   9.163   3.321  1.2030  0.9621 -2.4462
22370SOL    HW279170   4.744   9.015   3.387 -0.6961  2.8523  1.2895
22371SOL     OW79171   8.597   6.495   9.321  0.1813 -0.2249  0.3976
22371SOL    HW179172   8.627   6.402   9.300  0.3470 -0.1449  0.2764
22371SOL    HW279173   8.628   6.556   9.248 -0.8014 -0.2440 -0.0364
22372SOL     OW79174   1.846   0.434   8.437 -0.3672 -0.3604  0.1895
22372SOL    HW179175   1.897   0.351   8.460 -0.5592 -0.1842  1.2702
22372SOL    HW279176   1.765   0.409   8.385 -2.0840 -1.1767  3.1342
22373SOL     OW79177   6.759   9.321   6.756  0.1202 -0.1338  0.2176
22373SOL    HW179178   6.676   9.376   6.755  0.0068 -0.2239  2.5847
22373SOL    HW279179   6.835   9.376   6.721 -0.2174  1.1918  1.4865
22374SOL     OW79180   0.437   3.587   5.713  0.2879 -0.4900  0.1385
22374SOL    HW179181   0.338   3.590   5.717  0.2672 -1.2591  0.3217
22374SOL    HW279182   0.466   3.550   5.624  0.4151  0.0517 -0.0454
22375SOL     OW79183   5.159   6.115   0.607  0.1080  0.1530 -0.4013
22375SOL    HW179184   5.215   6.192   0.577  0.9358  0.0884  0.9345
22375SOL    HW279185   5.151   6.049   0.533  0.2211  1.0602 -1.2279
22376SOL     OW79186   0.533   9.262   5.471 -0.1001 -0.1448 -0.2944
22376SOL    HW179187   0.548   9.304   5.381  1.5381  0.3354  0.1851
22376SOL    HW279188   0.440   9.282   5.501 -0.2369  0.8356 -1.2918
22377SOL     OW79189   4.010   6.294   8.046 -0.2865  0.1134  0.1508
22377SOL    HW179190   4.073   6.287   8.123 -0.8058  0.3197  0.5936
22377SOL    HW279191   4.006   6.207   7.997  1.4773  0.5091 -0.7716
22378SOL     OW79192   1.266   9.932   0.396 -0.0823  0.4073  0.0118
22378SOL    HW179193   1.205   9.992   0.345  0.5473  0.4816 -0.6514
22378SOL    HW279194   1.333   9.891   0.334  0.4600  0.2219  0.7135
22379SOL     OW79195   8.924   7.730   9.365  0.0393  0.2567  0.0793
22379SOL    HW179196   8.943   7.638   9.399 -0.1165  0.1822 -0.0377
22379SOL    HW279197   8.984   7.795   9.411  0.4334  0.0438 -0.1306
22380SOL     OW79198   2.258   8.793   3.556  0.3634  0.2104 -0.1696
22380SOL    HW179199   2.202   8.798   3.638  1.0642 -2.1429  0.5003
22380SOL    HW279200   2.340   8.739   3.574  0.9266  0.3265 -2.1867
22381SOL     OW79201   6.182   7.382   3.627  0.5302  0.3938 -0.6000
22381SOL    HW179202   6.272   7.369   3.670  1.8052  1.1161 -2.9503
22381SOL    HW279203   6.188   7.358   3.530 -1.3962  1.9875 -1.1518
22382SOL     OW79204   6.065   0.195   6.200  0.6297 -0.3137  0.1031
22382SOL    HW179205   6.147   0.234   6.244 -0.1339  0.6897  0.6504
22382SOL    HW279206   6.073   0.095   6.198  2.2381 -0.1875 -0.5852
22383SOL     OW79207   9.223   0.075   0.135  0.1647  0.0943 -0.0187
22383SOL    HW179208   9.210   0.170   0.106  0.5852 -0.3202 -1.6042
22383SOL    HW279209   9.138   0.039   0.172 -0.7309  0.2681 -1.8606
22384SOL     OW79210   4.240   2.794   5.091 -0.0720  0.1996  0.1062
22384SOL    HW179211   4.185   2.722   5.133 -0.0894  0.8561  1.2095
22384SOL    HW279212   4.227   2.792   4.991 -0.2118 -1.2042  0.1410
22385SOL     OW79213   8.856   5.607   6.208 -0.2258 -0.0614  0.1363
22385SOL    HW179214   8.792   5.673   6.170 -0.2385  0.7593  1.5364
22385SOL    HW279215   8.854   5.523   6.154 -0.2883  1.0347 -1.6013
22386SOL     OW79216   6.047   1.555   5.417  0.1070  0.3764  0.1477
22386SOL    HW179217   6.085   1.645   5.436 -2.7294  1.7543 -0.3428
22386SOL    HW279218   6.059   1.534   5.319  1.9056 -0.3709  0.5130
22387SOL     OW79219   9.761   0.756  10.059  0.0659  0.0360  0.5493
22387SOL    HW179220   9.859   0.748  10.039  0.1077  2.4518 -0.3716
22387SOL    HW279221   9.722   0.831  10.006 -2.4308 -1.2234  0.4922
22388SOL     OW79222   4.621   3.828   6.068  0.2830 -0.2949 -0.0058
22388SOL    HW179223   4.619   3.742   6.017  2.8510 -0.0248 -0.6450
22388SOL    HW279224   4.639   3.904   6.005  0.6309  0.3921  0.9129
22389SOL     OW79225   4.947   1.966   2.293 -0.0020 -0.1482  0.5107
22389SOL    HW179226   4.911   1.983   2.385  0.0113 -1.0321  0.6856
22389SOL    HW279227   5.046   1.976   2.294 -0.0752  0.5747  0.4258
22390SOL     OW79228   9.031   0.160   6.017  0.4942 -0.0115 -0.0272
22390SOL    HW179229   9.000   0.104   5.940  0.4743 -0.0597  0.0160
22390SOL    HW279230   9.084   0.238   5.982 -0.5279  0.6266 -0.1558
22391SOL     OW79231   0.984   4.486   1.896 -0.3424  0.4004 -0.2941
22391SOL    HW179232   1.026   4.536   1.821 -1.7338  0.8436 -0.8038
22391SOL    HW279233   0.894   4.525   1.916 -0.0862  0.1411  1.4551
22392SOL     OW79234   3.812   5.668  10.013 -0.0787  0.5485  0.2818
22392SOL    HW179235   3.712   5.657  10.018 -0.0448  0.0313 -0.1694
22392SOL    HW279236   3.837   5.755  10.055 -0.7778  0.9485 -0.1152
22393SOL     OW79237   4.000   1.180   6.407  0.1959 -0.1430 -0.3668
22393SOL    HW179238   4.064   1.159   6.333  0.1392  2.3114 -1.1714
22393SOL    HW279239   4.049   1.220   6.484 -0.1339  0.0299 -0.2468
22394SOL     OW79240   5.632   1.175   3.649 -0.0201 -0.7684  0.2218
22394SOL    HW179241   5.717   1.228   3.657 -0.5188 -0.1605  1.5811
22394SOL    HW279242   5.560   1.219   3.701 -0.9316 -1.8132 -0.1365
22395SOL     OW79243   9.479   6.781   3.450  0.4265  0.2579  0.3332
22395SOL    HW179244   9.513   6.866   3.490 -1.2844  0.4933  1.3472
22395SOL    HW279245   9.514   6.704   3.503 -0.5467  0.4951  1.3401
22396SOL     OW79246   2.879   0.736   9.990  1.0166  0.1654 -0.1427
22396SOL    HW179247   2.805   0.743   9.923  0.9987  1.3323 -0.0004
22396SOL    HW279248   2.922   0.646   9.981  0.0230 -0.2727 -0.6769
22397SOL     OW79249   6.503   2.341   8.989 -0.0572  0.4961  0.2850
22397SOL    HW179250   6.525   2.250   9.024 -0.5717  0.5566  0.7600
22397SOL    HW279251   6.552   2.410   9.043  2.3710  0.3952 -1.6563
22398SOL     OW79252   8.681   3.647   4.738  0.2905  0.4402  0.2061
22398SOL    HW179253   8.698   3.590   4.657  0.1309  0.3765  0.2170
22398SOL    HW279254   8.617   3.720   4.715  2.7432  2.3802 -0.5602
22399SOL     OW79255   1.712   4.629   2.804  0.0305 -0.0939  0.1858
22399SOL    HW179256   1.755   4.700   2.749  1.0363 -0.4466  0.5067
22399SOL    HW279257   1.628   4.598   2.758  0.2147  0.4565 -0.5424
22400SOL     OW79258   0.507   9.263   7.206  0.0407 -0.8583 -0.1548
22400SOL    HW179259   0.571   9.286   7.133 -0.8293  0.2560 -0.5741
22400SOL    HW279260   0.495   9.163   7.209 -0.0709 -0.9016 -1.6601
22401SOL     OW79261   9.036   2.249   3.777  0.4892 -0.0336  0.2387
22401SOL    HW179262   9.092   2.262   3.695  1.3129  1.1860  0.9698
22401SOL    HW279263   9.079   2.180   3.836 -0.4716 -1.4154 -0.6738
22402SOL     OW79264   0.636   8.149   4.114 -0.0709  0.0289  0.1068
22402SOL    HW179265   0.589   8.213   4.054  1.7473  0.3520 -1.0007
22402SOL    HW279266   0.695   8.199   4.177 -0.4685 -0.4228  0.8469
22403SOL     OW79267   8.532   1.266   9.734  0.2002 -0.4175  0.6379
22403SOL    HW179268   8.503   1.197   9.667  1.6146 -0.8030  0.3982
22403SOL    HW279269   8.498   1.356   9.706  1.5352 -0.4208 -1.1315
22404SOL     OW79270   6.074   9.405   2.929  0.0935 -0.1768 -0.1878
22404SOL    HW179271   6.072   9.309   2.956 -0.5741 -0.4518 -1.1836
22404SOL    HW279272   5.990   9.450   2.959  0.2399  0.0077 -0.0506
22405SOL     OW79273   9.672   8.784   6.227 -0.1971  0.5623  0.3353
22405SOL    HW179274   9.616   8.717   6.176 -1.7409  1.8749  0.2582
22405SOL    HW279275   9.709   8.852   6.164 -1.9428  2.0749  0.8873
22406SOL     OW79276   7.496   4.545   2.113  0.0318 -0.1787 -0.5634
22406SOL    HW179277   7.457   4.560   2.022 -0.5999  0.9628 -0.1093
22406SOL    HW279278   7.446   4.471   2.158  0.0340 -0.4212 -0.9523
22407SOL     OW79279   9.338   8.414  10.049 -0.4097 -0.3030 -0.2556
22407SOL    HW179280   9.248   8.447  10.079  0.2656  0.4177  1.0103
22407SOL    HW279281   9.406   8.434  10.119  0.5071 -2.0441 -0.6222
22408SOL     OW79282   8.156   9.178   4.823 -0.6493 -0.6074  0.8298
22408SOL    HW179283   8.219   9.250   4.792 -0.5884 -0.3673  1.5019
22408SOL    HW279284   8.187   9.089   4.789 -0.8984 -0.2771 -0.2713
22409SOL     OW79285   1.939   9.617   1.327 -0.5213  0.3209 -0.3648
22409SOL    HW179286   1.975   9.554   1.396  0.0182  1.1954  0.1812
22409SOL    HW279287   1.994   9.609   1.244  0.2166  0.8013  0.0608
22410SOL     OW79288   5.191   7.446   5.992  0.2150  0.4190  0.2597
22410SOL    HW179289   5.110   7.446   5.934 -0.7614 -0.8406  1.6052
22410SOL    HW279290   5.180   7.380   6.066  2.5842  0.0298  0.3111
22411SOL     OW79291   7.791   4.819   8.617  0.0782  0.5096 -0.5537
22411SOL    HW179292   7.714   4.862   8.665  0.3343  1.0882 -0.6584
22411SOL    HW279293   7.875   4.870   8.636  0.7013 -0.8986  0.6693
22412SOL     OW79294   2.787   8.576   0.405 -0.0741  0.2669  0.0438
22412SOL    HW179295   2.798   8.676   0.402  0.4123  0.2547  1.2590
22412SOL    HW279296   2.833   8.540   0.486 -0.4272 -0.9296 -0.2817
22413SOL     OW79297   9.154   4.631   4.237 -0.3262 -0.0659 -0.4703
22413SOL    HW179298   9.162   4.698   4.311  2.3265 -1.0355  0.1637
22413SOL    HW279299   9.225   4.648   4.168 -1.0839 -0.8254 -1.4591
22414SOL     OW79300   6.998   1.304   8.590  0.2314 -0.5722 -0.2948
22414SOL    HW179301   7.052   1.315   8.674 -0.3878  1.3031 -0.1024
22414SOL    HW279302   7.058   1.311   8.511  0.3865  0.8671 -0.0688
22415SOL     OW79303   4.606   6.702   1.385 -0.0019  0.1861 -0.4620
22415SOL    HW179304   4.521   6.679   1.433  1.2782 -3.4001  0.2852
22415SOL    HW279305   4.607   6.656   1.295  0.6205  1.1757 -0.9692
22416SOL     OW79306   0.229   3.302   1.583  0.2689  0.0355  0.0443
22416SOL    HW179307   0.325   3.284   1.599  0.0545  1.1236  2.8614
22416SOL    HW279308   0.173   3.241   1.639 -0.6615  0.1669 -0.7164
22417SOL     OW79309   5.652   4.731   7.559 -0.7998 -0.3966  0.0342
22417SOL    HW179310   5.636   4.813   7.503  2.4923  0.0431 -0.3721
22417SOL    HW279311   5.590   4.658   7.530 -0.0863  0.2571 -3.2635
22418SOL     OW79312   1.645   3.329   7.081  0.5105  0.3904  0.2430
22418SOL    HW179313   1.553   3.349   7.116 -0.3602  0.5190 -2.0228
22418SOL    HW279314   1.703   3.409   7.095 -0.0858  0.7913  0.4957
22419SOL     OW79315   2.997   1.848   5.047 -0.7030  0.9718  0.8019
22419SOL    HW179316   2.955   1.936   5.026 -0.4535  0.8064 -0.4397
22419SOL    HW279317   3.034   1.807   4.963 -1.2646 -0.5427  1.2654
22420SOL     OW79318   4.068   4.946   9.693  0.3640  0.1732  0.4816
22420SOL    HW179319   4.165   4.940   9.713  0.5228  0.0141 -0.3249
22420SOL    HW279320   4.016   4.898   9.764  0.7804  1.3891  1.6331
22421SOL     OW79321   4.563   9.681   7.597  0.2246 -0.2909  0.2622
22421SOL    HW179322   4.654   9.697   7.557 -0.7157 -2.0106 -2.7098
22421SOL    HW279323   4.567   9.604   7.660  0.2286 -2.4709 -2.3275
22422SOL     OW79324   4.080   7.902   8.923  0.0357  0.4415  0.3433
22422SOL    HW179325   4.108   7.840   8.996  2.7676  0.6743 -0.4484
22422SOL    HW279326   4.122   7.992   8.938 -2.1875  1.5202  0.3382
22423SOL     OW79327   6.983   9.634   7.376  0.6512  0.2203 -0.0060
22423SOL    HW179328   7.048   9.649   7.301  1.2646 -1.0302  0.2536
22423SOL    HW279329   7.022   9.670   7.461  1.6084 -1.7163  0.3981
22424SOL     OW79330   1.504   1.350   6.901  0.0910  0.3086 -0.1764
22424SOL    HW179331   1.478   1.332   6.996 -2.0647 -0.3864 -0.8690
22424SOL    HW279332   1.589   1.303   6.880  0.3053  0.0391  1.2538
22425SOL     OW79333   4.167   5.539   3.188  0.6315  0.5581  0.2581
22425SOL    HW179334   4.120   5.591   3.117 -0.3783  0.9610  1.2101
22425SOL    HW279335   4.135   5.444   3.187  1.9151  0.1215 -0.9765
22426SOL     OW79336   7.731   4.774   9.144 -0.3942  0.0663 -0.0932
22426SOL    HW179337   7.813   4.794   9.092  0.1891 -1.1487  0.3476
22426SOL    HW279338   7.689   4.860   9.174  1.2551  0.6696  0.5312
22427SOL     OW79339   2.677   2.426   8.791 -0.1466  0.1126  0.3447
22427SOL    HW179340   2.580   2.447   8.798 -0.3650 -0.6813 -0.2034
22427SOL    HW279341   2.706   2.375   8.872 -0.2707  0.0528  0.3520
22428SOL     OW79342   8.917   6.453   4.812  0.1151  0.3622  0.4985
22428SOL    HW179343   8.994   6.509   4.844  0.4907  0.0350  0.1698
22428SOL    HW279344   8.840   6.513   4.788  0.6497  0.7722 -0.2143
22429SOL     OW79345   0.588   4.472   9.595 -0.1532  0.4119  0.0103
22429SOL    HW179346   0.650   4.541   9.558  0.3365 -0.2956 -0.4994
22429SOL    HW279347   0.581   4.482   9.694  0.9203  0.3710  0.0868
22430SOL     OW79348   9.342   1.621   9.547 -0.1787 -0.1162 -0.1618
22430SOL    HW179349   9.377   1.715   9.548  0.4426 -0.2925 -2.0661
22430SOL    HW279350   9.279   1.610   9.471  1.6436 -1.8582 -1.4916
22431SOL     OW79351   4.722   0.753   9.448 -0.1455 -0.3710  0.0214
22431SOL    HW179352   4.741   0.822   9.518  2.8760 -0.7191 -0.3662
22431SOL    HW279353   4.662   0.682   9.487 -0.5748  0.7444  1.4494
22432SOL     OW79354   4.307   9.560   4.047  0.2858  0.2098 -0.1892
22432SOL    HW179355   4.402   9.558   4.015  0.2541  1.3233 -0.3435
22432SOL    HW279356   4.306   9.550   4.146  0.4626 -1.6591 -0.3557
22433SOL     OW79357   4.656   3.243   4.960  0.2032 -0.0624 -0.1440
22433SOL    HW179358   4.594   3.165   4.956  1.1496 -0.7884 -0.8874
22433SOL    HW279359   4.748   3.213   4.936  0.3646  1.5001 -1.5724
22434SOL     OW79360   4.833   8.167   7.400 -0.0151 -0.4359 -0.1812
22434SOL    HW179361   4.872   8.078   7.423  0.4315  0.2626  1.8837
22434SOL    HW279362   4.897   8.218   7.343  0.6394 -0.6208  0.3815
22435SOL     OW79363   3.195   7.424   2.669  0.0044  0.2764  0.5337
22435SOL    HW179364   3.146   7.464   2.592 -0.8511  0.4181  1.1439
22435SOL    HW279365   3.234   7.336   2.642  0.2218  0.5969 -0.2279
22436SOL     OW79366   7.327   3.515   0.505 -0.1628 -0.2585  0.3192
22436SOL    HW179367   7.340   3.580   0.430  0.3140  0.1102  0.7175
22436SOL    HW279368   7.281   3.561   0.581 -0.0125 -0.4419  0.5214
22437SOL     OW79369   8.261   9.299   6.760 -0.0274  0.4291 -0.2754
22437SOL    HW179370   8.225   9.279   6.851  1.7937 -0.3232  0.2996
22437SOL    HW279371   8.337   9.364   6.767  0.3060  0.1555 -1.2343
22438SOL     OW79372   7.039   5.982   0.897  0.3172 -0.3753 -0.1625
22438SOL    HW179373   7.029   5.893   0.851 -1.7197 -0.9088  1.2497
22438SOL    HW279374   7.056   6.053   0.828  0.5498 -1.6365 -1.4411
22439SOL     OW79375   2.166   4.393   4.432  0.1985  0.0517  0.3954
22439SOL    HW179376   2.249   4.341   4.413 -0.0757 -0.1043 -0.4042
22439SOL    HW279377   2.162   4.415   4.529  0.1476 -1.6984  0.8041
22440SOL     OW79378   0.019   2.310   0.495 -0.9670  0.1417  0.1804
22440SOL    HW179379   0.052   2.227   0.540 -0.6757  0.2950  0.2542
22440SOL    HW279380   0.048   2.309   0.399  2.3574  1.9358  1.0950
22441SOL     OW79381   9.668   0.328   3.839 -0.5856 -0.0319  0.3125
22441SOL    HW179382   9.653   0.240   3.886 -1.4061  0.5267  1.1115
22441SOL    HW279383   9.606   0.335   3.761 -0.8816  0.0657  0.5578
22442SOL     OW79384   2.589   6.166   8.280 -0.0732  0.2992  0.0082
22442SOL    HW179385   2.533   6.135   8.202 -2.9223  0.4179  1.9512
22442SOL    HW279386   2.588   6.096   8.351  0.1261  1.4111  1.1217
22443SOL     OW79387   9.776   0.131   1.115  0.3651  0.5692  0.2687
22443SOL    HW179388   9.852   0.091   1.166 -1.0123 -1.1170  1.0796
22443SOL    HW279389   9.792   0.120   1.017  1.3681  0.6143  0.4258
22444SOL     OW79390   2.346   5.511   2.483  0.5640  0.7435 -0.4909
22444SOL    HW179391   2.431   5.465   2.460  0.3081  0.6346 -1.2122
22444SOL    HW279392   2.301   5.544   2.400 -1.1811 -1.1004 -0.3149
22445SOL     OW79393   1.800   2.289   2.668 -0.4448  0.1017  0.2445
22445SOL    HW179394   1.702   2.294   2.686 -0.3625 -0.4929  0.8601
22445SOL    HW279395   1.822   2.347   2.590 -0.7767  2.7577  2.0754
22446SOL     OW79396   7.355   8.614   8.951 -0.0696 -0.4178 -0.4584
22446SOL    HW179397   7.310   8.550   9.014  0.7554 -0.0792  0.4683
22446SOL    HW279398   7.312   8.606   8.861 -1.9917 -0.1196  0.4007
22447SOL     OW79399   6.107   4.926   9.725  0.1781  1.0012  0.4884
22447SOL    HW179400   6.130   4.829   9.737 -1.2319  0.6597  0.6231
22447SOL    HW279401   6.127   4.976   9.809  0.7467  0.7935  0.4767
22448SOL     OW79402   6.664   2.217   0.481 -0.4563  0.0027 -0.1117
22448SOL    HW179403   6.731   2.281   0.445 -0.0417 -0.2738  0.1696
22448SOL    HW279404   6.589   2.269   0.525 -0.4600  0.3071 -0.4800
22449SOL     OW79405   9.698   3.012   3.809  0.0712  0.2065 -0.5250
22449SOL    HW179406   9.652   3.093   3.845  0.8620  1.1019 -1.4984
22449SOL    HW279407   9.659   2.930   3.851 -2.4300  0.9400 -1.2964
22450SOL     OW79408   5.755   0.002   5.492  0.1599  0.2743 -0.1465
22450SOL    HW179409   5.843   0.044   5.511  0.4670 -0.4579  0.0755
22450SOL    HW279410   5.711  -0.024   5.578 -0.5423  1.1695 -0.2248
22451SOL     OW79411   4.286   2.677   5.790 -0.2682  0.0688  0.2155
22451SOL    HW179412   4.267   2.765   5.835 -0.5485  0.4450 -0.6305
22451SOL    HW279413   4.319   2.612   5.858  0.7739  1.0818  0.6996
22452SOL     OW79414   1.707   8.137   7.441  0.6577 -0.3159 -0.4696
22452SOL    HW179415   1.623   8.095   7.475  0.9922 -0.0615  0.7301
22452SOL    HW279416   1.778   8.067   7.434  0.9578 -0.1449  0.6563
22453SOL     OW79417   9.338   5.374   6.064  0.3945 -0.1679 -0.1521
22453SOL    HW179418   9.434   5.351   6.044  0.3109  0.4120 -1.2680
22453SOL    HW279419   9.335   5.446   6.133  0.8337  1.0471 -1.3676
22454SOL     OW79420   9.286   6.570   2.066  0.6061  0.1296 -0.0409
22454SOL    HW179421   9.327   6.607   1.983  0.1847 -0.5547 -0.5620
22454SOL    HW279422   9.215   6.632   2.099 -0.2568 -0.3137 -1.0396
22455SOL     OW79423   5.703   4.915   2.404 -0.1759 -0.0498  0.3912
22455SOL    HW179424   5.634   4.917   2.476 -1.7162 -2.5697 -0.9312
22455SOL    HW279425   5.737   4.821   2.394  0.0278  0.2685 -2.0960
22456SOL     OW79426   6.666   9.205   8.681 -0.3885 -0.1405 -0.1020
22456SOL    HW179427   6.683   9.157   8.595  0.3957 -0.2960  0.1381
22456SOL    HW279428   6.588   9.267   8.670  0.6953  1.0185 -1.3935
22457SOL     OW79429   1.787   3.836   9.909 -0.2460  0.0315  0.1236
22457SOL    HW179430   1.796   3.773   9.833  1.1839  0.0960  0.2364
22457SOL    HW279431   1.750   3.788   9.989 -1.1195 -0.1806 -0.4027
22458SOL     OW79432   4.915   8.742   3.642 -0.1472  0.2216 -0.1393
22458SOL    HW179433   4.892   8.774   3.735  0.3618 -0.2149  0.1361
22458SOL    HW279434   4.834   8.699   3.602  0.0712 -0.9847  0.6928
22459SOL     OW79435   8.238   7.330   9.504  0.1076  0.6846 -0.2610
22459SOL    HW179436   8.275   7.391   9.574  2.6647  0.8364 -1.6786
22459SOL    HW279437   8.251   7.371   9.414 -0.2900 -0.9091 -1.0561
22460SOL     OW79438   0.869   5.625   9.518 -0.7561 -0.6367 -0.2743
22460SOL    HW179439   0.964   5.637   9.545 -0.6001 -2.6590  0.1755
22460SOL    HW279440   0.811   5.686   9.571  0.2259  0.2119 -0.1601
22461SOL     OW79441   4.143   5.185   7.695  0.3232  0.6135  0.3339
22461SOL    HW179442   4.160   5.278   7.726 -0.0973  0.2656  1.6411
22461SOL    HW279443   4.079   5.186   7.619 -1.9657  1.2243  2.1992
22462SOL     OW79444   0.689   7.584   3.918 -0.0376  0.0299 -0.1102
22462SOL    HW179445   0.730   7.603   3.829 -0.0507 -0.3336 -0.1957
22462SOL    HW279446   0.688   7.667   3.974 -0.7301  0.4470 -0.7305
22463SOL     OW79447   2.209   3.449   6.174 -0.1281 -0.5338 -0.1578
22463SOL    HW179448   2.215   3.359   6.131 -1.6697 -0.8345  0.2325
22463SOL    HW279449   2.117   3.486   6.161  0.7572  1.4119 -1.1241
22464SOL     OW79450   4.955   1.901   0.096  0.3302  0.3230 -0.2528
22464SOL    HW179451   4.993   1.940   0.180  0.5494  0.3212 -0.3500
22464SOL    HW279452   4.943   1.974   0.029  1.4545  0.1140 -0.7023
22465SOL     OW79453   8.937   8.746   9.074  0.0564 -0.4960 -0.1656
22465SOL    HW179454   8.839   8.757   9.086  0.1314 -0.1998  0.1560
22465SOL    HW279455   8.978   8.833   9.046  0.2953 -0.5037  0.1612
22466SOL     OW79456   8.223   8.100   4.598  0.3366  0.3411  0.0073
22466SOL    HW179457   8.211   8.192   4.561  1.0088  0.3832 -0.0965
22466SOL    HW279458   8.265   8.041   4.529 -0.4333 -0.1459 -0.0608
22467SOL     OW79459   0.145   5.238   2.953 -0.1679  0.0466 -0.2038
22467SOL    HW179460   0.123   5.293   3.034  1.1580  1.0328 -0.4810
22467SOL    HW279461   0.167   5.300   2.877 -0.2964 -0.8758 -0.9922
22468SOL     OW79462   5.903   4.879   2.727 -0.1167  0.2400  0.0153
22468SOL    HW179463   5.928   4.792   2.771 -0.5732 -0.2268 -0.6402
22468SOL    HW279464   5.965   4.896   2.651  0.1040  0.5966  0.2759
22469SOL     OW79465   7.436   2.379   8.513  0.3899  0.4699  0.3393
22469SOL    HW179466   7.484   2.340   8.592 -0.3222  3.0934  2.1392
22469SOL    HW279467   7.408   2.472   8.535 -0.7148  0.8790 -2.6909
22470SOL     OW79468   9.457   6.423   5.958 -0.2537  0.8735  0.0447
22470SOL    HW179469   9.550   6.424   5.923 -0.3336  0.5995 -0.1809
22470SOL    HW279470   9.456   6.452   6.054  0.4193 -1.7772  0.8987
22471SOL     OW79471   8.569   4.727   3.644 -0.4789 -0.2108  0.3034
22471SOL    HW179472   8.549   4.678   3.559 -0.1422  0.9741 -0.4650
22471SOL    HW279473   8.495   4.790   3.665 -1.5533 -1.9961  2.0159
22472SOL     OW79474   4.035   7.399   7.152  0.2387  0.0089  0.5777
22472SOL    HW179475   4.030   7.482   7.207 -1.6876  1.0617 -1.0934
22472SOL    HW279476   3.958   7.339   7.175 -0.2838  0.2230 -0.5366
22473SOL     OW79477   8.857   3.719   2.224  0.3020 -0.1753  0.0008
22473SOL    HW179478   8.838   3.769   2.139  0.2740 -2.3844 -1.3260
22473SOL    HW279479   8.954   3.692   2.225  0.2026 -0.5111  0.4872
22474SOL     OW79480   3.745   5.397   7.350  0.2947 -0.4210  0.8621
22474SOL    HW179481   3.792   5.393   7.438  1.5359  1.4375  0.2963
22474SOL    HW279482   3.780   5.325   7.290 -0.0827 -1.2671  1.6494
22475SOL     OW79483   7.653   4.597   1.589  0.0072  0.1199 -0.0636
22475SOL    HW179484   7.611   4.674   1.636 -0.0805 -0.1557  0.3095
22475SOL    HW279485   7.753   4.609   1.587  0.0178  0.0665  0.2961
22476SOL     OW79486   9.710   2.108   0.718 -0.0653 -0.2050  0.2980
22476SOL    HW179487   9.695   2.140   0.624 -0.1596 -0.7906  0.1173
22476SOL    HW279488   9.779   2.167   0.762 -1.7138  1.5352  0.6389
22477SOL     OW79489   0.945   5.747   5.921 -0.4560  0.0578  0.1221
22477SOL    HW179490   0.922   5.782   5.831  1.3613  0.2437 -0.2910
22477SOL    HW279491   1.043   5.760   5.938 -0.8442  0.3347  2.2573
22478SOL     OW79492   9.053   3.854   0.101  0.0604  0.1267  0.2001
22478SOL    HW179493   9.144   3.893   0.108  0.4867 -0.9411  0.7895
22478SOL    HW279494   9.052   3.764   0.144 -0.8911 -0.5202 -1.1227
22479SOL     OW79495   2.805   6.633   2.632  0.0109 -0.0522 -0.3252
22479SOL    HW179496   2.746   6.709   2.605  0.7730  0.9327  0.7315
22479SOL    HW279497   2.764   6.586   2.711 -1.4212 -1.9481 -2.1585
22480SOL     OW79498   4.795   2.164   1.550  0.3630 -0.3062 -0.1753
22480SOL    HW179499   4.846   2.195   1.630  1.3923  0.9924 -1.3020
22480SOL    HW279500   4.706   2.209   1.547  0.8286  0.6189 -0.4234
22481SOL     OW79501   8.589   7.091   9.761  0.3096 -0.0736 -0.5323
22481SOL    HW179502   8.518   7.024   9.739  0.3491 -0.1097 -0.5501
22481SOL    HW279503   8.616   7.081   9.857  0.4532 -0.2176 -0.5847
22482SOL     OW79504   3.366   3.415   0.150 -0.8407  0.1856  0.1683
22482SOL    HW179505   3.297   3.472   0.106  0.4680  1.9544  0.3683
22482SOL    HW279506   3.348   3.412   0.248  0.4898  2.2895  0.5031
22483SOL     OW79507   1.663   9.664   0.440 -0.1614 -0.0650  0.0753
22483SOL    HW179508   1.750   9.647   0.394  0.1338 -0.0639  0.6180
22483SOL    HW279509   1.652   9.600   0.516  0.3130  1.2335  1.2617
22484SOL     OW79510   2.741   3.289   1.122  0.0979  0.8655  0.0386
22484SOL    HW179511   2.772   3.197   1.098  0.8986  0.9808  0.6239
22484SOL    HW279512   2.659   3.284   1.179  0.0398  0.5235 -0.0767
22485SOL     OW79513   6.772   9.144   4.004  0.0280  0.3769  0.0724
22485SOL    HW179514   6.713   9.179   3.931 -0.7037 -1.6755 -0.3574
22485SOL    HW279515   6.820   9.063   3.972  1.4961  0.8175  1.1253
22486SOL     OW79516   9.501   2.969   8.178 -0.5186 -0.1081  0.0686
22486SOL    HW179517   9.599   2.990   8.184 -0.5326 -0.2652  0.9322
22486SOL    HW279518   9.488   2.870   8.180 -0.8042 -0.0518  1.9610
22487SOL     OW79519   3.554   6.685   7.809  0.2760 -0.3430  0.3467
22487SOL    HW179520   3.651   6.684   7.788  0.2234 -0.3328  0.0918
22487SOL    HW279521   3.508   6.611   7.758 -0.0328  0.4045 -0.4820
22488SOL     OW79522   0.873   3.529   4.495  0.3197  0.9031  0.5677
22488SOL    HW179523   0.956   3.510   4.547  0.7166 -0.0775 -0.4258
22488SOL    HW279524   0.884   3.498   4.401 -0.8432  1.5859  0.1942
22489SOL     OW79525   2.147   1.857   7.127  0.3146  0.2017 -0.5759
22489SOL    HW179526   2.120   1.808   7.210  0.4042 -0.1692 -0.7619
22489SOL    HW279527   2.203   1.796   7.070  2.6105  1.3267  0.3796
22490SOL     OW79528   3.053   3.845   8.774 -0.0401 -0.0497 -0.1545
22490SOL    HW179529   3.004   3.774   8.825 -0.1477 -0.7917 -1.2817
22490SOL    HW279530   3.062   3.926   8.831 -2.8234  0.2038  0.0013
22491SOL     OW79531   6.048   8.857   5.504  0.0755  0.1507  0.7800
22491SOL    HW179532   6.052   8.957   5.495 -0.2974  0.1301  0.3991
22491SOL    HW279533   5.954   8.828   5.522  0.3365 -0.0552  1.8998
22492SOL     OW79534   7.926   0.378   7.975  0.8923  0.5942 -0.2076
22492SOL    HW179535   7.997   0.326   8.021  2.3862  0.5320 -2.5266
22492SOL    HW279536   7.865   0.315   7.925 -1.1086  0.6034  2.1314
22493SOL     OW79537   2.352   3.207   8.033 -0.2039 -0.6026 -0.0932
22493SOL    HW179538   2.446   3.199   8.001  1.2778  0.4114  3.6292
22493SOL    HW279539   2.320   3.119   8.066 -1.2353 -1.3343 -2.9222
22494SOL     OW79540   6.899   6.264   5.815 -0.0406 -0.2886 -0.1032
22494SOL    HW179541   6.923   6.176   5.857 -1.0154 -1.1905 -1.3981
22494SOL    HW279542   6.896   6.253   5.716  1.2135  1.5585 -0.3638
22495SOL     OW79543   2.722   1.341   0.475 -0.3149 -0.3654 -0.3255
22495SOL    HW179544   2.694   1.248   0.452 -0.3089 -0.0470 -1.6549
22495SOL    HW279545   2.760   1.386   0.394 -2.0186  1.4217 -0.1817
22496SOL     OW79546   9.007   4.045   7.044 -0.2076  0.1676 -0.1026
22496SOL    HW179547   9.068   3.978   7.004  0.5846  0.6290  0.3277
22496SOL    HW279548   9.058   4.106   7.104 -1.2701 -0.1596  1.1679
22497SOL     OW79549   6.609   1.571   9.944 -0.1204  0.1799 -0.3795
22497SOL    HW179550   6.582   1.475   9.934  0.8774 -0.1744  0.2936
22497SOL    HW279551   6.623   1.612   9.854  0.8973 -0.7211 -0.6350
22498SOL     OW79552   1.901   7.111   7.359 -0.0542  0.2162 -0.2892
22498SOL    HW179553   1.959   7.090   7.280 -1.0298 -2.8786 -0.2447
22498SOL    HW279554   1.809   7.132   7.327 -0.2328 -0.1722 -0.0286
22499SOL     OW79555   1.896   6.578   0.780  0.0296 -0.6462 -0.9454
22499SOL    HW179556   1.836   6.636   0.725  0.2823  0.2533 -0.2805
22499SOL    HW279557   1.849   6.491   0.799 -0.5677 -0.4468 -1.4837
22500SOL     OW79558   0.761   6.989   5.614  0.2346 -0.8255 -0.0539
22500SOL    HW179559   0.671   6.949   5.626  0.5210 -1.2757  0.6761
22500SOL    HW279560   0.793   6.975   5.521 -0.1552 -1.2773 -0.1178
22501SOL     OW79561   2.717   5.865   6.296  0.9857 -0.5101 -0.0046
22501SOL    HW179562   2.645   5.817   6.246  1.9260 -1.1376 -0.7668
22501SOL    HW279563   2.712   5.963   6.274  0.1462 -0.4903  0.2311
22502SOL     OW79564   3.788   2.651   1.333  0.9789  0.5688  0.0672
22502SOL    HW179565   3.712   2.684   1.389  0.2379 -0.5247 -0.2740
22502SOL    HW279566   3.847   2.592   1.389  0.6247  0.0405 -0.1104
22503SOL     OW79567   2.927   9.038   4.849  0.3108  0.0212  0.0202
22503SOL    HW179568   2.895   9.097   4.775  0.4202 -0.3332 -0.3143
22503SOL    HW279569   3.018   9.068   4.878 -1.1273  2.2976  2.3700
22504SOL     OW79570   2.980   9.354   6.906  0.4089 -0.1947  0.1497
22504SOL    HW179571   3.046   9.427   6.888 -0.4335  0.5124 -0.1469
22504SOL    HW279572   2.962   9.305   6.820 -0.8687  0.8396 -0.1912
22505SOL     OW79573   0.438   1.465   5.416 -0.5143 -0.6462 -0.1783
22505SOL    HW179574   0.394   1.521   5.486 -1.4467 -0.1874 -1.1137
22505SOL    HW279575   0.436   1.369   5.443  0.5554 -0.3102  1.1520
22506SOL     OW79576   3.081   7.111   9.925 -0.0322  0.2412  0.0499
22506SOL    HW179577   3.008   7.173   9.899 -1.7820 -1.8051 -0.0614
22506SOL    HW279578   3.082   7.032   9.863  1.3419 -0.4636  0.9300
22507SOL     OW79579   0.729   0.304   2.379 -0.3073 -0.3595  0.8471
22507SOL    HW179580   0.713   0.248   2.297 -0.2794  0.2728  0.4044
22507SOL    HW279581   0.662   0.378   2.383  0.4562  0.3547  0.7231
22508SOL     OW79582   9.009   7.591   7.760  0.2153  0.3240 -0.1094
22508SOL    HW179583   8.992   7.517   7.825 -2.3685 -0.3093 -1.4244
22508SOL    HW279584   9.106   7.615   7.760  0.6503 -1.3370  2.1546
22509SOL     OW79585   0.633   4.521   5.501  0.7268 -0.8402 -0.1857
22509SOL    HW179586   0.679   4.585   5.439 -1.4790 -0.4772 -1.5117
22509SOL    HW279587   0.546   4.561   5.531 -0.7296 -3.1967 -1.0900
22510SOL     OW79588   9.570   5.810   6.005  0.5832  0.2677 -0.0521
22510SOL    HW179589   9.523   5.892   6.038  0.9879  0.3813  0.2369
22510SOL    HW279590   9.570   5.809   5.905  0.5813  0.6201 -0.0548
22511SOL     OW79591   9.671   5.090   2.980 -0.3580 -0.0355 -0.3838
22511SOL    HW179592   9.600   5.123   3.042 -1.3091 -0.1989 -1.3471
22511SOL    HW279593   9.647   4.998   2.949  0.3365 -0.1327 -0.6350
22512SOL     OW79594   1.786   9.741   8.831 -0.3570 -0.3687  0.3379
22512SOL    HW179595   1.864   9.769   8.776 -0.0184 -0.0985  0.9549
22512SOL    HW279596   1.793   9.643   8.851  0.4808 -0.0750  1.4663
22513SOL     OW79597   5.907   0.974   5.563  0.2712  0.1295 -0.4234
22513SOL    HW179598   5.877   0.879   5.554 -0.3506  0.2638  0.1572
22513SOL    HW279599   5.888   1.024   5.478  2.3283 -0.7245 -1.4100
22514SOL     OW79600   8.200   6.035   8.190  0.0417 -0.0789 -0.0436
22514SOL    HW179601   8.245   6.073   8.109  1.7368  0.3622  1.0739
22514SOL    HW279602   8.155   5.949   8.167  1.7890 -0.7156 -1.1116
22515SOL     OW79603   0.907   0.245   3.339  0.1347  0.1687 -0.3598
22515SOL    HW179604   1.005   0.249   3.321  0.0785 -0.6175 -0.9017
22515SOL    HW279605   0.858   0.230   3.252 -0.5017  1.1043 -0.1680
22516SOL     OW79606   4.432   9.837   5.424 -0.2673 -0.0920  0.0892
22516SOL    HW179607   4.523   9.810   5.394 -0.1795  0.9665 -0.6039
22516SOL    HW279608   4.434   9.854   5.523  0.4900  0.7723 -0.0685
22517SOL     OW79609   2.849   2.715   2.117  0.5028 -0.3918  0.4800
22517SOL    HW179610   2.909   2.756   2.186 -0.2546  0.6474  0.5457
22517SOL    HW279611   2.894   2.637   2.075  1.2000 -0.6933  1.7676
22518SOL     OW79612   8.668   1.475   1.652  0.2921  0.1266  0.0567
22518SOL    HW179613   8.638   1.446   1.561 -1.8475 -0.8238  1.0294
22518SOL    HW279614   8.759   1.515   1.645 -0.8128  2.3902 -2.9139
22519SOL     OW79615   0.514   9.514   7.338 -0.3847 -0.6565 -0.0892
22519SOL    HW179616   0.531   9.425   7.296 -0.2684 -1.0068  0.7005
22519SOL    HW279617   0.468   9.574   7.272 -1.1455 -1.5428 -0.3800
22520SOL     OW79618   9.154   9.502   3.886  0.1428 -0.5009 -0.1443
22520SOL    HW179619   9.220   9.565   3.843 -0.9525  3.0849  3.2010
22520SOL    HW279620   9.068   9.506   3.835  0.7112 -0.9071 -1.1686
22521SOL     OW79621   3.785   4.813   5.878  0.0473  0.3314  0.2037
22521SOL    HW179622   3.839   4.753   5.937  0.4547  0.8309  0.3470
22521SOL    HW279623   3.800   4.788   5.782 -0.1258 -0.0748  0.2818
22522SOL     OW79624   9.670   9.989   2.219 -0.3026  0.3092  0.1606
22522SOL    HW179625   9.736   9.945   2.280 -0.3499  0.8810  0.6271
22522SOL    HW279626   9.654  10.083   2.249 -2.8572 -0.4445  1.2629
22523SOL     OW79627   7.134   9.088   8.696 -0.1163  0.4410  0.2988
22523SOL    HW179628   7.126   9.089   8.596  0.3283 -0.3893  0.2447
22523SOL    HW279629   7.201   9.155   8.725  0.1714  0.2884 -0.0092
22524SOL     OW79630   9.058   8.181   6.716  0.4695 -0.3256 -0.4586
22524SOL    HW179631   9.028   8.169   6.622  1.3259 -2.0624 -0.5351
22524SOL    HW279632   9.155   8.161   6.723  0.7199  1.1511  0.5596
22525SOL     OW79633   0.340   2.119   3.394  0.6804  0.1674 -0.0743
22525SOL    HW179634   0.279   2.057   3.345  0.8651  0.9861 -1.3658
22525SOL    HW279635   0.295   2.207   3.408  1.5330  0.7606 -0.9924
22526SOL     OW79636   4.103   4.217   3.931  0.4692 -0.5714 -0.3779
22526SOL    HW179637   4.089   4.120   3.950 -0.8372 -0.4687 -0.7243
22526SOL    HW279638   4.030   4.249   3.870  0.3674  0.8432  0.4719
22527SOL     OW79639   7.538   8.573   2.831 -0.5026  0.0978  0.1152
22527SOL    HW179640   7.603   8.515   2.782 -1.0915  0.8290 -1.5444
22527SOL    HW279641   7.453   8.524   2.846 -0.9409  0.4656 -1.1414
22528SOL     OW79642   0.213   9.066   4.992 -0.6083  0.4369 -0.4088
22528SOL    HW179643   0.228   8.970   4.968 -0.9249  0.7479 -1.8825
22528SOL    HW279644   0.277   9.124   4.942 -2.6500  1.2717 -2.1572
22529SOL     OW79645   3.207   2.922   7.398  0.2451  0.2256 -0.2280
22529SOL    HW179646   3.180   2.908   7.493 -0.7123  1.5897 -0.2936
22529SOL    HW279647   3.171   2.847   7.342  0.2351 -0.2231  0.3757
22530SOL     OW79648   5.562   8.118   4.603  0.0286  0.0651  0.4698
22530SOL    HW179649   5.492   8.048   4.601  1.1624 -1.1111  0.9906
22530SOL    HW279650   5.549   8.177   4.683  0.0743 -0.6136  0.9750
22531SOL     OW79651   9.206   7.442   0.520 -0.5100 -0.2381  0.1428
22531SOL    HW179652   9.292   7.457   0.568  0.1825 -0.1229 -1.1320
22531SOL    HW279653   9.130   7.456   0.584  0.2976  2.9228  0.4670
22532SOL     OW79654   4.359   9.801   0.824  0.1339  0.1745  0.1560
22532SOL    HW179655   4.280   9.756   0.782 -0.4515  1.2909  0.0333
22532SOL    HW279656   4.330   9.850   0.906  0.6913  0.6078  0.0991
22533SOL     OW79657   9.551   0.263   7.254 -0.2604 -0.0462  0.5725
22533SOL    HW179658   9.606   0.291   7.332  0.9592  1.4549 -0.7866
22533SOL    HW279659   9.568   0.166   7.234 -1.2319 -0.6700  2.6625
22534SOL     OW79660   8.949   3.358   8.206 -0.2168 -0.0599  0.4679
22534SOL    HW179661   8.872   3.376   8.267 -0.4626 -1.3605  0.5627
22534SOL    HW279662   8.919   3.371   8.111 -0.7292 -1.1520  0.4748
22535SOL     OW79663   1.525   3.889   1.924 -0.0936  0.3340  0.6271
22535SOL    HW179664   1.612   3.892   1.975 -0.5534 -0.1292  1.4498
22535SOL    HW279665   1.545   3.877   1.827  0.7584 -0.6873  0.9092
22536SOL     OW79666   7.604   1.461   5.164  0.2022 -0.3092 -0.3420
22536SOL    HW179667   7.524   1.514   5.192 -0.6771 -2.0747  0.4841
22536SOL    HW279668   7.682   1.523   5.154 -1.1118  1.3384 -0.6083
22537SOL     OW79669   8.993   9.627   5.944  0.0568  0.2122 -0.5416
22537SOL    HW179670   8.921   9.693   5.924 -0.6502 -1.0289 -2.1787
22537SOL    HW279671   9.004   9.619   6.044 -0.4856  2.0787 -0.3194
22538SOL     OW79672   1.451   7.685   8.053  0.4600  0.0658  0.0605
22538SOL    HW179673   1.494   7.764   8.095 -1.9797  1.2764  0.3941
22538SOL    HW279674   1.415   7.625   8.124  1.5654 -0.9261 -0.2081
22539SOL     OW79675   1.148   2.405   0.291 -0.2063 -0.5665  0.6764
22539SOL    HW179676   1.146   2.305   0.284  0.1618 -0.4220 -2.0362
22539SOL    HW279677   1.097   2.445   0.214 -1.2138  1.3369  2.2919
22540SOL     OW79678   2.410   0.570   1.150 -0.3596 -0.4240  0.3092
22540SOL    HW179679   2.334   0.506   1.142  0.7593 -1.7089 -0.2209
22540SOL    HW279680   2.378   0.662   1.130 -1.5822 -1.0772 -0.8268
22541SOL     OW79681   1.512   6.389   8.083  0.2982 -0.4480 -0.1140
22541SOL    HW179682   1.494   6.384   7.985 -0.7437  1.2749 -0.0301
22541SOL    HW279683   1.543   6.481   8.107  0.3963 -0.8083  1.1987
22542SOL     OW79684   3.643   9.258   2.724 -0.6187  0.5670  0.7324
22542SOL    HW179685   3.571   9.238   2.791 -1.3914  1.4899  0.1774
22542SOL    HW279686   3.604   9.259   2.632  0.3057  0.0475  0.3248
22543SOL     OW79687   9.824   1.410   9.671  0.4931  0.1576 -0.6228
22543SOL    HW179688   9.894   1.350   9.632 -2.7525 -2.7228 -2.3936
22543SOL    HW279689   9.775   1.360   9.743 -0.7108  1.5883 -0.4417
22544SOL     OW79690   3.026   4.337   5.637  0.3895  0.0792 -0.2293
22544SOL    HW179691   2.993   4.344   5.731 -0.4344  0.6327 -0.5530
22544SOL    HW279692   2.949   4.318   5.576  0.7942  0.5468 -0.8944
22545SOL     OW79693   2.356   5.520   9.553 -0.0583 -0.0512 -0.2874
22545SOL    HW179694   2.339   5.427   9.521  2.4619 -0.5406 -0.3684
22545SOL    HW279695   2.349   5.523   9.653  0.5196 -0.5050 -0.2291
22546SOL     OW79696   3.638   8.786   1.745 -0.1976  0.0853 -0.4573
22546SOL    HW179697   3.561   8.751   1.798  0.1114  0.9619  0.5679
22546SOL    HW279698   3.635   8.886   1.743  0.0016  0.0761 -1.7809
22547SOL     OW79699   1.968   3.753   4.310  0.5074  0.5630 -0.3181
22547SOL    HW179700   2.008   3.841   4.337  0.3749  0.1774  1.1641
22547SOL    HW279701   1.875   3.767   4.277  0.3478  0.9217  0.2918
22548SOL     OW79702   1.491   5.418   7.875 -0.2135  0.1995  0.5819
22548SOL    HW179703   1.581   5.449   7.906  0.9834 -2.4102 -0.1472
22548SOL    HW279704   1.491   5.319   7.864 -2.7298  0.3047 -0.9452
22549SOL     OW79705   2.009   9.949   3.417  0.1452 -0.1346 -0.3199
22549SOL    HW179706   2.061  10.031   3.438  0.3975 -0.1637 -0.8224
22549SOL    HW279707   2.048   9.905   3.336  2.3983 -2.8143  2.0890
22550SOL     OW79708   2.271   1.668   4.499 -0.2108  0.3492  0.3486
22550SOL    HW179709   2.277   1.616   4.413 -3.8685  1.5998 -0.7127
22550SOL    HW279710   2.203   1.626   4.558 -1.3323  2.4145  0.5465
22551SOL     OW79711   2.213   0.631   2.992 -0.1392  0.0992  0.5992
22551SOL    HW179712   2.137   0.673   2.943 -0.7118  0.7536  1.9967
22551SOL    HW279713   2.196   0.533   3.002 -1.0616  0.3096  1.3045
22552SOL     OW79714   4.901   0.786   8.680  0.3112  0.1579  0.0541
22552SOL    HW179715   4.847   0.750   8.604  0.1642  0.5651 -0.0386
22552SOL    HW279716   4.968   0.852   8.646  1.2809 -0.7977  0.0957
22553SOL     OW79717   1.027   2.044   8.546 -0.1908  0.2232  0.4654
22553SOL    HW179718   1.054   1.989   8.624  1.7255  1.8645  0.9936
22553SOL    HW279719   1.029   1.988   8.463 -0.5138 -1.0659  1.3195
22554SOL     OW79720   9.899   6.486   2.499 -0.0451  0.0645  0.5633
22554SOL    HW179721   9.947   6.520   2.580  1.1710 -1.0479  0.3277
22554SOL    HW279722   9.801   6.483   2.517 -0.1171  2.7936  0.9018
22555SOL     OW79723   4.356   4.224   7.147 -0.2548  0.2679 -0.0743
22555SOL    HW179724   4.335   4.233   7.050 -0.0345 -0.5883 -0.2010
22555SOL    HW279725   4.436   4.280   7.169 -0.2615  0.4050 -0.3978
22556SOL     OW79726   1.790   2.912   2.369 -0.8846  0.3457  0.0176
22556SOL    HW179727   1.706   2.941   2.414 -0.2866  0.3639  1.1439
22556SOL    HW279728   1.864   2.974   2.395 -0.0402 -0.9668  0.8195
22557SOL     OW79729   4.016   4.414   4.417 -0.6221 -0.3264 -0.1292
22557SOL    HW179730   4.029   4.358   4.335 -1.7895 -0.3424 -0.3110
22557SOL    HW279731   4.025   4.356   4.498  0.0730 -0.3982 -0.2511
22558SOL     OW79732   9.353   5.611   6.768  0.3164  0.4472 -0.7160
22558SOL    HW179733   9.332   5.556   6.849  0.9607 -0.9753 -1.4882
22558SOL    HW279734   9.300   5.577   6.690  1.7894 -0.0403 -1.5379
22559SOL     OW79735   5.300   9.441   4.468  0.6185 -0.4900  0.3821
22559SOL    HW179736   5.356   9.392   4.536  1.5143 -0.0128  0.0001
22559SOL    HW279737   5.329   9.536   4.463 -2.0499  0.4501  2.1160
22560SOL     OW79738   3.498   8.705   2.848  0.1464  0.3754  0.0971
22560SOL    HW179739   3.539   8.789   2.883  0.7279  0.0049  0.3157
22560SOL    HW279740   3.570   8.647   2.808 -0.5611  1.0636 -2.2681
22561SOL     OW79741   4.112   8.091   5.923  0.2171  0.7073  0.4417
22561SOL    HW179742   4.013   8.103   5.931 -0.0193 -0.8752 -0.0038
22561SOL    HW279743   4.132   7.999   5.890  1.7914  1.4024 -0.6213
22562SOL     OW79744   9.179   6.752   9.025  0.1703 -0.1999 -0.2491
22562SOL    HW179745   9.090   6.738   8.982  1.2295 -3.1655 -1.5610
22562SOL    HW279746   9.176   6.719   9.119  0.0876 -0.9273 -0.5084
22563SOL     OW79747   9.512   0.777   1.433  0.4097 -0.8017  0.4251
22563SOL    HW179748   9.526   0.803   1.529  1.4207 -0.5906  0.2271
22563SOL    HW279749   9.551   0.847   1.374 -2.1249  0.1243 -0.1717
22564SOL     OW79750   1.885   5.803   5.681 -0.4373 -0.2014  0.2747
22564SOL    HW179751   1.918   5.854   5.760  0.3283 -0.6923  0.2772
22564SOL    HW279752   1.849   5.714   5.712  2.7086 -1.7087 -0.2402
22565SOL     OW79753   0.011   5.239   4.140 -0.2573 -0.3173 -0.5358
22565SOL    HW179754  -0.038   5.165   4.093 -0.0975 -0.1232 -1.0102
22565SOL    HW279755  -0.045   5.275   4.214  0.1942 -1.8239  0.5621
22566SOL     OW79756   4.497   9.700   2.831  0.0565 -0.6261  0.1766
22566SOL    HW179757   4.406   9.711   2.791  0.2344 -0.5441 -0.2076
22566SOL    HW279758   4.563   9.677   2.759  0.5423  0.3820  0.2858
22567SOL     OW79759   8.656   2.462   0.871  0.0350  0.1549  0.1002
22567SOL    HW179760   8.656   2.469   0.971 -1.4229 -1.3880  0.2089
22567SOL    HW279761   8.711   2.383   0.843  0.7782  0.8190 -0.3586
22568SOL     OW79762   3.859   2.694   0.678  0.4404 -0.0153 -0.3434
22568SOL    HW179763   3.802   2.650   0.747  0.7932 -0.2314 -0.1866
22568SOL    HW279764   3.801   2.730   0.605  0.0071  0.8824  0.4381
22569SOL     OW79765   1.625   0.939   4.693  0.1807  0.3427  0.1747
22569SOL    HW179766   1.538   0.960   4.649 -0.1307 -0.8199  0.2038
22569SOL    HW279767   1.624   0.971   4.787 -1.1496 -1.7645  0.9241
22570SOL     OW79768   9.798   7.892   6.700 -0.0485 -0.7702 -0.1326
22570SOL    HW179769   9.737   7.966   6.672 -0.5966 -0.9001  0.7100
22570SOL    HW279770   9.754   7.804   6.682 -0.4900 -0.8493  1.3392
22571SOL     OW79771   3.202   7.906   2.848  0.4078  0.2544 -0.0451
22571SOL    HW179772   3.125   7.913   2.911  0.5720 -1.4587  0.3602
22571SOL    HW279773   3.169   7.875   2.759  0.7213 -1.2320  0.3462
22572SOL     OW79774   8.319   5.763   2.228 -0.6781 -0.1492  0.3018
22572SOL    HW179775   8.325   5.670   2.265  0.5914 -0.3621 -0.3962
22572SOL    HW279776   8.314   5.759   2.128 -1.6576  0.5068  0.3180
22573SOL     OW79777   2.246   1.530   3.095 -0.5898  0.2235  0.4241
22573SOL    HW179778   2.260   1.431   3.087  2.2248  0.5651  0.4577
22573SOL    HW279779   2.240   1.570   3.003  0.4532  0.2794  0.3750
22574SOL     OW79780   0.929   5.035   9.440  0.2139 -0.1600  0.3565
22574SOL    HW179781   0.995   5.079   9.379 -0.9323 -0.7343 -1.3353
22574SOL    HW279782   0.967   4.949   9.475  0.3638 -0.5009 -0.6314
22575SOL     OW79783   1.963   1.224   2.536 -0.1790  0.4765 -0.2291
22575SOL    HW179784   1.963   1.321   2.561 -1.0114 -0.2673  2.8920
22575SOL    HW279785   2.057   1.192   2.523  0.0644  1.8886 -2.3288
22576SOL     OW79786   9.856   5.951   2.228  0.4862 -0.8766  0.1844
22576SOL    HW179787   9.869   5.902   2.314 -0.2999 -1.3092  0.0675
22576SOL    HW279788   9.924   6.023   2.219 -0.0162 -0.2124  1.6248
22577SOL     OW79789   8.020   2.681   9.693  0.4758  0.0520  0.1811
22577SOL    HW179790   8.050   2.744   9.763  0.0270  0.5505 -0.0723
22577SOL    HW279791   7.976   2.731   9.618  0.0207 -0.5568  0.0271
22578SOL     OW79792   2.080   4.934   3.363  0.5189 -0.4155  0.8246
22578SOL    HW179793   2.012   4.952   3.435 -0.3793 -2.0002  0.3921
22578SOL    HW279794   2.046   4.970   3.277  0.0428 -1.5750  0.5277
22579SOL     OW79795   9.965   8.014   7.594  0.4850 -0.0402 -0.9586
22579SOL    HW179796  10.036   8.028   7.663  0.5469 -0.4606 -0.9345
22579SOL    HW279797  10.005   8.030   7.503  0.3263  0.8051 -0.8817
22580SOL     OW79798   4.164   2.309   3.082  0.0625  0.3825  0.1552
22580SOL    HW179799   4.212   2.278   3.164  0.7338 -0.3809 -0.5165
22580SOL    HW279800   4.209   2.391   3.046 -0.5981  1.0853  0.8736
22581SOL     OW79801   8.662   0.187   6.889 -0.0260  0.9795  0.5665
22581SOL    HW179802   8.701   0.096   6.902 -3.2023 -0.4367  0.7750
22581SOL    HW279803   8.650   0.204   6.791 -0.5167  0.6718  0.5711
22582SOL     OW79804   3.580   2.466   1.540  0.6624  1.1202  0.1561
22582SOL    HW179805   3.532   2.430   1.620  1.1556 -2.1878 -0.9553
22582SOL    HW279806   3.664   2.414   1.526  0.4409  1.4459 -2.6652
22583SOL     OW79807   3.328   8.748   8.829  0.2596 -0.1522  0.6577
22583SOL    HW179808   3.407   8.786   8.876  0.5225  0.1284  0.0014
22583SOL    HW279809   3.356   8.671   8.772 -0.1407 -0.8190  1.3500
22584SOL     OW79810   1.398   9.750   7.227 -0.1981 -0.2355 -0.0080
22584SOL    HW179811   1.445   9.747   7.139 -1.1873  0.2466 -0.5674
22584SOL    HW279812   1.327   9.680   7.230 -2.2704  1.7381 -0.8515
22585SOL     OW79813   6.139   7.737   3.261 -0.1120 -0.2439  0.0011
22585SOL    HW179814   6.164   7.719   3.356 -1.1737  1.1192  0.5426
22585SOL    HW279815   6.157   7.654   3.206 -1.0107 -1.5759  1.6755
22586SOL     OW79816   1.345   4.478   1.064  0.4877 -0.1749  0.2240
22586SOL    HW179817   1.361   4.395   1.012 -0.7487 -0.5801  0.4668
22586SOL    HW279818   1.422   4.541   1.053  0.1794 -0.2036 -2.1840
22587SOL     OW79819   0.032   6.697   8.367 -0.4295  0.0921 -0.0443
22587SOL    HW179820  -0.024   6.660   8.293 -0.7241  2.2879 -0.9771
22587SOL    HW279821   0.125   6.660   8.360 -0.0838  1.2824 -2.3884
22588SOL     OW79822   6.714   2.013   9.097  0.9859  0.3870  0.1098
22588SOL    HW179823   6.790   1.955   9.070 -0.3512 -0.4597 -1.9927
22588SOL    HW279824   6.630   1.958   9.102  0.4929  1.2766  2.4836
22589SOL     OW79825   3.193   5.006   7.877  0.1199 -0.0884 -0.6232
22589SOL    HW179826   3.134   5.038   7.952 -0.3082  0.7958 -1.3287
22589SOL    HW279827   3.150   5.029   7.790  1.5748  0.6911 -1.1541
22590SOL     OW79828   4.889   7.077   4.897  0.2453  0.1993 -0.7512
22590SOL    HW179829   4.973   7.060   4.846 -1.0584 -3.4766 -1.8615
22590SOL    HW279830   4.907   7.072   4.995  1.3355 -0.5492 -0.9882
22591SOL     OW79831   9.403   7.908   4.657 -0.6511 -0.4077  1.0966
22591SOL    HW179832   9.343   7.982   4.627 -1.0915 -1.1379  0.1181
22591SOL    HW279833   9.470   7.943   4.722 -0.1540  1.0730 -0.1899
22592SOL     OW79834   7.663   6.677   1.659  0.7409  0.4405 -0.0448
22592SOL    HW179835   7.739   6.624   1.696  1.4653  0.9320 -0.8265
22592SOL    HW279836   7.628   6.632   1.576 -0.1260 -0.0290  0.5594
22593SOL     OW79837   5.598   2.055   9.884 -0.6572  0.2336 -0.6081
22593SOL    HW179838   5.577   2.026   9.977 -1.4570 -1.8526 -1.3912
22593SOL    HW279839   5.582   2.153   9.875 -2.4938  0.1111  0.9424
22594SOL     OW79840   9.415   4.104   9.113  1.0498 -0.2211 -0.3717
22594SOL    HW179841   9.319   4.101   9.084  1.0185  0.5396 -0.3561
22594SOL    HW279842   9.456   4.014   9.102  0.1336 -0.7287  0.2954
22595SOL     OW79843   4.619   2.794   8.759 -0.0088  0.4242 -0.0490
22595SOL    HW179844   4.682   2.781   8.683 -1.0897 -2.0005 -0.5804
22595SOL    HW279845   4.626   2.717   8.822 -1.8391  0.5152  0.3008
22596SOL     OW79846   7.940   8.646   9.171  0.7667 -0.1130  0.6156
22596SOL    HW179847   7.988   8.733   9.175 -0.6534  0.6375  1.6204
22596SOL    HW279848   7.884   8.642   9.088  2.9277 -1.2204 -0.8514
22597SOL     OW79849   0.643   4.824   3.493 -0.4458 -0.2226 -0.0991
22597SOL    HW179850   0.661   4.780   3.405  2.0527 -0.3461  0.4317
22597SOL    HW279851   0.693   4.910   3.498  0.6010 -0.9100  1.7544
22598SOL     OW79852   6.565   3.610   2.738  0.0318 -0.5998 -0.7024
22598SOL    HW179853   6.480   3.560   2.756 -0.1509  0.7449  2.4198
22598SOL    HW279854   6.643   3.548   2.750 -0.4061 -1.3779 -1.7890
22599SOL     OW79855   9.456   9.168   1.762  0.4123  0.9049 -0.7114
22599SOL    HW179856   9.467   9.263   1.790 -0.2953  0.6655  0.3939
22599SOL    HW279857   9.540   9.136   1.718  0.1784  2.4584 -2.3720
22600SOL     OW79858   3.345   3.446   8.852 -0.4334  0.1916  0.0046
22600SOL    HW179859   3.373   3.373   8.789 -2.0610  0.8752 -1.5606
22600SOL    HW279860   3.265   3.416   8.903 -0.2773  0.3826  0.3618
22601SOL     OW79861   0.724   5.941   0.943  0.5216  0.3905 -0.0756
22601SOL    HW179862   0.741   6.021   1.001 -1.1679  1.0518 -0.4560
22601SOL    HW279863   0.810   5.897   0.921  1.3495  1.2459  1.3760
22602SOL     OW79864   8.242   8.771   1.208 -0.4695  0.7469 -0.5511
22602SOL    HW179865   8.248   8.835   1.285 -2.4043  2.0856 -1.4744
22602SOL    HW279866   8.332   8.730   1.192  0.1426  1.0420  1.9048
22603SOL     OW79867   2.011   9.490   1.554 -0.0153 -0.0922 -0.0777
22603SOL    HW179868   2.024   9.391   1.563  2.0886  0.1848  0.0270
22603SOL    HW279869   1.954   9.523   1.629 -0.5003 -1.1619  0.0405
22604SOL     OW79870   8.091   7.883   7.456 -0.3536 -0.7199  0.1609
22604SOL    HW179871   8.117   7.789   7.481  0.7727 -0.4062  0.2203
22604SOL    HW279872   8.118   7.900   7.361 -2.2559 -1.0606 -0.4544
22605SOL     OW79873   4.609   2.542   8.870  0.1496 -0.0091  0.5351
22605SOL    HW179874   4.543   2.483   8.917 -0.2915  1.1402  1.4018
22605SOL    HW279875   4.626   2.506   8.779 -1.3864 -0.5426  0.4329
22606SOL     OW79876   2.827   2.602   7.212 -0.2130 -0.4345  0.2694
22606SOL    HW179877   2.903   2.667   7.210 -0.2976 -0.3266  0.5471
22606SOL    HW279878   2.751   2.642   7.263 -1.2360  0.3363 -1.7954
22607SOL     OW79879   9.392   0.670   5.390  0.2535 -0.0128 -0.8382
22607SOL    HW179880   9.391   0.594   5.455  1.1511  0.7341  0.0823
22607SOL    HW279881   9.402   0.635   5.297 -0.9845 -1.0944 -0.5724
22608SOL     OW79882   4.224   9.304   0.614 -0.1925 -0.2543 -0.1630
22608SOL    HW179883   4.165   9.231   0.650 -1.3705  1.0328  0.5528
22608SOL    HW279884   4.180   9.346   0.535  0.6835 -0.5696 -0.8361
22609SOL     OW79885   0.875   8.574   6.258 -0.0081  0.2125  0.1372
22609SOL    HW179886   0.853   8.527   6.344  1.1216 -0.4154  0.1016
22609SOL    HW279887   0.816   8.654   6.247 -1.2015 -0.5721  0.7464
22610SOL     OW79888   5.236   5.112   7.884  0.0519 -0.2822 -0.4151
22610SOL    HW179889   5.171   5.060   7.827  1.1537 -2.7645  0.5009
22610SOL    HW279890   5.193   5.135   7.971  0.8926 -3.6444  1.0057
22611SOL     OW79891   1.473   0.720   8.962 -0.0842  0.2183 -0.4648
22611SOL    HW179892   1.499   0.813   8.986 -0.0069 -0.0108  0.3361
22611SOL    HW279893   1.506   0.657   9.031 -0.3388 -0.3814 -0.8875
22612SOL     OW79894   3.247   0.389   6.739 -0.2050 -0.0264  0.5844
22612SOL    HW179895   3.283   0.339   6.817  1.1768 -0.4129 -0.2874
22612SOL    HW279896   3.147   0.387   6.741 -0.1710 -0.8844  1.7755
22613SOL     OW79897   3.933   1.484   8.650 -0.3052  0.0290 -0.3872
22613SOL    HW179898   3.881   1.448   8.727 -1.2483 -0.8306 -1.4224
22613SOL    HW279899   3.910   1.580   8.636 -0.1849  0.1683  0.3504
22614SOL     OW79900   8.415   0.966   5.512 -0.4705 -0.2900 -0.0321
22614SOL    HW179901   8.469   1.032   5.461 -0.5090  0.9762  1.5134
22614SOL    HW279902   8.470   0.928   5.586 -1.4586  0.4930  1.1314
22615SOL     OW79903   9.557   0.725   6.870 -0.0229 -0.2810 -0.4244
22615SOL    HW179904   9.592   0.718   6.776 -0.3324 -0.3673 -0.5346
22615SOL    HW279905   9.594   0.806   6.914  0.5830 -0.5542 -0.4276
22616SOL     OW79906   4.718   0.531   1.142 -0.2881 -0.1793 -0.3279
22616SOL    HW179907   4.678   0.494   1.059 -2.3900 -1.0120  1.0227
22616SOL    HW279908   4.697   0.471   1.219  0.1816  1.4550  1.1025
22617SOL     OW79909   8.488   6.886   7.450 -0.2805  0.2290  0.2831
22617SOL    HW179910   8.487   6.979   7.413 -0.3436  0.2552  0.3513
22617SOL    HW279911   8.559   6.833   7.404 -1.1321 -0.0727 -0.7059
22618SOL     OW79912   3.686   9.358   6.121 -0.3993 -0.0014  0.7020
22618SOL    HW179913   3.725   9.433   6.174 -0.1496 -0.0156  0.5411
22618SOL    HW279914   3.661   9.283   6.182  2.6743 -1.2386  0.5212
22619SOL     OW79915   2.949   7.886   0.157  0.6854 -0.6700  0.0532
22619SOL    HW179916   2.973   7.976   0.194  0.2255 -0.8058  0.6822
22619SOL    HW279917   2.885   7.896   0.081  0.6359 -0.4664  0.1231
22620SOL     OW79918   9.974   9.449   1.569 -0.5929 -0.4593 -0.0896
22620SOL    HW179919   9.887   9.488   1.539 -0.8891 -0.3312  0.9056
22620SOL    HW279920   9.994   9.367   1.515 -1.1516 -0.2862 -0.5680
22621SOL     OW79921   4.820   4.123   9.394  0.5204  0.0183 -0.5728
22621SOL    HW179922   4.911   4.161   9.376  1.3873 -2.6912 -2.1835
22621SOL    HW279923   4.790   4.070   9.315 -1.6176 -0.7672  0.7275
22622SOL     OW79924   0.828   3.753   1.121 -0.2430  0.5139  0.2081
22622SOL    HW179925   0.893   3.809   1.171  0.0901 -1.0058  1.5303
22622SOL    HW279926   0.876   3.676   1.078 -1.0005 -0.0217  0.3075
22623SOL     OW79927   9.077   7.993   7.009  0.3776  0.2409  0.2150
22623SOL    HW179928   9.158   8.050   6.997  0.4257  0.0377 -0.4531
22623SOL    HW279929   9.031   7.981   6.921  0.6503 -1.1703  0.2374
22624SOL     OW79930   2.504   9.092   8.649 -0.3184  0.2094 -0.1887
22624SOL    HW179931   2.551   9.101   8.561  1.4382  0.1674  0.7411
22624SOL    HW279932   2.515   8.999   8.684 -1.0180  0.2253  0.0810
22625SOL     OW79933   3.317   1.322   1.087 -0.1227 -0.3750 -0.3619
22625SOL    HW179934   3.366   1.274   1.014 -1.0422 -0.8308 -0.6781
22625SOL    HW279935   3.225   1.285   1.096 -0.6175  0.8741 -0.1567
22626SOL     OW79936   5.180   7.921   6.434 -0.3911 -0.4469 -0.0915
22626SOL    HW179937   5.250   7.867   6.482  0.1377  1.0749  0.9079
22626SOL    HW279938   5.217   7.953   6.347 -0.2967 -0.7148 -0.1512
22627SOL     OW79939   0.796   4.097   3.619 -0.3669  0.4169  0.1635
22627SOL    HW179940   0.836   4.089   3.527 -2.8439 -0.5423 -0.8626
22627SOL    HW279941   0.848   4.165   3.671  0.8025  1.3264 -2.0812
22628SOL     OW79942   1.039   7.431   1.416  0.0320  0.2232 -0.4915
22628SOL    HW179943   1.086   7.461   1.333  1.0132  0.5732  0.1718
22628SOL    HW279944   0.964   7.494   1.436  1.4486  1.7026  0.3260
22629SOL     OW79945   4.469   5.932   3.697 -0.4471 -0.2620  0.0582
22629SOL    HW179946   4.427   5.841   3.690 -0.2651 -0.5139  1.8726
22629SOL    HW279947   4.567   5.925   3.677 -0.6057 -0.3115 -0.6885
22630SOL     OW79948   9.430   3.593   0.809 -0.8002  0.4965 -0.4330
22630SOL    HW179949   9.356   3.531   0.783 -0.4714  0.1207 -0.4783
22630SOL    HW279950   9.420   3.618   0.905  0.1355 -1.1501  0.1145
22631SOL     OW79951   0.308   7.419   5.518 -0.3103 -0.2163 -0.0499
22631SOL    HW179952   0.396   7.372   5.512  0.6390  1.7203 -1.5540
22631SOL    HW279953   0.323   7.517   5.529 -2.2635  0.2806 -1.5707
22632SOL     OW79954   0.131   7.316   1.304 -0.1105 -0.4162 -0.2554
22632SOL    HW179955   0.066   7.265   1.360  1.2628 -0.7409  1.0801
22632SOL    HW279956   0.129   7.413   1.330  0.6000 -0.5835  0.4422
22633SOL     OW79957   1.629   8.527   2.394  0.3416 -0.3444  0.1884
22633SOL    HW179958   1.575   8.548   2.476 -0.2687 -0.7739 -0.0975
22633SOL    HW279959   1.571   8.478   2.328  0.2248  1.8230 -1.3584
22634SOL     OW79960   9.085   1.087   1.624 -0.0765 -0.1714  0.1348
22634SOL    HW179961   9.069   1.179   1.589  0.9519 -0.6202 -1.5606
22634SOL    HW279962   9.171   1.052   1.587 -1.4873 -2.6080 -0.9473
22635SOL     OW79963   6.718   6.301   2.213 -0.3461  0.2120 -0.2951
22635SOL    HW179964   6.771   6.238   2.271 -0.6762 -0.7340 -1.0022
22635SOL    HW279965   6.649   6.348   2.268 -1.1776 -1.2561 -0.0652
22636SOL     OW79966   1.998   9.039   6.295  0.5426  0.0929  0.3270
22636SOL    HW179967   2.011   8.960   6.235  0.9182  0.0149  0.5079
22636SOL    HW279968   2.070   9.041   6.364 -0.1156 -0.0498  1.0317
22637SOL     OW79969   1.840   9.269   8.282  0.1860 -0.4397  0.0198
22637SOL    HW179970   1.884   9.356   8.263  1.1318 -0.7428  0.8136
22637SOL    HW279971   1.902   9.194   8.260  0.4258 -0.8449  1.9616
22638SOL     OW79972   2.128   0.892   8.861 -0.2125 -0.0882  0.0709
22638SOL    HW179973   2.078   0.964   8.813 -0.1460  0.0143  0.1533
22638SOL    HW279974   2.110   0.898   8.959  0.6796  0.5249  0.2055
22639SOL     OW79975   7.301   8.701   8.688 -0.4436 -0.0348 -0.2900
22639SOL    HW179976   7.217   8.671   8.643 -0.9000  1.3555 -0.3748
22639SOL    HW279977   7.280   8.766   8.761  0.5899  0.8188 -0.7291
22640SOL     OW79978   2.790   7.898   1.738  0.1348 -0.0603 -0.2644
22640SOL    HW179979   2.809   7.933   1.646 -2.0047 -0.6399 -0.9727
22640SOL    HW279980   2.875   7.870   1.782  1.3437  1.5815 -1.5058
22641SOL     OW79981   2.289   0.810   3.629  0.5776  0.0491  0.2951
22641SOL    HW179982   2.190   0.824   3.632  0.4194 -0.8195 -0.7284
22641SOL    HW279983   2.328   0.860   3.551  1.0500  1.0061  1.1377
22642SOL     OW79984   8.264   6.040   3.213 -0.2298  0.1453 -0.0512
22642SOL    HW179985   8.222   5.961   3.257 -0.6766 -0.4211 -1.4725
22642SOL    HW279986   8.363   6.039   3.229 -0.4641  0.2681  1.4236
22643SOL     OW79987   7.726   9.277   3.112 -0.4816 -0.2790  0.1760
22643SOL    HW179988   7.766   9.302   3.024 -1.9525  1.4693 -0.0143
22643SOL    HW279989   7.687   9.186   3.106 -1.9944  0.4512 -1.4696
22644SOL     OW79990   1.300   3.873   4.302 -0.3093 -0.2397 -0.6923
22644SOL    HW179991   1.313   3.775   4.317  3.3195  0.2473 -0.0839
22644SOL    HW279992   1.354   3.924   4.369 -2.0989  2.1963 -1.0377
22645SOL     OW79993   1.093   5.614   6.794  0.2648  0.2992 -0.4771
22645SOL    HW179994   1.012   5.590   6.740  0.5811 -0.0873 -0.7924
22645SOL    HW279995   1.080   5.702   6.838 -0.3082  0.2584 -0.5687
22646SOL     OW79996   5.163   6.713   3.692 -0.2626  0.7263  0.7097
22646SOL    HW179997   5.127   6.728   3.600  3.3680  1.2711 -0.6962
22646SOL    HW279998   5.114   6.636   3.734  0.4002 -1.8881 -3.0697
22647SOL     OW79999   2.351   0.800   8.712  0.2215  0.0414 -0.0300
22647SOL    HW180000   2.325   0.714   8.667  1.9887 -2.0680  2.8175
22647SOL    HW280001   2.273   0.834   8.766 -0.9819  1.1067 -2.3475
22648SOL     OW80002   4.985   3.204   1.214  0.0007  0.0081 -0.4136
22648SOL    HW180003   4.944   3.171   1.129 -0.7328  1.5739 -0.7017
22648SOL    HW280004   5.051   3.137   1.248 -2.8344 -2.6377  0.1131
22649SOL     OW80005   2.963   0.648   7.363  0.1611  0.6214  0.0709
22649SOL    HW180006   2.917   0.735   7.380  0.0849  1.0042 -1.8982
22649SOL    HW280007   3.027   0.659   7.287 -0.2917 -1.1806 -0.5941
22650SOL     OW80008   0.551   5.382   3.683  0.3868 -0.2257  0.3438
22650SOL    HW180009   0.561   5.421   3.592  0.5949 -0.9486  0.0530
22650SOL    HW280010   0.546   5.455   3.751 -0.6162  0.3373 -0.3304
22651SOL     OW80011   8.226   9.916   4.599  0.2890 -0.6286  0.2721
22651SOL    HW180012   8.225   9.819   4.577 -2.6419 -0.6910  0.4851
22651SOL    HW280013   8.142   9.959   4.565  0.1892  1.2260  2.7340
22652SOL     OW80014   1.720   8.106   3.455 -0.0563  0.0795 -0.6391
22652SOL    HW180015   1.640   8.164   3.435  0.2685  0.4708 -0.8046
22652SOL    HW280016   1.778   8.152   3.522  2.1883  1.7159 -3.6078
22653SOL     OW80017   3.312   0.753   6.377 -0.2998 -0.0083  0.0441
22653SOL    HW180018   3.325   0.659   6.406 -1.4761 -0.0918  0.3464
22653SOL    HW280019   3.293   0.810   6.456 -1.4534  0.1386 -0.3276
22654SOL     OW80020   8.116   6.051   7.289  0.3566  0.6299 -0.2702
22654SOL    HW180021   8.205   6.010   7.271 -0.5381 -1.8596  0.7349
22654SOL    HW280022   8.044   5.991   7.256 -0.9910  1.9362  0.2090
22655SOL     OW80023   1.672   6.201   2.779 -0.4519  0.6824  0.1389
22655SOL    HW180024   1.628   6.203   2.868 -0.3894  1.0726  0.1656
22655SOL    HW280025   1.718   6.113   2.765 -2.9545 -0.5353 -0.7320
22656SOL     OW80026   1.939   4.863   0.930 -0.4853 -0.3108 -0.1435
22656SOL    HW180027   1.897   4.835   0.844  1.9983 -1.2258 -1.1290
22656SOL    HW280028   1.966   4.959   0.924 -1.4665 -0.0133  0.1113
22657SOL     OW80029   8.151   8.059   9.098 -0.5068 -0.5664  0.6055
22657SOL    HW180030   8.115   7.996   9.030 -0.4182  0.2165 -0.1733
22657SOL    HW280031   8.087   8.065   9.175 -1.5714  0.0644 -0.3173
22658SOL     OW80032   0.481   6.893   8.600  0.3414 -0.2754 -0.3403
22658SOL    HW180033   0.420   6.959   8.645  1.1962  0.0249  0.3884
22658SOL    HW280034   0.441   6.802   8.605 -0.7238  0.1332 -1.1154
22659SOL     OW80035   2.130   6.055   9.309  0.2978 -0.8832  0.5622
22659SOL    HW180036   2.115   6.152   9.290 -1.3109 -1.2014  0.1689
22659SOL    HW280037   2.206   6.046   9.374  1.0116  0.5864 -0.0394
22660SOL     OW80038   9.661   2.781   3.353 -0.4541  0.0752 -0.4072
22660SOL    HW180039   9.564   2.776   3.378 -0.0435 -0.6241  1.1300
22660SOL    HW280040   9.699   2.868   3.385 -0.8271  0.8274 -1.9819
22661SOL     OW80041   8.108   0.849   7.024 -0.0781 -0.4113 -0.1813
22661SOL    HW180042   8.153   0.870   6.938 -0.1519 -0.9971 -0.3653
22661SOL    HW280043   8.013   0.882   7.021 -0.2808 -1.0344 -0.5787
22662SOL     OW80044   8.034   1.888   2.401  0.1047 -0.0473  0.0624
22662SOL    HW180045   8.046   1.980   2.438  0.7849 -0.2938  0.4669
22662SOL    HW280046   8.031   1.823   2.477 -0.1769 -0.3791 -0.2345
22663SOL     OW80047   1.959   0.599   3.830 -0.0962  0.1988 -0.4120
22663SOL    HW180048   1.995   0.544   3.755 -2.0997  0.5936 -1.6752
22663SOL    HW280049   1.948   0.694   3.801  1.3934  0.8849  1.1348
22664SOL     OW80050   1.465   5.542   4.455 -0.3310  0.4244  0.1065
22664SOL    HW180051   1.436   5.620   4.400 -2.4049 -2.3425 -2.9021
22664SOL    HW280052   1.411   5.539   4.539 -0.5681  1.9208  0.0257
22665SOL     OW80053   3.800   9.479   2.867  0.4155 -0.7409  0.1606
22665SOL    HW180054   3.724   9.542   2.853  1.1268  0.0449 -0.1652
22665SOL    HW280055   3.769   9.385   2.850 -0.8570 -0.5784  1.4363
22666SOL     OW80056   1.961   3.912   1.726  0.4304 -0.7997 -0.2031
22666SOL    HW180057   2.024   3.900   1.649  1.1613 -0.2746  0.3054
22666SOL    HW280058   1.889   3.976   1.700 -0.6231 -2.3398 -1.2119
22667SOL     OW80059   8.588   9.794   9.128  0.3075  0.3394 -0.7656
22667SOL    HW180060   8.670   9.830   9.083  2.0040 -1.7255  0.5840
22667SOL    HW280061   8.548   9.865   9.186  2.5959  0.6399  0.5143
22668SOL     OW80062   4.390   7.278   2.664  0.0275 -0.2707  0.4094
22668SOL    HW180063   4.418   7.187   2.634  0.2981 -0.2707  0.6536
22668SOL    HW280064   4.469   7.326   2.704 -0.2742 -0.1955  0.9206
22669SOL     OW80065   1.497   8.438   7.236  0.4135  0.2376  0.4392
22669SOL    HW180066   1.488   8.338   7.230 -0.1648  0.3641 -1.3006
22669SOL    HW280067   1.511   8.465   7.331 -1.7408 -1.3264  1.2338
22670SOL     OW80068   2.137   3.814   7.742 -0.3856 -0.8342 -0.4600
22670SOL    HW180069   2.063   3.879   7.724  1.3446  1.2995 -0.1046
22670SOL    HW280070   2.160   3.816   7.839 -0.8168 -2.5529 -0.3139
22671SOL     OW80071   5.105   8.685   8.983  0.0350  0.7478  0.0421
22671SOL    HW180072   5.028   8.652   8.930 -0.7130  0.7747  1.1049
22671SOL    HW280073   5.190   8.667   8.933 -0.4729 -1.3654 -0.0950
22672SOL     OW80074   0.899   3.090   8.781  0.2858 -0.7609  0.2187
22672SOL    HW180075   0.912   3.029   8.703 -0.9971  0.4944 -0.9909
22672SOL    HW280076   0.816   3.143   8.769 -0.3429 -1.0715  2.8045
22673SOL     OW80077   0.703   9.099   2.637  0.3121  0.4704  0.1143
22673SOL    HW180078   0.763   9.140   2.569 -0.9166 -0.4348 -1.5625
22673SOL    HW280079   0.715   9.145   2.725  3.0425  0.6424 -0.3041
22674SOL     OW80080   1.501   2.749   4.141 -0.2657 -0.0366 -0.1661
22674SOL    HW180081   1.594   2.781   4.153 -0.3436 -0.3984  1.5768
22674SOL    HW280082   1.484   2.672   4.203 -2.7041  2.1430  2.0309
22675SOL     OW80083   2.212   8.787   7.865 -0.1844 -0.6649 -0.3467
22675SOL    HW180084   2.213   8.735   7.950 -0.1845  0.4246  0.3317
22675SOL    HW280085   2.305   8.810   7.839 -0.2799  0.5106  0.3105
22676SOL     OW80086   2.111   7.588   6.752 -0.2628  0.2291 -0.2471
22676SOL    HW180087   2.103   7.561   6.657 -0.2473 -0.5581 -0.0312
22676SOL    HW280088   2.192   7.645   6.764 -0.6037  0.8474 -0.8093
22677SOL     OW80089   5.115   5.438   2.073 -0.1861  0.2960  0.3715
22677SOL    HW180090   5.118   5.496   1.992 -0.5705  0.4023  0.4319
22677SOL    HW280091   5.207   5.404   2.093 -0.4328 -1.4660 -1.3522
22678SOL     OW80092   5.170   3.381   8.475 -0.3080  0.6766 -0.6586
22678SOL    HW180093   5.257   3.429   8.479  0.4775 -0.7918  0.6748
22678SOL    HW280094   5.123   3.402   8.389  1.8884  0.5605 -1.9076
22679SOL     OW80095   0.966   1.905   7.742 -0.1186 -0.2879  0.0872
22679SOL    HW180096   0.921   1.888   7.655 -1.1983 -0.2732  0.6414
22679SOL    HW280097   0.952   2.001   7.769 -0.6443 -0.5540  0.7679
22680SOL     OW80098   1.600   0.166   4.504 -0.1299 -0.5725  0.8235
22680SOL    HW180099   1.520   0.219   4.475  0.2852 -0.2658  0.2422
22680SOL    HW280100   1.602   0.080   4.453  1.7877  0.8930 -1.6684
22681SOL     OW80101   3.810   7.559   3.711 -0.7037 -0.6539  0.5549
22681SOL    HW180102   3.837   7.655   3.717 -0.0231 -0.8095 -0.0339
22681SOL    HW280103   3.798   7.533   3.615  2.8078 -2.1792  0.4877
22682SOL     OW80104   1.041   2.888   2.339 -0.0853  0.4268 -0.6197
22682SOL    HW180105   0.948   2.916   2.363  0.7454  1.2538  1.7933
22682SOL    HW280106   1.107   2.955   2.373  1.5917 -1.7303  0.5461
22683SOL     OW80107   1.506   9.116   4.320 -0.0418 -0.7066 -0.1208
22683SOL    HW180108   1.538   9.106   4.226 -2.4501 -3.4118 -0.7132
22683SOL    HW280109   1.535   9.036   4.373 -0.6521 -0.2895  0.8501
22684SOL     OW80110   6.694   0.261   5.756  0.2112  0.0577  0.1269
22684SOL    HW180111   6.628   0.305   5.695  1.3810 -1.6028 -2.4046
22684SOL    HW280112   6.661   0.169   5.779  1.1920 -0.4455 -0.4400
22685SOL     OW80113   9.551   7.532   4.832  0.2525  0.2873 -0.3162
22685SOL    HW180114   9.594   7.588   4.762 -1.4954  0.3831 -1.3576
22685SOL    HW280115   9.502   7.591   4.897  1.9861  0.2079  1.0913
22686SOL     OW80116   6.299   5.469   0.552 -0.2713 -0.4376  0.3905
22686SOL    HW180117   6.355   5.551   0.544 -0.2225 -0.3208  1.8674
22686SOL    HW280118   6.347   5.392   0.509 -0.7189  0.4783 -1.7919
22687SOL     OW80119   5.984   0.136   6.564  0.6206  0.9517  0.0243
22687SOL    HW180120   5.925   0.212   6.535  1.2864  1.2524 -0.5527
22687SOL    HW280121   6.061   0.172   6.617  0.9513  0.6810 -0.2685
22688SOL     OW80122   0.836   7.907   4.770  0.0061  0.0414 -0.3004
22688SOL    HW180123   0.741   7.888   4.797 -0.4094  1.5224 -0.6523
22688SOL    HW280124   0.892   7.923   4.851  0.2502 -2.0403 -0.0219
22689SOL     OW80125   5.298   7.516   5.726  0.2417  0.3226 -0.0303
22689SOL    HW180126   5.341   7.445   5.670  0.1193  0.1630  0.0763
22689SOL    HW280127   5.258   7.474   5.808 -0.2810  0.4450 -0.2220
22690SOL     OW80128   2.085   1.558   0.813  0.6277  0.9694  1.0172
22690SOL    HW180129   2.053   1.653   0.818 -1.8676  0.3393 -1.3266
22690SOL    HW280130   2.055   1.518   0.726  3.3043 -1.3962  1.1228
22691SOL     OW80131   7.478   4.648   1.060  0.2304  0.1513  0.3256
22691SOL    HW180132   7.530   4.652   1.145 -0.7651 -0.5783  0.9749
22691SOL    HW280133   7.442   4.739   1.038  0.1219  0.2510  0.9201
22692SOL     OW80134   1.273   9.962   4.358 -0.5779  0.0217 -0.1700
22692SOL    HW180135   1.193   9.951   4.417 -0.2683 -0.6153  0.1442
22692SOL    HW280136   1.289  10.059   4.340 -1.0593  0.1842  0.2600
22693SOL     OW80137   0.197   0.727   0.253  0.2762 -0.0017 -0.2680
22693SOL    HW180138   0.130   0.658   0.225 -1.8932  1.1707  1.8940
22693SOL    HW280139   0.259   0.688   0.321 -2.6727  0.8603  3.0448
22694SOL     OW80140   9.544   0.639   8.876  0.3481 -0.0508 -0.1699
22694SOL    HW180141   9.590   0.702   8.814  0.1452  1.0939  0.8217
22694SOL    HW280142   9.522   0.686   8.961 -0.1274 -1.3690  0.4530
22695SOL     OW80143   7.203   2.052   1.251  0.3200 -0.5630  0.2518
22695SOL    HW180144   7.211   2.141   1.206 -0.4479 -0.7567 -0.2773
22695SOL    HW280145   7.132   1.998   1.206  0.9736 -1.5517  0.3991
22696SOL     OW80146   1.841   0.108   7.300 -0.4173  0.1211 -0.2805
22696SOL    HW180147   1.858   0.132   7.396  1.2218 -0.8121 -0.3159
22696SOL    HW280148   1.858   0.187   7.242 -2.0469  0.8775  0.2381
22697SOL     OW80149   3.675   9.916   6.054 -0.4883  0.0522 -0.2174
22697SOL    HW180150   3.672   9.914   5.954  0.2242 -0.2559 -0.2390
22697SOL    HW280151   3.636   9.832   6.091  1.6781 -1.0503 -0.3200
22698SOL     OW80152   2.235   4.399   9.110 -0.5238  0.0956  0.2316
22698SOL    HW180153   2.172   4.474   9.090 -0.2272  0.1271 -0.6118
22698SOL    HW280154   2.272   4.362   9.024 -0.7966 -1.1266  0.6268
22699SOL     OW80155   1.013   7.987   2.753 -0.1598 -0.1789 -0.0291
22699SOL    HW180156   0.959   7.996   2.837  1.1121 -2.3455  1.0690
22699SOL    HW280157   0.973   7.914   2.697 -2.0329  2.3916 -2.1795
22700SOL     OW80158   1.588   6.036   9.654 -0.3900 -0.1176  0.1492
22700SOL    HW180159   1.671   6.078   9.616 -0.2887 -1.7686 -1.5432
22700SOL    HW280160   1.607   6.000   9.745  0.5114  0.3381  0.1417
22701SOL     OW80161   4.170   0.642  10.062  0.2268  0.2922  0.7227
22701SOL    HW180162   4.234   0.683   9.998 -0.3096 -0.0241 -0.0257
22701SOL    HW280163   4.143   0.551  10.029 -0.6315  0.4370  0.9980
22702SOL     OW80164   6.985   4.810   7.702 -0.8049 -0.4319 -0.2278
22702SOL    HW180165   6.979   4.847   7.795 -0.4648 -1.2372  0.1262
22702SOL    HW280166   6.898   4.769   7.676 -0.0699 -2.8031  0.8758
22703SOL     OW80167   4.909   3.705   0.484  0.0083 -0.0671  0.0475
22703SOL    HW180168   5.001   3.738   0.506  0.4968 -2.0046  1.0870
22703SOL    HW280169   4.915   3.637   0.411 -1.1129  2.9595 -2.9639
22704SOL     OW80170   0.996   9.395   6.649  0.3611 -0.3863 -0.4880
22704SOL    HW180171   0.910   9.366   6.608 -0.1337  0.2511  0.0890
22704SOL    HW280172   1.042   9.460   6.588  0.5800 -0.9457 -0.9266
22705SOL     OW80173   1.916   5.643   9.904 -0.2334  0.3809  0.2207
22705SOL    HW180174   1.880   5.581   9.834 -1.5656  2.0146 -0.5745
22705SOL    HW280175   2.008   5.673   9.877 -0.4798  0.5020 -0.5045
22706SOL     OW80176   9.654   9.497   8.607 -0.6099  0.3475 -0.2477
22706SOL    HW180177   9.725   9.536   8.666 -1.1916 -0.4526  1.0175
22706SOL    HW280178   9.601   9.570   8.565 -2.6858  1.0128  3.3146
22707SOL     OW80179   1.494   8.164   7.205 -0.4888 -0.4068 -0.1076
22707SOL    HW180180   1.544   8.105   7.141 -0.5945  1.2127 -1.7337
22707SOL    HW280181   1.532   8.154   7.297  1.0791 -1.1736 -0.8294
22708SOL     OW80182   2.934   1.070   6.667  0.1836 -0.1879 -0.0701
22708SOL    HW180183   2.885   1.094   6.584  1.1798  0.3588 -0.5098
22708SOL    HW280184   2.912   1.136   6.739  1.4606  0.9895 -0.7267
22709SOL     OW80185   1.458   1.799   4.825  0.2516 -0.1003 -0.0251
22709SOL    HW180186   1.485   1.824   4.918 -1.9896  1.5699  0.2313
22709SOL    HW280187   1.425   1.704   4.825  1.4313 -0.5181  0.6308
22710SOL     OW80188   0.183   2.311   1.470 -0.0837 -0.1714 -0.0486
22710SOL    HW180189   0.166   2.323   1.372 -3.4088  0.9605  0.6010
22710SOL    HW280190   0.142   2.225   1.500  0.4247 -0.2320  0.4736
22711SOL     OW80191   6.847   0.495   7.141  0.2569 -0.2807 -0.4916
22711SOL    HW180192   6.829   0.588   7.174  0.2132  0.0483 -1.4426
22711SOL    HW280193   6.763   0.456   7.104  0.1549 -0.8900  0.3475
22712SOL     OW80194   0.189   6.076   8.803  0.1666 -0.0240 -0.7437
22712SOL    HW180195   0.097   6.102   8.774 -0.8033  0.1136  2.1900
22712SOL    HW280196   0.233   6.154   8.849  1.8616 -0.0207 -2.3007
22713SOL     OW80197   4.191   9.729   5.729  0.0734  0.5397  0.2166
22713SOL    HW180198   4.252   9.674   5.786 -1.6971  0.8225  2.4622
22713SOL    HW280199   4.225   9.824   5.727  0.7279  0.3023 -0.0875
22714SOL     OW80200   6.867   5.034   1.705 -0.5336  0.5441 -0.1624
22714SOL    HW180201   6.824   5.003   1.790 -1.0572  0.4620 -0.4545
22714SOL    HW280202   6.835   5.126   1.683 -0.6238  0.4516 -0.4233
22715SOL     OW80203   8.893   1.568   5.336 -0.1861  0.0896 -0.4508
22715SOL    HW180204   8.966   1.516   5.292  0.0361 -0.2993  0.3752
22715SOL    HW280205   8.876   1.531   5.428 -0.7065  0.8442 -0.2397
22716SOL     OW80206   4.566   4.734   4.818  0.3008  0.2251 -0.5643
22716SOL    HW180207   4.479   4.735   4.868  1.2539  1.9083  1.1224
22716SOL    HW280208   4.627   4.667   4.858  0.1574 -0.2184 -1.0857
22717SOL     OW80209   8.940   7.374   5.447 -0.3103  0.1200 -0.3690
22717SOL    HW180210   9.038   7.353   5.439 -0.7170 -1.5266 -1.2684
22717SOL    HW280211   8.923   7.467   5.414  1.1887  1.0452  1.3846
22718SOL     OW80212   2.470   5.783   1.990  0.5779 -0.2174  0.6550
22718SOL    HW180213   2.429   5.839   1.917  0.7308  0.8241  1.3470
22718SOL    HW280214   2.478   5.838   2.073 -0.5087 -1.7025  1.7583
22719SOL     OW80215   0.500   5.913   8.154 -0.0462  0.1434  0.5617
22719SOL    HW180216   0.477   5.963   8.070 -0.1955  0.7747  0.9764
22719SOL    HW280217   0.417   5.888   8.202 -0.0056 -1.3023 -0.0967
22720SOL     OW80218   0.711   6.314   6.822  0.3329 -0.2056 -0.2183
22720SOL    HW180219   0.626   6.331   6.872  0.7702 -0.3787  0.5780
22720SOL    HW280220   0.789   6.338   6.878  0.9079 -2.6887  0.1114
22721SOL     OW80221   0.985   9.362   6.964 -0.2143 -0.1324  0.2360
22721SOL    HW180222   0.994   9.265   6.940  0.6273 -0.2543  1.0432
22721SOL    HW280223   1.029   9.418   6.894 -1.1366 -0.3046 -0.4896
22722SOL     OW80224   6.335   9.882   9.064 -0.0762 -0.0742 -0.3598
22722SOL    HW180225   6.314   9.823   9.143 -0.0050  1.1659  0.5987
22722SOL    HW280226   6.427   9.919   9.075 -2.1267  4.7330  1.9570
22723SOL     OW80227   2.392   0.186   5.613 -0.4177  0.1773 -0.1406
22723SOL    HW180228   2.455   0.114   5.583  1.0848  2.1213 -1.8371
22723SOL    HW280229   2.445   0.265   5.643 -2.0483  0.9397  0.7552
22724SOL     OW80230   9.711   0.552   5.553  0.6818 -0.0905 -0.3892
22724SOL    HW180231   9.632   0.505   5.514  0.6382  0.5107 -1.0480
22724SOL    HW280232   9.710   0.542   5.652  1.0149 -1.9762 -0.5551
22725SOL     OW80233   8.467   4.259   9.359 -0.1692  0.0063 -0.1628
22725SOL    HW180234   8.419   4.173   9.380  0.1518 -0.1607 -0.1087
22725SOL    HW280235   8.402   4.335   9.361 -0.6089 -0.3336 -0.9738
22726SOL     OW80236   2.519   3.778   1.704 -0.1810 -0.4209 -0.1354
22726SOL    HW180237   2.594   3.796   1.641 -2.2429 -0.6586 -2.7165
22726SOL    HW280238   2.447   3.846   1.691 -0.2603  0.1291  2.6840
22727SOL     OW80239   8.118   9.019   6.444  1.2792 -0.5734  0.1813
22727SOL    HW180240   8.104   8.977   6.534 -0.5335 -1.7071 -0.5930
22727SOL    HW280241   8.125   9.118   6.454  2.0336 -0.7663  1.6724
22728SOL     OW80242   8.873   6.471   7.985 -0.0889 -0.5791 -0.0351
22728SOL    HW180243   8.815   6.389   7.989 -1.1339  0.0001 -2.3240
22728SOL    HW280244   8.898   6.489   7.890  1.5122  0.8264  0.6390
22729SOL     OW80245   8.673   7.960   8.302  0.2930  0.0412 -0.4777
22729SOL    HW180246   8.588   7.992   8.344  0.5691 -2.0157  1.7666
22729SOL    HW280247   8.655   7.877   8.249  0.9020 -0.4802  0.1182
22730SOL     OW80248   0.183   5.424   7.065  0.0723 -0.0088  0.1335
22730SOL    HW180249   0.151   5.503   7.012  0.8459  1.0053  1.1549
22730SOL    HW280250   0.172   5.443   7.162 -1.3880 -1.8851  0.3506
22731SOL     OW80251   0.202   9.196   7.739  0.5291  0.4503 -0.2856
22731SOL    HW180252   0.189   9.233   7.648 -0.4399 -1.6583 -1.0404
22731SOL    HW280253   0.227   9.269   7.802  1.3295  1.9005 -2.2584
22732SOL     OW80254   2.567   6.265   8.883  0.2591  0.2673 -0.1826
22732SOL    HW180255   2.565   6.192   8.952 -1.4211  0.3841 -0.0952
22732SOL    HW280256   2.621   6.234   8.804  0.7714 -0.5154  0.4647
22733SOL     OW80257   9.877   6.280   4.927  0.1667 -0.2399  0.2502
22733SOL    HW180258   9.976   6.292   4.929  0.3839 -0.9950 -3.2588
22733SOL    HW280259   9.850   6.218   5.000  2.3008 -0.3153  1.0161
22734SOL     OW80260   9.340   8.886   4.322 -0.4291 -0.3149  0.5779
22734SOL    HW180261   9.284   8.830   4.384 -0.7373  0.6160  1.1426
22734SOL    HW280262   9.430   8.844   4.313 -0.2062 -0.1783  2.0680
22735SOL     OW80263   8.229   4.393  10.020 -0.7419 -0.1800 -0.0676
22735SOL    HW180264   8.317   4.426  10.054 -1.8499  0.2492  2.5075
22735SOL    HW280265   8.217   4.421   9.925  1.9263 -0.3139 -0.4744
22736SOL     OW80266   3.924   2.825   6.357  0.3133 -0.6973  0.4592
22736SOL    HW180267   3.827   2.815   6.337 -0.0474  2.3398  0.4633
22736SOL    HW280268   3.975   2.839   6.272  0.6368 -1.4626  0.5252
22737SOL     OW80269   2.783   4.326   8.001  1.2029  0.4216 -0.3511
22737SOL    HW180270   2.734   4.413   8.003  1.0184  0.3135 -0.2076
22737SOL    HW280271   2.771   4.282   7.912  0.8058  0.2580 -0.2148
22738SOL     OW80272   0.671   6.754   6.773 -0.0217 -0.3267 -0.4681
22738SOL    HW180273   0.696   6.715   6.862  0.2084 -0.0266 -0.3998
22738SOL    HW280274   0.707   6.847   6.767 -0.6273 -0.0977 -0.5992
22739SOL     OW80275   9.008   9.220   9.460  0.4072  0.4226  0.3979
22739SOL    HW180276   8.966   9.268   9.383 -0.3005 -3.1224 -1.5675
22739SOL    HW280277   8.940   9.205   9.532 -0.1027  0.0355 -0.1547
22740SOL     OW80278   0.107   6.051   9.145 -0.1201  0.1358 -0.3288
22740SOL    HW180279   0.176   6.000   9.092  1.0851  1.3925  0.0206
22740SOL    HW280280   0.123   6.036   9.243 -0.3263  0.4639 -0.2469
22741SOL     OW80281   4.897   9.766   6.892 -0.3784 -0.0595 -0.1531
22741SOL    HW180282   4.896   9.669   6.916 -0.1711 -0.2622 -0.9411
22741SOL    HW280283   4.991   9.794   6.873 -0.3207  0.5222  0.9666
22742SOL     OW80284   7.893   9.880   8.424 -0.1071 -0.0925 -0.5232
22742SOL    HW180285   7.925   9.809   8.486 -0.6318  1.8360  2.0266
22742SOL    HW280286   7.968   9.908   8.363  1.1268 -0.3156  0.8668
22743SOL     OW80287   6.295   0.444   1.299 -0.4571 -0.0856  0.3538
22743SOL    HW180288   6.344   0.527   1.325  0.0782 -0.5630  0.8795
22743SOL    HW280289   6.360   0.371   1.280 -0.8378  0.2018 -2.2107
22744SOL     OW80290   9.987   0.497   8.016 -0.5332 -0.0734 -0.3325
22744SOL    HW180291  10.075   0.488   7.969 -0.5580 -0.5466 -0.2971
22744SOL    HW280292   9.932   0.569   7.973  0.4006  1.1310  0.4715
22745SOL     OW80293   0.003   6.683   0.979  0.4803 -0.2843  0.1591
22745SOL    HW180294   0.087   6.726   0.946  1.5109 -1.3331  1.3449
22745SOL    HW280295   0.025   6.618   1.052 -1.3010 -1.0299  0.0687
22746SOL     OW80296   4.318   5.689   2.321 -0.4786  0.2614 -0.6660
22746SOL    HW180297   4.388   5.705   2.390  0.2604  1.1130 -1.5989
22746SOL    HW280298   4.230   5.721   2.355 -0.6314 -1.6846  0.8915
22747SOL     OW80299   4.484   9.996   9.865 -0.3927  0.1049  0.2372
22747SOL    HW180300   4.448   9.936   9.794  0.3609 -0.7864  0.6038
22747SOL    HW280301   4.463   9.957   9.955  0.6981  0.0326  0.4664
22748SOL     OW80302   2.826   8.470   9.690 -0.2161  0.1053 -0.0805
22748SOL    HW180303   2.807   8.377   9.723 -1.0710  0.0331 -0.7536
22748SOL    HW280304   2.748   8.529   9.709 -1.1694 -0.1780 -2.8124
22749SOL     OW80305   9.889   1.624   4.024 -0.1845 -0.4648 -0.2422
22749SOL    HW180306   9.899   1.700   3.960 -0.8581  0.1922  0.4229
22749SOL    HW280307   9.971   1.619   4.082 -0.3131  0.0012 -0.0212
22750SOL     OW80308   9.364   9.471   9.521 -0.0896 -0.5166 -0.2673
22750SOL    HW180309   9.398   9.563   9.499  1.4648 -0.6339  1.5773
22750SOL    HW280310   9.264   9.470   9.510 -0.0562  1.1920 -0.9771
22751SOL     OW80311   1.617   6.126   8.089 -0.1257  0.2157  0.5277
22751SOL    HW180312   1.595   6.221   8.063  0.0259  0.5087  1.4802
22751SOL    HW280313   1.703   6.099   8.045 -0.8536  0.0484 -0.8463
22752SOL     OW80314   3.344   2.040   2.159  0.6458 -0.0382  0.2023
22752SOL    HW180315   3.262   2.089   2.189  0.1699 -0.9914  0.4799
22752SOL    HW280316   3.317   1.950   2.123  1.6035 -0.5266  0.6974
22753SOL     OW80317   4.541   7.102   6.696  0.1161  0.6857  0.2059
22753SOL    HW180318   4.451   7.113   6.739  0.6883  1.3264  1.2600
22753SOL    HW280319   4.559   7.180   6.637 -0.1243  0.4307 -0.2087
22754SOL     OW80320   9.429   9.876   1.222 -0.3257 -0.0803 -0.1984
22754SOL    HW180321   9.364   9.917   1.286 -0.1942  0.5930 -0.4938
22754SOL    HW280322   9.390   9.877   1.129  0.0934  0.3054 -0.3724
22755SOL     OW80323   2.389   5.960   1.776 -0.5091 -0.2381  0.2897
22755SOL    HW180324   2.299   5.954   1.819 -1.6227  0.5339 -1.8234
22755SOL    HW280325   2.379   5.954   1.676  1.5615  1.9785 -0.1095
22756SOL     OW80326   7.034   5.627   2.051 -0.4374  0.8353 -0.3779
22756SOL    HW180327   7.002   5.612   2.145 -0.8802  0.9858 -0.5040
22756SOL    HW280328   7.048   5.539   2.006 -0.7119  0.7707 -0.3365
22757SOL     OW80329   8.821   0.788   2.601  0.2375  0.1276 -0.3817
22757SOL    HW180330   8.875   0.773   2.518  0.8315  2.1904 -0.3922
22757SOL    HW280331   8.881   0.816   2.675 -0.4775 -0.3322  0.3821
22758SOL     OW80332   5.325   5.813   9.841  0.1762 -0.2514 -0.0389
22758SOL    HW180333   5.348   5.751   9.916  0.2647  0.6625  0.6860
22758SOL    HW280334   5.373   5.783   9.758 -0.7052 -1.8514 -0.0066
22759SOL     OW80335   9.449   1.472   8.502 -0.0194 -0.1914  0.4959
22759SOL    HW180336   9.397   1.534   8.443  0.3700  0.0726  0.4305
22759SOL    HW280337   9.423   1.487   8.597 -0.2800 -0.2682  0.4367
22760SOL     OW80338   2.291   9.075   6.406 -0.7030  0.6319 -0.4288
22760SOL    HW180339   2.306   9.062   6.504  0.1405  0.2138 -0.6056
22760SOL    HW280340   2.315   8.991   6.357 -1.6369  0.6619 -0.9390
22761SOL     OW80341   4.310   1.906   0.450 -0.5916  0.2272 -0.1346
22761SOL    HW180342   4.324   1.807   0.442 -0.2020  0.2897 -0.2011
22761SOL    HW280343   4.395   1.954   0.429 -1.7775  0.7565 -4.3301
22762SOL     OW80344   2.145   4.144   1.579 -0.2992 -0.1294 -0.1395
22762SOL    HW180345   2.114   4.062   1.532  0.1944  0.1242 -0.9119
22762SOL    HW280346   2.124   4.225   1.523 -1.4839  0.3431  0.9614
22763SOL     OW80347   3.890   8.432   1.894  0.4869  0.3175 -0.4015
22763SOL    HW180348   3.834   8.430   1.977  1.6137 -1.3347  0.3453
22763SOL    HW280349   3.876   8.348   1.842  0.6301  0.8545 -1.3246
22764SOL     OW80350   6.398   0.091   5.148 -0.1588 -0.1016  0.0146
22764SOL    HW180351   6.373   0.188   5.147 -0.6744 -0.2072 -2.6917
22764SOL    HW280352   6.321   0.038   5.183  0.1108  0.4488  1.4788
22765SOL     OW80353   0.307   9.239   0.323 -0.0902 -0.0784  0.4432
22765SOL    HW180354   0.224   9.296   0.330 -0.3271 -0.1370 -1.7773
22765SOL    HW280355   0.380   9.281   0.377 -0.7395  1.4575  0.1523
22766SOL     OW80356   9.433   7.738   5.564  0.1211  0.2178 -0.5192
22766SOL    HW180357   9.494   7.689   5.503  2.7033  1.0728  1.3078
22766SOL    HW280358   9.392   7.673   5.628 -2.1615 -0.5884 -2.7181
22767SOL     OW80359   1.050   4.628   4.880 -0.3401 -0.1209  0.3034
22767SOL    HW180360   1.112   4.573   4.824  2.5664 -0.0004  3.2410
22767SOL    HW280361   0.983   4.568   4.925 -0.5261 -0.5973 -0.5975
22768SOL     OW80362   3.825   6.386   4.108  0.8492 -0.6614 -0.1441
22768SOL    HW180363   3.864   6.443   4.036 -1.1546  0.7453 -0.1727
22768SOL    HW280364   3.840   6.429   4.197 -2.1182  0.8385 -0.3065
22769SOL     OW80365   0.902   8.467   9.021  0.5831  0.0645 -0.9572
22769SOL    HW180366   0.855   8.551   9.045  2.1494  0.4137  1.0011
22769SOL    HW280367   0.966   8.485   8.945 -0.6016  0.1310 -1.9588
22770SOL     OW80368   1.622   5.351   4.748  0.1047 -0.1572  0.7021
22770SOL    HW180369   1.665   5.287   4.684  0.2663  1.9666 -1.3722
22770SOL    HW280370   1.672   5.349   4.835  2.8889  0.3961 -0.8036
22771SOL     OW80371   2.448   3.797   4.847 -0.5837 -0.6039 -0.1993
22771SOL    HW180372   2.369   3.764   4.796 -0.8635 -1.2800  0.6699
22771SOL    HW280373   2.513   3.722   4.862 -0.8503 -0.5957  1.0766
22772SOL     OW80374   6.144   9.603   7.427  0.1142  0.2353  0.0407
22772SOL    HW180375   6.209   9.558   7.366  0.6447  0.8610  0.1467
22772SOL    HW280376   6.145   9.701   7.411  0.1800  0.3991  0.9777
22773SOL     OW80377   3.581   7.650   2.686 -0.3811  0.2752  0.1019
22773SOL    HW180378   3.658   7.624   2.745 -0.4722 -1.7798 -0.6287
22773SOL    HW280379   3.513   7.700   2.740  0.1716 -0.3628  1.4132
22774SOL     OW80380   1.952   4.478   2.844 -0.1779 -0.2812 -0.2284
22774SOL    HW180381   2.010   4.546   2.800 -0.1125 -0.2691 -0.1222
22774SOL    HW280382   1.856   4.501   2.829 -0.1645  0.7587  1.2331
22775SOL     OW80383   4.022   3.483   5.587 -0.1191  0.2152 -0.3125
22775SOL    HW180384   3.950   3.550   5.606  0.8456  0.7073  1.7334
22775SOL    HW280385   4.089   3.484   5.661  0.0834 -2.8118 -0.3712
22776SOL     OW80386   6.229   8.115   6.135  0.0183  0.2560  0.0308
22776SOL    HW180387   6.205   8.103   6.232  1.3624  1.8420  0.5924
22776SOL    HW280388   6.220   8.211   6.111  1.9567  0.2596 -0.7736
22777SOL     OW80389   2.519   8.535   7.429  0.0295 -0.0156  0.1977
22777SOL    HW180390   2.429   8.523   7.472  1.2307  0.0220  2.7864
22777SOL    HW280391   2.523   8.480   7.346 -3.0987  1.5288 -1.0962
22778SOL     OW80392   3.774   2.667   9.466 -0.0007  0.0486 -0.3320
22778SOL    HW180393   3.720   2.717   9.399 -0.1206  1.0233  0.4724
22778SOL    HW280394   3.728   2.580   9.488  0.5066 -0.7155 -2.1650
22779SOL     OW80395   4.698   0.355   3.139 -0.2229 -0.4118  0.2759
22779SOL    HW180396   4.645   0.270   3.136 -0.4657 -0.2718  0.5193
22779SOL    HW280397   4.737   0.374   3.049 -1.5299  0.0822 -0.1966
22780SOL     OW80398   8.531   9.227   3.129 -0.6643  0.1774  0.5309
22780SOL    HW180399   8.498   9.155   3.068 -0.1219  0.0476  0.3888
22780SOL    HW280400   8.608   9.274   3.086 -0.5801  0.3952  0.9150
22781SOL     OW80401   3.841   9.823   7.052 -1.0723  0.5122  0.2224
22781SOL    HW180402   3.834   9.750   7.120  1.9371 -1.9709 -1.9825
22781SOL    HW280403   3.768   9.814   6.985 -1.2711  0.1382  0.4870
22782SOL     OW80404   5.767   6.589   0.713  0.3596 -0.1121 -0.0169
22782SOL    HW180405   5.725   6.512   0.664 -1.7169 -0.6110  2.4351
22782SOL    HW280406   5.864   6.570   0.728  0.0529 -1.8809 -0.1476
22783SOL     OW80407   9.181   7.047   3.537  0.2977  0.6675  1.0030
22783SOL    HW180408   9.193   7.070   3.634  1.9731  0.5483  0.8508
22783SOL    HW280409   9.190   6.948   3.525 -0.9299  0.5684  0.8520
22784SOL     OW80410   1.414   2.615   9.732  0.3912 -0.0621  0.1380
22784SOL    HW180411   1.438   2.519   9.724 -0.3796 -0.2479  0.0196
22784SOL    HW280412   1.451   2.652   9.817  1.7495 -0.1400 -0.4021
22785SOL     OW80413   9.750   7.321   4.064  0.2407  0.1479  0.3941
22785SOL    HW180414   9.725   7.313   3.968 -0.9121 -0.7724  0.7646
22785SOL    HW280415   9.845   7.292   4.076 -0.0686 -1.1646 -0.2438
22786SOL     OW80416   2.934   8.421   4.719  0.2430 -0.2305  0.1343
22786SOL    HW180417   2.913   8.351   4.650 -1.7270  0.0620  0.4182
22786SOL    HW280418   2.851   8.469   4.744  1.4291  1.6036  0.6486
22787SOL     OW80419   0.072   8.402   7.323 -0.0740  0.3615 -0.0137
22787SOL    HW180420   0.152   8.397   7.383  0.9652  1.9358 -1.2212
22787SOL    HW280421   0.057   8.497   7.295  0.2144 -0.4800 -3.2255
22788SOL     OW80422   2.381   4.086   5.223 -0.1639 -0.0864  0.4126
22788SOL    HW180423   2.327   4.159   5.181 -1.0460 -1.5553 -1.0559
22788SOL    HW280424   2.479   4.107   5.214 -0.4234  1.2675  0.6739
22789SOL     OW80425   0.883   6.112   1.822 -0.1739  0.0831  0.1540
22789SOL    HW180426   0.820   6.184   1.794  1.6335  1.7397  0.2064
22789SOL    HW280427   0.837   6.051   1.887 -2.0304  0.6085 -0.6331
22790SOL     OW80428   1.488   3.905   5.341  0.2065  0.0626  0.0782
22790SOL    HW180429   1.440   3.828   5.383  0.6875 -0.5255 -0.4462
22790SOL    HW280430   1.500   3.887   5.243 -0.6203  1.2810 -0.2620
22791SOL     OW80431   7.645   5.043   9.180 -0.1693 -0.2117  0.2259
22791SOL    HW180432   7.732   5.073   9.219 -0.7060  0.7314  0.6830
22791SOL    HW280433   7.608   5.115   9.121 -1.3580 -0.0297  1.1744
22792SOL     OW80434   0.795   8.263   4.795  0.6072 -0.1754 -0.2313
22792SOL    HW180435   0.817   8.226   4.886  2.0942 -0.2970 -0.6300
22792SOL    HW280436   0.877   8.301   4.754 -0.1806  0.3687 -1.3130
22793SOL     OW80437   4.502   7.412   2.014  0.2558 -0.1153  0.3986
22793SOL    HW180438   4.439   7.417   2.092  0.6558  0.8371  0.6671
22793SOL    HW280439   4.574   7.480   2.025 -0.7493  1.3555 -1.7433
22794SOL     OW80440   6.243   9.583   5.909 -0.0290  0.1751 -0.1197
22794SOL    HW180441   6.190   9.543   5.835 -0.6787  0.0585  0.4014
22794SOL    HW280442   6.336   9.603   5.877  0.7261 -2.9081 -0.0728
22795SOL     OW80443   8.546   6.615   2.955 -0.3199 -0.3170  0.5792
22795SOL    HW180444   8.508   6.704   2.980  0.4582  0.5684 -1.3355
22795SOL    HW280445   8.637   6.605   2.995  0.5415  0.7223 -1.0503
22796SOL     OW80446   0.431   9.603   7.612 -0.1810  0.0392  0.1087
22796SOL    HW180447   0.447   9.564   7.521  1.6010  1.1281 -0.0554
22796SOL    HW280448   0.412   9.701   7.604  1.5546  0.4656  1.0174
22797SOL     OW80449   2.807   9.121   8.174 -0.4145  0.4614  0.6187
22797SOL    HW180450   2.800   9.205   8.120 -1.5376  1.0067  1.5914
22797SOL    HW280451   2.886   9.068   8.143  0.0655  1.6772 -0.2817
22798SOL     OW80452   2.639   4.149   6.221 -0.3116  0.2817 -0.3030
22798SOL    HW180453   2.690   4.094   6.287  0.7378  1.2298 -0.3048
22798SOL    HW280454   2.626   4.097   6.137  0.0843 -0.2067 -0.0660
22799SOL     OW80455   4.727   5.083   8.439 -1.1116  0.3864  0.1120
22799SOL    HW180456   4.675   5.005   8.473  0.5253 -0.5362  0.5420
22799SOL    HW280457   4.697   5.166   8.486 -2.0444 -0.1620  0.4968
22800SOL     OW80458   2.567   6.258   7.157 -0.1191 -0.1669  0.5992
22800SOL    HW180459   2.537   6.186   7.095 -1.6460  0.5922  0.4293
22800SOL    HW280460   2.499   6.331   7.159  0.8479  0.7346  1.6627
22801SOL     OW80461   2.093   9.225   1.310  0.3433 -0.3745 -0.1253
22801SOL    HW180462   2.149   9.157   1.358  2.3480 -0.7430 -2.8768
22801SOL    HW280463   2.144   9.310   1.300 -0.2201 -0.1442 -1.1581
22802SOL     OW80464   3.523   5.544   2.907 -0.1615  0.3763 -0.3002
22802SOL    HW180465   3.485   5.455   2.883 -0.0662  0.5053 -0.9443
22802SOL    HW280466   3.612   5.555   2.862 -0.5497  1.1351 -0.8790
22803SOL     OW80467   9.187   7.226   4.401  0.4952 -0.3028  0.7036
22803SOL    HW180468   9.157   7.241   4.306 -1.2777  0.3804  1.3571
22803SOL    HW280469   9.286   7.235   4.406  0.6161 -0.4521 -1.1186
22804SOL     OW80470   5.461   8.314   8.524  0.2213 -0.0920  0.4964
22804SOL    HW180471   5.448   8.220   8.491 -0.5208  0.6824 -1.5026
22804SOL    HW280472   5.413   8.326   8.611 -3.2228 -0.4317 -1.2538
22805SOL     OW80473   5.319   2.640   2.717 -0.3950 -0.0795 -0.3603
22805SOL    HW180474   5.234   2.624   2.666 -1.5340  0.4093  1.3504
22805SOL    HW280475   5.305   2.619   2.813  1.3596  0.2656 -0.0153
22806SOL     OW80476   4.805   3.437   2.357  0.2461 -0.0165  0.3999
22806SOL    HW180477   4.719   3.436   2.306  1.4803  0.6587 -1.8046
22806SOL    HW280478   4.873   3.383   2.306  1.2050 -0.2799  1.9495
22807SOL     OW80479   7.310   2.000   9.126  0.5962  0.2459  0.2743
22807SOL    HW180480   7.340   1.991   9.031 -1.4566 -0.9071 -0.3178
22807SOL    HW280481   7.262   2.087   9.138 -1.6126 -0.8119 -0.5179
22808SOL     OW80482   0.102   5.428   4.735  0.1129 -0.1450  0.2408
22808SOL    HW180483   0.092   5.405   4.638 -1.0100 -0.0350  0.3322
22808SOL    HW280484   0.199   5.447   4.754  0.2645  0.3613 -0.9793
22809SOL     OW80485   2.101   7.304   6.964  0.0695 -0.0368  0.4380
22809SOL    HW180486   2.154   7.347   7.037 -0.1388 -0.4779  0.8525
22809SOL    HW280487   2.036   7.239   7.004  3.7356 -4.4851 -0.4006
22810SOL     OW80488   7.935   0.760   3.840 -0.2019  0.2849  0.3033
22810SOL    HW180489   7.950   0.757   3.938  2.3680  1.2004 -0.0241
22810SOL    HW280490   7.893   0.674   3.810  0.6825 -0.7227  1.9177
22811SOL     OW80491   0.171   3.962   9.657  0.7618  0.2882  0.4113
22811SOL    HW180492   0.252   4.010   9.624  0.5312 -1.1141 -2.2746
22811SOL    HW280493   0.198   3.885   9.714  1.2355  1.0663  1.2572
22812SOL     OW80494   3.999   2.125   9.416  0.2204 -0.5954  0.0385
22812SOL    HW180495   4.026   2.029   9.415 -0.9530 -0.9195 -0.4770
22812SOL    HW280496   4.010   2.164   9.324 -1.1790 -0.7576 -0.1948
22813SOL     OW80497   5.256   8.461   6.984 -0.5166  0.1830 -0.4505
22813SOL    HW180498   5.331   8.521   7.011 -0.8870  0.1431  0.6936
22813SOL    HW280499   5.255   8.452   6.884  0.9909  0.1745 -0.4696
22814SOL     OW80500   0.130   1.682   4.181  0.4479  0.1295 -0.0595
22814SOL    HW180501   0.083   1.601   4.217 -0.9375  0.5427 -0.8780
22814SOL    HW280502   0.193   1.718   4.250  0.7653 -1.3979  0.4598
22815SOL     OW80503   8.614   7.372   4.217  0.1977  0.1823  0.2356
22815SOL    HW180504   8.656   7.418   4.296  1.2583  1.2768 -0.9406
22815SOL    HW280505   8.659   7.403   4.133 -2.5240  0.9074 -1.0206
22816SOL     OW80506   4.521   5.981   2.353  0.3149 -0.1303 -0.1837
22816SOL    HW180507   4.474   6.027   2.277 -0.1728  0.7267  0.6191
22816SOL    HW280508   4.619   5.996   2.345  0.1006  1.8734  0.5648
22817SOL     OW80509   6.430   9.782   8.660  0.1334 -0.2326 -0.1859
22817SOL    HW180510   6.364   9.735   8.719 -0.0030 -1.1644 -1.0660
22817SOL    HW280511   6.389   9.796   8.570  0.5864  0.5614 -0.2651
22818SOL     OW80512   7.537   5.958   7.138  0.1895 -0.4114 -0.1705
22818SOL    HW180513   7.624   6.005   7.127  1.2074 -2.7493 -2.8019
22818SOL    HW280514   7.553   5.859   7.144 -2.1067 -0.7054  1.8771
22819SOL     OW80515   3.830   5.929   3.652 -0.6882  0.1739  0.8531
22819SOL    HW180516   3.775   5.884   3.581  0.3808 -0.2796  0.2922
22819SOL    HW280517   3.921   5.949   3.615 -0.5500  1.1217  1.6957
22820SOL     OW80518   5.749   6.315   1.829  0.4602 -0.0135 -0.5151
22820SOL    HW180519   5.688   6.316   1.750 -0.3609  1.0196  0.1255
22820SOL    HW280520   5.775   6.220   1.850 -0.3262 -0.3940 -1.2310
22821SOL     OW80521   3.431   0.718   0.759  0.6778  0.4651 -0.0654
22821SOL    HW180522   3.517   0.708   0.809  1.9904  0.2058 -2.2927
22821SOL    HW280523   3.446   0.775   0.678 -1.3248  0.6646 -0.3224
22822SOL     OW80524   1.212   5.647   0.401  0.4196  0.1953  0.2419
22822SOL    HW180525   1.124   5.618   0.438 -1.1704  1.8164 -2.1290
22822SOL    HW280526   1.284   5.589   0.438 -1.5926 -1.0232  2.4020
22823SOL     OW80527   2.493   2.851   9.590 -0.5859  0.0578 -0.8061
22823SOL    HW180528   2.470   2.948   9.595  0.9750  0.5053 -1.8905
22823SOL    HW280529   2.500   2.823   9.495  1.1437 -0.5741 -0.5173
22824SOL     OW80530   9.696   4.648   8.065 -0.3478  0.1797  0.1823
22824SOL    HW180531   9.757   4.725   8.080 -1.6919  1.2985  0.0116
22824SOL    HW280532   9.606   4.682   8.038 -1.7331 -1.3650  2.7433
22825SOL     OW80533   5.704   7.782   4.045  0.1519  0.1667  0.0086
22825SOL    HW180534   5.787   7.826   4.011 -0.2573  1.7412  0.9496
22825SOL    HW280535   5.627   7.845   4.033 -0.7323 -0.9105  0.0020
22826SOL     OW80536   6.350   2.555   9.590  0.0595 -0.3483 -0.1486
22826SOL    HW180537   6.338   2.640   9.641  0.8207  1.5590 -3.1050
22826SOL    HW280538   6.447   2.539   9.574 -0.1297 -1.3896 -0.2974
22827SOL     OW80539   0.104   0.188   5.306  1.0227 -0.3426 -0.2555
22827SOL    HW180540   0.102   0.287   5.317  0.0555 -0.6738  3.1441
22827SOL    HW280541   0.196   0.154   5.328  0.8309 -0.3566  0.5641
22828SOL     OW80542   2.794   0.121   6.968  0.5637  0.0283  0.0916
22828SOL    HW180543   2.858   0.182   7.014 -1.1777  0.2972  2.2426
22828SOL    HW280544   2.801   0.029   7.008 -0.1518 -0.0147  0.1280
22829SOL     OW80545   7.979   2.864   3.991 -0.0111  0.1361 -0.2388
22829SOL    HW180546   7.982   2.777   3.943  1.2219 -0.2161  0.4468
22829SOL    HW280547   7.982   2.847   4.090  2.0050  1.0074 -0.1343
22830SOL     OW80548   3.762   6.911   7.576  0.3612 -0.2539  0.4825
22830SOL    HW180549   3.766   6.879   7.481  0.3092 -0.0699  0.4175
22830SOL    HW280550   3.817   6.851   7.634  1.1520  0.1672  0.1835
22831SOL     OW80551   8.534   9.418   3.980  0.0040 -0.1250  0.2497
22831SOL    HW180552   8.604   9.350   4.002  1.1529  0.8471 -0.3509
22831SOL    HW280553   8.529   9.431   3.881  0.4684  1.3586  0.4113
22832SOL     OW80554   1.062   0.711   2.607 -0.1429 -0.0204 -0.3899
22832SOL    HW180555   1.030   0.648   2.536 -2.4022 -0.4671  1.0117
22832SOL    HW280556   1.023   0.802   2.591  0.5291  0.2479 -0.5443
22833SOL     OW80557   4.550   4.566   2.447  0.1647 -0.2332 -0.4714
22833SOL    HW180558   4.587   4.541   2.357 -1.4078 -1.5722 -0.7725
22833SOL    HW280559   4.536   4.665   2.451 -0.9584 -0.3059 -2.1751
22834SOL     OW80560   5.375   4.874   7.261  0.9998  0.3694  0.2612
22834SOL    HW180561   5.359   4.963   7.303  1.7317 -0.0884  1.5232
22834SOL    HW280562   5.344   4.877   7.165  0.2048  1.6967  0.5386
22835SOL     OW80563   4.806   7.709   4.785  0.1601 -0.0248 -0.9877
22835SOL    HW180564   4.764   7.620   4.767  0.0683  0.2267 -2.0695
22835SOL    HW280565   4.802   7.729   4.883 -0.9815 -0.6361 -0.8999
22836SOL     OW80566   6.100   5.744   1.305  0.2306 -0.5182 -0.1514
22836SOL    HW180567   6.041   5.770   1.229 -1.7508 -0.2505  1.4214
22836SOL    HW280568   6.151   5.823   1.337 -2.0774  0.3920  1.4445
22837SOL     OW80569   9.160   9.245   0.708  0.6716  0.2958  0.6875
22837SOL    HW180570   9.113   9.216   0.791  0.2480 -1.7733 -0.2613
22837SOL    HW280571   9.104   9.222   0.628  1.9343  0.5738 -0.2846
22838SOL     OW80572   1.744   9.246   7.702 -0.4012  0.4337  0.1914
22838SOL    HW180573   1.753   9.147   7.713  1.3236  0.2927 -2.0936
22838SOL    HW280574   1.659   9.266   7.652 -0.0484 -0.0075 -0.5966
22839SOL     OW80575   7.256   4.783   3.454  0.9258 -0.6095 -0.6562
22839SOL    HW180576   7.338   4.727   3.440  0.5052 -1.8500  1.6425
22839SOL    HW280577   7.271   4.846   3.530 -0.3055 -0.9767 -0.0902
22840SOL     OW80578   7.637   2.883   9.096  0.6081  0.1740  0.4585
22840SOL    HW180579   7.646   2.949   9.021  1.2567 -0.1307  0.2636
22840SOL    HW280580   7.542   2.853   9.102 -0.1112  2.5941  1.8026
22841SOL     OW80581   0.536   9.791   8.211  0.3293  0.1205  0.4541
22841SOL    HW180582   0.627   9.752   8.195  0.3005  0.1930  0.1163
22841SOL    HW280583   0.467   9.735   8.166  0.2837  0.5325  0.0017
22842SOL     OW80584   4.659   8.550   3.245  0.4578 -0.5344  0.1509
22842SOL    HW180585   4.619   8.634   3.209  2.4236  0.6527  0.6583
22842SOL    HW280586   4.591   8.499   3.298 -1.0263  0.2137 -1.0378
22843SOL     OW80587   9.552   9.277   1.300  0.3708 -0.4098 -0.2539
22843SOL    HW180588   9.546   9.302   1.396  0.9920  1.8546 -0.7926
22843SOL    HW280589   9.644   9.243   1.280  0.2189 -0.9505 -0.0541
22844SOL     OW80590   0.514   5.692   7.456 -0.5631  0.3124  0.0099
22844SOL    HW180591   0.527   5.791   7.464 -0.5366  0.1801  1.7627
22844SOL    HW280592   0.464   5.672   7.372  1.8678  1.5997 -1.8098
22845SOL     OW80593   6.833   5.110   7.742 -0.0597  0.5164  0.1546
22845SOL    HW180594   6.929   5.138   7.733  0.1939 -0.3592  0.0956
22845SOL    HW280595   6.817   5.074   7.833  0.6146 -2.8579 -1.0085
22846SOL     OW80596   2.415   4.788   1.639  0.3899 -0.4981  0.0320
22846SOL    HW180597   2.353   4.712   1.660  1.4527 -1.2746  0.4117
22846SOL    HW280598   2.415   4.804   1.540  0.5889 -1.3772 -0.1169
22847SOL     OW80599   7.383   9.921   9.279 -0.0393  0.4966 -0.3213
22847SOL    HW180600   7.411   9.946   9.372 -0.5595  0.0142 -0.0277
22847SOL    HW280601   7.463   9.892   9.226  0.1270 -0.2169  0.2992
22848SOL     OW80602   2.705   9.225   4.389 -0.6619  0.0980 -0.3359
22848SOL    HW180603   2.718   9.127   4.372  1.5285 -0.0076  1.7427
22848SOL    HW280604   2.640   9.237   4.464  1.9523  0.0943  1.9812
22849SOL     OW80605   0.757   7.112   0.405  0.3213  0.1595 -0.3718
22849SOL    HW180606   0.765   7.150   0.497 -0.8304  1.1648 -0.6702
22849SOL    HW280607   0.729   7.016   0.411 -0.1128  0.3258  0.3035
22850SOL     OW80608   0.418   8.580   8.753 -0.4213 -0.1241  0.3207
22850SOL    HW180609   0.385   8.522   8.678  0.5988 -2.6240  1.7391
22850SOL    HW280610   0.370   8.555   8.837 -1.6997  2.7967  0.4858
22851SOL     OW80611   7.337   8.012   8.843  0.1060  0.0693  0.6330
22851SOL    HW180612   7.396   7.934   8.865  1.8781  1.1532 -0.1273
22851SOL    HW280613   7.258   7.980   8.791  0.5358 -1.2919  0.7804
22852SOL     OW80614   8.521   5.107   8.913  0.0400  0.5104  0.1497
22852SOL    HW180615   8.597   5.063   8.864 -0.2654  1.1702 -0.9203
22852SOL    HW280616   8.491   5.188   8.863 -1.4487  0.1929  0.5051
22853SOL     OW80617   6.058   8.710   6.200 -0.4157 -0.5994 -0.1980
22853SOL    HW180618   6.133   8.774   6.180 -0.4654 -0.3350  0.4480
22853SOL    HW280619   5.984   8.724   6.134  0.4154 -1.3933 -1.3234
22854SOL     OW80620   3.288   6.191   9.611 -0.5600  0.2323  0.0498
22854SOL    HW180621   3.387   6.202   9.616 -0.3087 -1.9253  0.0966
22854SOL    HW280622   3.246   6.227   9.694  0.4643 -1.7068  1.4392
22855SOL     OW80623   0.210   3.797   2.897  0.5585  0.4198  0.3477
22855SOL    HW180624   0.177   3.842   2.815  0.1038 -0.1451  0.2196
22855SOL    HW280625   0.310   3.800   2.899  0.5332  1.6147  0.4483
22856SOL     OW80626   2.832   9.890   1.074  0.3877 -0.2306 -0.4319
22856SOL    HW180627   2.905   9.958   1.071  1.8336 -1.7920 -1.1088
22856SOL    HW280628   2.793   9.880   0.982 -1.8026  1.7506  0.2240
22857SOL     OW80629   6.440   1.340   1.694  0.0546 -0.2492 -0.0425
22857SOL    HW180630   6.407   1.400   1.766 -0.4769 -0.4668 -0.0998
22857SOL    HW280631   6.540   1.336   1.696 -0.0022 -1.2389  1.4841
22858SOL     OW80632   4.337   0.714   1.201 -0.4196  0.2662 -0.0911
22858SOL    HW180633   4.252   0.691   1.248 -0.3872 -1.7083 -0.9557
22858SOL    HW280634   4.412   0.662   1.241  0.2159  1.2040 -0.0450
22859SOL     OW80635   0.806   6.480   7.930  0.2681 -0.0772  0.1514
22859SOL    HW180636   0.850   6.510   8.014  1.2326  1.8227 -1.0016
22859SOL    HW280637   0.708   6.466   7.946  0.5750 -0.4553  1.7504
22860SOL     OW80638   7.665   9.745   3.387  0.1754 -0.4170  0.0814
22860SOL    HW180639   7.634   9.652   3.371  0.3914 -0.2219 -1.5016
22860SOL    HW280640   7.586   9.806   3.393  0.1637  0.0840 -3.9721
22861SOL     OW80641   1.367   6.957   7.586 -0.2891 -0.2728  0.4142
22861SOL    HW180642   1.286   6.934   7.532 -0.1097  0.0175  0.0153
22861SOL    HW280643   1.429   6.878   7.589  0.9123  0.5202 -2.0178
22862SOL     OW80644   3.698   9.946   8.072 -0.0345 -0.2013  0.0438
22862SOL    HW180645   3.623   9.980   8.015 -0.8988  0.5132  1.5835
22862SOL    HW280646   3.725   9.855   8.041 -0.2169  0.3396 -1.7619
22863SOL     OW80647   9.537   5.017   6.411  0.0681 -0.6117 -0.4329
22863SOL    HW180648   9.457   4.968   6.446  0.1161  0.7410  1.6747
22863SOL    HW280649   9.512   5.112   6.392  0.9283 -0.4483 -0.7709
22864SOL     OW80650   7.278   7.969   6.848  0.2971 -0.3665 -0.5363
22864SOL    HW180651   7.264   7.947   6.752 -0.3056  4.2617 -1.6252
22864SOL    HW280652   7.374   7.955   6.872  0.5382 -1.1289 -1.9434
22865SOL     OW80653   0.869   8.289   5.543 -0.6354 -0.4058 -0.3109
22865SOL    HW180654   0.958   8.332   5.561 -1.3019  1.0242 -0.4076
22865SOL    HW280655   0.819   8.279   5.629 -0.8410 -0.1811 -0.4036
22866SOL     OW80656   6.036   7.292   4.775 -0.5523  0.4391  0.2542
22866SOL    HW180657   6.053   7.361   4.845 -2.5970  1.1259  0.0878
22866SOL    HW280658   6.100   7.305   4.700  0.0134  1.2460  0.8603
22867SOL     OW80659   0.404   0.735   3.369 -0.6274  0.3208 -0.4257
22867SOL    HW180660   0.446   0.825   3.376  1.9635 -0.8136 -0.7759
22867SOL    HW280661   0.461   0.667   3.415 -2.5580 -1.1448 -0.1215
22868SOL     OW80662   9.734   4.414   0.433 -0.0001  0.3815 -0.0096
22868SOL    HW180663   9.770   4.327   0.470 -0.1238 -0.0558 -0.9207
22868SOL    HW280664   9.797   4.488   0.457  0.3685 -0.0350  0.3315
22869SOL     OW80665   3.621   4.227   6.813  0.6418  0.2802 -0.4541
22869SOL    HW180666   3.706   4.192   6.775 -0.4344 -0.6241 -2.0864
22869SOL    HW280667   3.631   4.241   6.911  2.5298 -0.2129 -0.5693
22870SOL     OW80668   3.817   0.814   4.591 -0.4442  0.1568 -0.0182
22870SOL    HW180669   3.867   0.768   4.664  0.5975 -0.7559 -1.2926
22870SOL    HW280670   3.719   0.796   4.601 -0.0626 -2.2712 -0.4658
22871SOL     OW80671   7.600   2.246   3.037 -0.5701  0.0701 -0.4631
22871SOL    HW180672   7.655   2.297   2.971 -0.1042  0.4782  0.2375
22871SOL    HW280673   7.594   2.297   3.122 -0.4855 -0.8281  0.0953
22872SOL     OW80674   6.859   6.102   2.901  0.3456  0.1683  0.3083
22872SOL    HW180675   6.882   6.063   2.812  0.3217  0.1836  0.2951
22872SOL    HW280676   6.806   6.036   2.954  1.1194 -0.1772  0.6532
22873SOL     OW80677   7.257   6.999   8.639 -0.2297 -1.2701  0.1683
22873SOL    HW180678   7.218   7.090   8.630  0.3115 -0.8242  2.0922
22873SOL    HW280679   7.316   6.980   8.561  2.1063  1.2908  1.2155
22874SOL     OW80680   2.042   3.751   8.238 -0.6614  0.0461 -0.2862
22874SOL    HW180681   2.068   3.705   8.153  2.3076  1.0818  0.0152
22874SOL    HW280682   2.047   3.686   8.314 -1.4041 -0.3775 -0.5919
22875SOL     OW80683   3.521   8.653   6.752  0.5835 -0.2838 -0.2711
22875SOL    HW180684   3.446   8.628   6.690  0.7633 -1.4285 -0.0456
22875SOL    HW280685   3.603   8.673   6.700  0.0318  1.3478 -0.5446
22876SOL     OW80686   4.276   9.621   8.746 -0.6474 -0.2804  0.3046
22876SOL    HW180687   4.188   9.590   8.781 -1.4784 -0.1135 -1.5813
22876SOL    HW280688   4.343   9.547   8.753 -2.1221 -1.9527 -2.4068
22877SOL     OW80689   3.004   7.632   9.747  0.0775  0.5662 -0.2692
22877SOL    HW180690   2.959   7.544   9.762  1.1925  0.0718  0.2476
22877SOL    HW280691   3.101   7.624   9.770  0.0417  2.1192  0.4786
22878SOL     OW80692   6.845   3.222   3.779  0.3738  0.5826  0.0309
22878SOL    HW180693   6.933   3.244   3.738 -0.2427 -0.4937 -1.9516
22878SOL    HW280694   6.773   3.227   3.709 -0.3411 -3.8337  0.2704
22879SOL     OW80695   4.896   4.606   0.445  0.0035  0.5595 -0.0197
22879SOL    HW180696   4.927   4.584   0.353  0.0599 -0.5028  0.2487
22879SOL    HW280697   4.835   4.533   0.478 -0.8256  1.4267  0.3925
22880SOL     OW80698   3.511   3.533   6.247  0.4314  0.3079  0.6045
22880SOL    HW180699   3.594   3.545   6.302  0.1152  1.2412  0.8848
22880SOL    HW280700   3.479   3.622   6.216  0.4412 -0.1977 -0.8636
22881SOL     OW80701   1.331   6.795   7.822 -0.4754  0.1120 -0.1837
22881SOL    HW180702   1.403   6.806   7.891 -0.2577 -0.0158 -0.3903
22881SOL    HW280703   1.335   6.871   7.757 -0.0730 -0.2619 -0.6047
22882SOL     OW80704   6.428   4.477   8.868  0.2510  0.6811 -0.2054
22882SOL    HW180705   6.446   4.392   8.819  2.4772  1.5111 -0.9451
22882SOL    HW280706   6.375   4.459   8.950 -0.0254 -1.2942 -0.8026
22883SOL     OW80707   7.804   0.774   2.952 -0.1815 -0.1280 -0.1063
22883SOL    HW180708   7.867   0.795   3.027  1.4854  0.6618 -1.6812
22883SOL    HW280709   7.826   0.684   2.915 -0.7204 -0.3311  0.0694
22884SOL     OW80710   1.175   8.390   8.029 -0.1676 -0.2347 -0.0582
22884SOL    HW180711   1.168   8.458   8.102 -0.5304  0.5676 -0.8264
22884SOL    HW280712   1.139   8.303   8.061 -1.7071  0.5012  0.2637
22885SOL     OW80713   4.836   2.069   8.715 -0.1334 -0.1737  0.2246
22885SOL    HW180714   4.792   2.074   8.625  1.8410 -0.5247 -0.7850
22885SOL    HW280715   4.886   2.154   8.732  3.8362 -2.0554 -1.3471
22886SOL     OW80716   7.091   2.385   4.860  0.0730 -0.3258 -0.6781
22886SOL    HW180717   7.100   2.329   4.943  0.8051  0.5327 -0.1601
22886SOL    HW280718   7.005   2.363   4.814 -1.9447  1.4695  2.0637
22887SOL     OW80719   2.768   2.503   9.339 -0.5096  0.0928 -0.1322
22887SOL    HW180720   2.669   2.495   9.336 -0.5199  0.6553 -2.9680
22887SOL    HW280721   2.795   2.568   9.410 -2.2642  1.0723 -0.3437
22888SOL     OW80722   3.121   4.585   9.627 -0.3225  0.0916 -0.4571
22888SOL    HW180723   3.055   4.539   9.688  0.1840  1.5194  1.2076
22888SOL    HW280724   3.088   4.580   9.533 -2.6376  0.4530  0.3036
22889SOL     OW80725   9.067   5.311   2.896 -0.8155 -0.0657  0.6252
22889SOL    HW180726   8.971   5.291   2.913 -0.6580  0.4375  2.1208
22889SOL    HW280727   9.125   5.247   2.946 -0.3541 -1.1326 -1.2130
22890SOL     OW80728   1.489   2.128   5.519 -0.2076 -0.2497 -0.3452
22890SOL    HW180729   1.585   2.125   5.549 -0.0857 -1.6921 -0.8418
22890SOL    HW280730   1.440   2.197   5.572  0.7686 -0.4953  0.9056
22891SOL     OW80731   4.427   4.973   8.288 -0.5622 -0.4636  0.1723
22891SOL    HW180732   4.330   4.980   8.312 -0.0909  0.5873  1.8846
22891SOL    HW280733   4.476   4.930   8.363  0.5786  0.6475  0.0850
22892SOL     OW80734   0.519   8.938   1.772  0.0722  0.5353 -0.2278
22892SOL    HW180735   0.547   8.929   1.676 -0.5429 -2.3740 -0.1796
22892SOL    HW280736   0.471   8.855   1.801  0.9798  1.0219  2.8598
22893SOL     OW80737   9.092   3.442   0.148 -0.2898  0.4364 -0.0266
22893SOL    HW180738   9.014   3.504   0.147 -0.6366  0.0461  1.4513
22893SOL    HW280739   9.165   3.482   0.204 -1.3769 -1.4757  2.8906
22894SOL     OW80740   3.841   3.690   1.960  0.1798  0.6091 -0.0025
22894SOL    HW180741   3.895   3.645   1.889  0.2963  0.6716  0.0475
22894SOL    HW280742   3.864   3.652   2.049  0.3931  0.8780  0.0575
22895SOL     OW80743   4.146   6.794   8.256 -0.1773 -0.0695 -0.1351
22895SOL    HW180744   4.180   6.753   8.342 -0.2164  0.8989  0.3472
22895SOL    HW280745   4.094   6.877   8.277 -2.1480 -1.0623 -0.9343
22896SOL     OW80746   4.963   3.019   5.757  0.1006 -0.3241 -0.5083
22896SOL    HW180747   5.017   3.089   5.710  0.2946 -0.6814 -0.8185
22896SOL    HW280748   5.024   2.948   5.792 -0.0567 -0.1302  0.1656
22897SOL     OW80749   3.425   8.429   9.681  0.2895 -0.2288  0.5671
22897SOL    HW180750   3.511   8.378   9.690 -0.4626 -1.6514 -0.1144
22897SOL    HW280751   3.348   8.365   9.688 -0.7053  0.9798  0.7757
22898SOL     OW80752   8.354   7.058   6.270  0.3089 -0.1303  0.0170
22898SOL    HW180753   8.437   7.016   6.233 -0.4046 -0.2224 -1.5280
22898SOL    HW280754   8.274   7.006   6.238 -0.3380 -0.1376  1.6237
22899SOL     OW80755   9.365   9.724   4.895  0.9537 -0.0065  0.2694
22899SOL    HW180756   9.423   9.803   4.879 -1.7695  1.9911 -0.0320
22899SOL    HW280757   9.275   9.738   4.852 -0.9803 -1.4894  3.5960
22900SOL     OW80758   6.479   2.390   1.882 -0.4071  0.4280  0.2365
22900SOL    HW180759   6.547   2.323   1.854 -1.3094 -0.4725  0.1593
22900SOL    HW280760   6.438   2.363   1.969 -1.7336  0.1632 -0.4617
22901SOL     OW80761   6.244   6.139   1.418 -0.1955 -0.0610 -0.4961
22901SOL    HW180762   6.251   6.042   1.441 -0.1508  0.3381  1.2455
22901SOL    HW280763   6.256   6.151   1.320  1.2353 -1.6681 -0.5373
22902SOL     OW80764   0.252   4.665   1.650 -0.1096 -0.0070  0.2874
22902SOL    HW180765   0.208   4.754   1.666 -1.6363 -0.5055 -1.0019
22902SOL    HW280766   0.349   4.671   1.674  0.0456  2.3205 -0.7858
22903SOL     OW80767   0.561   6.198   7.695  0.1061  0.0348 -0.3685
22903SOL    HW180768   0.611   6.247   7.624  0.0139  0.4607 -0.1421
22903SOL    HW280769   0.611   6.115   7.720  1.5897  1.3326  1.0882
22904SOL     OW80770   7.601   2.544   3.147 -0.0869  0.1350  0.2806
22904SOL    HW180771   7.529   2.508   3.206  1.0252  0.1074  1.6789
22904SOL    HW280772   7.656   2.610   3.199 -0.2200  1.5187 -1.3083
22905SOL     OW80773   3.542   9.968   9.011 -0.1694 -0.2509 -0.0459
22905SOL    HW180774   3.573   9.898   8.946 -2.1585 -0.8166 -0.4198
22905SOL    HW280775   3.536   9.929   9.102 -1.9790 -0.8062 -0.3798
22906SOL     OW80776   7.040   7.489   5.982  0.3087 -0.3232  0.5596
22906SOL    HW180777   7.123   7.543   5.964 -0.5006  0.9549  0.5760
22906SOL    HW280778   7.065   7.394   5.998  1.6721 -0.1673 -0.5577
22907SOL     OW80779   1.830   1.019   2.610  0.5793  0.4091 -0.2283
22907SOL    HW180780   1.860   1.108   2.577  1.6655  0.5848  1.1696
22907SOL    HW280781   1.900   0.980   2.670  0.1561 -1.4374 -0.8949
22908SOL     OW80782   2.341   6.647   3.136 -0.3574  0.2414  0.0661
22908SOL    HW180783   2.400   6.726   3.118 -0.8155  0.3021 -1.2057
22908SOL    HW280784   2.295   6.619   3.052 -0.9843 -0.7564  0.7207
22909SOL     OW80785   7.113   2.503   4.299 -0.0456  0.0114  0.1515
22909SOL    HW180786   7.057   2.583   4.318 -2.1005 -1.2297 -0.5390
22909SOL    HW280787   7.088   2.465   4.210  1.6746 -0.7561 -0.0205
22910SOL     OW80788   4.946   1.726   8.260  0.0064  0.1565  0.3579
22910SOL    HW180789   4.968   1.695   8.353 -0.6434  0.0797  0.4873
22910SOL    HW280790   5.030   1.757   8.215  0.1631  1.2885  1.3808
22911SOL     OW80791   6.415   1.166   0.855  0.5735  0.4259 -0.7716
22911SOL    HW180792   6.450   1.090   0.800  2.1309 -0.3163  1.2147
22911SOL    HW280793   6.346   1.133   0.919  1.2348  0.6932  0.0815
22912SOL     OW80794   2.528   3.166   6.586  0.4156  0.1843  0.5124
22912SOL    HW180795   2.601   3.098   6.592  0.9052  0.5777 -0.7523
22912SOL    HW280796   2.443   3.122   6.558  0.7853  0.1220 -0.5226
22913SOL     OW80797   2.793   2.667   5.873 -0.4179 -0.0922 -0.5279
22913SOL    HW180798   2.827   2.759   5.896  1.6723 -0.3136 -2.5376
22913SOL    HW280799   2.739   2.632   5.950 -0.0852  2.2380  0.8485
22914SOL     OW80800   1.192   6.699   9.398 -0.3174  0.4246  0.3400
22914SOL    HW180801   1.220   6.642   9.322  0.8302  1.0578  0.2737
22914SOL    HW280802   1.268   6.758   9.426 -0.8415  0.4871  1.7077
22915SOL     OW80803   4.293   5.262   9.661  0.3285 -0.5198 -0.4290
22915SOL    HW180804   4.289   5.273   9.760  2.4036 -0.2287 -0.3528
22915SOL    HW280805   4.249   5.175   9.635 -2.5954  0.6203  0.4467
22916SOL     OW80806   8.586   0.854   7.860 -0.0438 -0.4007 -0.3118
22916SOL    HW180807   8.641   0.914   7.918 -0.0302 -0.7995  0.0919
22916SOL    HW280808   8.637   0.833   7.776  0.6084 -1.1246  0.2579
22917SOL     OW80809   3.596   4.914   9.788  0.1979  0.4932 -0.3654
22917SOL    HW180810   3.555   4.965   9.864 -0.0452 -0.2167 -0.0047
22917SOL    HW280811   3.656   4.842   9.824  0.6507  0.6167 -0.8636
22918SOL     OW80812   3.734   1.486   7.751  0.2065  0.6789  0.2626
22918SOL    HW180813   3.664   1.538   7.801 -0.4496  1.2908 -1.2852
22918SOL    HW280814   3.691   1.436   7.676  1.4979  1.4055 -0.9689
22919SOL     OW80815   2.185   7.039   5.418  0.0844  0.1524  0.1881
22919SOL    HW180816   2.284   7.035   5.403 -0.2228 -1.5348 -1.6338
22919SOL    HW280817   2.161   6.975   5.491  0.2802  0.1441  0.2482
22920SOL     OW80818   9.257   1.704   3.063  0.2309 -0.1602  0.2016
22920SOL    HW180819   9.241   1.803   3.059 -0.7503 -0.3615 -1.7986
22920SOL    HW280820   9.356   1.686   3.064  0.4104  0.8368  0.8577
22921SOL     OW80821   0.295   7.697   3.822 -0.4498  0.3493  0.6013
22921SOL    HW180822   0.305   7.670   3.726 -1.3256  0.0616  0.5916
22921SOL    HW280823   0.376   7.750   3.850 -0.2239  0.4964 -0.3111
22922SOL     OW80824   9.485   5.012   4.982 -0.8210  0.3670  0.1727
22922SOL    HW180825   9.435   4.949   5.041 -1.0026 -0.0182 -0.3788
22922SOL    HW280826   9.555   5.059   5.034  1.1036 -2.2387  0.0423
22923SOL     OW80827   4.057   1.879   8.838 -0.5842  0.4487 -0.1706
22923SOL    HW180828   4.118   1.800   8.838 -0.1660  0.6918  3.1388
22923SOL    HW280829   3.968   1.854   8.875 -1.9501  0.5381 -3.2582
22924SOL     OW80830   9.312   9.909   6.114  0.4959  0.0871 -0.1176
22924SOL    HW180831   9.297   9.846   6.038 -1.2127  2.9059 -2.1915
22924SOL    HW280832   9.232   9.910   6.173 -0.1005  1.4049 -0.9311
22925SOL     OW80833   1.006   4.402   6.641 -0.6445  0.2487  0.1860
22925SOL    HW180834   0.930   4.456   6.677  0.2758  1.2543  0.6272
22925SOL    HW280835   0.974   4.347   6.563 -1.2932  2.4119 -1.1211
22926SOL     OW80836   2.723   6.112   0.579 -0.5671 -0.3268 -0.0059
22926SOL    HW180837   2.748   6.097   0.483  2.1110 -0.5664  0.6818
22926SOL    HW280838   2.637   6.065   0.599 -0.0625 -2.0650 -1.7511
22927SOL     OW80839   1.323   7.650   0.075 -0.2301 -0.1870 -0.4304
22927SOL    HW180840   1.343   7.587   0.000  0.3545 -0.7585  0.1961
22927SOL    HW280841   1.380   7.627   0.154 -1.1999  0.0925  0.3598
22928SOL     OW80842   6.042   9.046   8.533  0.3253  0.1070 -0.5980
22928SOL    HW180843   6.016   9.143   8.536  1.8345  0.5562 -1.7931
22928SOL    HW280844   5.968   8.993   8.490 -1.3208  0.4121  1.7332
22929SOL     OW80845   5.504   0.263   8.166  0.4632 -0.3032 -0.5979
22929SOL    HW180846   5.520   0.347   8.114  0.3444  1.0619  1.4993
22929SOL    HW280847   5.419   0.272   8.218  2.7316  0.1959  3.2458
22930SOL     OW80848   6.043   8.132   5.165  0.0524 -0.2697  0.6830
22930SOL    HW180849   6.129   8.170   5.201  0.4214 -0.5278  0.0917
22930SOL    HW280850   6.044   8.138   5.065  0.0937 -1.7790  0.5798
22931SOL     OW80851   0.777   7.715   8.703  0.7851 -0.1064 -0.0815
22931SOL    HW180852   0.776   7.777   8.781  0.7650  0.9007 -0.8808
22931SOL    HW280853   0.685   7.711   8.663  1.5879  2.1976 -2.2648
22932SOL     OW80854   1.573   6.766   5.318 -0.0985  0.0282 -0.8567
22932SOL    HW180855   1.527   6.678   5.306 -0.1523  0.2734 -2.5421
22932SOL    HW280856   1.583   6.785   5.416  0.0010 -1.8849 -0.4760
22933SOL     OW80857   2.782   7.977   8.993  0.5073 -0.4594 -0.4398
22933SOL    HW180858   2.800   7.917   9.071  2.1368  1.3735  0.6363
22933SOL    HW280859   2.685   7.999   8.989  0.2675 -1.3196  0.4978
22934SOL     OW80860   4.888   6.980   2.482 -0.1725 -0.1738 -0.1998
22934SOL    HW180861   4.948   6.903   2.462 -0.2567 -0.0321 -1.0103
22934SOL    HW280862   4.853   6.972   2.576  1.1734 -0.2080  0.3038
22935SOL     OW80863   6.206   1.408   1.599 -0.2914  0.2316  0.0591
22935SOL    HW180864   6.161   1.326   1.633 -0.5797  0.0484 -0.7417
22935SOL    HW280865   6.299   1.413   1.636 -1.1890  0.9851  2.3056
22936SOL     OW80866   0.388   0.451   8.179  0.0449  0.0797  0.0947
22936SOL    HW180867   0.337   0.382   8.230  2.2533 -1.8276 -0.1631
22936SOL    HW280868   0.358   0.450   8.084 -1.1180  0.6705  0.4490
22937SOL     OW80869   4.748   8.722   9.754  0.0506 -0.0989 -0.1165
22937SOL    HW180870   4.691   8.734   9.673  0.1366  0.1200 -0.1466
22937SOL    HW280871   4.695   8.679   9.827  0.4297 -1.8055 -0.8314
22938SOL     OW80872   1.827   6.745   3.225  0.1186 -0.2067  0.5028
22938SOL    HW180873   1.888   6.823   3.213  0.5507 -0.4080  1.3523
22938SOL    HW280874   1.786   6.749   3.316  0.9021 -1.5145  0.9164
22939SOL     OW80875   3.055   0.905   4.153  0.0833 -0.0876 -0.6154
22939SOL    HW180876   3.064   0.821   4.207  0.7049  0.6662  0.4739
22939SOL    HW280877   2.964   0.907   4.110  0.2522 -1.5566 -1.0802
22940SOL     OW80878   6.833   2.029   5.633  0.3392  0.8140 -0.3320
22940SOL    HW180879   6.861   2.004   5.541 -0.3926  1.1472 -0.6502
22940SOL    HW280880   6.913   2.037   5.692  0.6783 -1.0719 -0.5254
22941SOL     OW80881   5.472   4.816   8.155 -0.1193 -0.0416  0.2036
22941SOL    HW180882   5.484   4.781   8.062  1.6957  1.0725  0.0053
22941SOL    HW280883   5.531   4.765   8.218  1.3519  1.6060  0.1628
22942SOL     OW80884   7.331   2.593   3.252 -0.9337  0.1185  0.3155
22942SOL    HW180885   7.294   2.549   3.170  0.5834 -0.0822 -0.2862
22942SOL    HW280886   7.289   2.553   3.333 -2.7532  0.5856 -0.3530
22943SOL     OW80887   9.301   4.012   4.079  0.7979  0.4050 -0.3705
22943SOL    HW180888   9.252   4.093   4.047  1.0616  0.6960 -0.0352
22943SOL    HW280889   9.263   3.931   4.035  0.6940  0.7335 -0.8967
22944SOL     OW80890   9.768   0.157   3.581  0.3143 -0.2855 -0.0959
22944SOL    HW180891   9.749   0.178   3.677 -0.5183  0.5494 -0.4326
22944SOL    HW280892   9.687   0.179   3.526  0.4102 -1.7514 -0.8507
22945SOL     OW80893   8.876   9.576   7.033  0.2195 -0.6830  0.2632
22945SOL    HW180894   8.817   9.495   7.030  0.4292 -0.9212  1.9455
22945SOL    HW280895   8.836   9.644   7.095  1.3139 -0.5384  0.8213
22946SOL     OW80896   8.311   0.709   2.714 -0.6675  0.0653  0.3992
22946SOL    HW180897   8.263   0.635   2.666 -0.0882  0.7253 -1.2351
22946SOL    HW280898   8.409   0.691   2.713 -0.4850  1.1063 -0.4491
22947SOL     OW80899   1.188   8.581   5.393  0.3130  0.1869 -0.3698
22947SOL    HW180900   1.276   8.628   5.393  1.8364 -2.5121  2.3174
22947SOL    HW280901   1.122   8.634   5.447  0.8713  1.1234 -0.5887
22948SOL     OW80902   3.442   1.895   6.507 -0.2912 -0.0859  0.1203
22948SOL    HW180903   3.355   1.939   6.528  0.8052  0.8732  2.7517
22948SOL    HW280904   3.453   1.813   6.563 -0.3655 -1.3370 -1.6423
22949SOL     OW80905   2.764   4.327   8.731  0.7171 -0.0897  0.1623
22949SOL    HW180906   2.738   4.246   8.679 -1.1503 -0.0687  1.0423
22949SOL    HW280907   2.835   4.377   8.681  2.0098 -2.3330 -0.3209
22950SOL     OW80908   4.247   6.162   1.632  0.1687  0.0810 -0.6095
22950SOL    HW180909   4.162   6.109   1.634  0.2276 -0.0265 -0.9310
22950SOL    HW280910   4.320   6.107   1.591  0.5032  0.0164  0.0541
22951SOL     OW80911   7.811   2.082   3.776  0.3569 -0.2997  0.3833
22951SOL    HW180912   7.799   2.108   3.871  1.5084 -1.0926  0.7463
22951SOL    HW280913   7.723   2.050   3.739 -0.3115  0.9509  0.8805
22952SOL     OW80914   0.709   5.623   0.080  0.4307 -0.5435  0.0809
22952SOL    HW180915   0.703   5.648   0.177  1.6533  2.9319 -0.6452
22952SOL    HW280916   0.805   5.615   0.054  0.0992 -1.9983 -0.7470
22953SOL     OW80917   6.003   9.404   6.164 -0.1870 -0.4273 -0.5001
22953SOL    HW180918   5.999   9.349   6.247  1.3922 -0.5549 -0.4995
22953SOL    HW280919   6.038   9.348   6.089  1.0948  0.4761 -0.5856
22954SOL     OW80920   3.698   3.675   2.362  0.4029 -0.0202  0.4344
22954SOL    HW180921   3.724   3.709   2.453 -1.1751  2.0545  0.1385
22954SOL    HW280922   3.662   3.751   2.307 -1.7342 -1.8735 -0.8011
22955SOL     OW80923   8.774   7.230   6.438  0.0907  0.5970 -0.1698
22955SOL    HW180924   8.840   7.155   6.438 -1.1163 -0.4751 -0.7979
22955SOL    HW280925   8.704   7.213   6.508  0.1467  1.4525  0.1081
22956SOL     OW80926   1.509   0.917   1.422 -0.4458  0.2643  1.4435
22956SOL    HW180927   1.484   0.899   1.327  0.1367 -1.9155  1.6760
22956SOL    HW280928   1.580   0.987   1.426 -1.3033  1.2179  0.3640
22957SOL     OW80929   5.753   3.468   2.392 -0.1023 -0.2681 -0.5100
22957SOL    HW180930   5.808   3.444   2.472  1.1047  0.0435 -1.2217
22957SOL    HW280931   5.765   3.565   2.371 -0.7105 -0.2614 -0.8418
22958SOL     OW80932   9.947   6.133   7.606 -0.1371  0.3145  0.5768
22958SOL    HW180933   9.976   6.039   7.588 -0.7889  0.2551 -0.1862
22958SOL    HW280934  10.004   6.196   7.553  0.2596  0.3535  1.0405
22959SOL     OW80935   8.455   8.648   0.162  0.4570 -0.5409  0.1741
22959SOL    HW180936   8.435   8.610   0.252 -0.6030 -0.6291 -0.0909
22959SOL    HW280937   8.384   8.619   0.098 -0.5384  2.1416  0.0361
22960SOL     OW80938   6.617   6.474   0.587  0.6456  0.3945 -0.0315
22960SOL    HW180939   6.647   6.407   0.519  1.6915  0.7250  0.1000
22960SOL    HW280940   6.697   6.522   0.624 -0.1495  2.2250 -0.6613
22961SOL     OW80941   7.628   4.109   1.943  0.5609 -0.3744 -0.3381
22961SOL    HW180942   7.719   4.099   1.983  0.3603 -0.9632 -0.0326
22961SOL    HW280943   7.622   4.197   1.895  1.2726 -0.3171 -0.3188
22962SOL     OW80944   5.346   7.807   7.575 -0.3851 -0.4109 -0.5919
22962SOL    HW180945   5.406   7.887   7.586 -1.8458  0.5826  0.3342
22962SOL    HW280946   5.400   7.724   7.583  0.9858  0.4698 -0.4610
22963SOL     OW80947   9.115   9.531   9.446 -0.0764  0.3676 -0.1738
22963SOL    HW180948   9.143   9.601   9.380  1.0594 -2.1282 -2.4426
22963SOL    HW280949   9.025   9.495   9.420 -0.2021  0.2779  0.3885
22964SOL     OW80950   9.521   3.105   2.622 -0.2227  0.3007 -0.2816
22964SOL    HW180951   9.476   3.138   2.705 -0.3073 -0.8808  0.1578
22964SOL    HW280952   9.453   3.097   2.548 -0.3470  0.3836 -0.1765
22965SOL     OW80953   8.119   9.133   9.058  0.2274 -0.0846 -0.0041
22965SOL    HW180954   8.072   9.198   9.117 -1.5329  1.4251 -2.9621
22965SOL    HW280955   8.073   9.044   9.063  0.7341 -0.2747  1.6495
22966SOL     OW80956   2.413   6.611   8.630 -0.7491 -0.1238 -0.6043
22966SOL    HW180957   2.502   6.576   8.600 -0.8384 -0.9129  0.0237
22966SOL    HW280958   2.348   6.604   8.554 -0.1345  1.0053 -1.2504
22967SOL     OW80959   3.894   7.811   3.674  0.3743 -0.1117  0.4415
22967SOL    HW180960   3.918   7.805   3.577  1.0262 -1.4616  0.6750
22967SOL    HW280961   3.828   7.885   3.687 -0.2847 -0.3885 -1.1451
22968SOL     OW80962   2.010   5.304   9.492  0.0115 -0.3611 -0.2974
22968SOL    HW180963   2.026   5.389   9.442  1.3913 -1.5355 -1.8998
22968SOL    HW280964   2.097   5.257   9.507 -0.4318 -0.3728  2.6776
22969SOL     OW80965   2.867   1.281   7.287 -0.8602 -0.1589 -0.3550
22969SOL    HW180966   2.886   1.372   7.249  0.4206 -0.7433 -1.1294
22969SOL    HW280967   2.789   1.240   7.240  0.5583 -0.7790 -2.2355
22970SOL     OW80968   9.977   5.555   5.251  0.0225 -0.6078  0.0343
22970SOL    HW180969   9.933   5.485   5.307  0.7509  0.0442  1.4405
22970SOL    HW280970  10.057   5.515   5.204 -0.1687 -0.9686  0.0133
22971SOL     OW80971   2.480   3.846   9.828  0.3339 -0.1638  0.1195
22971SOL    HW180972   2.428   3.894   9.757  0.3646 -0.4234 -0.0834
22971SOL    HW280973   2.420   3.778   9.871 -0.6795  2.2436  2.6451
22972SOL     OW80974   8.884   3.479   7.938 -0.0053  0.0146 -0.0454
22972SOL    HW180975   8.849   3.386   7.927  1.3057 -0.3223 -1.6818
22972SOL    HW280976   8.808   3.543   7.945 -0.9176 -1.1759  1.1508
22973SOL     OW80977   1.350   3.175   7.810 -0.4542  0.8306 -0.0946
22973SOL    HW180978   1.328   3.177   7.907  0.5878  1.4606  0.1375
22973SOL    HW280979   1.339   3.266   7.771  0.8717  0.9714 -0.1594
22974SOL     OW80980   9.049   7.545   1.999  0.5257 -0.1733 -0.9497
22974SOL    HW180981   8.960   7.580   2.025  1.1579  0.9061 -0.2034
22974SOL    HW280982   9.119   7.585   2.058  1.3324 -2.2248 -0.4830
22975SOL     OW80983   2.600   5.645   9.423  0.6493  0.1083  0.0691
22975SOL    HW180984   2.520   5.602   9.465 -0.5482  1.0587 -1.1755
22975SOL    HW280985   2.653   5.575   9.375 -0.8798 -0.1444 -1.3122
22976SOL     OW80986   1.584   9.239   7.981 -1.0884  0.2350  0.4209
22976SOL    HW180987   1.602   9.249   7.883 -0.7013  0.0599  0.4745
22976SOL    HW280988   1.558   9.145   8.002  2.8065 -0.7670  1.1073
22977SOL     OW80989   7.215   7.970   6.588  0.1886 -0.1493  0.0564
22977SOL    HW180990   7.282   7.999   6.520 -0.2360 -0.5106 -0.5269
22977SOL    HW280991   7.126   7.960   6.544 -0.1702 -0.0180  0.7496
22978SOL     OW80992   5.436   9.678   7.703 -0.3983 -0.3408  0.6272
22978SOL    HW180993   5.493   9.598   7.721  0.8861  0.5841  0.7601
22978SOL    HW280994   5.415   9.683   7.605 -1.1450 -1.2654  0.7341
22979SOL     OW80995   9.061   2.176   7.311 -0.2803 -0.6021  0.3317
22979SOL    HW180996   8.977   2.219   7.344 -0.9665 -0.2761 -1.7669
22979SOL    HW280997   9.038   2.101   7.250  0.9754 -0.6778 -0.0614
22980SOL     OW80998   2.695   9.611   8.632  0.0562  0.3245 -0.0957
22980SOL    HW180999   2.732   9.519   8.619  1.4175  0.3471  3.2109
22980SOL    HW281000   2.622   9.608   8.701  0.5370  1.8223  0.4886
22981SOL     OW81001   4.999   6.075   2.523  0.5969 -0.2344 -0.5538
22981SOL    HW181002   5.085   6.086   2.474  0.0465  1.0425 -1.2517
22981SOL    HW281003   5.017   6.072   2.622  1.3877  0.5885 -0.6675
22982SOL     OW81004   9.622   1.328   0.986 -0.5080  0.3655 -0.0399
22982SOL    HW181005   9.667   1.239   0.977 -0.8594  0.2869 -1.0677
22982SOL    HW281006   9.526   1.319   0.962 -1.2184  0.4275  2.6470
22983SOL     OW81007   0.140   2.696   7.001 -0.5226  0.5940 -0.0354
22983SOL    HW181008   0.219   2.755   6.986  0.2584 -0.5909 -0.5501
22983SOL    HW281009   0.073   2.745   7.058  1.1968  1.0807  1.6301
22984SOL     OW81010   1.038   1.111   3.037 -0.0162  0.4870 -0.5118
22984SOL    HW181011   0.994   1.026   3.067 -0.8909  1.0492 -0.1603
22984SOL    HW281012   1.118   1.130   3.093  0.9585 -0.7895 -1.4482
22985SOL     OW81013   7.097   7.812   4.738 -0.4005 -0.3325  0.2191
22985SOL    HW181014   7.153   7.744   4.691 -0.4700  0.7992 -1.5626
22985SOL    HW281015   7.073   7.779   4.829 -1.3889 -3.1615 -1.0229
22986SOL     OW81016   7.054   5.569   0.281  0.3934  0.3207 -0.3810
22986SOL    HW181017   7.045   5.474   0.311  0.9744 -0.0535 -1.3595
22986SOL    HW281018   7.132   5.576   0.218  1.4275  1.7658  1.0293
22987SOL     OW81019   8.974   8.476   8.543 -0.4400  0.2577 -0.6848
22987SOL    HW181020   8.948   8.520   8.629 -0.2172 -1.8479  0.4889
22987SOL    HW281021   8.928   8.522   8.467 -0.7322  2.0710  0.5402
22988SOL     OW81022   0.723   2.491   2.165  0.1314  0.4675 -0.0234
22988SOL    HW181023   0.692   2.490   2.260  2.8631  0.4684  0.8972
22988SOL    HW281024   0.729   2.397   2.131 -0.5171  0.4499 -0.0982
22989SOL     OW81025   2.765   6.257   0.221 -0.1019  0.2638 -0.0952
22989SOL    HW181026   2.775   6.163   0.254  1.7991  0.4122 -0.2011
22989SOL    HW281027   2.805   6.320   0.287  1.5417  0.7516 -1.5367
22990SOL     OW81028   9.336   0.255   9.804 -0.1274  0.1001  0.3791
22990SOL    HW181029   9.307   0.332   9.747  0.1997 -0.5834 -0.7280
22990SOL    HW281030   9.270   0.181   9.795  1.2241 -0.9704 -1.1276
22991SOL     OW81031   4.643   8.353   1.460  0.1173 -0.4181 -0.6060
22991SOL    HW181032   4.730   8.358   1.510  1.0628  0.9573 -2.3063
22991SOL    HW281033   4.661   8.333   1.364 -1.5524 -1.3224 -0.7542
22992SOL     OW81034   4.742   9.515   4.378  0.2874  0.7237  0.7345
22992SOL    HW181035   4.685   9.580   4.428  0.9351  0.8514  1.3048
22992SOL    HW281036   4.739   9.426   4.423  1.6220  1.0798  1.5579
22993SOL     OW81037   3.821   8.247   3.811  0.0930  0.3608  0.1131
22993SOL    HW181038   3.791   8.203   3.895 -1.5471 -1.9024 -1.5959
22993SOL    HW281039   3.921   8.258   3.813  0.2137 -0.9224  1.7536
22994SOL     OW81040   1.934   2.058   4.537  0.1412  0.2551 -0.4427
22994SOL    HW181041   1.933   1.974   4.592  0.4153  0.4742 -0.0996
22994SOL    HW281042   2.022   2.066   4.490  0.9865  1.4826  1.2992
22995SOL     OW81043   7.298   6.412   5.440 -0.2307  0.5077 -0.6224
22995SOL    HW181044   7.388   6.371   5.422  0.8211  2.7476 -0.7035
22995SOL    HW281045   7.226   6.348   5.414  1.3166 -1.9217  0.7796
22996SOL     OW81046   1.632   0.140   5.273 -0.5924 -0.4242  0.3187
22996SOL    HW181047   1.630   0.106   5.178  0.0674 -0.1472  0.2051
22996SOL    HW281048   1.602   0.067   5.334  1.7732 -1.5713  0.1641
22997SOL     OW81049   8.323   8.887   2.653 -0.4459  0.0484 -0.1443
22997SOL    HW181050   8.298   8.790   2.657  0.3863 -0.1342  0.6959
22997SOL    HW281051   8.420   8.895   2.630 -0.7699  0.7168 -1.3585
22998SOL     OW81052   5.527   5.791   2.849 -0.2315  0.2454  0.3171
22998SOL    HW181053   5.598   5.850   2.812 -0.7334  1.6509  1.5381
22998SOL    HW281054   5.437   5.824   2.819 -0.4328 -1.0861 -0.6182
22999SOL     OW81055   7.410   6.437   2.067 -0.2680  0.0466 -0.4014
22999SOL    HW181056   7.469   6.495   2.124  0.5877  1.8094 -3.0162
22999SOL    HW281057   7.331   6.490   2.037 -0.9129 -0.9930 -0.5654
23000SOL     OW81058   5.600   3.150   0.908  0.2073  0.0204  0.2560
23000SOL    HW181059   5.670   3.079   0.920  0.3308  0.1747  0.4437
23000SOL    HW281060   5.510   3.107   0.902  0.3732 -0.2186 -0.5440
23001SOL     OW81061   1.647   0.861   2.820  0.1207 -0.1944 -0.5797
23001SOL    HW181062   1.666   0.927   2.747  1.8199 -0.6692 -0.5949
23001SOL    HW281063   1.726   0.801   2.831 -0.0304  0.0058  1.8000
23002SOL     OW81064   2.511   4.720   2.411 -0.4034  0.0273  0.5898
23002SOL    HW181065   2.561   4.750   2.329 -1.4049  0.2830  0.0613
23002SOL    HW281066   2.473   4.800   2.458 -0.1788 -0.1526  1.0679
23003SOL     OW81067   2.622   5.736   3.172 -0.0946  0.0801  0.3833
23003SOL    HW181068   2.635   5.804   3.100 -2.0894  2.3767  2.1191
23003SOL    HW281069   2.701   5.675   3.174  2.2234  2.8960 -0.6465
23004SOL     OW81070   9.300   7.353   7.987  0.1288 -0.0299  0.2154
23004SOL    HW181071   9.244   7.414   8.043 -0.0363 -1.0959  1.2337
23004SOL    HW281072   9.384   7.400   7.962 -0.5857  1.0861 -0.1347
23005SOL     OW81073   1.743   5.086   0.546  0.5636 -0.2041  0.6440
23005SOL    HW181074   1.835   5.048   0.541  0.6571 -0.0416  1.1450
23005SOL    HW281075   1.733   5.160   0.480  0.2638 -1.3487 -0.6198
23006SOL     OW81076   9.781   3.458   3.024 -0.0979 -0.0590  0.4098
23006SOL    HW181077   9.867   3.454   3.075  0.0185 -0.6230  0.1787
23006SOL    HW281078   9.736   3.545   3.041  2.0989  1.6086 -2.0301
23007SOL     OW81079   1.647   8.524   1.121 -0.1918  1.1048  0.2558
23007SOL    HW181080   1.590   8.462   1.068  0.3597  1.9932 -1.4216
23007SOL    HW281081   1.671   8.481   1.208  0.6664 -1.2772 -1.1090
23008SOL     OW81082   1.952   3.766   1.246  0.0950 -0.3118  0.1677
23008SOL    HW181083   1.878   3.739   1.308  0.0408  1.1279  0.7693
23008SOL    HW281084   1.969   3.693   1.181 -1.1096 -1.1155  0.7198
23009SOL     OW81085   2.964   9.549   1.809  0.1186  0.2649  0.0241
23009SOL    HW181086   2.866   9.532   1.800 -0.2793  1.6121  1.6150
23009SOL    HW281087   3.010   9.468   1.845 -0.1477 -0.9111 -2.1962
23010SOL     OW81088   3.153   2.348   4.678  0.0132  0.0970 -0.5072
23010SOL    HW181089   3.069   2.382   4.636 -0.0911  1.0643  0.4869
23010SOL    HW281090   3.232   2.382   4.626 -0.1695 -0.1321 -0.9437
23011SOL     OW81091   2.499   7.004   9.702  0.1245  0.4982  0.0813
23011SOL    HW181092   2.502   7.055   9.788 -0.1609  0.6129  0.0239
23011SOL    HW281093   2.417   7.030   9.650  0.3466  0.5037 -0.2714
23012SOL     OW81094   9.858   4.600   6.512 -0.4903 -0.2842 -0.0615
23012SOL    HW181095   9.766   4.611   6.547 -0.0919 -0.0333  0.9070
23012SOL    HW281096   9.865   4.511   6.465 -0.8738 -0.8638  0.9627
23013SOL     OW81097   8.759   5.000   8.723  0.5240  0.3714  0.0823
23013SOL    HW181098   8.791   5.054   8.645  1.1162 -0.9053 -0.5739
23013SOL    HW281099   8.716   4.916   8.689  0.8720 -0.2349  1.1346
23014SOL     OW81100   9.938   6.012   0.915  0.0130  0.0179 -0.0271
23014SOL    HW181101  10.026   5.966   0.906 -0.6423 -1.3044  0.2902
23014SOL    HW281102   9.943   6.102   0.871  2.2902  1.0362  2.1646
23015SOL     OW81103   5.880   5.776   7.902 -0.2432  0.0194 -0.3062
23015SOL    HW181104   5.840   5.857   7.858  0.0034 -0.4326 -1.3882
23015SOL    HW281105   5.965   5.752   7.856 -0.8742 -1.5059 -0.7154
23016SOL     OW81106   2.187   0.264   0.556 -0.1384 -0.3881  0.2298
23016SOL    HW181107   2.209   0.200   0.482  1.0071  0.4098 -0.1321
23016SOL    HW281108   2.103   0.234   0.601 -0.4526 -1.2933 -0.9128
23017SOL     OW81109   8.895   4.696   0.633 -0.4276 -0.0356 -0.3547
23017SOL    HW181110   8.942   4.660   0.553 -0.2309 -0.8471  0.1235
23017SOL    HW281111   8.948   4.771   0.673  1.0721 -1.7083  0.8743
23018SOL     OW81112   6.846   1.540   8.569  0.3674 -0.1622 -0.1978
23018SOL    HW181113   6.910   1.466   8.585  1.5326  0.6221 -1.1321
23018SOL    HW281114   6.862   1.580   8.479  0.3934  1.8199  0.6371
23019SOL     OW81115   0.578   4.643   1.267  0.0758 -0.2697  0.3515
23019SOL    HW181116   0.579   4.692   1.179 -1.4123 -0.6196  0.1142
23019SOL    HW281117   0.483   4.630   1.296  0.5242 -1.1588  1.4609
23020SOL     OW81118   4.415   2.755   4.671  0.1023 -0.2101  0.1015
23020SOL    HW181119   4.438   2.696   4.594  0.1057 -1.5207  1.0878
23020SOL    HW281120   4.485   2.747   4.742 -1.0017 -0.6597  1.1469
23021SOL     OW81121   6.991   2.688   2.287 -0.2918 -0.2046 -0.2493
23021SOL    HW181122   6.928   2.617   2.256  1.1317 -0.5406 -2.4894
23021SOL    HW281123   6.940   2.773   2.304 -1.5799 -0.9522 -0.2921
23022SOL     OW81124   2.846   5.740   2.866  0.0423 -0.3402  0.7796
23022SOL    HW181125   2.832   5.642   2.880  0.6900 -0.4963  0.3563
23022SOL    HW281126   2.876   5.757   2.773  0.8012  0.1742  1.1077
23023SOL     OW81127   1.707   1.735   7.554 -0.6991 -0.1429 -0.2132
23023SOL    HW181128   1.615   1.772   7.553 -0.5233  0.3189  1.1184
23023SOL    HW281129   1.708   1.650   7.501 -1.5464  0.6218 -1.4973
23024SOL     OW81130   0.985   9.188   8.421 -0.4694  0.7724  0.4932
23024SOL    HW181131   1.007   9.278   8.385  1.9521 -0.4375 -1.1830
23024SOL    HW281132   1.046   9.168   8.498 -0.1092  0.0476  0.0230
23025SOL     OW81133   2.240   7.634   4.867  0.7740 -0.3856 -0.3561
23025SOL    HW181134   2.331   7.673   4.860 -0.4216  2.4753 -0.8760
23025SOL    HW281135   2.225   7.572   4.790  2.2283 -0.7603 -0.3461
23026SOL     OW81136   4.382   8.302   3.171 -0.0149  0.2823  0.5828
23026SOL    HW181137   4.338   8.390   3.156  0.7733  0.7439  0.9923
23026SOL    HW281138   4.477   8.315   3.198 -0.0438 -0.6683  1.1914
23027SOL     OW81139   0.560   7.192   8.852  0.1979 -0.0658 -0.1840
23027SOL    HW181140   0.594   7.271   8.902 -1.1056 -0.8954  2.0654
23027SOL    HW281141   0.621   7.114   8.866  1.1200  0.3252 -1.8596
23028SOL     OW81142   0.403   7.279   9.136 -0.0036 -0.3085 -0.0025
23028SOL    HW181143   0.421   7.182   9.144  0.4503 -0.1654  0.7241
23028SOL    HW281144   0.477   7.324   9.086  0.0057 -0.2607  0.0529
23029SOL     OW81145   2.577   7.166   6.745  0.8860  0.0557  0.5376
23029SOL    HW181146   2.606   7.261   6.748 -0.5584  0.4598  2.7397
23029SOL    HW281147   2.499   7.157   6.682  1.0866  0.2881  0.2524
23030SOL     OW81148   2.511   0.281   6.416  0.0359  0.0788 -0.3105
23030SOL    HW181149   2.529   0.184   6.399  1.0676  0.4361 -1.3465
23030SOL    HW281150   2.413   0.298   6.411 -0.3029 -1.2140  1.5641
23031SOL     OW81151   3.523   0.589   2.812  0.3018  0.8066  0.1325
23031SOL    HW181152   3.578   0.625   2.887  1.9792 -1.8986  0.2451
23031SOL    HW281153   3.569   0.608   2.725 -0.9862  2.7555 -0.1584
23032SOL     OW81154   4.153   2.610   9.743  0.3069  0.2574  0.7207
23032SOL    HW181155   4.108   2.699   9.744 -0.5619 -0.1643  0.5292
23032SOL    HW281156   4.109   2.552   9.674 -0.3300 -0.9115  2.0736
23033SOL     OW81157   8.590   0.410   7.330 -0.1859 -0.3342  0.1016
23033SOL    HW181158   8.640   0.411   7.417 -1.1881 -1.4437  0.7068
23033SOL    HW281159   8.656   0.400   7.255  0.4670 -3.4694  0.9870
23034SOL     OW81160   4.467   3.179   5.305 -0.4267  0.4014 -0.4794
23034SOL    HW181161   4.452   3.276   5.322  0.6149  0.4478  0.2509
23034SOL    HW281162   4.525   3.141   5.377 -0.3016 -0.6189 -1.1008
23035SOL     OW81163   8.726   6.295   5.803 -0.0137  0.2265  0.2153
23035SOL    HW181164   8.652   6.315   5.739 -0.5209 -0.8546  0.4501
23035SOL    HW281165   8.813   6.324   5.763 -0.1864 -1.4876 -1.5009
23036SOL     OW81166   2.911   4.463   2.637 -0.1694  0.1206  0.5173
23036SOL    HW181167   2.863   4.539   2.594  1.9715  0.0338 -2.1442
23036SOL    HW281168   2.987   4.497   2.691 -0.3094 -0.0180  0.8015
23037SOL     OW81169   4.385   3.480   3.141 -0.3143  0.2687 -0.4108
23037SOL    HW181170   4.345   3.390   3.156 -0.9957  0.4855 -0.8530
23037SOL    HW281171   4.455   3.498   3.210  1.2799 -1.4248 -1.5679
23038SOL     OW81172   1.245   7.352   7.645  0.1145 -0.1160  0.6070
23038SOL    HW181173   1.287   7.331   7.733 -0.6050  0.1358  1.0146
23038SOL    HW281174   1.225   7.450   7.641 -1.8307 -0.4929  1.0252
23039SOL     OW81175   6.445   4.956   8.512 -0.0953  0.4108  0.2804
23039SOL    HW181176   6.489   4.946   8.423  0.0509 -0.3643  0.4309
23039SOL    HW281177   6.452   4.869   8.562 -2.2069  0.1284  0.1204
23040SOL     OW81178   4.320   8.189   6.075 -0.4780  0.1084  0.5471
23040SOL    HW181179   4.393   8.121   6.066  0.5246  1.1031  0.9002
23040SOL    HW281180   4.236   8.154   6.035  0.3843 -0.7968 -0.5120
23041SOL     OW81181   3.430   3.900   3.840  0.1324  0.4777 -0.0152
23041SOL    HW181182   3.448   3.808   3.805  2.8217  1.0186 -0.1774
23041SOL    HW281183   3.335   3.924   3.822 -0.7420 -2.4030  0.3802
23042SOL     OW81184   2.744   6.656   3.639 -0.6968 -0.0509  0.4795
23042SOL    HW181185   2.793   6.570   3.623  1.3067  1.3560 -1.3866
23042SOL    HW281186   2.700   6.654   3.728 -0.2530 -2.8167  0.6658
23043SOL     OW81187   7.832   1.073   5.026  0.3339 -0.4706  0.1651
23043SOL    HW181188   7.883   1.151   5.062 -0.3863 -0.4218  1.0924
23043SOL    HW281189   7.894   1.015   4.973  1.0849  0.2334  0.2629
23044SOL     OW81190   9.608   7.253   3.823 -0.2765 -0.3108 -0.6921
23044SOL    HW181191   9.549   7.329   3.800  0.7022  0.2329 -1.4115
23044SOL    HW281192   9.553   7.169   3.830 -1.1335  0.1959 -1.2776
23045SOL     OW81193   8.556   4.554   2.409  0.0184  0.9313  0.0777
23045SOL    HW181194   8.538   4.578   2.505  1.8061 -0.8451  0.8898
23045SOL    HW281195   8.590   4.635   2.361 -1.0935  1.8979  0.8650
23046SOL     OW81196   9.739   8.250   9.056 -0.0026 -0.4436  0.4452
23046SOL    HW181197   9.652   8.233   9.010 -0.0709 -1.2493  0.8676
23046SOL    HW281198   9.807   8.185   9.024  0.7475  0.8891 -0.6922
23047SOL     OW81199   8.291   9.710   8.205 -0.2600 -0.0973 -0.0467
23047SOL    HW181200   8.374   9.752   8.241 -0.0897  0.0710 -0.6330
23047SOL    HW281201   8.315   9.638   8.140 -0.5766  1.4655 -1.9423
23048SOL     OW81202   2.360   5.740   5.653 -0.4047  0.1100 -0.3647
23048SOL    HW181203   2.312   5.686   5.583 -0.1244  1.2578 -1.4666
23048SOL    HW281204   2.396   5.824   5.611  1.9091 -0.3640  0.5889
23049SOL     OW81205   7.393   7.905   4.891 -0.0035  0.0264  0.4370
23049SOL    HW181206   7.414   7.986   4.836  0.8129  0.5190  1.4564
23049SOL    HW281207   7.405   7.823   4.835  1.6087  0.4774  0.1020
23050SOL     OW81208   2.151   0.900   1.994 -0.0971  0.1371  0.0228
23050SOL    HW181209   2.198   0.815   2.018  0.1345  0.4804  0.8036
23050SOL    HW281210   2.106   0.890   1.905  1.3820 -0.2206 -0.6894
23051SOL     OW81211   1.637   9.218   5.964 -0.3074  0.0880  0.0265
23051SOL    HW181212   1.550   9.260   5.937 -0.0972  0.4087 -0.1594
23051SOL    HW281213   1.656   9.239   6.060 -0.9231 -0.8230  0.3466
23052SOL     OW81214   0.120   5.546   2.569  0.4417  0.4597 -0.1314
23052SOL    HW181215   0.175   5.499   2.638  0.2470 -1.2571 -1.1213
23052SOL    HW281216   0.065   5.479   2.519  0.1084  1.7582 -1.5290
23053SOL     OW81217   8.097   7.600   7.460  0.5815 -0.0432  0.3962
23053SOL    HW181218   8.024   7.586   7.528 -1.0107  1.2319 -1.0105
23053SOL    HW281219   8.078   7.545   7.379  0.8057  0.8299 -0.2554
23054SOL     OW81220   3.907   5.025   2.487 -0.1179  0.1331 -0.3691
23054SOL    HW181221   3.992   5.010   2.538  0.3259 -0.8512 -1.3714
23054SOL    HW281222   3.861   4.937   2.473 -1.0485  0.6019 -0.2621
23055SOL     OW81223   5.010   0.616   4.083  0.2861 -0.0066 -0.1764
23055SOL    HW181224   5.009   0.592   3.986  0.1489  1.2674 -0.5079
23055SOL    HW281225   4.955   0.698   4.097 -0.0158 -0.4152  1.0508
23056SOL     OW81226   8.962   9.274   9.077  0.2121 -0.5196 -0.1616
23056SOL    HW181227   9.051   9.276   9.121  1.0112  1.0064 -1.7884
23056SOL    HW281228   8.960   9.341   9.003 -1.7053 -1.7235 -1.2442
23057SOL     OW81229   0.478   4.048   5.554 -0.4578  0.4383  0.0467
23057SOL    HW181230   0.563   4.031   5.604 -1.7323  0.3516  2.1927
23057SOL    HW281231   0.444   4.139   5.576 -1.0359  0.3991 -0.6710
23058SOL     OW81232   3.434   3.707   7.534 -0.6612 -0.1333 -0.5175
23058SOL    HW181233   3.426   3.806   7.547  1.9430  0.2409 -1.5588
23058SOL    HW281234   3.369   3.678   7.463  0.6997  1.3629 -2.4438
23059SOL     OW81235   8.682   3.245   6.999 -0.4848 -0.4077 -0.0266
23059SOL    HW181236   8.590   3.245   7.037  0.3835 -0.0882  2.1015
23059SOL    HW281237   8.699   3.331   6.951 -1.0602 -0.2036  0.1417
23060SOL     OW81238   9.145   9.196   2.262  0.2602 -0.0884 -0.3302
23060SOL    HW181239   9.175   9.258   2.334 -2.5479  1.0677 -0.0818
23060SOL    HW281240   9.115   9.249   2.182 -1.0425 -1.1368 -0.5642
23061SOL     OW81241   1.633   4.733   1.514  0.1048  0.1367  0.7391
23061SOL    HW181242   1.542   4.766   1.540 -0.0822 -0.6298  1.0989
23061SOL    HW281243   1.689   4.809   1.484 -0.7669  0.5753  0.2051
23062SOL     OW81244   2.450   0.296   7.296  0.6849  0.2748  0.3346
23062SOL    HW181245   2.472   0.382   7.343  2.3919 -0.3661  0.7456
23062SOL    HW281246   2.474   0.304   7.200 -1.6303  1.1489 -0.2046
23063SOL     OW81247   2.001   1.781   2.201  0.5138  0.2432 -0.0308
23063SOL    HW181248   1.991   1.879   2.183  0.0667  0.1679 -0.2162
23063SOL    HW281249   1.928   1.751   2.263 -1.5918 -0.7064 -2.8764
23064SOL     OW81250   7.610   4.826   6.467 -0.0480 -0.3690  0.5278
23064SOL    HW181251   7.699   4.787   6.444 -0.2629 -2.3138  2.7885
23064SOL    HW281252   7.547   4.811   6.392  1.0459 -0.5696 -0.3692
23065SOL     OW81253   8.548   4.059   0.613 -1.0221 -0.1143 -0.2813
23065SOL    HW181254   8.633   4.092   0.573 -0.1565 -1.0827  0.7219
23065SOL    HW281255   8.498   4.005   0.545 -0.7919  0.3638 -0.8352
23066SOL     OW81256   4.048   4.666   4.331 -0.1718  0.5767  0.4257
23066SOL    HW181257   4.037   4.579   4.379 -0.8064  1.1819  1.3929
23066SOL    HW281258   3.958   4.703   4.308  0.1196  0.2500 -1.3429
23067SOL     OW81259   1.327   3.247   6.793 -0.6203  0.0154  0.5498
23067SOL    HW181260   1.231   3.228   6.771 -0.3672 -0.9645  0.2972
23067SOL    HW281261   1.336   3.343   6.820 -1.8139 -0.0879  1.3650
23068SOL     OW81262   2.545   4.738   3.032  0.1969  0.4611  0.3193
23068SOL    HW181263   2.519   4.641   3.035 -0.1405  0.5760  1.3406
23068SOL    HW281264   2.599   4.760   3.113 -0.6759  1.3984  0.6517
23069SOL     OW81265   8.807   3.630   5.710 -0.0159 -0.1766  0.0145
23069SOL    HW181266   8.878   3.651   5.778  0.2554 -3.8107  0.9318
23069SOL    HW281267   8.718   3.621   5.757 -0.1510 -0.8593 -0.3699
23070SOL     OW81268   4.487   1.153   0.203 -0.0797 -0.2613 -0.0059
23070SOL    HW181269   4.507   1.078   0.140  0.5012 -0.5223  0.4730
23070SOL    HW281270   4.409   1.129   0.261  0.4071 -0.7032  0.4728
23071SOL     OW81271   1.000   2.075   6.646  0.0697  0.2275  0.6028
23071SOL    HW181272   0.997   2.113   6.738  2.1170 -4.0733  2.6157
23071SOL    HW281273   1.096   2.064   6.618 -0.4363 -2.1280 -0.3405
23072SOL     OW81274   2.528   6.993   7.629  0.7307  0.0338 -0.1690
23072SOL    HW181275   2.433   6.991   7.600  0.8289  2.8122 -0.8051
23072SOL    HW281276   2.533   7.019   7.726  0.9126  2.2053 -0.7370
23073SOL     OW81277   6.859   9.971   2.342  0.0928 -0.7210  0.5860
23073SOL    HW181278   6.884   9.876   2.356 -1.7176 -1.3261 -0.1455
23073SOL    HW281279   6.760   9.981   2.353  0.0853  0.8272 -0.6827
23074SOL     OW81280   1.360   8.535   2.118  0.4671 -0.3511 -0.1757
23074SOL    HW181281   1.389   8.451   2.164 -0.1411  0.2553  1.3398
23074SOL    HW281282   1.331   8.513   2.025  0.3541 -1.8207  0.1902
23075SOL     OW81283   6.327   4.601   1.100 -0.1082 -0.2893  0.4335
23075SOL    HW181284   6.299   4.527   1.161  0.1021 -0.3599  0.4433
23075SOL    HW281285   6.332   4.686   1.152  1.4158 -0.5988  0.8318
23076SOL     OW81286   7.514   8.816   3.270  0.2484  0.2389  0.0655
23076SOL    HW181287   7.569   8.787   3.348  0.4337  1.3783  0.3599
23076SOL    HW281288   7.544   8.768   3.188  0.9406  0.0384  0.4352
23077SOL     OW81289   9.010   8.367   6.484 -0.4468 -0.1610  0.0329
23077SOL    HW181290   9.054   8.278   6.492  0.6782  0.4939  1.6140
23077SOL    HW281291   8.913   8.359   6.504 -0.2842 -0.9882  0.5090
23078SOL     OW81292   9.333   3.140   8.316 -0.6705 -0.1448  0.0450
23078SOL    HW181293   9.312   3.229   8.276 -0.7760 -0.0667  0.2685
23078SOL    HW281294   9.409   3.098   8.266 -0.1668  0.3714  0.3606
23079SOL     OW81295   0.878   7.668   6.184 -0.7534 -0.0100 -0.2715
23079SOL    HW181296   0.964   7.717   6.166 -0.0209 -0.2524  2.2617
23079SOL    HW281297   0.895   7.570   6.180 -1.2176 -0.0621 -1.0184
23080SOL     OW81298   9.782   2.445   3.789 -0.0180 -0.6129  0.4051
23080SOL    HW181299   9.807   2.541   3.798 -0.4274 -0.5632  0.9897
23080SOL    HW281300   9.691   2.429   3.827 -1.3778 -0.6024 -2.7039
23081SOL     OW81301   8.505   0.830   1.045 -0.6452  0.1555 -0.3550
23081SOL    HW181302   8.603   0.845   1.056 -0.2488 -0.7721 -2.4856
23081SOL    HW281303   8.459   0.848   1.132  1.6719 -1.5959  1.3009
23082SOL     OW81304   8.886   5.491   9.474 -0.1868 -0.4241 -0.4241
23082SOL    HW181305   8.899   5.542   9.560  3.3437  1.8391 -2.1519
23082SOL    HW281306   8.791   5.496   9.446 -0.7324  1.6708  1.6629
23083SOL     OW81307   8.558   6.989   1.035 -0.0616  0.1018 -0.7076
23083SOL    HW181308   8.657   6.977   1.036  0.0100  0.2976  3.4935
23083SOL    HW281309   8.534   7.069   0.980  2.4757  2.2581  1.1723
23084SOL     OW81310   1.205   5.750   3.777 -0.2939 -0.3077  0.1554
23084SOL    HW181311   1.304   5.765   3.776 -0.2298 -0.6446  0.8744
23084SOL    HW281312   1.185   5.653   3.759 -0.4729 -0.2977  0.2892
23085SOL     OW81313   9.028   4.354   2.478 -0.8664 -0.1470  0.0036
23085SOL    HW181314   9.074   4.413   2.545 -3.1336  0.5562  0.9979
23085SOL    HW281315   9.082   4.271   2.464  1.4526  1.2971 -0.0257
23086SOL     OW81316   2.083   7.783   1.804  0.5068  0.1986 -0.2803
23086SOL    HW181317   2.089   7.750   1.710 -0.5384  1.5558 -0.8331
23086SOL    HW281318   2.003   7.841   1.814 -1.6908 -3.0559  2.4098
23087SOL     OW81319   9.233   7.987   2.059 -0.4109 -0.1530 -0.0730
23087SOL    HW181320   9.290   7.917   2.102  0.8930  1.5375  0.9754
23087SOL    HW281321   9.145   7.946   2.032 -0.2454 -1.8549  1.8414
23088SOL     OW81322   0.447   6.305   7.244 -0.3310  0.1034  0.1679
23088SOL    HW181323   0.461   6.361   7.162 -1.4302 -0.8256 -0.6861
23088SOL    HW281324   0.356   6.262   7.239  0.7005 -2.1985  0.5106
23089SOL     OW81325   0.326   2.227   1.111  0.1212 -0.1091  0.3420
23089SOL    HW181326   0.407   2.223   1.053 -0.6226 -1.4327 -0.6587
23089SOL    HW281327   0.331   2.155   1.180 -0.4475 -0.5510 -0.0716
23090SOL     OW81328   9.936   0.741   4.687 -0.3026  0.9419  0.2306
23090SOL    HW181329   9.888   0.825   4.664 -2.1882  0.2553  1.5817
23090SOL    HW281330   9.876   0.663   4.671  0.7452 -0.0129  0.8702
23091SOL     OW81331   5.666   7.888   5.414 -0.4589 -0.8099  0.9252
23091SOL    HW181332   5.566   7.884   5.423 -0.7694  0.6628 -1.2336
23091SOL    HW281333   5.692   7.979   5.380  1.3830 -1.9639 -0.9031
23092SOL     OW81334   0.306   3.040   6.450 -0.0881 -0.0583  0.1873
23092SOL    HW181335   0.325   2.942   6.444 -0.1832 -0.0265 -0.6274
23092SOL    HW281336   0.359   3.089   6.381 -0.2543  0.4358  0.4077
23093SOL     OW81337   2.781   0.751   4.776 -0.2662  0.1154 -0.2431
23093SOL    HW181338   2.836   0.835   4.775 -0.4492  0.2247 -0.9891
23093SOL    HW281339   2.810   0.692   4.701 -0.0243 -0.5668  0.3833
23094SOL     OW81340   9.116   9.019   6.679 -0.4038  0.3709 -0.0676
23094SOL    HW181341   9.164   9.077   6.745 -1.4963  0.2856  0.8025
23094SOL    HW281342   9.028   8.990   6.716  0.7299 -3.0680  0.1381
23095SOL     OW81343   8.322   8.115   6.779  0.4481 -0.5452  0.0903
23095SOL    HW181344   8.261   8.037   6.766  0.1763 -0.8516  2.8733
23095SOL    HW281345   8.413   8.083   6.804  0.0482 -0.0124  2.3877
23096SOL     OW81346   9.901   3.963   8.527  0.2993  0.7071 -0.4285
23096SOL    HW181347   9.896   3.884   8.587  1.1367  0.9020 -0.0911
23096SOL    HW281348   9.852   4.040   8.569 -0.3706  0.4170 -0.6775
23097SOL     OW81349   8.159   5.679   7.119 -0.1479  0.9581 -0.3534
23097SOL    HW181350   8.213   5.697   7.201 -0.8129  1.0531  0.0684
23097SOL    HW281351   8.172   5.584   7.090 -0.9654  0.5194  0.6638
23098SOL     OW81352   3.370   8.393   2.523  0.1751  0.1697 -0.4578
23098SOL    HW181353   3.310   8.319   2.555 -0.0585  0.0485 -1.1649
23098SOL    HW281354   3.404   8.371   2.431 -0.5360  1.3252 -0.9998
23099SOL     OW81355   0.355   0.070   5.309 -0.4109  0.2215 -0.2498
23099SOL    HW181356   0.452   0.089   5.320 -0.7618  1.6855  0.5018
23099SOL    HW281357   0.340  -0.028   5.303  1.0182 -0.0492  0.5340
23100SOL     OW81358   2.217   8.550   9.637  0.2188  0.5214  0.3424
23100SOL    HW181359   2.130   8.559   9.589  0.4705  1.5035  0.0551
23100SOL    HW281360   2.246   8.640   9.670  1.3915  0.2872 -0.0363
23101SOL     OW81361   1.538   5.934   4.879  0.0320  0.9247 -0.7614
23101SOL    HW181362   1.520   6.029   4.905  0.2836  0.5365  0.8751
23101SOL    HW281363   1.602   5.893   4.944 -0.4541 -0.5101 -1.1731
23102SOL     OW81364   1.354   2.988   1.252 -0.7647  0.3049  0.1819
23102SOL    HW181365   1.385   3.083   1.244 -0.5707  0.4220  2.1556
23102SOL    HW281366   1.405   2.941   1.323 -0.1410 -1.6201 -1.4826
23103SOL     OW81367   8.559   1.898   4.672  0.5324 -0.3195  0.0874
23103SOL    HW181368   8.491   1.882   4.599  0.0843 -1.4264  0.7352
23103SOL    HW281369   8.512   1.913   4.758  1.1165 -1.5808  0.6369
23104SOL     OW81370   8.746   0.804   4.050  0.3356  0.1996 -0.5374
23104SOL    HW181371   8.711   0.716   4.017  1.0755 -0.6664  0.9736
23104SOL    HW281372   8.682   0.842   4.117  1.8557 -1.0493  1.7002
23105SOL     OW81373   5.273   9.837   5.593  0.0229  0.2217 -0.3419
23105SOL    HW181374   5.315   9.928   5.589  0.0085  0.2131 -0.6549
23105SOL    HW281375   5.281   9.792   5.505  3.2213 -1.5231  0.7810
23106SOL     OW81376   6.552   1.870   8.827  0.3038 -0.1500  0.4264
23106SOL    HW181377   6.542   1.774   8.801  0.5405  0.0311 -0.3738
23106SOL    HW281378   6.510   1.885   8.916  1.4104 -1.2735  1.1672
23107SOL     OW81379   3.782   4.073   6.430  0.0619  0.3945 -0.1866
23107SOL    HW181380   3.695   4.078   6.381 -0.8426  1.5092  1.4722
23107SOL    HW281381   3.856   4.062   6.364 -1.1923  0.9423 -1.7396
23108SOL     OW81382   2.361   8.440   0.578  0.1834  0.3553 -0.3161
23108SOL    HW181383   2.347   8.413   0.482  1.3287  1.1908 -0.7327
23108SOL    HW281384   2.302   8.516   0.601 -0.1687  0.0847 -0.3237
23109SOL     OW81385   5.987   0.036   1.851  0.0230 -0.0971 -0.0616
23109SOL    HW181386   6.025   0.066   1.938 -0.4771 -1.1522  0.5285
23109SOL    HW281387   6.032  -0.049   1.822 -1.1638 -0.8138  0.1531
23110SOL     OW81388   5.773   8.346   6.577  0.0933 -0.3574 -0.0647
23110SOL    HW181389   5.677   8.344   6.549  0.6445  0.6317 -2.0646
23110SOL    HW281390   5.783   8.409   6.655 -0.9010 -0.6635  0.3249
23111SOL     OW81391   3.925   4.044   4.543  0.5730  0.1895 -0.1975
23111SOL    HW181392   3.906   4.113   4.612  0.2886 -1.1805  1.1332
23111SOL    HW281393   3.960   4.088   4.460  0.7088  1.8801  0.7332
23112SOL     OW81394   9.052   2.625   7.463  0.0701  0.0436  0.3056
23112SOL    HW181395   9.026   2.722   7.462 -0.6116 -0.1388 -1.3686
23112SOL    HW281396   9.133   2.611   7.407 -0.7116 -0.5738 -0.6927
23113SOL     OW81397   3.867   6.375   8.462  0.3517 -0.2134  0.2235
23113SOL    HW181398   3.838   6.309   8.393 -0.1485 -0.6655  0.8563
23113SOL    HW281399   3.848   6.338   8.553  1.6010  0.1074  0.6179
23114SOL     OW81400   1.679   2.450   3.456  0.4854  0.7420  0.5047
23114SOL    HW181401   1.638   2.460   3.366  0.8649 -0.6762  0.1567
23114SOL    HW281402   1.767   2.498   3.458  1.2846 -0.6457 -0.4438
23115SOL     OW81403   0.625   5.606   4.380  0.6043  0.6734 -0.0635
23115SOL    HW181404   0.663   5.699   4.384 -0.0409  1.0662 -2.1954
23115SOL    HW281405   0.694   5.544   4.342  0.6154  0.5066  0.2246
23116SOL     OW81406   5.321   4.543   2.124  0.3355 -0.6600 -0.3860
23116SOL    HW181407   5.352   4.469   2.065  2.4422 -0.5075  0.4726
23116SOL    HW281408   5.272   4.505   2.203 -2.1544 -0.8812 -2.0088
23117SOL     OW81409   5.033   8.604   7.123  0.1707  1.0957 -0.1685
23117SOL    HW181410   4.954   8.545   7.106  0.6527 -0.2639  2.0858
23117SOL    HW281411   5.117   8.554   7.104  0.6482  0.3047  3.6114
23118SOL     OW81412   1.818   5.318   2.637 -0.9505  0.1483 -0.3020
23118SOL    HW181413   1.828   5.411   2.602  0.1587  0.3852  0.6186
23118SOL    HW281414   1.759   5.319   2.718 -0.8915  0.0659 -0.2582
23119SOL     OW81415   7.791   5.157   1.234  0.1340  0.0286 -0.2459
23119SOL    HW181416   7.793   5.255   1.254  2.2919 -0.1545  0.6665
23119SOL    HW281417   7.885   5.121   1.238 -0.3807 -1.6861 -2.5486
23120SOL     OW81418   2.677   9.731   8.382  0.5730  0.1953  0.2300
23120SOL    HW181419   2.608   9.803   8.386 -0.3412 -0.6953  0.7418
23120SOL    HW281420   2.685   9.687   8.472  0.9540 -0.4987 -0.1343
23121SOL     OW81421   2.494   6.400   3.713  0.3610  0.1844 -0.1043
23121SOL    HW181422   2.542   6.321   3.674 -1.9232 -0.4680 -1.6844
23121SOL    HW281423   2.535   6.484   3.676 -1.1375 -0.4046 -3.3587
23122SOL     OW81424   8.454   8.386   5.650  0.3394 -0.0489 -0.2767
23122SOL    HW181425   8.510   8.453   5.700  1.7698 -1.1545 -0.3802
23122SOL    HW281426   8.373   8.432   5.614  2.0517  2.0218 -1.6558
23123SOL     OW81427   7.981   3.007   7.912  0.3314  0.6843 -0.8724
23123SOL    HW181428   8.016   2.974   8.000 -1.0110  0.9138 -0.2313
23123SOL    HW281429   8.036   2.969   7.838  0.8870 -0.2997  0.0184
23124SOL     OW81430   8.338   7.247   0.621 -0.1374  0.1225  0.2463
23124SOL    HW181431   8.334   7.299   0.535 -1.5633  1.9103  1.3587
23124SOL    HW281432   8.272   7.172   0.617 -2.0911  1.7656  0.7338
23125SOL     OW81433   3.627   3.473   7.895 -0.1160  0.1919 -0.5005
23125SOL    HW181434   3.724   3.476   7.874  0.4256  2.7173  2.0208
23125SOL    HW281435   3.611   3.410   7.971 -0.5124 -0.5740 -1.2179
23126SOL     OW81436   9.952   2.865   7.453 -0.3182 -0.0575  0.2955
23126SOL    HW181437  10.046   2.841   7.476 -0.5314 -0.9654  0.2531
23126SOL    HW281438   9.933   2.839   7.358 -1.2757 -1.9764  0.9829
23127SOL     OW81439   0.811   9.541   6.465 -0.3317  0.1192  0.2903
23127SOL    HW181440   0.802   9.442   6.453  0.6809  0.0818 -0.2244
23127SOL    HW281441   0.764   9.589   6.391 -1.6091  0.0387  1.0505
23128SOL     OW81442   3.527   6.028   9.221  0.4401  1.0075  0.5009
23128SOL    HW181443   3.477   5.965   9.163  1.1712  0.4897  0.4232
23128SOL    HW281444   3.542   5.986   9.311  0.6080  1.2122  0.5694
23129SOL     OW81445   6.826   7.860   6.909 -0.2960  0.2948  0.4565
23129SOL    HW181446   6.764   7.813   6.973 -0.3136  0.5418  0.6204
23129SOL    HW281447   6.822   7.958   6.926  2.7530  0.0849  2.7974
23130SOL     OW81448   7.635   7.216   6.453 -0.4077 -0.2591  0.1909
23130SOL    HW181449   7.538   7.193   6.462 -0.4514  0.0736  0.5956
23130SOL    HW281450   7.688   7.163   6.520 -0.2501 -0.7919 -0.3438
23131SOL     OW81451   9.064   3.513   4.341  0.4499 -0.9278  0.0939
23131SOL    HW181452   9.020   3.509   4.431 -0.3255  0.8967 -0.1925
23131SOL    HW281453   9.153   3.558   4.350 -0.0953  0.2343 -0.2129
23132SOL     OW81454   0.874   0.475   8.253 -0.3622 -0.1141  0.0336
23132SOL    HW181455   0.832   0.427   8.330 -0.4311 -0.5203 -0.2493
23132SOL    HW281456   0.973   0.455   8.251 -0.0706  1.2293  0.9826
23133SOL     OW81457   3.973   6.167   0.096  0.2090 -0.6663 -0.1624
23133SOL    HW181458   3.929   6.252   0.068  1.7286  0.2148  0.0699
23133SOL    HW281459   3.987   6.109   0.016  0.3105 -0.1575 -0.5169
23134SOL     OW81460   0.519   9.431   5.245 -0.0948  0.0063  0.2967
23134SOL    HW181461   0.455   9.477   5.307 -0.4786  0.6755 -0.5865
23134SOL    HW281462   0.609   9.473   5.254 -0.5611  1.3380 -0.8923
23135SOL     OW81463   2.736   7.321   2.708  0.0486  0.7299  0.1672
23135SOL    HW181464   2.742   7.323   2.808  1.5141  0.6432  0.0874
23135SOL    HW281465   2.753   7.228   2.676  2.8295  1.3841 -0.3446
23136SOL     OW81466   0.327   4.692   6.719 -0.2244 -0.0544  0.5594
23136SOL    HW181467   0.329   4.788   6.749  0.4710 -0.6259  2.4175
23136SOL    HW281468   0.233   4.659   6.719 -0.5214  0.7238 -0.4989
23137SOL     OW81469   8.272   7.644   3.029  0.5443  0.2485  0.1288
23137SOL    HW181470   8.334   7.722   3.021  1.1143 -0.3375 -1.2097
23137SOL    HW281471   8.258   7.602   2.940  0.2422 -1.1954  0.8375
23138SOL     OW81472   2.247   1.637   2.845  0.0364 -0.1285 -0.4393
23138SOL    HW181473   2.216   1.675   2.758  0.3599  0.1263 -0.4450
23138SOL    HW281474   2.309   1.701   2.890 -0.9454  0.1974  0.4806
23139SOL     OW81475   0.210   9.447   1.125  0.5132 -0.6233 -0.2727
23139SOL    HW181476   0.121   9.473   1.087  0.1593 -0.1293  0.8763
23139SOL    HW281477   0.241   9.363   1.082 -0.7909 -1.1190 -0.2600
23140SOL     OW81478   8.590   6.010   9.745  0.2772  0.0880  0.0512
23140SOL    HW181479   8.590   6.026   9.844 -0.6670  0.9495 -0.0815
23140SOL    HW281480   8.546   6.087   9.698  1.2890 -0.0157 -1.0976
23141SOL     OW81481   1.314   3.928   7.054  0.7564 -0.2109 -0.0392
23141SOL    HW181482   1.272   4.003   7.104  0.9467  0.4353 -0.8405
23141SOL    HW281483   1.260   3.908   6.972  1.0939 -0.4796 -0.1965
23142SOL     OW81484   0.006   8.365   5.010  0.4940 -0.3801  0.4959
23142SOL    HW181485   0.010   8.307   4.928  0.3820 -0.4204  0.5186
23142SOL    HW281486   0.087   8.423   5.014 -0.2710  0.7783 -0.5031
23143SOL     OW81487   9.466   5.875   4.307  0.9829 -0.4768  0.0057
23143SOL    HW181488   9.479   5.879   4.406  2.7092 -0.4711 -0.2117
23143SOL    HW281489   9.369   5.859   4.287  0.2988  1.3219  1.6499
23144SOL     OW81490   3.149   1.821   0.768 -0.1566  0.3029  0.1067
23144SOL    HW181491   3.112   1.728   0.758 -0.2094  0.3791 -0.4712
23144SOL    HW281492   3.174   1.856   0.677 -0.1038  0.8403  0.3280
23145SOL     OW81493   4.921   3.740   8.531  0.3171 -0.2850 -0.1249
23145SOL    HW181494   5.019   3.756   8.528  0.5156 -1.5289 -0.3945
23145SOL    HW281495   4.896   3.705   8.621 -0.0115  0.8427  0.2298
23146SOL     OW81496   3.154   5.960   2.091 -0.0058 -0.1908  0.4035
23146SOL    HW181497   3.104   5.972   2.005  0.3036 -1.6709  0.0091
23146SOL    HW281498   3.089   5.952   2.167 -0.2788  1.1473  0.3280
23147SOL     OW81499   6.770   7.389   7.987 -0.3237  0.2299  0.0706
23147SOL    HW181500   6.748   7.484   7.966 -2.0613  0.3737  2.3630
23147SOL    HW281501   6.724   7.329   7.922 -2.2780  0.8250  0.8621
23148SOL     OW81502   9.619   7.083   2.116  0.7313 -0.3331 -0.1044
23148SOL    HW181503   9.595   7.180   2.119 -1.7538 -0.9361  0.1225
23148SOL    HW281504   9.567   7.037   2.044  1.1037 -1.7044  0.4849
23149SOL     OW81505   9.090   6.169   9.137 -0.0560  0.1993 -0.0239
23149SOL    HW181506   9.006   6.197   9.091 -0.7773 -1.2620  0.3730
23149SOL    HW281507   9.106   6.071   9.121  1.0277  0.2412  0.7485
23150SOL     OW81508   5.606   6.451   9.417  0.1155 -0.2353 -0.2371
23150SOL    HW181509   5.574   6.481   9.507  0.2919 -0.1970 -0.1859
23150SOL    HW281510   5.696   6.491   9.398  0.6343 -1.2292  0.1005
23151SOL     OW81511   9.860   7.142   4.971 -0.5059 -0.5016 -0.1112
23151SOL    HW181512   9.909   7.210   5.026 -3.1142  0.4266  1.1307
23151SOL    HW281513   9.898   7.052   4.989  0.2967  0.1064  1.3615
23152SOL     OW81514   4.797   4.920   8.195 -0.2927  0.0070  0.0770
23152SOL    HW181515   4.797   4.959   8.103 -1.5171  1.3152  0.6199
23152SOL    HW281516   4.751   4.983   8.258  0.8160 -0.7286  1.6449
23153SOL     OW81517   6.391   9.985   6.351  0.1401  0.1366 -0.1282
23153SOL    HW181518   6.385  10.083   6.330  3.4999  0.8415  1.6850
23153SOL    HW281519   6.427   9.936   6.272 -0.2288  0.6116 -0.5914
23154SOL     OW81520   1.026   2.342   9.943  0.5661 -0.1343 -0.3790
23154SOL    HW181521   0.994   2.307   9.855 -1.4872 -1.4339  0.8713
23154SOL    HW281522   1.072   2.268   9.993 -0.1546  0.0505  0.5471
23155SOL     OW81523   2.803   6.597   6.204  0.3499  0.1176 -0.1422
23155SOL    HW181524   2.838   6.668   6.265  1.7068 -0.1914 -0.5478
23155SOL    HW281525   2.878   6.538   6.175 -0.2876  0.2039 -2.0451
23156SOL     OW81526   8.941   2.072   8.191  0.7164  0.5534 -0.3370
23156SOL    HW181527   8.974   1.978   8.202  0.3748  0.4117 -0.5303
23156SOL    HW281528   8.869   2.090   8.258  0.5386  0.5658 -0.5290
23157SOL     OW81529   1.042   6.049   4.992  0.6879 -0.3323  0.3346
23157SOL    HW181530   1.118   6.001   4.947 -0.8407 -0.6632 -1.9799
23157SOL    HW281531   1.052   6.147   4.978  1.1798 -0.2953  0.8798
23158SOL     OW81532   4.561   7.224   4.193 -0.8296  0.1651  0.0450
23158SOL    HW181533   4.642   7.168   4.176  0.2155  2.3411 -2.5168
23158SOL    HW281534   4.583   7.298   4.256 -1.0708  0.2079  0.0818
23159SOL     OW81535   7.789   4.987   6.736  0.7449 -0.7138  0.2729
23159SOL    HW181536   7.712   4.992   6.673 -0.1032 -3.1003  1.0580
23159SOL    HW281537   7.866   5.038   6.699 -0.8684  0.8218 -1.0240
23160SOL     OW81538   0.656   2.024   3.019  0.1453  0.8390  0.9954
23160SOL    HW181539   0.622   2.104   2.969  0.6540  0.0883 -0.5776
23160SOL    HW281540   0.610   1.942   2.986  0.4890  0.3225  1.7805
23161SOL     OW81541   9.245   0.526   9.023 -0.0379  0.2268 -0.0492
23161SOL    HW181542   9.311   0.484   8.961  1.2609  0.2900  1.2458
23161SOL    HW281543   9.289   0.603   9.071 -0.8525 -0.1118  1.2697
23162SOL     OW81544   5.745   0.566   6.222 -0.3074 -0.5398 -0.1663
23162SOL    HW181545   5.805   0.503   6.271 -0.2298  0.5000  1.1060
23162SOL    HW281546   5.658   0.574   6.270 -0.2711  0.4215 -0.2524
23163SOL     OW81547   0.844   8.328   7.365  0.5387 -0.5351  0.2733
23163SOL    HW181548   0.810   8.308   7.457 -1.9440 -0.3302 -0.5524
23163SOL    HW281549   0.876   8.243   7.322 -0.0301 -0.9423  0.6475
23164SOL     OW81550   0.736   3.489   7.856 -0.4145 -0.0402 -0.3871
23164SOL    HW181551   0.769   3.499   7.949  2.8930 -0.0949 -1.4784
23164SOL    HW281552   0.653   3.544   7.843 -2.1696 -1.7363  3.1181
23165SOL     OW81553   9.406   5.321   4.120  0.3970  0.2161 -0.3892
23165SOL    HW181554   9.409   5.227   4.087  0.7427 -0.1954  0.7997
23165SOL    HW281555   9.454   5.381   4.056 -2.0710  0.0251 -2.5188
23166SOL     OW81556   4.380   2.556   1.902  0.1139  0.1820 -0.1090
23166SOL    HW181557   4.415   2.559   1.809  1.5408  0.2114  0.4109
23166SOL    HW281558   4.399   2.642   1.948  4.5402 -1.7513  1.9731
23167SOL     OW81559   4.118   4.548   2.570 -0.0059  0.0424  0.4749
23167SOL    HW181560   4.175   4.536   2.489  0.3719 -0.0952  0.7612
23167SOL    HW281561   4.120   4.465   2.626 -1.9484 -0.6577 -0.4297
23168SOL     OW81562   3.545   5.455   6.653 -0.4918  0.2064 -0.3708
23168SOL    HW181563   3.615   5.521   6.626  0.0831 -0.1495  0.2353
23168SOL    HW281564   3.553   5.374   6.596 -0.7496  0.3767 -0.6510
23169SOL     OW81565   5.862   5.791   1.010  0.3126  0.2055  0.4820
23169SOL    HW181566   5.934   5.856   1.036  0.9873 -0.3871  0.1406
23169SOL    HW281567   5.885   5.700   1.045  0.1313 -0.1474 -0.2957
23170SOL     OW81568   9.510   5.189   7.168  0.3856 -0.0286  0.9372
23170SOL    HW181569   9.581   5.259   7.162 -0.4129  0.8309  1.5374
23170SOL    HW281570   9.553   5.099   7.161  1.8984  0.3689  4.3309
23171SOL     OW81571   1.299   2.041   8.050 -0.5850  0.1420  0.0335
23171SOL    HW181572   1.362   1.968   8.077  0.0790  0.9706  0.7463
23171SOL    HW281573   1.296   2.047   7.951 -1.1649 -1.2989 -0.0549
23172SOL     OW81574   4.471   7.068   4.734  0.2471 -0.0911  0.5488
23172SOL    HW181575   4.444   6.995   4.797  1.0807  0.8175  1.9827
23172SOL    HW281576   4.391   7.121   4.707 -0.1680 -0.7243  0.5149
23173SOL     OW81577   7.268   1.275   9.782 -0.6883  0.3167 -0.1385
23173SOL    HW181578   7.209   1.235   9.711  1.2102 -0.6585 -1.2302
23173SOL    HW281579   7.360   1.289   9.744 -0.6821  3.5827  0.9424
23174SOL     OW81580   2.756   0.183   6.684 -0.0872 -0.5673  0.0511
23174SOL    HW181581   2.747   0.174   6.783 -1.6659 -0.1485 -0.0371
23174SOL    HW281582   2.706   0.265   6.653  0.5917 -0.5596 -1.0597
23175SOL     OW81583   4.346   0.354   6.040 -0.4282  0.3638  0.1498
23175SOL    HW181584   4.344   0.271   5.983  1.5121  0.9620 -0.8180
23175SOL    HW281585   4.364   0.328   6.135 -0.7235 -0.3980  0.0016
23176SOL     OW81586   0.048   5.421   4.443 -0.0214 -0.1882  0.0812
23176SOL    HW181587   0.129   5.363   4.459 -0.8737 -1.5262 -0.3167
23176SOL    HW281588  -0.029   5.363   4.415 -0.5843  1.2765 -1.4886
23177SOL     OW81589   3.527   2.756   6.871  0.3425 -0.4298  0.1454
23177SOL    HW181590   3.560   2.736   6.963  0.4117  0.0032  0.2154
23177SOL    HW281591   3.552   2.681   6.810 -1.9991 -1.9873  1.0077
23178SOL     OW81592   4.870   5.030   4.638  0.1041  0.1129 -0.0889
23178SOL    HW181593   4.865   5.090   4.558  1.2842 -0.0174 -0.2763
23178SOL    HW281594   4.954   5.049   4.688  0.6999 -1.6564 -0.3760
23179SOL     OW81595   3.779   9.617   5.445  0.3576  0.1598 -0.0300
23179SOL    HW181596   3.867   9.597   5.401  0.9190  0.8519  0.7744
23179SOL    HW281597   3.779   9.711   5.479 -0.9836  0.4158 -0.7032
23180SOL     OW81598   7.541   5.645   8.765 -0.1559 -0.0502  0.1739
23180SOL    HW181599   7.590   5.661   8.851  1.4539  1.9172 -1.0590
23180SOL    HW281600   7.581   5.566   8.719 -0.2613 -0.4113  0.6995
23181SOL     OW81601   8.886   5.715   9.268  0.2235  0.2960  0.2703
23181SOL    HW181602   8.966   5.772   9.286  0.9486  0.2316 -2.5139
23181SOL    HW281603   8.904   5.622   9.299  0.6264  0.6318  1.0593
23182SOL     OW81604   4.768   9.036   7.577 -0.1253 -0.4263 -0.9196
23182SOL    HW181605   4.826   8.973   7.524  0.1017 -0.7458 -0.3006
23182SOL    HW281606   4.686   8.988   7.608  0.5676 -0.7400  0.4796
23183SOL     OW81607   6.219   7.853   7.395 -0.2963 -0.2897  0.1285
23183SOL    HW181608   6.296   7.916   7.407  1.1274 -2.1709  1.1889
23183SOL    HW281609   6.232   7.773   7.454 -1.6808 -1.9388 -1.7504
23184SOL     OW81610   1.123   5.890   3.285  0.0184  0.2317 -0.2057
23184SOL    HW181611   1.130   5.818   3.216 -1.2849  0.2866 -0.4137
23184SOL    HW281612   1.154   5.854   3.373 -1.3243 -0.8357 -0.1464
23185SOL     OW81613   6.130   8.475   3.799  0.6764  0.0364 -0.0573
23185SOL    HW181614   6.091   8.387   3.771  0.5553 -0.7744  2.4844
23185SOL    HW281615   6.062   8.547   3.783 -1.0498 -1.0308  2.1415
23186SOL     OW81616   2.848   0.633   6.310  0.4275  0.4265  0.1725
23186SOL    HW181617   2.764   0.596   6.272  2.3559  0.2508 -4.2022
23186SOL    HW281618   2.832   0.726   6.344 -2.0091 -0.4803  1.5946
23187SOL     OW81619   7.075   0.091   5.934  0.2726 -0.4937 -0.2279
23187SOL    HW181620   7.158   0.041   5.956 -0.0382 -0.7610  0.3484
23187SOL    HW281621   7.080   0.126   5.841 -0.0236 -2.6502 -1.0663
23188SOL     OW81622   2.527   5.981   7.490 -0.0957  0.1171  0.7533
23188SOL    HW181623   2.569   5.954   7.577  0.2505  0.5991  0.7397
23188SOL    HW281624   2.583   5.949   7.414 -0.5633 -0.5802  0.6937
23189SOL     OW81625   9.573   0.281   1.225 -0.4962 -0.0395 -0.5444
23189SOL    HW181626   9.625   0.355   1.266 -1.2356 -0.5884  1.4253
23189SOL    HW281627   9.635   0.219   1.177  0.3464  0.7670 -0.4977
23190SOL     OW81628   4.206   3.851   9.455 -0.0483 -0.2859 -0.5260
23190SOL    HW181629   4.139   3.832   9.527 -0.8108  1.3203 -0.7954
23190SOL    HW281630   4.168   3.821   9.367 -0.4933  0.8033 -0.7052
23191SOL     OW81631   3.757   9.642   3.358  0.2499  0.4169 -0.5497
23191SOL    HW181632   3.789   9.573   3.423 -1.6783 -0.3965 -0.4227
23191SOL    HW281633   3.697   9.707   3.405  0.9001  1.3240 -0.9769
23192SOL     OW81634   7.151   1.356   4.313  0.0049  0.1949 -0.1363
23192SOL    HW181635   7.182   1.330   4.222  2.1084 -0.8314  0.8141
23192SOL    HW281636   7.206   1.308   4.381 -1.3856  1.1111  1.6782
23193SOL     OW81637   3.054   6.665   9.412  0.1001 -0.2917 -0.1271
23193SOL    HW181638   3.005   6.618   9.338 -1.5371  0.2224  0.5922
23193SOL    HW281639   3.123   6.726   9.373 -0.6430 -0.1376 -1.2338
23194SOL     OW81640   2.229   2.141   4.416 -0.0972  0.9082  0.3207
23194SOL    HW181641   2.265   2.196   4.340 -2.0232  0.7528 -0.7219
23194SOL    HW281642   2.231   2.044   4.390  0.6581  0.7205  1.0653
23195SOL     OW81643   8.403   4.023   7.133 -0.2517 -0.8793  0.3790
23195SOL    HW181644   8.344   3.955   7.090  1.1902 -1.7346 -0.2822
23195SOL    HW281645   8.472   3.977   7.189  1.3554 -0.0282 -0.8514
23196SOL     OW81646   0.849   9.573   2.409 -0.3580 -0.4279  0.3630
23196SOL    HW181647   0.857   9.540   2.315 -0.1595 -0.5287  0.4152
23196SOL    HW281648   0.929   9.629   2.431  0.6755 -2.2143  1.2055
23197SOL     OW81649   0.370   1.159   2.662  0.1464  0.0177  0.4325
23197SOL    HW181650   0.340   1.069   2.628  0.2312 -0.1681  0.8493
23197SOL    HW281651   0.440   1.196   2.601  0.7375 -0.5880  0.7457
23198SOL     OW81652   3.703   2.690   1.723  0.2060 -0.0395 -0.1240
23198SOL    HW181653   3.700   2.659   1.818  2.5426 -0.9324 -0.3247
23198SOL    HW281654   3.649   2.628   1.666 -2.3878  1.2851  0.7709
23199SOL     OW81655   1.370   6.330   6.416 -0.3927  0.4922 -0.5927
23199SOL    HW181656   1.277   6.357   6.441 -0.7544 -1.5728  0.3783
23199SOL    HW281657   1.369   6.237   6.380  0.9015  1.4831 -3.3224
23200SOL     OW81658   1.490   3.502   5.816  0.3333 -0.4793 -0.0868
23200SOL    HW181659   1.411   3.442   5.824  0.6652 -0.8522  0.4516
23200SOL    HW281660   1.468   3.593   5.852  0.3413 -0.7644  0.6433
23201SOL     OW81661   8.788   4.478   9.705 -0.1073 -0.3358 -0.0406
23201SOL    HW181662   8.722   4.509   9.637  0.7710  0.6110 -0.4809
23201SOL    HW281663   8.773   4.381   9.724 -0.2359 -0.6745 -1.7472
23202SOL     OW81664   9.022   7.947   2.527 -0.4290 -0.3457  0.0673
23202SOL    HW181665   9.091   7.954   2.600  1.2781 -0.3764 -1.5185
23202SOL    HW281666   8.932   7.934   2.569  0.2578  1.4735  2.2228
23203SOL     OW81667   8.956   5.205   5.150 -0.0061 -0.0357 -0.1756
23203SOL    HW181668   9.026   5.217   5.220 -0.9993  1.2231  0.6188
23203SOL    HW281669   8.884   5.273   5.162 -1.7797 -1.7853 -0.4791
23204SOL     OW81670   4.998   8.230   8.643  0.6899 -0.7629 -0.8301
23204SOL    HW181671   5.062   8.194   8.575 -1.0661 -2.8792 -1.4270
23204SOL    HW281672   4.911   8.252   8.599  0.1897 -0.2569  0.3919
23205SOL     OW81673   2.688   9.942   8.040 -0.3536 -0.3646 -0.5755
23205SOL    HW181674   2.780   9.913   8.013 -0.1319  1.2218 -1.6051
23205SOL    HW281675   2.624   9.868   8.022  0.5622 -1.0980 -0.8888
23206SOL     OW81676   9.433   2.496   0.595 -0.2703 -0.3230  0.2184
23206SOL    HW181677   9.424   2.585   0.641 -0.1031  0.5991 -1.4637
23206SOL    HW281678   9.461   2.427   0.661 -0.3121  0.8966  1.5448
23207SOL     OW81679   5.420   8.100   6.692 -0.6256 -0.0784 -0.2681
23207SOL    HW181680   5.480   8.115   6.770 -0.9402  1.1414 -0.2466
23207SOL    HW281681   5.327   8.082   6.724 -0.4907 -0.8761 -0.3277
23208SOL     OW81682   3.460   3.598   8.601  0.0235 -0.6356  0.1254
23208SOL    HW181683   3.407   3.636   8.676 -1.4365  1.4601 -1.9115
23208SOL    HW281684   3.416   3.514   8.568 -2.0378  1.0129 -1.4611
23209SOL     OW81685   5.649   7.539   8.349  0.7664  0.1689 -0.1397
23209SOL    HW181686   5.709   7.619   8.350  0.6842  0.2215  0.5885
23209SOL    HW281687   5.587   7.543   8.427 -1.3189  0.9602 -1.8072
23210SOL     OW81688   3.762   2.941   1.310  0.2800 -0.2044 -0.6898
23210SOL    HW181689   3.701   2.973   1.383 -0.3320 -1.7961 -0.4821
23210SOL    HW281690   3.782   2.844   1.323  0.7384 -0.3415 -2.2559
23211SOL     OW81691   8.435   9.932   1.587 -0.2938 -0.0071  0.2997
23211SOL    HW181692   8.381   9.878   1.523 -0.8597  0.5099  0.3321
23211SOL    HW281693   8.423  10.029   1.567 -1.1778  0.1958  1.7257
23212SOL     OW81694   2.159   3.719   5.699  0.1211 -0.5101 -0.0610
23212SOL    HW181695   2.110   3.787   5.753  0.6044  0.2177 -0.5335
23212SOL    HW281696   2.186   3.643   5.758  1.2301  0.5963  0.8706
23213SOL     OW81697   9.002   9.396   3.355  0.0240  0.1157 -0.0868
23213SOL    HW181698   9.094   9.437   3.357 -0.1795  0.5583  0.5506
23213SOL    HW281699   9.009   9.299   3.331  0.5298  0.4736 -1.4599
23214SOL     OW81700   2.282   5.772   4.831 -0.0159  0.2667  0.1577
23214SOL    HW181701   2.264   5.686   4.783 -2.8277 -1.2788  3.8056
23214SOL    HW281702   2.198   5.825   4.838  1.1684  2.2057  0.1753
23215SOL     OW81703   1.461   9.853   9.603  0.0836 -0.5966  0.3023
23215SOL    HW181704   1.558   9.872   9.619  0.1090 -0.4757  0.0088
23215SOL    HW281705   1.444   9.755   9.610  0.1542 -0.5806  0.7371
23216SOL     OW81706   7.468   1.946   6.501  0.4962 -0.1648 -0.2963
23216SOL    HW181707   7.503   1.930   6.594  0.6590 -0.0428 -0.3350
23216SOL    HW281708   7.488   2.041   6.474  0.0823 -0.0777 -0.2977
23217SOL     OW81709   8.918   6.381   9.751 -0.1610  0.5203  0.4560
23217SOL    HW181710   8.956   6.290   9.768  2.5239  1.4456 -0.3049
23217SOL    HW281711   8.836   6.373   9.694  0.0304 -1.4210  0.4181
23218SOL     OW81712   0.620   7.731   9.052 -0.5038  0.3246 -0.3978
23218SOL    HW181713   0.539   7.689   9.011 -0.7238  0.8967 -0.5573
23218SOL    HW281714   0.625   7.707   9.149 -0.4818 -0.2856 -0.5468
23219SOL     OW81715   5.326   7.916   6.203  0.3052  0.2940 -0.1109
23219SOL    HW181716   5.379   7.995   6.172 -0.2183  0.0928 -1.5680
23219SOL    HW281717   5.384   7.835   6.205  0.7783  0.6597  1.1317
23220SOL     OW81718   9.841   5.411   6.902 -0.6207  0.0497  0.2919
23220SOL    HW181719   9.916   5.345   6.911  0.2662  1.1790  1.3192
23220SOL    HW281720   9.757   5.362   6.880 -0.2487 -1.5787  2.3200
23221SOL     OW81721   7.961   3.407   2.687  0.2605  0.0058  0.0200
23221SOL    HW181722   7.905   3.480   2.647  1.5571  0.5598 -0.8186
23221SOL    HW281723   7.950   3.407   2.786  1.9123  2.7990  0.2620
23222SOL     OW81724   1.149   1.957   1.018 -0.0977  0.3387 -0.4945
23222SOL    HW181725   1.239   1.914   1.028 -0.0495  0.5348 -0.0798
23222SOL    HW281726   1.082   1.887   0.994  0.3830  0.3843 -2.0023
23223SOL     OW81727   7.334   4.402   7.681  0.1359 -0.0227  0.1439
23223SOL    HW181728   7.288   4.474   7.734  1.2303  0.9526 -0.2095
23223SOL    HW281729   7.280   4.383   7.599 -1.0465 -0.8305  1.0851
23224SOL     OW81730   0.233   8.202   8.980  0.3843 -0.4755  0.1838
23224SOL    HW181731   0.288   8.181   9.062  0.8319  0.8183  0.2230
23224SOL    HW281732   0.241   8.127   8.915  0.2121 -1.4155  1.2336
23225SOL     OW81733   8.103   6.130   1.937  0.1551  0.2030  0.8123
23225SOL    HW181734   8.199   6.119   1.962 -0.6148  0.3625  4.1318
23225SOL    HW281735   8.057   6.042   1.941 -0.2740  0.4433  1.3745
23226SOL     OW81736   7.279   1.040   3.503 -1.3054  0.0778 -0.2903
23226SOL    HW181737   7.242   0.980   3.573 -0.1884  0.2938  0.5012
23226SOL    HW281738   7.275   0.994   3.414 -1.6042 -0.6760  0.1129
23227SOL     OW81739   4.415   9.316   1.019  0.0523  0.0989  0.2075
23227SOL    HW181740   4.471   9.235   1.037 -0.5742 -0.0522  1.4865
23227SOL    HW281741   4.352   9.297   0.943 -0.1091 -0.6172  0.5210
23228SOL     OW81742   2.005   2.366   8.949  0.2187  0.6786  0.1281
23228SOL    HW181743   1.910   2.369   8.981  0.0336 -0.5201 -0.3076
23228SOL    HW281744   2.006   2.378   8.850  0.4009 -1.0192 -0.0761
23229SOL     OW81745   0.080   3.993   8.153  0.0471 -0.4131 -0.9816
23229SOL    HW181746   0.160   3.989   8.092  1.3362 -0.3631  0.6537
23229SOL    HW281747   0.051   3.900   8.175 -0.0609 -0.4330 -1.2025
23230SOL     OW81748   9.414   0.015   9.301  0.4023 -0.7326 -0.5784
23230SOL    HW181749   9.512   0.031   9.294  0.0667  1.5675 -0.4649
23230SOL    HW281750   9.365   0.093   9.261 -1.3697 -0.5526  1.8480
23231SOL     OW81751   2.107   6.359   0.085  0.0446  0.1226 -0.4042
23231SOL    HW181752   2.073   6.311   0.005  1.3834 -2.6307  0.5989
23231SOL    HW281753   2.201   6.389   0.069  0.4136 -0.6832  0.2191
23232SOL     OW81754   6.764   6.856   4.196 -0.7056 -0.1337  0.2693
23232SOL    HW181755   6.759   6.943   4.148  1.9703  0.5320  1.1204
23232SOL    HW281756   6.690   6.796   4.164 -0.3562  1.0869 -3.0688
23233SOL     OW81757   4.704   3.287   6.956 -0.3739  0.1386 -0.7524
23233SOL    HW181758   4.699   3.199   7.002 -2.1010  0.5250 -0.1637
23233SOL    HW281759   4.612   3.326   6.947  0.3292  1.7610 -1.2383
23234SOL     OW81760   2.648   0.466   0.876  0.1592  0.3183  0.2881
23234SOL    HW181761   2.665   0.374   0.911 -1.6876  0.5005  1.7559
23234SOL    HW281762   2.729   0.523   0.890  0.5829 -0.5136  1.2929
23235SOL     OW81763   9.175   9.738   1.360 -0.3569 -0.0224  0.2573
23235SOL    HW181764   9.224   9.817   1.396 -0.9118  0.0604  0.8376
23235SOL    HW281765   9.129   9.690   1.434 -1.1712 -0.0883 -0.2795
23236SOL     OW81766   1.928   2.996   8.508  0.0839  0.3870 -1.2644
23236SOL    HW181767   1.911   2.927   8.438 -2.6150 -0.9749  0.6466
23236SOL    HW281768   2.005   2.968   8.565  0.3799  0.0315 -1.8342
23237SOL     OW81769   7.438   8.127   4.765  0.1510  0.2769 -0.0682
23237SOL    HW181770   7.451   8.134   4.666  3.0313  0.9565  0.3046
23237SOL    HW281771   7.388   8.207   4.797 -1.8360 -0.5138 -1.1012
23238SOL     OW81772   2.978   6.444   6.503  0.0424 -0.0036 -0.5511
23238SOL    HW181773   3.018   6.353   6.504 -1.1960 -0.5899 -2.8935
23238SOL    HW281774   3.026   6.501   6.436  0.3486  0.8620  0.3925
23239SOL     OW81775   8.752   5.898   2.449 -0.3166  0.4082  0.2323
23239SOL    HW181776   8.683   5.945   2.504 -0.8141  0.4378 -0.4205
23239SOL    HW281777   8.709   5.825   2.396  0.1124  0.5912 -0.3692
23240SOL     OW81778   8.620   0.309   0.300  0.2736  0.3649  1.0348
23240SOL    HW181779   8.652   0.390   0.350 -0.8440  0.7244  1.1840
23240SOL    HW281780   8.600   0.236   0.364  0.8012  0.1369  0.9406
23241SOL     OW81781   8.291   9.831   1.395  0.8271  0.3769  0.0678
23241SOL    HW181782   8.239   9.902   1.349 -0.7483 -0.7695  0.0515
23241SOL    HW281783   8.234   9.750   1.408  2.1819 -0.4185  1.2812
23242SOL     OW81784   6.677   8.448   4.981  0.8215  0.0985 -0.3546
23242SOL    HW181785   6.659   8.542   4.953 -1.4711 -0.0136  0.6808
23242SOL    HW281786   6.617   8.386   4.930 -0.4903 -0.4489  1.8037
23243SOL     OW81787   3.869   0.791   1.223 -0.4443 -0.0071  0.3172
23243SOL    HW181788   3.775   0.821   1.240 -0.2500 -0.2715  1.9065
23243SOL    HW281789   3.868   0.699   1.183 -0.8564  0.0239  0.2502
23244SOL     OW81790   4.095   6.151   4.158  0.2795  0.3674  0.1845
23244SOL    HW181791   4.031   6.081   4.190 -0.5447  2.1767  2.6949
23244SOL    HW281792   4.076   6.172   4.062 -0.6851 -1.4818 -0.0547
23245SOL     OW81793   5.931   1.625   1.877 -0.2726  0.3236  0.0695
23245SOL    HW181794   5.984   1.617   1.962  1.6848 -0.0432 -1.1537
23245SOL    HW281795   5.841   1.585   1.891  0.7265 -1.5865  1.4008
23246SOL     OW81796   5.233   3.165   5.899  0.2015  0.3659  0.0266
23246SOL    HW181797   5.239   3.066   5.910 -1.4043  0.3758  1.1923
23246SOL    HW281798   5.195   3.186   5.809  0.9021 -0.0603 -0.3752
23247SOL     OW81799   0.731   7.251   0.647  0.2188 -0.0268  0.1770
23247SOL    HW181800   0.803   7.204   0.699  0.5250  1.4458  1.1291
23247SOL    HW281801   0.646   7.249   0.699 -0.0479 -0.4654 -0.2721
23248SOL     OW81802   1.946   9.710   0.720 -0.0312 -0.0655  0.2323
23248SOL    HW181803   1.898   9.735   0.804  3.3847  0.2470  2.1561
23248SOL    HW281804   1.968   9.793   0.668  0.4959 -0.0133  0.5343
23249SOL     OW81805   4.539   2.109   0.545 -0.3088  0.1884 -0.0620
23249SOL    HW181806   4.485   2.121   0.629  0.4452  1.1104  0.3029
23249SOL    HW281807   4.636   2.109   0.569 -0.0815  0.9898 -1.0140
23250SOL     OW81808   0.073   6.141   1.950  0.1578 -0.0092 -0.2233
23250SOL    HW181809   0.138   6.068   1.927 -0.6607 -0.5716 -0.7611
23250SOL    HW281810   0.027   6.173   1.867  0.7034  1.3086 -0.0237
23251SOL     OW81811   8.678   8.740   4.104 -0.2565 -0.3724 -0.4115
23251SOL    HW181812   8.673   8.764   4.007  0.7678  1.8045  0.0370
23251SOL    HW281813   8.768   8.701   4.124 -0.4125 -0.6782 -0.2932
23252SOL     OW81814   0.726   9.526   0.797 -0.0211  0.2914  0.5221
23252SOL    HW181815   0.804   9.466   0.808  0.3257  0.5602 -0.4223
23252SOL    HW281816   0.711   9.578   0.881  1.6938  1.2830  0.2269
23253SOL     OW81817   0.019   3.497   6.694 -0.4669  0.3043 -0.1498
23253SOL    HW181818   0.019   3.424   6.626 -0.2257 -0.5045  0.7035
23253SOL    HW281819  -0.075   3.525   6.713 -0.5498  0.3227 -0.5933
23254SOL     OW81820   9.834   0.542   1.558 -0.3736  0.2913  0.0917
23254SOL    HW181821   9.889   0.613   1.601 -2.3814  1.4652  0.7813
23254SOL    HW281822   9.741   0.544   1.595 -0.5531 -2.5041 -0.0944
23255SOL     OW81823   2.436   6.558   2.751  0.2774 -0.8551  0.1716
23255SOL    HW181824   2.530   6.553   2.786  0.4376 -1.8936 -0.3570
23255SOL    HW281825   2.438   6.557   2.651 -0.2602  0.1300  0.1470
23256SOL     OW81826   5.694   2.558   1.149 -0.2922 -0.0621  0.6373
23256SOL    HW181827   5.683   2.551   1.050  0.0975 -0.0153  0.5884
23256SOL    HW281828   5.610   2.592   1.191  0.4304  2.4837  0.0532
23257SOL     OW81829   6.633   0.153   7.536 -0.5717 -0.4161  0.3027
23257SOL    HW181830   6.693   0.083   7.575 -1.4019 -0.8329  0.8477
23257SOL    HW281831   6.550   0.161   7.592 -1.3368 -0.3288 -0.8267
23258SOL     OW81832   2.877   7.417   7.769  0.0143 -0.3256  0.2325
23258SOL    HW181833   2.977   7.425   7.760 -0.2626  0.0893 -3.1280
23258SOL    HW281834   2.844   7.347   7.705 -1.9919  0.4190  0.4445
23259SOL     OW81835   9.056   3.137   3.061 -0.8543 -0.5074 -0.3316
23259SOL    HW181836   9.117   3.060   3.045 -0.1979 -0.2391  0.7791
23259SOL    HW281837   9.106   3.210   3.108 -1.0665  1.2143 -2.7239
23260SOL     OW81838   0.742   1.929   4.873  0.2669 -0.1076 -0.0893
23260SOL    HW181839   0.829   1.977   4.862 -0.0201  0.3380 -0.4222
23260SOL    HW281840   0.711   1.937   4.968 -0.3551  1.3663 -0.4012
23261SOL     OW81841   2.761   6.499   7.377 -0.4700 -0.2416 -0.2614
23261SOL    HW181842   2.812   6.521   7.294  0.6774 -0.8801  0.2620
23261SOL    HW281843   2.713   6.581   7.409 -0.6157  0.1018 -1.3386
23262SOL     OW81844   6.964   5.706   7.758 -0.7305  0.0852 -0.0056
23262SOL    HW181845   6.958   5.770   7.833 -2.0563 -0.1787  0.1296
23262SOL    HW281846   6.994   5.753   7.675  1.4408  0.2326  0.8404
23263SOL     OW81847   2.031   6.127   8.759  0.0117 -0.7082  0.7250
23263SOL    HW181848   2.096   6.176   8.702  0.3538 -1.0402  0.8301
23263SOL    HW281849   2.027   6.031   8.731 -1.1014 -0.4988  0.1193
23264SOL     OW81850   9.951   9.460   5.799 -0.4329 -0.4014  0.7836
23264SOL    HW181851   9.977   9.534   5.737  0.0024 -1.1309  0.0842
23264SOL    HW281852   9.950   9.373   5.749 -0.4816 -0.9405  1.7042
23265SOL     OW81853   9.505   8.670   1.350 -0.0351  0.0932 -0.2961
23265SOL    HW181854   9.448   8.591   1.373  0.3543  0.3217  1.5742
23265SOL    HW281855   9.533   8.716   1.434  0.2073  1.9065 -1.3350
23266SOL     OW81856   6.756   7.442   6.889  0.4493  0.3915 -0.5150
23266SOL    HW181857   6.728   7.409   6.799  1.4785  0.6499 -0.9464
23266SOL    HW281858   6.855   7.456   6.890  0.7901 -1.7975  1.3582
23267SOL     OW81859   2.016   3.178   1.359  0.0668 -0.3773 -0.2557
23267SOL    HW181860   2.096   3.147   1.410  0.9086  3.6914  1.1177
23267SOL    HW281861   1.937   3.182   1.420  0.7292  3.0611  0.5113
23268SOL     OW81862   7.752   7.485   8.579  0.0613 -0.1437 -0.0575
23268SOL    HW181863   7.826   7.477   8.512  1.8354  0.2522  1.8118
23268SOL    HW281864   7.788   7.474   8.671 -1.6623  3.1875  1.1147
23269SOL     OW81865   9.101   0.092   7.659 -0.3114  0.2406 -0.1875
23269SOL    HW181866   9.051   0.007   7.648  0.5631 -0.1604 -1.1689
23269SOL    HW281867   9.037   0.169   7.662 -1.0689 -0.4117  0.2439
23270SOL     OW81868   4.870   8.687   6.735 -0.0921 -0.1040  0.2395
23270SOL    HW181869   4.804   8.646   6.798  0.3552 -1.5383 -0.1956
23270SOL    HW281870   4.907   8.616   6.675 -0.8824  1.3371 -1.9890
23271SOL     OW81871   4.196   1.871   3.939 -0.0986 -0.7805 -0.8666
23271SOL    HW181872   4.203   1.774   3.962 -1.0121 -1.2550 -2.4873
23271SOL    HW281873   4.280   1.918   3.967 -0.5361 -1.5917  1.9130
23272SOL     OW81874   0.826   1.118   1.337 -0.3672 -0.1810  0.1800
23272SOL    HW181875   0.753   1.186   1.324  0.1442  0.5100  0.9051
23272SOL    HW281876   0.884   1.146   1.413  1.5237  0.0210 -1.2875
23273SOL     OW81877   3.591   5.664   9.753  0.8945  0.1654 -0.1053
23273SOL    HW181878   3.546   5.746   9.719 -1.2364 -0.4553  1.1067
23273SOL    HW281879   3.588   5.663   9.853 -0.3654 -2.0164 -0.1155
23274SOL     OW81880   1.513   0.534   7.899  0.4712  0.0416 -0.1606
23274SOL    HW181881   1.586   0.501   7.960  0.0805 -1.9205 -0.7096
23274SOL    HW281882   1.498   0.467   7.826 -2.1481  0.2095  0.1709
23275SOL     OW81883   2.517   1.855   4.245  0.0779 -0.6837  0.0043
23275SOL    HW181884   2.434   1.831   4.194 -1.0576 -0.2443  1.5866
23275SOL    HW281885   2.512   1.952   4.271  0.8864 -0.7722  0.4903
23276SOL     OW81886   1.358   0.249   4.387 -0.7880 -0.0010  0.2291
23276SOL    HW181887   1.354   0.248   4.287  1.5515 -0.6702  0.1300
23276SOL    HW281888   1.335   0.340   4.421  0.2662  0.7200 -1.0030
23277SOL     OW81889   8.537   4.139   5.329 -0.3788 -0.3873  0.5302
23277SOL    HW181890   8.545   4.212   5.397 -1.7061 -0.2674  0.5651
23277SOL    HW281891   8.544   4.050   5.375 -0.9605 -0.3043  0.7878
23278SOL     OW81892   8.054   0.935   7.322 -0.3484 -0.5884 -0.2099
23278SOL    HW181893   8.103   0.854   7.356 -0.6391 -0.6314  0.1068
23278SOL    HW281894   8.006   0.912   7.238 -0.3712 -0.7288 -0.1590
23279SOL     OW81895   8.437   2.114   3.959 -0.4493  0.2518 -0.2603
23279SOL    HW181896   8.526   2.077   3.933  0.1917  1.0268  0.8019
23279SOL    HW281897   8.448   2.208   3.992 -1.2704 -0.5433  2.4118
23280SOL     OW81898   0.085   0.439   6.532  0.1172 -0.1718  0.2342
23280SOL    HW181899  -0.013   0.449   6.544 -0.3355 -0.5221 -2.9063
23280SOL    HW281900   0.120   0.374   6.599 -1.7651  0.0180  1.4274
23281SOL     OW81901   4.512   4.674   5.798 -0.4423  0.0948 -0.4400
23281SOL    HW181902   4.435   4.692   5.736 -0.4804  0.8563 -0.1813
23281SOL    HW281903   4.490   4.597   5.857 -1.3094  0.7627  0.1248
23282SOL     OW81904   8.101   3.137   8.349  0.3181  0.0645 -0.5571
23282SOL    HW181905   8.083   3.166   8.443 -0.2195 -0.1337 -0.5970
23282SOL    HW281906   8.180   3.187   8.313  1.7223 -1.2481  0.6583
23283SOL     OW81907   9.714   8.502   9.164  0.1568 -0.3237 -0.4971
23283SOL    HW181908   9.707   8.406   9.136  0.5107 -0.0271 -1.6307
23283SOL    HW281909   9.795   8.543   9.123  0.8442  0.0596  1.2015
23284SOL     OW81910   2.025   9.373   6.390 -0.3640 -0.1321  0.3861
23284SOL    HW181911   1.948   9.332   6.439 -0.0105 -0.7777  0.4101
23284SOL    HW281912   2.106   9.372   6.449  0.4365 -2.2231 -0.6829
23285SOL     OW81913   0.602   3.241   7.008  0.6504 -0.0985  0.3846
23285SOL    HW181914   0.694   3.256   6.972 -0.1695  2.0193 -0.9409
23285SOL    HW281915   0.536   3.293   6.954 -1.1627 -0.4123  2.2171
23286SOL     OW81916   5.895   8.830   3.471  0.5065  0.1003 -0.4302
23286SOL    HW181917   5.905   8.929   3.481  1.1888  0.1778 -1.7345
23286SOL    HW281918   5.810   8.811   3.422  1.0879  0.1272 -1.4705
23287SOL     OW81919   9.932   1.865   4.955 -0.1887  0.1111  0.4822
23287SOL    HW181920   9.913   1.963   4.962 -0.1267  0.1860 -0.3532
23287SOL    HW281921   9.893   1.817   5.033  0.8335  0.9688  1.5351
23288SOL     OW81922   4.507   0.216   7.811 -0.0836 -0.2550  0.7887
23288SOL    HW181923   4.604   0.239   7.805 -0.5972  1.6074 -1.1027
23288SOL    HW281924   4.456   0.296   7.841 -0.9747 -1.4433  2.5232
23289SOL     OW81925   2.035   6.466   8.997  0.0523 -0.0698 -0.6998
23289SOL    HW181926   2.135   6.468   8.994  0.1384  0.9827  1.6017
23289SOL    HW281927   1.999   6.556   8.971 -0.1982  0.1805  0.4757
23290SOL     OW81928   1.195   7.321   7.376 -0.0531  0.0424  0.2753
23290SOL    HW181929   1.203   7.316   7.476 -0.6289  1.0461  0.3681
23290SOL    HW281930   1.262   7.387   7.341  2.9167 -3.1543 -0.3815
23291SOL     OW81931   0.752   6.463   5.692 -0.0979 -0.4805 -0.2556
23291SOL    HW181932   0.734   6.367   5.668 -1.6833 -0.5438  1.0512
23291SOL    HW281933   0.809   6.466   5.774 -0.8006 -0.3127  0.2275
23292SOL     OW81934   9.770   4.266   7.193  0.0251  0.9184 -0.3246
23292SOL    HW181935   9.854   4.247   7.243 -0.3464 -1.0598 -0.4122
23292SOL    HW281936   9.704   4.309   7.255 -0.0501 -0.5356  0.6188
23293SOL     OW81937   7.172   1.362   8.383 -0.1549  0.2922 -1.0784
23293SOL    HW181938   7.152   1.334   8.289 -1.1788 -0.2107 -0.7162
23293SOL    HW281939   7.262   1.404   8.386  1.0490 -2.1436 -1.8159
23294SOL     OW81940   3.712   9.267   9.689 -0.1064 -0.2582 -0.7516
23294SOL    HW181941   3.617   9.284   9.663 -0.0884 -1.0818 -1.3389
23294SOL    HW281942   3.716   9.244   9.786 -0.3058  1.5440 -0.2816
23295SOL     OW81943   1.838   2.143   0.004  0.1850 -0.1765 -0.2844
23295SOL    HW181944   1.785   2.186   0.077  2.0184  1.7441 -0.0277
23295SOL    HW281945   1.864   2.051   0.031 -0.2056  0.0727  0.9721
23296SOL     OW81946   3.166   3.562   0.025  0.4263 -0.2224  0.1626
23296SOL    HW181947   3.132   3.546   0.118 -1.0641  0.7373 -0.2089
23296SOL    HW281948   3.141   3.654  -0.004  0.3282 -0.7374 -1.4309
23297SOL     OW81949   0.077   4.889   5.449 -0.5304  0.2013 -0.0783
23297SOL    HW181950  -0.017   4.921   5.460 -0.9724 -0.9219 -0.5787
23297SOL    HW281951   0.107   4.904   5.355 -0.2694  0.3827  0.0326
23298SOL     OW81952   4.642   2.146   5.825 -0.2481  0.0024 -0.1418
23298SOL    HW181953   4.563   2.146   5.764  0.8984  0.4839 -1.6362
23298SOL    HW281954   4.628   2.077   5.897 -1.9715  0.0180 -0.4401
23299SOL     OW81955   9.218   3.558   6.214 -0.3179  0.4284 -0.6383
23299SOL    HW181956   9.122   3.567   6.184 -0.4193  0.7769 -0.2112
23299SOL    HW281957   9.231   3.609   6.299 -0.6752 -2.6125  1.3530
23300SOL     OW81958   3.066   2.748   4.941  0.6002 -0.2796 -0.1962
23300SOL    HW181959   3.024   2.783   4.858  0.7729  0.5848  0.0781
23300SOL    HW281960   3.036   2.654   4.957 -0.0127 -0.1922 -0.8343
23301SOL     OW81961   6.742   3.458   2.904 -0.4065  0.1365  0.1977
23301SOL    HW181962   6.767   3.381   2.846  1.4461  0.9819 -0.1672
23301SOL    HW281963   6.822   3.517   2.917 -1.2509  0.8682  2.2043
23302SOL     OW81964   5.774   9.709   5.509 -0.2105 -0.6597  0.2574
23302SOL    HW181965   5.759   9.808   5.501 -1.4857 -0.5673  3.1376
23302SOL    HW281966   5.781   9.669   5.418  0.1770  2.0608 -0.9528
23303SOL     OW81967   7.015   9.527   4.275 -0.0096 -0.1815  0.7291
23303SOL    HW181968   7.036   9.484   4.363 -0.3340  0.2305  1.0158
23303SOL    HW281969   7.010   9.458   4.204 -0.1908 -0.5732  1.1199
23304SOL     OW81970   4.037   0.160   5.951  0.0184  0.2759 -0.1402
23304SOL    HW181971   3.993   0.156   6.041  2.8913 -0.0761  1.2889
23304SOL    HW281972   4.045   0.255   5.921 -1.9357  0.3292 -0.5657
23305SOL     OW81973   0.699   0.987   6.812  0.1076 -0.8485  0.2834
23305SOL    HW181974   0.729   0.892   6.802  0.5202 -0.9847  2.5521
23305SOL    HW281975   0.684   1.007   6.909 -0.0043  1.3942 -0.1718
23306SOL     OW81976   4.410   2.058   5.664 -0.1652 -0.3728 -0.1029
23306SOL    HW181977   4.323   2.068   5.615 -0.6817  0.3772  0.9410
23306SOL    HW281978   4.413   1.970   5.710 -0.8808  0.0914  0.8346
23307SOL     OW81979   6.077   1.771   1.722  0.1829 -0.0870  0.0207
23307SOL    HW181980   6.038   1.715   1.794 -0.6040  1.2276  0.6302
23307SOL    HW281981   6.105   1.713   1.645  0.2440 -1.3911  1.0241
23308SOL     OW81982   4.731   8.714   6.335 -0.0800  0.1702 -0.0040
23308SOL    HW181983   4.786   8.730   6.253 -0.4284  0.0434 -0.2588
23308SOL    HW281984   4.746   8.790   6.399  0.1395  0.3011 -0.2079
23309SOL     OW81985   0.466   2.365   3.528 -0.0567  0.1532  0.8004
23309SOL    HW181986   0.384   2.355   3.472 -1.8627 -0.5309  3.4321
23309SOL    HW281987   0.521   2.281   3.522 -1.6236 -1.0052  2.1029
23310SOL     OW81988   6.456   9.556   2.580  0.0022 -0.0156  0.1119
23310SOL    HW181989   6.381   9.601   2.530 -0.5631 -0.0490  0.9168
23310SOL    HW281990   6.500   9.622   2.640 -0.1545 -0.2770  0.5191
23311SOL     OW81991   0.963   1.346   9.611  0.0030 -0.0812 -0.2684
23311SOL    HW181992   1.042   1.362   9.551 -0.0582 -1.0344 -0.6237
23311SOL    HW281993   0.883   1.392   9.573 -0.3321 -1.7188 -1.6384
23312SOL     OW81994   9.901   1.337   2.834 -0.5145  0.3756 -0.0304
23312SOL    HW181995   9.850   1.275   2.894  1.8302  0.0743  1.7110
23312SOL    HW281996   9.838   1.407   2.799 -2.3971 -0.7282  1.0259
23313SOL     OW81997   1.572   2.639   5.573 -0.3522  0.7437 -1.0457
23313SOL    HW181998   1.599   2.736   5.571 -1.2016  0.9999 -0.5528
23313SOL    HW281999   1.478   2.632   5.608 -0.0336 -0.3276 -0.4073
23314SOL     OW82000   5.538   2.014   8.828  0.1307 -0.3287  0.1537
23314SOL    HW182001   5.586   1.962   8.757  3.4784  0.1765  1.9477
23314SOL    HW282002   5.569   2.109   8.827  0.1166 -0.2838  2.2118
23315SOL     OW82003   1.053   9.574   8.002 -0.1659  0.2747  0.0771
23315SOL    HW182004   1.034   9.477   8.017 -0.5598  0.1436 -1.2379
23315SOL    HW282005   1.085   9.588   7.909  3.5629  0.8945  1.3965
23316SOL     OW82006   5.007   7.421   4.967  0.3799 -0.6090  0.1892
23316SOL    HW182007   5.024   7.333   5.011  3.0981 -0.0584  0.3318
23316SOL    HW282008   4.977   7.406   4.872 -0.5434 -1.6934  0.6447
23317SOL     OW82009   2.960   3.264   8.354  0.1518  0.4379  0.3751
23317SOL    HW182010   3.040   3.311   8.391  2.1155 -1.5011 -1.2327
23317SOL    HW282011   2.931   3.193   8.419  0.7682  0.0728  0.2638
23318SOL     OW82012   2.674   7.428   6.740 -0.1256 -0.5998 -0.1035
23318SOL    HW182013   2.683   7.460   6.646  2.0274  0.6208  0.4807
23318SOL    HW282014   2.598   7.475   6.785  2.0712  2.7339  0.2970
23319SOL     OW82015   9.227   4.833   5.969  0.6031 -0.4870 -0.6387
23319SOL    HW182016   9.210   4.783   5.884  0.7777  0.4358 -1.2296
23319SOL    HW282017   9.140   4.868   6.005  0.3792 -1.9461  0.2359
23320SOL     OW82018   7.235   5.668   6.360 -0.5048 -0.7749  0.0086
23320SOL    HW182019   7.298   5.668   6.282  0.4819  4.3988  0.6487
23320SOL    HW282020   7.277   5.619   6.436  1.1837 -0.5027 -0.7304
23321SOL     OW82021   2.815   3.378   0.860 -0.0502  0.0847 -0.0399
23321SOL    HW182022   2.769   3.362   0.947  0.0145 -0.1007 -0.0405
23321SOL    HW282023   2.851   3.292   0.824 -1.6091 -0.1262 -1.1245
23322SOL     OW82024   3.053   5.588   1.866  0.1731  0.3127  0.2737
23322SOL    HW182025   3.082   5.492   1.862 -1.5446 -0.1391 -2.1141
23322SOL    HW282026   3.118   5.645   1.816 -0.3851 -0.0420 -0.8828
23323SOL     OW82027   4.476   4.100   1.711  0.1015 -0.3822 -0.4545
23323SOL    HW182028   4.388   4.065   1.679  0.5110 -0.2318 -1.7727
23323SOL    HW282029   4.462   4.189   1.755 -0.5167 -0.7728  0.1607
23324SOL     OW82030   3.414   5.518   7.230 -0.0824 -0.2405 -0.1854
23324SOL    HW182031   3.465   5.467   7.300  0.2002  1.7015  1.0395
23324SOL    HW282032   3.442   5.614   7.231 -2.5883  0.5193 -0.6053
23325SOL     OW82033   3.854   3.105   8.605  0.4296  0.0392  0.7549
23325SOL    HW182034   3.903   3.189   8.626  0.2368  0.6535 -1.1988
23325SOL    HW282035   3.767   3.104   8.654 -0.1330  1.5654 -0.2052
23326SOL     OW82036   8.132   2.225   7.273  0.6324  0.6265  0.3171
23326SOL    HW182037   8.101   2.130   7.267 -0.3241  0.9344  0.3221
23326SOL    HW282038   8.134   2.266   7.182  2.2292  0.2418  0.1601
23327SOL     OW82039   2.849   3.329   4.764  0.4317  0.6331 -0.2679
23327SOL    HW182040   2.785   3.333   4.841  1.0988  0.2087  0.3191
23327SOL    HW282041   2.801   3.299   4.682 -0.2258  0.7927  0.0579
23328SOL     OW82042   0.654   3.434   2.298 -0.0051 -0.1833 -0.1268
23328SOL    HW182043   0.629   3.371   2.371  0.6264  1.3411  1.4440
23328SOL    HW282044   0.671   3.383   2.214 -1.3857 -1.9065  0.6084
23329SOL     OW82045   3.884   2.175   4.768 -0.1180  0.2871  0.4267
23329SOL    HW182046   3.955   2.240   4.740 -0.5715  1.4684  2.0011
23329SOL    HW282047   3.840   2.137   4.686  1.8671  0.0402 -0.5428
23330SOL     OW82048   6.110   6.019   0.095 -0.1644 -0.2117  0.1916
23330SOL    HW182049   6.043   6.039   0.167 -0.4038  2.3359 -0.6761
23330SOL    HW282050   6.202   6.017   0.134 -0.4230 -0.1818  0.8021
23331SOL     OW82051   2.436   0.647   9.822 -0.7159 -0.5626 -0.1826
23331SOL    HW182052   2.477   0.570   9.871  2.4946  0.3826 -1.2552
23331SOL    HW282053   2.425   0.622   9.725 -1.7729 -0.4683 -0.0848
23332SOL     OW82054   2.550   1.558   5.460 -0.0649 -0.0870  0.2686
23332SOL    HW182055   2.531   1.611   5.377  0.9403  0.1707  0.1907
23332SOL    HW282056   2.567   1.463   5.435 -2.9843 -0.7224  0.5178
23333SOL     OW82057   3.419   8.908   0.742 -0.2166 -0.1286 -0.6007
23333SOL    HW182058   3.399   8.821   0.697  0.6127  0.2745 -1.7737
23333SOL    HW282059   3.465   8.890   0.829 -1.9990 -0.9182  0.2039
23334SOL     OW82060   1.405   5.107   9.395 -0.2544 -0.7157  0.2534
23334SOL    HW182061   1.351   5.132   9.475 -0.2830  1.0743 -0.3026
23334SOL    HW282062   1.501   5.099   9.422  0.0239  1.7799  0.1239
23335SOL     OW82063   4.322   8.554   3.064 -0.4230  0.2047 -0.1589
23335SOL    HW182064   4.390   8.621   3.097  0.7925 -0.2081 -1.7471
23335SOL    HW282065   4.321   8.555   2.964 -0.8822 -1.6933 -0.1816
23336SOL     OW82066   1.444   4.186   9.546 -0.0766  0.0496 -0.2348
23336SOL    HW182067   1.500   4.256   9.500  1.3229 -2.4183 -2.4301
23336SOL    HW282068   1.503   4.111   9.575 -1.7917 -0.9896  0.6089
23337SOL     OW82069   5.508   1.417   4.168  0.2505 -0.0214 -0.2215
23337SOL    HW182070   5.522   1.345   4.236  1.4383 -0.5184 -0.9718
23337SOL    HW282071   5.425   1.398   4.115 -1.0240  0.6912  1.4755
23338SOL     OW82072   7.218   5.337   7.752 -0.4169 -0.2328  0.2418
23338SOL    HW182073   7.180   5.248   7.728 -1.4155  0.6934 -1.7570
23338SOL    HW282074   7.302   5.352   7.700  0.1301 -0.2793  1.0976
23339SOL     OW82075   3.499   6.370   7.286  0.4030 -0.0458  0.4114
23339SOL    HW182076   3.580   6.345   7.339  1.1237  0.6418 -0.3422
23339SOL    HW282077   3.446   6.438   7.336  0.6377 -0.0183  0.6244
23340SOL     OW82078   5.098   6.424   9.961  0.4457  0.2040 -0.2464
23340SOL    HW182079   5.178   6.409   9.903  0.8981  0.0311  0.4101
23340SOL    HW282080   5.079   6.341  10.014  0.1531  0.4163 -0.0154
23341SOL     OW82081   9.499   6.609   4.093 -0.0129 -0.7675  0.1035
23341SOL    HW182082   9.493   6.528   4.150 -2.5457 -0.0321  0.9539
23341SOL    HW282083   9.580   6.662   4.118 -0.3477 -1.1639  2.0611
23342SOL     OW82084   4.415   4.092   3.794 -0.0908  1.0242  0.1962
23342SOL    HW182085   4.325   4.064   3.760 -0.8587  3.1500  0.3972
23342SOL    HW282086   4.412   4.099   3.894  0.6901 -0.1870  0.3124
23343SOL     OW82087   8.981   3.034   4.845  0.2999  0.1892 -0.1230
23343SOL    HW182088   9.019   3.080   4.766  1.9420  0.1679  0.6390
23343SOL    HW282089   8.925   3.098   4.898  0.3167  0.5629 -0.5601
23344SOL     OW82090   0.923   6.355   8.754  0.1972 -0.6054 -0.1829
23344SOL    HW182091   0.880   6.268   8.733  3.2534 -2.0089 -0.8581
23344SOL    HW282092   0.913   6.417   8.676 -1.4983 -0.5054  0.0954
23345SOL     OW82093   9.959   6.200   2.216 -0.0154 -0.0268  0.1330
23345SOL    HW182094   9.861   6.217   2.209  0.1640  1.3387  0.9257
23345SOL    HW282095  10.000   6.199   2.124 -0.7273 -0.4045 -0.1821
23346SOL     OW82096   0.561   8.045   8.767  0.7547  0.2114 -0.0407
23346SOL    HW182097   0.639   7.983   8.770  0.4486 -0.1609  0.2850
23346SOL    HW282098   0.479   7.997   8.797  0.0926  0.1494 -1.8748
23347SOL     OW82099   2.428   3.834   6.796  0.0220 -0.0477 -0.6218
23347SOL    HW182100   2.406   3.744   6.761 -0.5197 -0.2618  0.2578
23347SOL    HW282101   2.440   3.829   6.895 -2.7868  1.3609 -0.1687
23348SOL     OW82102   7.316   2.413   3.066 -0.5069  0.4392 -0.2015
23348SOL    HW182103   7.367   2.369   3.140  0.0122  2.2574  0.5623
23348SOL    HW282104   7.375   2.420   2.985 -0.0817  1.0281  0.1482
23349SOL     OW82105   2.747   0.394   9.582 -0.0330 -0.9626  0.1479
23349SOL    HW182106   2.756   0.389   9.681 -1.9643 -2.2120  0.2812
23349SOL    HW282107   2.773   0.307   9.541  0.2879 -0.6111 -0.4138
23350SOL     OW82108   9.672   8.462   4.246  0.4717 -0.1686  0.1937
23350SOL    HW182109   9.738   8.398   4.207  0.0207  0.0471 -0.9351
23350SOL    HW282110   9.580   8.421   4.245  0.6222 -0.6040  2.0744
23351SOL     OW82111   3.711   1.686   0.176 -0.4216 -0.1360 -0.2264
23351SOL    HW182112   3.749   1.697   0.268 -2.7524 -0.6498  0.8366
23351SOL    HW282113   3.626   1.739   0.169 -1.3470 -1.7597 -1.3977
23352SOL     OW82114   8.846   7.317   2.249 -0.5305  0.4089 -0.5392
23352SOL    HW182115   8.769   7.258   2.225  0.2787 -0.8665  0.0018
23352SOL    HW282116   8.832   7.407   2.208 -2.4843  0.2960 -0.1685
23353SOL     OW82117   8.350   2.842   8.212 -0.3405 -0.2390 -0.1635
23353SOL    HW182118   8.371   2.751   8.178 -1.1886 -1.2710  1.9922
23353SOL    HW282119   8.433   2.898   8.212  0.5021 -1.4814 -0.1028
23354SOL     OW82120   4.481   3.930   5.090  0.2100  0.0571 -0.2293
23354SOL    HW182121   4.424   3.864   5.042  1.4557 -1.9836  0.9975
23354SOL    HW282122   4.567   3.944   5.040 -0.4294  1.4775 -0.9606
23355SOL     OW82123   2.403   1.825   2.955 -0.1841  0.0758  0.0392
23355SOL    HW182124   2.458   1.829   3.039 -0.0554  1.2950 -0.0841
23355SOL    HW282125   2.337   1.900   2.956  1.1779  1.3500 -1.8694
23356SOL     OW82126   2.451   8.897   3.171 -0.4549  0.1020 -0.3899
23356SOL    HW182127   2.511   8.967   3.132 -3.3534  2.7761 -0.3224
23356SOL    HW282128   2.450   8.817   3.111  0.6427  1.3319 -2.1077
23357SOL     OW82129   4.975   1.735   7.660 -0.3571 -0.8505 -0.3151
23357SOL    HW182130   5.055   1.748   7.718  2.6382  0.7421 -4.5461
23357SOL    HW282131   4.899   1.791   7.694  1.2326 -0.0981  2.1017
23358SOL     OW82132   1.435   1.486   4.883  0.4714 -0.0663 -0.1528
23358SOL    HW182133   1.345   1.443   4.878  1.0303 -0.9945 -2.8458
23358SOL    HW282134   1.503   1.426   4.840  2.0344  1.5213  0.0427
23359SOL     OW82135   6.629   3.958   1.552  0.3170  0.1545  0.2841
23359SOL    HW182136   6.562   3.997   1.616 -1.2465 -2.1365  0.0861
23359SOL    HW282137   6.598   3.973   1.458  1.2119  1.0279  0.1148
23360SOL     OW82138   2.595   1.713   2.124  0.4416  0.6013  0.5733
23360SOL    HW182139   2.507   1.755   2.099  0.6859  1.8866  1.8315
23360SOL    HW282140   2.606   1.715   2.223  1.6694 -0.0365  0.4561
23361SOL     OW82141   3.800   1.814  10.005  0.2880 -0.5527 -0.5352
23361SOL    HW182142   3.757   1.800  10.094  1.1140  1.4928  0.2191
23361SOL    HW282143   3.891   1.853  10.018  0.5367 -0.5117 -2.2783
23362SOL     OW82144   3.718   9.468   6.686 -0.6183  0.4470 -0.2873
23362SOL    HW182145   3.788   9.463   6.757 -0.0596 -1.3473 -0.9255
23362SOL    HW282146   3.628   9.454   6.727 -0.5156  1.6599  0.3752
23363SOL     OW82147   3.440   3.166   8.258  0.0186 -0.0320  0.3945
23363SOL    HW182148   3.356   3.147   8.309 -1.0608 -0.8994 -1.6495
23363SOL    HW282149   3.519   3.138   8.312 -1.1301 -1.7263  1.2517
23364SOL     OW82150   4.780   8.445   7.485 -0.3239  0.2130 -0.4186
23364SOL    HW182151   4.865   8.497   7.474 -0.3968  0.3989 -0.1254
23364SOL    HW282152   4.801   8.347   7.491 -0.0828  0.2925  0.1273
23365SOL     OW82153   0.955   3.612   6.973 -0.1881 -0.2787  0.0332
23365SOL    HW182154   0.910   3.592   6.886  0.1938 -0.3157 -0.1566
23365SOL    HW282155   1.024   3.543   6.992 -1.5899 -1.3727  1.3224
23366SOL     OW82156   1.746   8.366   6.223 -0.6610 -0.2222  0.2543
23366SOL    HW182157   1.682   8.396   6.152 -0.4324  0.0596  0.1634
23366SOL    HW282158   1.809   8.299   6.184  0.5225  1.1681 -0.2624
23367SOL     OW82159   6.671   3.576   0.214  0.0328 -0.3222 -0.1917
23367SOL    HW182160   6.738   3.634   0.167  1.0086  0.9544  2.6707
23367SOL    HW282161   6.598   3.632   0.251 -0.0084 -1.1291  0.9813
23368SOL     OW82162   1.444   8.203   6.700 -0.6036  0.1378 -0.5864
23368SOL    HW182163   1.502   8.124   6.721  0.7840  1.0027 -1.1150
23368SOL    HW282164   1.365   8.174   6.647 -0.2492 -0.9356 -0.5312
23369SOL     OW82165   0.387   0.396   4.266 -0.5686 -0.0848  0.4999
23369SOL    HW182166   0.476   0.365   4.299 -0.4886  1.2277  1.6074
23369SOL    HW282167   0.325   0.406   4.344 -0.7255  1.9852  0.1368
23370SOL     OW82168   3.630   3.023   8.436  0.1022  1.0794  0.0945
23370SOL    HW182169   3.723   3.028   8.471 -0.2009  1.7227  0.8317
23370SOL    HW282170   3.619   2.941   8.380  0.4234 -0.3523  2.0735
23371SOL     OW82171   7.900   9.617   6.496  0.3078  0.2646 -0.2485
23371SOL    HW182172   7.876   9.580   6.586  0.7571  0.1177 -0.1894
23371SOL    HW282173   7.844   9.571   6.426  0.4548 -0.1178 -0.1167
23372SOL     OW82174   4.053   9.518   0.723 -0.3121  0.2453  0.8605
23372SOL    HW182175   4.086   9.544   0.813 -0.8729 -3.1479  2.1164
23372SOL    HW282176   4.126   9.469   0.674 -0.2619  1.4143 -0.2947
23373SOL     OW82177   8.972   2.130   3.298  0.3758 -0.2811 -0.0472
23373SOL    HW182178   8.994   2.227   3.305  0.2810 -0.1425 -1.5898
23373SOL    HW282179   9.056   2.076   3.297  0.4719 -0.1235 -0.4836
23374SOL     OW82180   6.741   4.937   0.598 -0.0518  0.5413 -0.1562
23374SOL    HW182181   6.746   4.969   0.504 -0.1074  1.1487  0.0449
23374SOL    HW282182   6.832   4.943   0.640  0.1318 -0.4544 -0.4052
23375SOL     OW82183   7.127   0.214   3.881 -0.2944  0.3755 -0.0695
23375SOL    HW182184   7.116   0.141   3.948 -1.5335  0.5766 -0.0404
23375SOL    HW282185   7.081   0.296   3.914 -2.0340  0.0979 -1.7265
23376SOL     OW82186   7.990   3.208   7.136  0.0700 -0.1591 -0.5476
23376SOL    HW182187   7.925   3.149   7.087 -1.0479 -0.5201  1.3369
23376SOL    HW282188   7.954   3.301   7.140  0.4908  0.0282 -0.9905
23377SOL     OW82189   9.038   3.856   5.331  0.1064 -0.3117  0.4370
23377SOL    HW182190   9.059   3.948   5.298 -1.0783 -0.7679 -1.6560
23377SOL    HW282191   9.027   3.794   5.253 -0.1670 -2.0020  1.7893
23378SOL     OW82192   4.674   5.617   0.592 -0.2496  0.4901  0.2931
23378SOL    HW182193   4.733   5.650   0.518 -1.2568  2.1318  0.1926
23378SOL    HW282194   4.623   5.537   0.562 -0.9435  1.3810 -0.9303
23379SOL     OW82195   2.669   3.277   8.319  0.1936 -0.7703 -0.3641
23379SOL    HW182196   2.752   3.233   8.353 -0.7902 -2.8526 -0.5574
23379SOL    HW282197   2.650   3.246   8.226  0.5872  1.6857 -1.3026
23380SOL     OW82198   8.688   2.024   0.627 -0.1002 -0.2301  0.6854
23380SOL    HW182199   8.731   2.017   0.717  0.2314 -2.6474  0.3617
23380SOL    HW282200   8.653   1.935   0.599 -2.4949  1.0197 -0.4798
23381SOL     OW82201   8.925   0.866   0.800 -0.8565 -0.3226  0.5108
23381SOL    HW182202   8.914   0.959   0.834 -1.3568  0.2243 -1.1257
23381SOL    HW282203   8.983   0.866   0.719 -1.3594 -1.3663  0.1360
23382SOL     OW82204   4.122   4.354   1.957  0.1602  0.4158  0.1151
23382SOL    HW182205   4.181   4.296   1.901 -0.3415 -0.7335  0.7570
23382SOL    HW282206   4.104   4.309   2.044  0.2528  1.8165  0.8728
23383SOL     OW82207   6.604   1.281   6.566  0.5530 -0.1363 -0.0539
23383SOL    HW182208   6.536   1.216   6.533  1.0314 -1.0887  0.8070
23383SOL    HW282209   6.666   1.305   6.491  1.4456 -2.0442  0.0431
23384SOL     OW82210   8.139   9.653   2.403 -1.1602  0.0242  0.2594
23384SOL    HW182211   8.100   9.636   2.313  1.7098  1.5605 -1.3532
23384SOL    HW282212   8.211   9.585   2.421  0.0543  1.2617  0.2139
23385SOL     OW82213   0.757   2.332   3.899 -0.0369  0.0823  0.4734
23385SOL    HW182214   0.785   2.282   3.817  0.2091  0.1715  0.5017
23385SOL    HW282215   0.680   2.392   3.877 -1.9053 -2.0987  1.0058
23386SOL     OW82216   3.569   7.645   7.628 -0.0790 -0.0325  0.7800
23386SOL    HW182217   3.551   7.723   7.567 -0.7626  0.1814  1.2579
23386SOL    HW282218   3.505   7.647   7.705  0.6450 -0.4285  1.3938
23387SOL     OW82219   8.391   2.096   5.662 -0.0524 -0.0805 -0.6831
23387SOL    HW182220   8.365   2.013   5.711  1.4567 -0.4115 -0.4168
23387SOL    HW282221   8.489   2.092   5.639  0.0919  1.7305 -0.4498
23388SOL     OW82222   7.672   6.164   2.096  0.0183  0.8799 -0.5175
23388SOL    HW182223   7.710   6.240   2.148  1.8591  0.6140 -1.4166
23388SOL    HW282224   7.662   6.192   2.000  1.5943 -0.2730 -1.0433
23389SOL     OW82225   5.092   9.231   7.473 -0.5643 -0.3529  0.6689
23389SOL    HW182226   5.166   9.259   7.412  0.3300 -2.7309  0.5965
23389SOL    HW282227   5.004   9.241   7.426 -0.1521  0.9124  0.1566
23390SOL     OW82228   8.103   1.512   4.932  0.1818 -0.3397 -0.1581
23390SOL    HW182229   8.085   1.584   5.000  0.2016 -1.0361  0.5917
23390SOL    HW282230   8.100   1.551   4.840 -3.4457 -0.0862  0.0106
23391SOL     OW82231   2.510   4.540   1.087  0.1038  0.1246  0.3954
23391SOL    HW182232   2.430   4.518   1.142  0.4377 -1.0729  0.4282
23391SOL    HW282233   2.546   4.630   1.112 -0.6346  0.2266  1.0705
23392SOL     OW82234   1.884   7.998   4.880 -0.2235 -0.4174  0.2493
23392SOL    HW182235   1.924   7.930   4.819 -0.9353 -0.4997 -0.1280
23392SOL    HW282236   1.807   8.043   4.835 -0.3698 -0.0398  0.8562
23393SOL     OW82237   7.626   2.763   4.282 -0.0159 -0.4273  0.3420
23393SOL    HW182238   7.638   2.827   4.358  1.7686  0.6876 -0.8401
23393SOL    HW282239   7.658   2.806   4.198  1.0532 -2.8104 -0.5022
23394SOL     OW82240   9.548   3.656   0.348 -0.2475  0.0923  0.2029
23394SOL    HW182241   9.502   3.684   0.433 -0.0558  1.0762 -0.0169
23394SOL    HW282242   9.518   3.715   0.273 -0.3402 -0.7133 -0.4007
23395SOL     OW82243   8.689   6.053   8.922 -0.5092 -0.1042  0.2425
23395SOL    HW182244   8.620   6.074   8.992  0.1755  0.6191  0.7197
23395SOL    HW282245   8.751   5.983   8.957 -1.1802 -0.9883 -0.3105
23396SOL     OW82246   5.796   4.794   1.719  0.0610 -0.2732  0.7622
23396SOL    HW182247   5.757   4.763   1.805  0.7751 -1.2452  0.7563
23396SOL    HW282248   5.723   4.825   1.658 -0.6499 -1.5462  0.9516
23397SOL     OW82249   3.826   9.546   9.500  0.2900  0.4225 -0.9860
23397SOL    HW182250   3.907   9.582   9.547  0.5494 -2.8634  1.2286
23397SOL    HW282251   3.851   9.462   9.451 -1.3825  0.4376 -1.8729
23398SOL     OW82252   0.821   8.511   9.663 -0.1466  0.1949  0.0094
23398SOL    HW182253   0.909   8.482   9.626  0.5237  1.0423  0.8979
23398SOL    HW282254   0.769   8.431   9.694 -0.0217 -0.3721 -1.2175
23399SOL     OW82255   4.632   0.185   5.523 -0.0438 -0.8988  0.3985
23399SOL    HW182256   4.589   0.223   5.441  1.5180 -2.6928 -1.3376
23399SOL    HW282257   4.691   0.253   5.565 -2.3017  0.6368  1.1269
23400SOL     OW82258   0.279   8.396   2.887  0.9059  0.2402  0.1494
23400SOL    HW182259   0.306   8.334   2.813  0.8004  1.5225 -0.9883
23400SOL    HW282260   0.214   8.350   2.947  2.2170 -1.3558  0.3733
23401SOL     OW82261   9.754   7.374   7.645  0.0601  0.7417  0.1525
23401SOL    HW182262   9.774   7.393   7.549 -1.8036 -0.2169 -0.4562
23401SOL    HW282263   9.707   7.452   7.686  0.8618  1.1541  0.2838
23402SOL     OW82264   2.824   6.754   5.710 -0.1789 -0.2602 -1.0536
23402SOL    HW182265   2.741   6.798   5.676 -1.3953 -2.1309 -0.5942
23402SOL    HW282266   2.842   6.671   5.657  1.2013 -0.0397 -0.9305
23403SOL     OW82267   9.092   4.442   1.305 -0.3479 -0.6402 -0.7272
23403SOL    HW182268   9.110   4.456   1.402  0.2611 -1.4563 -0.7186
23403SOL    HW282269   9.162   4.382   1.266 -1.1127 -1.0616 -1.4706
23404SOL     OW82270   8.658   9.954  10.016 -0.0240  0.4434 -0.3229
23404SOL    HW182271   8.747   9.979   9.979  0.2623  2.4485  1.6007
23404SOL    HW282272   8.604  10.037  10.032 -0.6420 -0.4186  2.3912
23405SOL     OW82273   0.387   8.266   2.668 -0.5316 -0.2548  0.2407
23405SOL    HW182274   0.299   8.304   2.641 -0.9911 -1.2040  0.3662
23405SOL    HW282275   0.443   8.249   2.587 -0.2608  0.8382  0.2001
23406SOL     OW82276   8.856   4.186   9.793  0.2893 -0.2882 -0.0068
23406SOL    HW182277   8.789   4.124   9.752 -1.4896  2.3086 -1.1454
23406SOL    HW282278   8.945   4.173   9.750 -0.2396 -1.5068 -0.7566
23407SOL     OW82279   7.054   7.197   6.115 -0.0120 -0.2816 -0.0022
23407SOL    HW182280   7.151   7.189   6.139 -0.4929 -2.1441  1.4551
23407SOL    HW282281   7.040   7.157   6.024  0.5930  0.0245 -0.2350
23408SOL     OW82282   4.202   9.606   2.777 -0.3953  0.2284  0.1189
23408SOL    HW182283   4.119   9.574   2.731 -1.6115  0.0179  2.3896
23408SOL    HW282284   4.248   9.528   2.821  1.0381  0.3377 -1.1490
23409SOL     OW82285   8.750   3.543   9.115  0.2154 -0.2917  0.1916
23409SOL    HW182286   8.737   3.625   9.171  1.3517  0.8732 -1.2099
23409SOL    HW282287   8.687   3.547   9.037  3.0975  1.3169 -2.1280
23410SOL     OW82288   3.401   6.371   4.127 -0.1969 -0.0159  0.0789
23410SOL    HW182289   3.434   6.333   4.213 -1.4603 -0.5127  0.3498
23410SOL    HW282290   3.367   6.298   4.068 -2.1623  0.6149  0.3971
23411SOL     OW82291   8.687   0.384   1.052  0.0979  0.4133  0.7848
23411SOL    HW182292   8.723   0.361   0.962  2.5419  1.4286  1.4639
23411SOL    HW282293   8.613   0.451   1.043 -0.2159 -0.0956 -0.4983
23412SOL     OW82294   6.640   2.274   0.044 -0.1423  0.1028  0.2438
23412SOL    HW182295   6.656   2.176   0.050  1.4867  0.3837  0.8125
23412SOL    HW282296   6.565   2.292  -0.019 -2.1189 -1.6333  2.0085
23413SOL     OW82297   7.646   4.526   9.084 -0.8211  0.5163  0.0858
23413SOL    HW182298   7.679   4.617   9.109  1.7521  0.4908 -2.8085
23413SOL    HW282299   7.655   4.464   9.161 -1.5528  2.4344  1.7469
23414SOL     OW82300   8.015   0.494   5.084  0.1329  0.7785 -0.4219
23414SOL    HW182301   8.089   0.562   5.084 -1.3324  2.4656  1.0558
23414SOL    HW282302   8.020   0.440   5.168  1.1698 -0.8226 -1.5007
23415SOL     OW82303   0.387   1.331   7.094 -0.1261  0.4950 -0.2432
23415SOL    HW182304   0.421   1.334   7.188 -0.8363  1.0980 -0.0021
23415SOL    HW282305   0.427   1.406   7.041  2.0856 -1.1913 -1.0602
23416SOL     OW82306   4.020   9.435   6.400 -0.0739  0.1826  0.5589
23416SOL    HW182307   4.018   9.348   6.450 -1.2414 -0.3414 -0.3754
23416SOL    HW282308   4.063   9.505   6.457 -0.4782 -0.6472  1.9085
23417SOL     OW82309   3.060   0.795   2.018 -0.2956 -0.2046 -0.5142
23417SOL    HW182310   3.083   0.739   2.098 -0.5973 -0.1651 -0.3960
23417SOL    HW282311   2.979   0.849   2.039 -1.1319 -1.1396 -1.2932
23418SOL     OW82312   8.756   0.992   0.190 -0.3921 -0.0682 -0.2920
23418SOL    HW182313   8.731   1.088   0.184 -1.4543 -0.2675  0.8361
23418SOL    HW282314   8.702   0.940   0.124 -1.4878 -0.2079  0.7044
23419SOL     OW82315   9.055   1.645   9.424 -0.1470  0.0496 -0.1700
23419SOL    HW182316   9.032   1.587   9.501 -0.7378  0.8086  0.2316
23419SOL    HW282317   9.004   1.616   9.343  0.1657 -0.4867 -0.1777
23420SOL     OW82318   6.264   1.304   5.997  0.5955  0.1458  0.1796
23420SOL    HW182319   6.187   1.283   5.936  0.4512  0.6416  0.1896
23420SOL    HW282320   6.279   1.403   5.998  0.3119  0.1751  1.2963
23421SOL     OW82321   9.976   0.184   4.270 -0.2104 -0.6130  0.6340
23421SOL    HW182322  10.025   0.126   4.334  0.1190 -0.3976  0.5742
23421SOL    HW282323   9.951   0.131   4.189 -0.7767 -0.9293  1.0130
23422SOL     OW82324   8.369   6.394   8.558  0.1694 -0.2255 -0.2382
23422SOL    HW182325   8.468   6.390   8.549  0.1599  0.0562 -0.5018
23422SOL    HW282326   8.332   6.302   8.570  0.4764 -0.3160  0.0267
23423SOL     OW82327   3.398   3.187   5.465 -0.1441 -0.8890 -0.4139
23423SOL    HW182328   3.440   3.106   5.505  1.1918  0.0824  0.2118
23423SOL    HW282329   3.450   3.214   5.383  0.4931  0.3276  0.3724
23424SOL     OW82330   2.658   2.423   3.809  0.1093 -0.3484  0.5705
23424SOL    HW182331   2.570   2.376   3.822 -0.3213  0.8162  1.9152
23424SOL    HW282332   2.658   2.468   3.719 -0.9844  0.3135  0.8894
23425SOL     OW82333   6.576   9.366   6.249 -0.0839  0.4459 -0.0826
23425SOL    HW182334   6.542   9.322   6.166  2.0873  0.9339 -1.2634
23425SOL    HW282335   6.528   9.329   6.329 -1.0146 -1.2240 -1.3934
23426SOL     OW82336   5.246   6.989   2.085 -0.8497 -0.1974  0.2735
23426SOL    HW182337   5.197   7.040   2.156 -0.0488  0.3235  0.4606
23426SOL    HW282338   5.184   6.969   2.010 -2.2526 -2.5010  1.9621
23427SOL     OW82339   1.380   2.285   8.993 -0.3521  0.6023  0.3530
23427SOL    HW182340   1.345   2.192   9.002  1.8549 -0.3036 -0.1402
23427SOL    HW282341   1.437   2.291   8.911 -0.7398  2.4760  0.2121
23428SOL     OW82342   9.149   2.416   6.324 -0.2325  0.4321 -0.2730
23428SOL    HW182343   9.202   2.456   6.398  1.0491 -1.0233 -0.3803
23428SOL    HW282344   9.210   2.367   6.262 -1.5120  0.1253 -1.3164
23429SOL     OW82345   6.824   3.077   1.390  0.5494 -0.1569  0.6554
23429SOL    HW182346   6.748   3.121   1.342 -0.0344 -1.6793  0.1786
23429SOL    HW282347   6.903   3.071   1.330  0.2857 -0.7367  0.3673
23430SOL     OW82348   4.972   5.040   9.268 -0.0554 -0.2281  0.0265
23430SOL    HW182349   5.068   5.064   9.258  0.0887 -1.0513 -0.7254
23430SOL    HW282350   4.922   5.066   9.185 -0.7145  1.2411  0.8738
23431SOL     OW82351   8.760   5.820   5.473  0.2218 -0.2106 -0.3563
23431SOL    HW182352   8.771   5.907   5.521 -1.7702 -0.0387 -0.1561
23431SOL    HW282353   8.778   5.833   5.375 -1.4849  0.7805 -0.5644
23432SOL     OW82354   6.670   5.562   9.107 -0.5686 -0.6821 -0.4642
23432SOL    HW182355   6.625   5.511   9.180 -2.2864  1.4174  0.0179
23432SOL    HW282356   6.753   5.605   9.144 -1.8434  1.0056  0.5017
23433SOL     OW82357   2.322   4.857   7.341  0.7306 -0.0176  1.0560
23433SOL    HW182358   2.282   4.942   7.305 -0.6908 -1.4528 -0.8352
23433SOL    HW282359   2.404   4.835   7.290  0.5694 -0.2969  0.9207
23434SOL     OW82360   6.611   0.276   8.052 -0.5306  0.2659 -0.1410
23434SOL    HW182361   6.617   0.300   8.149  2.8737  0.5449 -0.3432
23434SOL    HW282362   6.671   0.337   8.000 -2.3989  0.1768 -2.4649
23435SOL     OW82363   2.220   4.970   2.784 -0.2551 -0.2802 -0.2142
23435SOL    HW182364   2.200   4.885   2.736  2.2045 -0.3137 -1.2562
23435SOL    HW282365   2.162   5.044   2.747 -1.1708 -1.1256 -0.4860
23436SOL     OW82366   2.191   7.944   4.851 -0.3582 -0.0925  0.0427
23436SOL    HW182367   2.207   7.846   4.851 -1.1890 -0.2307 -0.3859
23436SOL    HW282368   2.124   7.968   4.921 -1.1436 -0.0008 -0.7339
23437SOL     OW82369   1.606   1.719   8.646  0.5898  0.0248 -0.4438
23437SOL    HW182370   1.656   1.756   8.568  0.0542  4.2244  1.1011
23437SOL    HW282371   1.665   1.718   8.727 -0.5183  0.9996  0.3906
23438SOL     OW82372   8.827   3.213   7.952  0.3696  0.4897 -0.1228
23438SOL    HW182373   8.780   3.168   7.876 -0.4487  0.2112  0.5510
23438SOL    HW282374   8.891   3.149   7.995 -0.0996  0.2631  0.2345
23439SOL     OW82375   2.261   0.548   5.412  0.2238 -0.0943 -0.2828
23439SOL    HW182376   2.186   0.495   5.449  1.4609 -0.6247  1.5310
23439SOL    HW282377   2.256   0.642   5.446  1.1084 -0.4679  0.9182
23440SOL     OW82378   9.819   6.922   3.768 -0.1415 -0.0451  0.0054
23440SOL    HW182379   9.908   6.882   3.791 -0.3800 -1.5465 -1.6391
23440SOL    HW282380   9.831   7.019   3.747  0.7392  0.3238  2.0438
23441SOL     OW82381   6.336   8.340   8.013 -0.8301  0.6538 -0.3053
23441SOL    HW182382   6.416   8.379   7.968 -1.4311  1.5672 -0.5989
23441SOL    HW282383   6.363   8.300   8.101  0.1241 -0.0049 -0.9005
23442SOL     OW82384   8.394   6.658   6.991  0.4463  0.0403  0.2903
23442SOL    HW182385   8.364   6.595   7.063 -1.8877  0.2040 -0.4775
23442SOL    HW282386   8.493   6.651   6.979  0.4772 -2.0757  1.5288
23443SOL     OW82387   0.792   4.505   6.268  0.0215  0.6129 -0.3724
23443SOL    HW182388   0.767   4.415   6.303 -1.7144  1.4670  0.6072
23443SOL    HW282389   0.887   4.503   6.237  0.6316 -1.0039  1.5099
23444SOL     OW82390   3.827   2.636   0.318  0.3468 -0.3051 -0.4438
23444SOL    HW182391   3.790   2.640   0.225 -0.6329 -2.0531 -0.1452
23444SOL    HW282392   3.786   2.708   0.374 -0.7010 -0.6461 -0.7793
23445SOL     OW82393   9.013   9.849   3.948 -0.5763 -0.2924 -0.0242
23445SOL    HW182394   8.984   9.863   3.853 -1.1400 -0.0630  0.1752
23445SOL    HW282395   8.938   9.875   4.009 -0.6493 -1.5976  0.4496
23446SOL     OW82396   4.185   2.468   2.751  0.1032 -0.6496  0.1295
23446SOL    HW182397   4.232   2.485   2.838 -0.8706  1.3270  0.3039
23446SOL    HW282398   4.087   2.456   2.769 -0.3077  1.1439 -0.8224
23447SOL     OW82399   2.937   7.960   4.364 -0.0764 -0.0658 -0.0723
23447SOL    HW182400   2.946   8.046   4.315 -0.6943 -0.6201 -1.1809
23447SOL    HW282401   2.956   7.884   4.301 -3.6638 -0.9152 -0.2204
23448SOL     OW82402   2.891   8.817   5.051 -0.3349 -0.1838 -0.5002
23448SOL    HW182403   2.985   8.810   5.084 -0.5761  0.3974  0.3133
23448SOL    HW282404   2.882   8.897   4.991 -0.1412 -0.6616 -1.1797
23449SOL     OW82405   4.719   1.880   1.915  0.2253 -0.4384 -0.2924
23449SOL    HW182406   4.631   1.926   1.907  0.2646 -0.0983  1.1399
23449SOL    HW282407   4.788   1.944   1.950  0.2766 -1.5576  1.7331
23450SOL     OW82408   6.347   4.843   2.130 -0.2368 -0.1967 -0.2208
23450SOL    HW182409   6.406   4.909   2.176 -0.8424 -0.1114  0.4342
23450SOL    HW282410   6.324   4.769   2.194  0.2172 -0.9025 -0.8664
23451SOL     OW82411   0.627   8.677   1.627 -0.1600  0.0581  0.2460
23451SOL    HW182412   0.552   8.611   1.632  1.1660 -1.5742 -0.8628
23451SOL    HW282413   0.687   8.666   1.706  0.3635 -0.4398 -0.2193
23452SOL     OW82414   4.861   9.782   3.450  0.0102 -0.0532  0.9783
23452SOL    HW182415   4.763   9.760   3.453  0.0570 -0.4486 -0.2184
23452SOL    HW282416   4.914   9.697   3.444  0.3350  0.2376 -0.3662
23453SOL     OW82417   8.584   2.357   6.626  1.0096  0.0626 -0.0289
23453SOL    HW182418   8.523   2.286   6.662  0.7346  0.0274 -0.5643
23453SOL    HW282419   8.625   2.325   6.540  1.2765  0.3503 -0.0080
23454SOL     OW82420   1.458   2.535   2.702  0.3039  0.1766  0.0645
23454SOL    HW182421   1.452   2.627   2.663  0.0785 -0.0331 -0.4065
23454SOL    HW282422   1.366   2.504   2.726  0.1371 -0.7245 -1.6763
23455SOL     OW82423   4.073   0.047   8.714 -0.1259 -0.3605 -0.1071
23455SOL    HW182424   3.993   0.008   8.758 -0.3629 -0.8276 -0.9296
23455SOL    HW282425   4.118  -0.023   8.658  0.7216 -0.0405  0.1655
23456SOL     OW82426   1.872   5.378   1.402  0.1242  0.4747  0.1982
23456SOL    HW182427   1.929   5.297   1.402 -1.4165 -0.6299  0.3707
23456SOL    HW282428   1.778   5.354   1.376 -0.5311  2.0473  0.9909
23457SOL     OW82429   0.531   7.578   0.222  0.1513  0.0899  0.3076
23457SOL    HW182430   0.545   7.672   0.255  0.2524 -0.1339  0.9026
23457SOL    HW282431   0.564   7.513   0.291  0.8490 -0.3762 -0.4454
23458SOL     OW82432   4.688   3.822   6.568  1.0242 -0.7361  0.5883
23458SOL    HW182433   4.654   3.733   6.599  0.4956 -0.7853 -0.1114
23458SOL    HW282434   4.755   3.809   6.495  3.7353 -0.7101  2.9545
23459SOL     OW82435   7.838   3.095   3.943  0.0452  0.1493  0.4375
23459SOL    HW182436   7.783   3.135   4.015 -0.3822 -1.4868  1.0357
23459SOL    HW282437   7.893   3.020   3.980 -0.7235 -1.1756 -1.0788
23460SOL     OW82438   4.026   5.692   0.239 -0.0497 -0.2491 -0.0284
23460SOL    HW182439   4.016   5.690   0.339  0.1147  0.5630  0.0097
23460SOL    HW282440   4.122   5.680   0.214 -0.0071  0.1496 -0.0617
23461SOL     OW82441   9.601   7.856   5.729  0.1141 -0.0013 -0.5496
23461SOL    HW182442   9.529   7.822   5.668  1.8910 -0.1976 -2.6207
23461SOL    HW282443   9.613   7.792   5.805 -1.8618  0.0315 -0.1875
23462SOL     OW82444   5.017   9.880   8.642  0.1307 -0.2467 -0.1139
23462SOL    HW182445   4.954   9.842   8.575 -0.4618 -1.8680  1.3386
23462SOL    HW282446   5.111   9.864   8.611 -0.1362 -0.1635 -0.9928
23463SOL     OW82447   9.420   7.242   6.921 -0.2459  0.0592 -0.4860
23463SOL    HW182448   9.327   7.279   6.920 -0.1553  0.3239  0.8475
23463SOL    HW282449   9.419   7.148   6.953 -0.0423  0.0759 -0.4269
23464SOL     OW82450   9.450   8.417   9.325  0.1581 -0.3199  0.2078
23464SOL    HW182451   9.532   8.471   9.308 -0.8184  0.6390 -1.5934
23464SOL    HW282452   9.473   8.320   9.325  1.1546 -0.0969 -1.1435
23465SOL     OW82453   4.256   5.091   5.369  0.3588  0.6179  0.3685
23465SOL    HW182454   4.258   5.191   5.371 -0.1295  0.7761 -3.4495
23465SOL    HW282455   4.299   5.059   5.284 -0.6916 -2.3556  0.9134
23466SOL     OW82456   8.810   3.634   7.352  0.3250  0.3750  0.4815
23466SOL    HW182457   8.786   3.725   7.385 -2.1293 -0.0209 -0.1468
23466SOL    HW282458   8.849   3.640   7.260  1.7452  0.9249  1.1052
23467SOL     OW82459   4.688   0.837   3.763  0.4565  0.0872  0.1305
23467SOL    HW182460   4.608   0.842   3.703  0.1704  0.5359  0.5484
23467SOL    HW282461   4.663   0.791   3.848  0.2029  1.7839  0.9797
23468SOL     OW82462   9.606   4.031   6.426 -0.0749  0.3975  0.2365
23468SOL    HW182463   9.537   3.964   6.452  0.4237  0.0416  0.6481
23468SOL    HW282464   9.589   4.063   6.333 -1.4087  1.0913  0.7030
23469SOL     OW82465   2.457   4.060   2.353 -0.2441  0.3669 -0.1192
23469SOL    HW182466   2.432   4.004   2.274 -3.4728  1.1457  0.2640
23469SOL    HW282467   2.555   4.081   2.351  0.1981 -1.8246 -2.4619
23470SOL     OW82468   5.434   6.005   0.578 -0.7331 -0.2254  0.0879
23470SOL    HW182469   5.361   6.011   0.510 -1.2229 -2.1514  0.4214
23470SOL    HW282470   5.399   5.958   0.659  0.9924 -1.5053  0.0957
23471SOL     OW82471   2.259   0.121   0.330  0.2509  0.1681 -0.2364
23471SOL    HW182472   2.212   0.033   0.328 -1.8246  1.2410 -1.0341
23471SOL    HW282473   2.357   0.107   0.339 -0.0129 -2.2317 -0.8449
23472SOL     OW82474   5.689   4.147   9.065  0.7086  0.9310  0.4048
23472SOL    HW182475   5.673   4.097   9.151 -0.8130 -0.5505 -0.7032
23472SOL    HW282476   5.703   4.081   8.991 -2.0379  2.1312 -1.2431
23473SOL     OW82477   9.135   9.984   8.619 -0.4841  0.5853 -0.0696
23473SOL    HW182478   9.104  10.035   8.699  1.7066  0.8748  0.6264
23473SOL    HW282479   9.159   9.891   8.646  0.0020  0.6012 -0.4433
23474SOL     OW82480   0.757   3.904   9.444 -0.6755  0.1671  0.1653
23474SOL    HW182481   0.833   3.852   9.406 -1.6598 -1.0897 -0.1280
23474SOL    HW282482   0.687   3.841   9.477 -1.3588  1.3005  0.9151
23475SOL     OW82483   2.070   4.421   0.601  0.6831  0.0488 -0.5139
23475SOL    HW182484   2.168   4.430   0.581  0.9240  0.1601  0.6546
23475SOL    HW282485   2.030   4.353   0.540  1.5428 -0.1786 -0.8393
23476SOL     OW82486   4.236   0.535   3.268  0.0448  0.1742 -0.7746
23476SOL    HW182487   4.204   0.541   3.363  2.0660  2.6861 -0.1922
23476SOL    HW282488   4.322   0.485   3.266  0.8368  1.5199 -1.0273
23477SOL     OW82489   1.749   6.908   9.550  0.1618 -0.3053  0.3715
23477SOL    HW182490   1.780   6.885   9.643  1.9800 -2.1033 -0.6407
23477SOL    HW282491   1.676   6.846   9.523 -0.4311  0.2779  0.6346
23478SOL     OW82492   3.133   0.247   0.842 -0.1824 -0.0312 -0.0877
23478SOL    HW182493   3.053   0.260   0.784 -0.5500 -0.3918  0.3331
23478SOL    HW282494   3.203   0.197   0.791  1.3861  3.7397 -1.8340
23479SOL     OW82495   3.022   6.070   1.836  0.5992  0.2113  0.2977
23479SOL    HW182496   2.941   6.129   1.841 -0.6324 -1.3245 -1.0109
23479SOL    HW282497   3.104   6.126   1.842 -0.5566  1.9027  0.6828
23480SOL     OW82498   4.958   8.334   1.695 -0.3535  0.1469 -0.1748
23480SOL    HW182499   5.052   8.321   1.725 -0.2411  0.2218 -0.4893
23480SOL    HW282500   4.913   8.245   1.688 -0.4566  0.1488  0.4568
23481SOL     OW82501   6.718   9.717   9.376  0.5792 -0.2560  0.9995
23481SOL    HW182502   6.767   9.769   9.306 -1.0160  0.2673  0.2495
23481SOL    HW282503   6.784   9.670   9.434  1.9666  0.3097 -0.0749
23482SOL     OW82504   9.232   9.837   1.940  0.4329  0.1318  0.2457
23482SOL    HW182505   9.300   9.823   2.012 -1.3264 -1.8697  1.5581
23482SOL    HW282506   9.164   9.903   1.970  1.1180  1.2780 -0.6380
23483SOL     OW82507   0.267   3.172   2.680  0.0224 -0.0599  0.2152
23483SOL    HW182508   0.328   3.220   2.617 -0.9100 -0.4450 -0.9951
23483SOL    HW282509   0.227   3.238   2.744 -2.4273  1.0572 -2.3838
23484SOL     OW82510   0.970   6.747   9.230 -0.1049  0.2462 -0.3168
23484SOL    HW182511   1.004   6.779   9.141  0.0074 -0.1179 -0.4061
23484SOL    HW282512   1.046   6.713   9.284 -0.4783 -1.6719 -0.9792
23485SOL     OW82513   4.910   0.992   5.716  0.1235 -0.4125  0.2785
23485SOL    HW182514   4.954   1.004   5.805  0.9418 -0.7457 -0.0697
23485SOL    HW282515   4.944   1.062   5.653  0.5868 -1.0257 -0.1547
23486SOL     OW82516   0.052   8.574   9.535 -0.0127  0.0646  0.2022
23486SOL    HW182517   0.043   8.546   9.631 -1.9622  0.1053  0.0513
23486SOL    HW282518  -0.009   8.518   9.478  0.2442  0.8433 -0.8475
23487SOL     OW82519   4.555   4.833   2.349  0.7907 -0.1261 -0.3228
23487SOL    HW182520   4.587   4.927   2.339  0.8228 -0.1206 -0.1659
23487SOL    HW282521   4.527   4.798   2.259  2.4865 -0.5873 -0.6902
23488SOL     OW82522   7.459   2.432   0.963  0.0686 -0.3466 -0.3485
23488SOL    HW182523   7.537   2.412   0.904 -0.5329 -1.2940 -0.8302
23488SOL    HW282524   7.411   2.347   0.985 -0.3341  0.1330  0.6354
23489SOL     OW82525   1.022   8.264   9.837  0.4728 -0.5559 -0.7536
23489SOL    HW182526   1.026   8.226   9.929  1.5823  0.1339 -0.5027
23489SOL    HW282527   0.934   8.311   9.825  1.1756  1.2199  0.7288
23490SOL     OW82528   7.690   8.336   7.058  0.0114 -0.6876 -0.5152
23490SOL    HW182529   7.699   8.375   7.149  1.2537  0.9436 -1.3176
23490SOL    HW282530   7.602   8.288   7.051 -0.3176 -0.3961  1.3514
23491SOL     OW82531   3.708   0.901   9.739 -0.1460  0.1910  0.0060
23491SOL    HW182532   3.765   0.824   9.767 -0.4733  0.7741  2.3798
23491SOL    HW282533   3.733   0.983   9.792 -1.6585  1.0117 -0.5027
23492SOL     OW82534   2.249   6.728   5.132  0.5577  0.1145  0.1869
23492SOL    HW182535   2.167   6.714   5.077  0.4126 -0.3142  0.5036
23492SOL    HW282536   2.327   6.746   5.073  0.3573 -0.1048 -0.1475
23493SOL     OW82537   3.598   8.911   5.282 -0.2231  0.2919  0.0779
23493SOL    HW182538   3.682   8.874   5.242 -0.5175 -0.1469 -0.1452
23493SOL    HW282539   3.573   8.995   5.234  0.2701  0.6009  0.3653
23494SOL     OW82540   6.644   5.562   9.565  0.0889  0.0769 -0.3994
23494SOL    HW182541   6.643   5.558   9.665 -0.4634 -0.6398 -0.4370
23494SOL    HW282542   6.654   5.657   9.536  0.8606  0.2264  0.3418
23495SOL     OW82543   3.326   2.682   2.896 -0.0687  0.5076 -0.6855
23495SOL    HW182544   3.288   2.717   2.981 -0.6167 -0.5452 -0.4823
23495SOL    HW282545   3.349   2.758   2.835  0.9086  1.2815  0.6466
23496SOL     OW82546   6.111   3.893   1.265  0.2158 -0.0210 -0.0450
23496SOL    HW182547   6.145   3.981   1.299 -1.5256  0.5782  0.1676
23496SOL    HW282548   6.155   3.819   1.316  0.7320  0.7595  0.6587
23497SOL     OW82549   6.584   3.437  10.052 -0.7663  0.6822 -0.4909
23497SOL    HW182550   6.613   3.490  10.131 -0.7961  1.1767 -0.8074
23497SOL    HW282551   6.661   3.383  10.018 -0.2173  1.9546 -1.3011
23498SOL     OW82552   7.468   2.408   2.786 -0.1035 -0.1546  0.3924
23498SOL    HW182553   7.535   2.343   2.748 -0.4806 -1.0657  1.2791
23498SOL    HW282554   7.516   2.480   2.835  0.2742 -0.2593  0.1800
23499SOL     OW82555   5.781   9.511   5.962 -0.0379  0.0385  0.0051
23499SOL    HW182556   5.857   9.565   5.925 -0.5445 -0.4490 -1.7788
23499SOL    HW282557   5.789   9.507   6.062  1.9197  0.5204 -0.1069
23500SOL     OW82558   2.304   1.838   6.798  0.2691 -0.3417  0.2899
23500SOL    HW182559   2.242   1.766   6.766  0.7070 -0.9613  0.8112
23500SOL    HW282560   2.308   1.836   6.898  1.4818 -0.6085  0.2423
23501SOL     OW82561   0.634   1.655   4.834  0.3619  0.1249  0.2507
23501SOL    HW182562   0.668   1.748   4.847 -0.6946  0.5403  0.0682
23501SOL    HW282563   0.535   1.654   4.842  0.1042 -0.4826 -2.5968
23502SOL     OW82564   2.205   0.693   2.365  0.0312 -0.0713 -0.1339
23502SOL    HW182565   2.199   0.691   2.265 -0.2174 -0.0128 -0.1191
23502SOL    HW282566   2.222   0.601   2.399  2.1907  0.2161 -0.3678
23503SOL     OW82567   0.766   7.244   4.624  0.5536  0.1155 -0.2311
23503SOL    HW182568   0.858   7.229   4.662  0.2665 -1.0367  0.0306
23503SOL    HW282569   0.761   7.205   4.532  0.1891 -0.2289 -0.0658
23504SOL     OW82570   0.549   8.307   6.501  0.6684 -0.3045 -0.5338
23504SOL    HW182571   0.474   8.372   6.486  0.9848  0.3243  0.5229
23504SOL    HW282572   0.513   8.214   6.500  0.3483 -0.1921 -2.9994
23505SOL     OW82573   0.442   4.561   3.050  0.6828  0.0406  0.4250
23505SOL    HW182574   0.416   4.471   3.015  1.6861  0.0417 -0.3362
23505SOL    HW282575   0.468   4.553   3.147  1.8184 -0.6925  0.0754
23506SOL     OW82576   0.325   0.817   7.134  0.1452  0.1788 -0.1966
23506SOL    HW182577   0.376   0.886   7.082  2.2815 -0.5307  0.9108
23506SOL    HW282578   0.228   0.825   7.112  0.7454  1.2549 -2.7274
23507SOL     OW82579   2.489   3.233   5.713  0.0613 -0.4908 -0.0252
23507SOL    HW182580   2.440   3.230   5.626  1.8289  1.4597 -1.1098
23507SOL    HW282581   2.548   3.153   5.721 -2.1661 -2.1365  0.6795
23508SOL     OW82582   0.915   1.367   0.221  0.1778  0.5557 -0.0443
23508SOL    HW182583   0.976   1.304   0.268  0.4953  2.5046  2.2402
23508SOL    HW282584   0.968   1.443   0.184 -0.4770  0.6417 -0.8188
23509SOL     OW82585   0.107   2.318   8.017 -0.1770  0.2733 -0.1583
23509SOL    HW182586   0.138   2.361   7.932 -1.1523 -1.0562 -1.2113
23509SOL    HW282587   0.080   2.224   7.999  0.1905 -0.2187  1.7587
23510SOL     OW82588   7.372   6.830   4.958 -0.0433 -0.3528  0.1395
23510SOL    HW182589   7.398   6.819   5.054 -0.8742  1.1573  0.5435
23510SOL    HW282590   7.278   6.799   4.945 -0.6283  1.3393  0.2409
23511SOL     OW82591   9.525   5.484   3.945  0.1396  0.6723  0.0314
23511SOL    HW182592   9.520   5.582   3.924  1.8766  0.6806 -0.3912
23511SOL    HW282593   9.494   5.432   3.865 -0.9092  0.8625  0.3008
23512SOL     OW82594   9.265   8.003   1.355 -0.3151 -0.4140  0.0026
23512SOL    HW182595   9.279   8.021   1.258 -0.3316 -1.9954 -0.3135
23512SOL    HW282596   9.249   7.905   1.368 -0.0149 -0.2531  1.6348
23513SOL     OW82597   5.932   6.161   1.291 -0.6944  0.7471  0.7141
23513SOL    HW182598   5.972   6.070   1.301  0.4081  0.9132 -1.7394
23513SOL    HW282599   5.990   6.217   1.232 -1.6495  2.8776  1.7101
23514SOL     OW82600   3.095   7.928   2.585 -0.0013 -0.1840 -0.7737
23514SOL    HW182601   3.145   7.885   2.510  0.0618 -0.0046 -0.8351
23514SOL    HW282602   3.002   7.892   2.588 -0.1645  0.1909 -1.2691
23515SOL     OW82603   3.284   0.289   9.098  0.0312  0.9991 -0.2328
23515SOL    HW182604   3.244   0.376   9.128 -1.1355  0.4060 -0.0283
23515SOL    HW282605   3.247   0.264   9.009 -0.8916 -0.0746  0.4261
23516SOL     OW82606   1.971   5.878   4.850 -0.5009  0.0756 -0.3567
23516SOL    HW182607   1.904   5.936   4.803 -0.2566  1.0958  0.5312
23516SOL    HW282608   1.947   5.782   4.837 -1.7750  0.4156 -0.5876
23517SOL     OW82609   8.427   4.967   3.642  0.0294  0.4300 -0.1577
23517SOL    HW182610   8.506   4.973   3.580 -0.1494 -0.8636 -0.5340
23517SOL    HW282611   8.456   4.988   3.735  0.6745  0.6856 -0.4120
23518SOL     OW82612   5.660   7.519   3.863  0.0560  0.0596 -0.4431
23518SOL    HW182613   5.759   7.505   3.864  0.2695  1.3515 -2.0506
23518SOL    HW282614   5.627   7.530   3.957  1.5097  0.1374  0.0652
23519SOL     OW82615   1.938   6.291   7.524  0.3465  0.2311 -0.0374
23519SOL    HW182616   1.859   6.230   7.527  0.3990  0.1324 -0.6430
23519SOL    HW282617   1.971   6.298   7.430  0.2617  1.2891  0.0011
23520SOL     OW82618   7.168   3.701   1.073  0.0079  0.4636 -0.2265
23520SOL    HW182619   7.094   3.694   1.007  0.4162 -0.1577 -0.6220
23520SOL    HW282620   7.168   3.620   1.132  0.0477  0.7045  0.1000
23521SOL     OW82621   3.764   3.190   3.198  0.2874 -0.6006  0.2122
23521SOL    HW182622   3.799   3.209   3.107 -2.7474 -0.4269 -0.9766
23521SOL    HW282623   3.772   3.272   3.255 -1.5619  0.5793 -1.1768
23522SOL     OW82624   8.643   5.477   6.369  0.2238 -0.1207 -0.1519
23522SOL    HW182625   8.728   5.517   6.403 -0.0405  0.9529 -0.7282
23522SOL    HW282626   8.664   5.410   6.298  0.5141  1.6596 -1.7911
23523SOL     OW82627   7.270   7.119   4.203  0.4131 -0.0149  0.8281
23523SOL    HW182628   7.363   7.100   4.232  0.2534 -0.5318  1.0002
23523SOL    HW282629   7.209   7.047   4.234 -0.0821  0.4267  0.8991
23524SOL     OW82630   6.058   7.932   8.107  0.6031 -0.2849  0.1787
23524SOL    HW182631   6.152   7.902   8.089  1.3400  0.5517  2.4715
23524SOL    HW282632   6.051   8.031   8.093 -0.2664 -0.5176 -1.1805
23525SOL     OW82633   3.503   0.034   0.581 -0.2057 -0.0742 -0.0368
23525SOL    HW182634   3.577   0.102   0.584 -0.0121 -0.2434 -0.8023
23525SOL    HW282635   3.541  -0.055   0.557 -0.6111 -0.2279 -0.1055
23526SOL     OW82636   9.512   5.221   3.168 -0.7357  0.1543 -0.4069
23526SOL    HW182637   9.520   5.196   3.264  2.3659 -0.9348 -0.8951
23526SOL    HW282638   9.548   5.313   3.154  2.8697 -1.2789 -1.1352
23527SOL     OW82639   2.065   9.681   5.047 -0.1160  0.1774 -0.0779
23527SOL    HW182640   2.162   9.699   5.030 -0.1337 -0.1002 -0.5044
23527SOL    HW282641   2.010   9.757   5.014 -0.0172  0.5012  0.5090
23528SOL     OW82642   8.635   3.147   4.012 -0.0019 -0.0451 -0.3768
23528SOL    HW182643   8.575   3.224   4.033  0.1966  0.5168 -1.8310
23528SOL    HW282644   8.723   3.160   4.056  0.3914  1.1005 -1.4655
23529SOL     OW82645   8.706   2.671   2.252 -0.2511 -0.0880  0.4503
23529SOL    HW182646   8.633   2.675   2.184 -0.6789  0.8375  0.9581
23529SOL    HW282647   8.755   2.584   2.244  0.9922  0.8129 -2.4011
23530SOL     OW82648   1.340   2.222   2.369 -0.4066 -0.2938  0.2741
23530SOL    HW182649   1.319   2.231   2.467  1.1273  0.3843  0.5525
23530SOL    HW282650   1.416   2.158   2.357  0.4037  0.7841 -0.3553
23531SOL     OW82651   8.076   1.254   6.530 -0.1150  0.1476 -0.0827
23531SOL    HW182652   7.990   1.242   6.480 -0.2472  0.6111  0.0351
23531SOL    HW282653   8.058   1.301   6.617  0.1057 -0.6872  0.4229
23532SOL     OW82654   8.504   1.318   3.608 -0.4234 -0.0383 -0.1993
23532SOL    HW182655   8.408   1.337   3.630 -0.6584 -0.7887 -0.5809
23532SOL    HW282656   8.560   1.398   3.633 -1.2224  0.6251 -0.4976
23533SOL     OW82657   0.342   4.195   9.006 -0.2086  0.5329 -0.0534
23533SOL    HW182658   0.261   4.138   9.023  2.4524 -3.6612 -0.5026
23533SOL    HW282659   0.370   4.239   9.091  0.0495 -2.2226  1.3375
23534SOL     OW82660   9.277   7.504   5.549 -0.5755  0.1940  0.2059
23534SOL    HW182661   9.180   7.519   5.568 -0.7973 -0.4016 -0.4392
23534SOL    HW282662   9.298   7.532   5.456 -0.0808  0.4984  0.4040
23535SOL     OW82663   0.419   9.834   8.928  0.5666 -0.1556  0.8688
23535SOL    HW182664   0.393   9.841   9.025 -1.0645  0.8629  0.3812
23535SOL    HW282665   0.495   9.769   8.918  0.4965 -0.5563  2.7822
23536SOL     OW82666   5.266   3.965   0.163 -0.3030  0.1641  0.1763
23536SOL    HW182667   5.251   4.032   0.090  0.8276  0.4548  0.2064
23536SOL    HW282668   5.363   3.942   0.168 -0.5660 -0.8307  0.7379
23537SOL     OW82669   8.507   1.249   4.338  0.2159  0.1973  0.2372
23537SOL    HW182670   8.414   1.283   4.324  1.5277  3.5344 -0.8540
23537SOL    HW282671   8.524   1.240   4.437 -1.9036 -2.5963  0.4397
23538SOL     OW82672   1.431   1.824   5.499  0.2985  0.4406 -0.4817
23538SOL    HW182673   1.530   1.812   5.502  0.1437 -0.6069  1.2892
23538SOL    HW282674   1.410   1.916   5.465  1.9277  1.3653  0.9165
23539SOL     OW82675   3.946   2.490   1.501  0.0470 -0.2315  0.3900
23539SOL    HW182676   3.893   2.413   1.536  0.5825 -0.6041  0.3909
23539SOL    HW282677   4.025   2.505   1.560  1.6712 -1.6934 -1.3751
23540SOL     OW82678   0.932   7.407   5.257  0.2527 -0.2801 -0.2304
23540SOL    HW182679   0.900   7.347   5.184  0.6900 -0.1642 -0.5219
23540SOL    HW282680   1.024   7.380   5.285  0.9019  0.9168 -1.1297
23541SOL     OW82681   4.139   1.972   0.647  0.2828 -0.2805 -0.2734
23541SOL    HW182682   4.200   1.925   0.583  1.1283 -0.9066  0.9582
23541SOL    HW282683   4.160   2.069   0.647 -0.6749 -0.0499 -1.9649
23542SOL     OW82684   6.952   5.185   7.432 -0.4212 -0.0694  0.1314
23542SOL    HW182685   6.862   5.150   7.456 -0.2923 -0.1729  0.4685
23542SOL    HW282686   6.942   5.263   7.371 -0.8425  1.7593  2.4660
23543SOL     OW82687   8.839   5.330   3.836 -0.4413  1.2075  0.2313
23543SOL    HW182688   8.880   5.419   3.856  1.1762  0.5808 -0.1324
23543SOL    HW282689   8.847   5.271   3.917  0.8853  0.5537 -0.3535
23544SOL     OW82690   0.981   2.265   8.258  0.2720 -0.6040 -0.3864
23544SOL    HW182691   0.907   2.316   8.301  0.2515 -1.0187  0.0683
23544SOL    HW282692   0.944   2.186   8.209  0.4600 -1.1023  0.2682
23545SOL     OW82693   1.401   6.344   4.817  0.0402 -0.1138 -0.1402
23545SOL    HW182694   1.357   6.309   4.734 -2.5268  1.2295  0.5991
23545SOL    HW282695   1.462   6.274   4.854 -1.7689 -2.2259 -1.0292
23546SOL     OW82696   5.828   7.489   5.141  0.0129  0.3046 -0.1712
23546SOL    HW182697   5.809   7.439   5.226 -1.6931 -0.8651 -1.2277
23546SOL    HW282698   5.911   7.452   5.099 -0.9209 -1.2750 -0.6524
23547SOL     OW82699   8.467   9.258   8.017  0.6666 -0.3284 -0.4028
23547SOL    HW182700   8.515   9.197   7.953  0.0106 -2.2772  0.9114
23547SOL    HW282701   8.389   9.210   8.056  0.1154  1.3892  0.6483
23548SOL     OW82702   1.897   9.942   4.957  0.0646  0.4346 -0.2277
23548SOL    HW182703   1.810   9.891   4.955  1.9408 -2.9616  0.0782
23548SOL    HW282704   1.918   9.967   5.052 -0.4977  1.1126 -0.2813
23549SOL     OW82705   0.765   2.382   8.397 -0.0885 -0.4126 -0.2182
23549SOL    HW182706   0.751   2.391   8.495  1.6968  0.1982 -0.0109
23549SOL    HW282707   0.702   2.313   8.361 -2.3152  0.9448  0.9604
23550SOL     OW82708   9.152   7.012  10.045 -0.3240  0.3214  0.4534
23550SOL    HW182709   9.084   7.065   9.995  1.6558  0.7934 -1.8691
23550SOL    HW282710   9.115   6.921  10.064 -1.6139  0.5716 -0.7489
23551SOL     OW82711   7.556   5.153   7.576  0.3636 -0.3740 -0.0846
23551SOL    HW182712   7.561   5.053   7.565 -1.6413 -0.4016 -0.8863
23551SOL    HW282713   7.601   5.197   7.499  0.1028 -0.6411 -0.3876
23552SOL     OW82714   8.389   1.931   6.929 -0.2308  0.5498  0.1508
23552SOL    HW182715   8.423   1.860   6.991 -0.3480  0.9219  0.6433
23552SOL    HW282716   8.304   1.899   6.886  0.2556 -0.0143 -0.3999
23553SOL     OW82717   0.958   6.975   2.266 -0.0863 -0.2073 -0.1857
23553SOL    HW182718   0.965   7.039   2.190 -2.6713 -0.6202 -0.8255
23553SOL    HW282719   0.865   6.979   2.304  1.1484  0.0185  2.9908
23554SOL     OW82720   6.215   5.679   2.366 -0.4366  0.1131 -0.1443
23554SOL    HW182721   6.241   5.632   2.451  1.4504  0.2659 -0.6169
23554SOL    HW282722   6.291   5.675   2.301 -0.6099  2.9439 -0.5752
23555SOL     OW82723   8.458   2.728   9.087 -0.2999  0.2037  0.0779
23555SOL    HW182724   8.392   2.653   9.077  1.1925 -1.4344  2.1441
23555SOL    HW282725   8.408   2.814   9.097 -2.0890 -0.7261 -0.5390
23556SOL     OW82726   7.857   5.855   3.394  0.3125  0.6282  0.2965
23556SOL    HW182727   7.847   5.758   3.414 -1.9608  0.8600  0.3800
23556SOL    HW282728   7.911   5.899   3.466 -0.2471 -0.2239  1.2460
23557SOL     OW82729   0.231   8.380   9.369 -0.6124  0.7851 -0.1467
23557SOL    HW182730   0.305   8.446   9.381 -0.6777  1.3989 -2.7388
23557SOL    HW282731   0.180   8.371   9.455  0.1522  3.1943  0.6140
23558SOL     OW82732   1.421   5.153   7.228 -0.9610  0.2820  0.0744
23558SOL    HW182733   1.359   5.099   7.171 -0.0859 -0.4328 -0.2207
23558SOL    HW282734   1.376   5.238   7.256 -2.0535 -0.2105 -0.1577
23559SOL     OW82735   3.622   0.201   6.834  0.8749  0.3071 -0.2930
23559SOL    HW182736   3.617   0.214   6.735  0.4697  2.5212  0.0064
23559SOL    HW282737   3.703   0.246   6.870 -0.2393  1.5804  0.6865
23560SOL     OW82738   8.444   4.827   9.380 -0.3640  0.0534 -0.0331
23560SOL    HW182739   8.381   4.884   9.326 -0.4355 -0.0526 -0.0632
23560SOL    HW282740   8.497   4.769   9.318  0.1102  0.4922 -0.0415
23561SOL     OW82741   7.914   3.497   7.564 -0.0398  0.2467  0.8331
23561SOL    HW182742   7.852   3.425   7.598 -0.4099  0.0328 -0.2594
23561SOL    HW282743   8.003   3.488   7.608  0.5185 -2.0919 -0.6570
23562SOL     OW82744   3.401   7.864   4.420 -0.1227  0.1507  0.6951
23562SOL    HW182745   3.367   7.773   4.444  1.5199 -0.6949 -0.0709
23562SOL    HW282746   3.501   7.861   4.413 -0.1590  1.6820 -0.7543
23563SOL     OW82747   8.783   1.989   1.673  0.3667  0.4811  0.0815
23563SOL    HW182748   8.686   1.979   1.693  0.4466  0.4539  0.4682
23563SOL    HW282749   8.811   2.084   1.691  0.0415  0.9275 -1.6534
23564SOL     OW82750   8.320   5.469   7.251  0.4854  0.4181 -0.3280
23564SOL    HW182751   8.409   5.500   7.286  1.1224 -0.3224 -1.2517
23564SOL    HW282752   8.259   5.448   7.327  1.3262  0.2868  0.3160
23565SOL     OW82753   1.332   7.598   2.122  0.1776  0.4763  0.9504
23565SOL    HW182754   1.369   7.556   2.040 -2.4389 -0.1114  0.0527
23565SOL    HW282755   1.353   7.696   2.121  1.5326  0.1960  0.3987
23566SOL     OW82756   7.207   5.331   7.412  0.6024 -0.2204 -0.4311
23566SOL    HW182757   7.138   5.259   7.414 -1.6347  1.7350 -3.4553
23566SOL    HW282758   7.177   5.407   7.471  1.4332 -0.4552  0.2931
23567SOL     OW82759   6.347   5.139   0.736  0.5495 -0.3547 -0.3626
23567SOL    HW182760   6.250   5.163   0.743  0.6007 -0.4430  0.5857
23567SOL    HW282761   6.367   5.061   0.795  1.6796  1.0579  1.1396
23568SOL     OW82762   9.491   8.369   2.339  0.2971  0.3562 -0.2164
23568SOL    HW182763   9.412   8.347   2.281 -0.9504 -0.7887  1.8643
23568SOL    HW282764   9.463   8.434   2.409  1.3734  0.4120  0.1642
23569SOL     OW82765   4.425   9.858   9.647  0.3070 -0.1806  0.8133
23569SOL    HW182766   4.459   9.772   9.607  1.4746  0.0277  1.3505
23569SOL    HW282767   4.347   9.891   9.592  2.1878  0.3661 -1.6263
23570SOL     OW82768   0.910   7.869   1.281 -0.1224 -0.5486  0.2255
23570SOL    HW182769   1.006   7.897   1.271  0.3794 -2.2901 -0.0922
23570SOL    HW282770   0.904   7.770   1.271 -1.9324 -0.4793  0.5511
23571SOL     OW82771   0.164   9.581   9.116 -0.1602 -0.1695 -0.6306
23571SOL    HW182772   0.092   9.511   9.112  0.0107 -0.4496  0.7758
23571SOL    HW282773   0.242   9.551   9.061  0.0701 -1.2936  0.2836
23572SOL     OW82774   5.057   4.825   9.014 -0.4731  0.3073  0.4997
23572SOL    HW182775   4.990   4.899   9.011 -1.1452 -0.2499  1.4580
23572SOL    HW282776   5.010   4.737   9.019  0.3214 -0.2030 -0.8405
23573SOL     OW82777   0.839   0.603   9.763  0.4090  0.1489  0.1429
23573SOL    HW182778   0.926   0.556   9.744 -0.3896 -0.8105 -1.2887
23573SOL    HW282779   0.846   0.652   9.849  2.2960 -0.1223  0.1717
23574SOL     OW82780   4.884   1.439   2.138  0.4098 -0.7220  0.4605
23574SOL    HW182781   4.817   1.385   2.189 -0.9302  0.2470 -0.2263
23574SOL    HW282782   4.878   1.535   2.166  0.3062 -0.3409 -0.8312
23575SOL     OW82783   0.688   0.391   4.401  0.3464  0.1980  0.0078
23575SOL    HW182784   0.721   0.346   4.485 -1.9424 -1.4379  0.0689
23575SOL    HW282785   0.755   0.378   4.328  1.2881 -0.3664  0.9565
23576SOL     OW82786   0.077   6.663   6.047 -0.2607 -0.1075  0.5746
23576SOL    HW182787   0.065   6.704   5.956  1.7640 -0.7349 -0.0120
23576SOL    HW282788   0.088   6.735   6.115 -4.7415  0.4583  0.8499
23577SOL     OW82789   2.324   3.803   8.238 -0.3296  0.2993  0.4651
23577SOL    HW182790   2.240   3.750   8.252 -1.1080  1.7888  1.6800
23577SOL    HW282791   2.400   3.759   8.287 -0.9914  0.3427  1.5583
23578SOL     OW82792   1.874   7.309   0.791  0.0347  0.4163 -0.4899
23578SOL    HW182793   1.802   7.370   0.827 -0.5743  0.3294 -1.5366
23578SOL    HW282794   1.946   7.364   0.750  1.6119  0.5903  2.4268
23579SOL     OW82795   9.100   1.783   7.967 -0.0552  0.6146  0.8154
23579SOL    HW182796   9.122   1.694   7.929  0.9467  1.2530 -0.1044
23579SOL    HW282797   9.076   1.773   8.064 -0.6458 -0.7337  0.5386
23580SOL     OW82798   2.811   4.902   8.517  0.2495  0.1873 -0.4249
23580SOL    HW182799   2.759   4.830   8.472  0.1919 -0.5628  0.8262
23580SOL    HW282800   2.880   4.938   8.454 -1.1295  0.5103 -1.7508
23581SOL     OW82801   1.201   5.364   9.364  0.2277 -0.3531 -0.1048
23581SOL    HW182802   1.141   5.285   9.350 -0.5452  0.3368 -0.7615
23581SOL    HW282803   1.214   5.379   9.462  0.2012 -1.1706  0.0208
23582SOL     OW82804   5.112   9.342   4.124  0.5610 -0.4758 -0.2545
23582SOL    HW182805   5.113   9.355   4.025 -1.0880  0.0360 -0.2294
23582SOL    HW282806   5.017   9.347   4.156  0.9076 -2.4362  1.1086
23583SOL     OW82807   1.041   9.937   9.914 -0.4210  0.0086  0.2413
23583SOL    HW182808   1.119   9.951   9.853 -1.8846  0.1468 -1.6500
23583SOL    HW282809   0.965   9.896   9.863 -1.0844 -1.5899  2.4032
23584SOL     OW82810   3.286   5.324   0.943  0.3021  0.2946  0.6109
23584SOL    HW182811   3.305   5.240   0.994  0.6316 -0.5407 -0.8703
23584SOL    HW282812   3.369   5.354   0.895 -0.7818 -0.7119 -1.9961
23585SOL     OW82813   9.513   6.761   9.676 -0.6441 -0.2207  0.4345
23585SOL    HW182814   9.523   6.677   9.622 -0.9414  0.4089 -0.6069
23585SOL    HW282815   9.421   6.798   9.664 -1.0464 -0.6157  2.1704
23586SOL     OW82816   4.237   2.657   7.147 -0.2072  0.7158  0.5968
23586SOL    HW182817   4.229   2.560   7.169 -1.2304  0.5683 -0.3614
23586SOL    HW282818   4.175   2.709   7.204  0.0463  0.7639  0.8291
23587SOL     OW82819   9.807   5.777   1.055  0.3190 -0.5121  0.2449
23587SOL    HW182820   9.815   5.859   0.998 -2.9638 -1.3777 -1.6184
23587SOL    HW282821   9.857   5.702   1.012  0.5539 -0.3392  0.2152
23588SOL     OW82822   1.471   5.757   9.863 -0.1397  0.4824 -0.2204
23588SOL    HW182823   1.549   5.700   9.834  0.5230  0.9239  0.6669
23588SOL    HW282824   1.505   5.839   9.908 -1.1357  0.1995  1.0760
23589SOL     OW82825   1.980   0.458   0.132  0.1700 -0.1132  0.2147
23589SOL    HW182826   1.920   0.449   0.052  0.0773  1.7592  0.0547
23589SOL    HW282827   2.030   0.373   0.146 -0.0369 -0.5588 -1.6599
23590SOL     OW82828   2.203   5.577   4.621 -0.2403 -0.0646 -0.4709
23590SOL    HW182829   2.112   5.617   4.631  0.2391  1.0547 -0.5637
23590SOL    HW282830   2.225   5.570   4.524  0.4615  1.2369 -0.4084
23591SOL     OW82831   9.692   9.053   1.678 -0.4062  0.5093 -0.4386
23591SOL    HW182832   9.713   9.080   1.584  0.4231  1.7917  0.1074
23591SOL    HW282833   9.773   9.064   1.735 -0.6046 -1.2593  0.2318
23592SOL     OW82834   7.204   1.238   6.383 -0.1182 -0.4963 -0.0965
23592SOL    HW182835   7.134   1.167   6.388  1.0530 -1.6717  0.0290
23592SOL    HW282836   7.294   1.196   6.391  0.5824  1.0688  0.4078
23593SOL     OW82837   3.831   2.683   5.990 -0.7365  0.1347  0.1927
23593SOL    HW182838   3.887   2.650   5.914 -1.5305 -2.4425  0.6971
23593SOL    HW282839   3.848   2.781   6.003  1.1043  0.1281 -1.8238
23594SOL     OW82840   7.119   0.979   9.001  0.2762  0.4168  0.2091
23594SOL    HW182841   7.089   1.074   8.995 -1.0138 -0.0391 -1.1510
23594SOL    HW282842   7.039   0.919   8.993  0.9231 -0.7631  2.4387
23595SOL     OW82843   2.736   9.194   3.305  0.1931 -1.0054  0.4236
23595SOL    HW182844   2.712   9.101   3.333  2.5928 -1.5105  0.8754
23595SOL    HW282845   2.748   9.251   3.386  0.8574 -0.8614  0.2291
23596SOL     OW82846   9.277   3.777   5.493  0.1474 -0.4163 -0.0435
23596SOL    HW182847   9.209   3.790   5.421 -0.2383  1.4114  0.6155
23596SOL    HW282848   9.300   3.866   5.534  1.7867 -1.1918  0.7841
23597SOL     OW82849   0.157   8.753   3.125  0.3231 -0.1943 -0.3460
23597SOL    HW182850   0.072   8.759   3.073  0.0193  0.8477  0.2574
23597SOL    HW282851   0.141   8.783   3.219  0.8278 -2.1954  0.4253
23598SOL     OW82852   4.623   1.203   1.770 -0.7891 -0.3242  0.1821
23598SOL    HW182853   4.665   1.202   1.861 -0.1495 -3.3789 -0.1060
23598SOL    HW282854   4.535   1.155   1.773 -1.7135  1.2765 -0.4214
23599SOL     OW82855   3.131   7.117   2.161 -0.0400 -0.2371  0.1820
23599SOL    HW182856   3.063   7.045   2.177 -2.1382  1.1867 -1.9242
23599SOL    HW282857   3.175   7.102   2.072  1.8467 -0.6734  1.1585
23600SOL     OW82858   1.647   5.737   9.467  0.2504 -0.1193  0.7319
23600SOL    HW182859   1.556   5.777   9.452  0.2537 -0.1338  0.6699
23600SOL    HW282860   1.637   5.642   9.495  0.2409 -0.0549  0.9463
23601SOL     OW82861   9.729   9.718   2.328 -0.4621 -0.3359  0.0582
23601SOL    HW182862   9.765   9.782   2.395 -0.2822 -1.4843  1.0823
23601SOL    HW282863   9.803   9.664   2.289 -0.5093  0.6538 -1.4304
23602SOL     OW82864   5.460   1.895   5.166 -0.2525  0.7514  0.6473
23602SOL    HW182865   5.523   1.818   5.172 -2.2421 -0.9182  0.5796
23602SOL    HW282866   5.384   1.882   5.231 -2.2141  1.1172 -1.5055
23603SOL     OW82867   5.457   7.293   3.459 -0.5141 -0.1948 -0.2644
23603SOL    HW182868   5.524   7.322   3.526 -1.6011 -0.0341  0.7639
23603SOL    HW282869   5.420   7.373   3.411  0.6109 -0.3421 -1.4178
23604SOL     OW82870   9.760   2.592   0.768  0.0498 -0.0877 -0.8076
23604SOL    HW182871   9.772   2.536   0.686 -0.9443  0.6909 -1.4913
23604SOL    HW282872   9.663   2.608   0.785  0.2359 -0.3062  0.5748
23605SOL     OW82873   5.788   3.707   8.912  0.4040 -0.3605  1.2067
23605SOL    HW182874   5.883   3.678   8.925  0.3609 -0.9119  0.3849
23605SOL    HW282875   5.785   3.806   8.897  0.7665 -0.2242  2.0513
23606SOL     OW82876   3.149   2.372   7.745  0.5465  0.3384  0.5176
23606SOL    HW182877   3.177   2.407   7.835  1.8149  0.4074  0.1073
23606SOL    HW282878   3.162   2.273   7.743 -0.0852  0.2513  0.6197
23607SOL     OW82879   3.082   4.282   6.660 -0.1071  0.8734 -0.1704
23607SOL    HW182880   3.138   4.200   6.677 -0.1690  1.1205  1.3767
23607SOL    HW282881   3.031   4.271   6.576  1.7112  0.3192 -1.2345
23608SOL     OW82882   7.520   5.502   5.553 -0.9508  0.1578  0.2674
23608SOL    HW182883   7.566   5.415   5.568 -3.3585 -1.4364 -1.2628
23608SOL    HW282884   7.510   5.550   5.640  2.4197  0.0213  0.8193
23609SOL     OW82885   5.115   7.760   8.191 -0.1030 -0.1284  0.4643
23609SOL    HW182886   5.156   7.694   8.252  0.8513 -0.2195 -0.2631
23609SOL    HW282887   5.172   7.771   8.109  0.3618  2.3978  1.0596
23610SOL     OW82888   0.745   9.879   5.901  1.3319  0.1129  0.1451
23610SOL    HW182889   0.727   9.922   5.989  2.2029  0.9354 -0.0699
23610SOL    HW282890   0.760   9.950   5.832  0.7685 -0.5242 -0.6414
23611SOL     OW82891   2.433   2.969   9.932  0.3992  1.2311 -0.0456
23611SOL    HW182892   2.449   2.968  10.031  0.7461  0.3165 -0.1084
23611SOL    HW282893   2.431   2.875   9.897  0.0947  1.5413 -0.8778
23612SOL     OW82894   7.961   8.885   8.381 -0.1801 -0.8307  0.5164
23612SOL    HW182895   7.906   8.969   8.377 -1.2545 -1.5397  0.1069
23612SOL    HW282896   8.010   8.873   8.295  0.5612 -0.2420  0.8494
23613SOL     OW82897   2.581   7.856   8.388  0.2444 -0.2918 -0.4166
23613SOL    HW182898   2.542   7.765   8.404 -0.6496  0.0222 -0.8276
23613SOL    HW282899   2.656   7.870   8.452 -1.1302 -0.4013  1.2613
23614SOL     OW82900   7.663   7.955   6.566 -0.1663  0.1602  0.2588
23614SOL    HW182901   7.709   7.868   6.583  0.2921  0.8198  2.5305
23614SOL    HW282902   7.570   7.938   6.532 -0.1276 -1.2055  0.8243
23615SOL     OW82903   4.114   2.003   4.795  0.5509  0.1969  0.0798
23615SOL    HW182904   4.088   1.955   4.712  2.1764  0.0115 -0.3305
23615SOL    HW282905   4.032   2.021   4.850 -0.3441 -0.9816 -0.8464
23616SOL     OW82906   8.780   2.278   7.870  0.0551  0.1935  0.6731
23616SOL    HW182907   8.726   2.222   7.933  0.2661 -1.2514 -0.3951
23616SOL    HW282908   8.877   2.265   7.889  0.0866  1.3178  1.3466
23617SOL     OW82909   2.567   7.942   2.486 -0.1966  0.1470  0.2956
23617SOL    HW182910   2.548   8.022   2.428 -1.0091  1.2511  2.0459
23617SOL    HW282911   2.494   7.932   2.553  0.1309 -1.8272  0.3782
23618SOL     OW82912   9.975   9.144   1.062  0.2311 -0.3839  0.0328
23618SOL    HW182913   9.984   9.050   1.031 -0.7256 -0.0193 -1.4221
23618SOL    HW282914  10.058   9.195   1.037 -0.0885 -0.3581 -1.0270
23619SOL     OW82915   8.551   1.693   2.292  0.0610  0.6554  0.5463
23619SOL    HW182916   8.569   1.612   2.237 -0.1279  0.2286  1.1021
23619SOL    HW282917   8.576   1.775   2.241 -0.5697  0.2914 -0.3566
23620SOL     OW82918   8.225   9.879   8.743 -0.2063 -0.6459 -0.1590
23620SOL    HW182919   8.253   9.925   8.658 -0.9075 -0.7436 -0.4510
23620SOL    HW282920   8.255   9.784   8.741 -0.7213 -0.8082 -0.5656
23621SOL     OW82921   8.937   4.593   7.191  0.3090 -0.3504 -0.5197
23621SOL    HW182922   8.904   4.560   7.279 -0.8508 -0.7389 -1.1005
23621SOL    HW282923   8.893   4.680   7.169  1.4163  0.3085 -0.2177
23622SOL     OW82924   8.112   5.450   4.993 -0.5420 -0.2341 -0.6981
23622SOL    HW182925   8.085   5.496   4.908 -1.5572  0.1980 -0.1461
23622SOL    HW282926   8.034   5.448   5.056  0.5914  0.6703  0.7575
23623SOL     OW82927   8.980   9.871   5.223 -0.0845 -0.4127 -0.1127
23623SOL    HW182928   8.902   9.819   5.258 -0.5446  0.6279  0.4212
23623SOL    HW282929   8.951   9.929   5.147 -0.0130  0.6032  0.6259
23624SOL     OW82930   9.910   7.933   0.499 -0.2269  0.3352 -0.4186
23624SOL    HW182931   9.937   8.029   0.511 -0.8391  0.4963 -0.3156
23624SOL    HW282932   9.875   7.897   0.585  0.3926 -0.1113 -0.3485
23625SOL     OW82933   2.960   8.277   7.364 -0.4672  0.3462 -0.1418
23625SOL    HW182934   2.992   8.372   7.371 -0.6297  0.4854 -1.1581
23625SOL    HW282935   2.878   8.275   7.306  0.9531 -0.7370 -2.1463
23626SOL     OW82936   8.337   5.702   1.915 -0.2554 -0.1020 -0.1790
23626SOL    HW182937   8.411   5.636   1.926 -0.5301 -0.3608  0.1169
23626SOL    HW282938   8.322   5.719   1.817  0.6807  0.5093 -0.2262
23627SOL     OW82939   8.697   7.326   4.812  0.0606  0.5486 -0.2490
23627SOL    HW182940   8.681   7.373   4.899  1.8589 -0.3491  0.5901
23627SOL    HW282941   8.725   7.232   4.829  0.6469  0.4236 -1.7989
23628SOL     OW82942   8.620   6.382   7.157 -0.3808 -0.0397  0.2161
23628SOL    HW182943   8.670   6.457   7.201 -0.1161 -0.8070  1.2437
23628SOL    HW282944   8.522   6.399   7.161 -0.4044 -0.4766  1.8284
23629SOL     OW82945   3.902   8.555   4.585 -0.2345  0.1117 -0.0489
23629SOL    HW182946   4.000   8.537   4.595 -0.5760 -0.5703  2.1782
23629SOL    HW282947   3.877   8.548   4.488  2.0452  1.0402 -0.7490
23630SOL     OW82948   5.289   9.337   6.858 -0.2907  0.3401 -0.0360
23630SOL    HW182949   5.295   9.418   6.916  0.7863  0.3247 -0.1131
23630SOL    HW282950   5.238   9.266   6.906  0.4375  0.3948  0.8333
23631SOL     OW82951   8.223   4.512   2.450  0.1652 -0.3930  0.8594
23631SOL    HW182952   8.209   4.526   2.352  1.6066  1.3109  0.8502
23631SOL    HW282953   8.255   4.598   2.491 -1.8338 -0.6823  3.0968
23632SOL     OW82954   0.467   7.346   4.280 -0.1122 -0.0470  0.2508
23632SOL    HW182955   0.493   7.438   4.311  1.4027 -0.8580  1.4667
23632SOL    HW282956   0.403   7.353   4.204 -0.6804  2.0196  0.8889
23633SOL     OW82957   7.427   5.279   8.672 -0.2521  0.0186  0.2311
23633SOL    HW182958   7.448   5.199   8.616 -1.8851 -0.1897 -0.1206
23633SOL    HW282959   7.510   5.312   8.717  0.5060 -1.6411  0.0713
23634SOL     OW82960   7.225   2.630   4.967 -0.0136  0.8029  0.2140
23634SOL    HW182961   7.303   2.647   4.906  0.1484 -2.0571 -0.4386
23634SOL    HW282962   7.181   2.543   4.942 -1.9187  1.1670  2.1498
23635SOL     OW82963   9.222   3.010   0.175 -0.4884  0.4752  0.1282
23635SOL    HW182964   9.281   3.065   0.235 -1.5359 -0.0490  1.6784
23635SOL    HW282965   9.167   3.071   0.118  1.1752  0.9764 -0.9836
23636SOL     OW82966   2.355   1.251   5.700  0.0375 -0.1707 -0.0933
23636SOL    HW182967   2.442   1.257   5.651  0.0184 -0.6631 -0.1862
23636SOL    HW282968   2.279   1.260   5.635  0.0114  0.9658  0.0709
23637SOL     OW82969   1.569   8.147   2.131 -0.3943  0.4612 -0.2129
23637SOL    HW182970   1.532   8.175   2.042  0.3218  0.1645 -0.6089
23637SOL    HW282971   1.668   8.139   2.124 -0.3035  0.7929  0.7168
23638SOL     OW82972   9.224   7.307   3.961 -0.5921 -0.6648 -0.5624
23638SOL    HW182973   9.244   7.265   3.873  0.4386 -1.8695  0.2142
23638SOL    HW282974   9.299   7.368   3.987 -0.6183 -0.7559 -0.2627
23639SOL     OW82975   3.226   4.362   9.084 -0.0955 -0.1473 -0.0459
23639SOL    HW182976   3.262   4.271   9.065  2.3822  0.7984  0.0478
23639SOL    HW282977   3.255   4.390   9.176 -1.2863  0.5550  0.1285
23640SOL     OW82978   3.073   9.369   0.531 -0.4939  0.1597 -0.2788
23640SOL    HW182979   3.047   9.424   0.610  0.7291  0.5401 -0.1400
23640SOL    HW282980   3.151   9.411   0.485 -3.1517  1.7047 -3.5851
23641SOL     OW82981   1.407   0.921   2.226 -0.1982 -0.2136 -0.2053
23641SOL    HW182982   1.357   0.848   2.271  0.2465  0.6591  1.7418
23641SOL    HW282983   1.490   0.942   2.277 -0.3006  1.6295 -0.7426
23642SOL     OW82984   4.737   0.931   9.736  0.3922  0.6075 -0.2144
23642SOL    HW182985   4.772   0.965   9.823 -2.0947  0.6472  0.7929
23642SOL    HW282986   4.788   0.973   9.661  3.0514  0.0280  1.1882
23643SOL     OW82987   7.758   3.152   5.440 -0.2635 -0.0554 -0.2623
23643SOL    HW182988   7.742   3.179   5.535 -0.7140  0.5685 -0.5176
23643SOL    HW282989   7.740   3.228   5.379 -1.5368 -0.9165 -0.9802
23644SOL     OW82990   9.923   2.393   7.489  0.1014 -1.0035  0.1962
23644SOL    HW182991   9.865   2.332   7.542  0.5744 -0.8229  0.9269
23644SOL    HW282992   9.984   2.339   7.430  0.5964 -1.2350  0.9217
23645SOL     OW82993   5.029   5.042   0.492  0.7185  0.3858 -0.0481
23645SOL    HW182994   4.958   5.084   0.549  1.2423  0.9254  0.2136
23645SOL    HW282995   5.080   4.975   0.547 -0.5038 -1.0350 -0.6323
23646SOL     OW82996   1.077   0.278   8.761 -0.1931 -0.0620  0.2829
23646SOL    HW182997   1.076   0.178   8.755  0.7375 -0.0405 -0.2930
23646SOL    HW282998   1.133   0.306   8.839 -0.9336  0.0011  0.7972
23647SOL     OW82999   6.855   7.152   6.313 -0.7024  0.3274 -0.0793
23647SOL    HW183000   6.862   7.247   6.342 -0.7893  0.8044 -1.5665
23647SOL    HW283001   6.908   7.139   6.229 -0.4407 -1.0092  0.2786
23648SOL     OW83002   9.375   4.747   5.072 -0.1938 -0.0232  0.4925
23648SOL    HW183003   9.408   4.722   4.981  1.5077  0.3472  0.9940
23648SOL    HW283004   9.411   4.682   5.139  3.5683  3.1292  1.6873
23649SOL     OW83005   7.652   6.374   0.427  0.5938 -0.0503  0.0168
23649SOL    HW183006   7.612   6.283   0.439  0.8677 -0.3564 -1.2317
23649SOL    HW283007   7.621   6.412   0.340  0.7672  0.9058  0.3691
23650SOL     OW83008   9.454   5.887   1.635  0.0654  0.2539  0.0257
23650SOL    HW183009   9.436   5.793   1.607 -1.1070  0.6253 -0.4896
23650SOL    HW283010   9.550   5.897   1.660 -0.1962 -1.5069  1.7794
23651SOL     OW83011   1.019   9.779   7.010  0.0181 -0.0851  0.5126
23651SOL    HW183012   1.104   9.771   6.957 -0.2921 -1.3793  0.1904
23651SOL    HW283013   0.981   9.871   6.997  0.9640  0.2552  0.0482
23652SOL     OW83014   4.184   7.168   2.822 -0.0318 -0.5221 -0.2870
23652SOL    HW183015   4.263   7.209   2.776  0.0157 -0.0344  0.2223
23652SOL    HW283016   4.211   7.137   2.913 -0.8966  1.4690  0.6853
23653SOL     OW83017   6.394   4.072   9.089  0.1492 -0.4593 -0.7847
23653SOL    HW183018   6.434   4.163   9.107 -0.3227 -0.6619  1.4931
23653SOL    HW283019   6.405   4.049   8.992  2.3021  1.0605 -0.9455
23654SOL     OW83020   9.518   6.288   6.353  0.5706 -0.1894 -0.3955
23654SOL    HW183021   9.573   6.214   6.314  0.9800  0.0249 -0.2210
23654SOL    HW283022   9.564   6.325   6.434 -0.0689 -0.3512  0.0499
23655SOL     OW83023   9.980   5.857   7.731 -0.1595  0.1622 -0.0097
23655SOL    HW183024  10.043   5.800   7.678 -0.0639  2.0642 -2.0042
23655SOL    HW283025  10.028   5.896   7.810  0.3983 -0.5678  0.0171
23656SOL     OW83026   1.382   2.314   5.873 -0.1392 -0.2718 -0.5997
23656SOL    HW183027   1.300   2.351   5.916  0.0689 -1.0587  0.4965
23656SOL    HW283028   1.458   2.318   5.938 -0.1125 -2.6050 -0.4458
23657SOL     OW83029   9.244   3.427   0.697 -0.1331  0.2454 -0.6357
23657SOL    HW183030   9.270   3.331   0.704  0.0044  0.2319 -1.3567
23657SOL    HW283031   9.156   3.434   0.651 -0.4165  0.4297 -0.0684
23658SOL     OW83032   0.212   1.102   0.506 -0.1267  0.1002 -0.0799
23658SOL    HW183033   0.282   1.133   0.571 -2.8420  1.5889  2.2806
23658SOL    HW283034   0.213   1.161   0.425  1.1283  0.3202  0.0885
23659SOL     OW83035   6.245   0.050   4.184 -0.2323 -0.1333  0.6655
23659SOL    HW183036   6.225  -0.040   4.145  1.5822 -0.7192  1.0551
23659SOL    HW283037   6.159   0.099   4.200 -1.2342 -1.7780  0.4507
23660SOL     OW83038   1.323   2.232   3.607  0.6733 -0.0123 -0.3900
23660SOL    HW183039   1.260   2.240   3.530 -0.5951 -0.6005  0.5719
23660SOL    HW283040   1.349   2.136   3.619  0.1163 -0.0563  0.5022
23661SOL     OW83041   5.409   9.927   7.825 -0.4340  0.0949  0.0145
23661SOL    HW183042   5.439   9.858   7.758 -0.5905 -0.7997  0.8609
23661SOL    HW283043   5.351   9.884   7.893 -1.5595  1.3251 -0.1521
23662SOL     OW83044   5.700   3.169   9.921 -0.1254 -0.2531  0.5532
23662SOL    HW183045   5.665   3.140   9.832  0.7744  2.1315 -0.6202
23662SOL    HW283046   5.644   3.244   9.957 -0.1400 -0.8189  1.7505
23663SOL     OW83047   6.075   8.946   7.495  0.1868 -0.0382 -0.3891
23663SOL    HW183048   6.080   8.895   7.410 -1.9575  2.0329 -1.7923
23663SOL    HW283049   5.988   8.929   7.540  0.1502  1.0465 -0.0282
23664SOL     OW83050   9.824   7.143   0.455  0.2546 -0.2969 -0.0333
23664SOL    HW183051   9.761   7.175   0.384 -1.2944  1.9148  2.2506
23664SOL    HW283052   9.850   7.220   0.514  1.9413 -1.9800  1.4838
23665SOL     OW83053   3.401   7.411   6.724 -0.4922 -0.0795  0.4583
23665SOL    HW183054   3.417   7.505   6.694 -0.8512 -0.5541 -1.3251
23665SOL    HW283055   3.304   7.388   6.711 -0.6936 -0.2698  2.1694
23666SOL     OW83056   3.456   1.458   9.339  0.2916  0.4708 -0.0564
23666SOL    HW183057   3.509   1.530   9.294  0.5815  0.2833 -0.0199
23666SOL    HW283058   3.400   1.498   9.412 -2.1982  1.1892 -2.2743
23667SOL     OW83059   3.744   7.057   4.110  0.0004  0.7255 -0.2334
23667SOL    HW183060   3.817   6.998   4.077 -0.1290  0.2037  0.4104
23667SOL    HW283061   3.715   7.119   4.037  1.0248  0.8791 -0.5159
23668SOL     OW83062   3.480   5.285   2.155  0.0362 -0.1174 -0.2322
23668SOL    HW183063   3.518   5.273   2.063 -0.6302 -2.0878 -0.2808
23668SOL    HW283064   3.383   5.307   2.148  0.4194  1.6878 -0.0322
23669SOL     OW83065   1.916   0.222   0.630  0.1003 -0.2065 -0.3455
23669SOL    HW183066   1.819   0.246   0.637 -0.1779 -1.7680  1.5452
23669SOL    HW283067   1.926   0.123   0.624  1.5796 -0.0454 -0.8902
23670SOL     OW83068   4.282   5.367   4.198  0.3570  0.0472  0.0767
23670SOL    HW183069   4.188   5.394   4.218  0.4159  0.6044 -0.3843
23670SOL    HW283070   4.290   5.267   4.201 -0.4759 -0.0496 -0.8531
23671SOL     OW83071   1.805   3.027   6.145  0.1671  0.1347 -0.0238
23671SOL    HW183072   1.846   3.118   6.145 -1.3248  0.8330 -0.6646
23671SOL    HW283073   1.784   3.000   6.239  1.7225 -0.0857  0.2789
23672SOL     OW83074   2.191   1.219   4.237 -0.0633 -0.4388 -0.2948
23672SOL    HW183075   2.113   1.229   4.175  0.3585  0.4190 -0.6914
23672SOL    HW283076   2.273   1.200   4.184  0.7277  2.4731 -0.2071
23673SOL     OW83077   8.795   2.028   9.886 -0.6373 -0.1929  0.2517
23673SOL    HW183078   8.697   2.044   9.895 -0.8732 -1.9935  1.1606
23673SOL    HW283079   8.823   1.959   9.953  1.1911  0.0824 -0.2218
23674SOL     OW83080   5.054   2.739   2.342  0.5035  0.0067  0.3659
23674SOL    HW183081   5.018   2.670   2.280  0.5074  0.1434  0.2108
23674SOL    HW283082   5.151   2.723   2.358  0.9610  1.1334 -1.2290
23675SOL     OW83083   3.470   0.665   9.578  0.3070  0.8233  0.4332
23675SOL    HW183084   3.489   0.705   9.489  0.4366  0.8505  0.4720
23675SOL    HW283085   3.425   0.732   9.636  0.1782  0.7899  0.3723
23676SOL     OW83086   9.482   8.033   0.018  0.5995  0.6019 -0.1650
23676SOL    HW183087   9.494   7.939   0.049 -0.1660  0.7307  0.5578
23676SOL    HW283088   9.477   8.036  -0.081 -0.7211 -0.2980 -0.1394
23677SOL     OW83089   1.688   9.285   5.686  0.1388 -0.3700 -0.3811
23677SOL    HW183090   1.695   9.302   5.784  1.2296 -2.5196 -0.0547
23677SOL    HW283091   1.761   9.333   5.638 -0.1490  0.3532 -0.0994
23678SOL     OW83092   2.343   7.602   2.447 -0.0315 -0.0992  0.4986
23678SOL    HW183093   2.374   7.663   2.373 -1.0863 -0.0145  0.1186
23678SOL    HW283094   2.407   7.526   2.456  1.2529  1.0035  0.9090
23679SOL     OW83095   3.828   2.833   5.694 -0.5534 -0.2699 -0.1179
23679SOL    HW183096   3.746   2.782   5.721  0.5603 -1.6997  0.6563
23679SOL    HW283097   3.909   2.774   5.704  0.3648  0.4325 -2.7876
23680SOL     OW83098   0.209   3.595   5.212 -0.0494  0.1345  0.0703
23680SOL    HW183099   0.190   3.646   5.128 -2.8685  1.5669  1.5271
23680SOL    HW283100   0.127   3.548   5.242  1.2313 -1.2647  1.4595
23681SOL     OW83101   2.415   3.803   7.064  0.8717 -0.2455  0.3923
23681SOL    HW183102   2.322   3.789   7.100  0.2720 -2.1266 -1.7696
23681SOL    HW283103   2.480   3.748   7.116  0.4153 -0.7919  0.3890
23682SOL     OW83104   7.231   5.187   3.397 -0.0353  0.0748  0.1508
23682SOL    HW183105   7.145   5.197   3.347 -0.3660  2.5025  1.1304
23682SOL    HW283106   7.266   5.277   3.421  1.7015 -0.9526  1.6149
23683SOL     OW83107   5.160   4.632   2.899 -0.3052  0.2952 -0.1214
23683SOL    HW183108   5.140   4.647   2.996  0.8313  1.2707 -0.0345
23683SOL    HW283109   5.103   4.694   2.844  0.2435  0.9001 -0.0082
23684SOL     OW83110   2.329   1.219   5.305  0.0912  0.1940 -0.0395
23684SOL    HW183111   2.358   1.150   5.239 -0.9017  0.2954 -0.5794
23684SOL    HW283112   2.230   1.223   5.309  0.0956 -0.9458  2.6545
23685SOL     OW83113   9.392   7.578   5.804  0.3033  0.6733 -0.7165
23685SOL    HW183114   9.294   7.600   5.799 -0.6448 -2.5557  1.6277
23685SOL    HW283115   9.414   7.509   5.735 -0.0461 -1.5505  1.3104
23686SOL     OW83116   6.678   0.954   2.421 -0.3000 -0.4447  0.2455
23686SOL    HW183117   6.590   0.960   2.468 -0.2799 -1.3052  0.4145
23686SOL    HW283118   6.664   0.966   2.323 -0.3726  1.1521  0.4517
23687SOL     OW83119   1.017   1.074   1.077 -0.2097 -0.5094 -0.1789
23687SOL    HW183120   1.114   1.097   1.087 -0.1824 -1.0324  0.7904
23687SOL    HW283121   0.992   1.003   1.143 -1.9381  1.6724  1.5900
23688SOL     OW83122   4.046   7.079   0.358  0.2861 -0.0950 -0.8785
23688SOL    HW183123   4.070   6.982   0.351 -0.6239 -0.4386  0.6603
23688SOL    HW283124   3.968   7.098   0.297 -0.6104 -0.7031  0.0634
23689SOL     OW83125   2.459   4.074   5.832 -0.3762  0.2573  0.0169
23689SOL    HW183126   2.421   4.000   5.778 -0.2806 -1.0445  1.7009
23689SOL    HW283127   2.529   4.038   5.894 -0.6995  1.6658  1.2234
23690SOL     OW83128   5.846   6.413   0.499  0.6691 -0.0309 -0.1329
23690SOL    HW183129   5.892   6.380   0.581 -0.3764  0.1486  0.5356
23690SOL    HW283130   5.757   6.368   0.490  1.1684 -0.7293 -1.6693
23691SOL     OW83131   9.395   7.121   7.393 -0.2956  0.0870 -0.9746
23691SOL    HW183132   9.359   7.053   7.329  0.2796  0.8478 -2.1274
23691SOL    HW283133   9.459   7.077   7.456 -2.8911 -1.2034  0.8469
23692SOL     OW83134   1.049   0.998   4.391  0.0565 -0.6559 -0.2741
23692SOL    HW183135   1.029   0.925   4.325 -0.3332 -1.0960  0.3316
23692SOL    HW283136   1.068   1.082   4.341  0.0926 -1.0657 -0.9679
23693SOL     OW83137   2.991   7.083   2.590 -0.1140 -0.1830 -0.0094
23693SOL    HW183138   2.964   7.062   2.685 -0.9608  0.2824 -0.1435
23693SOL    HW283139   2.910   7.109   2.538  0.6888  1.8939 -0.2610
23694SOL     OW83140   2.852   2.637   4.530 -0.5683 -0.1491  0.6136
23694SOL    HW183141   2.760   2.643   4.490  0.5245 -1.4056 -2.2332
23694SOL    HW283142   2.869   2.544   4.561 -0.2005  0.0328  0.9555
23695SOL     OW83143   6.792   4.934   9.983 -0.1027 -0.2757  0.5085
23695SOL    HW183144   6.728   4.873   9.935 -0.6354 -0.1341  1.0331
23695SOL    HW283145   6.741   4.993  10.045  0.3829  0.8393 -0.1278
23696SOL     OW83146   7.439   0.836   1.593  0.2360  0.0590 -0.0324
23696SOL    HW183147   7.534   0.816   1.619  0.3958  2.3854  1.2913
23696SOL    HW283148   7.438   0.879   1.503  0.4703  0.4655  0.1590
23697SOL     OW83149   5.763   8.834   7.412 -0.6590  0.1473 -0.5600
23697SOL    HW183150   5.686   8.859   7.353  0.3368  0.0661 -1.9160
23697SOL    HW283151   5.756   8.737   7.438 -0.6216 -0.0524 -1.2887
23698SOL     OW83152   6.861   4.080   2.025 -0.8025 -0.5302  0.6004
23698SOL    HW183153   6.787   4.085   1.958 -0.0047 -1.9762 -0.4229
23698SOL    HW283154   6.919   4.161   2.016 -2.3481  0.7229  1.5567
23699SOL     OW83155   3.513   0.121   2.330 -0.2991 -0.3374  0.4230
23699SOL    HW183156   3.449   0.142   2.403  0.4306  1.4384  0.5880
23699SOL    HW283157   3.590   0.185   2.334 -0.0315 -0.4961 -1.6220
23700SOL     OW83158   2.132   7.898   7.593 -0.5059  0.0463  0.1756
23700SOL    HW183159   2.119   7.950   7.677  1.1532  1.3672 -0.3441
23700SOL    HW283160   2.220   7.851   7.596 -0.5039 -0.0202 -0.7572
23701SOL     OW83161   7.526   6.171   6.698  0.3359  0.2498 -0.1466
23701SOL    HW183162   7.467   6.252   6.700  1.1625  0.8389  0.9522
23701SOL    HW283163   7.618   6.195   6.730  0.3359 -1.3254  1.1235
23702SOL     OW83164   9.047   8.925   3.466  0.3344  0.2838  0.5160
23702SOL    HW183165   8.954   8.908   3.501  0.9291 -1.3184  1.4007
23702SOL    HW283166   9.108   8.943   3.543  1.0847 -0.3675  0.0785
23703SOL     OW83167   1.647   3.230   3.833  0.1614 -0.0166 -0.5415
23703SOL    HW183168   1.561   3.230   3.884 -0.4238 -0.5159 -1.5191
23703SOL    HW283169   1.695   3.143   3.847  0.2266  0.0302 -0.4728
23704SOL     OW83170   2.162   6.881   2.982  0.0610  0.3224 -0.2521
23704SOL    HW183171   2.109   6.901   2.899  0.1087  0.2985 -0.2887
23704SOL    HW283172   2.204   6.791   2.974 -1.5447 -0.5348  0.6349
23705SOL     OW83173   6.353   1.562   5.661  0.1608 -0.2920  0.1253
23705SOL    HW183174   6.362   1.625   5.738  0.5961  1.6014 -1.4361
23705SOL    HW283175   6.270   1.507   5.671 -0.5669  0.9876  1.1681
23706SOL     OW83176   3.823   5.429   3.538  0.2322 -0.4829  0.1574
23706SOL    HW183177   3.876   5.495   3.486  0.9884 -0.0111  1.4977
23706SOL    HW283178   3.767   5.374   3.476  0.8264  0.3202 -1.0986
23707SOL     OW83179   3.665   3.508   6.814 -0.3539 -0.3453 -0.3887
23707SOL    HW183180   3.566   3.508   6.804 -0.3524 -1.8280 -0.5036
23707SOL    HW283181   3.708   3.499   6.724 -0.0727  2.0561 -0.5209
23708SOL     OW83182   0.578   3.404   7.254 -0.1502  0.3225  0.6155
23708SOL    HW183183   0.586   3.332   7.185  0.0398  1.3021 -0.3921
23708SOL    HW283184   0.654   3.468   7.244 -0.1623  0.5217  1.6965
23709SOL     OW83185   0.903   1.906   7.461 -0.2598 -0.2073  0.2330
23709SOL    HW183186   0.924   1.900   7.364  0.8376 -2.2984  0.5691
23709SOL    HW283187   0.818   1.857   7.480 -0.7310  0.6092  0.2699
23710SOL     OW83188   9.988   0.338   8.994 -0.0363 -0.5289 -0.5909
23710SOL    HW183189  10.064   0.386   8.952  0.7210 -2.1883 -1.1521
23710SOL    HW283190  10.022   0.280   9.068 -0.9150 -0.3459 -0.0295
23711SOL     OW83191   9.718   5.005   7.128  0.2012  0.2733  0.0195
23711SOL    HW183192   9.806   5.033   7.167  0.8624 -1.8496  0.1081
23711SOL    HW283193   9.733   4.970   7.035 -0.8035  1.4385 -0.6099
23712SOL     OW83194   5.640   1.865   1.894 -0.1445  0.3221  0.5339
23712SOL    HW183195   5.553   1.892   1.852 -0.3780  0.3278  1.0169
23712SOL    HW283196   5.648   1.909   1.983  0.2562  0.1463  0.5818
23713SOL     OW83197   2.240   2.553   5.683  0.3728 -0.0392 -0.6926
23713SOL    HW183198   2.257   2.612   5.604 -0.7515  2.4575  0.8670
23713SOL    HW283199   2.326   2.533   5.729  0.8623 -0.3357 -1.7148
23714SOL     OW83200   3.954   8.519   8.340  0.0015  0.2678  0.1268
23714SOL    HW183201   3.955   8.455   8.263 -0.0610 -0.2343  0.5377
23714SOL    HW283202   3.902   8.600   8.315  0.0480  0.1380 -0.3892
23715SOL     OW83203   3.395   8.512   3.509  0.1578 -0.0876  0.3016
23715SOL    HW183204   3.365   8.602   3.541 -0.2868 -0.9285  2.3083
23715SOL    HW283205   3.324   8.444   3.530 -0.7380 -0.5173 -3.5951
23716SOL     OW83206   8.985   9.402   8.117  0.6015  0.0824 -0.0914
23716SOL    HW183207   9.018   9.368   8.029 -0.1328 -1.7469  0.3176
23716SOL    HW283208   9.057   9.391   8.186  0.5702 -0.0840 -0.0873
23717SOL     OW83209   0.502   7.974   5.433  0.1280 -0.2195  0.6737
23717SOL    HW183210   0.520   7.981   5.335 -0.7736  1.5618  0.6088
23717SOL    HW283211   0.584   7.998   5.484  0.3095 -0.1750  0.3618
23718SOL     OW83212   5.378   8.010   8.146 -0.5854 -0.0548  0.3594
23718SOL    HW183213   5.322   7.952   8.086  0.0736 -0.1040 -0.2158
23718SOL    HW283214   5.475   7.995   8.126 -0.3780  0.4374  0.9699
23719SOL     OW83215   2.212   1.065   6.046  0.9551 -0.1670  0.2946
23719SOL    HW183216   2.312   1.072   6.042  1.2437 -2.0837  2.8935
23719SOL    HW283217   2.173   1.157   6.049  2.6351  0.6122 -0.5702
23720SOL     OW83218   9.928   0.323   8.253 -0.0678  0.0036 -0.2184
23720SOL    HW183219   9.839   0.291   8.283  0.4914 -0.5867  0.8250
23720SOL    HW283220   9.925   0.343   8.155 -1.7915  1.5826  0.1351
23721SOL     OW83221   4.089   1.529   8.064  0.2453  0.5279  0.4431
23721SOL    HW183222   4.133   1.570   8.143 -1.2601  1.3392  0.8809
23721SOL    HW283223   3.994   1.505   8.087  0.7629 -2.2420 -0.1132
23722SOL     OW83224   5.156   7.698   5.978 -0.0686 -0.6311  0.4147
23722SOL    HW183225   5.201   7.756   6.047 -0.5872  1.0271 -0.6038
23722SOL    HW283226   5.188   7.604   5.987  2.6462  0.2692  0.5239
23723SOL     OW83227   0.829   6.526   0.619  0.4215  0.1543 -0.3931
23723SOL    HW183228   0.918   6.538   0.574 -0.7612 -0.2829 -2.9713
23723SOL    HW283229   0.799   6.431   0.608 -0.4992  0.3654  0.2037
23724SOL     OW83230   3.362   9.471  10.038 -0.3545  0.0315 -0.1825
23724SOL    HW183231   3.383   9.534  10.112  1.4624 -1.1233  0.2920
23724SOL    HW283232   3.264   9.474  10.019 -1.1157 -0.8517  3.3486
23725SOL     OW83233   2.515   5.682   0.439 -0.3245  0.2086  0.1839
23725SOL    HW183234   2.508   5.592   0.398  0.0253 -0.6767  1.9924
23725SOL    HW283235   2.493   5.752   0.371  0.5683 -1.1654 -1.5665
23726SOL     OW83236   9.443   9.627   2.603 -0.4892  0.4281 -0.0159
23726SOL    HW183237   9.537   9.605   2.575 -0.6336  0.1950 -0.3182
23726SOL    HW283238   9.399   9.681   2.531 -0.5287  0.6997  0.2068
23727SOL     OW83239   1.392   4.817   5.095 -0.4683  0.0354  0.1994
23727SOL    HW183240   1.451   4.807   5.014  0.3248 -1.8018  0.9781
23727SOL    HW283241   1.301   4.781   5.074 -0.2547 -0.4728  0.1283
23728SOL     OW83242   8.477   8.956   0.404 -0.3258 -0.0706 -0.0133
23728SOL    HW183243   8.418   8.950   0.324  0.0083 -0.1252 -0.2514
23728SOL    HW283244   8.568   8.987   0.377 -1.0388  2.8832  0.7076
23729SOL     OW83245   2.923   8.399   1.785 -0.0898 -0.6352 -0.0786
23729SOL    HW183246   2.934   8.381   1.883  0.0672  0.6966  0.1612
23729SOL    HW283247   3.012   8.407   1.741 -0.1251  0.9409  0.0998
23730SOL     OW83248   0.299   0.971   4.501 -0.1147  0.7313  0.3201
23730SOL    HW183249   0.391   0.931   4.500 -0.1635  0.6071 -1.7319
23730SOL    HW283250   0.270   0.990   4.407 -2.0358  1.1419  0.9728
23731SOL     OW83251   1.451   2.071   2.931  0.1430 -0.6807  0.1611
23731SOL    HW183252   1.493   2.160   2.913  0.1400 -0.6330  0.3868
23731SOL    HW283253   1.521   2.007   2.963  0.0650 -0.6300  0.4370
23732SOL     OW83254   0.274   8.969   1.292 -0.0257 -0.2249  0.6515
23732SOL    HW183255   0.270   8.972   1.391 -0.5787  1.9481  0.5745
23732SOL    HW283256   0.336   9.040   1.259 -0.5120 -0.3699 -0.6088
23733SOL     OW83257   3.780   7.892   1.119  0.7619 -0.0271  0.7005
23733SOL    HW183258   3.768   7.974   1.176 -2.7352  0.0344  0.0248
23733SOL    HW283259   3.783   7.812   1.178 -0.0919  0.2699  1.1748
23734SOL     OW83260   0.783   3.189   9.517 -0.5974 -0.3568  0.1932
23734SOL    HW183261   0.859   3.225   9.463 -1.7689  2.6257  0.4414
23734SOL    HW283262   0.751   3.103   9.477  1.6069 -0.6532 -1.0356
23735SOL     OW83263   2.468   2.462   1.364  0.0984 -0.2453  0.3105
23735SOL    HW183264   2.520   2.529   1.310 -1.7555  0.7341 -0.3085
23735SOL    HW283265   2.467   2.492   1.460  0.3181 -0.0467  0.2541
23736SOL     OW83266   0.698   9.451   2.701 -0.0196 -0.4092 -0.4890
23736SOL    HW183267   0.724   9.383   2.770  3.1112 -0.9174 -2.0478
23736SOL    HW283268   0.600   9.448   2.686 -0.3612 -2.3506  1.7881
23737SOL     OW83269   5.126   0.733   6.964 -0.6535  0.1113  0.1421
23737SOL    HW183270   5.165   0.649   6.926  2.6636  1.0822  1.2458
23737SOL    HW283271   5.075   0.782   6.893 -0.9937 -1.8668 -1.0028
23738SOL     OW83272   8.205   7.663   2.454 -0.2303  0.1541  0.0433
23738SOL    HW183273   8.269   7.592   2.424  2.4187  1.9949  1.1389
23738SOL    HW283274   8.118   7.652   2.406  0.5851 -2.9443 -0.8564
23739SOL     OW83275   5.162   5.618   1.893  0.0664 -0.0963  0.2984
23739SOL    HW183276   5.250   5.665   1.881 -0.9205  1.6832  0.0013
23739SOL    HW283277   5.101   5.640   1.817 -0.4939 -1.7026  0.2640
23740SOL     OW83278   1.119   2.136   9.457  0.4751 -0.1320  0.0631
23740SOL    HW183279   1.178   2.089   9.392 -2.1407 -0.0139 -2.4885
23740SOL    HW283280   1.025   2.136   9.423 -0.9634  0.0575  3.7977
23741SOL     OW83281   8.010   7.087   8.925 -0.0820  0.4198 -0.1283
23741SOL    HW183282   7.973   7.023   8.858 -0.3208 -0.8326  1.1847
23741SOL    HW283283   8.110   7.081   8.926 -0.1170 -0.2028  0.2273
23742SOL     OW83284   7.871   1.595   2.830 -0.2026 -0.1563 -0.3673
23742SOL    HW183285   7.909   1.687   2.822  0.8508 -0.3819  1.8688
23742SOL    HW283286   7.811   1.577   2.751 -0.6637  2.5417 -0.6823
23743SOL     OW83287   9.250   0.269   2.600 -0.1556 -0.2383  0.4788
23743SOL    HW183288   9.225   0.351   2.549  0.6617  1.0139  2.0381
23743SOL    HW283289   9.168   0.215   2.619 -1.0757  1.5213  1.6584
23744SOL     OW83290   0.393   4.564   5.707  0.0854 -0.1565  0.1371
23744SOL    HW183291   0.373   4.568   5.805  1.1889 -2.2243  0.4861
23744SOL    HW283292   0.381   4.470   5.675  1.0084  0.2450 -1.4336
23745SOL     OW83293   3.244   6.244   3.744 -0.6997  0.0148 -0.1880
23745SOL    HW183294   3.280   6.333   3.715 -2.5012  1.0004  0.5366
23745SOL    HW283295   3.144   6.246   3.741 -0.7482 -2.3067 -1.0644
23746SOL     OW83296   3.220   5.904   5.162  0.4499 -0.2762 -0.5049
23746SOL    HW183297   3.171   5.859   5.086 -0.0360 -0.7972  0.1072
23746SOL    HW283298   3.205   5.852   5.246  0.0568  0.9327  0.1793
23747SOL     OW83299   6.842   3.495   8.600  0.0464 -0.0725 -0.4405
23747SOL    HW183300   6.916   3.504   8.532  0.1995 -2.0959 -0.5888
23747SOL    HW283301   6.756   3.473   8.553 -0.9321  3.4095 -0.3614
23748SOL     OW83302   6.533   9.337   7.020  0.3604  0.6921  0.3731
23748SOL    HW183303   6.609   9.294   7.069  1.2242  0.6285 -1.0196
23748SOL    HW283304   6.556   9.347   6.923 -0.5696  2.5701  0.3170
23749SOL     OW83305   8.375   1.615   2.945 -0.3824 -0.5706 -0.1082
23749SOL    HW183306   8.368   1.649   3.038  0.4947  0.3206 -0.3546
23749SOL    HW283307   8.284   1.606   2.905 -0.7680 -1.0983  0.8724
23750SOL     OW83308   6.976   7.596   4.354  0.3467 -0.0595  0.0738
23750SOL    HW183309   6.994   7.598   4.256  1.8299  1.2149  0.3590
23750SOL    HW283310   7.012   7.511   4.393  1.3857  0.2561 -0.1894
23751SOL     OW83311   1.248   5.102   1.586 -0.6054 -0.1386 -0.8367
23751SOL    HW183312   1.279   5.121   1.493 -1.0081 -0.0052 -0.9468
23751SOL    HW283313   1.183   5.172   1.614 -0.2080  0.0257 -0.3184
23752SOL     OW83314   0.158   5.743   9.783  0.3137  0.2244  0.2933
23752SOL    HW183315   0.109   5.658   9.799 -0.5148  0.9074  1.4563
23752SOL    HW283316   0.099   5.807   9.734  0.7680  0.3148 -0.1483
23753SOL     OW83317   9.045   3.110   8.387  0.4444 -0.3135  0.0882
23753SOL    HW183318   9.132   3.067   8.364  1.0629 -0.2017  2.1952
23753SOL    HW283319   9.053   3.161   8.472 -1.9268 -1.1319  0.8594
23754SOL     OW83320   9.968   8.314   6.158  0.2122  0.5921  0.1765
23754SOL    HW183321  10.004   8.386   6.099 -1.7145  1.1548 -0.3418
23754SOL    HW283322   9.878   8.341   6.193 -0.5332 -1.5457 -0.0239
23755SOL     OW83323   9.915   3.659   1.998  0.3237 -0.5594  0.2180
23755SOL    HW183324   9.873   3.605   1.925 -1.2489  0.8415  0.0465
23755SOL    HW283325   9.980   3.724   1.957 -0.2992 -0.0122  0.0942
23756SOL     OW83326   0.196   4.979   0.760  0.2037  0.2769  0.3840
23756SOL    HW183327   0.163   5.062   0.804  2.2259  0.6176  1.3239
23756SOL    HW283328   0.123   4.939   0.704 -0.8971  2.4793  0.1923
23757SOL     OW83329   7.451   0.770   3.426 -0.1495 -0.6209 -0.5270
23757SOL    HW183330   7.511   0.831   3.373  0.9179 -1.1172  0.0852
23757SOL    HW283331   7.479   0.772   3.522 -2.0852  0.2919  0.0336
23758SOL     OW83332   3.676   8.568   7.348  0.2922 -0.2452 -0.3789
23758SOL    HW183333   3.703   8.658   7.384  0.6717 -0.3783 -0.3169
23758SOL    HW283334   3.722   8.552   7.261  0.1603 -0.3430 -0.4298
23759SOL     OW83335   8.556   6.307   9.813 -0.1942  0.5747  0.4943
23759SOL    HW183336   8.621   6.298   9.889  0.7033 -0.1177 -0.3393
23759SOL    HW283337   8.465   6.278   9.844  0.4416 -1.0493  0.9354
23760SOL     OW83338   9.604   1.442   6.180  0.2631 -0.0812  0.2829
23760SOL    HW183339   9.513   1.470   6.209  0.2973 -0.0109  0.3226
23760SOL    HW283340   9.615   1.344   6.193 -0.0337 -0.1943 -0.3409
23761SOL     OW83341   2.491   4.141   1.145  0.1778 -0.1064 -0.4005
23761SOL    HW183342   2.525   4.210   1.081 -0.8066  1.5795  0.8441
23761SOL    HW283343   2.433   4.185   1.213 -0.9926 -2.2772  0.0491
23762SOL     OW83344   3.164   1.587   6.611  0.0355  0.3700 -0.0716
23762SOL    HW183345   3.247   1.598   6.666 -0.8015 -1.6812  1.6466
23762SOL    HW283346   3.117   1.503   6.638 -1.0911 -0.0072 -3.0327
23763SOL     OW83347   4.097   7.215   0.600 -0.4640 -0.3715  0.6324
23763SOL    HW183348   4.186   7.185   0.635  1.3095  1.7419 -1.8789
23763SOL    HW283349   4.086   7.184   0.506 -2.5552 -0.8756  1.0248
23764SOL     OW83350   8.694   8.259   3.267 -0.2681  0.2740  0.9471
23764SOL    HW183351   8.610   8.215   3.233  0.5763 -1.1276  0.6276
23764SOL    HW283352   8.673   8.309   3.351 -1.7933  1.4572 -0.1027
23765SOL     OW83353   0.977   4.407   4.199  0.4274 -0.0443  0.0395
23765SOL    HW183354   0.944   4.479   4.137 -0.1056  0.2584  0.6744
23765SOL    HW283355   0.969   4.318   4.153 -1.5585 -0.0176  0.2580
23766SOL     OW83356   4.323   9.510   6.109  0.0365 -0.0766  0.1248
23766SOL    HW183357   4.293   9.520   6.204 -1.7838 -1.6284 -0.2532
23766SOL    HW283358   4.245   9.484   6.052  0.8143  2.2618 -2.0736
23767SOL     OW83359   7.742   5.418   6.927  0.1130  0.6869 -0.2110
23767SOL    HW183360   7.760   5.378   6.837 -1.2380  0.2543 -0.2974
23767SOL    HW283361   7.643   5.423   6.942  0.3277  1.1027  1.0963
23768SOL     OW83362   3.643   8.262   9.711 -0.0887 -0.3726 -0.0524
23768SOL    HW183363   3.635   8.180   9.767  0.3619 -1.0027 -0.9084
23768SOL    HW283364   3.706   8.326   9.755  0.9001 -1.2046 -0.2386
23769SOL     OW83365   3.347   5.839   0.123 -0.2464 -0.0679 -0.2668
23769SOL    HW183366   3.318   5.815   0.216 -1.7870  0.4737 -0.6050
23769SOL    HW283367   3.267   5.849   0.064  0.6686  0.6565 -1.4075
23770SOL     OW83368   7.870   6.554   0.805 -0.2302 -0.0076 -0.1562
23770SOL    HW183369   7.793   6.542   0.868 -0.1684 -0.3047 -0.1371
23770SOL    HW283370   7.950   6.585   0.857  0.1501 -1.4065  0.0970
23771SOL     OW83371   9.031   2.439   5.923 -0.1629 -0.2293  0.6646
23771SOL    HW183372   9.066   2.362   5.869  0.4374 -0.3975  1.2834
23771SOL    HW283373   8.980   2.501   5.864  2.3215  0.7448 -0.5438
23772SOL     OW83374   3.504   0.328   3.100  0.0699 -0.4034  0.2393
23772SOL    HW183375   3.407   0.305   3.109  0.0039  0.8166  2.9946
23772SOL    HW283376   3.559   0.246   3.111 -0.5903 -0.9428 -0.4131
23773SOL     OW83377   0.107   6.382   6.861  0.3226  0.2047  0.2555
23773SOL    HW183378   0.079   6.289   6.886 -1.4067  0.7271  0.3185
23773SOL    HW283379   0.078   6.446   6.933  0.9749  0.8677 -0.0676
23774SOL     OW83380   4.487   3.732   7.490  0.3436 -0.4003  0.2246
23774SOL    HW183381   4.542   3.814   7.479 -1.6384  0.9118 -0.1260
23774SOL    HW283382   4.544   3.659   7.527  1.7412  1.6142  2.1923
23775SOL     OW83383   0.305   2.494   7.093 -0.3298 -0.3674 -0.6296
23775SOL    HW183384   0.237   2.539   7.035 -1.7221 -1.6311  0.0112
23775SOL    HW283385   0.260   2.440   7.163  1.3193  1.5591  2.0440
23776SOL     OW83386   5.429   6.258   1.314  0.0058 -0.0012 -0.1333
23776SOL    HW183387   5.525   6.279   1.333  0.1642 -1.3993  0.6309
23776SOL    HW283388   5.408   6.282   1.219  1.4291 -0.8183 -0.6694
23777SOL     OW83389   9.857   3.116   3.175 -0.3300  0.2456 -0.6091
23777SOL    HW183390   9.883   3.082   3.085  1.3735 -0.3981  0.1129
23777SOL    HW283391   9.917   3.191   3.202 -0.4298  0.0278  0.2602
23778SOL     OW83392   3.607   3.830   6.794 -0.2956 -0.3544  0.1305
23778SOL    HW183393   3.533   3.895   6.774  0.4695  0.6074  0.4161
23778SOL    HW283394   3.572   3.758   6.853 -0.6528  0.8630  1.4342
23779SOL     OW83395   0.505   5.853   0.786  0.1627  0.0665  0.0907
23779SOL    HW183396   0.510   5.898   0.697  1.3749 -0.5760 -0.1679
23779SOL    HW283397   0.577   5.888   0.846 -0.0441 -0.1998  0.4991
23780SOL     OW83398   0.421   7.787   8.183 -0.6039 -0.8096  0.6737
23780SOL    HW183399   0.474   7.710   8.217  0.9362  0.4493  1.1679
23780SOL    HW283400   0.331   7.787   8.226 -0.6112 -2.3093  0.6852
23781SOL     OW83401   4.078   3.990   0.749  0.7884  0.9490  0.1273
23781SOL    HW183402   4.110   4.015   0.658  0.8473 -0.3005 -0.2038
23781SOL    HW283403   4.144   3.927   0.792 -0.3939 -0.3544  0.0839
23782SOL     OW83404   0.454   4.625   8.745  0.0949  0.8898  0.2174
23782SOL    HW183405   0.359   4.618   8.714  0.1988 -0.4461  0.2096
23782SOL    HW283406   0.483   4.539   8.786  0.5001  2.1004  2.5617
23783SOL     OW83407   9.143   3.684   1.174  0.0706 -0.3534 -0.3754
23783SOL    HW183408   9.057   3.653   1.133  0.3049 -2.2151  0.5003
23783SOL    HW283409   9.215   3.681   1.105 -0.3548  0.2630 -0.8537
23784SOL     OW83410   9.736   6.717   9.314 -0.0252 -0.5504 -0.1556
23784SOL    HW183411   9.680   6.800   9.308 -0.9613 -1.2051 -0.7756
23784SOL    HW283412   9.775   6.696   9.224  2.0253  0.4243  0.4764
23785SOL     OW83413   9.445   2.246   4.861  0.8118  0.0508 -0.6334
23785SOL    HW183414   9.519   2.188   4.895  0.0330  0.6091  2.1749
23785SOL    HW283415   9.433   2.324   4.922 -1.7919  0.2199 -1.2783
23786SOL     OW83416   2.181   8.225   2.786 -0.4261  0.2481  0.2546
23786SOL    HW183417   2.278   8.204   2.778 -0.7599 -0.7171 -1.6980
23786SOL    HW283418   2.164   8.275   2.871  1.2931 -2.4097  2.2551
23787SOL     OW83419   0.054   6.548   0.726 -0.2132  0.2552 -0.3867
23787SOL    HW183420   0.028   6.584   0.816  0.6767 -1.6574  0.6639
23787SOL    HW283421   0.153   6.548   0.719 -0.3031  1.8056 -1.9968
23788SOL     OW83422   0.975   3.424   8.673 -0.3485  0.0185  0.1362
23788SOL    HW183423   0.985   3.356   8.601 -0.4352  1.1402 -0.9581
23788SOL    HW283424   1.062   3.437   8.720 -0.4372 -1.1402  0.6254
23789SOL     OW83425   4.678   4.784   3.687  0.6017 -0.1898  0.5660
23789SOL    HW183426   4.622   4.839   3.750  1.4917 -0.2430  1.4175
23789SOL    HW283427   4.715   4.844   3.616 -2.4981 -0.5617 -1.4477
23790SOL     OW83428   5.472   6.819   3.490 -0.2434 -0.2621 -0.2208
23790SOL    HW183429   5.426   6.886   3.548 -0.9035  0.4549 -1.5292
23790SOL    HW283430   5.567   6.846   3.476 -0.7520  0.9273 -1.4993
23791SOL     OW83431   3.268   7.982   3.424 -0.2959  0.1997  0.0044
23791SOL    HW183432   3.174   7.948   3.430 -0.5999  0.8997 -0.6760
23791SOL    HW283433   3.281   8.027   3.335  0.3078  1.2400  0.6117
23792SOL     OW83434   5.741   8.126   4.841 -0.3367  0.0025  0.5719
23792SOL    HW183435   5.796   8.150   4.761 -0.3704  1.7551  1.0399
23792SOL    HW283436   5.694   8.040   4.825 -0.5398  0.4542 -1.3994
23793SOL     OW83437   8.038   7.163   4.940  0.4686  0.1182  0.4064
23793SOL    HW183438   8.033   7.217   5.023 -3.2456 -0.0511  0.3615
23793SOL    HW283439   7.975   7.200   4.872  0.0435 -2.4826 -0.6766
23794SOL     OW83440   8.984   6.637   3.605 -0.5946 -0.2905 -0.4425
23794SOL    HW183441   9.058   6.695   3.570 -0.8537 -0.0507 -0.5874
23794SOL    HW283442   8.910   6.632   3.538  0.6017 -3.0322 -1.6469
23795SOL     OW83443   7.910   1.289   5.401  0.1347 -0.4437 -0.7932
23795SOL    HW183444   7.894   1.253   5.309 -1.0181  0.8454 -1.1125
23795SOL    HW283445   8.005   1.320   5.409  0.0464  0.0805 -1.7784
23796SOL     OW83446   7.840   3.828   0.627 -0.2841  0.1221 -0.5163
23796SOL    HW183447   7.765   3.892   0.639 -0.7350 -0.3774 -0.6390
23796SOL    HW283448   7.906   3.838   0.702 -0.5458  0.4642 -0.3354
23797SOL     OW83449   2.848   7.240   9.881  0.3553 -0.0930  0.2033
23797SOL    HW183450   2.816   7.293   9.803 -0.7772 -0.8840  0.1232
23797SOL    HW283451   2.770   7.203   9.931  1.1052 -0.8466  0.8450
23798SOL     OW83452   5.314   9.572   7.015 -0.2879 -0.2930 -0.5705
23798SOL    HW183453   5.400   9.562   7.064 -0.0690 -2.0986 -1.2652
23798SOL    HW283454   5.297   9.669   6.995  2.9080 -0.1094 -2.7454
23799SOL     OW83455   2.561   4.092   0.263 -0.0621 -0.1544  0.3567
23799SOL    HW183456   2.503   4.101   0.183 -1.0080  1.0351  1.1482
23799SOL    HW283457   2.505   4.094   0.346  0.8478 -1.8597  1.0478
23800SOL     OW83458   7.415   7.199   7.139  0.4367 -0.6981  0.0619
23800SOL    HW183459   7.338   7.263   7.141  1.6488  0.7698  0.9260
23800SOL    HW283460   7.430   7.162   7.230  0.5073 -1.2733 -0.1867
23801SOL     OW83461   8.499   8.463   1.892 -0.1221 -0.1053 -0.1778
23801SOL    HW183462   8.559   8.419   1.825  0.2291 -0.1875  0.1892
23801SOL    HW283463   8.454   8.542   1.850  0.5220  0.1721 -0.3512
23802SOL     OW83464   7.461   3.193   9.659  0.3106  0.2149  0.1657
23802SOL    HW183465   7.429   3.202   9.565  2.5076  0.6537 -0.5510
23802SOL    HW283466   7.419   3.112   9.700  1.1950 -1.3815 -1.9851
23803SOL     OW83467   0.143   1.126   1.190 -0.6873  0.3093  0.7450
23803SOL    HW183468   0.134   1.220   1.156  1.7174  0.1311 -0.5566
23803SOL    HW283469   0.075   1.068   1.145 -1.2825  1.1640  0.5131
23804SOL     OW83470   9.238   7.867   5.384  0.3470  0.3119 -0.2156
23804SOL    HW183471   9.218   7.961   5.413  1.1166  0.7512 -1.1183
23804SOL    HW283472   9.336   7.855   5.373  0.4049 -1.0501  1.3969
23805SOL     OW83473   9.563   1.323   0.001 -0.3890  0.0416  0.4674
23805SOL    HW183474   9.583   1.259   0.075  2.1188  1.2264  0.8869
23805SOL    HW283475   9.478   1.372   0.020  0.6816  0.9777  3.0506
23806SOL     OW83476   2.917   7.617   2.815  0.2294 -0.4759 -0.5496
23806SOL    HW183477   3.004   7.640   2.858 -0.3393 -0.1403  0.4399
23806SOL    HW283478   2.911   7.518   2.803 -0.3026 -0.7569  1.7273
23807SOL     OW83479   1.241   4.498   7.444  0.1649  0.6106 -0.2942
23807SOL    HW183480   1.274   4.591   7.462  0.2580  0.7982 -1.3717
23807SOL    HW283481   1.277   4.468   7.355 -0.2432 -0.2796 -0.1550
23808SOL     OW83482   1.479   3.209   0.846 -0.0178  0.4886  0.4179
23808SOL    HW183483   1.380   3.217   0.831  0.3055  0.8608 -1.7232
23808SOL    HW283484   1.498   3.127   0.899 -1.3158 -0.8293 -1.1003
23809SOL     OW83485   2.942   7.052   5.002  0.3598  0.0171 -0.1719
23809SOL    HW183486   3.038   7.033   5.023 -0.2238 -1.8279  0.9055
23809SOL    HW283487   2.903   7.108   5.075  0.2606 -0.3351  0.0441
23810SOL     OW83488   5.387   0.814   3.785 -0.3258 -0.2802  0.2065
23810SOL    HW183489   5.287   0.820   3.785 -0.2034  2.2089 -0.2432
23810SOL    HW283490   5.426   0.900   3.819  1.6708 -1.3789  0.7989
23811SOL     OW83491   4.055   7.156   1.925  0.0964 -0.2561 -0.0833
23811SOL    HW183492   4.106   7.200   1.851  3.2490  0.0684  2.1901
23811SOL    HW283493   4.033   7.062   1.899  1.3210 -0.2098 -1.3391
23812SOL     OW83494   1.023   8.897   6.785 -0.8202 -0.4415  0.1838
23812SOL    HW183495   1.024   8.997   6.791  0.8754 -0.4322 -0.2142
23812SOL    HW283496   1.080   8.867   6.709 -0.9040 -1.7338  0.6201
23813SOL     OW83497   4.481   8.435   3.410  1.2393  0.0851  0.0042
23813SOL    HW183498   4.443   8.483   3.488 -0.6694 -0.1346 -0.7667
23813SOL    HW283499   4.508   8.343   3.437 -0.9240 -0.5497  0.0397
23814SOL     OW83500   0.605   3.705   9.551  0.3340  0.5490  0.1842
23814SOL    HW183501   0.679   3.692   9.617  1.3973 -0.4085 -1.1621
23814SOL    HW283502   0.578   3.616   9.515 -1.6792  0.8629  0.8557
23815SOL     OW83503   9.481   2.060   2.761  0.4110 -0.7076 -0.5640
23815SOL    HW183504   9.433   1.999   2.698 -0.8635  1.7495 -2.0364
23815SOL    HW283505   9.426   2.142   2.776  3.6750  1.7518 -1.4889
23816SOL     OW83506   3.826   1.474   1.089  0.4977 -0.0281  0.3183
23816SOL    HW183507   3.833   1.564   1.131  0.9543 -0.4307  1.1092
23816SOL    HW283508   3.730   1.445   1.089  0.1009  1.1841 -1.4941
23817SOL     OW83509   1.919   2.284   7.539 -0.3808 -0.3891  0.5975
23817SOL    HW183510   1.967   2.368   7.565 -1.0476 -0.0757  0.8424
23817SOL    HW283511   1.848   2.264   7.607 -0.2662 -1.1153  0.5037
23818SOL     OW83512   5.551   7.453   4.900 -0.2889  0.3638 -0.0089
23818SOL    HW183513   5.594   7.365   4.880 -1.0431  0.0221 -0.1624
23818SOL    HW283514   5.619   7.527   4.891 -0.2173  0.0579 -2.2878
23819SOL     OW83515   8.913   2.567   0.973 -0.6976  0.1954  0.3210
23819SOL    HW183516   8.888   2.509   0.896  1.2497  0.2327 -0.3788
23819SOL    HW283517   8.913   2.663   0.945 -0.5462  0.2536  0.5110
23820SOL     OW83518   8.105   2.536   2.893  0.7798 -0.1030 -0.8858
23820SOL    HW183519   8.090   2.632   2.867  2.0528  0.0601 -1.0205
23820SOL    HW283520   8.031   2.507   2.954  0.5125  1.0458 -0.6497
23821SOL     OW83521   6.318   5.846   6.986  0.0963 -0.2960  0.2782
23821SOL    HW183522   6.311   5.908   6.908 -1.0090 -0.5936  0.1302
23821SOL    HW283523   6.407   5.802   6.986  0.4116  0.3303 -0.3414
23822SOL     OW83524   3.025   2.658   6.490  0.2799  0.2440 -0.3203
23822SOL    HW183525   2.968   2.590   6.536 -1.4046  0.6857 -1.6689
23822SOL    HW283526   3.121   2.641   6.511 -0.3979  0.2582  3.0807
23823SOL     OW83527   8.546   0.148   0.524  1.0151 -0.8945 -0.5305
23823SOL    HW183528   8.522   0.054   0.501 -0.1948 -0.7737  0.1446
23823SOL    HW283529   8.468   0.208   0.502  0.6484 -0.4859  1.7755
23824SOL     OW83530   9.139   8.556   4.716 -0.5028  0.5612  0.1425
23824SOL    HW183531   9.082   8.474   4.710 -0.8712  0.7908  0.4714
23824SOL    HW283532   9.227   8.532   4.757  0.1553 -0.0511 -1.5740
23825SOL     OW83533   2.363   1.680   3.293  0.1265  0.1414 -0.3978
23825SOL    HW183534   2.337   1.621   3.217  1.0417 -0.5719 -0.1586
23825SOL    HW283535   2.326   1.644   3.378 -0.8888  0.9348 -0.5009
23826SOL     OW83536   8.623   2.496   8.311 -0.3338  0.0310  0.5955
23826SOL    HW183537   8.626   2.475   8.213 -0.7611  0.0908  0.5667
23826SOL    HW283538   8.532   2.473   8.347 -0.8271  1.8184  0.5551
23827SOL     OW83539   2.679   3.396   2.453  0.2020 -0.4022  0.0662
23827SOL    HW183540   2.599   3.337   2.443 -0.6910  0.5253  1.5993
23827SOL    HW283541   2.650   3.490   2.472  1.6049  0.5245 -2.1088
23828SOL     OW83542   3.644   8.237   4.414 -0.0200  0.4851 -0.2136
23828SOL    HW183543   3.695   8.312   4.373 -1.5783  1.3982 -0.5149
23828SOL    HW283544   3.658   8.237   4.513  0.4894  0.7726 -0.2834
23829SOL     OW83545   6.035   8.442   5.155  0.0711  0.1454 -0.2180
23829SOL    HW183546   6.134   8.454   5.152  0.2619 -1.2629  0.0282
23829SOL    HW283547   6.008   8.375   5.087 -0.4321 -1.1586  1.2253
23830SOL     OW83548   7.568   8.420   6.047  0.2029 -0.2985 -0.2117
23830SOL    HW183549   7.472   8.424   6.022 -0.1770  2.8887  1.4935
23830SOL    HW283550   7.625   8.417   5.964 -1.2500  1.4263 -1.2910
23831SOL     OW83551   1.898   2.807   6.627  0.5394  0.0653 -0.1223
23831SOL    HW183552   1.876   2.745   6.702  0.3909 -0.0497 -0.2602
23831SOL    HW283553   1.994   2.796   6.601  0.3706 -0.5073 -0.5194
23832SOL     OW83554   7.736   8.700   6.959 -0.5165 -0.0670  0.0530
23832SOL    HW183555   7.684   8.616   6.942 -0.4479 -0.0584 -0.1999
23832SOL    HW283556   7.813   8.680   7.020 -0.1336 -0.3105 -0.5116
23833SOL     OW83557   6.072   7.526   4.934 -0.1161  0.2175  0.4498
23833SOL    HW183558   6.128   7.523   4.851 -1.1720  0.7109 -0.2922
23833SOL    HW283559   6.129   7.551   5.011  0.4156  2.2229 -0.5633
23834SOL     OW83560   2.664   4.112   2.724 -0.3486 -0.3171  0.0040
23834SOL    HW183561   2.727   4.142   2.653 -0.6301 -1.4257 -0.7263
23834SOL    HW283562   2.661   4.180   2.797  2.5513 -0.7798  0.5936
23835SOL     OW83563   4.565   2.806   5.372 -0.5210  0.3631 -0.3414
23835SOL    HW183564   4.487   2.866   5.391 -0.7548  0.4768 -1.6407
23835SOL    HW283565   4.531   2.713   5.355 -0.3677  0.4069 -0.8802
23836SOL     OW83566   5.686   9.611   8.597  0.4607 -0.1574  0.3704
23836SOL    HW183567   5.632   9.677   8.649  1.0980  2.4066 -2.0758
23836SOL    HW283568   5.771   9.591   8.647 -0.8054 -1.0241  2.2518
23837SOL     OW83569   4.618   0.755   6.609  0.4609  0.8817  0.0365
23837SOL    HW183570   4.696   0.807   6.575  0.0613  1.1473 -0.4984
23837SOL    HW283571   4.622   0.749   6.708 -0.3690  3.3899  0.2623
23838SOL     OW83572   2.672   1.060   8.192 -0.2429  0.3662  0.2518
23838SOL    HW183573   2.703   0.973   8.230  0.7161  0.5610 -0.0602
23838SOL    HW283574   2.622   1.043   8.107  0.1276  0.1290  0.0780
23839SOL     OW83575   5.026   8.027   5.017  0.2535  0.0580  0.2594
23839SOL    HW183576   5.066   8.074   5.096 -0.3468 -0.7937  1.0811
23839SOL    HW283577   5.097   7.972   4.972  0.9057  1.5644 -0.5834
23840SOL     OW83578   6.113   7.612   3.779  0.0212  0.0246 -0.0636
23840SOL    HW183579   6.137   7.531   3.726 -0.7000 -0.4119  0.2633
23840SOL    HW283580   6.031   7.593   3.832 -0.5811  1.2092 -0.5470
23841SOL     OW83581   6.685   4.568   8.011 -0.2072  0.2593  0.1096
23841SOL    HW183582   6.644   4.657   8.031 -0.2936  0.0788  0.7627
23841SOL    HW283583   6.785   4.575   8.019 -0.2016  0.3507 -0.0472
23842SOL     OW83584   1.063   9.280   3.766  0.0316 -0.1580 -0.0939
23842SOL    HW183585   1.036   9.219   3.692  1.3568 -0.4972 -0.2994
23842SOL    HW283586   1.042   9.375   3.740  0.4366 -0.2827 -0.8699
23843SOL     OW83587   3.444   3.493   9.492 -0.0443  0.2182  0.1800
23843SOL    HW183588   3.536   3.517   9.524  0.5658 -0.8894 -0.7034
23843SOL    HW283589   3.397   3.442   9.564 -0.1859  1.2914  0.8549
23844SOL     OW83590   9.782   6.077   4.581  0.0454 -0.6811 -0.0153
23844SOL    HW183591   9.740   5.998   4.626 -1.1062 -0.2887 -0.4093
23844SOL    HW283592   9.742   6.161   4.616 -0.7505 -0.3647 -1.6618
23845SOL     OW83593   7.223   8.591   7.594 -0.1703  0.0911 -0.0103
23845SOL    HW183594   7.257   8.675   7.552  0.2168  0.9062  1.8782
23845SOL    HW283595   7.300   8.535   7.624 -0.4508  0.4937  1.4888
23846SOL     OW83596   8.957   0.631   0.237 -0.5676 -0.4589 -0.1615
23846SOL    HW183597   9.024   0.558   0.221  0.6118  0.6384 -0.2857
23846SOL    HW283598   9.004   0.719   0.243 -1.9937  0.3152 -0.1156
23847SOL     OW83599   8.476   5.313   3.884 -0.0929  0.4338 -0.2275
23847SOL    HW183600   8.472   5.411   3.865  0.4209  0.4178 -0.4109
23847SOL    HW283601   8.535   5.269   3.818 -1.2948 -0.1912 -0.9098
23848SOL     OW83602   0.962   6.138   1.274 -0.2249 -0.3827 -0.1713
23848SOL    HW183603   0.931   6.167   1.184 -1.2949 -1.7599 -0.2596
23848SOL    HW283604   1.033   6.201   1.307 -0.6578  0.7963 -1.4560
23849SOL     OW83605   2.747   9.286   3.576  0.5166  0.4096 -0.5350
23849SOL    HW183606   2.832   9.332   3.601  0.5868 -0.2747  0.5084
23849SOL    HW283607   2.669   9.337   3.613  0.6376 -0.8374  1.5467
23850SOL     OW83608   2.723   1.160   4.159  0.2598  0.0124 -0.2513
23850SOL    HW183609   2.671   1.218   4.221 -1.5623  0.3982 -2.0933
23850SOL    HW283610   2.768   1.216   4.090  1.8181 -0.4600  0.3581
23851SOL     OW83611   4.529   7.026   2.492 -0.0353  0.1246  0.6843
23851SOL    HW183612   4.559   7.081   2.414  0.5587  2.1112  2.2686
23851SOL    HW283613   4.600   7.025   2.562 -1.2646 -0.1377  1.9637
23852SOL     OW83614   9.190   8.178   1.581 -0.3862  0.1710  0.1114
23852SOL    HW183615   9.252   8.254   1.601 -0.4848  0.7278 -1.6372
23852SOL    HW283616   9.235   8.113   1.519 -0.7886 -0.4983  0.5128
23853SOL     OW83617   7.037   2.560   9.682  0.1519 -0.6664  0.0328
23853SOL    HW183618   7.094   2.585   9.760  1.1989 -0.2088 -0.8726
23853SOL    HW283619   7.093   2.554   9.600 -0.9333 -1.2161 -0.6798
23854SOL     OW83620   9.854   1.278   6.215 -0.0145 -0.2030  0.2781
23854SOL    HW183621   9.841   1.359   6.157 -1.3046 -1.0014 -0.5649
23854SOL    HW283622   9.825   1.300   6.308 -2.8809 -0.4466 -0.4993
23855SOL     OW83623   6.898   5.613   9.241  0.3398  0.0119  0.7255
23855SOL    HW183624   6.970   5.678   9.269 -0.0630  1.5245 -1.5901
23855SOL    HW283625   6.929   5.520   9.258  2.4478  0.6833  0.7564
23856SOL     OW83626   7.664   0.927   9.348 -0.1765  0.2416  0.4019
23856SOL    HW183627   7.599   1.000   9.329  0.5898  0.2038 -2.6186
23856SOL    HW283628   7.615   0.845   9.378 -1.2120  1.3380  1.7120
23857SOL     OW83629   3.320   4.087   3.614  0.0582  0.0968  0.1395
23857SOL    HW183630   3.256   4.018   3.650 -0.6649  0.7835  0.1789
23857SOL    HW283631   3.327   4.162   3.680  2.2518 -0.7712  0.9637
23858SOL     OW83632   6.041   9.994   3.157 -0.1494 -0.0544  0.2732
23858SOL    HW183633   6.045   9.900   3.190  0.6985  0.4938  1.8211
23858SOL    HW283634   6.127  10.041   3.178  0.1465  0.5315 -2.1805
23859SOL     OW83635   1.366   1.167   4.116 -0.3009  0.0719  0.2965
23859SOL    HW183636   1.435   1.097   4.133 -1.1273 -0.8143  0.0639
23859SOL    HW283637   1.402   1.236   4.052  0.7354  0.2121  1.0201
23860SOL     OW83638   9.466   7.015   5.864  0.3815 -0.3717 -0.0699
23860SOL    HW183639   9.411   7.039   5.785  1.2684  1.5015 -0.1351
23860SOL    HW283640   9.434   7.065   5.944 -1.3619 -3.2246  1.1140
23861SOL     OW83641   8.500   1.997   1.685 -0.5708  0.2351  0.0144
23861SOL    HW183642   8.422   2.041   1.641 -1.6236  0.3469  1.9498
23861SOL    HW283643   8.501   1.900   1.661 -1.8687  0.0324  0.7449
23862SOL     OW83644   1.796   5.030   0.132 -0.1394  0.0739  0.1397
23862SOL    HW183645   1.697   5.015   0.133 -0.1076 -0.2810 -0.8624
23862SOL    HW283646   1.815   5.127   0.113 -0.2852 -0.3844 -2.4890
23863SOL     OW83647   4.909   7.007   7.098  0.0400 -0.1969 -0.0795
23863SOL    HW183648   4.841   7.048   7.037 -0.6786 -0.4703  0.5321
23863SOL    HW283649   4.908   6.907   7.087  0.0188 -0.2345  0.2672
23864SOL     OW83650   8.801   2.762   7.155 -0.3321 -0.4444  0.4269
23864SOL    HW183651   8.782   2.818   7.236  0.1458 -0.2842  0.4305
23864SOL    HW283652   8.810   2.822   7.075  0.9490 -0.4522  0.5670
23865SOL     OW83653   9.455   9.397   3.697 -0.0737  0.0313  0.5123
23865SOL    HW183654   9.395   9.476   3.696  1.3273  1.1839  2.6760
23865SOL    HW283655   9.403   9.315   3.672 -2.0523  1.2756  0.4289
23866SOL     OW83656   7.698   6.187   4.145 -0.1070  0.2044 -1.0345
23866SOL    HW183657   7.729   6.233   4.228  0.7185 -1.1232 -0.6012
23866SOL    HW283658   7.675   6.256   4.075 -1.9027  1.3726  0.6506
23867SOL     OW83659   2.298   2.936   2.110  0.1334  0.0645 -0.2121
23867SOL    HW183660   2.224   2.999   2.135  0.0289 -0.2844  0.3550
23867SOL    HW283661   2.373   2.988   2.069  0.1409  0.5884  0.4567
23868SOL     OW83662   9.885   0.296   5.019  0.8820 -0.7345  0.7152
23868SOL    HW183663   9.832   0.344   4.948  2.6263 -0.9969 -0.8042
23868SOL    HW283664   9.880   0.347   5.105  1.1912  1.2016 -0.3821
23869SOL     OW83665   7.550   9.161   7.997  0.4633 -0.6799  0.3061
23869SOL    HW183666   7.539   9.079   7.940  0.5379  0.6718 -1.7126
23869SOL    HW283667   7.499   9.237   7.956  0.7185  0.3943  1.9377
23870SOL     OW83668   3.599   8.026   0.335  0.0439  0.0396 -0.7554
23870SOL    HW183669   3.674   7.966   0.305  0.1037 -0.1860 -0.1626
23870SOL    HW283670   3.614   8.053   0.430  0.6878  2.0578 -1.4127
23871SOL     OW83671   6.833   9.515   6.041  0.1956 -0.5778 -0.1194
23871SOL    HW183672   6.843   9.450   6.117 -0.6415  0.8643  1.2532
23871SOL    HW283673   6.922   9.554   6.019  0.3736 -0.6897  0.3949
23872SOL     OW83674   2.411   2.470   8.806  0.0146  0.1542 -0.4746
23872SOL    HW183675   2.359   2.503   8.885 -0.5261 -4.2829  1.2015
23872SOL    HW283676   2.349   2.421   8.745  1.3212 -0.7287 -1.1008
23873SOL     OW83677   3.981   7.603   0.996  0.0261  0.4201  0.1547
23873SOL    HW183678   3.932   7.653   1.068  0.9944  2.5567 -0.6259
23873SOL    HW283679   4.054   7.548   1.038 -1.3102 -0.6942  1.0658
23874SOL     OW83680   4.355   9.108   2.040  0.1907 -0.1067  0.3119
23874SOL    HW183681   4.387   9.137   1.949 -0.8599 -0.7266 -0.2670
23874SOL    HW283682   4.374   9.010   2.052 -2.6492 -0.8048 -0.5798
23875SOL     OW83683   5.485   4.859   0.091  0.1544 -0.3112  0.5575
23875SOL    HW183684   5.494   4.824   0.184  0.2136  2.4417  1.6545
23875SOL    HW283685   5.571   4.844   0.041  0.7332 -0.2470  1.5230
23876SOL     OW83686   6.865   2.684   4.985  0.0514 -0.7525  0.0955
23876SOL    HW183687   6.923   2.719   5.058 -0.3112 -1.3747  0.6917
23876SOL    HW283688   6.865   2.748   4.908  0.1472  0.0768  0.7825
23877SOL     OW83689   0.609   1.244   9.559 -0.6732  0.6485  0.3812
23877SOL    HW183690   0.645   1.210   9.472  1.0833  2.1930  0.4590
23877SOL    HW283691   0.656   1.198   9.635 -2.1318 -0.6260  0.5369
23878SOL     OW83692   9.438   0.228   0.291 -0.1905  0.5024  0.1933
23878SOL    HW183693   9.359   0.172   0.266 -0.1396  0.6733 -0.3471
23878SOL    HW283694   9.426   0.321   0.255 -1.1896  1.3930  2.7283
23879SOL     OW83695   7.248   8.313   4.819 -0.4582  0.0815  0.4591
23879SOL    HW183696   7.158   8.284   4.851  1.0683 -3.9525  1.4485
23879SOL    HW283697   7.297   8.359   4.893 -0.7099 -0.1614  0.7780
23880SOL     OW83698   9.961   4.280   5.246  0.7072  0.6338 -0.3627
23880SOL    HW183699   9.966   4.230   5.333  1.5013  0.3050 -0.6016
23880SOL    HW283700  10.015   4.364   5.253  0.1644  0.9811 -0.2922
23881SOL     OW83701   2.741   5.203   7.614 -0.0825  0.1136  0.3321
23881SOL    HW183702   2.822   5.245   7.655 -0.5536  2.9772 -1.5148
23881SOL    HW283703   2.765   5.168   7.523 -0.3337 -1.3621  0.8131
23882SOL     OW83704   2.097   3.932   7.363  0.5616 -0.2241  0.2788
23882SOL    HW183705   2.066   4.020   7.398 -1.4081 -0.7189 -0.1863
23882SOL    HW283706   2.053   3.858   7.414  1.5912 -0.9594  0.1364
23883SOL     OW83707   7.062   1.394   6.550  0.0178  0.5378  0.6191
23883SOL    HW183708   7.119   1.428   6.625  0.5157  1.1101 -0.0110
23883SOL    HW283709   7.114   1.329   6.495 -0.3378  0.1379  0.7562
23884SOL     OW83710   1.391   5.086   4.067  0.1159  0.4936  0.4642
23884SOL    HW183711   1.442   5.171   4.053  1.0863 -0.5293 -2.6142
23884SOL    HW283712   1.322   5.077   3.995 -0.7668 -0.7737  1.4462
23885SOL     OW83713   7.862   6.775   0.398  0.1514  0.1535 -0.5682
23885SOL    HW183714   7.790   6.711   0.425  0.1462 -0.2761 -1.6076
23885SOL    HW283715   7.917   6.735   0.325  1.5802  0.3926  0.3411
23886SOL     OW83716   3.157   5.293   2.820  0.3538  0.2701 -0.4166
23886SOL    HW183717   3.156   5.206   2.771 -1.0944  0.6343 -1.0784
23886SOL    HW283718   3.242   5.302   2.871  0.7248 -1.3140 -0.7346
23887SOL     OW83719   5.085   9.588   5.673  0.0431 -0.6647  0.2208
23887SOL    HW183720   5.113   9.683   5.680 -0.7810 -0.4876  1.1056
23887SOL    HW283721   5.016   9.578   5.602 -0.5401 -0.4526  0.7598
23888SOL     OW83722   1.390   1.351   9.731  0.0623 -0.4078 -0.1953
23888SOL    HW183723   1.450   1.303   9.667  1.1975 -0.5780  0.9859
23888SOL    HW283724   1.437   1.363   9.818 -0.2670  2.7260 -0.4222
23889SOL     OW83725   7.702   1.947   0.339 -0.4643  0.0239 -0.3598
23889SOL    HW183726   7.648   1.865   0.319 -2.0943  1.2803 -1.2595
23889SOL    HW283727   7.722   1.996   0.253 -0.3007  1.0535  0.2502
23890SOL     OW83728   1.204   9.904   2.280  0.6744  0.0018  0.3426
23890SOL    HW183729   1.232   9.808   2.272 -1.7341 -0.5196 -2.8652
23890SOL    HW283730   1.282   9.963   2.264  1.2123 -1.4297 -2.6930
23891SOL     OW83731   8.828   0.830   3.193 -0.3831 -0.3302  0.0640
23891SOL    HW183732   8.821   0.887   3.111  0.5613 -1.3170 -0.7258
23891SOL    HW283733   8.916   0.848   3.238 -0.4257 -0.5867  0.2490
23892SOL     OW83734   5.268   8.900   7.770 -0.1096 -0.3578  0.3962
23892SOL    HW183735   5.298   8.829   7.706 -0.2903 -0.3649  0.3170
23892SOL    HW283736   5.253   8.860   7.860  1.9415 -0.0059  0.9252
23893SOL     OW83737   8.824   5.941   9.619  0.4776 -0.1070 -0.1615
23893SOL    HW183738   8.826   6.001   9.539  0.8095 -0.9274 -0.7750
23893SOL    HW283739   8.739   5.957   9.670 -0.0892 -0.0978 -1.0840
23894SOL     OW83740   3.506   1.920   6.993  0.2585 -0.1862  0.0728
23894SOL    HW183741   3.586   1.901   6.935  0.1557 -2.4066  0.6319
23894SOL    HW283742   3.458   1.835   7.013 -1.1929  0.8946  1.2921
23895SOL     OW83743   2.993   1.515   9.115  0.0030 -0.1805 -0.4114
23895SOL    HW183744   3.019   1.595   9.170 -0.0943  0.4243 -1.2410
23895SOL    HW283745   3.011   1.432   9.168 -1.4100  0.4349  1.1025
23896SOL     OW83746   4.905   7.831   7.702 -0.6847  0.1831 -0.5716
23896SOL    HW183747   4.815   7.789   7.697 -0.6384 -0.1337  0.8574
23896SOL    HW283748   4.910   7.888   7.784  1.1127 -1.5581  0.5884
23897SOL     OW83749   7.628   4.671   1.301 -0.7974  0.5263  0.1352
23897SOL    HW183750   7.655   4.634   1.390 -0.7529  0.0468 -0.0746
23897SOL    HW283751   7.710   4.700   1.252 -0.5878 -1.4049 -0.7110
23898SOL     OW83752   7.940   0.106   5.640 -0.0962 -0.0320 -0.0003
23898SOL    HW183753   8.033   0.084   5.609  0.6846  1.4359  1.2580
23898SOL    HW283754   7.899   0.171   5.577  0.1082  0.1080  0.0117
23899SOL     OW83755   4.276   9.763   9.210 -0.2649 -0.1721  0.3331
23899SOL    HW183756   4.346   9.704   9.250  1.2898  2.7175  2.0626
23899SOL    HW283757   4.304   9.791   9.118  0.3075  0.0065  0.5571
23900SOL     OW83758   2.966   4.919   7.421 -0.5814  0.5206 -0.0733
23900SOL    HW183759   2.921   4.992   7.370 -2.0157 -1.0050 -1.1011
23900SOL    HW283760   3.040   4.880   7.366 -1.6107 -0.5957 -0.7070
23901SOL     OW83761   5.699   2.716   8.743  0.6024 -0.0677 -0.4225
23901SOL    HW183762   5.698   2.759   8.653  2.1375 -0.4990 -0.6533
23901SOL    HW283763   5.645   2.632   8.740 -1.6169  1.3156 -0.2154
23902SOL     OW83764   2.456   7.300   8.542  0.1825  0.6296 -0.0611
23902SOL    HW183765   2.518   7.366   8.586  0.1939  0.9935 -0.6174
23902SOL    HW283766   2.447   7.219   8.600  1.9969  0.1252 -0.4269
23903SOL     OW83767   1.366   4.536   9.673 -0.2791  0.0038 -0.0611
23903SOL    HW183768   1.371   4.443   9.707 -1.8734  0.0328  0.2801
23903SOL    HW283769   1.276   4.574   9.692  0.3744  1.6444 -0.1307
23904SOL     OW83770   5.456   4.204   9.526  0.2568  0.0474 -0.1526
23904SOL    HW183771   5.401   4.129   9.563 -1.0920  2.2939  2.5720
23904SOL    HW283772   5.402   4.289   9.528  2.3231  1.4447 -1.5972
23905SOL     OW83773   9.284   0.974   8.992  0.4619  0.0914 -0.1610
23905SOL    HW183774   9.233   0.985   8.907 -0.3155 -1.4626  0.0721
23905SOL    HW283775   9.282   1.059   9.044  0.3711  0.8490 -1.3770
23906SOL     OW83776   1.483   8.541   2.654  0.5936  0.6745 -0.2863
23906SOL    HW183777   1.411   8.602   2.689  1.1233  0.6137  0.9552
23906SOL    HW283778   1.513   8.480   2.728  0.6254 -0.5544 -1.3017
23907SOL     OW83779   0.559   4.492   9.139  0.3105  0.0267 -0.2106
23907SOL    HW183780   0.592   4.414   9.191  1.7100  1.3113  0.8844
23907SOL    HW283781   0.637   4.541   9.100 -0.6558 -0.3274 -2.7079
23908SOL     OW83782   1.939   9.471   7.749 -0.1417 -0.2821  0.0773
23908SOL    HW183783   2.020   9.482   7.807 -0.2975 -0.1401  0.2644
23908SOL    HW283784   1.930   9.375   7.722 -0.1997 -0.3855  0.4720
23909SOL     OW83785   3.870   7.341   7.555  0.1588 -0.3222  0.8046
23909SOL    HW183786   3.928   7.319   7.477  1.8679  0.4357  1.8262
23909SOL    HW283787   3.799   7.271   7.565  0.0704 -0.5483 -1.2578
23910SOL     OW83788   0.503   5.965   4.000  0.5347  0.7815 -0.5067
23910SOL    HW183789   0.571   5.994   3.933  1.0232 -0.6714 -0.6633
23910SOL    HW283790   0.418   5.940   3.953  1.5115 -2.1402 -0.8353
23911SOL     OW83791   1.124   2.358   8.863  0.0117 -0.0959 -0.2494
23911SOL    HW183792   1.184   2.379   8.940 -0.3600  0.0005  0.0079
23911SOL    HW283793   1.134   2.261   8.840 -1.0484 -0.4856  0.9194
23912SOL     OW83794   4.714   3.213   9.808 -0.0510 -0.7390 -0.0232
23912SOL    HW183795   4.623   3.205   9.849  0.0708 -0.1348  0.3739
23912SOL    HW283796   4.724   3.304   9.768  1.0045 -0.1665  1.4675
23913SOL     OW83797   3.069   6.282   2.821  0.3423  0.4643 -0.3184
23913SOL    HW183798   3.121   6.211   2.775 -0.2085  1.2279 -2.1844
23913SOL    HW283799   3.110   6.372   2.802 -0.5097  0.8895 -0.1879
23914SOL     OW83800   7.081   6.716   0.953  0.0575 -0.3820  0.2359
23914SOL    HW183801   6.999   6.773   0.948  0.3779  0.0393 -0.1710
23914SOL    HW283802   7.054   6.619   0.956 -0.4530 -0.2461  0.0786
23915SOL     OW83803   7.987   8.127   3.459 -0.1193  0.1713 -0.0907
23915SOL    HW183804   8.018   8.093   3.370 -0.7415 -0.0228 -0.2373
23915SOL    HW283805   8.066   8.137   3.520  0.5502  1.9509 -1.1963
23916SOL     OW83806   5.111   9.340   9.068 -0.0162 -0.0419 -0.2778
23916SOL    HW183807   5.113   9.275   8.992 -0.7358 -1.2641  0.7348
23916SOL    HW283808   5.016   9.360   9.093  0.2168 -0.2133  0.7739
23917SOL     OW83809   5.606   9.322   2.322 -0.2637  0.3912 -0.8298
23917SOL    HW183810   5.529   9.270   2.359  0.5585 -1.2266 -1.3586
23917SOL    HW283811   5.571   9.400   2.269 -1.4635  1.7319  1.8389
23918SOL     OW83812   9.007   6.462   7.647 -0.0217  0.4218 -0.4721
23918SOL    HW183813   9.075   6.534   7.660 -0.1865  0.5006 -0.0464
23918SOL    HW283814   9.049   6.386   7.598  0.9486 -0.3747  1.5420
23919SOL     OW83815   3.310   0.339   0.601 -0.1725  0.1740  0.6377
23919SOL    HW183816   3.396   0.386   0.621  0.0771 -0.9869  2.4364
23919SOL    HW283817   3.320   0.241   0.620 -1.2311 -0.3390 -1.3035
23920SOL     OW83818   8.366   0.296   1.077 -0.1083 -0.1922 -0.2548
23920SOL    HW183819   8.366   0.286   0.978 -2.2456  0.6686 -0.3594
23920SOL    HW283820   8.288   0.249   1.117  0.7861 -0.6243  1.0508
23921SOL     OW83821   1.959   3.701   7.488  0.0200  0.7246  0.3892
23921SOL    HW183822   1.966   3.613   7.442 -0.7805  1.4256 -1.1025
23921SOL    HW283823   1.878   3.702   7.547 -0.2273  0.6338  0.0464
23922SOL     OW83824   2.528   0.125   0.358 -0.3942 -0.2375 -0.2246
23922SOL    HW183825   2.622   0.093   0.364  1.2282  3.6339 -2.9724
23922SOL    HW283826   2.512   0.196   0.427 -1.5104 -1.2354  0.5750
23923SOL     OW83827   0.116   3.222   3.229 -0.2424 -0.7639  0.4455
23923SOL    HW183828   0.205   3.265   3.217 -1.1461  0.2753 -2.9697
23923SOL    HW283829   0.126   3.123   3.232  0.9788 -0.6688 -0.2965
23924SOL     OW83830   6.373   5.671   1.253  0.2276  0.1835  0.2692
23924SOL    HW183831   6.274   5.669   1.266  0.3782  0.1600  1.4724
23924SOL    HW283832   6.414   5.596   1.304  0.8990  0.3957  0.0434
23925SOL     OW83833   0.914   6.378   6.281  0.5394  0.1586 -0.1521
23925SOL    HW183834   0.999   6.354   6.233 -1.5353  0.8742 -4.4571
23925SOL    HW283835   0.875   6.296   6.323  1.9243 -0.7318 -0.5832
23926SOL     OW83836   5.307   9.844   5.855 -0.6205 -0.5473  0.0818
23926SOL    HW183837   5.311   9.840   5.755  0.1941 -1.8066  0.1507
23926SOL    HW283838   5.214   9.866   5.883 -0.7257  0.3818 -0.9688
23927SOL     OW83839   1.577   7.133   6.665  0.0295 -0.0417 -0.1674
23927SOL    HW183840   1.568   7.033   6.668 -1.0685  0.0821  1.0951
23927SOL    HW283841   1.502   7.172   6.613  0.6477  0.1117 -0.9551
23928SOL     OW83842   1.157   8.907   8.035 -0.0417  0.0512  0.4114
23928SOL    HW183843   1.088   8.931   8.104  1.9110  3.2461  1.3545
23928SOL    HW283844   1.152   8.972   7.959  0.7398 -0.8313 -0.4099
23929SOL     OW83845   1.277   9.725   8.446  0.4682  0.2534  0.0690
23929SOL    HW183846   1.345   9.654   8.465  0.3858  0.1411 -0.0570
23929SOL    HW283847   1.294   9.804   8.505  1.0608  0.4491 -0.3697
23930SOL     OW83848   8.108   0.774   0.082  0.5178  0.1682 -0.0653
23930SOL    HW183849   8.085   0.686   0.125  2.1768 -0.7250 -0.9311
23930SOL    HW283850   8.181   0.818   0.134 -0.9072  1.4820  0.8693
23931SOL     OW83851   3.004   2.261   1.985 -0.3256  0.0164  0.3178
23931SOL    HW183852   2.964   2.174   1.956 -3.0080  1.0712  0.7331
23931SOL    HW283853   3.075   2.244   2.053  0.9975 -1.9875 -1.5052
23932SOL     OW83854   5.029   2.749   5.127 -0.6468 -0.6603 -0.2733
23932SOL    HW183855   5.071   2.839   5.114  0.6989 -1.3899 -1.0774
23932SOL    HW283856   4.965   2.732   5.052 -0.1536 -0.7828 -0.6719
23933SOL     OW83857   2.173   4.154   5.709 -0.4020  0.0506  0.1535
23933SOL    HW183858   2.248   4.158   5.775 -0.5001 -0.9854  0.3392
23933SOL    HW283859   2.087   4.138   5.756 -0.7163  1.0175 -0.0817
23934SOL     OW83860   0.838   6.288   9.501  0.0038 -0.7587 -0.6886
23934SOL    HW183861   0.882   6.206   9.464 -0.1424 -1.5792  0.8838
23934SOL    HW283862   0.767   6.261   9.567 -1.0344  0.6102 -1.2209
23935SOL     OW83863   2.887   4.118   8.311 -0.4117 -0.0595 -0.0423
23935SOL    HW183864   2.959   4.056   8.342 -0.0205  0.4965  0.1580
23935SOL    HW283865   2.851   4.085   8.223  0.4257 -0.0599 -0.3839
23936SOL     OW83866   0.935   7.760   7.653 -0.1245  0.2348 -0.1634
23936SOL    HW183867   0.835   7.762   7.654 -0.1329 -0.0173 -0.5366
23936SOL    HW283868   0.969   7.796   7.740 -0.5784 -2.2018  1.0599
23937SOL     OW83869   3.406   6.087   7.550 -0.6900  0.5939 -0.1596
23937SOL    HW183870   3.443   5.997   7.573 -0.5997  0.5154 -0.6144
23937SOL    HW283871   3.430   6.152   7.622  0.0424  0.4713 -0.2923
23938SOL     OW83872   2.032   2.084   7.728 -0.0101  0.1194 -0.2056
23938SOL    HW183873   1.948   2.122   7.690  0.5030  0.8302 -0.6366
23938SOL    HW283874   2.023   1.985   7.734 -0.7216  0.1480 -0.6438
23939SOL     OW83875   3.018   6.222   2.344  0.2139 -0.3446 -0.8239
23939SOL    HW183876   2.928   6.230   2.388 -0.6420 -1.6154 -2.2924
23939SOL    HW283877   3.034   6.301   2.286  1.8432  1.9266  2.5367
23940SOL     OW83878   6.996   1.093   8.277 -0.2262 -0.2635 -0.4680
23940SOL    HW183879   6.911   1.042   8.294  0.6974 -2.1809 -1.4321
23940SOL    HW283880   7.041   1.113   8.363 -0.5733 -1.1468 -0.0755
23941SOL     OW83881   2.078   7.411   9.559  0.4930  0.2691  0.2095
23941SOL    HW183882   1.998   7.472   9.559  1.2411  1.2589  0.9410
23941SOL    HW283883   2.058   7.331   9.614  0.0036  0.5137  0.3957
23942SOL     OW83884   2.947   1.147   0.225 -0.3924  0.4485 -0.3715
23942SOL    HW183885   2.974   1.123   0.132 -0.6911  0.3546 -0.4329
23942SOL    HW283886   2.886   1.077   0.262  0.3229  0.1054  0.1668
23943SOL     OW83887   3.722   7.505   4.359  0.1253  0.0896  0.0970
23943SOL    HW183888   3.797   7.466   4.412  0.6784  0.1911 -0.5974
23943SOL    HW283889   3.727   7.605   4.361  0.4543  0.0912 -0.5598
23944SOL     OW83890   8.617   4.025   2.208 -0.3547  0.0081 -0.1167
23944SOL    HW183891   8.542   4.091   2.204 -0.0465  0.3879  0.2517
23944SOL    HW283892   8.605   3.965   2.287 -0.3511 -0.0284 -0.1439
23945SOL     OW83893   2.476   4.333   6.669  0.0204  0.0253  0.6129
23945SOL    HW183894   2.510   4.304   6.580 -0.1427 -0.0404  0.5734
23945SOL    HW283895   2.554   4.358   6.727  0.0234  2.2960 -0.3245
23946SOL     OW83896   3.931   3.194   4.020  0.0081  0.7379  0.4257
23946SOL    HW183897   4.028   3.191   3.995 -0.1666 -1.2642 -0.1026
23946SOL    HW283898   3.921   3.183   4.119  0.2148 -1.7408  0.1941
23947SOL     OW83899   1.741   4.997   1.800 -0.2263 -0.0085  0.2119
23947SOL    HW183900   1.650   5.020   1.764 -0.2123  0.2275  0.3279
23947SOL    HW283901   1.811   5.027   1.736 -0.2735 -1.3446 -0.4979
23948SOL     OW83902   2.333   0.592   4.866 -0.2305 -0.0339  0.1167
23948SOL    HW183903   2.290   0.591   4.956 -0.5489  0.5900 -0.0287
23948SOL    HW283904   2.297   0.667   4.812 -1.5131 -1.5989 -1.2585
23949SOL     OW83905   9.774   6.164   0.297  0.2865  0.6290 -0.0731
23949SOL    HW183906   9.680   6.170   0.263  1.2691 -0.3186 -3.0649
23949SOL    HW283907   9.796   6.247   0.349 -1.9451  1.1703  0.0560
23950SOL     OW83908   2.656   4.934   2.556 -0.2620  0.0947  0.0734
23950SOL    HW183909   2.565   4.976   2.555 -0.7377 -0.8837  0.8654
23950SOL    HW283910   2.663   4.872   2.634  1.1871  0.3607  0.1781
23951SOL     OW83911   8.485   5.873   8.699 -0.1691 -0.5857  0.3327
23951SOL    HW183912   8.501   5.968   8.726  1.6814 -0.6388 -0.5182
23951SOL    HW283913   8.424   5.871   8.620  0.0770 -0.0896  0.1271
23952SOL     OW83914   4.796   1.468   4.981 -0.4229  0.1431 -0.0179
23952SOL    HW183915   4.872   1.533   4.984  0.1226 -0.4663 -0.6678
23952SOL    HW283916   4.772   1.448   4.886 -1.1471  0.0382  0.1812
23953SOL     OW83917   8.294   2.872   8.520  0.0368  0.2591 -0.2305
23953SOL    HW183918   8.322   2.967   8.531 -0.5093  0.3965 -0.0075
23953SOL    HW283919   8.319   2.839   8.429 -1.0970  1.0630 -0.8440
23954SOL     OW83920   4.645   0.983   1.521 -0.0599 -0.0876 -0.6817
23954SOL    HW183921   4.738   0.983   1.559 -0.6318 -1.4703  0.7852
23954SOL    HW283922   4.624   1.074   1.484  0.6894  1.2522  2.0203
23955SOL     OW83923   0.769   8.814   8.359  0.3979 -0.4569 -0.4449
23955SOL    HW183924   0.746   8.867   8.441  0.7694 -0.0202 -0.6186
23955SOL    HW283925   0.769   8.716   8.382  4.3209 -0.2078  1.1170
23956SOL     OW83926   3.096   4.575   0.638 -0.3348 -0.4702 -0.1329
23956SOL    HW183927   3.166   4.504   0.635 -0.2726 -0.4243  0.1612
23956SOL    HW283928   3.110   4.639   0.562  0.4062 -0.0292  0.3611
23957SOL     OW83929   0.952   0.083   3.565  0.3391  0.1178 -0.3133
23957SOL    HW183930   0.907   0.122   3.484  0.7766  0.7555 -0.2528
23957SOL    HW283931   0.886   0.028   3.616 -0.3287  0.8612 -0.3492
23958SOL     OW83932   4.625   2.027   9.901 -0.6936 -0.5608 -0.0279
23958SOL    HW183933   4.591   1.958   9.965 -0.1087 -0.6563  0.1871
23958SOL    HW283934   4.552   2.091   9.878 -0.8994 -0.5061  0.7658
23959SOL     OW83935   5.131   2.903   8.307  0.0232  0.8211 -0.4143
23959SOL    HW183936   5.177   2.816   8.326 -2.8716 -0.4335  1.1990
23959SOL    HW283937   5.146   2.966   8.383  0.1097  0.8877 -0.4846
23960SOL     OW83938   4.335   4.815   6.364 -0.2760  0.3600  0.7389
23960SOL    HW183939   4.426   4.784   6.337 -0.6267  0.5004 -0.6411
23960SOL    HW283940   4.312   4.779   6.454  0.9995  0.0316  0.9296
23961SOL     OW83941   0.128   5.233   0.836 -0.2033  0.7378  0.0868
23961SOL    HW183942   0.128   5.313   0.776  0.7070  0.8691  0.2505
23961SOL    HW283943   0.114   5.263   0.931 -1.1058  0.5805  0.0106
23962SOL     OW83944   0.418   6.689   8.139  0.6208 -0.0567  0.0254
23962SOL    HW183945   0.433   6.784   8.169  2.0805  0.4300 -2.1166
23962SOL    HW283946   0.356   6.689   8.061  0.8813 -0.8439 -0.1765
23963SOL     OW83947   8.489   2.671   3.781  0.5814 -0.3089 -0.1574
23963SOL    HW183948   8.392   2.695   3.770  0.6172 -0.6193 -1.1501
23963SOL    HW283949   8.537   2.747   3.825  0.0760  0.2213 -0.5126
23964SOL     OW83950   3.971   4.408   6.563 -0.3136 -0.7161 -0.5268
23964SOL    HW183951   3.953   4.490   6.508 -0.8085 -0.5001 -0.0471
23964SOL    HW283952   3.994   4.435   6.657 -0.4677 -1.1234 -0.3713
23965SOL     OW83953   1.275   3.517   4.889  0.1747  0.0135  0.0658
23965SOL    HW183954   1.372   3.514   4.914  0.3840 -1.5165 -0.8524
23965SOL    HW283955   1.252   3.608   4.856  1.1225  0.5955  0.9721
23966SOL     OW83956   3.214   8.282   0.558  0.0614  0.6125 -0.4525
23966SOL    HW183957   3.206   8.304   0.461  0.8127 -0.9077 -0.8673
23966SOL    HW283958   3.287   8.215   0.571 -2.4759 -2.0194  0.7346
23967SOL     OW83959   1.376   6.467   0.442 -0.2841 -0.1936 -0.0613
23967SOL    HW183960   1.425   6.541   0.488 -0.0452  0.7249 -1.7566
23967SOL    HW283961   1.415   6.452   0.351 -2.4770 -0.1259 -1.0612
23968SOL     OW83962   6.661   7.337   6.081 -0.2242  0.2352  0.0406
23968SOL    HW183963   6.661   7.397   6.001  2.7752  1.1533  0.6581
23968SOL    HW283964   6.742   7.356   6.136 -2.0236 -0.6644  3.0956
23969SOL     OW83965   2.469   9.356   0.395  0.8670  0.9734 -0.5480
23969SOL    HW183966   2.506   9.416   0.324 -0.1409 -0.6967 -2.5573
23969SOL    HW283967   2.460   9.263   0.359 -0.3847  0.2362  1.5399
23970SOL     OW83968   9.844   9.155   2.751 -0.3558 -0.4613  0.2249
23970SOL    HW183969   9.759   9.206   2.767  0.5430  1.2541 -0.3346
23970SOL    HW283970   9.859   9.091   2.825 -0.8037  1.0950  1.6943
23971SOL     OW83971   7.627   5.787   0.868  0.5617  0.2563 -0.3440
23971SOL    HW183972   7.600   5.843   0.947 -0.6569 -0.3945 -0.2819
23971SOL    HW283973   7.726   5.791   0.857  0.6269  1.3209  0.4926
23972SOL     OW83974   8.048   0.708   9.429  0.0492 -0.2099  0.2938
23972SOL    HW183975   7.985   0.776   9.465  0.3061  0.4027 -0.4191
23972SOL    HW283976   7.999   0.647   9.366  0.3588  0.7664 -0.8850
23973SOL     OW83977   4.908   5.004   1.726  0.1614  0.2454 -0.5687
23973SOL    HW183978   4.827   4.947   1.711 -1.4320  1.9568  1.2442
23973SOL    HW283979   4.956   5.016   1.640  0.3721 -3.5202 -1.0806
23974SOL     OW83980   1.608   9.527   7.117 -0.4792 -0.1373  0.5137
23974SOL    HW183981   1.620   9.431   7.092 -0.0482 -0.0331  0.3072
23974SOL    HW283982   1.611   9.536   7.216 -0.0925 -0.2846  0.5161
23975SOL     OW83983   7.761   1.792   0.586  0.0625 -0.6898 -0.4752
23975SOL    HW183984   7.726   1.821   0.497  0.4199  1.0916 -0.0459
23975SOL    HW283985   7.716   1.845   0.658  0.5858 -1.3439  0.3422
23976SOL     OW83986   2.883   4.638   4.187  0.1845  0.2053  0.5421
23976SOL    HW183987   2.971   4.618   4.230  0.7651  2.7242  0.6307
23976SOL    HW283988   2.861   4.735   4.201 -2.6539 -0.4075  0.5981
23977SOL     OW83989   3.195   6.628   2.220 -0.0467  0.2270  0.1179
23977SOL    HW183990   3.137   6.549   2.200  0.7277 -0.3103 -0.0076
23977SOL    HW283991   3.266   6.636   2.150 -0.6234  1.5263 -0.3335
23978SOL     OW83992   5.925   4.776   7.485 -0.7159 -0.5150 -0.4773
23978SOL    HW183993   5.828   4.753   7.494 -0.9541  0.4629 -0.4589
23978SOL    HW283994   5.934   4.870   7.452  0.2256 -0.8181 -1.1037
23979SOL     OW83995   4.186   9.878   9.438  0.3220  0.4933  0.4365
23979SOL    HW183996   4.122   9.946   9.403 -1.6633 -1.1598  0.7941
23979SOL    HW283997   4.239   9.840   9.362 -0.7679  0.1791 -0.1683
23980SOL     OW83998   2.750   3.127   8.902  0.1375  0.0277 -0.3903
23980SOL    HW183999   2.751   3.032   8.871  1.3616 -0.1757  0.2382
23980SOL    HW284000   2.829   3.144   8.961 -1.3365  0.8225  1.3938
23981SOL     OW84001   4.000   0.792   0.108 -0.6782 -0.5322  0.3063
23981SOL    HW184002   4.070   0.735   0.065 -0.5967 -0.7943  0.7845
23981SOL    HW284003   3.912   0.745   0.105 -1.0336  0.1692 -1.0917
23982SOL     OW84004   0.792   2.097   6.471 -0.0060 -0.0468  0.2479
23982SOL    HW184005   0.849   2.077   6.550  2.7350 -0.6349 -1.7867
23982SOL    HW284006   0.823   2.182   6.428  0.1368 -0.9561 -1.5391
23983SOL     OW84007   1.214   4.911   8.922  0.5294 -0.2231 -0.1095
23983SOL    HW184008   1.228   4.968   9.002  0.2405  1.6327 -1.3561
23983SOL    HW284009   1.124   4.929   8.882  0.0853 -2.1717 -0.0366
23984SOL     OW84010   3.983   2.141   8.848 -0.5398 -0.0923  0.3171
23984SOL    HW184011   3.888   2.111   8.851 -0.4270 -0.4830  0.0613
23984SOL    HW284012   4.043   2.064   8.872 -0.1780 -0.5030 -1.8145
23985SOL     OW84013   1.458   1.259   6.096  0.2929 -0.0856 -0.0122
23985SOL    HW184014   1.443   1.281   6.193  0.6820 -3.0886  0.7826
23985SOL    HW284015   1.370   1.250   6.050 -0.0070 -2.1036  0.9155
23986SOL     OW84016   2.245   4.870   4.035  0.4957 -0.0159 -0.9666
23986SOL    HW184017   2.178   4.882   4.108  1.3323  0.3936 -0.2448
23986SOL    HW284018   2.219   4.793   3.977 -2.1013  1.8885 -2.4073
23987SOL     OW84019   1.601   3.583   4.218  0.4746 -0.0099  0.4258
23987SOL    HW184020   1.632   3.491   4.197  0.5699 -0.2059  1.4145
23987SOL    HW284021   1.508   3.580   4.255 -0.2435  0.4590 -1.2581
23988SOL     OW84022   3.255   0.919   8.406 -0.8793  0.1064 -0.4903
23988SOL    HW184023   3.181   0.884   8.464 -0.4668  2.0230  1.2593
23988SOL    HW284024   3.255   1.019   8.409  1.8881  0.1433 -0.2881
23989SOL     OW84025   2.085   0.660   8.398 -0.1397  0.0072 -0.3938
23989SOL    HW184026   2.110   0.756   8.382 -0.0901 -0.4866 -3.7184
23989SOL    HW284027   1.987   0.654   8.419 -0.8971  0.5631 -3.4927
23990SOL     OW84028   8.881   4.891   1.772 -0.5538 -0.6917  0.2937
23990SOL    HW184029   8.875   4.989   1.756  1.6595 -0.3322  1.4229
23990SOL    HW284030   8.925   4.847   1.694 -0.6314 -0.6348  0.2179
23991SOL     OW84031   1.544   9.122   7.384  0.3423 -0.0324  0.6228
23991SOL    HW184032   1.467   9.145   7.324  0.6982  1.9726  0.9181
23991SOL    HW284033   1.621   9.090   7.327  0.7885  2.1568 -0.0748
23992SOL     OW84034   8.531   9.695   3.902  0.1011  0.2352  0.0429
23992SOL    HW184035   8.431   9.692   3.896 -0.0126  2.0440  0.6603
23992SOL    HW284036   8.565   9.605   3.929 -1.3628 -0.4101 -0.2092
23993SOL     OW84037   6.578   1.654   6.507 -0.1109  0.4998  0.1045
23993SOL    HW184038   6.664   1.603   6.497  0.1604  0.7818  1.0300
23993SOL    HW284039   6.516   1.605   6.568  0.4496  1.6445  1.6300
23994SOL     OW84040   2.842   5.739   2.369  0.2508 -0.1272  0.4861
23994SOL    HW184041   2.899   5.675   2.317 -0.2775 -0.5581  0.4360
23994SOL    HW284042   2.854   5.831   2.332 -0.5269 -0.5139 -0.7604
23995SOL     OW84043   3.022   7.413   0.084  0.2658 -0.2005  0.5699
23995SOL    HW184044   3.022   7.317   0.111 -0.0580 -0.2157  0.5161
23995SOL    HW284045   2.939   7.433   0.032 -0.0100  0.2833  1.1926
23996SOL     OW84046   4.547   3.619   0.571 -0.4264  0.3692 -0.2130
23996SOL    HW184047   4.464   3.673   0.584 -0.5042  0.2594 -0.2518
23996SOL    HW284048   4.618   3.651   0.635 -0.4762  0.5071 -0.2260
23997SOL     OW84049   2.584   4.217   7.029  0.3498  0.0288  0.2608
23997SOL    HW184050   2.642   4.279   7.083 -0.3098 -0.6502  1.7610
23997SOL    HW284051   2.632   4.192   6.945  0.9502  1.9599 -0.0075
23998SOL     OW84052   9.656   5.086   8.213  0.2438  0.2742  0.1285
23998SOL    HW184053   9.693   5.114   8.302 -0.3206  1.8739 -0.1233
23998SOL    HW284054   9.566   5.045   8.227  0.7817 -0.8282  0.4312
23999SOL     OW84055   5.983   1.111   6.529 -0.7434  0.3974  0.2485
23999SOL    HW184056   5.992   1.211   6.528  0.1820  0.3222  0.7244
23999SOL    HW284057   6.007   1.075   6.439  0.7603  0.4522  0.6234
24000SOL     OW84058   0.715   1.540   5.973  0.6979  0.2057 -0.3802
24000SOL    HW184059   0.699   1.444   5.949  3.2536  0.1027 -1.8825
24000SOL    HW284060   0.645   1.597   5.929 -0.6670 -0.9162  0.2763
24001SOL     OW84061   8.735   3.671   1.600 -0.8609 -0.2204  0.2643
24001SOL    HW184062   8.787   3.695   1.519 -2.6028  2.5776 -0.0808
24001SOL    HW284063   8.638   3.659   1.576 -1.2728 -0.0929  1.7888
24002SOL     OW84064   1.350   7.514   0.861 -0.0045  0.2856  0.3673
24002SOL    HW184065   1.374   7.429   0.908 -1.6918 -0.7402 -0.5652
24002SOL    HW284066   1.358   7.591   0.924  1.3899 -0.5849  1.2720
24003SOL     OW84067   0.186   1.743   6.057  0.2487 -0.0602  0.1891
24003SOL    HW184068   0.232   1.778   5.976  0.0793  0.4845  0.3189
24003SOL    HW284069   0.253   1.701   6.118 -0.0906 -3.5350 -1.7555
24004SOL     OW84070   6.613   7.123   8.153  0.0692  0.0273 -0.9181
24004SOL    HW184071   6.656   7.117   8.063 -1.6454 -0.2571 -1.7332
24004SOL    HW284072   6.547   7.198   8.153 -2.4708 -2.1440 -1.0033
24005SOL     OW84073   6.651   9.092   8.421  0.0419  0.3736  0.4683
24005SOL    HW184074   6.694   9.003   8.428 -1.0718 -0.0830  1.8717
24005SOL    HW284075   6.565   9.084   8.371  0.9190  1.0480 -1.1994
24006SOL     OW84076   5.559   7.790   3.487 -0.6733 -0.1288  0.2216
24006SOL    HW184077   5.570   7.883   3.452 -1.3292 -0.3312 -0.5601
24006SOL    HW284078   5.567   7.790   3.587  0.5491  0.5700  0.1231
24007SOL     OW84079   3.432   3.764   6.443 -0.2206  0.1338  0.3311
24007SOL    HW184080   3.397   3.814   6.523 -2.3629 -0.3260 -0.3154
24007SOL    HW284081   3.505   3.702   6.473 -2.8368 -2.0741  2.4549
24008SOL     OW84082   8.964   2.824   0.938 -0.5521  0.4741  0.2976
24008SOL    HW184083   8.988   2.881   0.860  0.2029  0.3176  0.4112
24008SOL    HW284084   8.994   2.867   1.023  0.3739 -0.2615  0.3553
24009SOL     OW84085   2.551   9.919   3.754  0.1773 -0.4481  0.4606
24009SOL    HW184086   2.571   9.828   3.792  0.4325  0.0549  1.5535
24009SOL    HW284087   2.457   9.944   3.776  0.1244 -0.4273  0.2060
24010SOL     OW84088   2.905   2.849   3.268 -0.2788  0.0986 -0.2172
24010SOL    HW184089   2.863   2.938   3.248  0.0624 -0.1116 -1.9125
24010SOL    HW284090   2.840   2.776   3.248 -0.8629 -0.0190  1.9948
24011SOL     OW84091   1.463   0.842   6.984 -0.1991 -0.1394  0.8097
24011SOL    HW184092   1.392   0.794   7.036  0.3078 -0.7336  0.9532
24011SOL    HW284093   1.546   0.849   7.040  0.1120 -0.1465  0.3479
24012SOL     OW84094   8.760   9.041   3.151 -0.5264 -0.2798  0.2632
24012SOL    HW184095   8.678   9.047   3.207  0.7780 -1.6975  2.3786
24012SOL    HW284096   8.766   8.950   3.111  0.5901 -0.5384  1.0168
24013SOL     OW84097   1.920   2.771   8.771  0.1596 -0.3692 -0.3095
24013SOL    HW184098   1.878   2.856   8.804  0.8063  0.0811 -0.6279
24013SOL    HW284099   1.895   2.696   8.831  0.5635  0.2727  0.6871
24014SOL     OW84100   6.420   9.810   7.608  0.4881 -0.6132  0.0837
24014SOL    HW184101   6.350   9.870   7.647 -1.4775 -2.2215 -0.9019
24014SOL    HW284102   6.406   9.717   7.642  1.6729 -1.0980 -0.7557
24015SOL     OW84103   6.418   1.165   8.846 -0.0084 -0.1856  0.3793
24015SOL    HW184104   6.351   1.195   8.913 -0.0318  1.6183 -0.4299
24015SOL    HW284105   6.509   1.161   8.888 -0.1410  0.1962  0.6993
24016SOL     OW84106   4.692   9.181   6.264 -0.2434 -0.2869  0.4874
24016SOL    HW184107   4.682   9.276   6.293  0.9651 -1.1832  4.0598
24016SOL    HW284108   4.789   9.159   6.256 -0.5254 -0.8641 -1.7230
24017SOL     OW84109   2.090   7.998   3.366 -0.6599 -0.1377  0.5530
24017SOL    HW184110   2.128   7.922   3.314  1.1036  0.4230  0.9622
24017SOL    HW284111   2.065   7.967   3.458  1.1684  0.0106  1.1201
24018SOL     OW84112   1.370   2.007   5.277 -0.2083 -0.0432  0.3002
24018SOL    HW184113   1.406   2.059   5.355  1.0738 -0.5788  0.0738
24018SOL    HW284114   1.349   2.070   5.202 -1.0537  0.4292  0.9238
24019SOL     OW84115   0.883   5.545   3.696  0.2152 -0.6013 -0.2166
24019SOL    HW184116   0.955   5.613   3.683 -0.0007 -0.2650  0.3495
24019SOL    HW284117   0.799   5.590   3.727  0.0069 -1.0993 -0.0485
24020SOL     OW84118   9.358   5.975   8.256  0.5381 -0.6139 -0.0524
24020SOL    HW184119   9.356   6.058   8.311  0.2008  0.5827 -1.8119
24020SOL    HW284120   9.359   5.895   8.315 -3.3225  0.5344  1.6992
24021SOL     OW84121   0.128   3.877  10.000 -0.1184  0.4110 -0.5299
24021SOL    HW184122   0.095   3.965   9.966  1.8028  1.2862 -0.1720
24021SOL    HW284123   0.084   3.855  10.087 -1.1290  0.6670 -0.9735
24022SOL     OW84124   3.964   1.458   4.155 -0.0448  0.0300  0.2955
24022SOL    HW184125   3.987   1.442   4.251 -0.1873 -2.4708 -0.0603
24022SOL    HW284126   3.866   1.448   4.141 -0.0700  0.7257 -0.0473
24023SOL     OW84127   5.840   0.848   7.393 -0.2688 -0.4936  0.4450
24023SOL    HW184128   5.790   0.778   7.446 -1.7590 -0.0950 -0.3994
24023SOL    HW284129   5.787   0.933   7.392 -0.2411 -0.4711 -1.6116
24024SOL     OW84130   0.893   4.651   4.518  0.1888 -0.4248 -0.3622
24024SOL    HW184131   0.843   4.702   4.588  1.0429  0.5722 -0.4780
24024SOL    HW284132   0.959   4.711   4.473  0.5854 -1.4053 -1.1098
24025SOL     OW84133   2.773   1.380   4.664 -0.4921 -0.0708  0.3806
24025SOL    HW184134   2.707   1.401   4.591  0.5170 -1.8195 -1.0814
24025SOL    HW284135   2.784   1.460   4.723 -2.2002  0.9968 -0.7093
24026SOL     OW84136   8.901   2.323   0.838  0.1336  0.0360 -0.1483
24026SOL    HW184137   8.939   2.299   0.748 -1.7090 -2.1494 -0.4117
24026SOL    HW284138   8.871   2.239   0.884 -1.5946  1.4082  1.2878
24027SOL     OW84139   2.762   2.863   9.138 -0.0335 -0.7943  0.1327
24027SOL    HW184140   2.830   2.790   9.135 -1.6375 -2.3003 -0.4660
24027SOL    HW284141   2.716   2.870   9.049 -0.1948  0.6679  0.3130
24028SOL     OW84142   4.868   2.021   1.305 -0.3187  0.2637  0.5120
24028SOL    HW184143   4.813   2.069   1.237 -0.3653  0.3171  0.5864
24028SOL    HW284144   4.857   2.066   1.394  0.5384  0.8183  0.3505
24029SOL     OW84145   2.422   4.074   7.197 -0.2299  0.3149  0.2662
24029SOL    HW184146   2.484   4.131   7.142  0.0657  0.7348  1.0328
24029SOL    HW284147   2.409   3.986   7.152  0.8526  0.2593  0.0572
24030SOL     OW84148   6.427   4.538   9.485 -0.0318 -0.6660 -0.2904
24030SOL    HW184149   6.332   4.516   9.507  0.4162 -2.3240  0.0382
24030SOL    HW284150   6.432   4.577   9.393 -1.0354 -0.5265 -0.2864
24031SOL     OW84151   3.127   6.143   8.257 -0.3742 -0.2476 -0.2745
24031SOL    HW184152   3.166   6.233   8.276 -0.9409  0.2183 -1.2653
24031SOL    HW284153   3.188   6.072   8.291  1.1397  0.4753 -1.4573
24032SOL     OW84154   9.560   1.178   5.728 -0.1873  0.4764 -0.3155
24032SOL    HW184155   9.483   1.122   5.697 -0.8230 -0.1882  2.3982
24032SOL    HW284156   9.614   1.127   5.795 -0.2044  2.7528  1.4721
24033SOL     OW84157   9.874   9.043   1.901 -0.2000  0.2429 -0.3712
24033SOL    HW184158   9.856   9.136   1.931 -1.1260  0.2616 -0.9561
24033SOL    HW284159   9.804   8.982   1.938  0.6783 -0.2983  0.4041
24034SOL     OW84160   8.237   9.663   6.716  0.0861  0.6884 -0.3039
24034SOL    HW184161   8.202   9.609   6.793 -1.7965  1.5291 -0.5257
24034SOL    HW284162   8.310   9.723   6.748  2.2112 -1.9534 -0.0586
24035SOL     OW84163   9.297   4.449   0.239  0.4392  0.1881  0.0870
24035SOL    HW184164   9.295   4.500   0.325  2.1690  1.9081 -0.8427
24035SOL    HW284165   9.373   4.385   0.239  0.3147  0.0365 -0.0756
24036SOL     OW84166   9.724   5.481   9.643  0.3006 -1.0911  0.6524
24036SOL    HW184167   9.680   5.514   9.560 -0.4705 -1.0328  1.0755
24036SOL    HW284168   9.807   5.429   9.619 -0.2137 -1.5426 -0.1833
24037SOL     OW84169   0.851   3.242   3.783  0.0854 -0.0056  0.0067
24037SOL    HW184170   0.925   3.191   3.827 -1.5310 -2.5859 -0.1627
24037SOL    HW284171   0.810   3.306   3.849  1.9232  0.8677  0.3165
24038SOL     OW84172   9.108   6.509   6.365  0.0720  0.1360  0.1289
24038SOL    HW184173   9.051   6.592   6.361 -0.6267 -0.1794  2.4223
24038SOL    HW284174   9.049   6.428   6.359  0.4495 -0.1868  0.6962
24039SOL     OW84175   4.522   0.212   2.049 -0.3132  0.0036  0.1492
24039SOL    HW184176   4.496   0.271   1.972 -0.1728  1.6494  1.3375
24039SOL    HW284177   4.608   0.165   2.027  0.3512  1.3661 -0.2330
24040SOL     OW84178   3.320   1.633   0.989 -0.1637  0.0766  0.3950
24040SOL    HW184179   3.224   1.635   0.962 -0.7200 -1.6468  2.1251
24040SOL    HW284180   3.328   1.641   1.088  1.4440 -0.2947  0.3188
24041SOL     OW84181   3.073   8.562   1.281  0.6293  0.8880 -0.0563
24041SOL    HW184182   2.982   8.556   1.240  0.1757 -0.7483  1.1356
24041SOL    HW284183   3.102   8.471   1.312  2.3838  1.5038  0.2016
24042SOL     OW84184   5.506   1.125   6.803 -0.2430  0.4583 -0.2704
24042SOL    HW184185   5.407   1.114   6.816 -0.3040 -0.5272 -1.4857
24042SOL    HW284186   5.523   1.206   6.747 -0.5148 -0.6109 -1.9571
24043SOL     OW84187   9.517   7.248   0.638  0.7278  0.6931  0.0223
24043SOL    HW184188   9.593   7.233   0.702  0.1453 -1.0027  0.3487
24043SOL    HW284189   9.550   7.241   0.544  0.8972 -0.6387  0.1646
24044SOL     OW84190   1.448   8.315   8.431  0.0858 -0.1903 -0.3503
24044SOL    HW184191   1.448   8.371   8.348  0.0981 -0.7085 -0.7056
24044SOL    HW284192   1.369   8.254   8.430 -0.5802  0.6519  0.6091
24045SOL     OW84193   0.276   1.683   7.051  0.1245 -0.3909  0.2351
24045SOL    HW184194   0.363   1.691   7.099 -0.0894 -1.1453  0.7669
24045SOL    HW284195   0.268   1.756   6.983  0.9634 -0.0424  0.5047
24046SOL     OW84196   4.224   8.546   8.750 -0.2788 -0.4990 -0.5454
24046SOL    HW184197   4.277   8.463   8.769 -0.7613 -0.3311  1.5982
24046SOL    HW284198   4.137   8.521   8.708 -0.0706 -1.0070 -0.6845
24047SOL     OW84199   3.592   7.370   5.658  0.2551 -0.0414  0.1293
24047SOL    HW184200   3.662   7.363   5.587 -0.7758 -0.0718 -0.9087
24047SOL    HW284201   3.504   7.340   5.621  0.0082 -1.5861  1.8933
24048SOL     OW84202   3.165   9.424   9.743 -0.8792 -0.0428  0.1986
24048SOL    HW184203   3.236   9.475   9.695  0.6206 -1.7417  0.5726
24048SOL    HW284204   3.146   9.339   9.694 -0.5719 -0.9728  1.6722
24049SOL     OW84205   4.925   1.621   9.121  0.3015  0.1643 -0.2793
24049SOL    HW184206   4.879   1.616   9.209 -0.2778 -2.5899 -0.7043
24049SOL    HW284207   5.010   1.569   9.124  1.3478  1.8146 -0.7336
24050SOL     OW84208   8.078   5.692   6.496 -0.4807  0.6363  0.3697
24050SOL    HW184209   8.027   5.778   6.507  0.1179  1.2439 -1.4714
24050SOL    HW284210   8.176   5.713   6.488 -0.1853 -0.3377  1.3855
24051SOL     OW84211   7.352   1.932   4.964 -0.2526  0.1480 -0.3148
24051SOL    HW184212   7.271   1.906   4.912 -0.2469  0.1514 -0.3250
24051SOL    HW284213   7.392   1.852   5.008  0.4433 -0.0694 -1.3208
24052SOL     OW84214   0.409   4.920   2.156  0.5567  0.2333  0.3497
24052SOL    HW184215   0.378   4.902   2.063  1.7110  0.5011 -0.1009
24052SOL    HW284216   0.333   4.955   2.211  0.0287  0.7016 -0.6656
24053SOL     OW84217   2.722   6.407   9.053  0.2771 -0.2036  0.0748
24053SOL    HW184218   2.656   6.372   8.988  0.5541  1.6260 -1.2403
24053SOL    HW284219   2.721   6.507   9.051  0.3235 -0.0916  2.8482
24054SOL     OW84220   6.793   5.460   0.773  0.1719 -0.3116 -0.0715
24054SOL    HW184221   6.771   5.525   0.846  0.6093 -0.3062  0.0610
24054SOL    HW284222   6.728   5.385   0.775  0.8072 -0.8551  1.0076
24055SOL     OW84223   7.987   6.672   7.313  0.0025  0.1649  0.0393
24055SOL    HW184224   8.016   6.605   7.381  1.0628  0.9914  0.4208
24055SOL    HW284225   7.998   6.634   7.221 -1.7907 -1.0987  0.3071
24056SOL     OW84226   2.384   9.743   0.661  0.4760 -0.9566 -0.2689
24056SOL    HW184227   2.334   9.659   0.682  0.7075 -0.7122  1.3365
24056SOL    HW284228   2.335   9.821   0.698  0.4304 -0.3959 -1.4766
24057SOL     OW84229   1.393   4.921   9.976  0.0994  0.1816  0.3067
24057SOL    HW184230   1.445   4.845   9.938 -0.1880  0.1455 -0.0190
24057SOL    HW284231   1.303   4.888  10.005 -0.1615  0.4732 -0.1716
24058SOL     OW84232   0.332   5.188   3.678  0.1998 -0.0659 -0.0858
24058SOL    HW184233   0.402   5.258   3.669  1.1254 -1.1111 -1.2772
24058SOL    HW284234   0.334   5.149   3.770 -0.2979  1.4310  0.5679
24059SOL     OW84235   9.245   3.888   5.035  0.3016 -0.5642 -0.1216
24059SOL    HW184236   9.342   3.861   5.035  0.2664 -0.7233 -1.3610
24059SOL    HW284237   9.189   3.809   5.057  0.3540 -0.9038 -1.1850
24060SOL     OW84238   7.806   2.252   1.947  0.0892  0.0045  0.2896
24060SOL    HW184239   7.811   2.167   1.894  0.9323 -0.5077  1.1692
24060SOL    HW284240   7.727   2.306   1.917 -0.6202 -1.2191 -0.0884
24061SOL     OW84241   0.598   9.998   7.776  0.2132  0.2140  0.2759
24061SOL    HW184242   0.613  10.015   7.679  1.2978 -0.4527  0.3193
24061SOL    HW284243   0.559   9.907   7.789 -3.0389  1.5404  0.2439
24062SOL     OW84244   8.033   7.484   6.473 -0.0880  0.2561 -0.0172
24062SOL    HW184245   7.957   7.484   6.539  0.0570 -0.7891  0.1532
24062SOL    HW284246   8.000   7.453   6.384  0.2346 -0.6724  0.1793
24063SOL     OW84247   2.625   0.186   8.422 -0.2819  0.6166 -0.2813
24063SOL    HW184248   2.686   0.144   8.355  0.1922  0.1527  0.4335
24063SOL    HW284249   2.568   0.255   8.377 -1.4639 -1.1608 -1.5969
24064SOL     OW84250   3.155   0.506   3.503  0.4955  0.0581 -0.2553
24064SOL    HW184251   3.148   0.447   3.584 -0.8426  2.6262  1.5969
24064SOL    HW284252   3.063   0.520   3.465  0.9150  0.2223 -1.2074
24065SOL     OW84253   9.179   9.703   8.647 -0.0043  0.1331 -0.2190
24065SOL    HW184254   9.213   9.613   8.674  2.0037  1.0713  0.4633
24065SOL    HW284255   9.183   9.712   8.548  0.2936 -0.3330 -0.2519
24066SOL     OW84256   7.991   5.116   2.231  0.4212  0.5317 -0.0045
24066SOL    HW184257   7.915   5.152   2.284  1.4756  1.5144  0.8851
24066SOL    HW284258   7.974   5.130   2.133 -0.3577  1.0996  0.2104
24067SOL     OW84259   5.234   4.677   8.265  0.0186 -0.1503 -0.3228
24067SOL    HW184260   5.159   4.734   8.299  1.4112  1.3117  0.3849
24067SOL    HW284261   5.307   4.736   8.229  0.7559 -1.5528 -1.1459
24068SOL     OW84262   0.277   1.166   3.063  0.3912 -0.2514 -0.3440
24068SOL    HW184263   0.238   1.215   2.986 -2.5144 -0.9275  0.6256
24068SOL    HW284264   0.239   1.202   3.149  1.1908 -1.5625  0.5855
24069SOL     OW84265   4.385   6.650   1.532  0.2025  0.1436 -0.1130
24069SOL    HW184266   4.352   6.745   1.534 -0.6896 -0.1097 -1.8285
24069SOL    HW284267   4.359   6.604   1.616  0.3083  1.3125  0.5707
24070SOL     OW84268   9.246   8.856   6.263 -0.2335 -0.0296  0.2553
24070SOL    HW184269   9.232   8.796   6.341  1.6299 -0.8878 -0.0403
24070SOL    HW284270   9.221   8.950   6.288  0.2099 -0.3127  1.8368
24071SOL     OW84271   0.724   7.196   9.785 -0.6847  0.2974  0.0233
24071SOL    HW184272   0.789   7.272   9.783 -0.2432 -0.0407  0.8315
24071SOL    HW284273   0.769   7.115   9.823 -1.2324 -0.2866 -0.5533
24072SOL     OW84274   5.603   5.448   8.898 -0.1406  0.0052  0.4172
24072SOL    HW184275   5.645   5.532   8.932  0.5218  1.3831 -3.5522
24072SOL    HW284276   5.653   5.369   8.934  0.9259  1.3760  2.0272
24073SOL     OW84277   3.024   7.622   9.039  0.0085  0.1655 -0.2630
24073SOL    HW184278   2.960   7.672   9.097  0.6599 -2.3768  2.7817
24073SOL    HW284279   3.006   7.644   8.943 -3.8500  1.3417  0.6274
24074SOL     OW84280   4.668   0.339   6.230 -0.7582 -0.0825 -0.4673
24074SOL    HW184281   4.657   0.298   6.139 -3.1126 -1.5197  0.4187
24074SOL    HW284282   4.708   0.271   6.292 -0.4179  0.4566 -0.0974
24075SOL     OW84283   3.335   6.840   0.893 -0.0744  0.0189 -0.0719
24075SOL    HW184284   3.253   6.897   0.901  0.5806  1.1680 -1.2646
24075SOL    HW284285   3.416   6.897   0.907  0.5629 -0.8215 -0.2984
24076SOL     OW84286   5.759   4.096   9.820  0.1237 -0.2890 -0.0918
24076SOL    HW184287   5.854   4.080   9.793  0.5730  0.1982  1.1834
24076SOL    HW284288   5.739   4.193   9.815 -0.2246 -0.3624 -0.0983
24077SOL     OW84289   7.397   8.409   3.600 -0.1902 -0.1726 -0.0931
24077SOL    HW184290   7.483   8.383   3.644 -0.0456  0.5347  0.0425
24077SOL    HW284291   7.330   8.335   3.611  0.4215 -0.7522 -0.2599
24078SOL     OW84292   3.551   4.319   9.179 -0.0215 -0.1387 -0.0634
24078SOL    HW184293   3.493   4.252   9.226  1.3232 -0.8071  0.6497
24078SOL    HW284294   3.530   4.410   9.215  0.1998 -0.5093  1.0467
24079SOL     OW84295   1.091   5.602   2.334  0.0421 -0.1944 -0.5657
24079SOL    HW184296   1.184   5.584   2.303  0.4404  0.4671  0.2589
24079SOL    HW284297   1.073   5.551   2.418  0.6649  1.9992  0.9360
24080SOL     OW84298   9.230   2.013   0.283  0.3106  0.0212  0.5319
24080SOL    HW184299   9.255   2.055   0.196  2.1508 -2.7576 -0.3692
24080SOL    HW284300   9.170   1.934   0.266 -0.4206  0.2598  1.8986
24081SOL     OW84301   1.375   1.568   3.817 -0.3178 -0.4543  0.1402
24081SOL    HW184302   1.309   1.535   3.750  3.0762 -0.7182 -3.2435
24081SOL    HW284303   1.377   1.668   3.814 -0.5712 -0.4467  0.2314
24082SOL     OW84304   8.909   6.689   0.788  0.1745  0.0863  0.1968
24082SOL    HW184305   8.959   6.759   0.737  2.2252 -1.4960 -0.0572
24082SOL    HW284306   8.826   6.665   0.738 -0.2102  1.8488 -0.0459
24083SOL     OW84307   1.304   6.817   8.354 -0.3568  0.0145 -0.2281
24083SOL    HW184308   1.214   6.800   8.393 -0.6579  1.8779 -0.0553
24083SOL    HW284309   1.363   6.738   8.370 -1.4656 -0.5651  1.0886
24084SOL     OW84310   3.626   3.284   7.538  0.1696  0.0741  0.0953
24084SOL    HW184311   3.547   3.223   7.531  0.9608 -0.8522 -0.9594
24084SOL    HW284312   3.611   3.365   7.482  0.2728 -0.4642 -0.7254
24085SOL     OW84313   9.572   7.904   7.394 -0.3304 -0.2580  0.5632
24085SOL    HW184314   9.482   7.921   7.434 -0.1963 -0.6257  1.0276
24085SOL    HW284315   9.568   7.824   7.334 -0.8381  1.0578 -1.2056
24086SOL     OW84316   0.599   8.668   2.025  0.1603  0.6196 -0.6467
24086SOL    HW184317   0.535   8.597   1.997  1.8109 -1.3936  0.4738
24086SOL    HW284318   0.673   8.675   1.958  1.1065 -0.2363  0.2692
24087SOL     OW84319   4.052   7.309   3.413 -0.2724 -0.4037  0.5529
24087SOL    HW184320   4.109   7.369   3.358 -0.0046  1.5584  2.9145
24087SOL    HW284321   4.107   7.232   3.445  0.0424 -0.5538 -0.3169
24088SOL     OW84322   0.482   2.903   3.826  0.1244 -0.2811  0.9639
24088SOL    HW184323   0.549   2.946   3.765 -0.1741  2.1218  2.2580
24088SOL    HW284324   0.526   2.878   3.912 -0.3831  0.2937  1.3972
24089SOL     OW84325   7.277   8.680   7.868 -0.8822  0.3600  0.0436
24089SOL    HW184326   7.309   8.615   7.799 -0.7122 -0.2119  0.6526
24089SOL    HW284327   7.222   8.751   7.824  0.3938  0.7924 -0.8861
24090SOL     OW84328   1.481   4.261   8.795  0.1371  0.0293  0.2849
24090SOL    HW184329   1.563   4.246   8.740  0.8813 -0.8889  1.6105
24090SOL    HW284330   1.400   4.247   8.738  0.8837 -1.1788 -0.5186
24091SOL     OW84331   9.470   6.662   0.236 -0.1897  0.0155  0.2979
24091SOL    HW184332   9.384   6.625   0.202 -0.4677  0.3315  0.6406
24091SOL    HW284333   9.545   6.634   0.177 -0.5013 -0.4465  0.1215
24092SOL     OW84334   0.072   1.558   6.830 -0.1467 -0.2270 -0.4891
24092SOL    HW184335   0.010   1.574   6.906  0.8327 -1.2059  0.5452
24092SOL    HW284336   0.047   1.616   6.753 -0.7105  1.2951  0.8239
24093SOL     OW84337   5.938   7.092   4.960 -0.2887  0.2182 -0.3632
24093SOL    HW184338   5.985   7.146   4.890 -1.3430  2.1498  0.3741
24093SOL    HW284339   5.980   7.108   5.049 -0.7662  0.0365 -0.1005
24094SOL     OW84340   3.523   6.808   8.545  0.3454 -0.3734  0.2110
24094SOL    HW184341   3.537   6.803   8.644  0.4687  1.9674  0.3342
24094SOL    HW284342   3.575   6.884   8.507 -0.8630 -0.3254 -1.4412
24095SOL     OW84343   7.233   4.428   3.733 -0.1125 -0.4793  0.4814
24095SOL    HW184344   7.222   4.515   3.782 -1.2151  0.1884 -0.9115
24095SOL    HW284345   7.224   4.443   3.635  0.9361 -1.9888  0.1335
24096SOL     OW84346   9.521   3.772   5.051  0.3341  0.0103  0.2959
24096SOL    HW184347   9.552   3.860   5.087  0.7233 -0.0652  0.1493
24096SOL    HW284348   9.513   3.706   5.125  0.2357  0.1142  0.3772
24097SOL     OW84349   4.287   1.964   7.532  0.0086 -0.2381  0.0154
24097SOL    HW184350   4.361   1.998   7.590  1.6501 -0.7787 -1.7201
24097SOL    HW284351   4.208   2.024   7.540  1.3880  1.5944  0.2133
24098SOL     OW84352   0.847   6.258   7.538  0.1532  0.2036  0.1840
24098SOL    HW184353   0.765   6.311   7.517  1.0546  2.2235  1.5343
24098SOL    HW284354   0.850   6.240   7.636 -0.3792 -2.8217 -0.3254
24099SOL     OW84355   5.106   6.509   0.237  0.0834  0.0360 -0.3466
24099SOL    HW184356   5.137   6.598   0.270 -0.6617  0.0699  0.2859
24099SOL    HW284357   5.068   6.520   0.145  3.1186 -0.2456 -1.6609
24100SOL     OW84358   2.991   1.375   3.917  0.2076  0.0484  0.1035
24100SOL    HW184359   3.009   1.473   3.920  1.0223 -0.1341  1.5705
24100SOL    HW284360   3.057   1.330   3.856 -0.4569  0.4536 -0.9353
24101SOL     OW84361   0.695   2.291   4.835  0.4896 -0.3818 -0.1713
24101SOL    HW184362   0.743   2.275   4.921  1.0780  0.5633 -0.3209
24101SOL    HW284363   0.728   2.228   4.766 -1.6071 -2.7233  0.8874
24102SOL     OW84364   3.682   9.878   0.749 -0.1130 -0.2600 -0.6793
24102SOL    HW184365   3.715   9.790   0.785 -1.4655 -1.6262 -2.6670
24102SOL    HW284366   3.644   9.932   0.824  1.2993 -1.0954  0.6764
24103SOL     OW84367   0.952   3.492   4.226  0.5806  0.0746 -0.0936
24103SOL    HW184368   0.898   3.482   4.143  0.6718  1.1422 -0.2905
24103SOL    HW284369   0.991   3.585   4.230  2.0026 -0.5187  0.2784
24104SOL     OW84370   1.470   6.976   4.573  0.4949 -0.3878  0.7682
24104SOL    HW184371   1.435   6.966   4.666 -0.2052 -0.0666  0.5399
24104SOL    HW284372   1.458   7.071   4.543 -0.6639 -0.8377 -0.2077
24105SOL     OW84373   4.540   6.216   4.055 -0.2128  0.2812  0.6051
24105SOL    HW184374   4.566   6.312   4.064  0.5546 -0.0048  1.5752
24105SOL    HW284375   4.600   6.160   4.113 -1.1799 -0.6891  0.6834
24106SOL     OW84376   9.668   4.585   5.815 -0.4083  0.6379  0.1900
24106SOL    HW184377   9.680   4.676   5.854  0.2197 -0.6355  3.1153
24106SOL    HW284378   9.757   4.538   5.812 -0.9451 -0.3937  0.0572
24107SOL     OW84379   4.492   4.358   0.326 -0.4029  0.2083  0.1668
24107SOL    HW184380   4.550   4.432   0.292 -3.0340  2.2521  0.0108
24107SOL    HW284381   4.522   4.332   0.418  1.7889  0.0438 -0.5562
24108SOL     OW84382   4.683   2.697   6.439  0.2948 -0.5623 -0.0546
24108SOL    HW184383   4.768   2.745   6.461 -0.0673 -0.8768  2.1060
24108SOL    HW284384   4.660   2.634   6.513 -2.8517  0.9069  0.3098
24109SOL     OW84385   2.569   2.667   4.401 -0.5237  0.0947 -0.2525
24109SOL    HW184386   2.513   2.712   4.331 -0.7067 -2.9759 -2.1660
24109SOL    HW284387   2.511   2.638   4.477 -0.9113  0.2040 -0.5065
24110SOL     OW84388   8.307   6.121   7.972 -0.4545 -0.3621  0.0035
24110SOL    HW184389   8.289   6.070   7.888  0.1599 -0.3048 -0.1624
24110SOL    HW284390   8.398   6.163   7.967 -1.3456  1.5977 -0.2929
24111SOL     OW84391   2.152   8.423   1.693  0.1044 -0.0754 -0.1907
24111SOL    HW184392   2.158   8.522   1.698 -0.9833 -0.0277  0.3449
24111SOL    HW284393   2.240   8.385   1.662  0.5240  1.0416 -0.3761
24112SOL     OW84394   7.708   6.561   4.805  0.2948 -0.0244 -0.0966
24112SOL    HW184395   7.751   6.545   4.894  0.6183 -0.6472 -0.3640
24112SOL    HW284396   7.693   6.659   4.793  1.3036  0.1747  0.1605
24113SOL     OW84397   5.070   0.347   7.469  0.0423 -0.2948 -0.1439
24113SOL    HW184398   5.105   0.403   7.395  1.6637 -1.4328 -0.2623
24113SOL    HW284399   4.970   0.347   7.467  0.0585  1.0789 -1.2480
24114SOL     OW84400   3.228   3.311   6.969 -0.2022 -0.0926  0.3077
24114SOL    HW184401   3.140   3.337   6.930 -0.1391  0.2611  0.4035
24114SOL    HW284402   3.302   3.346   6.911 -0.0750  1.9166  1.6639
24115SOL     OW84403   3.496   6.441   2.712  0.2111  0.1810  0.0732
24115SOL    HW184404   3.429   6.479   2.776 -1.2420  0.3253 -1.4603
24115SOL    HW284405   3.558   6.379   2.760 -1.6893 -0.7827  1.3699
24116SOL     OW84406   9.937   3.713   8.101 -0.2369  0.6251 -0.2334
24116SOL    HW184407  10.027   3.707   8.058 -0.4461  0.8158 -0.7006
24116SOL    HW284408   9.880   3.636   8.071  0.0206  0.0814  0.6523
24117SOL     OW84409   3.464   8.288   0.325 -0.3264 -0.0796 -0.2651
24117SOL    HW184410   3.540   8.353   0.334 -0.7180  0.0541  2.6344
24117SOL    HW284411   3.500   8.196   0.314  0.2309  0.4335 -3.1614
24118SOL     OW84412   3.989   0.508   1.589 -0.1762  0.3195  0.5044
24118SOL    HW184413   3.905   0.547   1.551 -0.5551  0.3950  1.4236
24118SOL    HW284414   4.068   0.553   1.548 -0.5708  0.0523 -0.5775
24119SOL     OW84415   7.369   1.114   2.449  0.4542  0.4732 -0.0901
24119SOL    HW184416   7.363   1.209   2.478  1.4933 -0.0889  2.0258
24119SOL    HW284417   7.310   1.057   2.507  0.5659 -0.3062 -0.7260
24120SOL     OW84418   2.848   0.221   3.272 -0.2842  0.6201  0.3264
24120SOL    HW184419   2.891   0.146   3.223 -3.0487 -0.9027  0.1206
24120SOL    HW284420   2.851   0.203   3.370  0.9634  1.3208  0.4286
24121SOL     OW84421   0.593   6.871   7.189  0.0898  0.1947  0.4652
24121SOL    HW184422   0.514   6.897   7.133  0.6259  2.6521  0.7947
24121SOL    HW284423   0.675   6.867   7.131 -0.1565 -1.7902  0.2313
24122SOL     OW84424   2.552   8.122   8.325 -0.3752 -0.4900 -0.2256
24122SOL    HW184425   2.568   8.030   8.361 -2.1037 -0.3823  0.8564
24122SOL    HW284426   2.534   8.117   8.226 -0.9268 -1.3664 -0.0853
24123SOL     OW84427   5.832   8.482   3.405 -0.7563 -0.2954 -0.4286
24123SOL    HW184428   5.828   8.405   3.340  1.7316 -0.2977 -0.6235
24123SOL    HW284429   5.740   8.516   3.421 -1.6218 -1.5667 -2.4646
24124SOL     OW84430   4.935   4.755   8.353  0.8233  0.4140 -0.2961
24124SOL    HW184431   4.893   4.822   8.292 -0.4694  0.7154  0.9071
24124SOL    HW284432   4.921   4.663   8.316  1.4606  0.6960 -1.2690
24125SOL     OW84433   7.624   5.403   5.076  0.0509 -0.4223 -0.4224
24125SOL    HW184434   7.607   5.466   5.000 -0.8768  0.0155  0.1311
24125SOL    HW284435   7.578   5.437   5.158 -1.0549 -2.1543 -0.2857
24126SOL     OW84436   7.210   0.211   5.717 -0.0514  0.0157 -0.3584
24126SOL    HW184437   7.119   0.231   5.680  0.2683  2.4061  0.0852
24126SOL    HW284438   7.275   0.280   5.685  1.3673 -1.0112  0.2665
24127SOL     OW84439   9.127   5.220   6.539 -0.3616  0.4843 -0.3065
24127SOL    HW184440   9.059   5.267   6.595  0.0666  2.2280 -1.2044
24127SOL    HW284441   9.122   5.255   6.445  0.7605 -0.4519 -0.7215
24128SOL     OW84442   5.963   6.251   0.290 -0.0794 -0.2925  0.2344
24128SOL    HW184443   5.926   6.314   0.358 -1.7728 -1.0078  0.0190
24128SOL    HW284444   5.900   6.246   0.212 -0.5248 -3.0432  0.7337
24129SOL     OW84445   0.355   2.537   1.598 -0.1487 -0.1573  0.1325
24129SOL    HW184446   0.286   2.465   1.593  0.4630 -0.9480  2.3518
24129SOL    HW284447   0.374   2.559   1.694  3.8298 -1.1279 -0.3286
24130SOL     OW84448   6.540   2.937   0.866 -0.0553  0.1340 -0.3111
24130SOL    HW184449   6.467   3.001   0.844  0.2694  0.1951 -1.2703
24130SOL    HW284450   6.528   2.902   0.958 -1.0801  0.4328 -0.3287
24131SOL     OW84451   8.605   1.487  10.061 -0.1150 -0.8595 -0.8422
24131SOL    HW184452   8.521   1.481  10.008 -2.1614  1.7852  1.9516
24131SOL    HW284453   8.678   1.526  10.004 -1.5396 -0.5531 -2.4816
24132SOL     OW84454   3.579   8.336   3.372  0.6829 -0.3166  0.0414
24132SOL    HW184455   3.602   8.379   3.284 -0.1407 -1.0021 -0.5198
24132SOL    HW284456   3.483   8.352   3.393  1.3896  1.6719  1.8820
24133SOL     OW84457   2.494   2.944   0.119 -0.0875 -0.0418 -0.0312
24133SOL    HW184458   2.442   2.905   0.195 -1.4682  1.5287 -0.1147
24133SOL    HW284459   2.556   3.014   0.154 -1.0105  0.9636 -0.3626
24134SOL     OW84460   5.454   7.543   6.665  0.0916 -0.3416 -0.4566
24134SOL    HW184461   5.532   7.571   6.721 -0.3783 -0.5671  0.3191
24134SOL    HW284462   5.469   7.449   6.632  0.3539 -0.2202 -0.6892
24135SOL     OW84463   9.358   1.124   2.096 -0.0488  0.8783 -0.1990
24135SOL    HW184464   9.332   1.129   2.192 -0.5741 -0.6230 -0.2622
24135SOL    HW284465   9.291   1.070   2.045  1.6232 -0.5639 -0.9042
24136SOL     OW84466   7.525   4.700   0.570 -0.4255  0.0359  0.7301
24136SOL    HW184467   7.570   4.762   0.505 -1.2934  0.0869  0.1731
24136SOL    HW284468   7.562   4.715   0.662  0.6845  0.0842  0.2794
24137SOL     OW84469   2.860   6.689   7.965 -0.3237  0.1041  0.3859
24137SOL    HW184470   2.761   6.706   7.963 -0.1592  1.3708  1.8822
24137SOL    HW284471   2.908   6.777   7.963  0.7481 -0.4689  0.8598
24138SOL     OW84472   6.927   6.446   6.388 -0.0890 -0.1921  0.3356
24138SOL    HW184473   6.962   6.484   6.303 -3.2539  0.9239 -0.5264
24138SOL    HW284474   6.945   6.348   6.390 -0.6440 -0.3748 -1.9781
24139SOL     OW84475   8.116   5.439   7.440  0.6107 -0.3228 -0.1063
24139SOL    HW184476   8.073   5.370   7.383  1.5473 -2.0746  1.2692
24139SOL    HW284477   8.049   5.509   7.465 -1.0690 -2.2065  0.7870
24140SOL     OW84478   0.780   2.577   7.004 -0.8327  0.0578  0.2761
24140SOL    HW184479   0.838   2.644   7.050 -0.1867 -0.8370  0.7760
24140SOL    HW284480   0.685   2.606   7.011 -0.5174  1.2067  0.0073
24141SOL     OW84481   0.910   6.048   7.231  0.1689  0.6409 -0.4468
24141SOL    HW184482   0.949   5.967   7.275 -0.0523  0.4949 -0.5197
24141SOL    HW284483   0.848   6.020   7.158  0.6180  0.8834 -0.9224
24142SOL     OW84484   3.385   2.374   2.332  0.3565 -0.0188  0.0557
24142SOL    HW184485   3.371   2.442   2.404 -0.4380 -0.0300 -0.0876
24142SOL    HW284486   3.317   2.301   2.341  2.1114 -1.6065  1.1444
24143SOL     OW84487   2.189   2.075   0.285  0.2549 -0.6987  0.3349
24143SOL    HW184488   2.230   1.989   0.254  0.5009  0.1672 -1.8751
24143SOL    HW284489   2.091   2.063   0.299 -0.2113 -0.7243 -2.5915
24144SOL     OW84490   0.359   7.989   6.998 -0.0881 -0.2300 -0.4344
24144SOL    HW184491   0.353   8.067   7.061 -0.1114  1.1305 -2.0869
24144SOL    HW284492   0.389   8.021   6.908 -0.4837 -2.0752 -1.2458
24145SOL     OW84493   0.515   1.952   9.363  0.1763  0.2955 -0.4070
24145SOL    HW184494   0.609   1.981   9.381  0.2648  0.3373 -0.9123
24145SOL    HW284495   0.515   1.885   9.288 -0.3371  1.3865 -1.4061
24146SOL     OW84496   8.184   0.908   0.913  0.0033  0.3005 -0.1083
24146SOL    HW184497   8.138   0.969   0.978  2.4923  0.7960  1.2552
24146SOL    HW284498   8.250   0.961   0.859  0.7116 -0.8246 -0.3580
24147SOL     OW84499   9.938   3.803   7.691  0.6306 -0.3100  0.8538
24147SOL    HW184500   9.930   3.713   7.648 -0.3738 -1.6087  3.6188
24147SOL    HW284501  10.020   3.805   7.749 -0.0445  0.0972  1.8080
24148SOL     OW84502   1.427   8.044   7.484 -0.8829 -0.0074 -0.5116
24148SOL    HW184503   1.359   8.081   7.547  0.9999 -1.2131  2.3191
24148SOL    HW284504   1.389   7.964   7.437 -2.3483  0.9847 -1.0378
24149SOL     OW84505   1.703   7.126   7.026  0.3521  0.1661  0.3612
24149SOL    HW184506   1.662   7.169   7.106 -0.8353 -2.2756  1.1273
24149SOL    HW284507   1.681   7.028   7.025  0.1509  0.1692 -3.0899
24150SOL     OW84508   4.071   4.420   1.348  0.1091  0.1006 -0.0652
24150SOL    HW184509   4.090   4.328   1.312  0.3961 -0.5437  1.7005
24150SOL    HW284510   4.055   4.415   1.446 -0.2774  1.9000 -0.0203
24151SOL     OW84511   9.506   0.338   8.957 -0.2140  0.4547 -0.4324
24151SOL    HW184512   9.594   0.371   8.991  0.3883 -0.1330 -1.4276
24151SOL    HW284513   9.497   0.358   8.860 -1.5305  1.2423 -0.1715
24152SOL     OW84514   8.430   0.327   5.877 -0.3294 -0.0144 -0.0066
24152SOL    HW184515   8.370   0.384   5.933 -1.7110 -0.1302 -1.3366
24152SOL    HW284516   8.422   0.232   5.907 -0.8133 -0.0302 -0.1817
24153SOL     OW84517   1.807   6.036   6.403  0.0978 -0.3193  0.2602
24153SOL    HW184518   1.754   6.098   6.461 -0.1391 -1.1560  0.9534
24153SOL    HW284519   1.824   5.951   6.453 -0.8464 -1.3838 -1.2123
24154SOL     OW84520   7.436   4.649   8.306  0.1753  1.0968 -0.7076
24154SOL    HW184521   7.452   4.557   8.340  0.5802  0.8671 -1.5259
24154SOL    HW284522   7.512   4.708   8.333 -0.5364  1.4314  0.6462
24155SOL     OW84523   8.859   8.242   0.128  0.3486  0.3199 -0.0659
24155SOL    HW184524   8.787   8.292   0.178 -1.3010 -0.7855 -1.2782
24155SOL    HW284525   8.945   8.292   0.135 -0.2897  1.1465  2.3008
24156SOL     OW84526   3.609   1.714   6.231 -0.0472 -0.1702  0.0677
24156SOL    HW184527   3.677   1.682   6.296 -0.8559  1.7475  1.8977
24156SOL    HW284528   3.527   1.657   6.236 -0.1222 -0.0045  0.7876
24157SOL     OW84529   0.391   1.686   8.153 -0.9275 -0.0648 -0.4363
24157SOL    HW184530   0.368   1.655   8.061 -0.4660  0.9310 -0.9003
24157SOL    HW284531   0.357   1.779   8.166 -1.2255 -0.3075  0.4928
24158SOL     OW84532   3.703   8.926   3.873  0.0812 -0.1330 -0.6796
24158SOL    HW184533   3.634   8.954   3.806  0.7270 -1.6108 -2.0058
24158SOL    HW284534   3.789   8.973   3.853 -0.1610  0.6903  0.1565
24159SOL     OW84535   1.301   3.858   0.337 -0.5131  0.2014 -0.0907
24159SOL    HW184536   1.303   3.787   0.407 -0.3709 -0.5410 -0.8388
24159SOL    HW284537   1.278   3.817   0.249 -1.1514  1.2022 -0.3938
24160SOL     OW84538   3.240   0.257   4.955  0.0815 -0.0608 -0.0183
24160SOL    HW184539   3.184   0.185   4.995 -0.0823 -0.3150 -0.6985
24160SOL    HW284540   3.182   0.337   4.937  0.6069  0.8833  2.3411
24161SOL     OW84541   1.876   0.233   7.557 -0.0635  0.5959  0.6922
24161SOL    HW184542   1.839   0.182   7.635  0.0371 -0.5133  0.0256
24161SOL    HW284543   1.871   0.331   7.576  0.1197  0.3340  2.1647
24162SOL     OW84544   2.104   6.242   8.284  0.0063 -0.0603  0.1115
24162SOL    HW184545   2.068   6.175   8.218 -0.9052 -0.5195  1.0575
24162SOL    HW284546   2.150   6.194   8.358 -2.0105  0.2441  1.6107
24163SOL     OW84547   3.796   4.514   7.018 -0.1924 -0.2478 -0.5016
24163SOL    HW184548   3.699   4.493   7.022 -0.1695 -0.1817  0.5624
24163SOL    HW284549   3.849   4.433   7.044 -0.0127  0.1682  0.4427
24164SOL     OW84550   4.178   9.759   0.322  0.2826  0.5030 -0.7990
24164SOL    HW184551   4.097   9.732   0.270 -0.9582 -1.4763  1.9922
24164SOL    HW284552   4.251   9.785   0.260 -1.5504 -0.5030 -3.4526
24165SOL     OW84553   9.510   2.613   0.885 -0.5269  0.1659 -0.1916
24165SOL    HW184554   9.415   2.631   0.911 -0.3693 -0.9943  1.2685
24165SOL    HW284555   9.538   2.523   0.920  1.4755  1.0237  0.5109
24166SOL     OW84556   3.809   6.912   0.885 -0.3238 -0.4537  0.2492
24166SOL    HW184557   3.761   6.999   0.880 -1.0187 -0.7949  0.7728
24166SOL    HW284558   3.794   6.871   0.975 -1.3445 -1.8693 -0.5410
24167SOL     OW84559   8.828   9.418   9.931  0.5784 -0.2582 -0.2301
24167SOL    HW184560   8.803   9.454  10.021  0.0259  3.4327 -1.7435
24167SOL    HW284561   8.835   9.319   9.935 -3.0696 -0.4895  2.9884
24168SOL     OW84562   9.429   7.323   9.012 -0.0458 -0.3194 -1.0377
24168SOL    HW184563   9.421   7.348   9.109  1.0893  0.5923 -1.1712
24168SOL    HW284564   9.348   7.271   8.985 -1.0632  0.6769  0.0174
24169SOL     OW84565   4.404   8.540   4.515 -0.4107 -0.2096 -0.2139
24169SOL    HW184566   4.443   8.582   4.433 -0.5436 -0.1985 -0.2716
24169SOL    HW284567   4.451   8.454   4.534  0.1196  0.1556  0.1233
24170SOL     OW84568   5.915   7.448   3.913 -0.0365  0.1140  0.3794
24170SOL    HW184569   5.901   7.414   4.007 -1.7162 -0.5902 -0.0983
24170SOL    HW284570   5.944   7.372   3.855  3.1934  1.0074  0.7716
24171SOL     OW84571   3.119   7.713   8.740 -0.2258  0.1553 -0.0277
24171SOL    HW184572   3.206   7.692   8.783  0.4459 -1.7659 -2.2263
24171SOL    HW284573   3.133   7.782   8.668 -0.5276 -0.1024 -0.3384
24172SOL     OW84574   0.076   9.899   8.841 -0.1108  0.0930 -0.6294
24172SOL    HW184575   0.159   9.892   8.786  0.5159  1.3861  0.1072
24172SOL    HW284576  -0.004   9.888   8.782  0.5350  1.6996 -1.8569
24173SOL     OW84577   7.357   4.581   9.146  0.0365 -0.0716 -0.2393
24173SOL    HW184578   7.455   4.576   9.129 -0.0605 -1.2755 -0.4695
24173SOL    HW284579   7.324   4.674   9.126  1.3738  0.7550  1.2534
24174SOL     OW84580   9.699   5.152   4.037 -0.0421  0.4652  0.0614
24174SOL    HW184581   9.629   5.108   3.981  0.2316  1.5740 -1.1847
24174SOL    HW284582   9.715   5.098   4.119 -1.8774 -0.1522  0.0339
24175SOL     OW84583   1.314   6.856   5.276 -0.2931  0.1754  0.1949
24175SOL    HW184584   1.249   6.783   5.255 -0.2060 -0.2653  1.4152
24175SOL    HW284585   1.397   6.816   5.314  0.3172  0.8081 -0.4718
24176SOL     OW84586   4.372   3.169   4.711 -0.1623 -0.0810 -0.1649
24176SOL    HW184587   4.466   3.136   4.717 -0.1431 -0.0141 -0.0964
24176SOL    HW284588   4.373   3.269   4.701 -0.2724  0.1371  1.7688
24177SOL     OW84589   2.575   0.759   7.109 -0.0406 -0.6233  0.1724
24177SOL    HW184590   2.644   0.752   7.038 -1.5759 -0.1861 -1.3904
24177SOL    HW284591   2.592   0.841   7.164  0.2211 -0.0739 -0.7143
24178SOL     OW84592   7.263   6.129   9.771  0.3279 -0.1136  0.1131
24178SOL    HW184593   7.334   6.059   9.760 -0.7026 -1.0344 -0.8004
24178SOL    HW284594   7.184   6.090   9.817  0.0537  0.6635  0.3147
24179SOL     OW84595   2.600   5.489   5.244 -0.3321  0.1953  0.4627
24179SOL    HW184596   2.670   5.474   5.175 -1.4049  0.6959 -0.7643
24179SOL    HW284597   2.640   5.534   5.324  0.4054  2.0689 -0.9427
24180SOL     OW84598   3.108   2.286   8.717 -0.2397  0.5957  0.6343
24180SOL    HW184599   3.103   2.198   8.765  0.3674  0.7681  1.0119
24180SOL    HW284600   3.181   2.341   8.756  1.2919  0.1476 -1.4773
24181SOL     OW84601   9.343   9.372   7.852 -0.2630  0.7271  0.2928
24181SOL    HW184602   9.266   9.316   7.881  0.7133 -0.7435  0.1419
24181SOL    HW284603   9.404   9.388   7.930 -0.5999  1.6908  0.3624
24182SOL     OW84604   9.169   8.415   9.236 -0.5114 -0.6008  0.3764
24182SOL    HW184605   9.143   8.500   9.191  0.4046 -0.9383 -0.8273
24182SOL    HW284606   9.266   8.418   9.259 -0.3131 -1.5751 -0.2935
24183SOL     OW84607   6.412   0.350   4.672 -0.3559  0.5109  0.6608
24183SOL    HW184608   6.474   0.400   4.611 -1.4140  1.4002  0.2915
24183SOL    HW284609   6.453   0.263   4.697  0.8056  0.8511 -0.0207
24184SOL     OW84610   1.525   3.436   9.086 -0.5422 -0.1359  0.9119
24184SOL    HW184611   1.601   3.378   9.058 -0.3073 -0.2462  1.7624
24184SOL    HW284612   1.548   3.532   9.068 -0.3773 -0.2016  0.7735
24185SOL     OW84613   3.208   4.265   6.236  0.4517  0.5362  0.5018
24185SOL    HW184614   3.227   4.320   6.155 -2.1304 -2.2013 -2.0942
24185SOL    HW284615   3.280   4.280   6.304  1.7376  4.2507 -1.5225
24186SOL     OW84616   9.455   8.754   3.124 -0.2211 -0.6686 -0.1361
24186SOL    HW184617   9.419   8.785   3.212  0.9334 -2.4550  1.0006
24186SOL    HW284618   9.421   8.662   3.105 -0.4959 -0.2812 -1.6069
24187SOL     OW84619   3.397   1.769   3.767  0.0678 -0.0076 -0.0668
24187SOL    HW184620   3.302   1.759   3.737 -0.5351  0.1002  1.7244
24187SOL    HW284621   3.419   1.866   3.776  1.3825  0.0876 -3.5403
24188SOL     OW84622   6.383   5.322   1.866 -0.0796 -0.3507 -0.3599
24188SOL    HW184623   6.341   5.365   1.946  1.0361  0.6490 -0.2927
24188SOL    HW284624   6.319   5.324   1.790 -0.3805  0.6585 -0.0982
24189SOL     OW84625   2.271   6.387   6.091  0.0706 -0.5413 -0.3325
24189SOL    HW184626   2.329   6.351   6.164  1.4237 -0.4044 -1.3179
24189SOL    HW284627   2.328   6.437   6.026 -1.3095  0.4697 -0.7772
24190SOL     OW84628   7.328   8.669   3.683  0.5759  0.5730  0.0382
24190SOL    HW184629   7.344   8.731   3.606  2.0716  0.8163  0.5350
24190SOL    HW284630   7.354   8.576   3.657  0.0994  0.4728 -0.0874
24191SOL     OW84631   2.348   5.559   8.400 -0.1753 -0.2217 -0.1299
24191SOL    HW184632   2.259   5.561   8.446  0.6393 -1.0000  1.5111
24191SOL    HW284633   2.334   5.538   8.303 -1.7053 -1.4165  0.3254
24192SOL     OW84634   9.119   5.092   5.641 -0.3192  0.1615  0.1614
24192SOL    HW184635   9.083   5.002   5.664 -2.0178  0.6329 -0.5424
24192SOL    HW284636   9.060   5.135   5.572  0.3538  1.8792  0.6178
24193SOL     OW84637   5.199   4.372   6.225  0.0039  0.1047 -0.3100
24193SOL    HW184638   5.207   4.470   6.208 -0.8855  0.5870  1.7994
24193SOL    HW284639   5.130   4.333   6.163 -1.3934  1.3074  0.4376
24194SOL     OW84640   5.167   7.037   4.145 -0.2375 -0.2327 -0.2945
24194SOL    HW184641   5.259   7.007   4.119 -0.3153  0.3406 -1.2806
24194SOL    HW284642   5.105   7.028   4.066 -1.1620 -1.1505  0.5222
24195SOL     OW84643   7.334   9.474   7.291 -0.3169  0.0064 -0.0179
24195SOL    HW184644   7.412   9.441   7.237 -0.2633  0.4355 -0.2061
24195SOL    HW284645   7.292   9.551   7.244 -0.1176  0.5435  0.6784
24196SOL     OW84646   3.158   5.598   1.530 -0.1651  0.5694  0.5896
24196SOL    HW184647   3.132   5.681   1.579 -2.1856 -0.3062  1.0720
24196SOL    HW284648   3.231   5.551   1.580 -0.5811  0.8937  1.5167
24197SOL     OW84649   3.929   5.078   1.863  0.3558  0.2338 -0.8897
24197SOL    HW184650   3.924   5.147   1.791 -0.1120  0.9641 -0.1508
24197SOL    HW284651   3.840   5.035   1.874  0.3476  0.3487 -0.5164
24198SOL     OW84652   0.513   5.309   8.275 -0.0154  0.4461 -0.2714
24198SOL    HW184653   0.555   5.355   8.196  0.0587  0.3506 -0.2882
24198SOL    HW284654   0.429   5.264   8.246  0.7456 -0.7838 -0.6028
24199SOL     OW84655   6.401   6.340   1.879 -0.5884 -0.2810  0.0596
24199SOL    HW184656   6.322   6.391   1.913 -0.8752 -0.9094  0.3584
24199SOL    HW284657   6.383   6.311   1.784  0.6456  2.3707 -1.0290
24200SOL     OW84658   8.935   5.602   3.822 -0.0661  0.7823  0.0426
24200SOL    HW184659   8.981   5.608   3.911 -1.7506 -0.8926  1.0664
24200SOL    HW284660   8.877   5.682   3.809  0.3151  1.1157  0.3764
24201SOL     OW84661   9.466   9.425   5.486  0.0385 -0.1244  0.3379
24201SOL    HW184662   9.530   9.481   5.433 -1.1439  0.2635 -0.6917
24201SOL    HW284663   9.517   9.373   5.555  2.0192 -2.8615 -3.0415
24202SOL     OW84664   8.528   5.664   2.568  0.1177  0.2282  0.2052
24202SOL    HW184665   8.512   5.585   2.509  0.6561  0.1599  0.1465
24202SOL    HW284666   8.625   5.689   2.564 -0.3826  1.9840 -1.1445
24203SOL     OW84667   6.626   8.089   4.340 -0.5533 -0.3311 -0.1491
24203SOL    HW184668   6.672   8.111   4.254 -0.0812  2.3943  0.7549
24203SOL    HW284669   6.688   8.105   4.417 -1.4586 -1.2846  0.8141
24204SOL     OW84670   9.577   5.240   6.030  0.8950  0.5180  0.0882
24204SOL    HW184671   9.586   5.175   6.106  0.0870  1.6419  1.1568
24204SOL    HW284672   9.651   5.223   5.964  1.1508 -0.9772  0.7215
24205SOL     OW84673   8.609   2.852   1.741 -0.1916  0.4059  0.2689
24205SOL    HW184674   8.629   2.948   1.726  1.0235 -0.1421 -1.7131
24205SOL    HW284675   8.550   2.818   1.668 -1.6688 -0.0512  1.6474
24206SOL     OW84676   2.668   8.260   6.532  0.0544  0.6612 -0.2163
24206SOL    HW184677   2.596   8.330   6.527 -0.5520  0.1878  1.5047
24206SOL    HW284678   2.727   8.279   6.611  0.3046 -0.3777 -0.1464
24207SOL     OW84679   6.917   0.782   8.959 -0.2397  0.2499 -0.3370
24207SOL    HW184680   6.831   0.802   9.005 -0.6768 -0.6643 -0.7450
24207SOL    HW284681   6.900   0.726   8.878  0.6945  0.4197 -0.6665
24208SOL     OW84682   2.738   5.998   9.969 -1.0445  0.0704 -0.0601
24208SOL    HW184683   2.758   5.998   9.871 -1.4047 -0.0536 -0.1314
24208SOL    HW284684   2.720   6.092   9.998  2.1093  0.5709  0.5093
24209SOL     OW84685   7.684   7.359   7.199 -0.1182  0.3295 -0.2512
24209SOL    HW184686   7.602   7.317   7.161  0.3296  0.0154 -0.8732
24209SOL    HW284687   7.759   7.355   7.132  0.5676  0.1156  0.5110
24210SOL     OW84688   7.384   9.516   4.090 -0.2804  0.2877 -0.2200
24210SOL    HW184689   7.341   9.481   4.007  0.8438  0.0177 -0.6867
24210SOL    HW284690   7.380   9.445   4.161  0.1238 -0.0266 -0.5130
24211SOL     OW84691   9.114   9.005  10.027  0.4854  0.1399 -0.3236
24211SOL    HW184692   9.127   8.986   9.930 -1.7210  2.6636 -1.1878
24211SOL    HW284693   9.188   9.065  10.059  2.4065 -2.3954  0.1492
24212SOL     OW84694   8.560   6.202   7.869 -0.1522 -0.2770  0.4278
24212SOL    HW184695   8.602   6.139   7.805  0.2323  1.1070 -0.7074
24212SOL    HW284696   8.614   6.206   7.953  1.1599  0.3377 -0.4309
24213SOL     OW84697   5.572   9.476   7.895 -1.0718  0.3676  0.1237
24213SOL    HW184698   5.482   9.439   7.917 -1.9482  2.3528  0.0413
24213SOL    HW284699   5.597   9.546   7.962  0.3837 -0.1068  0.1014
24214SOL     OW84700   8.443   7.813   8.237  0.0383 -0.0904  0.1992
24214SOL    HW184701   8.371   7.851   8.296  0.9745  0.8762  0.7522
24214SOL    HW284702   8.412   7.814   8.142 -0.5456  0.6535  0.3909
24215SOL     OW84703   9.936   1.019   4.434 -0.3940  0.2277 -0.0455
24215SOL    HW184704   9.942   1.113   4.466  0.6540  0.5743 -1.2001
24215SOL    HW284705   9.922   1.018   4.335  0.9569 -0.8145 -0.2595
24216SOL     OW84706   0.063   1.036   2.125 -0.1352 -0.0466 -0.2502
24216SOL    HW184707  -0.002   1.109   2.101 -0.0667 -0.1046 -0.6108
24216SOL    HW284708   0.047   0.957   2.066 -1.0014 -0.7670  0.9291
24217SOL     OW84709   8.837   9.770   0.476 -0.4683  0.3250  0.0944
24217SOL    HW184710   8.900   9.828   0.528 -1.2954  2.2353 -0.9895
24217SOL    HW284711   8.760   9.744   0.534  0.2843 -0.3443  0.8107
24218SOL     OW84712   9.145   0.185   6.753 -0.1043  0.8419 -0.0468
24218SOL    HW184713   9.088   0.125   6.809 -0.1334  1.8954  1.0788
24218SOL    HW284714   9.164   0.269   6.804  3.7500 -0.1357  0.2250
24219SOL     OW84715   8.214   6.138   6.466 -0.3558 -0.1818  0.0956
24219SOL    HW184716   8.247   6.158   6.373  1.3780  1.1832  0.9762
24219SOL    HW284717   8.273   6.185   6.532 -0.5649 -2.5223  1.9592
24220SOL     OW84718   3.414   3.089   7.307  0.5497 -0.2142 -0.9976
24220SOL    HW184719   3.500   3.041   7.288  0.5665 -0.6951  0.1938
24220SOL    HW284720   3.357   3.031   7.365  1.1162  1.7443  1.5893
24221SOL     OW84721   0.634   3.003   2.330 -0.2435  0.6518  0.5281
24221SOL    HW184722   0.717   3.026   2.280  1.4491 -0.7610  2.5831
24221SOL    HW284723   0.555   3.006   2.268  1.4388  1.2568 -1.6311
24222SOL     OW84724   6.813   6.721   7.746 -0.8983 -0.4276  0.4844
24222SOL    HW184725   6.895   6.772   7.720 -0.5138 -0.1519  2.1735
24222SOL    HW284726   6.806   6.638   7.691 -0.2990  0.2957 -0.6973
24223SOL     OW84727   2.818   0.739   5.257 -0.3290  0.9001  0.3730
24223SOL    HW184728   2.744   0.783   5.308  0.6251  1.3094  1.4371
24223SOL    HW284729   2.904   0.750   5.307  0.4299  0.3029 -0.7700
24224SOL     OW84730   4.157   1.585   1.047  0.5085  0.3232  0.5235
24224SOL    HW184731   4.170   1.507   0.986  0.4216 -0.7211  1.8270
24224SOL    HW284732   4.097   1.652   1.002  0.1692 -0.5848 -0.4047
24225SOL     OW84733   6.983   1.713   9.858 -0.1366 -0.7042 -0.3747
24225SOL    HW184734   7.082   1.715   9.867 -0.0799  2.8331 -0.8778
24225SOL    HW284735   6.942   1.772   9.927 -1.6831  0.2967 -2.0994
24226SOL     OW84736   8.897   1.199   6.115  0.6414  0.2599 -0.2783
24226SOL    HW184737   8.805   1.232   6.134  0.0890 -0.2216 -2.0015
24226SOL    HW284738   8.964   1.271   6.135  0.1361 -0.1812  3.2661
24227SOL     OW84739   2.514   2.100   8.160  0.4316 -0.4036 -0.1104
24227SOL    HW184740   2.507   2.005   8.190 -0.9900 -0.4222 -0.4373
24227SOL    HW284741   2.472   2.109   8.069 -1.4388  0.9404  0.8671
24228SOL     OW84742   4.640   4.139   1.247  0.3743 -0.3506 -0.6154
24228SOL    HW184743   4.548   4.178   1.255  0.2642 -0.2399 -2.2076
24228SOL    HW284744   4.658   4.117   1.151  1.7226 -1.0867 -0.2003
24229SOL     OW84745   4.278   3.263   5.968 -0.1875 -0.0131 -0.0558
24229SOL    HW184746   4.353   3.198   5.952 -0.6076 -0.6365  0.5043
24229SOL    HW284747   4.284   3.299   6.061 -0.2434  0.3893 -0.2034
24230SOL     OW84748   1.757   7.533   7.087 -0.2976 -0.0310  0.4096
24230SOL    HW184749   1.823   7.561   7.017  0.2284 -2.5283 -0.1594
24230SOL    HW284750   1.722   7.614   7.134 -0.0954  1.6492 -2.2199
24231SOL     OW84751   3.869   0.248   6.939  0.1204  0.3079 -0.0482
24231SOL    HW184752   3.945   0.188   6.915 -0.0667 -0.5005  1.3525
24231SOL    HW284753   3.892   0.342   6.914  2.0093  0.2282  1.2908
24232SOL     OW84754   0.180   5.447   5.100  0.5496  0.0995 -0.2414
24232SOL    HW184755   0.113   5.406   5.038 -1.1606  0.8431  1.0771
24232SOL    HW284756   0.254   5.382   5.116 -1.4351 -2.0040  0.7467
24233SOL     OW84757   2.878   8.025   4.028  0.4781 -0.3331  0.2937
24233SOL    HW184758   2.930   7.939   4.028  0.9067 -0.0859  1.7274
24233SOL    HW284759   2.939   8.100   4.001  0.2281 -0.3973 -0.4669
24234SOL     OW84760   8.005   9.923   5.031 -0.3443 -0.0192  0.2826
24234SOL    HW184761   7.953   9.839   5.043  0.0763 -0.4489 -0.8538
24234SOL    HW284762   7.945   9.996   4.998 -0.2196 -0.5452 -1.1470
24235SOL     OW84763   4.407   4.105   4.050 -0.6395  0.6890 -0.4440
24235SOL    HW184764   4.445   4.021   4.087 -1.0930  0.2694 -0.9257
24235SOL    HW284765   4.395   4.172   4.124  0.7668  0.7362 -0.2456
24236SOL     OW84766   9.900   6.066   4.188 -0.0240  0.2427 -0.1688
24236SOL    HW184767   9.993   6.067   4.224  0.8272 -0.5104 -2.2607
24236SOL    HW284768   9.867   5.971   4.183  0.2034  0.2431 -2.1078
24237SOL     OW84769   0.408   7.340   9.423 -0.0384  0.5669 -0.4808
24237SOL    HW184770   0.434   7.317   9.517  0.0001  1.4236 -0.2689
24237SOL    HW284771   0.476   7.303   9.360 -0.6504 -0.9466 -0.2476
24238SOL     OW84772   4.213   3.665   1.941  0.8581 -0.1991  0.0471
24238SOL    HW184773   4.204   3.703   2.034  0.7525  3.3269 -1.3173
24238SOL    HW284774   4.308   3.644   1.923  0.9389 -0.5118  0.8291
24239SOL     OW84775   5.892   2.823   8.923  0.4448 -0.7777  0.4725
24239SOL    HW184776   5.857   2.791   9.010 -0.9669  0.3546  0.3344
24239SOL    HW284777   5.822   2.810   8.852  1.2892 -0.9666 -0.3367
24240SOL     OW84778   9.339   3.867   2.600  0.1724 -0.0233 -0.5634
24240SOL    HW184779   9.420   3.863   2.659 -0.7025 -1.6796  0.5661
24240SOL    HW284780   9.363   3.833   2.509  0.4589 -1.8302  0.1536
24241SOL     OW84781   1.161   4.263   9.484 -0.5428 -0.0093 -0.0004
24241SOL    HW184782   1.249   4.220   9.502 -0.4802  0.0125 -0.2451
24241SOL    HW284783   1.097   4.241   9.557 -0.4693 -0.3989 -0.0527
24242SOL     OW84784   1.970   5.687   4.676  0.0595  0.2766 -0.3566
24242SOL    HW184785   1.878   5.659   4.649 -0.3796  0.4843  0.9012
24242SOL    HW284786   1.974   5.787   4.683  0.1781  0.2262  0.3176
24243SOL     OW84787   0.620   5.214   1.533 -0.6006 -0.2403 -0.6041
24243SOL    HW184788   0.575   5.278   1.595 -0.8354 -1.5671  0.6253
24243SOL    HW284789   0.613   5.248   1.439 -1.0843  1.3097 -0.0200
24244SOL     OW84790   8.020   6.702   8.519 -0.5140  0.1626  0.2788
24244SOL    HW184791   8.094   6.678   8.582 -1.1905  0.6755  1.2843
24244SOL    HW284792   8.057   6.757   8.444  0.0755  0.7139  0.9619
24245SOL     OW84793   1.144   9.399   1.241 -0.8300  0.6204  0.2680
24245SOL    HW184794   1.083   9.323   1.218 -0.1472 -0.2128  1.1845
24245SOL    HW284795   1.150   9.408   1.341 -1.3627  2.2476  0.1628
24246SOL     OW84796   4.298   2.995   7.370  0.1595 -0.2610 -0.4130
24246SOL    HW184797   4.238   2.916   7.362  0.3512 -0.3975 -0.5023
24246SOL    HW284798   4.243   3.077   7.385  0.0150 -0.5841  0.8825
24247SOL     OW84799   0.605   0.508   7.204  0.1704  0.4391  0.5764
24247SOL    HW184800   0.615   0.581   7.136 -0.4979 -0.0312 -0.0363
24247SOL    HW284801   0.534   0.444   7.174  1.8710 -1.3562  0.3138
24248SOL     OW84802   2.924   2.917   1.328 -0.0217  0.1727  0.1702
24248SOL    HW184803   2.948   2.884   1.237  0.6688  2.1288 -0.3946
24248SOL    HW284804   2.825   2.924   1.336 -0.0352  2.1602 -1.2779
24249SOL     OW84805   8.646   1.655   6.670 -0.6974  0.4734  0.4704
24249SOL    HW184806   8.640   1.739   6.616 -0.5535 -1.5851 -2.9235
24249SOL    HW284807   8.571   1.594   6.645  0.0399 -0.9990  1.7892
24250SOL     OW84808   8.464   1.120   1.022 -0.2453  0.7756  0.6620
24250SOL    HW184809   8.439   1.176   0.943 -1.3255  0.7320  0.9693
24250SOL    HW284810   8.423   1.030   1.014 -0.9873  1.0190  1.6399
24251SOL     OW84811   6.665   0.091   5.107 -0.3109  0.1563 -0.0402
24251SOL    HW184812   6.687   0.181   5.145  0.2106 -1.1402  2.8795
24251SOL    HW284813   6.574   0.063   5.140 -1.3861  0.4713 -2.6276
24252SOL     OW84814   6.199   3.668   2.487  0.6999 -0.2308  0.0642
24252SOL    HW184815   6.152   3.666   2.399 -0.2051  0.5826  0.5228
24252SOL    HW284816   6.298   3.672   2.471  0.5062  1.1023 -0.9330
24253SOL     OW84817   4.800   3.467   8.024 -0.7429  0.8569  0.2453
24253SOL    HW184818   4.855   3.393   8.063  1.9817  2.7220  0.1451
24253SOL    HW284819   4.731   3.496   8.090  1.1172  1.2003  2.1090
24254SOL     OW84820   0.269   5.895   0.918 -0.1451  0.7095 -0.2477
24254SOL    HW184821   0.364   5.890   0.887 -0.1663  0.3363 -0.2523
24254SOL    HW284822   0.261   5.966   0.988  0.3229  0.1159  0.4162
24255SOL     OW84823   7.040   8.036   7.703 -0.7372 -0.4762  1.0106
24255SOL    HW184824   7.090   7.989   7.630  1.7696  2.5001  0.7016
24255SOL    HW284825   7.019   7.972   7.777  0.0655 -2.6644 -0.6375
24256SOL     OW84826   9.124   7.071   6.733  0.2114 -0.4271  0.1768
24256SOL    HW184827   9.213   7.025   6.729  0.5358  0.3363 -1.7338
24256SOL    HW284828   9.128   7.145   6.800  1.1311 -0.1596 -0.1665
24257SOL     OW84829   1.868   2.182   1.035  0.3386 -0.1510 -0.0295
24257SOL    HW184830   1.781   2.226   1.055 -0.7275 -1.8368 -0.8572
24257SOL    HW284831   1.902   2.136   1.117  0.6568  0.8246  0.3951
24258SOL     OW84832   0.875   1.288   1.955 -0.3541 -0.2403  0.6764
24258SOL    HW184833   0.901   1.194   1.933  0.3539  0.1159 -0.0320
24258SOL    HW284834   0.898   1.307   2.051 -1.2150 -1.0310  1.0422
24259SOL     OW84835   7.817   1.557   6.418 -0.1993 -0.4788 -0.0873
24259SOL    HW184836   7.740   1.620   6.416 -0.3011 -0.5606  0.8070
24259SOL    HW284837   7.794   1.478   6.476  1.2598  0.4518  1.8256
24260SOL     OW84838   4.899   4.579   8.796 -0.3944 -0.1562 -0.1484
24260SOL    HW184839   4.928   4.552   8.888 -0.1432 -1.9418 -0.7502
24260SOL    HW284840   4.972   4.633   8.753 -0.5351  0.7351  0.7016
24261SOL     OW84841   7.372   2.189   2.479  0.1901  0.4308  0.3760
24261SOL    HW184842   7.421   2.274   2.462  2.1840 -0.6898  0.3649
24261SOL    HW284843   7.308   2.171   2.405 -2.0784  3.1490  1.5916
24262SOL     OW84844   1.804   0.853   9.843  0.1579  0.1753 -0.4612
24262SOL    HW184845   1.881   0.872   9.905  0.7485  1.6382 -1.6125
24262SOL    HW284846   1.739   0.792   9.889  1.1535  0.2973  1.1673
24263SOL     OW84847   7.887   1.345   3.345  0.4318 -0.3364 -0.8394
24263SOL    HW184848   7.806   1.337   3.403  1.3616 -0.9256  0.4143
24263SOL    HW284849   7.860   1.370   3.252 -1.3223 -1.9691 -0.8067
24264SOL     OW84850   3.018   1.170   3.047 -0.5528 -0.2949 -0.3202
24264SOL    HW184851   2.953   1.172   3.122 -0.8750 -1.0487 -0.5750
24264SOL    HW284852   3.108   1.144   3.082 -0.6927 -0.6053 -0.1880
24265SOL     OW84853   1.405   4.129   1.878 -0.1489 -0.1085  0.0431
24265SOL    HW184854   1.454   4.214   1.897 -1.0588  0.5070 -0.3086
24265SOL    HW284855   1.458   4.051   1.910  1.3203  0.5158 -0.8319
24266SOL     OW84856   4.840   5.123   9.017 -0.4378  0.1794  0.0512
24266SOL    HW184857   4.773   5.156   9.083 -0.9206  0.0435 -0.3733
24266SOL    HW284858   4.794   5.077   8.942  0.0295  1.3833 -0.9949
24267SOL     OW84859   6.918   4.608   8.731  0.2562  0.1397 -0.1453
24267SOL    HW184860   6.855   4.536   8.703 -1.0653  1.2689 -0.1409
24267SOL    HW284861   6.906   4.626   8.829  0.4593  0.4838 -0.1859
24268SOL     OW84862   9.608   7.572   4.357  0.3115  0.1565  0.8554
24268SOL    HW184863   9.515   7.595   4.327  0.6513  1.3386  0.6619
24268SOL    HW284864   9.619   7.473   4.358  0.3293  0.0187 -3.1138
24269SOL     OW84865   4.324   3.568   4.092 -0.1820 -0.1659 -0.2450
24269SOL    HW184866   4.240   3.529   4.130  1.0371 -3.0756 -0.4378
24269SOL    HW284867   4.320   3.563   3.992  0.3913 -0.7066 -0.2436
24270SOL     OW84868   8.024   1.813   2.791 -0.3510 -0.4882  0.3200
24270SOL    HW184869   8.080   1.833   2.871 -1.9364 -1.0666  1.6042
24270SOL    HW284870   7.994   1.899   2.749 -0.0901 -0.1805  0.7605
24271SOL     OW84871   7.525   3.726   3.991  0.5017 -0.5335 -0.2644
24271SOL    HW184872   7.485   3.774   3.913  1.3357 -1.0550 -1.0106
24271SOL    HW284873   7.456   3.665   4.031  0.6365 -1.6845 -1.7614
24272SOL     OW84874   4.497   4.876   3.876  0.2469 -0.2847  0.2882
24272SOL    HW184875   4.491   4.967   3.916 -0.1124  0.4134 -1.2833
24272SOL    HW284876   4.406   4.846   3.847  0.6206 -0.3780 -0.8156
24273SOL     OW84877   4.054   6.774   1.425 -0.2536  0.4653  0.1296
24273SOL    HW184878   4.092   6.716   1.354 -1.2379 -1.1292  0.8842
24273SOL    HW284879   3.972   6.820   1.391 -0.3479  0.2241  0.0378
24274SOL     OW84880   2.072   5.165   4.415 -0.3330  0.1537  0.0576
24274SOL    HW184881   2.102   5.151   4.321  2.0063 -0.8938  0.9254
24274SOL    HW284882   2.047   5.261   4.428 -2.3438 -0.0355 -2.0571
24275SOL     OW84883   5.232   8.426   7.909  0.3478  0.6697  0.7447
24275SOL    HW184884   5.285   8.430   7.825  0.9307  2.8103  1.1890
24275SOL    HW284885   5.135   8.436   7.887  0.1382 -2.3569  0.0228
24276SOL     OW84886   3.593   7.822   0.896 -0.0021  0.0221  0.0405
24276SOL    HW184887   3.662   7.851   0.962  0.4927 -1.3472  0.1391
24276SOL    HW284888   3.621   7.736   0.854 -1.0531  0.0927 -0.8377
24277SOL     OW84889   2.933   4.860   3.017  0.0146 -0.1595  0.4241
24277SOL    HW184890   3.016   4.842   2.964 -0.1207 -0.3815  0.2857
24277SOL    HW284891   2.890   4.943   2.984 -1.5912 -1.7913 -1.7182
24278SOL     OW84892   7.435   6.060   2.238 -0.4856  0.6148  0.3831
24278SOL    HW184893   7.461   5.990   2.305 -1.5252  0.6965  0.8729
24278SOL    HW284894   7.517   6.110   2.209  0.2233 -0.6234  0.2259
24279SOL     OW84895   8.065   7.881   9.890 -0.3549 -0.8119  0.0154
24279SOL    HW184896   8.099   7.837   9.972 -1.1508  1.0569  1.3775
24279SOL    HW284897   7.980   7.837   9.861  0.1007 -1.6857 -0.0075
24280SOL     OW84898   8.246   3.950   0.820 -0.1960  1.0378  0.1891
24280SOL    HW184899   8.305   3.883   0.775 -1.1287 -0.6817  1.4330
24280SOL    HW284900   8.285   3.974   0.909 -0.9067  0.5271  0.6511
24281SOL     OW84901   5.984   7.139   4.423 -0.3230 -0.2540  0.4892
24281SOL    HW184902   6.016   7.099   4.337  0.7379  0.8540  0.3471
24281SOL    HW284903   6.048   7.116   4.497 -0.6711 -0.3301  0.7671
24282SOL     OW84904   7.986   5.054   1.709  0.0811  0.1701 -0.2379
24282SOL    HW184905   8.012   5.126   1.773 -1.3936  0.3102  0.2237
24282SOL    HW284906   7.937   5.094   1.632 -1.9368 -0.4700  0.6876
24283SOL     OW84907   7.048   0.127   8.029  0.2143  0.4767 -0.6087
24283SOL    HW184908   7.135   0.077   8.031 -0.1923 -0.2551 -0.7394
24283SOL    HW284909   7.039   0.182   8.112  0.1105 -0.6566  0.1415
24284SOL     OW84910   9.056   0.587   5.452  0.3048 -0.0111  0.3551
24284SOL    HW184911   9.107   0.673   5.453  0.8583 -0.2826 -1.8498
24284SOL    HW284912   8.966   0.604   5.411  1.0694 -0.8001 -1.7127
24285SOL     OW84913   7.785   7.651   2.603 -0.5432 -0.4417 -0.1310
24285SOL    HW184914   7.717   7.722   2.623  0.2461  0.6704 -1.3323
24285SOL    HW284915   7.839   7.634   2.685  2.7160  4.1470 -1.1560
24286SOL     OW84916   3.156   6.632   8.822 -0.0392  0.1190  0.5636
24286SOL    HW184917   3.099   6.702   8.779  0.0824  0.2881  0.6747
24286SOL    HW284918   3.103   6.583   8.891 -0.4572 -0.6711 -0.3148
24287SOL     OW84919   0.150   3.439   4.174 -0.6534 -0.2204  0.0638
24287SOL    HW184920   0.237   3.391   4.181 -0.6000  0.1470  1.9342
24287SOL    HW284921   0.155   3.506   4.100  0.0942 -1.3360 -0.9110
24288SOL     OW84922   2.503   7.111   1.252 -0.6081 -0.0077 -0.2055
24288SOL    HW184923   2.552   7.025   1.268  0.5178  0.6272 -0.2065
24288SOL    HW284924   2.415   7.091   1.208 -0.9272 -1.2566  0.9567
24289SOL     OW84925   8.351   9.144   8.658  0.1714  0.1885 -0.2710
24289SOL    HW184926   8.349   9.239   8.627 -0.1239  0.7353  1.3456
24289SOL    HW284927   8.291   9.088   8.601 -0.4276  1.1751 -0.6205
24290SOL     OW84928   8.198   1.174   4.915 -0.4238 -0.1259 -0.2902
24290SOL    HW184929   8.264   1.248   4.903 -0.0630 -0.3122  0.5300
24290SOL    HW284930   8.232   1.109   4.983 -0.7258 -1.0727 -1.0397
24291SOL     OW84931   0.745   9.491   5.595  0.0661 -0.2917  0.0883
24291SOL    HW184932   0.764   9.576   5.642  0.5434  0.7346 -1.8955
24291SOL    HW284933   0.646   9.477   5.589 -0.0754  1.2542 -1.4988
24292SOL     OW84934   4.926   2.881   0.042  0.2431 -0.5258  0.0614
24292SOL    HW184935   4.832   2.862   0.072  0.5635 -2.3185 -0.0401
24292SOL    HW284936   4.988   2.873   0.120  0.3358  0.6237  0.1197
24293SOL     OW84937   7.472   1.899   0.651  0.2303  0.4242 -0.8236
24293SOL    HW184938   7.481   1.984   0.704 -0.4024 -0.1233  0.1705
24293SOL    HW284939   7.474   1.921   0.553  2.5760  1.3241 -0.6074
24294SOL     OW84940   9.394   9.471   1.179 -0.2524 -0.1120  0.2707
24294SOL    HW184941   9.436   9.416   1.252 -0.4072 -0.4071  0.1414
24294SOL    HW284942   9.465   9.517   1.126 -0.0509 -1.0431 -0.2881
24295SOL     OW84943   7.802   5.424   1.443  0.1593  0.1765  0.5362
24295SOL    HW184944   7.874   5.492   1.434 -0.5071  1.2511  2.8435
24295SOL    HW284945   7.713   5.469   1.432 -0.2432 -0.6041  0.5690
24296SOL     OW84946   8.459   4.407   7.730  0.3238 -0.0111 -0.1707
24296SOL    HW184947   8.515   4.331   7.764  0.3446  0.4942  0.9174
24296SOL    HW284948   8.499   4.441   7.645  0.8252 -0.6323 -0.1895
24297SOL     OW84949   2.994   8.066   6.394 -0.1443 -1.0805 -0.5606
24297SOL    HW184950   2.963   8.161   6.389 -0.8393 -1.2957 -0.4021
24297SOL    HW284951   2.939   8.016   6.460 -1.6480 -2.2984 -2.6679
24298SOL     OW84952   1.001   9.253   6.364  0.1164  0.2457  0.3097
24298SOL    HW184953   0.953   9.243   6.277 -2.3904 -0.0014  1.6516
24298SOL    HW284954   1.091   9.294   6.349 -0.8738  1.5791 -2.2147
24299SOL     OW84955   7.281   9.984   8.082  0.4975  0.3161  0.5750
24299SOL    HW184956   7.365  10.014   8.035  0.8206  1.1720  1.6667
24299SOL    HW284957   7.287   9.887   8.103  0.3078 -0.0931 -1.2467
24300SOL     OW84958   3.097   9.702   7.205  0.4764 -0.0705  0.2253
24300SOL    HW184959   3.166   9.660   7.146 -0.0095  0.1899 -0.5252
24300SOL    HW284960   3.102   9.802   7.196 -0.8528 -0.0807 -0.8165
24301SOL     OW84961   4.113   0.879   7.971 -0.5376 -0.3464 -0.0936
24301SOL    HW184962   4.176   0.950   8.001  1.0310 -1.3330 -0.9528
24301SOL    HW284963   4.150   0.834   7.889 -1.7748 -1.7520  0.0939
24302SOL     OW84964   3.174   6.515   6.325  0.2179 -0.2276  0.3058
24302SOL    HW184965   3.265   6.553   6.341 -0.1247  1.0807 -0.7878
24302SOL    HW284966   3.174   6.461   6.242  0.2636 -1.1548  0.9037
24303SOL     OW84967   6.139   5.881   9.577  0.5758  0.0314 -0.4149
24303SOL    HW184968   6.157   5.837   9.489  1.9936  0.5104 -0.3904
24303SOL    HW284969   6.054   5.846   9.615  1.1142 -1.9093 -0.9003
24304SOL     OW84970   0.260   9.396   7.195 -0.4418 -0.2377  0.1237
24304SOL    HW184971   0.237   9.421   7.289  2.3662  3.2153  0.0097
24304SOL    HW284972   0.352   9.357   7.193 -1.1463 -1.8609 -0.9788
24305SOL     OW84973   0.214   8.692   3.847 -0.7145  0.2639 -0.2067
24305SOL    HW184974   0.124   8.652   3.830 -0.2168 -0.7823 -0.4424
24305SOL    HW284975   0.277   8.663   3.774 -0.0523  0.5353  0.2550
24306SOL     OW84976   1.007   6.637   4.249  0.3253 -0.6350 -0.0606
24306SOL    HW184977   1.015   6.658   4.152  1.3221 -1.6083 -0.2019
24306SOL    HW284978   1.049   6.711   4.303 -1.0555  0.3612 -0.3096
24307SOL     OW84979   5.778   4.283   0.888  0.5963  0.3554  0.2470
24307SOL    HW184980   5.733   4.201   0.923  0.3872  0.3329 -0.0719
24307SOL    HW284981   5.731   4.314   0.805  0.7717  0.7046  0.2772
24308SOL     OW84982   7.885   4.068   6.849  1.0475  0.1196  0.4292
24308SOL    HW184983   7.799   4.023   6.823  1.6385 -1.1534  0.6566
24308SOL    HW284984   7.872   4.168   6.847 -0.1263 -0.0365 -0.5815
24309SOL     OW84985   2.404   5.554   1.361  0.2069  1.0559  0.2018
24309SOL    HW184986   2.474   5.613   1.319 -1.0766  2.3227 -0.1745
24309SOL    HW284987   2.319   5.605   1.371 -0.3343 -0.1292  1.7505
24310SOL     OW84988   1.148   6.204   7.225 -0.5245 -0.3840  0.4524
24310SOL    HW184989   1.066   6.147   7.228 -1.5685  1.1329  1.3389
24310SOL    HW284990   1.146   6.270   7.300  0.3662  1.2429 -0.9187
24311SOL     OW84991   1.358   3.178   3.455  0.2232  0.0287 -0.6263
24311SOL    HW184992   1.446   3.154   3.414  1.8055  3.2768  0.7060
24311SOL    HW284993   1.320   3.098   3.502  1.9351 -1.6947 -2.0840
24312SOL     OW84994   8.434   1.314   8.099 -0.1651 -0.7495 -0.1941
24312SOL    HW184995   8.423   1.412   8.114  0.1594 -1.0833  2.3993
24312SOL    HW284996   8.351   1.277   8.056 -1.9352 -0.0389  2.5109
24313SOL     OW84997   6.544   3.650   9.764  0.3321  0.4858 -0.3467
24313SOL    HW184998   6.503   3.706   9.693  0.9313  2.3821  0.7564
24313SOL    HW284999   6.567   3.559   9.727 -0.7396  0.9294 -2.1265
24314SOL     OW85000   1.988   4.205   2.834  1.0835 -0.3487  0.6067
24314SOL    HW185001   2.084   4.191   2.856  1.4458  1.2012  0.0610
24314SOL    HW285002   1.971   4.303   2.819 -0.3866 -0.7092 -0.1618
24315SOL     OW85003   8.525   4.691   6.198 -0.2523  0.3666 -0.3190
24315SOL    HW185004   8.454   4.644   6.146  1.5166 -1.4097 -1.2236
24315SOL    HW285005   8.525   4.788   6.174 -0.0648 -0.2450 -3.0463
24316SOL     OW85006   6.294   8.731   8.407 -0.0830 -0.0122 -0.5817
24316SOL    HW185007   6.230   8.793   8.362 -0.4520  0.8416  1.0917
24316SOL    HW285008   6.302   8.756   8.503 -0.4409 -2.7612  0.1783
24317SOL     OW85009   2.370   9.178   4.568  0.3378 -0.2375  0.1151
24317SOL    HW185010   2.284   9.149   4.526  0.9302 -0.7808 -0.7273
24317SOL    HW285011   2.429   9.099   4.582  1.5909  0.3957 -1.3638
24318SOL     OW85012   4.840   0.592   7.386  0.4850  0.2122 -0.4326
24318SOL    HW185013   4.813   0.518   7.447 -1.6678  1.5441  0.2828
24318SOL    HW285014   4.842   0.558   7.292  0.6195 -1.0250  0.0084
24319SOL     OW85015   0.300   3.684   9.213  0.5012  0.2447 -0.1679
24319SOL    HW185016   0.364   3.641   9.276 -1.8510 -2.7872  0.2715
24319SOL    HW285017   0.350   3.723   9.136  2.8230 -3.1314 -0.4914
24320SOL     OW85018   0.008   1.513   1.441  0.7136 -0.6538 -0.2432
24320SOL    HW185019   0.025   1.571   1.520  0.1533  1.1011 -1.3797
24320SOL    HW285020  -0.091   1.502   1.428  0.7750  0.0880 -1.4108
24321SOL     OW85021   8.120   6.904   6.174  0.2065  0.2923 -0.0991
24321SOL    HW185022   8.189   6.833   6.164 -0.4786 -0.9102  3.2339
24321SOL    HW285023   8.040   6.880   6.120  0.4346 -0.8833  0.0651
24322SOL     OW85024   1.329   1.498   7.186 -0.0093 -0.0030 -0.3643
24322SOL    HW185025   1.357   1.588   7.151  0.8561 -0.9864 -2.3409
24322SOL    HW285026   1.298   1.506   7.280  2.3858  1.9753  0.3050
24323SOL     OW85027   0.959   1.858   0.439  0.6549  0.4379  0.5079
24323SOL    HW185028   1.027   1.931   0.448  2.7704 -1.1492 -1.9276
24323SOL    HW285029   0.999   1.772   0.470 -1.0226 -0.1515  1.1087
24324SOL     OW85030   1.477   6.851   0.095 -0.1713 -0.8715  0.0494
24324SOL    HW185031   1.570   6.827   0.069 -0.4997  0.0607 -2.0736
24324SOL    HW285032   1.413   6.790   0.049 -0.7557  0.6159 -1.1287
24325SOL     OW85033   1.044   2.130   5.855  0.2043  0.2351 -0.3540
24325SOL    HW185034   0.975   2.063   5.883  0.1210  0.1827 -0.6836
24325SOL    HW285035   1.130   2.083   5.833  0.5063  0.3516  0.5723
24326SOL     OW85036   7.556   2.987   8.209  0.1741 -0.2141  0.2067
24326SOL    HW185037   7.645   2.975   8.164 -1.0275 -1.7703 -1.8443
24326SOL    HW285038   7.497   2.909   8.187 -1.2021  0.0674  2.7852
24327SOL     OW85039   4.814   5.729   0.405 -0.1832  0.4490 -0.4598
24327SOL    HW185040   4.909   5.712   0.429 -0.8484 -1.8619  0.7706
24327SOL    HW285041   4.806   5.747   0.307  1.5280  0.7848 -0.5413
24328SOL     OW85042   2.268   0.776   6.011  0.6929 -0.0663 -0.2078
24328SOL    HW185043   2.220   0.742   5.931 -1.8412  2.0333  0.3414
24328SOL    HW285044   2.220   0.857   6.047  2.2398 -0.4451  2.8935
24329SOL     OW85045   1.999   0.625   8.894  0.4009  0.1742 -0.1389
24329SOL    HW185046   1.959   0.707   8.853  2.9773  0.9985 -1.1161
24329SOL    HW285047   1.927   0.572   8.938 -1.4240  2.6576  0.0344
24330SOL     OW85048   4.974   9.167   7.713  0.2985 -0.0649  0.1383
24330SOL    HW185049   5.042   9.169   7.639  0.7820  1.6523  0.6118
24330SOL    HW285050   4.889   9.128   7.678  0.1645  1.7285 -1.6754
24331SOL     OW85051   1.349   1.226   0.312 -0.1894  0.5072  0.1121
24331SOL    HW185052   1.292   1.158   0.358 -1.0517  0.6414 -0.7386
24331SOL    HW285053   1.314   1.241   0.220  3.4488 -2.2101 -1.8562
24332SOL     OW85054   4.317   6.265   4.324  0.1457  0.5242  0.1619
24332SOL    HW185055   4.233   6.247   4.272  0.3243  1.1901 -0.3603
24332SOL    HW285056   4.338   6.362   4.322  0.7632  0.4051  0.5548
24333SOL     OW85057   8.987   0.515   3.891  0.1883  0.1788 -0.4714
24333SOL    HW185058   8.914   0.581   3.877  0.5121  0.9860  1.4820
24333SOL    HW285059   8.949   0.430   3.927  0.0877  0.2558 -0.3955
24334SOL     OW85060   7.895   6.081   0.296 -0.7533 -0.2648 -0.6242
24334SOL    HW185061   7.833   6.034   0.359  1.1475  0.7015  2.0482
24334SOL    HW285062   7.925   6.167   0.337  1.1696  0.0068 -2.5327
24335SOL     OW85063   8.907   6.129   0.390 -0.0682 -0.5822 -0.7813
24335SOL    HW185064   8.872   6.049   0.441 -0.2578 -0.9982 -1.5513
24335SOL    HW285065   9.003   6.115   0.368 -0.3183 -0.9865 -1.6514
24336SOL     OW85066   3.053   2.938   4.296 -0.1223  0.4399 -0.2522
24336SOL    HW185067   3.014   2.973   4.211 -1.1124  0.2108  0.1021
24336SOL    HW285068   3.044   3.007   4.368 -1.6446 -0.3414  0.3245
24337SOL     OW85069   4.648   5.047   3.170 -0.1849 -0.0468 -0.4291
24337SOL    HW185070   4.691   4.997   3.245  0.1736  0.5635 -0.2280
24337SOL    HW285071   4.677   5.008   3.083  0.7219  0.3241 -0.2927
24338SOL     OW85072   7.448   2.991   4.488  0.1285  0.1803 -0.1840
24338SOL    HW185073   7.463   3.011   4.585  0.7493  2.2953 -0.7054
24338SOL    HW285074   7.512   3.043   4.432 -1.7484  0.7634 -1.8549
24339SOL     OW85075   1.547   6.821   2.428  0.1150  0.6687 -0.5838
24339SOL    HW185076   1.544   6.848   2.331  0.3189  0.8304 -0.5452
24339SOL    HW285077   1.610   6.880   2.477 -0.8596  1.3213 -0.1129
24340SOL     OW85078   9.827   2.710   4.351 -0.2321  0.1644  0.3697
24340SOL    HW185079   9.778   2.634   4.307  0.4707  0.2459 -0.5559
24340SOL    HW285080   9.809   2.794   4.301  3.6204 -0.3735 -2.1227
24341SOL     OW85081   1.549   5.024   3.742 -0.5045 -0.0981 -0.3774
24341SOL    HW185082   1.630   4.994   3.792 -0.4266 -0.6587 -0.8298
24341SOL    HW285083   1.472   5.032   3.804 -0.3752 -0.6551 -0.1466
24342SOL     OW85084   6.867   5.355   1.025 -0.3399  0.2224  0.5613
24342SOL    HW185085   6.843   5.258   1.018 -1.1250  0.5770 -2.2096
24342SOL    HW285086   6.785   5.411   1.018  0.6280  1.2675 -4.2225
24343SOL     OW85087   5.500   5.655   1.589 -0.1093 -0.7473 -0.4866
24343SOL    HW185088   5.488   5.715   1.510  0.6873 -1.5206 -1.2038
24343SOL    HW285089   5.508   5.561   1.558  1.0513 -0.9666  0.4559
24344SOL     OW85090   9.554   4.177   5.642  0.3304  0.1843  0.2557
24344SOL    HW185091   9.582   4.266   5.606 -0.2766  0.5345  0.6377
24344SOL    HW285092   9.626   4.110   5.625  0.7057  0.7033 -0.2133
24345SOL     OW85093   7.385   1.273   7.710 -0.0735 -0.5978 -0.6235
24345SOL    HW185094   7.466   1.226   7.673  0.6998  0.9841 -0.9824
24345SOL    HW285095   7.413   1.332   7.785 -0.9509 -0.2295 -0.5847
24346SOL     OW85096   3.294   5.609   6.553 -0.2431  0.1105  0.6524
24346SOL    HW185097   3.207   5.641   6.515  0.2435  1.5407  0.6883
24346SOL    HW285098   3.276   5.541   6.624 -1.1755 -2.4779 -1.9479
24347SOL     OW85099   4.898   0.328   1.413 -0.3512 -0.0534  0.0455
24347SOL    HW185100   4.988   0.370   1.425 -0.2872 -0.5420  1.3322
24347SOL    HW285101   4.862   0.300   1.502 -2.4052  1.4383 -0.2576
24348SOL     OW85102   0.282   9.633   2.232  0.3753 -0.2541 -0.3564
24348SOL    HW185103   0.216   9.672   2.296  0.0410 -0.3250 -0.6548
24348SOL    HW285104   0.281   9.685   2.146  1.1246  0.1013 -0.1527
24349SOL     OW85105   3.472   0.920   8.949 -0.3603 -0.3000  0.5465
24349SOL    HW185106   3.436   0.835   8.988  0.9434 -1.8647 -1.5319
24349SOL    HW285107   3.445   0.927   8.853 -0.6438  1.7582  0.7558
24350SOL     OW85108   7.759   8.328   9.789 -0.3479 -0.1545  0.0772
24350SOL    HW185109   7.690   8.375   9.733  0.3661  0.3079 -0.4245
24350SOL    HW285110   7.727   8.323   9.883 -1.4669 -0.7400 -0.3261
24351SOL     OW85111   9.760   9.586   1.414  0.2972 -0.4848  0.3782
24351SOL    HW185112   9.676   9.639   1.426  1.1767  1.0654 -0.0632
24351SOL    HW285113   9.791   9.594   1.319  1.4694 -0.2123  0.7725
24352SOL     OW85114   7.249   3.034   5.538  0.0323  0.3169  0.2708
24352SOL    HW185115   7.256   3.091   5.456 -0.2111  0.0995  0.0981
24352SOL    HW285116   7.274   3.088   5.618  1.0592  0.3088 -0.0304
24353SOL     OW85117   0.961   8.088   4.169 -1.0086 -0.1108 -0.4079
24353SOL    HW185118   0.878   8.143   4.157 -1.8155 -0.8563  1.6208
24353SOL    HW285119   0.964   8.051   4.262  0.6121 -1.7172 -1.0618
24354SOL     OW85120   5.754   9.676   8.902  0.6750  0.1580  0.2195
24354SOL    HW185121   5.845   9.649   8.870  0.6559  0.0605  0.2501
24354SOL    HW285122   5.715   9.605   8.960 -0.8972 -1.4536 -2.6456
24355SOL     OW85123   1.963   1.660   3.082  0.5888  0.6128  0.0012
24355SOL    HW185124   1.925   1.571   3.059  1.7067  0.7658 -2.6601
24355SOL    HW285125   2.031   1.650   3.155  0.3247 -0.6446  0.0778
24356SOL     OW85126   1.482   6.998   1.914 -0.5055  0.0923 -0.0260
24356SOL    HW185127   1.399   7.051   1.896 -0.0818  1.0377  0.7712
24356SOL    HW285128   1.537   6.994   1.831 -0.4706  1.0344 -0.0587
24357SOL     OW85129   8.594   8.841   0.960 -0.3709  0.3068 -0.1617
24357SOL    HW185130   8.664   8.792   0.908  0.4980  0.4621  0.8383
24357SOL    HW285131   8.563   8.784   1.036  0.1787  1.0456  0.6231
24358SOL     OW85132   2.885   9.256   4.039 -0.4595  0.4452  0.5081
24358SOL    HW185133   2.944   9.218   4.110 -1.0494  0.5363  1.0502
24358SOL    HW285134   2.875   9.190   3.965  1.4307  0.9559 -0.2310
24359SOL     OW85135   0.273   4.686   6.452  0.5900 -0.4987 -0.3022
24359SOL    HW185136   0.273   4.705   6.551  1.6382 -0.5064 -0.2934
24359SOL    HW285137   0.348   4.624   6.430  1.7436  1.2331 -1.4100
24360SOL     OW85138   3.209   2.817   3.121  0.1669  0.1322 -0.4418
24360SOL    HW185139   3.166   2.906   3.138  0.1303  0.6179 -2.9025
24360SOL    HW285140   3.276   2.798   3.192 -1.8249  0.8276  1.6832
24361SOL     OW85141   8.621   8.003   0.311 -0.0568  0.5786 -0.0496
24361SOL    HW185142   8.603   7.925   0.371 -1.0817  1.3103  0.6123
24361SOL    HW285143   8.687   7.976   0.240  0.8585 -0.4056  1.1544
24362SOL     OW85144   4.713   2.398   6.902  0.2600 -0.5897 -0.0210
24362SOL    HW185145   4.808   2.377   6.927  0.5591  0.4391 -0.2921
24362SOL    HW285146   4.708   2.488   6.860 -0.7404 -0.9388 -0.6711
24363SOL     OW85147   3.821   5.212   6.608 -0.3889 -0.0607  0.5125
24363SOL    HW185148   3.893   5.277   6.583 -1.6611  1.0329 -0.3624
24363SOL    HW285149   3.807   5.213   6.707 -2.3329  3.0844  0.2486
24364SOL     OW85150   8.810   2.713  10.047  0.3071 -0.1372 -0.1797
24364SOL    HW185151   8.894   2.765  10.031  1.0045 -1.2075 -0.0610
24364SOL    HW285152   8.742   2.737   9.978  1.3974 -0.7010 -1.4818
24365SOL     OW85153   6.274   8.717   3.204  0.3840 -0.0022 -0.2378
24365SOL    HW185154   6.233   8.775   3.133 -0.1132  2.1506  1.7560
24365SOL    HW285155   6.201   8.678   3.261  0.8135 -1.3279 -0.5710
24366SOL     OW85156   8.126   2.748   7.903 -0.0276  0.4628  0.6330
24366SOL    HW185157   8.219   2.730   7.934  0.0077  1.1155  0.9230
24366SOL    HW285158   8.061   2.720   7.974 -0.0924 -0.7313  0.1038
24367SOL     OW85159   1.516   7.369   1.364  0.0106 -0.1567 -0.0782
24367SOL    HW185160   1.444   7.419   1.411  1.0775 -0.5942  2.0808
24367SOL    HW285161   1.605   7.408   1.388  0.6548 -1.2563 -0.6509
24368SOL     OW85162   0.399   6.341   0.303 -0.5451  0.1674 -0.1736
24368SOL    HW185163   0.340   6.320   0.380 -1.0556 -0.3387 -0.6952
24368SOL    HW285164   0.373   6.284   0.225  1.1939 -0.7026 -0.1525
24369SOL     OW85165   9.598   3.246   0.546 -0.0788  0.3085  0.2340
24369SOL    HW185166   9.640   3.318   0.491 -1.1506  0.8955  0.1557
24369SOL    HW285167   9.644   3.240   0.634 -0.1779  1.3247  0.3640
24370SOL     OW85168   0.456   7.037   9.169 -0.2001 -0.1660  0.2035
24370SOL    HW185169   0.548   7.062   9.140 -0.7256  0.6747 -0.7706
24370SOL    HW285170   0.427   6.954   9.121 -1.0715  1.2249 -1.7181
24371SOL     OW85171   6.686   7.255   7.726 -0.6366 -0.5369 -0.8295
24371SOL    HW185172   6.719   7.215   7.640  1.0025 -1.2703  0.1192
24371SOL    HW285173   6.606   7.312   7.707  1.5440  1.8957 -3.3825
24372SOL     OW85174   2.145   3.767   7.140 -0.6528 -0.0751 -0.2403
24372SOL    HW185175   2.128   3.840   7.207  1.2673  0.4884 -0.3440
24372SOL    HW285176   2.178   3.685   7.187 -0.9147 -0.2392 -0.3381
24373SOL     OW85177   4.687   8.745   8.597 -0.3437 -0.0202 -0.2617
24373SOL    HW185178   4.675   8.674   8.527 -0.4061 -0.4328  0.1642
24373SOL    HW285179   4.613   8.738   8.664 -0.7876  0.9462 -0.6400
24374SOL     OW85180   0.433   8.772   8.529 -0.0102 -0.0299  0.1762
24374SOL    HW185181   0.388   8.731   8.608 -1.3716 -0.0829 -0.6159
24374SOL    HW285182   0.527   8.740   8.524 -0.8272 -2.4860 -0.0092
24375SOL     OW85183   8.248   5.831   1.342 -0.4157  0.2274  0.3751
24375SOL    HW185184   8.286   5.913   1.384  0.0560  0.4230 -0.4249
24375SOL    HW285185   8.307   5.753   1.362 -2.3232 -0.5090  3.5410
24376SOL     OW85186   7.839   9.313   4.517 -0.1203 -0.3937  0.0675
24376SOL    HW185187   7.753   9.337   4.562 -0.0567 -1.1097  0.5824
24376SOL    HW285188   7.916   9.352   4.568 -0.0640 -0.9804  0.4459
24377SOL     OW85189   1.092   2.185   7.259  0.5716  0.0791  0.3676
24377SOL    HW185190   1.038   2.124   7.201  2.2748  0.2253 -1.4167
24377SOL    HW285191   1.036   2.261   7.289 -1.1344 -1.4979  1.2925
24378SOL     OW85192   0.159   1.142   6.851 -0.0368  0.0982 -0.0672
24378SOL    HW185193   0.093   1.075   6.816 -2.4455  1.7034  1.2402
24378SOL    HW285194   0.199   1.192   6.774 -0.9334 -0.3674 -0.8502
24379SOL     OW85195   6.270   2.084   9.878 -0.0768  0.3175 -0.4483
24379SOL    HW185196   6.330   2.162   9.859  0.8576 -0.3798 -0.4018
24379SOL    HW285197   6.320   1.999   9.864 -0.3533 -0.2601  1.8326
24380SOL     OW85198   8.342   6.599   3.513 -0.5217 -0.2967 -0.2903
24380SOL    HW185199   8.357   6.516   3.460 -2.2643 -0.8256  0.0000
24380SOL    HW285200   8.420   6.615   3.574  1.1586 -0.0799 -2.4511
24381SOL     OW85201   8.709   0.939   0.476 -0.3626 -0.4226 -0.3956
24381SOL    HW185202   8.751   0.944   0.385  0.0688 -2.0596 -0.3011
24381SOL    HW285203   8.733   0.852   0.519 -2.1437 -0.4792  0.5200
24382SOL     OW85204   9.602   4.876   4.193  0.5009 -0.2966 -0.1903
24382SOL    HW185205   9.692   4.892   4.233  1.2404  0.8123 -2.2253
24382SOL    HW285206   9.600   4.786   4.149  0.7058 -0.2192 -0.3593
24383SOL     OW85207   1.387   0.533   2.788  0.6444  0.4656  0.3821
24383SOL    HW185208   1.287   0.532   2.786  0.6116  1.8708  0.7454
24383SOL    HW285209   1.420   0.458   2.845 -0.2431  0.7153  1.2422
24384SOL     OW85210   4.037   5.001   6.122  0.0768  0.1637 -0.1777
24384SOL    HW185211   4.060   5.079   6.180  1.4108 -0.8448  0.6774
24384SOL    HW285212   3.940   5.005   6.098 -0.2043  1.2711  1.0705
24385SOL     OW85213   6.710   5.014   9.511 -0.5633 -0.0542  0.1610
24385SOL    HW185214   6.667   4.961   9.438 -0.6295  0.9372 -0.5319
24385SOL    HW285215   6.801   4.976   9.530 -0.8423 -0.7687  0.0665
24386SOL     OW85216   1.702   4.516   7.280  0.4409  0.5595 -0.3235
24386SOL    HW185217   1.726   4.565   7.196 -1.2464 -0.6668 -1.5611
24386SOL    HW285218   1.705   4.418   7.263 -0.5759  0.3105  0.8624
24387SOL     OW85219   1.558   6.623   5.644 -0.0072 -0.3267 -0.4274
24387SOL    HW185220   1.617   6.615   5.724  0.6286  1.7637 -0.6629
24387SOL    HW285221   1.495   6.700   5.657 -0.9158 -0.9104 -1.2955
24388SOL     OW85222   3.401   3.135   2.606  0.4349  0.1055  0.3095
24388SOL    HW185223   3.309   3.147   2.644  0.5417 -0.2861  0.6913
24388SOL    HW285224   3.456   3.216   2.625  0.2391  0.2465  0.2762
24389SOL     OW85225   3.401   2.229   6.368  0.6560 -0.2310 -0.0607
24389SOL    HW185226   3.374   2.173   6.447 -0.0144  1.4427  0.9236
24389SOL    HW285227   3.320   2.271   6.328  1.5098  4.0411  2.3103
24390SOL     OW85228   2.703   8.623   0.829 -0.5481  0.2259  0.0990
24390SOL    HW185229   2.636   8.550   0.838 -1.9767  1.3719 -1.0916
24390SOL    HW285230   2.668   8.706   0.872  0.4543  0.6118  0.1875
24391SOL     OW85231   3.707   5.031   4.808  0.1045  0.8034 -0.3696
24391SOL    HW185232   3.739   4.939   4.834 -1.1079 -0.2504 -2.4426
24391SOL    HW285233   3.766   5.100   4.851  1.2133 -0.9346  1.0066
24392SOL     OW85234   1.784   4.553   8.769 -0.3953  0.2118 -0.1263
24392SOL    HW185235   1.856   4.524   8.705 -0.0350  1.0828 -0.1278
24392SOL    HW285236   1.784   4.492   8.848 -0.1131 -0.2175 -0.4536
24393SOL     OW85237   4.049   3.922   4.053  0.5303  0.2592  0.2206
24393SOL    HW185238   4.070   3.825   4.047 -1.4268 -0.1782  0.0306
24393SOL    HW285239   3.951   3.934   4.068  0.6564  2.2312 -0.3795
24394SOL     OW85240   0.408   4.833   5.636 -0.7753 -0.3923  0.7494
24394SOL    HW185241   0.400   4.733   5.636 -0.6361 -0.4012 -0.1866
24394SOL    HW285242   0.437   4.865   5.546 -2.0091  0.5901  0.6800
24395SOL     OW85243   9.331   4.675   7.771 -0.0934 -0.6495 -0.3266
24395SOL    HW185244   9.343   4.577   7.753 -1.1249 -1.3872  2.6584
24395SOL    HW285245   9.418   4.714   7.800 -0.0329 -1.0821  0.0951
24396SOL     OW85246   9.764   5.520   4.596 -0.0449 -0.3742 -0.0438
24396SOL    HW185247   9.777   5.610   4.553 -0.3782 -0.4797 -0.3684
24396SOL    HW285248   9.843   5.463   4.578 -0.5019 -0.6752 -1.1644
24397SOL     OW85249   0.179   5.018   5.735 -0.4709 -0.3918 -0.0887
24397SOL    HW185250   0.255   4.954   5.735  2.4393  2.8926  1.0593
24397SOL    HW285251   0.202   5.097   5.678 -2.0616  1.6886  2.0473
24398SOL     OW85252   6.327   5.275   2.230  0.2178 -0.4206  0.4449
24398SOL    HW185253   6.249   5.241   2.282 -0.7522 -2.1366 -2.0785
24398SOL    HW285254   6.298   5.350   2.171  0.4515 -1.1292 -0.5749
24399SOL     OW85255   8.761   0.729   9.037  0.2026  0.3965 -0.0123
24399SOL    HW185256   8.683   0.753   9.096  0.3018  0.9911 -0.1239
24399SOL    HW285257   8.813   0.656   9.080  0.2057  0.7467  0.5846
24400SOL     OW85258   5.021   1.561   5.280 -0.0036 -0.1984 -0.2701
24400SOL    HW185259   5.043   1.499   5.204  0.7273 -1.3458  0.8480
24400SOL    HW285260   5.100   1.621   5.297  0.6370 -1.3513  0.9114
24401SOL     OW85261   0.211   6.646   1.439  0.0952 -0.4658  0.8325
24401SOL    HW185262   0.261   6.584   1.379  0.3391 -0.7311  1.3052
24401SOL    HW285263   0.235   6.740   1.416  1.7385 -0.6186  1.8337
24402SOL     OW85264   8.429   4.849   3.336  0.2869  0.4855 -0.4257
24402SOL    HW185265   8.501   4.890   3.391  1.0865 -1.0148 -0.3221
24402SOL    HW285266   8.446   4.750   3.326 -1.4529  0.2056 -0.8562
24403SOL     OW85267   7.430   6.634   5.536 -0.3869  0.4611  0.3539
24403SOL    HW185268   7.358   6.574   5.501  0.8417 -0.6231 -0.3605
24403SOL    HW285269   7.398   6.728   5.537 -1.7450  0.0114 -0.1373
24404SOL     OW85270   4.431   3.662   9.445  0.4610  0.2405  0.3604
24404SOL    HW185271   4.454   3.575   9.402  0.3768 -0.8550  2.4965
24404SOL    HW285272   4.332   3.675   9.443  0.3781 -0.2614  1.0665
24405SOL     OW85273   9.002   2.554   5.555 -0.1111  0.2149 -0.0717
24405SOL    HW185274   8.959   2.566   5.645  1.4396  0.1106  0.7163
24405SOL    HW285275   8.971   2.627   5.494 -2.0037 -0.3275  0.2082
24406SOL     OW85276   0.301   9.732   8.047 -0.1711 -0.0218  0.0520
24406SOL    HW185277   0.289   9.818   8.096  1.3594  0.7513 -0.8954
24406SOL    HW285278   0.247   9.660   8.091 -0.7650  1.2152  1.3640
24407SOL     OW85279   4.409   3.434   4.675  0.4210  0.3821 -0.1696
24407SOL    HW185280   4.450   3.482   4.752  1.8914  0.1706 -0.8076
24407SOL    HW285281   4.455   3.461   4.590  0.9380 -1.7338 -0.6061
24408SOL     OW85282   6.669   5.185   2.027 -0.1513  0.4986  0.2086
24408SOL    HW185283   6.589   5.237   1.996  0.1729  1.4998  1.0162
24408SOL    HW285284   6.664   5.092   1.992 -2.5524  0.0449  1.6399
24409SOL     OW85285   9.898   5.218   6.103  0.2823 -0.0854 -0.1873
24409SOL    HW185286   9.982   5.269   6.089  0.1519  0.5709  1.4038
24409SOL    HW285287   9.918   5.132   6.150  0.4752 -1.4719 -2.6914
24410SOL     OW85288   4.186   3.526   4.455  0.1936  0.4713 -0.6153
24410SOL    HW185289   4.186   3.523   4.555 -0.8490  1.1481 -0.5927
24410SOL    HW285290   4.281   3.535   4.423  0.4431  1.5251  0.3589
24411SOL     OW85291   6.666   1.379   3.761 -0.1603 -1.2563 -0.1173
24411SOL    HW185292   6.670   1.478   3.752  0.0138 -1.2307  0.2073
24411SOL    HW285293   6.654   1.355   3.858  2.8063 -1.6137  0.2096
24412SOL     OW85294   1.591   0.277   8.589 -0.2153 -0.0263  0.4808
24412SOL    HW185295   1.669   0.267   8.650 -0.6647 -1.0485  0.8985
24412SOL    HW285296   1.521   0.333   8.634  0.0410  0.4275  0.3235
24413SOL     OW85297   8.127   9.724   5.359  0.0177 -0.7603  0.0956
24413SOL    HW185298   8.180   9.643   5.382  0.6388  0.3767  2.8304
24413SOL    HW285299   8.070   9.750   5.437 -0.5715  1.1293 -0.9319
24414SOL     OW85300   5.181   8.577   3.275  0.9742 -0.1590 -0.0059
24414SOL    HW185301   5.088   8.540   3.272  1.2041 -0.7151 -0.4763
24414SOL    HW285302   5.232   8.534   3.349  1.8356 -2.2450 -1.7601
24415SOL     OW85303   6.833   6.972   4.455  0.1296  0.0521 -0.2293
24415SOL    HW185304   6.794   7.062   4.472 -0.0783 -0.4239  1.9927
24415SOL    HW285305   6.821   6.948   4.359 -0.7422  1.9496 -0.6130
24416SOL     OW85306   2.285   3.362   4.513  0.5968 -0.3799  0.1987
24416SOL    HW185307   2.252   3.457   4.506  1.4570  0.0056  1.2674
24416SOL    HW285308   2.219   3.301   4.470 -0.2473  0.6503  0.0086
24417SOL     OW85309   2.011   4.567   6.520  0.2586 -0.2346  0.0079
24417SOL    HW185310   2.050   4.657   6.501 -0.4508  0.2938  0.9886
24417SOL    HW285311   2.084   4.500   6.528  1.0727  0.8729  2.4991
24418SOL     OW85312   3.638   8.525   2.709 -0.1058  0.5213  0.0452
24418SOL    HW185313   3.712   8.486   2.764 -1.3621 -1.9302  0.0563
24418SOL    HW285314   3.645   8.492   2.615 -1.3138  0.0335  0.1084
24419SOL     OW85315   9.322   1.048   5.379  0.0873  0.0990 -0.0107
24419SOL    HW185316   9.345   1.140   5.411 -1.9974  0.1590  1.3807
24419SOL    HW285317   9.336   0.982   5.453  0.2377 -0.5183 -0.5788
24420SOL     OW85318   2.203   0.435   4.364 -0.0694 -0.3406 -0.2597
24420SOL    HW185319   2.180   0.529   4.338  0.6291  0.0341  0.4318
24420SOL    HW285320   2.301   0.421   4.351 -0.0165 -0.6830  0.5048
24421SOL     OW85321   9.629   4.827   8.536  0.4481  0.7480  0.2673
24421SOL    HW185322   9.723   4.860   8.540  0.2287  1.2595  1.2113
24421SOL    HW285323   9.597   4.830   8.441  1.5455  0.1042 -0.1235
24422SOL     OW85324   0.691   3.250   8.679 -0.0340  0.1678  0.1375
24422SOL    HW185325   0.601   3.217   8.650 -1.9376  2.9064  2.5777
24422SOL    HW285326   0.726   3.316   8.613 -1.2686  1.3545  0.6249
24423SOL     OW85327   6.410   8.969   3.503  0.1735 -0.5199 -0.7341
24423SOL    HW185328   6.507   8.943   3.500  0.2737 -0.4557  1.1984
24423SOL    HW285329   6.403   9.069   3.511  0.0037 -0.6448  0.8427
24424SOL     OW85330   1.128   0.628   9.545  0.4921 -0.1201  0.4011
24424SOL    HW185331   1.127   0.558   9.617  0.1433  0.9544  1.4710
24424SOL    HW285332   1.166   0.712   9.583  0.3968  0.4254 -0.7204
24425SOL     OW85333   8.069   0.414   5.605  0.0755  0.2519 -0.1498
24425SOL    HW185334   8.018   0.461   5.532 -0.3397 -0.1020 -0.0921
24425SOL    HW285335   8.009   0.398   5.683  0.2995 -0.0956 -0.0461
24426SOL     OW85336   4.932   4.198   2.347 -0.4267  0.0966  0.4571
24426SOL    HW185337   4.932   4.297   2.334 -0.4310 -0.0992 -1.0704
24426SOL    HW285338   4.906   4.153   2.262  2.9316 -1.3489  0.1012
24427SOL     OW85339   0.521   7.901   0.953  0.4533 -0.4931  0.1761
24427SOL    HW185340   0.501   7.815   0.906  1.0391  0.0413 -1.0961
24427SOL    HW285341   0.620   7.909   0.964  0.3671 -0.1957  0.6954
24428SOL     OW85342   3.659   0.009   8.649 -0.1693  0.4942 -0.4315
24428SOL    HW185343   3.739  -0.050   8.639 -1.0072 -0.8470  0.6539
24428SOL    HW285344   3.621   0.029   8.559  0.1272 -0.6321 -0.8178
24429SOL     OW85345   7.490   8.875   7.908  0.2988  0.1246  0.5244
24429SOL    HW185346   7.459   8.827   7.826 -1.0110  2.5562 -0.4730
24429SOL    HW285347   7.415   8.931   7.944  2.5762  3.8118 -0.1671
24430SOL     OW85348   9.276   2.953   7.657 -0.2915  0.2553 -0.5666
24430SOL    HW185349   9.326   2.954   7.744 -0.1935 -2.6980 -0.5224
24430SOL    HW285350   9.178   2.969   7.674 -0.0986  0.9123 -0.0657
24431SOL     OW85351   0.721   4.356   8.776 -0.0260  0.4357  0.0702
24431SOL    HW185352   0.758   4.408   8.853 -1.5427  1.6949 -0.0092
24431SOL    HW285353   0.623   4.375   8.768  0.0930  0.2897 -2.1254
24432SOL     OW85354   3.371   9.469   8.378 -0.3326 -0.0582 -0.4998
24432SOL    HW185355   3.299   9.521   8.424 -0.4324 -0.5186 -0.1300
24432SOL    HW285356   3.441   9.444   8.445  0.2201  0.4681 -0.8760
24433SOL     OW85357   6.986   8.088   3.784  0.9537 -0.1269  0.3425
24433SOL    HW185358   6.899   8.076   3.736  0.4316  0.1677  1.2159
24433SOL    HW285359   6.970   8.094   3.882  1.8166  1.3648  0.4054
24434SOL     OW85360   6.773   8.262   3.637 -0.1292  0.4341 -0.4655
24434SOL    HW185361   6.821   8.285   3.552 -1.2422  2.0249 -0.6761
24434SOL    HW285362   6.813   8.314   3.712  0.6983 -0.7970 -0.0395
24435SOL     OW85363   5.262   9.179   3.372 -0.5218  0.2253 -0.1206
24435SOL    HW185364   5.335   9.235   3.334  1.5731 -2.8054 -0.7964
24435SOL    HW285365   5.195   9.159   3.300 -0.1215  0.0891 -0.4630
24436SOL     OW85366   2.482   5.208   6.331  0.1279  0.0364 -0.4498
24436SOL    HW185367   2.558   5.222   6.267  0.6623  1.8535  0.5679
24436SOL    HW285368   2.408   5.271   6.310  0.2243  0.5072  0.5811
24437SOL     OW85369   0.064   4.635   4.877 -0.3869 -0.2257 -0.1404
24437SOL    HW185370   0.027   4.630   4.969  0.0241 -0.4350  0.0157
24437SOL    HW285371   0.024   4.564   4.820 -0.3256 -0.3649 -0.0085
24438SOL     OW85372   0.317   1.842   1.707  0.1562 -0.0267  0.2562
24438SOL    HW185373   0.399   1.898   1.697  0.3769 -0.2443  0.8530
24438SOL    HW285374   0.331   1.773   1.778  0.0225 -1.1024 -0.7442
24439SOL     OW85375   7.497   3.350   4.458  0.4000  0.0874 -0.1403
24439SOL    HW185376   7.515   3.349   4.556 -0.4602  1.0251  0.0275
24439SOL    HW285377   7.494   3.444   4.425  2.5640 -0.2506 -1.4229
24440SOL     OW85378   8.714   3.415   1.379 -0.0813  0.1203  0.0117
24440SOL    HW185379   8.788   3.348   1.385 -0.4093 -0.4802 -2.0704
24440SOL    HW285380   8.753   3.504   1.352  0.4525  1.0210  3.5317
24441SOL     OW85381   0.910   6.181   9.793  0.5899 -0.0843  0.4031
24441SOL    HW185382   0.948   6.272   9.780  0.1317 -0.1016 -1.1578
24441SOL    HW285383   0.815   6.189   9.823 -0.3129  0.0035 -2.2975
24442SOL     OW85384   6.484   5.678  10.015 -0.0191 -0.3148 -0.6265
24442SOL    HW185385   6.494   5.722  10.103 -0.4962 -1.5382  0.0527
24442SOL    HW285386   6.432   5.736   9.953 -0.7114  0.0242  0.2799
24443SOL     OW85387   6.051   6.761   1.449  0.1364  0.6574  0.4134
24443SOL    HW185388   6.121   6.729   1.384 -1.1185 -0.0706 -0.6144
24443SOL    HW285389   6.095   6.798   1.530  1.7261  0.5986 -0.4067
24444SOL     OW85390   2.958   4.043   1.805  0.2440 -0.4715  0.2249
24444SOL    HW185391   2.978   4.141   1.796 -1.3626 -0.1587 -0.1012
24444SOL    HW285392   3.021   4.003   1.871  0.5663  0.9112  0.7881
24445SOL     OW85393   9.003   9.168   5.719  0.7302  0.0264  0.3831
24445SOL    HW185394   9.099   9.175   5.745  0.6759  1.2648  0.2828
24445SOL    HW285395   8.966   9.260   5.706  0.1586 -0.4995 -1.8471
24446SOL     OW85396   2.566   8.515   4.242  0.0277 -0.6240  0.1961
24446SOL    HW185397   2.581   8.583   4.314  1.1163 -0.4452 -0.1947
24446SOL    HW285398   2.640   8.447   4.244 -1.6111 -2.4554  1.2985
24447SOL     OW85399   9.446   2.711   4.572 -0.3038 -0.3342  0.3653
24447SOL    HW185400   9.541   2.723   4.600 -0.7509 -0.0389  1.8205
24447SOL    HW285401   9.414   2.794   4.526  0.5178 -0.9172 -1.2565
24448SOL     OW85402   1.548   7.416   5.697  0.1970 -0.6120 -0.1655
24448SOL    HW185403   1.609   7.338   5.687 -1.7088 -1.8900 -2.3212
24448SOL    HW285404   1.551   7.471   5.614 -1.7402 -0.8292 -0.3997
24449SOL     OW85405   8.292   8.552  10.036 -0.0322  0.7694 -0.3292
24449SOL    HW185406   8.210   8.597  10.002 -0.0182  0.1912 -1.1481
24449SOL    HW285407   8.351   8.529   9.959 -0.4929 -1.5348 -0.0046
24450SOL     OW85408   3.393   6.490   7.691 -0.5934 -1.1216 -0.3234
24450SOL    HW185409   3.384   6.514   7.595  1.3777 -1.4213 -0.6148
24450SOL    HW285410   3.317   6.528   7.743 -1.2761 -0.3323 -1.8864
24451SOL     OW85411   1.053   3.499   5.819 -0.3889  0.0204 -0.2145
24451SOL    HW185412   1.090   3.473   5.730  0.0699 -1.5767  0.4172
24451SOL    HW285413   1.019   3.418   5.866 -0.3302  0.7981  1.1995
24452SOL     OW85414   2.257   9.804   7.966  0.2960 -0.5855  0.4173
24452SOL    HW185415   2.244   9.806   8.065  0.2444 -1.3018  0.4296
24452SOL    HW285416   2.271   9.897   7.932 -0.1016 -0.2928  1.0416
24453SOL     OW85417   1.692   4.275   8.639 -0.1096  0.2285  0.0631
24453SOL    HW185418   1.654   4.348   8.581 -0.4450 -1.7454 -2.3000
24453SOL    HW285419   1.787   4.296   8.660 -0.2928  1.5081 -0.3219
24454SOL     OW85420   5.524   0.672   6.391 -0.0452 -0.2819 -0.3242
24454SOL    HW185421   5.505   0.578   6.419  1.8330 -0.0014  2.0858
24454SOL    HW285422   5.438   0.722   6.386 -0.7670 -1.2071  2.0056
24455SOL     OW85423   2.980   0.953   1.251 -0.2223 -0.3029 -0.5193
24455SOL    HW185424   2.946   0.940   1.158  1.5430  1.2242 -1.4239
24455SOL    HW285425   2.929   1.026   1.296  0.5495  0.6732 -1.1969
24456SOL     OW85426   8.535   4.380   1.168 -0.5998 -0.3491  0.0606
24456SOL    HW185427   8.438   4.361   1.156 -0.9210  0.7805  0.8316
24456SOL    HW285428   8.588   4.297   1.147 -1.5922 -0.4530 -2.1724
24457SOL     OW85429   5.857   4.356   9.143 -0.0506  0.5011  0.6358
24457SOL    HW185430   5.873   4.390   9.050  2.2845 -0.6311  0.5711
24457SOL    HW285431   5.806   4.270   9.139  0.1238  0.4087  0.3898
24458SOL     OW85432   4.474   7.208   3.341  0.3880  0.0506  0.0376
24458SOL    HW185433   4.418   7.221   3.423  0.7892 -0.0768  0.3337
24458SOL    HW285434   4.534   7.129   3.354 -0.7186 -0.9922 -1.0127
24459SOL     OW85435   8.321   1.471   0.610  0.0632 -0.5460  0.3590
24459SOL    HW185436   8.408   1.475   0.562  0.6013  1.7923  1.4507
24459SOL    HW285437   8.261   1.544   0.577 -0.0597  0.2337  2.2191
24460SOL     OW85438   4.138   3.155   3.680  0.2991  0.2366  0.0133
24460SOL    HW185439   4.065   3.115   3.625 -0.7001 -0.7261  2.0216
24460SOL    HW285440   4.183   3.227   3.627 -0.9766 -0.3178 -1.8735
24461SOL     OW85441   1.256   4.764   7.855  0.2103 -0.5672 -0.6275
24461SOL    HW185442   1.320   4.837   7.877  1.0936 -1.4294 -0.3015
24461SOL    HW285443   1.303   4.676   7.859 -1.7243 -1.5209  2.6793
24462SOL     OW85444   2.218   8.118   3.939  0.4373  0.2460 -0.4534
24462SOL    HW185445   2.209   8.204   3.990  4.5191  0.7189 -0.3888
24462SOL    HW285446   2.239   8.138   3.843  1.3525 -0.6622 -0.4511
24463SOL     OW85447   7.679   4.684   9.896  0.1320  0.3987  0.3854
24463SOL    HW185448   7.622   4.650   9.821  1.3674  0.3749 -0.5745
24463SOL    HW285449   7.676   4.619   9.972  1.8136 -1.5261 -1.1124
24464SOL     OW85450   3.042   3.611   6.402  0.0972 -0.2913 -0.3486
24464SOL    HW185451   3.012   3.687   6.343  1.6455  0.7461  0.1558
24464SOL    HW285452   3.135   3.584   6.376  1.3948  1.1822  2.5448
24465SOL     OW85453   8.461   1.783   0.032  0.0686 -0.5367 -0.2207
24465SOL    HW185454   8.446   1.684   0.031  0.0623 -0.5449 -2.1007
24465SOL    HW285455   8.411   1.825  -0.045 -1.2817  1.1464  1.5227
24466SOL     OW85456   9.787   4.437   0.890 -0.7125  0.7239  0.5938
24466SOL    HW185457   9.842   4.354   0.878 -1.1893  0.4043  0.6295
24466SOL    HW285458   9.692   4.417   0.867 -0.7415  1.3862  0.1288
24467SOL     OW85459   8.821   3.600   8.825  0.2117  0.1632  0.2400
24467SOL    HW185460   8.737   3.570   8.869  0.3549 -0.3161  0.1932
24467SOL    HW285461   8.846   3.535   8.753  0.7377  0.1771  0.4054
24468SOL     OW85462   3.579   3.750   0.336 -0.2085 -0.6614 -0.6812
24468SOL    HW185463   3.552   3.787   0.424 -1.3074 -0.9250 -0.8942
24468SOL    HW285464   3.562   3.817   0.264 -0.6322 -0.9531 -0.8592
24469SOL     OW85465   9.995   4.557   9.554 -0.4372  0.0383  0.0329
24469SOL    HW185466   9.900   4.565   9.584 -1.2764  0.5367 -2.6741
24469SOL    HW285467  10.041   4.486   9.608 -1.9415  0.7142  2.2799
24470SOL     OW85468   6.773   2.822   9.015 -0.3656 -0.4593 -0.1822
24470SOL    HW185469   6.749   2.732   8.979  1.0551 -0.3268 -1.4688
24470SOL    HW285470   6.867   2.821   9.048  0.2674  1.0487 -1.8937
24471SOL     OW85471   1.515   5.836   7.701  0.0717  0.3989 -0.2848
24471SOL    HW185472   1.436   5.784   7.669  0.3617  0.4432 -1.0802
24471SOL    HW285473   1.540   5.805   7.793 -0.5618  0.0434 -0.2260
24472SOL     OW85474   7.993   9.509   8.938  0.1381  0.0499  0.5684
24472SOL    HW185475   8.007   9.461   8.851 -0.3780 -1.0199  1.0678
24472SOL    HW285476   8.081   9.522   8.983  0.1581 -1.6072  1.0424
24473SOL     OW85477   1.285   5.314   1.892 -0.4605  0.6057 -0.0741
24473SOL    HW185478   1.378   5.327   1.859 -0.0942  0.5960  0.9343
24473SOL    HW285479   1.220   5.344   1.822  0.2763 -0.5321 -1.2725
24474SOL     OW85480   8.071   4.504   6.171  0.6200  0.2463 -0.0311
24474SOL    HW185481   8.163   4.514   6.209  0.8297  1.0912 -0.7520
24474SOL    HW285482   8.010   4.468   6.242  1.0679  1.5607  1.0440
24475SOL     OW85483   9.378   3.586   2.319 -0.2162  0.3185 -0.2610
24475SOL    HW185484   9.410   3.681   2.322  0.2982  0.1221  1.8890
24475SOL    HW285485   9.457   3.524   2.311 -0.4966  0.0494 -0.9632
24476SOL     OW85486   1.253   6.446   4.018 -0.1851  0.0934  0.2629
24476SOL    HW185487   1.210   6.529   3.983  0.6813 -0.1987 -1.5279
24476SOL    HW285488   1.193   6.367   4.001 -1.2800  0.3984  2.4992
24477SOL     OW85489   5.982   5.542   1.000  0.0226 -0.2320  0.2692
24477SOL    HW185490   6.047   5.488   1.054 -0.2000 -0.1126  0.6568
24477SOL    HW285491   5.894   5.494   0.997 -0.2794  0.2756  0.9094
24478SOL     OW85492   4.117   5.747   0.946  0.1956 -0.2625 -0.8098
24478SOL    HW185493   4.100   5.703   1.035  1.4241 -0.4625 -0.6647
24478SOL    HW285494   4.214   5.740   0.924 -0.0439  0.1310 -1.9972
24479SOL     OW85495   7.038   0.683   5.477 -0.0032  0.1707 -0.6572
24479SOL    HW185496   7.073   0.594   5.507 -0.3292 -0.0374 -0.8945
24479SOL    HW285497   6.939   0.678   5.464 -0.2897  1.0626  1.0896
24480SOL     OW85498   7.181   6.820   7.207 -0.0272  0.8335  0.1487
24480SOL    HW185499   7.127   6.855   7.283  0.7294  0.3870  0.9057
24480SOL    HW285500   7.278   6.835   7.225  0.1601  0.6951 -0.7127
24481SOL     OW85501   8.819   8.285   4.812 -0.0137  0.2029 -0.2301
24481SOL    HW185502   8.734   8.328   4.844 -1.9212 -2.4658 -1.4515
24481SOL    HW285503   8.854   8.224   4.882  2.1295  2.8659  1.1015
24482SOL     OW85504   2.665   4.669   1.944 -0.5118  0.5754 -0.1454
24482SOL    HW185505   2.658   4.579   1.988  0.7995  0.4005 -0.2832
24482SOL    HW285506   2.717   4.661   1.859 -1.2333  1.2947 -0.6584
24483SOL     OW85507   4.247   7.565   3.377 -0.0397  0.4340 -0.3950
24483SOL    HW185508   4.263   7.658   3.344  0.9772  0.8992  1.3107
24483SOL    HW285509   4.251   7.565   3.477 -1.5696 -1.1811 -0.3184
24484SOL     OW85510   9.223   0.580   8.574 -0.1921 -0.1261 -0.1643
24484SOL    HW185511   9.232   0.557   8.477  2.1191 -2.4022  0.5427
24484SOL    HW285512   9.197   0.676   8.582  0.3625  0.3260 -3.0270
24485SOL     OW85513   1.776   4.958   1.409 -0.1059 -0.2675 -0.4687
24485SOL    HW185514   1.725   5.017   1.471 -0.9860 -0.8419 -0.6322
24485SOL    HW285515   1.790   5.005   1.322 -0.9391 -0.3498 -0.6545
24486SOL     OW85516   1.417   7.026   8.191 -0.4780 -0.5983 -0.0873
24486SOL    HW185517   1.349   7.086   8.147 -0.3746  0.6336  1.4169
24486SOL    HW285518   1.370   6.965   8.255 -0.0148  1.4250  2.2447
24487SOL     OW85519   7.402   1.165   2.027 -0.0288  0.0227  0.0498
24487SOL    HW185520   7.366   1.108   1.953  0.1596 -0.9186  0.6821
24487SOL    HW285521   7.349   1.250   2.031 -3.4629 -2.0920  2.1291
24488SOL     OW85522   4.110   4.168   5.308  0.8093 -0.0973  0.2605
24488SOL    HW185523   4.035   4.108   5.335  0.7644 -0.3406 -0.3855
24488SOL    HW285524   4.133   4.152   5.212  1.9190 -0.2668  0.5493
24489SOL     OW85525   8.447   3.473   4.059 -0.7903  0.4695  0.0279
24489SOL    HW185526   8.498   3.441   4.139 -0.9624  0.8884  0.3069
24489SOL    HW285527   8.420   3.568   4.073 -0.8034  0.5481 -0.5409
24490SOL     OW85528   5.124   9.278   4.752  0.6586  0.3368 -0.2332
24490SOL    HW185529   5.077   9.319   4.673  0.5372  0.5928 -0.0312
24490SOL    HW285530   5.188   9.345   4.790 -1.6694  1.4576  1.9137
24491SOL     OW85531   6.241   1.189   5.369 -0.1455  0.0825  0.3163
24491SOL    HW185532   6.252   1.187   5.269 -0.6311  1.0652  0.2428
24491SOL    HW285533   6.171   1.123   5.396 -0.2851  0.0870 -0.0288
24492SOL     OW85534   1.568   0.951   0.044  0.0512 -0.7249  0.0363
24492SOL    HW185535   1.628   0.876   0.017 -0.7694 -1.7466  1.0211
24492SOL    HW285536   1.519   0.927   0.128 -0.8518  0.5684 -0.1001
24493SOL     OW85537   4.511   6.183   9.580 -0.2255 -0.2938 -0.0402
24493SOL    HW185538   4.436   6.120   9.603 -0.6400 -0.2333 -1.1987
24493SOL    HW285539   4.587   6.168   9.643 -0.9386 -0.8467  0.7076
24494SOL     OW85540   6.630   7.629   7.972  0.3329 -0.7136  0.0837
24494SOL    HW185541   6.535   7.602   7.954 -0.2822  1.6966 -0.4312
24494SOL    HW285542   6.644   7.633   8.071  0.2018 -2.0709  0.1661
24495SOL     OW85543   3.108   7.795   7.482 -0.3881  0.1587  0.1256
24495SOL    HW185544   3.167   7.852   7.538 -1.4615 -0.8043  2.3265
24495SOL    HW285545   3.086   7.842   7.397  1.7141  1.4384  0.2643
24496SOL     OW85546   2.288   9.479   1.253 -0.0553 -0.2935  0.0573
24496SOL    HW185547   2.229   9.537   1.197  1.3046  2.1155  1.0236
24496SOL    HW285548   2.382   9.487   1.221  0.2775 -1.2838  0.7740
24497SOL     OW85549   1.997   4.316   1.351  0.4011  0.5644 -0.3753
24497SOL    HW185550   2.069   4.325   1.283  0.5544  0.1479 -0.2716
24497SOL    HW285551   1.942   4.234   1.330  0.8446  0.0770  0.3668
24498SOL     OW85552   1.953   7.939   8.758  0.3892 -0.2950  0.1522
24498SOL    HW185553   1.891   7.907   8.831  0.3316 -0.6978 -0.0719
24498SOL    HW285554   2.006   8.017   8.792  0.6098 -0.6924  0.7499
24499SOL     OW85555   1.829   0.459   9.487 -0.1181  0.2464  0.0816
24499SOL    HW185556   1.846   0.484   9.582  0.4485  0.4343 -0.0672
24499SOL    HW285557   1.856   0.363   9.473 -2.0327 -0.3839  0.5877
24500SOL     OW85558   8.623   2.443   3.892 -0.3272  0.0232  0.1152
24500SOL    HW185559   8.586   2.428   3.983  0.7933  2.5266  1.0305
24500SOL    HW285560   8.559   2.498   3.838 -1.5981 -2.5856 -1.0952
24501SOL     OW85561   7.482   9.711   5.539  0.0739 -0.1936 -0.2555
24501SOL    HW185562   7.387   9.693   5.562 -0.5108  1.7820 -1.0845
24501SOL    HW285563   7.518   9.784   5.598  1.6412 -2.1663  1.3089
24502SOL     OW85564   9.398   8.096   9.813  0.5395  0.1877 -0.2808
24502SOL    HW185565   9.311   8.137   9.785  0.2983  0.0872  0.3175
24502SOL    HW285566   9.472   8.134   9.758  0.1935  0.7076 -0.3911
24503SOL     OW85567   4.037   2.351   9.575 -0.3680 -0.3205 -0.1620
24503SOL    HW185568   4.137   2.348   9.573 -0.3675 -0.1269 -0.3353
24503SOL    HW285569   4.000   2.289   9.506 -0.3687 -0.3594 -0.1278
24504SOL     OW85570   2.067   4.493   1.530 -0.5022 -0.2115 -0.0229
24504SOL    HW185571   2.145   4.545   1.492 -1.6829  0.1305 -2.0640
24504SOL    HW285572   2.033   4.430   1.461 -1.5599 -0.9107  1.1309
24505SOL     OW85573   4.023   3.060   8.998 -0.1066  0.4052 -0.0661
24505SOL    HW185574   4.072   3.147   9.000 -0.2911  0.5341 -0.8173
24505SOL    HW285575   4.057   3.000   9.070 -0.1365  1.1871  0.5949
24506SOL     OW85576   0.403   3.733   9.828  0.1510  0.4612  0.4530
24506SOL    HW185577   0.325   3.685   9.869  0.8112 -0.9899  0.0798
24506SOL    HW285578   0.397   3.830   9.847 -0.4222  0.0322  2.5964
24507SOL     OW85579   7.037   1.250   8.068 -0.4608 -0.3945 -0.4591
24507SOL    HW185580   7.029   1.185   8.144 -0.4810  0.7334  0.5244
24507SOL    HW285581   7.132   1.251   8.035  0.1302  0.9309  1.2193
24508SOL     OW85582   2.001   0.032   5.195  0.2957 -0.0605 -0.2358
24508SOL    HW185583   2.055  -0.036   5.246 -1.0533 -0.5604  0.5505
24508SOL    HW285584   2.029   0.124   5.222 -0.3174 -0.3217  1.3435
24509SOL     OW85585   7.704   2.572   8.248 -0.9628  0.4395 -0.0538
24509SOL    HW185586   7.675   2.477   8.240 -1.3605  0.4900  0.7452
24509SOL    HW285587   7.625   2.629   8.271 -0.5485  0.8274  0.4070
24510SOL     OW85588   1.463   5.806   3.791 -0.4109 -0.1275 -0.0639
24510SOL    HW185589   1.536   5.759   3.742  0.3431 -0.8653  1.7195
24510SOL    HW285590   1.482   5.904   3.794  0.3213 -0.2735  0.0896
24511SOL     OW85591   0.446   0.390   9.350  0.3699  0.3468  1.0266
24511SOL    HW185592   0.402   0.313   9.303 -0.4781  0.5036  1.5677
24511SOL    HW285593   0.521   0.424   9.293 -0.4035  0.2915 -0.0501
24512SOL     OW85594   2.792   1.585   7.408  0.2337  0.0644  0.1910
24512SOL    HW185595   2.775   1.593   7.309  2.1402 -0.1748 -0.1899
24512SOL    HW285596   2.870   1.524   7.423 -0.4564 -0.4261  1.8944
24513SOL     OW85597   0.858   0.080   4.458  0.4824  0.5091 -0.1859
24513SOL    HW185598   0.856   0.008   4.389  2.3975  0.0632  0.1912
24513SOL    HW285599   0.780   0.068   4.520  0.2599 -0.6959 -0.6680
24514SOL     OW85600   8.235   1.805   7.923  0.0133  0.0007 -0.6041
24514SOL    HW185601   8.281   1.791   7.836 -1.1611  0.3582 -1.2957
24514SOL    HW285602   8.294   1.857   7.984  1.9985 -2.6954 -0.1353
24515SOL     OW85603   5.075   2.962   2.707  0.0667 -0.3071  0.2476
24515SOL    HW185604   4.983   2.928   2.727  0.2230 -0.0507  1.4077
24515SOL    HW285605   5.103   2.930   2.616 -2.0329  1.4465 -1.0776
24516SOL     OW85606   5.537   6.968   2.335  0.1456 -0.6048  0.3094
24516SOL    HW185607   5.604   7.007   2.398 -0.2673  0.0472  0.3533
24516SOL    HW285608   5.580   6.895   2.281  1.0686  0.2482 -0.1195
24517SOL     OW85609   8.050   3.057   9.451  0.5414  0.0881 -0.0443
24517SOL    HW185610   8.024   3.123   9.522 -0.6292  0.6452 -0.9715
24517SOL    HW285611   8.149   3.050   9.447  0.6383  0.7493  1.0208
24518SOL     OW85612   7.225   2.154   0.049  0.4049 -0.0099 -0.2481
24518SOL    HW185613   7.156   2.211   0.093  1.2172  0.2415  0.6952
24518SOL    HW285614   7.199   2.058   0.059 -0.9587  0.1548 -1.8326
24519SOL     OW85615   8.007   0.110   2.050 -0.1672  0.1180 -0.9593
24519SOL    HW185616   8.011   0.187   1.986 -1.0366  0.4981 -0.5637
24519SOL    HW285617   7.987   0.144   2.142 -1.3942 -0.6517 -0.9315
24520SOL     OW85618   5.260   6.092   3.385  0.3162  0.0002  0.3320
24520SOL    HW185619   5.202   6.049   3.454  0.2088  1.4410  1.1621
24520SOL    HW285620   5.271   6.189   3.407  2.7173 -0.1693 -0.0175
24521SOL     OW85621   5.597   9.651   8.105 -0.1059 -0.0986  0.1061
24521SOL    HW185622   5.515   9.706   8.091 -0.6015 -0.9109 -0.1968
24521SOL    HW285623   5.598   9.617   8.199 -0.6184 -0.8973 -0.1723
24522SOL     OW85624   2.946   0.339   4.655 -0.1989 -0.0253  0.3856
24522SOL    HW185625   2.863   0.285   4.642 -0.7516  0.7375  0.7775
24522SOL    HW285626   3.024   0.277   4.667 -0.7242 -0.7381  0.1374
24523SOL     OW85627   2.315   8.308   9.609  0.3129 -0.2188  0.9356
24523SOL    HW185628   2.294   8.405   9.625 -0.5259 -0.1948 -0.2508
24523SOL    HW285629   2.292   8.255   9.691 -1.2254  0.3001  0.8563
24524SOL     OW85630   9.324   4.915   4.527  0.6415  0.3126 -0.2722
24524SOL    HW185631   9.322   4.949   4.621  0.6119  0.2622 -0.2550
24524SOL    HW285632   9.277   4.828   4.521  1.7992 -0.3410 -0.0694
24525SOL     OW85633   2.669   3.517   7.399 -0.6315 -0.0425 -0.7311
24525SOL    HW185634   2.608   3.442   7.424  0.2748  0.3677  3.1107
24525SOL    HW285635   2.761   3.482   7.383 -0.3382  0.1606  0.4810
24526SOL     OW85636   5.634   7.657   6.827 -0.1660  0.2279 -0.2349
24526SOL    HW185637   5.673   7.637   6.916 -2.2199  0.0236  0.6372
24526SOL    HW285638   5.581   7.742   6.831 -1.7159 -0.6727 -0.7847
24527SOL     OW85639   4.154   0.772   5.209 -0.7668  0.1166  0.0571
24527SOL    HW185640   4.054   0.781   5.211 -1.0075 -1.6921 -1.8226
24527SOL    HW285641   4.195   0.863   5.216 -2.5738  0.9914 -0.1797
24528SOL     OW85642   4.021   1.279   4.660  0.6039  0.2559 -0.1059
24528SOL    HW185643   4.015   1.187   4.622  1.7166  0.3296 -0.4859
24528SOL    HW285644   3.942   1.297   4.718 -0.7379 -0.1502 -1.7661
24529SOL     OW85645   1.724   2.160   8.124  0.2935  0.1292 -0.2473
24529SOL    HW185646   1.638   2.178   8.077 -0.2233  1.3966  1.1705
24529SOL    HW285647   1.738   2.227   8.196  2.5810  0.0664 -0.5776
24530SOL     OW85648   8.023   0.451   2.825  0.6148  0.1829 -0.0648
24530SOL    HW185649   8.042   0.476   2.730  0.2643 -0.9802 -0.4480
24530SOL    HW285650   7.926   0.429   2.835  0.9964 -1.5046  0.1400
24531SOL     OW85651   8.160   6.963   7.422  0.0718 -0.2733  0.9012
24531SOL    HW185652   8.131   6.875   7.461  1.6456 -1.5194 -0.6551
24531SOL    HW285653   8.259   6.971   7.429  0.4174 -0.5012 -2.6705
24532SOL     OW85654   3.685   7.638   5.567  0.1872 -0.1734  0.7990
24532SOL    HW185655   3.777   7.673   5.553  0.3931 -0.4143  1.4898
24532SOL    HW285656   3.689   7.562   5.633 -0.1934 -1.7247 -0.9184
24533SOL     OW85657   8.148   5.243   1.844  0.0270 -0.2211  0.1130
24533SOL    HW185658   8.144   5.314   1.914 -3.2411  1.6426 -1.8264
24533SOL    HW285659   8.193   5.278   1.762  1.6393 -1.5811  0.4036
24534SOL     OW85660   1.583   7.406   2.892  0.2537 -0.7744  0.1814
24534SOL    HW185661   1.669   7.356   2.902 -0.5273 -2.0381  0.6458
24534SOL    HW285662   1.598   7.487   2.835  2.6967  1.2827  3.5551
24535SOL     OW85663   6.606   3.993   3.065 -0.0484  0.2614  0.4196
24535SOL    HW185664   6.649   4.071   3.110  2.2146 -0.9727  0.5033
24535SOL    HW285665   6.657   3.970   2.982 -0.8642 -0.9310  0.2302
24536SOL     OW85666   4.606   0.729   3.987  0.0582 -0.1140 -0.2299
24536SOL    HW185667   4.540   0.799   4.016 -1.3557 -1.7045  0.4666
24536SOL    HW285668   4.630   0.672   4.065  1.7665  0.0236 -0.6335
24537SOL     OW85669   1.501   3.598   6.228 -0.0635  0.7168 -0.2842
24537SOL    HW185670   1.480   3.648   6.312  0.1430 -1.1152  0.8743
24537SOL    HW285671   1.513   3.663   6.153  0.4834  2.4126  1.2490
24538SOL     OW85672   8.174   4.036   1.430  0.3654 -0.6086  0.1661
24538SOL    HW185673   8.085   4.065   1.467 -0.6700 -1.5548 -1.5165
24538SOL    HW285674   8.246   4.092   1.470 -0.9679  0.0665  1.6927
24539SOL     OW85675   4.331   1.202   1.430  0.0062  0.3823  0.2198
24539SOL    HW185676   4.426   1.223   1.453  0.5056 -1.7546  0.2697
24539SOL    HW285677   4.324   1.186   1.331 -0.1079 -0.3431  0.3423
24540SOL     OW85678   7.966   9.713   4.631  0.0974  0.6366 -0.0719
24540SOL    HW185679   7.964   9.733   4.534 -0.1205 -0.7646 -0.3700
24540SOL    HW285680   7.882   9.747   4.674 -0.0950  0.6776 -0.4850
24541SOL     OW85681   0.507   0.030   8.338  0.5278  0.3077 -0.1150
24541SOL    HW185682   0.526   0.103   8.272  0.5235 -0.4841 -1.0087
24541SOL    HW285683   0.475  -0.051   8.289  0.0469 -0.1294  0.9148
24542SOL     OW85684   3.183   9.817   4.835  0.4676  0.3576  0.7975
24542SOL    HW185685   3.219   9.851   4.749  1.0831 -1.5021  0.2861
24542SOL    HW285686   3.099   9.766   4.818  0.0336  0.8529  1.4303
24543SOL     OW85687   2.948   7.382   6.580  0.6118 -0.4386 -0.4972
24543SOL    HW185688   2.867   7.354   6.529  0.9709 -1.0735 -0.7287
24543SOL    HW285689   2.987   7.465   6.539  0.7898 -0.8395 -1.1375
24544SOL     OW85690   3.213   1.739   5.272 -0.1690 -0.0741  0.2530
24544SOL    HW185691   3.248   1.829   5.295  1.9790 -0.5532 -0.9866
24544SOL    HW285692   3.145   1.746   5.199 -0.3564  0.5693  0.4887
24545SOL     OW85693   6.362   0.774   5.025 -0.0821  0.0940  0.2039
24545SOL    HW185694   6.356   0.772   4.925  2.2834 -0.4196  0.0320
24545SOL    HW285695   6.285   0.723   5.064 -0.9014  0.1030 -1.3541
24546SOL     OW85696   8.868   9.191   4.645 -0.4514 -0.1030 -0.3247
24546SOL    HW185697   8.906   9.214   4.734 -1.0723  0.0868 -0.1048
24546SOL    HW285698   8.768   9.198   4.648 -0.4584  0.2256 -1.1220
24547SOL     OW85699   2.883   4.656  10.032 -0.1961 -0.0225  0.4506
24547SOL    HW185700   2.883   4.678  10.130  0.6438 -0.1820  0.4846
24547SOL    HW285701   2.870   4.739   9.979 -1.1813  0.0028  0.7035
24548SOL     OW85702   0.156   9.414   2.258  0.7223 -0.2991  0.2519
24548SOL    HW185703   0.186   9.341   2.196  0.3890 -1.2218  1.1555
24548SOL    HW285704   0.215   9.494   2.247  1.5571 -0.9697 -0.2276
24549SOL     OW85705   2.025   8.872   2.726 -0.0380 -1.0003  0.2113
24549SOL    HW185706   1.987   8.939   2.662 -1.6136 -1.5621  0.5503
24549SOL    HW285707   2.082   8.919   2.793  3.9515 -0.6519 -3.1804
24550SOL     OW85708   4.974   1.905   5.062 -0.1324 -0.0316  0.0348
24550SOL    HW185709   4.911   1.981   5.048 -1.5677 -1.0168  1.0083
24550SOL    HW285710   4.938   1.844   5.133  0.7002 -1.9001 -1.0990
24551SOL     OW85711   1.433   3.893   6.130  0.8553  0.1449 -0.1203
24551SOL    HW185712   1.382   3.853   6.206 -1.6832  0.8269 -1.4178
24551SOL    HW285713   1.408   3.989   6.120 -0.4624 -0.4646 -3.1530
24552SOL     OW85714   4.581   0.117   4.685  0.2605  0.7150  0.1607
24552SOL    HW185715   4.548   0.045   4.623  0.0717  0.7041  0.2742
24552SOL    HW285716   4.504   0.157   4.734  0.1338  2.2415 -1.2205
24553SOL     OW85717   8.752   9.327   6.371 -0.1740  0.4763  0.0682
24553SOL    HW185718   8.737   9.251   6.308  0.5800  0.2542  0.1593
24553SOL    HW285719   8.841   9.368   6.355 -0.4921  1.2162  0.1572
24554SOL     OW85720   8.513   0.628   9.590  0.7541  0.3704 -0.0329
24554SOL    HW185721   8.583   0.605   9.523  0.7203  2.6423 -0.8966
24554SOL    HW285722   8.517   0.564   9.666  1.7973 -1.3267 -1.4727
24555SOL     OW85723   0.488   0.903   3.588  0.0371 -0.0354 -0.4150
24555SOL    HW185724   0.563   0.854   3.634 -0.8584 -2.0892 -1.0818
24555SOL    HW285725   0.522   0.991   3.555  1.8935 -0.4885  0.1878
24556SOL     OW85726   1.963   8.559   9.558 -0.1676  0.5741  0.0760
24556SOL    HW185727   1.924   8.633   9.502 -0.4424 -0.4771 -1.1418
24556SOL    HW285728   1.890   8.514   9.609 -0.2985 -0.1990 -0.7847
24557SOL     OW85729   0.232   7.466   4.624 -0.1680 -0.4380 -0.4256
24557SOL    HW185730   0.331   7.461   4.628  0.1295  1.1738 -3.7739
24557SOL    HW285731   0.193   7.375   4.639  1.6887 -0.8522  2.1932
24558SOL     OW85732   4.294   4.123   0.433 -0.2942  0.1357  0.0129
24558SOL    HW185733   4.198   4.097   0.439 -0.3881  0.3634 -0.4899
24558SOL    HW285734   4.336   4.119   0.524 -1.0145  0.9459  0.3885
24559SOL     OW85735   1.366   3.885   9.361  0.6488  0.2466 -0.1758
24559SOL    HW185736   1.342   3.944   9.283  0.2737  0.9930  0.5001
24559SOL    HW285737   1.351   3.935   9.446 -0.0645 -0.9701  0.4180
24560SOL     OW85738   8.166   5.233   8.060 -0.7463 -0.5788  0.0184
24560SOL    HW185739   8.256   5.210   8.097  0.2314  0.8734 -1.3476
24560SOL    HW285740   8.137   5.162   7.996  0.0150 -0.4471 -0.4830
24561SOL     OW85741   9.193   6.761   3.490  0.2705 -0.1619  0.0672
24561SOL    HW185742   9.279   6.743   3.538 -0.2044  0.4842  1.1753
24561SOL    HW285743   9.209   6.759   3.391  2.3293  3.5634  0.2518
24562SOL     OW85744   3.985   0.780   4.331 -0.2522  0.7597 -0.5512
24562SOL    HW185745   3.956   0.777   4.426  1.4549  0.4631 -0.0209
24562SOL    HW285746   3.913   0.821   4.275 -1.9019 -0.5077  0.6125
24563SOL     OW85747   4.187   3.091   5.597 -0.5156  0.4364 -0.1353
24563SOL    HW185748   4.133   3.074   5.679  0.0878 -0.7654  0.0162
24563SOL    HW285749   4.127   3.128   5.526 -2.0391 -2.8638 -0.6893
24564SOL     OW85750   2.395   9.861   4.905  0.5274  0.2167  0.3206
24564SOL    HW185751   2.399   9.811   4.992  3.6586 -1.2353 -0.5799
24564SOL    HW285752   2.454   9.941   4.910 -0.4123  0.9408 -0.0186
24565SOL     OW85753   7.529   9.976   4.338 -0.2324  0.5063 -0.1632
24565SOL    HW185754   7.608  10.028   4.373 -0.4133  0.5084  0.2439
24565SOL    HW285755   7.445  10.013   4.377 -0.3534 -0.1598  0.2059
24566SOL     OW85756   5.184   8.515   5.917  0.3494  0.3717 -0.3656
24566SOL    HW185757   5.104   8.492   5.974 -0.4695  2.3439 -0.6624
24566SOL    HW285758   5.264   8.529   5.976  0.2303 -0.6135  0.0301
24567SOL     OW85759   3.334   3.787   2.098 -0.1952 -0.1021  0.0081
24567SOL    HW185760   3.321   3.689   2.083  0.9025 -0.4639  1.3507
24567SOL    HW285761   3.431   3.807   2.101 -0.3994  1.3465 -2.1745
24568SOL     OW85762   4.829   3.421   7.224 -0.1679  0.1510  0.3759
24568SOL    HW185763   4.823   3.348   7.155  0.6175  0.6448 -0.2133
24568SOL    HW285764   4.750   3.415   7.285 -0.3813 -0.8752  0.0106
24569SOL     OW85765   0.675   6.078   1.276 -0.1223  0.8555 -0.0042
24569SOL    HW185766   0.654   6.000   1.336 -0.0890 -0.9474 -2.2752
24569SOL    HW285767   0.774   6.095   1.278  0.3089 -1.2394 -1.9285
24570SOL     OW85768   2.818   2.144   0.949 -0.0476 -0.6437 -0.6440
24570SOL    HW185769   2.853   2.218   1.007  0.7926  0.3480 -2.3403
24570SOL    HW285770   2.781   2.071   1.006 -0.7919  1.0254  1.0866
24571SOL     OW85771   9.888   9.009   0.691  0.1095  0.5347  0.0643
24571SOL    HW185772   9.921   9.101   0.671  0.5753 -0.2542 -3.2115
24571SOL    HW285773   9.805   8.991   0.637 -0.3635 -0.7120  1.1883
24572SOL     OW85774   4.576   6.406   0.929 -0.1533 -0.0309  0.1213
24572SOL    HW185775   4.612   6.402   1.022  0.4442 -0.6860 -0.1214
24572SOL    HW285776   4.482   6.373   0.927 -0.3107  0.3991  0.5591
24573SOL     OW85777   3.970   4.512   0.435 -0.0553  0.2145  0.1837
24573SOL    HW185778   3.925   4.488   0.521  1.9439  0.9418  1.4711
24573SOL    HW285779   4.058   4.464   0.429 -0.7852 -0.9051 -2.1088
24574SOL     OW85780   4.453   6.704   0.583 -0.8022  0.4638  0.3892
24574SOL    HW185781   4.545   6.676   0.611 -0.8183  2.5788  2.7523
24574SOL    HW285782   4.390   6.627   0.594 -0.0070  0.0569  2.4513
24575SOL     OW85783   8.495   5.353   9.615 -0.2383  0.0298 -0.0009
24575SOL    HW185784   8.428   5.300   9.562  0.7865 -0.1061 -1.1844
24575SOL    HW285785   8.522   5.433   9.562  1.0994 -0.3261  0.1424
24576SOL     OW85786   5.124   1.327   5.355  0.2242  0.5259 -0.0930
24576SOL    HW185787   5.121   1.426   5.363  0.8067  0.4611  1.1759
24576SOL    HW285788   5.219   1.295   5.364  0.0211 -0.1546 -0.2849
24577SOL     OW85789   1.030   7.200   6.497 -0.4455 -0.1219 -0.3693
24577SOL    HW185790   0.990   7.123   6.545  0.7304 -0.8397 -0.5279
24577SOL    HW285791   1.118   7.223   6.538 -1.6767  2.4202  0.9544
24578SOL     OW85792   6.129   5.110   8.926  0.3625 -0.3973  0.2183
24578SOL    HW185793   6.053   5.158   8.970 -0.0457  1.1269 -2.0770
24578SOL    HW285794   6.184   5.175   8.874  2.5181 -1.7009  0.7871
24579SOL     OW85795   2.339   8.241   0.371  0.2420 -0.2099 -0.3254
24579SOL    HW185796   2.388   8.172   0.318 -0.9193 -1.2377 -0.0640
24579SOL    HW285797   2.255   8.266   0.324 -0.4322 -0.5970  0.6588
24580SOL     OW85798   8.047   0.349   0.907  0.1726  0.0540 -0.8020
24580SOL    HW185799   8.036   0.313   0.999 -0.4835  0.1303 -0.8525
24580SOL    HW285800   8.079   0.443   0.911 -2.1874  0.8748 -0.6154
24581SOL     OW85801   5.898   4.592   8.596 -0.5728  0.0156 -0.2858
24581SOL    HW185802   5.969   4.641   8.646  0.1830 -2.2659  0.9903
24581SOL    HW285803   5.812   4.643   8.599 -0.2105  0.5226  2.2774
24582SOL     OW85804   5.305   7.097   1.335 -0.4108  0.3184  0.3131
24582SOL    HW185805   5.214   7.060   1.320 -1.1822  2.4414 -0.4428
24582SOL    HW285806   5.298   7.191   1.369  1.4581 -0.8528  4.1959
24583SOL     OW85807   7.429   5.990   2.822  0.1771  0.2857  0.2154
24583SOL    HW185808   7.409   5.946   2.910 -0.6318  1.2338  0.5130
24583SOL    HW285809   7.375   5.947   2.750 -1.1363  1.2301  0.6197
24584SOL     OW85810   5.538   7.093   6.030  0.2826  0.3948  0.1062
24584SOL    HW185811   5.499   7.179   6.066  0.7548  0.4419  0.5167
24584SOL    HW285812   5.623   7.073   6.079  1.1653  0.6782 -1.2903
24585SOL     OW85813   3.201   6.208   4.720  0.1813 -0.8815 -0.6766
24585SOL    HW185814   3.257   6.228   4.800  0.7661 -1.1159 -1.0259
24585SOL    HW285815   3.234   6.261   4.642 -2.9044  2.4763  0.1814
24586SOL     OW85816   8.854   5.876   2.056  0.1311  0.1013 -0.0070
24586SOL    HW185817   8.872   5.856   1.960  0.1914  1.3732 -0.2680
24586SOL    HW285818   8.931   5.927   2.094 -0.1075  0.0184  0.5923
24587SOL     OW85819   8.918   7.102   9.918 -0.1528 -0.5858 -0.0924
24587SOL    HW185820   8.923   7.195   9.883 -1.3511 -0.8220 -0.9198
24587SOL    HW285821   8.873   7.102  10.008  2.5710 -0.0249  1.3238
24588SOL     OW85822   2.062   9.635   8.480 -0.2482 -0.2715  0.0180
24588SOL    HW185823   2.088   9.551   8.527 -0.7857  0.0084  0.8293
24588SOL    HW285824   2.057   9.618   8.381  0.2797 -1.0214  0.1198
24589SOL     OW85825   3.010   1.041  10.047 -0.1577  0.7679 -0.3399
24589SOL    HW185826   3.025   0.944  10.030  1.1458  0.8143  0.5035
24589SOL    HW285827   3.032   1.093   9.964  0.1873  0.4453 -0.4503
24590SOL     OW85828   2.765   2.359   0.751 -0.5716  0.0492 -0.1817
24590SOL    HW185829   2.793   2.317   0.664 -0.3407  0.8569 -0.5049
24590SOL    HW285830   2.753   2.287   0.820  0.0237 -0.5288 -0.6622
24591SOL     OW85831   5.464   7.924   3.967 -0.2246 -0.2120 -0.2775
24591SOL    HW185832   5.378   7.904   4.014  0.7163  0.8948  1.9874
24591SOL    HW285833   5.465   8.020   3.938  0.3287 -0.1656 -0.1101
24592SOL     OW85834   0.643   5.506   0.344 -0.2006 -0.1084  0.1233
24592SOL    HW185835   0.664   5.438   0.274 -0.7604  0.7382 -0.8810
24592SOL    HW285836   0.724   5.563   0.361  0.0685 -0.5977  0.4881
24593SOL     OW85837   0.062   7.404   7.603 -0.2242 -0.3672 -0.3303
24593SOL    HW185838  -0.021   7.428   7.653 -0.8452  0.5653 -1.7570
24593SOL    HW285839   0.141   7.441   7.650 -0.7321 -0.0835  0.3148
24594SOL     OW85840   2.496   2.446   5.698  0.4148 -0.5468  0.2753
24594SOL    HW185841   2.574   2.430   5.759  1.2120 -1.9257 -1.0544
24594SOL    HW285842   2.489   2.370   5.633 -0.8075  0.5709 -0.9252
24595SOL     OW85843   9.077   7.129   8.367  0.2549  0.0794  0.5652
24595SOL    HW185844   9.007   7.132   8.296 -0.3662 -0.4104  1.1528
24595SOL    HW285845   9.148   7.196   8.346 -1.2935  1.8933  0.9122
24596SOL     OW85846   7.282   6.426   8.325  0.1398 -0.9674  0.4023
24596SOL    HW185847   7.186   6.419   8.353  0.9763 -3.1981  3.0185
24596SOL    HW285848   7.295   6.381   8.237 -1.1939 -0.7944  0.1147
24597SOL     OW85849   3.062   0.252   8.420  0.1502  0.0710 -0.5533
24597SOL    HW185850   3.018   0.185   8.360  0.6771 -1.7670  1.0462
24597SOL    HW285851   3.155   0.221   8.442 -0.1347  0.5417  1.4368
24598SOL     OW85852   2.764   4.611   8.192  0.3648 -0.0872 -0.3858
24598SOL    HW185853   2.813   4.533   8.231  2.3965  1.1384 -0.3905
24598SOL    HW285854   2.708   4.654   8.264 -1.5615 -2.1241 -0.6371
24599SOL     OW85855   5.075   9.174   9.403 -0.3249 -0.1835  0.1781
24599SOL    HW185856   5.067   9.240   9.328 -1.5568 -0.2495  0.2385
24599SOL    HW285857   5.058   9.220   9.490  2.1592  0.1250  0.5431
24600SOL     OW85858   5.741   0.686   3.313  0.8003 -0.1908  0.0062
24600SOL    HW185859   5.728   0.600   3.362 -0.0951 -0.0383  0.0326
24600SOL    HW285860   5.741   0.762   3.379  0.1959 -0.0399 -0.1709
24601SOL     OW85861   7.795   4.531   8.663  0.6683 -0.5204 -0.3458
24601SOL    HW185862   7.824   4.497   8.573  1.4471 -0.7632 -0.0060
24601SOL    HW285863   7.798   4.631   8.663  2.4169 -0.5558 -0.0275
24602SOL     OW85864   6.891   8.831   5.837  0.2380  0.2939  0.8186
24602SOL    HW185865   6.937   8.903   5.785  1.3206  0.3392  1.8034
24602SOL    HW285866   6.958   8.762   5.864 -0.3784  0.0682  1.7877
24603SOL     OW85867   9.042   6.155   4.430  0.5188  0.2736 -0.6530
24603SOL    HW185868   8.966   6.185   4.488  1.9191  1.1748  0.7389
24603SOL    HW285869   9.057   6.222   4.357  0.5278  0.5321 -0.4148
24604SOL     OW85870   2.897   0.972   2.110  0.2381  0.2541 -0.1562
24604SOL    HW185871   2.933   0.984   2.202 -0.1741 -0.9274  0.1668
24604SOL    HW285872   2.822   1.035   2.094 -0.9812 -0.8751  1.0163
24605SOL     OW85873   9.979   9.328   2.461  0.4709 -0.0607  0.0627
24605SOL    HW185874  10.000   9.364   2.552  0.6642  0.9060 -0.3575
24605SOL    HW285875  10.052   9.355   2.397  1.9129 -3.2489  0.2333
24606SOL     OW85876   3.718   7.821   4.334  0.0749 -0.0738 -0.1946
24606SOL    HW185877   3.749   7.778   4.249 -1.6609 -0.6234 -0.5837
24606SOL    HW285878   3.752   7.914   4.339  3.8876 -1.4304  0.6326
24607SOL     OW85879   0.370   3.548   1.838 -0.0307 -0.1362 -0.2077
24607SOL    HW185880   0.460   3.565   1.800 -0.1954  0.5305 -0.2980
24607SOL    HW285881   0.354   3.607   1.917 -0.6934  0.3171 -0.6728
24608SOL     OW85882   0.645   5.427   2.514  0.6366  0.5703 -0.1508
24608SOL    HW185883   0.645   5.516   2.560  2.3443  1.3842 -1.6594
24608SOL    HW285884   0.625   5.440   2.417 -2.0669 -1.0398  0.1352
24609SOL     OW85885   7.631   3.388   9.431  0.1818  0.3616 -0.1740
24609SOL    HW185886   7.568   3.311   9.422  0.9925 -0.2351 -0.8191
24609SOL    HW285887   7.581   3.469   9.461 -1.3582  0.5592 -3.1196
24610SOL     OW85888   2.135   5.221   0.343 -0.5469 -0.0208 -0.3817
24610SOL    HW185889   2.085   5.135   0.353  0.3190 -0.7431 -2.0201
24610SOL    HW285890   2.105   5.285   0.413  0.5475 -2.4644  2.4149
24611SOL     OW85891   9.013   8.625   7.538 -0.3665  0.6836 -0.1502
24611SOL    HW185892   9.019   8.526   7.545 -0.9140  0.8130  2.4344
24611SOL    HW285893   9.089   8.668   7.587 -1.8428  1.5844  1.3954
24612SOL     OW85894   0.902   1.828   6.346 -0.8801  0.1372  0.0006
24612SOL    HW185895   0.979   1.844   6.284 -0.3233 -2.1072  0.0817
24612SOL    HW285896   0.881   1.913   6.395  0.2998  1.2708 -1.4106
24613SOL     OW85897   9.095   1.288   1.000  0.2064  0.3433  0.1321
24613SOL    HW185898   9.072   1.384   0.988 -0.3172  0.2696  0.5495
24613SOL    HW285899   9.033   1.247   1.067  0.8089 -0.1363  0.3955
24614SOL     OW85900   7.896   2.468   0.463  0.1063 -0.1778  0.6242
24614SOL    HW185901   7.959   2.464   0.541  1.5384  0.0706 -0.4880
24614SOL    HW285902   7.935   2.416   0.386 -0.8416  0.3672 -0.2364
24615SOL     OW85903   1.941   0.524   4.859 -0.2875 -0.0395  0.6319
24615SOL    HW185904   1.961   0.441   4.807 -1.8437  0.4649 -0.8289
24615SOL    HW285905   1.909   0.595   4.797  0.2601  1.4025  1.9803
24616SOL     OW85906   5.192   5.880   3.019 -0.9003  0.2103 -0.4091
24616SOL    HW185907   5.139   5.914   3.097  0.4991  1.0216  0.2192
24616SOL    HW285908   5.254   5.807   3.050 -0.5548  0.3233 -0.8267
24617SOL     OW85909   1.971   4.536   8.164  0.3450  0.5382 -0.8302
24617SOL    HW185910   1.934   4.511   8.075 -1.1509  0.4836 -0.2146
24617SOL    HW285911   2.030   4.463   8.198 -0.8199 -0.4130 -0.8114
24618SOL     OW85912   4.313   2.736   7.760  0.1987 -0.1231 -0.4557
24618SOL    HW185913   4.221   2.702   7.744  0.4671 -1.0894  0.0139
24618SOL    HW285914   4.323   2.761   7.857  0.5817 -0.5347 -0.3832
24619SOL     OW85915   9.689   9.877   1.979 -0.0687  0.1638  0.0181
24619SOL    HW185916   9.775   9.831   2.001  0.3413  0.5742 -0.7278
24619SOL    HW285917   9.645   9.907   2.064  0.7514  0.3691  0.3747
24620SOL     OW85918   5.562   4.026   8.724  0.0096  0.4033  0.2326
24620SOL    HW185919   5.646   3.973   8.708  1.2087  1.7658  1.8372
24620SOL    HW285920   5.506   3.980   8.792 -0.5609 -0.5156 -0.8478
24621SOL     OW85921   3.899   1.734   2.145 -0.5160  0.0536  0.6749
24621SOL    HW185922   3.999   1.745   2.146 -0.5775  1.4016 -2.3880
24621SOL    HW285923   3.872   1.669   2.216  2.4687  0.1887  2.0076
24622SOL     OW85924   9.812   4.935   0.955  0.4839  0.3224  0.0715
24622SOL    HW185925   9.835   4.859   0.893  0.5274  2.1435 -2.2239
24622SOL    HW285926   9.801   4.900   1.048  2.3446 -2.1999 -0.5973
24623SOL     OW85927   9.065   0.158   8.817  0.0763 -0.3744 -0.4235
24623SOL    HW185928   9.112   0.145   8.904 -1.9164 -0.8499  0.6007
24623SOL    HW285929   9.064   0.256   8.794  0.8347 -0.2765 -0.0573
24624SOL     OW85930   3.458   2.219   9.292 -0.7833  0.1316 -0.0204
24624SOL    HW185931   3.469   2.120   9.287 -1.3826  0.1247 -1.2731
24624SOL    HW285932   3.443   2.246   9.387 -0.5199 -0.9639  0.3359
24625SOL     OW85933   0.669   6.897   0.048 -0.0376 -0.3460 -0.6070
24625SOL    HW185934   0.688   6.829   0.119  1.3308 -0.0904 -0.7196
24625SOL    HW285935   0.591   6.953   0.076 -0.6009 -1.3678 -0.0956
24626SOL     OW85936   4.828   6.242   2.802 -0.2350  0.0434  0.0966
24626SOL    HW185937   4.734   6.247   2.766  0.0439 -0.6359 -0.7461
24626SOL    HW285938   4.852   6.146   2.817 -0.1150  0.2871  1.5056
24627SOL     OW85939   1.936   9.095   8.501 -0.1708 -0.0661 -0.6238
24627SOL    HW185940   2.003   9.045   8.447  1.8487  1.8231  0.0362
24627SOL    HW285941   1.895   9.167   8.445  0.7789  0.8758 -0.1464
24628SOL     OW85942   7.744   5.401   2.948 -0.4507 -0.0421  0.2830
24628SOL    HW185943   7.814   5.468   2.925 -0.5422 -0.6967 -2.0618
24628SOL    HW285944   7.767   5.356   3.034  1.2867  0.7166  0.2321
24629SOL     OW85945   0.138   0.567   8.855 -0.0700  0.0986 -0.1448
24629SOL    HW185946   0.061   0.630   8.842  0.4429  1.0626  1.3397
24629SOL    HW285947   0.178   0.544   8.766 -0.6386  1.4012 -0.7445
24630SOL     OW85948   8.362   1.216   2.723 -0.1723  0.0411 -0.5361
24630SOL    HW185949   8.376   1.233   2.626 -0.7145  3.1989 -0.0944
24630SOL    HW285950   8.268   1.237   2.748 -0.1777 -1.2391  0.5911
24631SOL     OW85951   7.592   9.294   9.018  0.2542  0.0119 -0.4347
24631SOL    HW185952   7.595   9.324   9.113 -0.4230  0.1186 -0.4450
24631SOL    HW285953   7.607   9.373   8.958 -1.1116  0.2744 -0.4527
24632SOL     OW85954   2.000   1.825   4.741 -0.4188 -0.2371  0.3270
24632SOL    HW185955   2.004   1.728   4.764 -0.2296 -0.7506 -1.7679
24632SOL    HW285956   2.075   1.873   4.788  1.3859 -1.6468 -1.0416
24633SOL     OW85957   6.886   8.471   7.100  0.1204 -0.0394 -0.0797
24633SOL    HW185958   6.878   8.570   7.110  3.1403  0.3970 -1.4078
24633SOL    HW285959   6.875   8.428   7.190  0.9458  1.6826  0.8701
24634SOL     OW85960   2.620   2.322   3.442 -0.1490 -0.1071  0.2272
24634SOL    HW185961   2.629   2.396   3.508  1.6233 -1.0184  1.0459
24634SOL    HW285962   2.705   2.269   3.439 -1.0815 -1.5900 -0.9608
24635SOL     OW85963   0.005   5.407   7.657  0.5765  0.2106  0.3820
24635SOL    HW185964   0.098   5.398   7.622  0.2379 -1.4711 -0.1425
24635SOL    HW285965  -0.012   5.334   7.723 -0.3553  0.5432  0.5114
24636SOL     OW85966   3.613   7.838   4.952 -0.3526 -0.1759 -0.0800
24636SOL    HW185967   3.513   7.839   4.947 -0.3966  0.4865  0.7819
24636SOL    HW285968   3.651   7.813   4.863 -1.2518  0.6879 -0.7114
24637SOL     OW85969   2.158   8.893   4.759 -0.3867 -0.6874 -0.3152
24637SOL    HW185970   2.118   8.852   4.842  0.0682 -1.9060 -0.6856
24637SOL    HW285971   2.174   8.990   4.775  0.7879 -1.1454  1.4363
24638SOL     OW85972   7.742   0.086   7.265 -0.1591 -0.0250  0.2439
24638SOL    HW185973   7.646   0.116   7.266 -0.8450 -2.1002 -0.1899
24638SOL    HW285974   7.748  -0.002   7.217  1.9643  0.0563  0.3342
24639SOL     OW85975   5.428   0.849   7.653  0.1701  0.4907 -0.3069
24639SOL    HW185976   5.523   0.820   7.639 -0.1954 -0.2705 -1.2886
24639SOL    HW285977   5.371   0.769   7.673 -0.5038  0.7608 -1.0902
24640SOL     OW85978   0.684   2.527   8.193 -0.2618 -0.4172 -0.5720
24640SOL    HW185979   0.730   2.614   8.179  0.3413 -0.7598 -0.7025
24640SOL    HW285980   0.709   2.490   8.282 -0.6642 -0.3695 -0.4369
24641SOL     OW85981   1.348   2.944   3.833 -0.3786  0.6211 -0.9094
24641SOL    HW185982   1.366   2.896   3.747  1.0373 -2.5342  1.0598
24641SOL    HW285983   1.433   2.951   3.886 -2.0015 -1.3604  2.1105
24642SOL     OW85984   1.184   7.838   5.926  0.3209  0.0631 -0.2693
24642SOL    HW185985   1.275   7.855   5.887  0.2877  1.1191  0.1136
24642SOL    HW285986   1.120   7.814   5.853  0.8439 -0.4259 -0.5702
24643SOL     OW85987   1.155   5.857   0.672 -0.9142  0.0555 -0.1760
24643SOL    HW185988   1.148   5.931   0.605 -0.4271 -0.0956 -0.3961
24643SOL    HW285989   1.243   5.811   0.662 -0.0398  1.2248  1.7836
24644SOL     OW85990   9.240   1.080   6.961  0.6769  0.3085 -0.1314
24644SOL    HW185991   9.204   1.006   6.904  1.3380 -1.2372  1.4339
24644SOL    HW285992   9.262   1.159   6.903  0.0703 -0.7398 -1.8272
24645SOL     OW85993   4.884   3.490   0.302 -0.2624  0.0273 -0.0750
24645SOL    HW185994   4.860   3.406   0.254 -2.1687  0.7527 -0.4219
24645SOL    HW285995   4.953   3.540   0.249 -1.5966  0.3193 -1.5840
24646SOL     OW85996   0.056   7.974   5.143 -0.4123  0.2025  0.2436
24646SOL    HW185997  -0.040   7.963   5.169 -0.2720 -1.9323 -0.0534
24646SOL    HW285998   0.068   7.946   5.047  0.6442 -0.3657  0.5290
24647SOL     OW85999   1.028   3.024   6.941  0.1197  0.1854 -0.0868
24647SOL    HW186000   1.116   3.001   6.983  1.5660  1.7963 -2.1705
24647SOL    HW286001   1.009   2.960   6.867 -0.4865 -0.1615  0.3620
24648SOL     OW86002   3.791   8.194   5.297 -0.8517  0.4715 -0.1083
24648SOL    HW186003   3.808   8.267   5.363 -1.2134  1.9587 -1.6162
24648SOL    HW286004   3.869   8.186   5.236 -0.9122 -0.2674 -0.0963
24649SOL     OW86005   2.729   7.247   3.306 -0.3877 -0.1683  0.7118
24649SOL    HW186006   2.653   7.309   3.288 -0.2203 -0.2490 -0.2904
24649SOL    HW286007   2.784   7.283   3.381  0.2434  1.3939 -0.4666
24650SOL     OW86008   2.003   1.256   4.041 -0.3294 -0.0452 -0.1735
24650SOL    HW186009   2.072   1.275   3.971  0.6681 -0.8572  0.5702
24650SOL    HW286010   1.973   1.342   4.083  1.9985  0.1436  1.1570
24651SOL     OW86011   6.618   5.740   6.741 -0.3248 -0.0664  0.0147
24651SOL    HW186012   6.586   5.691   6.821 -1.1101 -2.1414 -1.5241
24651SOL    HW286013   6.710   5.707   6.716 -0.1890  0.3822 -0.0928
24652SOL     OW86014   5.229   3.106   2.883 -0.1480  0.0304  0.6607
24652SOL    HW186015   5.179   3.032   2.837 -0.4997  0.1198  0.8944
24652SOL    HW286016   5.231   3.187   2.824 -0.6901  0.1794  0.8462
24653SOL     OW86017   4.784   2.746   7.265  0.0804  0.0123 -0.7539
24653SOL    HW186018   4.723   2.699   7.202 -0.7547 -3.2335  2.3002
24653SOL    HW286019   4.879   2.731   7.238 -0.2752 -1.0665 -1.4345
24654SOL     OW86020   0.755   4.708   7.398 -0.0311  0.0985  0.3908
24654SOL    HW186021   0.844   4.737   7.433  0.1264  0.7833 -0.5668
24654SOL    HW286022   0.701   4.788   7.374  0.4683 -0.3496 -2.4236
24655SOL     OW86023   7.015   4.799   1.241  0.3716  0.0097  0.4876
24655SOL    HW186024   7.063   4.732   1.298  1.8183 -0.1809 -0.9337
24655SOL    HW286025   6.930   4.826   1.287  0.8059 -1.1989  2.0659
24656SOL     OW86026   2.296   8.030   7.934  0.4953  0.3923  0.1736
24656SOL    HW186027   2.212   8.069   7.895  0.2053 -0.6938 -0.3151
24656SOL    HW286028   2.351   7.991   7.860  0.3357 -0.9475  0.7406
24657SOL     OW86029   2.744   2.985   4.742 -0.1103 -0.8590  0.2400
24657SOL    HW186030   2.694   2.983   4.655  0.5829 -2.4006 -0.1328
24657SOL    HW286031   2.826   2.929   4.735  1.8083  1.7852  0.8012
24658SOL     OW86032   8.643   4.663   8.577 -0.3009 -0.1411 -0.2490
24658SOL    HW186033   8.561   4.607   8.589  0.4784 -1.5697 -1.3972
24658SOL    HW286034   8.696   4.662   8.662 -0.9377 -0.0870  0.1558
24659SOL     OW86035   0.548   9.813   1.286 -0.0530 -0.0462 -0.4722
24659SOL    HW186036   0.501   9.900   1.305 -0.3144 -0.1101 -0.8165
24659SOL    HW286037   0.481   9.745   1.258  0.1615 -0.3454 -0.2524
24660SOL     OW86038   5.815   9.978   8.085  0.3622 -0.1150  0.0768
24660SOL    HW186039   5.872   9.936   8.015  0.5407 -0.5489  0.4778
24660SOL    HW286040   5.745  10.035   8.042  0.7253 -0.0594 -0.4353
24661SOL     OW86041   2.129   1.274   1.898 -0.4139  0.2567  0.2667
24661SOL    HW186042   2.160   1.228   1.981 -1.3141 -0.3713  0.2678
24661SOL    HW286043   2.196   1.342   1.870  1.1099 -1.2957  0.0797
24662SOL     OW86044   0.529   6.013   8.831  0.5633  0.1627 -0.2629
24662SOL    HW186045   0.524   6.104   8.875 -0.7401 -0.0750  0.1163
24662SOL    HW286046   0.518   6.023   8.732  3.6016  0.7137 -0.5689
24663SOL     OW86047   7.657   8.739   3.466  0.0092  0.3079  0.2064
24663SOL    HW186048   7.675   8.642   3.449  0.0912  0.2339  0.6881
24663SOL    HW286049   7.740   8.792   3.448  0.4619  0.0784  1.5597
24664SOL     OW86050   9.321   7.256   8.269 -0.1597  0.0669  0.6921
24664SOL    HW186051   9.319   7.334   8.332  0.9878  2.7313 -2.4462
24664SOL    HW286052   9.351   7.287   8.179 -0.5295 -3.8900 -0.8677
24665SOL     OW86053   4.378   0.675   0.189 -0.0879  0.9850  0.7727
24665SOL    HW186054   4.373   0.648   0.285  1.4677  1.3447  0.9739
24665SOL    HW286055   4.296   0.644   0.141 -0.5733  0.2233  2.0674
24666SOL     OW86056   9.626   4.727   7.658  0.1431 -0.3568  0.0893
24666SOL    HW186057   9.583   4.744   7.569  0.3479 -2.0762 -0.3566
24666SOL    HW286058   9.644   4.814   7.704 -0.6961  0.5107 -1.2041
24667SOL     OW86059   0.564   4.223   1.411 -0.2531 -0.0686  0.4055
24667SOL    HW186060   0.511   4.157   1.359  0.8777 -0.6662 -0.0161
24667SOL    HW286061   0.592   4.299   1.351 -2.2536  1.2336  1.0847
24668SOL     OW86062   0.821   0.739   9.266  0.0589  0.1928 -0.5944
24668SOL    HW186063   0.897   0.674   9.275  0.7516  1.0561 -0.0630
24668SOL    HW286064   0.822   0.778   9.174 -0.0027 -0.1166 -0.7275
24669SOL     OW86065   2.302   7.959   8.844 -0.2683  0.6564  0.1283
24669SOL    HW186066   2.352   7.962   8.758  1.3949 -0.9014  0.9998
24669SOL    HW286067   2.234   8.032   8.846  0.6348  1.5880 -1.8993
24670SOL     OW86068   4.576   4.625   1.918  0.0930  0.7158 -0.4658
24670SOL    HW186069   4.543   4.628   1.823  1.0315  2.1551 -0.7733
24670SOL    HW286070   4.675   4.642   1.918  0.3468 -0.7683  0.6542
24671SOL     OW86071   4.689   4.549   3.853  0.6692 -0.1344 -0.6483
24671SOL    HW186072   4.695   4.638   3.808 -0.6275 -0.8604 -2.3198
24671SOL    HW286073   4.702   4.476   3.785  0.9046 -1.2204  0.5497
24672SOL     OW86074   7.874   1.120   9.982 -0.3427 -0.7599  0.1246
24672SOL    HW186075   7.876   1.131   9.882  1.3814  0.6499  0.2994
24672SOL    HW286076   7.916   1.032  10.006  0.9673 -0.2546 -0.2828
24673SOL     OW86077   2.323   9.985   2.141  0.1715 -0.2239 -0.2181
24673SOL    HW186078   2.256   9.945   2.203 -0.4508 -0.4801 -1.0445
24673SOL    HW286079   2.411   9.939   2.152  0.2325  0.1550  0.9133
24674SOL     OW86080   1.532   2.036   0.001 -0.0732 -0.2790  0.3952
24674SOL    HW186081   1.472   2.107  -0.035  0.1990 -0.6321 -0.7720
24674SOL    HW286082   1.520   1.952  -0.052  0.8202 -0.6074  0.7065
24675SOL     OW86083   8.359   1.868   4.051 -0.4448  0.4786  0.2141
24675SOL    HW186084   8.373   1.954   4.001 -1.8272  0.8628  0.4613
24675SOL    HW286085   8.400   1.793   4.000  1.3391  1.3502  0.2878
24676SOL     OW86086   1.528   5.183   6.286 -0.4189  0.2706  0.3774
24676SOL    HW186087   1.617   5.194   6.331 -1.0157  0.2384  1.5755
24676SOL    HW286088   1.542   5.171   6.187  0.9129  0.1484  0.5708
24677SOL     OW86089   9.978   6.532   3.100 -0.0202  0.0034  0.3378
24677SOL    HW186090   9.990   6.591   3.020  0.2159 -0.9214 -0.3162
24677SOL    HW286091   9.881   6.510   3.110 -0.0442  0.0819  0.2833
24678SOL     OW86092   3.768   7.273   6.979  0.2666  0.1479  0.3377
24678SOL    HW186093   3.776   7.275   7.079  0.9688 -1.1188  0.3110
24678SOL    HW286094   3.815   7.193   6.943  1.8634  1.7242 -1.1936
24679SOL     OW86095   1.440   1.201   5.786 -0.2931 -0.3289 -0.0516
24679SOL    HW186096   1.349   1.171   5.816  0.2287 -1.0927  0.7957
24679SOL    HW286097   1.485   1.251   5.860  0.6475 -1.4373  0.1387
24680SOL     OW86098   7.948   9.872   4.382 -0.1081 -1.2503  0.3188
24680SOL    HW186099   8.026   9.931   4.363 -0.3745 -0.5105  1.4598
24680SOL    HW286100   7.934   9.808   4.306 -0.4374  0.7938 -1.3644
24681SOL     OW86101   2.299   1.100   0.260  0.0001  0.0313  0.3380
24681SOL    HW186102   2.231   1.155   0.212  2.5561  0.9160 -2.4615
24681SOL    HW286103   2.320   1.142   0.348 -2.1973  0.3674  0.7268
24682SOL     OW86104   3.676   5.350   3.773 -0.0071  0.1383  0.4188
24682SOL    HW186105   3.735   5.369   3.694 -1.0641 -1.1836 -0.7310
24682SOL    HW286106   3.604   5.286   3.745  1.6128 -3.0970  3.3391
24683SOL     OW86107   9.625   2.836   7.850 -0.6163 -0.8526  0.1535
24683SOL    HW186108   9.540   2.886   7.867 -1.1115 -1.5298 -0.3185
24683SOL    HW286109   9.665   2.868   7.763  0.4448  0.5913  1.1381
24684SOL     OW86110   7.985   9.640   7.529  0.0987  0.3007 -0.1464
24684SOL    HW186111   7.951   9.565   7.473 -0.3866  0.4546 -0.0593
24684SOL    HW286112   7.958   9.727   7.487 -1.3052  0.4051  0.9818
24685SOL     OW86113   7.264   7.537   3.032 -0.2358 -0.3398  0.1443
24685SOL    HW186114   7.244   7.606   3.102 -0.2994 -0.2217  0.0101
24685SOL    HW286115   7.198   7.462   3.040 -0.2137 -0.3490  0.2413
24686SOL     OW86116   7.477   0.817   5.533  0.0431  0.4493 -0.1762
24686SOL    HW186117   7.391   0.859   5.562 -0.0297 -0.1341  0.4743
24686SOL    HW286118   7.482   0.816   5.433  0.0614  2.0114 -0.1961
24687SOL     OW86119   8.620   6.788   8.060  0.4684  0.8230 -0.2363
24687SOL    HW186120   8.565   6.706   8.046  0.9956  0.7852 -2.2440
24687SOL    HW286121   8.592   6.833   8.144 -0.4281 -0.9365  0.4223
24688SOL     OW86122   2.435   3.245   1.706  0.1022  1.3508 -0.0047
24688SOL    HW186123   2.473   3.203   1.789  0.0750  1.0060 -0.1653
24688SOL    HW286124   2.481   3.332   1.689  1.9198  0.2242 -1.0463
24689SOL     OW86125   3.983   9.383   0.426 -0.3044  0.1940 -0.1258
24689SOL    HW186126   3.967   9.480   0.411  1.1729  0.4504 -0.0681
24689SOL    HW286127   3.895   9.335   0.432 -1.0354  1.1970 -2.3060
24690SOL     OW86128   5.861   2.189   5.522 -0.2220  0.1058  0.4582
24690SOL    HW186129   5.768   2.221   5.539 -0.0428  1.4307 -0.9788
24690SOL    HW286130   5.885   2.205   5.426  1.8008  0.5859  1.0221
24691SOL     OW86131   9.616   1.537   0.293  0.3663 -0.5714  0.1287
24691SOL    HW186132   9.623   1.484   0.209  0.6728 -0.0031 -0.2069
24691SOL    HW286133   9.707   1.544   0.335  0.0341 -1.8014  1.1014
24692SOL     OW86134   2.656   3.691   2.304  0.2658 -0.4431  0.0892
24692SOL    HW186135   2.716   3.766   2.275 -0.5114  0.6772  1.2753
24692SOL    HW286136   2.678   3.665   2.398 -1.1723  0.0857  0.5999
24693SOL     OW86137   3.201   3.051   2.153  0.1946 -0.3939 -0.5105
24693SOL    HW186138   3.214   2.962   2.109 -0.6628 -0.2111 -1.1271
24693SOL    HW286139   3.160   3.037   2.243  2.3244 -0.7979  0.4242
24694SOL     OW86140   4.705   7.890   5.052 -0.0293 -0.1243  0.4629
24694SOL    HW186141   4.800   7.860   5.066 -0.5162 -1.6869  0.5347
24694SOL    HW286142   4.656   7.885   5.139 -0.6779 -1.1818  0.0417
24695SOL     OW86143   6.341   0.575   3.268  0.1262 -0.5957  0.1087
24695SOL    HW186144   6.281   0.632   3.211  1.2010 -0.8133 -1.2618
24695SOL    HW286145   6.285   0.514   3.323 -0.9881  0.5728  0.3197
24696SOL     OW86146   9.559   7.963   8.969  0.6083  0.2940  0.6209
24696SOL    HW186147   9.540   8.060   8.955  1.2351  0.4713  0.9812
24696SOL    HW286148   9.474   7.910   8.960  0.2027  0.9144  0.7936
24697SOL     OW86149   1.620   5.989   6.820 -0.4895 -0.9257  0.1730
24697SOL    HW186150   1.613   5.892   6.797 -0.5230 -1.4791  2.3575
24697SOL    HW286151   1.623   5.999   6.920 -0.3701  1.3151 -0.0313
24698SOL     OW86152   3.530   7.608   8.955 -0.0758 -0.2361 -0.3237
24698SOL    HW186153   3.603   7.544   8.933 -0.9361 -1.3221 -0.0503
24698SOL    HW286154   3.510   7.665   8.875  0.5283 -0.4774 -0.6445
24699SOL     OW86155   3.728   3.388   7.050  0.3065 -0.3685 -0.5380
24699SOL    HW186156   3.796   3.318   7.026  0.2057 -0.5914 -0.1831
24699SOL    HW286157   3.689   3.427   6.967 -0.7870 -1.8617 -0.7523
24700SOL     OW86158   2.374   4.499   0.277 -0.0080  0.3370  0.5547
24700SOL    HW186159   2.426   4.524   0.358  1.5431  2.7431 -1.1390
24700SOL    HW286160   2.311   4.573   0.253  1.0842  0.5954 -1.6676
24701SOL     OW86161   2.844   8.398   8.988  0.4994 -0.1056 -0.4779
24701SOL    HW186162   2.751   8.370   8.962 -0.1635  1.7147 -0.1506
24701SOL    HW286163   2.883   8.330   9.051 -0.1611 -1.4647 -1.5066
24702SOL     OW86164   7.471   7.812   8.237  0.2750 -1.0502  0.3360
24702SOL    HW186165   7.443   7.859   8.321 -3.1659 -0.2237 -1.1907
24702SOL    HW286166   7.532   7.871   8.184  0.4821 -0.5875  1.0827
24703SOL     OW86167   8.465   6.204   0.251 -0.4211 -0.1862  0.2479
24703SOL    HW186168   8.387   6.259   0.281 -0.1636 -0.9117  2.3039
24703SOL    HW286169   8.443   6.107   0.263 -0.0331 -0.4707 -1.2729
24704SOL     OW86170   8.081   0.305   6.956 -0.1096 -0.2082  0.0138
24704SOL    HW186171   8.003   0.286   7.015  0.7744 -1.4378  0.8210
24704SOL    HW286172   8.095   0.404   6.950 -2.1007  0.0442 -0.6585
24705SOL     OW86173   1.694   6.171   2.345 -0.4623  0.3400  0.1700
24705SOL    HW186174   1.774   6.213   2.302  0.3257  0.9075  2.1398
24705SOL    HW286175   1.622   6.159   2.276  0.7121  1.3208 -1.2715
24706SOL     OW86176   6.072   3.487   9.722  0.0446 -0.1651  0.2245
24706SOL    HW186177   6.084   3.574   9.675  1.6147  0.2098  1.2928
24706SOL    HW286178   6.065   3.502   9.821  1.4664 -1.3108  0.5340
24707SOL     OW86179   1.401   1.110   1.641 -0.3563  0.5055  0.0749
24707SOL    HW186180   1.483   1.157   1.675 -2.3576  1.7117  3.4863
24707SOL    HW286181   1.404   1.013   1.668  0.5343  0.2350 -0.9616
24708SOL     OW86182   7.433   1.683   1.001 -0.6808 -0.3021 -0.6239
24708SOL    HW186183   7.334   1.689   0.983 -0.3347  0.1292 -2.4852
24708SOL    HW286184   7.477   1.630   0.929  0.5829  0.2630 -0.2821
24709SOL     OW86185   4.363   3.420   2.422 -0.3288  0.0788 -0.4175
24709SOL    HW186186   4.424   3.343   2.400  0.7089  1.4238 -2.4698
24709SOL    HW286187   4.269   3.395   2.402 -0.1052 -0.9609 -0.2035
24710SOL     OW86188   2.026   7.343   5.160 -0.0613 -0.1440 -0.0525
24710SOL    HW186189   2.087   7.268   5.185  1.9306  1.4847  0.0939
24710SOL    HW286190   1.939   7.306   5.127  1.3023 -2.5273 -1.0782
24711SOL     OW86191   7.818   5.195   2.761 -0.1492  0.3561  0.1330
24711SOL    HW186192   7.814   5.287   2.801 -0.4887 -0.1752  1.3644
24711SOL    HW286193   7.730   5.149   2.775 -0.5154  0.4083 -1.8887
24712SOL     OW86194   1.326   9.196   3.889 -0.0388  0.7683 -0.2618
24712SOL    HW186195   1.244   9.215   3.834 -1.2843 -0.5694  1.0734
24712SOL    HW286196   1.329   9.258   3.967 -0.9776 -0.5673  0.8760
24713SOL     OW86197   9.848   4.038   5.714  0.0558  0.0328 -0.1492
24713SOL    HW186198   9.821   3.951   5.755 -0.5930 -0.3227 -1.3269
24713SOL    HW286199   9.832   4.112   5.780  1.4880 -0.8228  1.2064
24714SOL     OW86200   9.843   1.488   9.349  0.1079  0.5065 -0.7491
24714SOL    HW186201   9.764   1.502   9.409  1.1000 -1.9132  1.2375
24714SOL    HW286202   9.925   1.526   9.393  1.0348 -2.2442  0.0370
24715SOL     OW86203   5.021   8.050   8.855 -0.7566  0.0959  0.2195
24715SOL    HW186204   5.103   8.055   8.912 -0.0482 -1.4113 -0.6180
24715SOL    HW286205   5.030   8.113   8.778  0.0516 -0.7453 -0.3876
24716SOL     OW86206   9.122   6.527   3.272  0.1398 -0.6094 -0.1913
24716SOL    HW186207   9.133   6.613   3.221  0.8156 -0.1048  0.8010
24716SOL    HW286208   9.029   6.492   3.257 -0.7083  1.1737  0.7270
24717SOL     OW86209   0.736   8.375   2.400  0.2629 -0.7886 -0.1765
24717SOL    HW186210   0.747   8.461   2.451  0.5645 -0.2893 -1.0697
24717SOL    HW286211   0.798   8.375   2.322 -0.6602 -1.2583 -0.9135
24718SOL     OW86212   1.872   7.667   0.771 -0.0905  0.3723  0.1191
24718SOL    HW186213   1.875   7.755   0.817 -0.0559  0.2620  0.3303
24718SOL    HW286214   1.882   7.680   0.672  1.0397  0.5192  0.2423
24719SOL     OW86215   2.617   3.529   2.084 -0.1208 -0.1673  0.4989
24719SOL    HW186216   2.698   3.490   2.040 -0.5455 -0.0588 -0.4023
24719SOL    HW286217   2.642   3.567   2.173  1.6121  3.2096 -1.3453
24720SOL     OW86218   3.676   1.308   1.601 -0.7187  0.2123  0.2702
24720SOL    HW186219   3.739   1.230   1.608 -0.1593  0.6774  0.4594
24720SOL    HW286220   3.719   1.381   1.549 -2.4081 -0.7449 -2.5766
24721SOL     OW86221   8.769   6.834   7.457  0.2138 -0.2511 -0.3310
24721SOL    HW186222   8.860   6.817   7.418 -0.5724  0.2559 -2.4730
24721SOL    HW286223   8.763   6.929   7.487  0.6225 -0.4780  0.4746
24722SOL     OW86224   2.950   1.008   5.406 -0.1805 -0.0353  0.9518
24722SOL    HW186225   2.930   0.969   5.496  1.3869 -0.5206  1.1137
24722SOL    HW286226   2.975   1.104   5.417  1.6338 -0.5111  1.2697
24723SOL     OW86227   1.985   1.562   4.783 -0.2521  0.0150 -0.1061
24723SOL    HW186228   1.948   1.574   4.875  0.1135 -0.7554  0.1512
24723SOL    HW286229   2.017   1.467   4.772  0.4275  0.3131 -0.7564
24724SOL     OW86230   4.341   6.482   4.594  0.1033  0.2344 -0.1021
24724SOL    HW186231   4.428   6.434   4.584 -0.1561 -0.2293 -0.1546
24724SOL    HW286232   4.271   6.417   4.625 -0.3965  0.4373 -0.7872
24725SOL     OW86233   7.894   3.410   2.968  0.2209 -0.0943  0.3689
24725SOL    HW186234   7.880   3.488   3.028 -1.0285 -1.3433  1.7488
24725SOL    HW286235   7.849   3.329   3.007  2.2199 -1.7130 -0.5808
24726SOL     OW86236   0.655   3.144   0.993 -0.2080 -0.5617  0.5393
24726SOL    HW186237   0.724   3.088   1.040 -0.3773 -0.3835  1.0043
24726SOL    HW286238   0.597   3.189   1.061 -0.2644 -0.0596  0.1626
24727SOL     OW86239   8.436   9.369   2.185 -0.4361 -0.2498 -0.6087
24727SOL    HW186240   8.499   9.303   2.225 -0.9657  0.0101  0.7021
24727SOL    HW286241   8.373   9.322   2.123 -0.1640 -0.8095 -0.4629
24728SOL     OW86242   0.229   4.483   4.079 -0.3445 -0.4347 -0.1875
24728SOL    HW186243   0.170   4.518   4.152 -0.0100  0.6068 -0.4008
24728SOL    HW286244   0.322   4.516   4.093  0.2487 -2.2515  0.2668
24729SOL     OW86245   3.805   6.646   8.528  0.3986 -0.1643  0.4674
24729SOL    HW186246   3.732   6.663   8.462  0.0132  0.5352  1.0538
24729SOL    HW286247   3.840   6.553   8.517 -1.2333 -0.8325  0.8102
24730SOL     OW86248   8.184   7.510   8.935 -0.2513 -0.2208 -0.7017
24730SOL    HW186249   8.098   7.485   8.892 -0.2970 -0.1787 -0.6351
24730SOL    HW286250   8.252   7.533   8.865 -0.7775  1.3551 -0.7147
24731SOL     OW86251   5.155   1.513   8.198  0.2136  0.4312  0.1517
24731SOL    HW186252   5.100   1.485   8.119  1.7239  0.3404 -0.8950
24731SOL    HW286253   5.207   1.595   8.174  1.4077 -0.1474  0.7208
24732SOL     OW86254   8.543   4.928   7.514 -0.4659 -0.6414  0.1004
24732SOL    HW186255   8.523   4.848   7.459  0.2232  0.8735 -2.4318
24732SOL    HW286256   8.639   4.955   7.503 -0.6442  0.4644  1.0082
24733SOL     OW86257   2.485   3.093   2.014 -0.5910  0.0718  0.1783
24733SOL    HW186258   2.575   3.128   1.990 -0.6255  0.5223  0.6819
24733SOL    HW286259   2.434   3.163   2.064 -1.1279 -0.2653  0.1154
24734SOL     OW86260   1.920   5.417   6.163 -0.2953  0.0159  0.4628
24734SOL    HW186261   2.014   5.438   6.188  0.6342 -2.8086 -0.4740
24734SOL    HW286262   1.890   5.335   6.211 -1.2539 -0.7709 -1.4369
24735SOL     OW86263   2.158   5.814   6.680  0.6211 -0.2794 -0.5663
24735SOL    HW186264   2.069   5.822   6.724  0.3879  0.6198 -1.1913
24735SOL    HW286265   2.153   5.747   6.606  0.9740 -1.6741  0.6509
24736SOL     OW86266   6.197   9.476   4.705  0.4564 -0.3970  0.0056
24736SOL    HW186267   6.256   9.551   4.734 -2.2068  1.2823  1.3001
24736SOL    HW286268   6.175   9.419   4.784  1.1232 -1.5768 -0.6537
24737SOL     OW86269   2.649   5.830   5.352 -0.1322  0.3110 -0.7229
24737SOL    HW186270   2.603   5.804   5.268 -2.0474  1.5482 -0.0929
24737SOL    HW286271   2.741   5.865   5.331 -0.9106  1.4126 -2.3705
24738SOL     OW86272   4.847   1.287   9.202  0.4363  0.5652  0.4929
24738SOL    HW186273   4.823   1.335   9.286  3.0560  0.2344  1.4445
24738SOL    HW286274   4.924   1.333   9.157  1.2786 -1.2266  0.0646
24739SOL     OW86275   9.537   2.885   1.502  0.1074  0.1893 -0.7792
24739SOL    HW186276   9.528   2.798   1.551 -0.7516  0.4865 -0.4109
24739SOL    HW286277   9.446   2.920   1.479  0.4757  0.2986 -2.1593
24740SOL     OW86278   1.558   7.423   4.657 -0.3763 -0.0259  0.0826
24740SOL    HW186279   1.564   7.523   4.666 -1.8975  0.0552  0.2007
24740SOL    HW286280   1.519   7.400   4.568 -0.7623 -0.5149  0.3784
24741SOL     OW86281   3.863   1.735   8.554  0.2265 -0.7782  0.0370
24741SOL    HW186282   3.954   1.766   8.525  0.2348  0.2280  1.1248
24741SOL    HW286283   3.799   1.812   8.551 -0.0427 -0.9355  1.5588
24742SOL     OW86284   4.092   3.393   2.349 -0.1927  0.3017 -0.2139
24742SOL    HW186285   4.012   3.336   2.332 -0.9020  0.9413  0.8578
24742SOL    HW286286   4.075   3.485   2.313  0.5179  0.1274 -0.9945
24743SOL     OW86287   6.025   0.669   7.322  0.2071  0.4520  0.1132
24743SOL    HW186288   6.054   0.634   7.412  0.8281  3.5787  1.2129
24743SOL    HW286289   5.966   0.749   7.335  2.0751  2.2911 -2.2388
24744SOL     OW86290   3.842   9.360   2.017  0.5885  0.4123  0.0251
24744SOL    HW186291   3.914   9.425   2.042  0.3617  0.0296  1.6989
24744SOL    HW286292   3.753   9.405   2.024  0.4068 -0.1818  1.5308
24745SOL     OW86293   2.867   3.852   6.757 -0.2629  0.0494  0.6634
24745SOL    HW186294   2.822   3.795   6.826  1.8953 -1.5869  0.7952
24745SOL    HW286295   2.925   3.919   6.803  1.0452 -0.9300  0.4710
24746SOL     OW86296   6.454   0.285   3.862 -0.0661  0.2914  0.7187
24746SOL    HW186297   6.546   0.324   3.862 -0.1810  0.5734  0.9417
24746SOL    HW286298   6.409   0.307   3.949 -1.0338  1.8275 -0.1490
24747SOL     OW86299   9.970   7.381   5.147  0.1256  0.3010 -0.2025
24747SOL    HW186300  10.045   7.355   5.085  1.0662 -1.4185  1.5845
24747SOL    HW286301  10.008   7.416   5.232 -1.1540  1.3281 -0.0388
24748SOL     OW86302   0.589   9.434   6.103  0.0241 -0.5687 -0.6873
24748SOL    HW186303   0.513   9.426   6.039 -1.0779  0.3375  0.4834
24748SOL    HW286304   0.632   9.344   6.116 -1.9180 -1.4234 -0.0689
24749SOL     OW86305   8.436   0.623   9.934  0.2059 -0.6759 -0.3028
24749SOL    HW186306   8.382   0.707   9.929  1.7709  0.2419 -2.8465
24749SOL    HW286307   8.414   0.574  10.018 -1.1238  2.0081  0.9669
24750SOL     OW86308   2.769   5.900   7.013  0.3151  0.0561 -0.3971
24750SOL    HW186309   2.840   5.963   6.984  0.3363 -0.2458 -0.9994
24750SOL    HW286310   2.769   5.819   6.954  2.0013 -1.7053  1.8979
24751SOL     OW86311   0.947   6.181   0.032  0.2495  0.0572  0.3060
24751SOL    HW186312   1.019   6.214   0.093 -0.3022  0.2149  0.8825
24751SOL    HW286313   0.943   6.239  -0.049 -0.4223  1.1527  1.1098
24752SOL     OW86314   1.339   1.895   0.380  0.3466  0.5733  0.6054
24752SOL    HW186315   1.292   1.976   0.415 -0.6529 -0.4763  1.7506
24752SOL    HW286316   1.347   1.827   0.453 -0.4300 -1.0599 -0.8031
24753SOL     OW86317   3.823   5.334   1.055  0.0149  0.0757  0.1435
24753SOL    HW186318   3.807   5.261   1.121  0.8336 -1.4915 -1.3742
24753SOL    HW286319   3.906   5.315   1.003 -1.3641  0.6129 -2.2943
24754SOL     OW86320   8.320   7.567   3.363  0.0906 -0.0509 -0.1455
24754SOL    HW186321   8.391   7.540   3.298 -0.9407  0.4477 -1.4767
24754SOL    HW286322   8.255   7.492   3.375  0.1956 -0.0881  0.2261
24755SOL     OW86323   0.670   1.504   3.995 -0.2516 -0.7290 -0.3822
24755SOL    HW186324   0.638   1.592   4.030  1.5439 -0.7572  1.4412
24755SOL    HW286325   0.746   1.518   3.931 -0.9940 -0.8770 -1.3014
24756SOL     OW86326   8.082   4.420   2.892  0.2329  0.4517  0.0141
24756SOL    HW186327   8.052   4.441   2.799 -0.4434  1.1567  0.3960
24756SOL    HW286328   8.009   4.373   2.941  0.0960  1.2957  0.6293
24757SOL     OW86329   8.835   8.913   6.822  0.1856 -0.2861  0.0973
24757SOL    HW186330   8.774   8.859   6.765 -1.2747  0.2550  1.1296
24757SOL    HW286331   8.803   9.008   6.826  0.9184 -0.0625  0.8691
24758SOL     OW86332   4.290   7.946   2.169  0.2690 -0.4694  0.2877
24758SOL    HW186333   4.358   7.966   2.098 -0.3251 -2.3599 -0.8427
24758SOL    HW286334   4.232   8.027   2.182 -1.1376 -0.8277 -3.1256
24759SOL     OW86335   3.868   4.752   2.152  0.3676  0.0388 -0.5386
24759SOL    HW186336   3.909   4.687   2.087  0.9811  0.8229 -0.9408
24759SOL    HW286337   3.771   4.763   2.130  0.4997  0.0543 -1.1272
24760SOL     OW86338   8.480   9.894   7.166  0.4005  0.2136 -0.4477
24760SOL    HW186339   8.455   9.984   7.130  1.7200  0.6260 -0.3627
24760SOL    HW286340   8.406   9.859   7.223  0.9517  2.4509  1.7385
24761SOL     OW86341   2.059   5.314   4.958  0.3946 -0.1366  0.0467
24761SOL    HW186342   2.151   5.330   4.920  0.0984 -2.4084 -1.7478
24761SOL    HW286343   1.993   5.310   4.884 -0.8080 -0.8302  1.1422
24762SOL     OW86344   9.756   3.506   7.926  0.3650  0.2413  0.4137
24762SOL    HW186345   9.739   3.436   7.856  2.3703 -0.1852  0.3270
24762SOL    HW286346   9.730   3.595   7.889 -1.7452 -0.3685  0.3458
24763SOL     OW86347   8.002   2.478   1.393  0.4141 -0.2091  0.7427
24763SOL    HW186348   7.908   2.506   1.416  0.0767 -0.5314 -0.1967
24763SOL    HW286349   8.058   2.559   1.379 -0.2753  0.0054 -0.8442
24764SOL     OW86350   3.661   5.910   3.034 -0.2405 -0.1248 -0.0167
24764SOL    HW186351   3.663   5.890   2.936 -0.0934  0.2139 -0.0813
24764SOL    HW286352   3.661   5.824   3.085 -1.6505 -0.3383 -0.3314
24765SOL     OW86353   5.866   2.674  10.035 -0.5202 -0.1397 -0.1822
24765SOL    HW186354   5.948   2.676  10.092 -0.3624 -0.0275 -0.4096
24765SOL    HW286355   5.833   2.768  10.022 -0.2131 -0.1069 -0.7582
24766SOL     OW86356   2.527   9.995   2.581  0.0703  0.5955  0.4764
24766SOL    HW186357   2.498   9.902   2.602  1.4079  0.2638  0.8877
24766SOL    HW286358   2.594   9.994   2.506  1.1642  1.0766  1.4189
24767SOL     OW86359   2.189   0.604   0.502 -0.7986  0.0091  0.2090
24767SOL    HW186360   2.158   0.538   0.571 -1.2094  0.8373  0.8300
24767SOL    HW286361   2.283   0.584   0.477 -0.9134 -0.8084  0.3993
24768SOL     OW86362   5.369   4.630   7.421  0.1198 -0.5128 -0.0169
24768SOL    HW186363   5.358   4.552   7.359 -1.3025  0.4212 -0.9822
24768SOL    HW286364   5.370   4.714   7.368 -0.6767  0.2811  1.2010
24769SOL     OW86365   1.136   6.822   4.028  0.0655 -0.0630 -0.0217
24769SOL    HW186366   1.193   6.873   4.092  0.2638 -0.7765  0.3701
24769SOL    HW286367   1.049   6.870   4.015 -0.4548 -0.5061  1.6750
24770SOL     OW86368   9.616   6.701   3.194 -0.0751  0.7788  0.2565
24770SOL    HW186369   9.606   6.765   3.117 -0.6168  0.8962  0.4229
24770SOL    HW286370   9.565   6.735   3.272  0.9405  0.9558  0.8591
24771SOL     OW86371   1.547   9.755   6.491  0.2847 -0.4294 -0.2671
24771SOL    HW186372   1.584   9.732   6.582  1.4117 -3.1907 -1.3696
24771SOL    HW286373   1.480   9.686   6.463  1.9566 -1.1575 -2.6577
24772SOL     OW86374   0.587   7.466   7.151 -0.0957  0.1215 -0.1974
24772SOL    HW186375   0.599   7.417   7.064 -0.4808  0.8810 -0.6786
24772SOL    HW286376   0.522   7.417   7.209  0.5595 -0.6690 -0.1198
24773SOL     OW86377   9.734   3.757   1.317  0.3314 -0.0981  0.4410
24773SOL    HW186378   9.651   3.776   1.369 -0.4799 -2.6234  0.1201
24773SOL    HW286379   9.719   3.781   1.221  0.4987  0.8659  0.6509
24774SOL     OW86380   9.246   9.173   5.087  0.4200  0.5998 -0.4143
24774SOL    HW186381   9.194   9.158   5.003  1.5272 -1.3188 -0.7947
24774SOL    HW286382   9.343   9.154   5.070  1.0774  2.8467  0.6147
24775SOL     OW86383   4.221   3.429   6.706 -0.4636 -0.3776  0.2465
24775SOL    HW186384   4.258   3.509   6.657  1.6871 -0.2679  2.0035
24775SOL    HW286385   4.141   3.457   6.759 -0.8137  0.2073 -0.5710
24776SOL     OW86386   0.824   7.054   7.726 -0.1698  0.0593 -0.5319
24776SOL    HW186387   0.810   6.971   7.781 -0.7146  0.3490 -0.2277
24776SOL    HW286388   0.753   7.059   7.656 -1.5796  1.5135  0.9756
24777SOL     OW86389   4.590   9.048   4.288 -0.0067 -0.2054  0.0972
24777SOL    HW186390   4.508   8.991   4.275 -0.5420  0.2828  1.2722
24777SOL    HW286391   4.659   8.996   4.338  0.2347 -0.4529 -0.4782
24778SOL     OW86392   4.661   1.550   0.418  0.5584 -0.4635 -0.4710
24778SOL    HW186393   4.693   1.629   0.366  0.5043  0.2937  0.6365
24778SOL    HW286394   4.697   1.554   0.511  0.2497 -1.5486 -0.2969
24779SOL     OW86395   6.929   3.563   9.915 -0.1547 -0.4730  0.2589
24779SOL    HW186396   6.851   3.611   9.876 -0.1216  0.7066  1.5969
24779SOL    HW286397   7.010   3.578   9.857 -0.4665 -0.0537 -0.0690
24780SOL     OW86398   0.943   7.269   3.810 -0.2302  0.5731  0.2502
24780SOL    HW186399   0.881   7.312   3.876 -0.6931  0.6468 -0.2329
24780SOL    HW286400   1.022   7.328   3.795 -0.6342  1.0342 -0.0542
24781SOL     OW86401   2.223   1.096   8.068 -0.3459  0.5092  0.7244
24781SOL    HW186402   2.320   1.077   8.081 -0.4780 -0.3348  0.5225
24781SOL    HW286403   2.170   1.017   8.099 -1.0213  1.3969  1.8493
24782SOL     OW86404   1.548   1.777   0.781 -0.3242  0.3239  0.0387
24782SOL    HW186405   1.468   1.744   0.831 -0.2243  1.6994  1.1208
24782SOL    HW286406   1.582   1.704   0.721 -1.9481 -0.5064  0.0970
24783SOL     OW86407   7.790   6.877   5.252 -0.3028  0.4916  0.3404
24783SOL    HW186408   7.743   6.835   5.330  0.7548 -0.3456  0.5255
24783SOL    HW286409   7.872   6.825   5.229  0.8721  2.2725  0.3883
24784SOL     OW86410   9.061   3.169   9.833  0.0505  0.2526 -0.0740
24784SOL    HW186411   9.087   3.258   9.872 -2.0367  1.3044 -1.0093
24784SOL    HW286412   9.144   3.120   9.805  1.3004  1.4027  1.5086
24785SOL     OW86413   9.852   6.164   1.131  0.1311  0.3361 -0.2442
24785SOL    HW186414   9.894   6.114   1.055 -1.7842 -0.5618 -0.7436
24785SOL    HW286415   9.840   6.260   1.105 -0.7387 -0.0198 -1.1849
24786SOL     OW86416   2.294   5.346   7.396 -0.4397 -0.0012 -0.3436
24786SOL    HW186417   2.327   5.339   7.490 -0.3376 -0.3171 -0.4024
24786SOL    HW286418   2.359   5.401   7.342  1.3016 -2.6697 -1.0602
24787SOL     OW86419   0.818   0.113   4.003 -0.0264  0.3944 -0.0079
24787SOL    HW186420   0.771   0.088   4.087 -2.3715  0.3156 -1.3095
24787SOL    HW286421   0.751   0.131   3.930  1.9415  0.2791 -1.9179
24788SOL     OW86422   2.839   3.396   2.758  0.1202  0.6959  0.1148
24788SOL    HW186423   2.791   3.409   2.844  0.9415  2.3075  0.3630
24788SOL    HW286424   2.775   3.404   2.682 -0.2194  1.6050  0.4896
24789SOL     OW86425   8.724   0.553   3.858 -0.1191  0.0528 -0.1453
24789SOL    HW186426   8.644   0.532   3.915 -0.4456  0.9891 -0.2426
24789SOL    HW286427   8.740   0.478   3.794 -3.4988  1.6583 -3.0108
24790SOL     OW86428   5.961   9.439   6.803 -0.2012 -0.0212  0.1533
24790SOL    HW186429   6.009   9.504   6.744 -0.3757  2.8702  3.0476
24790SOL    HW286430   5.867   9.427   6.770  0.6389 -0.9830 -1.9867
24791SOL     OW86431   0.103   7.559   3.083 -0.3243 -0.4872  0.3936
24791SOL    HW186432   0.142   7.477   3.125  2.0648  0.8867  1.0057
24791SOL    HW286433   0.154   7.582   3.000 -2.5719 -0.9926 -1.1810
24792SOL     OW86434   4.205   9.328   3.609  0.3075 -0.0630 -0.3889
24792SOL    HW186435   4.225   9.425   3.624 -0.5877 -0.1032  1.1516
24792SOL    HW286436   4.202   9.281   3.697 -0.4894 -1.2408 -1.0362
24793SOL     OW86437   5.858   5.356   7.899  0.5729  0.2342  0.0433
24793SOL    HW186438   5.778   5.352   7.840  0.3838  1.6627  0.1817
24793SOL    HW286439   5.830   5.343   7.994  0.4385  1.1311  0.1331
24794SOL     OW86440   0.110   2.827   4.435  0.1555  1.0839 -0.0069
24794SOL    HW186441   0.112   2.927   4.431 -0.9087  1.0989 -0.5839
24794SOL    HW286442   0.077   2.791   4.347  0.2704  0.2405  0.2910
24795SOL     OW86443   4.018   3.354   0.805 -0.4593  0.2832 -0.1983
24795SOL    HW186444   4.103   3.402   0.782 -0.3077  0.8556  1.4878
24795SOL    HW286445   4.001   3.282   0.738  1.7786 -0.3659 -0.0897
24796SOL     OW86446   0.332   7.039   5.151  0.5554 -0.4625 -0.3050
24796SOL    HW186447   0.330   7.077   5.059  1.4038  0.8105  0.1802
24796SOL    HW286448   0.308   6.942   5.148  1.0855 -0.5613 -1.9196
24797SOL     OW86449   3.235   6.654   3.314 -0.2478 -0.3116  0.0523
24797SOL    HW186450   3.274   6.628   3.226 -1.3782  1.4989 -1.0023
24797SOL    HW286451   3.308   6.683   3.376  0.5019 -1.1917 -0.4027
24798SOL     OW86452   1.807   7.221   2.061 -0.7304 -0.5282  0.4630
24798SOL    HW186453   1.838   7.276   2.138  0.4724  0.8293 -0.9622
24798SOL    HW286454   1.771   7.280   1.989  0.8821 -1.5399 -1.2341
24799SOL     OW86455   2.189   2.401   6.982 -0.2324 -0.0067 -0.1590
24799SOL    HW186456   2.188   2.500   6.969 -1.0474  0.1123  0.7196
24799SOL    HW286457   2.264   2.377   7.044 -0.8203  0.1995  0.6351
24800SOL     OW86458   3.830   4.776   2.412 -0.3236 -0.4718 -0.6771
24800SOL    HW186459   3.790   4.689   2.439  1.3346 -0.3791  2.2283
24800SOL    HW286460   3.856   4.772   2.316 -0.9065 -2.9146 -0.7628
24801SOL     OW86461   0.396   2.849   5.697 -0.0923 -0.3394 -0.2937
24801SOL    HW186462   0.415   2.943   5.726  0.6691 -0.1960 -1.2065
24801SOL    HW286463   0.347   2.851   5.609 -0.4932 -0.7934 -0.0830
24802SOL     OW86464   7.616   0.852   1.177  0.4543  0.3966 -0.3389
24802SOL    HW186465   7.690   0.856   1.244 -0.2964  2.3048  0.4243
24802SOL    HW286466   7.532   0.889   1.217 -0.9272 -1.7254 -1.1903
24803SOL     OW86467   0.144   0.500   3.604  0.2069  0.1031 -0.6037
24803SOL    HW186468   0.231   0.452   3.606  0.9822  1.5386  0.9798
24803SOL    HW286469   0.080   0.455   3.667  0.4185  0.1872 -0.3276
24804SOL     OW86470   7.073   2.925   8.856 -0.0986  0.3272  0.0916
24804SOL    HW186471   7.062   2.856   8.928  1.5668  1.3129  1.3373
24804SOL    HW286472   6.984   2.945   8.816 -0.9688 -0.7426  1.4195
24805SOL     OW86473   6.892   1.076   1.448  0.0389 -0.0505  0.4119
24805SOL    HW186474   6.850   1.121   1.527  1.3507  1.2570  0.3888
24805SOL    HW286475   6.826   1.015   1.405 -0.8496 -0.3865  2.2125
24806SOL     OW86476   0.141   3.055   8.464 -0.2816 -0.3827 -0.1031
24806SOL    HW186477   0.091   2.984   8.414  0.9564  0.0251 -2.0020
24806SOL    HW286478   0.163   3.129   8.401  0.8930  0.3819  1.1997
24807SOL     OW86479   4.138   5.563   8.192  0.1981 -0.1988  0.0907
24807SOL    HW186480   4.087   5.481   8.220 -2.5088  1.0728 -0.9283
24807SOL    HW286481   4.116   5.638   8.254  4.0612 -0.6062  2.1238
24808SOL     OW86482   2.317   9.477   6.004 -0.3605 -0.6677  0.6786
24808SOL    HW186483   2.399   9.423   6.022 -0.2190 -1.3499 -1.8062
24808SOL    HW286484   2.236   9.418   6.007 -0.3651 -0.7272 -0.5333
24809SOL     OW86485   7.309   7.437   4.033 -0.2337 -0.2564 -0.3134
24809SOL    HW186486   7.271   7.356   3.987 -0.7031  0.2568 -0.8374
24809SOL    HW286487   7.275   7.520   3.988  0.2257  0.2355  0.2380
24810SOL     OW86488   7.536   4.178   1.285 -0.1229 -0.3284 -0.2637
24810SOL    HW186489   7.542   4.251   1.353  1.6749 -0.1966 -0.5447
24810SOL    HW286490   7.448   4.131   1.294 -1.5187  2.1418 -0.3516
24811SOL     OW86491   7.532   6.620   1.365  0.0886  0.3703 -0.0901
24811SOL    HW186492   7.600   6.582   1.302 -0.2126 -0.8362  0.3027
24811SOL    HW286493   7.463   6.551   1.386  0.3629  0.6460  1.8189
24812SOL     OW86494   1.760   4.082   3.280 -0.4189  0.0492  0.1750
24812SOL    HW186495   1.662   4.083   3.300 -0.3892  0.7703  0.2866
24812SOL    HW286496   1.803   4.162   3.321 -0.0447  0.5851 -1.2633
24813SOL     OW86497   8.925   8.627   4.049  0.3556  0.8661 -0.4056
24813SOL    HW186498   8.989   8.704   4.050  0.8967  0.4255 -0.5477
24813SOL    HW286499   8.974   8.544   4.022 -0.0226  0.2914  0.6493
24814SOL     OW86500   2.262   2.098   7.139 -0.3381 -0.4177 -0.3527
24814SOL    HW186501   2.217   2.170   7.192 -0.2277 -0.9902  0.5134
24814SOL    HW286502   2.199   2.022   7.124 -0.1181 -0.5981 -0.3750
24815SOL     OW86503   8.552   8.185   5.178 -0.4807  0.1951  0.0217
24815SOL    HW186504   8.589   8.242   5.251 -0.7551  0.6883 -0.2228
24815SOL    HW286505   8.624   8.123   5.145  0.0969  1.0477 -0.3515
24816SOL     OW86506   8.350   7.969   5.280  0.3608  0.6784 -0.4892
24816SOL    HW186507   8.424   8.030   5.251 -0.8046  1.6407 -1.5044
24816SOL    HW286508   8.278   8.023   5.323 -0.7821  0.0492 -1.5911
24817SOL     OW86509   9.927   5.803   1.319  0.3613  0.4059 -0.0205
24817SOL    HW186510   9.890   5.796   1.227 -2.9608 -0.3086  1.2785
24817SOL    HW286511   9.937   5.712   1.358  2.0468  0.6856  0.2111
24818SOL     OW86512   5.050   2.361   9.676 -0.4981 -0.0055  0.1247
24818SOL    HW186513   5.132   2.304   9.675 -0.6815 -0.2766  0.3692
24818SOL    HW286514   5.040   2.407   9.588 -0.3140 -0.3050 -0.0523
24819SOL     OW86515   0.696   3.032   3.684  0.0906 -0.0894  0.0318
24819SOL    HW186516   0.739   3.014   3.596  0.2775  1.6049 -0.2450
24819SOL    HW286517   0.741   3.110   3.728 -1.9765  1.0135  0.2341
24820SOL     OW86518   2.903   6.263   1.481 -0.6465 -0.2796 -0.5823
24820SOL    HW186519   2.935   6.169   1.499  1.7722  0.6497  0.1898
24820SOL    HW286520   2.938   6.292   1.392  0.1296  0.5184 -0.0231
24821SOL     OW86521   3.716   3.889   1.096  0.0466  0.1381  0.2151
24821SOL    HW186522   3.772   3.921   1.020  1.6345 -1.1114  0.8311
24821SOL    HW286523   3.747   3.933   1.181 -0.8882  0.5709  0.3416
24822SOL     OW86524   9.978   4.367   3.647  0.6415  0.0815  0.2185
24822SOL    HW186525  10.038   4.303   3.696 -0.0937 -1.7082 -1.1693
24822SOL    HW286526   9.888   4.368   3.690  0.4931 -0.2361 -0.0799
24823SOL     OW86527   3.200   1.629   5.745 -0.3095  0.0684 -0.0937
24823SOL    HW186528   3.245   1.617   5.656 -0.1560 -0.3280  0.0371
24823SOL    HW286529   3.102   1.609   5.736 -0.3541  0.3332 -0.2397
24824SOL     OW86530   9.432   7.271   3.128  0.6356  0.3121  0.5417
24824SOL    HW186531   9.495   7.231   3.062 -0.2999 -0.3295  0.0165
24824SOL    HW286532   9.373   7.199   3.165 -0.7205  1.1064 -0.0274
24825SOL     OW86533   4.067   2.144   2.850  0.5383  0.0337 -0.1095
24825SOL    HW186534   4.129   2.170   2.776  0.7716  0.5698  0.2658
24825SOL    HW286535   4.060   2.220   2.915 -0.3742 -0.1009 -0.0555
24826SOL     OW86536   6.276   0.927   1.958  0.0389 -0.5015 -0.6265
24826SOL    HW186537   6.318   0.932   1.867 -1.7245 -0.7721 -1.4670
24826SOL    HW286538   6.207   0.999   1.968 -1.5784 -2.0435 -0.4537
24827SOL     OW86539   5.143   9.260   5.875  0.6754 -0.3619 -0.3510
24827SOL    HW186540   5.096   9.236   5.790  0.7912 -0.6136 -0.3429
24827SOL    HW286541   5.129   9.358   5.894  0.6494 -0.3041 -0.6572
24828SOL     OW86542   9.079   6.518   1.069  0.4693  0.3155 -0.1206
24828SOL    HW186543   9.002   6.556   1.120  0.7273  0.8779 -0.1495
24828SOL    HW286544   9.049   6.496   0.976  0.4050  0.7481 -0.2028
24829SOL     OW86545   2.777   5.375   8.745  0.4243 -0.4645  0.3944
24829SOL    HW186546   2.677   5.373   8.734  0.3773  2.3310 -0.0713
24829SOL    HW286547   2.806   5.469   8.762  2.9636 -1.3211  0.9347
24830SOL     OW86548   7.485   2.991   5.171 -0.3815  0.5403  0.3118
24830SOL    HW186549   7.495   2.980   5.270 -0.3964 -1.3060  0.1190
24830SOL    HW286550   7.388   2.996   5.148 -0.4692 -1.3514  0.1773
24831SOL     OW86551   4.514   8.585   1.452 -1.1503 -0.1228  0.0164
24831SOL    HW186552   4.549   8.495   1.477  0.6581  0.9945  1.6682
24831SOL    HW286553   4.473   8.628   1.533 -3.4893 -0.1027 -1.1440
24832SOL     OW86554   5.011   0.067   4.914 -0.0396 -0.3134 -0.4209
24832SOL    HW186555   4.975   0.009   4.841 -0.7305  2.0683 -2.0186
24832SOL    HW286556   5.108   0.083   4.899 -0.6814  2.1056 -2.1779
24833SOL     OW86557   9.859   1.357   2.438 -0.0115  0.1368  0.0112
24833SOL    HW186558   9.841   1.262   2.466  2.7387 -0.4218  0.0754
24833SOL    HW286559   9.955   1.378   2.454 -0.0720  2.2211 -2.1380
24834SOL     OW86560   3.619   1.506   2.092 -0.5648 -0.4967  0.4121
24834SOL    HW186561   3.668   1.529   2.176  1.1601  2.8250 -1.3972
24834SOL    HW286562   3.646   1.415   2.062  4.3398  1.0377 -0.2850
24835SOL     OW86563   3.148   1.325   6.671 -0.7407  0.2249  0.0387
24835SOL    HW186564   3.051   1.322   6.694 -0.5321  0.6082  0.9783
24835SOL    HW286565   3.165   1.263   6.594 -2.0655  1.6703 -1.4617
24836SOL     OW86566   3.677   4.514   8.198 -0.0563  1.0667 -0.5273
24836SOL    HW186567   3.670   4.487   8.102 -0.8081 -0.8365  0.0180
24836SOL    HW286568   3.745   4.456   8.243 -0.0957  1.5893  0.2025
24837SOL     OW86569   1.007   0.532   4.521 -0.2636 -0.3162 -0.2406
24837SOL    HW186570   0.975   0.602   4.458  1.0511 -1.6127 -2.3832
24837SOL    HW286571   0.928   0.489   4.566 -1.1521  1.2448 -0.2829
24838SOL     OW86572   7.955   0.634   4.851  0.4053 -0.1610 -0.0032
24838SOL    HW186573   7.920   0.585   4.931 -1.1222  0.5470 -0.2120
24838SOL    HW286574   7.968   0.730   4.875  0.3481 -0.0322 -0.4932
24839SOL     OW86575   2.510   0.943   5.736  0.1936 -0.0734  0.3522
24839SOL    HW186576   2.585   0.888   5.772 -0.7493 -1.2840  0.5121
24839SOL    HW286577   2.482   1.010   5.805 -0.9764 -1.7560  1.5702
24840SOL     OW86578   7.726   5.792   5.806  1.0628  0.1440 -0.0433
24840SOL    HW186579   7.742   5.858   5.880  0.7311 -0.1772  0.3113
24840SOL    HW286580   7.788   5.714   5.817  1.0830  0.1425 -0.1643
24841SOL     OW86581   9.680   2.449   2.880 -0.2482  0.4221  0.0652
24841SOL    HW186582   9.637   2.367   2.918 -0.6441  0.1770 -0.8990
24841SOL    HW286583   9.619   2.527   2.891  0.3021  0.6854  1.3607
24842SOL     OW86584   1.412   3.391   8.625  0.1092 -0.5663  0.3680
24842SOL    HW186585   1.504   3.352   8.628  0.2972 -0.0660  1.2850
24842SOL    HW286586   1.418   3.488   8.601 -0.2636 -0.8027 -0.6870
24843SOL     OW86587   4.900   0.363   9.211  0.1250  0.1442 -0.0303
24843SOL    HW186588   4.892   0.451   9.260  1.5249 -0.6607  1.7064
24843SOL    HW286589   4.990   0.358   9.167  0.1137 -0.4913  0.0259
24844SOL     OW86590   1.110   1.367   1.075  0.1327  0.4554 -0.1511
24844SOL    HW186591   1.054   1.392   1.153  1.6135  3.0737  0.1212
24844SOL    HW286592   1.175   1.296   1.101 -0.0194  0.6464  0.7404
24845SOL     OW86593   6.497   0.854   5.683  0.2507  0.6032  0.1477
24845SOL    HW186594   6.572   0.804   5.725  0.8901  0.6166 -0.9388
24845SOL    HW286595   6.516   0.952   5.686  0.0131  0.6422  0.3745
24846SOL     OW86596   5.867   4.214   1.661 -0.1424  0.1206  0.3454
24846SOL    HW186597   5.788   4.271   1.639  0.0805 -0.0362 -0.9228
24846SOL    HW286598   5.840   4.118   1.663  0.0701  0.0389 -0.4103
24847SOL     OW86599   6.174   3.333   0.977 -0.5294 -0.0601 -0.3204
24847SOL    HW186600   6.132   3.384   1.052 -0.2086  1.5789 -1.2194
24847SOL    HW286601   6.142   3.370   0.890  2.3974  0.9317 -1.0217
24848SOL     OW86602   1.363   7.174   1.630  0.0350  0.3044 -0.4783
24848SOL    HW186603   1.277   7.221   1.652 -0.3688 -0.0552 -1.2299
24848SOL    HW286604   1.359   7.142   1.535  0.2519 -1.3654  0.0614
24849SOL     OW86605   4.896   1.259   4.410 -0.5396 -0.0343 -0.6131
24849SOL    HW186606   4.942   1.208   4.483  1.6796  1.0915 -1.1723
24849SOL    HW286607   4.818   1.308   4.447 -0.5703 -0.9843  0.6230
24850SOL     OW86608   8.825   1.486   6.792  0.1044 -0.0905  0.0733
24850SOL    HW186609   8.757   1.555   6.772 -1.4087 -2.1783 -2.2874
24850SOL    HW286610   8.780   1.402   6.822  1.7590 -0.8772  0.4535
24851SOL     OW86611   3.520   7.598   6.422 -0.1381 -0.1407 -0.2018
24851SOL    HW186612   3.581   7.549   6.483 -0.5326  1.3390  1.4138
24851SOL    HW286613   3.573   7.660   6.364 -0.1301  1.5224  1.5549
24852SOL     OW86614   3.719   6.309   8.995 -0.1291  0.2963  0.0667
24852SOL    HW186615   3.775   6.268   9.067  0.5281  1.0061 -0.0287
24852SOL    HW286616   3.639   6.353   9.036 -0.6833 -0.8317  0.1937
24853SOL     OW86617   0.621   5.610   3.863 -0.4797  0.2874 -0.5707
24853SOL    HW186618   0.630   5.695   3.812 -0.1932 -0.0912 -1.1498
24853SOL    HW286619   0.561   5.625   3.942 -2.2199  0.4796 -1.8883
24854SOL     OW86620   3.293   5.875   2.332  0.2283  0.0854 -0.3555
24854SOL    HW186621   3.391   5.887   2.346 -0.0636  0.9186  1.0406
24854SOL    HW286622   3.274   5.867   2.234  1.7931 -1.1183 -0.5770
24855SOL     OW86623   0.269   0.402   7.903 -0.1435  0.6698  1.0225
24855SOL    HW186624   0.309   0.471   7.842  0.7420 -0.3042  0.4949
24855SOL    HW286625   0.312   0.314   7.887  1.2234  0.6946  4.1354
24856SOL     OW86626   8.903   4.056   1.079 -0.3621  0.2635  0.1380
24856SOL    HW186627   8.820   4.079   1.130 -0.2167 -1.7806  1.3772
24856SOL    HW286628   8.881   4.044   0.982 -1.1383  1.6163  0.1419
24857SOL     OW86629   0.129   0.084   6.379 -0.1760 -0.0421 -0.1034
24857SOL    HW186630   0.037   0.084   6.338 -0.3013  0.0224  0.1817
24857SOL    HW286631   0.179   0.164   6.347 -0.6412  0.5700  0.7036
24858SOL     OW86632   6.471   0.563   2.583  0.1497  0.5078 -0.6954
24858SOL    HW186633   6.470   0.585   2.485 -0.1945  0.1559 -0.7704
24858SOL    HW286634   6.529   0.484   2.599 -1.1769 -0.5071 -0.8438
24859SOL     OW86635   1.584   9.119   4.036  0.0349  0.1402  0.1613
24859SOL    HW186636   1.550   9.213   4.041  1.7162  0.8347 -1.1885
24859SOL    HW286637   1.542   9.073   3.957 -0.8870 -0.2988  0.8975
24860SOL     OW86638   1.963   3.600   2.812  0.2537  0.1652  0.8751
24860SOL    HW186639   1.894   3.634   2.748  0.5203 -0.8374  0.0563
24860SOL    HW286640   1.923   3.530   2.870  0.7984 -1.0290 -0.1707
24861SOL     OW86641   6.677   0.683   5.867  0.5304  0.1903 -0.0299
24861SOL    HW186642   6.755   0.706   5.810  1.1299  1.0130  1.1062
24861SOL    HW286643   6.695   0.710   5.961 -0.8109 -0.3274  0.3933
24862SOL     OW86644   9.536   5.752   2.154  0.3914 -0.7647 -0.2153
24862SOL    HW186645   9.502   5.694   2.080 -0.9978  1.4627 -1.3917
24862SOL    HW286646   9.481   5.836   2.159  3.7661  1.5819 -0.1957
24863SOL     OW86647   3.066   1.843   2.519 -0.1136  0.1114 -0.0624
24863SOL    HW186648   3.140   1.782   2.548 -1.8832 -1.5187  1.1648
24863SOL    HW286649   3.065   1.925   2.577  0.5420  0.0043  0.0977
24864SOL     OW86650   6.790   8.787   5.575  0.0474  0.1162  0.3327
24864SOL    HW186651   6.838   8.800   5.662 -0.3340 -0.6655  0.6548
24864SOL    HW286652   6.733   8.867   5.557 -1.9968 -0.8810  2.1434
24865SOL     OW86653   6.359   1.131   4.896 -0.1846  0.1041  0.0234
24865SOL    HW186654   6.440   1.173   4.856 -0.1140  1.6043  1.6847
24865SOL    HW286655   6.380   1.038   4.925  1.5497  1.1815  2.3241
24866SOL     OW86656   8.965   2.034   4.680 -0.0064  0.2182 -0.0141
24866SOL    HW186657   8.970   2.104   4.752 -1.3427  0.7066 -0.3876
24866SOL    HW286658   8.882   2.048   4.625 -0.9704 -2.4374  0.6971
24867SOL     OW86659   0.140   5.895   0.660 -0.1189  0.2905 -0.3276
24867SOL    HW186660   0.058   5.848   0.694  0.1827  0.7635  1.0983
24867SOL    HW286661   0.203   5.910   0.736  0.2315  2.0800 -0.9466
24868SOL     OW86662   8.694   8.556   2.074 -0.0693  0.0745 -0.8682
24868SOL    HW186663   8.778   8.551   2.020  1.5190 -0.1104  1.5785
24868SOL    HW286664   8.619   8.515   2.022  2.0450 -2.8073 -1.7540
24869SOL     OW86665   0.176   8.315   1.202  0.1964  0.5746  0.1966
24869SOL    HW186666   0.226   8.381   1.259  1.0406 -1.7270  2.1988
24869SOL    HW286667   0.079   8.319   1.223  0.3822  0.4361  1.0787
24870SOL     OW86668   8.607   0.635   4.327 -0.0419 -0.2147  0.1165
24870SOL    HW186669   8.666   0.584   4.389 -1.8676  0.0053  2.1273
24870SOL    HW286670   8.643   0.727   4.314  0.1030 -0.0966  1.2838
24871SOL     OW86671   5.523   6.236   0.788  0.0823 -0.0874  0.0833
24871SOL    HW186672   5.546   6.206   0.695  2.3132 -2.7324  1.3844
24871SOL    HW286673   5.452   6.177   0.826 -0.9181  1.0658  0.0149
24872SOL     OW86674   0.731   4.796   6.603 -0.4927  0.4727  0.0616
24872SOL    HW186675   0.665   4.794   6.527  0.0247  1.7680 -0.4407
24872SOL    HW286676   0.817   4.836   6.570  0.6651 -1.5127  0.6162
24873SOL     OW86677   7.028   8.161   6.350  0.6313 -0.5651 -0.1324
24873SOL    HW186678   7.124   8.178   6.373  0.3080 -0.1867  0.9560
24873SOL    HW286679   7.003   8.068   6.376  1.6956 -1.9240 -3.7546
24874SOL     OW86680   2.288   5.558   5.459  0.2269  0.7580  0.8661
24874SOL    HW186681   2.360   5.499   5.423  0.2651  0.8229  0.8351
24874SOL    HW286682   2.202   5.507   5.465  0.3949  0.5354  1.3785
24875SOL     OW86683   7.372   2.880   2.314 -0.2683  0.6115  0.1154
24875SOL    HW186684   7.428   2.834   2.383  1.4466  1.2571 -0.8228
24875SOL    HW286685   7.291   2.919   2.358  0.3414  0.2491  1.6070
24876SOL     OW86686   0.706   2.756   4.757 -0.1967 -0.0424 -0.1391
24876SOL    HW186687   0.751   2.705   4.684 -0.3299 -1.7435  0.9343
24876SOL    HW286688   0.689   2.695   4.835  0.3366  1.8378  1.4935
24877SOL     OW86689   1.129   6.998   6.736 -0.8185  0.1726  0.7029
24877SOL    HW186690   1.196   6.932   6.702 -0.5224  1.9388 -2.3106
24877SOL    HW286691   1.166   7.044   6.817 -0.5940 -2.5431  2.1908
24878SOL     OW86692   4.903   1.301   5.969  0.3464 -0.4150  1.0045
24878SOL    HW186693   4.805   1.304   5.954  0.4435 -0.8861  0.2643
24878SOL    HW286694   4.922   1.309   6.067 -0.4662 -1.0627  1.2179
24879SOL     OW86695   2.249   5.574   2.751 -0.1526 -0.4316  0.0219
24879SOL    HW186696   2.273   5.534   2.662 -3.3260 -2.9679  0.2176
24879SOL    HW286697   2.327   5.568   2.812  0.8715 -2.2293 -1.4093
24880SOL     OW86698   1.622   4.710   0.233 -0.1724  0.0387  0.0414
24880SOL    HW186699   1.644   4.693   0.137 -2.2898  0.1664 -0.4932
24880SOL    HW286700   1.542   4.657   0.259  2.2545 -2.5097  2.6920
24881SOL     OW86701   6.666   9.455   4.658  0.7307 -0.4957  0.1363
24881SOL    HW186702   6.739   9.412   4.605  1.1312 -1.2725  1.3089
24881SOL    HW286703   6.705   9.517   4.725  0.2896 -0.5409  0.4365
24882SOL     OW86704   3.071   8.396   9.787 -0.0957 -0.0432 -1.1104
24882SOL    HW186705   3.117   8.343   9.716 -1.3978 -1.5494 -0.8752
24882SOL    HW286706   2.992   8.443   9.747 -0.0564  0.1743 -0.9322
24883SOL     OW86707   8.440   0.783   3.982 -0.4212 -0.1468  0.2839
24883SOL    HW186708   8.350   0.740   3.972 -0.3398 -0.4485  0.8139
24883SOL    HW286709   8.476   0.806   3.892 -1.1822  0.2897  0.0832
24884SOL     OW86710   1.952   1.329   8.239 -0.2282 -0.5037 -0.1369
24884SOL    HW186711   1.986   1.244   8.198  0.0865 -0.7947  0.7127
24884SOL    HW286712   2.025   1.397   8.241  0.3869 -1.1749  1.8149
24885SOL     OW86713   9.708   6.684   0.836 -0.1072 -0.5458 -0.4187
24885SOL    HW186714   9.794   6.732   0.850  0.9060 -2.6598  0.9217
24885SOL    HW286715   9.636   6.727   0.890  0.6597 -0.2537  0.3706
24886SOL     OW86716   3.094   4.768   0.829 -0.3291 -0.3315  0.5687
24886SOL    HW186717   3.092   4.843   0.762 -2.3854 -0.4163  0.4867
24886SOL    HW286718   3.084   4.681   0.782 -0.0812 -0.5039  0.8388
24887SOL     OW86719   9.692   2.756   2.966  0.2937 -0.4554 -0.1641
24887SOL    HW186720   9.670   2.831   3.028  1.9231  0.6517 -0.8913
24887SOL    HW286721   9.610   2.727   2.918 -0.0369  2.0878 -1.2040
24888SOL     OW86722   9.472   4.971   5.431 -0.2450  0.5675 -0.4468
24888SOL    HW186723   9.440   5.010   5.518  0.7225 -1.2626  0.7608
24888SOL    HW286724   9.394   4.936   5.379 -0.6166 -0.1960  0.6199
24889SOL     OW86725   9.271   9.480   8.784  0.4133  0.3073 -0.0271
24889SOL    HW186726   9.323   9.397   8.806 -0.9621 -0.6317 -0.2969
24889SOL    HW286727   9.243   9.525   8.868 -1.8368 -1.3945  0.1642
24890SOL     OW86728   8.963   3.983   5.691  0.0412  0.0277  0.0202
24890SOL    HW186729   8.976   3.999   5.593 -1.4151  1.6986  0.0829
24890SOL    HW286730   8.910   4.058   5.730 -0.0973 -1.0492  1.9349
24891SOL     OW86731   2.421   0.774   1.825 -0.7772 -0.0863  0.6842
24891SOL    HW186732   2.469   0.710   1.764 -0.8669  0.6813 -0.2086
24891SOL    HW286733   2.440   0.750   1.920  1.4754  0.2779  0.3544
24892SOL     OW86734   1.471   3.625   2.762 -0.3619 -0.2084  0.5195
24892SOL    HW186735   1.446   3.577   2.678  0.9169  3.0669 -1.8131
24892SOL    HW286736   1.410   3.703   2.775  2.1933  1.9078  0.1758
24893SOL     OW86737   4.594   0.217   9.723 -0.1971  0.7785  0.3390
24893SOL    HW186738   4.548   0.229   9.636  1.3140  0.7205 -0.4813
24893SOL    HW286739   4.549   0.143   9.774 -0.7558  0.4568 -0.6052
24894SOL     OW86740   5.747   0.247   6.839  1.2590 -0.1575  0.4536
24894SOL    HW186741   5.732   0.298   6.754  0.0828  1.2810  1.4961
24894SOL    HW286742   5.741   0.149   6.821  2.1126  0.1041 -1.3250
24895SOL     OW86743   8.603   4.631   9.205  0.0336  0.1126 -0.4107
24895SOL    HW186744   8.667   4.677   9.142 -0.6372 -0.6901 -1.7051
24895SOL    HW286745   8.602   4.533   9.185 -0.2291 -0.1524  0.8499
24896SOL     OW86746   6.737   9.184   3.613 -0.3133 -0.1644 -0.0216
24896SOL    HW186747   6.700   9.104   3.661  0.4816 -1.0099 -0.7948
24896SOL    HW286748   6.663   9.239   3.577 -0.8609 -0.8298  0.0819
24897SOL     OW86749   8.051   3.086   1.055  0.1536 -0.2258 -0.2572
24897SOL    HW186750   7.960   3.125   1.043  0.4045  0.0417 -1.3203
24897SOL    HW286751   8.094   3.071   0.966  1.1288 -0.4028  0.2276
24898SOL     OW86752   5.356   7.353   4.365 -0.1223 -0.1754  0.1312
24898SOL    HW186753   5.312   7.424   4.419  1.5419  0.9609  0.0190
24898SOL    HW286754   5.311   7.265   4.383 -0.2321  0.3554  2.6045
24899SOL     OW86755   7.615   2.334   5.788 -0.3311  0.1464 -0.3714
24899SOL    HW186756   7.622   2.322   5.689  0.2002 -2.5043 -0.0623
24899SOL    HW286757   7.519   2.347   5.813 -0.2057  3.6330 -1.4648
24900SOL     OW86758   0.313   5.629   8.967  0.7676  0.2449 -0.6781
24900SOL    HW186759   0.252   5.556   8.997  1.6526  0.1497  0.9675
24900SOL    HW286760   0.362   5.601   8.884  0.6673 -0.8029 -0.3836
24901SOL     OW86761   6.903   0.202   5.324  0.2486  0.2627 -0.1905
24901SOL    HW186762   6.870   0.295   5.306  0.3381  0.3630  0.1687
24901SOL    HW286763   6.930   0.159   5.238  0.2101  0.5716 -0.3565
24902SOL     OW86764   7.580   4.311   3.441 -0.6778  0.3559  0.1141
24902SOL    HW186765   7.670   4.297   3.400 -1.3746 -1.4196 -0.8566
24902SOL    HW286766   7.589   4.321   3.540  0.6008  0.2926  0.0012
24903SOL     OW86767   2.493   2.509   2.708 -0.1284  0.1512 -0.0529
24903SOL    HW186768   2.497   2.482   2.804  2.2840  1.2284  0.1743
24903SOL    HW286769   2.535   2.439   2.652 -1.0318 -0.2147 -0.2833
24904SOL     OW86770   5.667   1.546   9.413  0.7499 -0.8616 -0.0032
24904SOL    HW186771   5.623   1.509   9.495 -0.1577  1.0030  0.3866
24904SOL    HW286772   5.762   1.514   9.408  0.0293 -3.1233  0.3475
24905SOL     OW86773   0.366   9.341   3.773  0.1487 -0.4438 -0.6683
24905SOL    HW186774   0.301   9.272   3.742 -0.2609 -0.9497  1.2606
24905SOL    HW286775   0.445   9.296   3.814 -0.5284  0.2136  1.4224
24906SOL     OW86776   1.407   5.960   3.490 -0.1488  0.8620  0.4319
24906SOL    HW186777   1.357   6.029   3.438 -1.5720 -0.2039  0.3588
24906SOL    HW286778   1.424   5.994   3.582 -1.9738  0.8478  0.8048
24907SOL     OW86779   3.081   4.131   9.568  0.0131  0.2893 -0.3340
24907SOL    HW186780   3.175   4.157   9.588 -0.8465  2.0750  1.6157
24907SOL    HW286781   3.052   4.060   9.632 -0.8348  1.7327  0.9081
24908SOL     OW86782   0.876   5.870   4.606  0.4663 -0.1150  0.1071
24908SOL    HW186783   0.849   5.791   4.662 -1.3366 -0.9567 -1.8922
24908SOL    HW286784   0.871   5.846   4.509  1.6266  1.9334 -0.4961
24909SOL     OW86785   9.785   2.058   4.451 -0.2624  0.3284 -0.4864
24909SOL    HW186786   9.801   1.961   4.464 -0.5658  0.3443  0.0525
24909SOL    HW286787   9.689   2.074   4.429 -0.0915  0.4546 -1.1486
24910SOL     OW86788   3.081   9.113   5.812  0.2195  0.3648  0.1571
24910SOL    HW186789   3.111   9.025   5.774 -1.7114 -0.1587 -0.2552
24910SOL    HW286790   3.036   9.097   5.900 -1.3725  0.7599 -0.5747
24911SOL     OW86791   9.141   5.325   4.110  0.0366 -0.0404  0.1491
24911SOL    HW186792   9.107   5.317   4.204 -0.9349 -1.2531 -0.2911
24911SOL    HW286793   9.240   5.333   4.112  0.0775 -0.5855  1.2711
24912SOL     OW86794   1.184   8.507   7.799 -0.3919  0.2804  0.1986
24912SOL    HW186795   1.253   8.467   7.739  2.1426  1.9431  1.8786
24912SOL    HW286796   1.179   8.454   7.883 -1.6740 -0.2203 -0.1864
24913SOL     OW86797   5.859   5.528   7.104 -0.3136  0.4213  0.0250
24913SOL    HW186798   5.938   5.581   7.074 -0.5775  1.0289  0.4019
24913SOL    HW286799   5.854   5.530   7.204 -0.7775  0.3396  0.0041
24914SOL     OW86800   1.750   1.752   5.262  0.2826 -0.8311  0.4986
24914SOL    HW186801   1.743   1.811   5.342 -1.2091 -0.5166  0.1499
24914SOL    HW286802   1.678   1.775   5.196  0.7012 -1.9286 -0.3774
24915SOL     OW86803   2.449   6.224   7.470  0.4629  0.4229  0.0549
24915SOL    HW186804   2.450   6.124   7.468  2.0066  0.3684  2.0913
24915SOL    HW286805   2.536   6.259   7.435  0.1385  1.0333 -0.1400
24916SOL     OW86806   7.743   6.164   5.914  0.6226 -0.1688  0.5031
24916SOL    HW186807   7.705   6.181   5.823  0.6453 -0.2461  0.4791
24916SOL    HW286808   7.676   6.117   5.970 -0.0473  1.4538  1.1023
24917SOL     OW86809   4.275   4.979   3.097 -0.2910 -0.0395  0.8822
24917SOL    HW186810   4.317   5.070   3.098  2.5973 -1.3019  0.5146
24917SOL    HW286811   4.274   4.943   3.190  0.9389 -0.6494  0.6671
24918SOL     OW86812   0.354   6.319   8.158  0.0278  0.7048 -0.2441
24918SOL    HW186813   0.407   6.265   8.223  1.1009  1.1117 -0.7773
24918SOL    HW286814   0.257   6.292   8.163  0.4752 -0.9291 -0.1689
24919SOL     OW86815   6.893   6.202   2.401 -0.0351  0.6787 -0.3802
24919SOL    HW186816   6.926   6.207   2.496 -1.4266 -3.1110  0.3984
24919SOL    HW286817   6.959   6.151   2.346 -0.6930  0.2142 -0.7380
24920SOL     OW86818   5.329   4.761   2.481  0.1505  0.0009 -0.1522
24920SOL    HW186819   5.249   4.787   2.426  0.8836 -0.6395 -1.5498
24920SOL    HW286820   5.307   4.679   2.534  0.3924 -1.1734 -1.8193
24921SOL     OW86821   8.890   2.780   4.741 -0.1457 -0.2315 -0.0238
24921SOL    HW186822   8.864   2.708   4.806 -1.5068 -0.6277 -1.0075
24921SOL    HW286823   8.925   2.859   4.792  0.6545 -1.2871  1.0990
24922SOL     OW86824   4.836   9.157   9.055  0.1809  0.1038  0.2221
24922SOL    HW186825   4.833   9.133   8.958  0.0988 -2.3666  0.7884
24922SOL    HW286826   4.879   9.083   9.106  2.2411  2.3486  1.8242
24923SOL     OW86827   7.915   8.690   5.180  0.3583  0.0424  0.2127
24923SOL    HW186828   7.821   8.721   5.198  0.4354 -0.2301  1.1130
24923SOL    HW286829   7.978   8.765   5.199  0.4843 -0.4076  1.6757
24924SOL     OW86830   1.758   5.245   3.920 -0.0673  0.2933  0.8084
24924SOL    HW186831   1.805   5.164   3.955 -0.0485  0.7345  1.8170
24924SOL    HW286832   1.770   5.250   3.821 -0.3026 -1.0827  0.7127
24925SOL     OW86833   8.693   4.112   0.041  0.2958  0.0736  0.0810
24925SOL    HW186834   8.599   4.142   0.028  0.2683  0.3811  0.9703
24925SOL    HW286835   8.753   4.191   0.050  0.6758 -0.1174 -0.6601
24926SOL     OW86836   0.417   3.685   8.549  0.0541  0.0233  0.1721
24926SOL    HW186837   0.446   3.629   8.472  0.0434 -0.6214  0.6239
24926SOL    HW286838   0.318   3.697   8.547  0.2273  1.3465 -0.7912
24927SOL     OW86839   9.756   8.157   8.785  0.1343 -0.0969 -0.2877
24927SOL    HW186840   9.684   8.159   8.716  0.8794 -0.9762 -1.1023
24927SOL    HW286841   9.737   8.084   8.851 -0.3749  0.4885  0.2171
24928SOL     OW86842   5.132   8.577   4.654 -0.5868 -0.6851 -0.1189
24928SOL    HW186843   5.225   8.540   4.648 -0.4929 -0.4077 -0.3532
24928SOL    HW286844   5.134   8.676   4.649 -0.9231 -0.6920 -0.4206
24929SOL     OW86845   2.558   4.758   2.760 -0.3174  0.2006 -0.4500
24929SOL    HW186846   2.546   4.743   2.858 -0.3918  0.2536 -0.4511
24929SOL    HW286847   2.598   4.676   2.719  0.9313  0.6484 -0.1500
24930SOL     OW86848   5.512   7.269   2.570  0.2014  0.6120  0.2884
24930SOL    HW186849   5.463   7.310   2.493  0.0281 -0.1693 -0.0287
24930SOL    HW286850   5.594   7.224   2.537 -0.1562 -0.1938  0.4796
24931SOL     OW86851   6.535   3.438   8.208  0.7153 -0.1367  0.1459
24931SOL    HW186852   6.584   3.375   8.269  0.7323 -1.2586 -1.0262
24931SOL    HW286853   6.558   3.418   8.113 -0.3635  0.7330 -0.3090
24932SOL     OW86854   8.979   0.684   7.169 -0.9953  0.3973 -0.0548
24932SOL    HW186855   8.987   0.688   7.069  1.4952  1.6441  0.1581
24932SOL    HW286856   8.991   0.776   7.207 -1.5278 -0.1304  1.4259
24933SOL     OW86857   9.561   7.409   5.651  0.3924 -0.3204 -0.3552
24933SOL    HW186858   9.598   7.465   5.577  0.6830  2.0199  1.5114
24933SOL    HW286859   9.637   7.367   5.703  0.2514 -0.2953 -0.1260
24934SOL     OW86860   1.013   1.397   2.672 -0.6015 -0.2446  0.2636
24934SOL    HW186861   1.013   1.497   2.668  0.5399 -0.1859  1.7672
24934SOL    HW286862   0.946   1.366   2.740  1.3960 -0.4001  2.1874
24935SOL     OW86863   0.066   8.604   4.440  0.4701  0.0501  0.0180
24935SOL    HW186864   0.155   8.588   4.481  0.9826 -1.1310 -1.4878
24935SOL    HW286865   0.073   8.594   4.340 -1.1607  0.7838 -0.1917
24936SOL     OW86866   2.260   1.013   9.527  0.5145 -0.1758  0.1502
24936SOL    HW186867   2.219   0.946   9.589 -0.0074 -0.5119 -0.5437
24936SOL    HW286868   2.255   1.104   9.569  1.9306 -0.6706  1.4300
24937SOL     OW86869   4.328   0.565   5.178 -0.3849 -0.0541 -0.3237
24937SOL    HW186870   4.332   0.513   5.263 -0.1520  0.1606 -0.1999
24937SOL    HW286871   4.275   0.649   5.193  0.0477  0.2114 -0.2637
24938SOL     OW86872   8.226   1.150   3.291  0.4818  0.3360  0.3511
24938SOL    HW186873   8.166   1.195   3.226  1.3230  0.4475 -0.3534
24938SOL    HW286874   8.171   1.108   3.364 -0.5581 -0.9040 -1.1156
24939SOL     OW86875   1.696   4.116   7.686  0.4373 -0.0280  0.0821
24939SOL    HW186876   1.655   4.207   7.683  1.7039  0.4866 -2.0756
24939SOL    HW286877   1.645   4.055   7.625 -0.7342 -0.9451  1.9135
24940SOL     OW86878   1.051   6.098   6.602  0.3585 -0.2003  0.2557
24940SOL    HW186879   1.125   6.042   6.567  0.0104 -0.5332  0.0547
24940SOL    HW286880   0.981   6.109   6.532  0.2114  0.1075  0.4480
24941SOL     OW86881   6.942   4.345   2.046 -0.0385  0.1728 -0.5087
24941SOL    HW186882   6.970   4.416   2.111  1.1649  1.4913 -2.4046
24941SOL    HW286883   6.952   4.379   1.953  0.3954 -2.4353 -1.4670
24942SOL     OW86884   8.662   3.147   7.616  0.0943  0.0979 -0.2456
24942SOL    HW186885   8.647   3.159   7.518 -2.5808 -1.5536 -0.0812
24942SOL    HW286886   8.606   3.072   7.650  2.0934 -0.3418  2.3053
24943SOL     OW86887   2.042   8.569   5.264 -0.0640  0.3968 -0.0118
24943SOL    HW186888   1.971   8.591   5.331 -0.4113  0.6889 -0.4756
24943SOL    HW286889   2.060   8.648   5.206  0.3608  0.2015 -0.1477
24944SOL     OW86890   4.486   6.271   0.059 -0.1324 -0.1898  0.0355
24944SOL    HW186891   4.401   6.314   0.028  0.1030 -0.0390 -0.4028
24944SOL    HW286892   4.563   6.310   0.010  0.4867  1.6429  2.3716
24945SOL     OW86893   2.383   6.396   5.617 -0.1363  0.4026 -0.2336
24945SOL    HW186894   2.290   6.428   5.632  0.5915  2.4493  0.1057
24945SOL    HW286895   2.428   6.456   5.550  0.7936 -0.8243 -0.7222
24946SOL     OW86896   7.218   5.731   0.430 -0.3361 -0.1372  0.3156
24946SOL    HW186897   7.241   5.682   0.514  1.2553 -1.2262 -0.7312
24946SOL    HW286898   7.141   5.686   0.385  0.2315 -0.8669  0.0664
24947SOL     OW86899   0.291   6.320   3.981 -0.3018  0.1625  0.2487
24947SOL    HW186900   0.233   6.390   4.022 -1.2322 -0.5216  0.0992
24947SOL    HW286901   0.241   6.273   3.909  0.2067 -0.8976  0.5794
24948SOL     OW86902   8.256   6.152   8.601  1.1585 -0.0593  0.2645
24948SOL    HW186903   8.163   6.142   8.639  1.1648 -0.1406  0.2569
24948SOL    HW286904   8.323   6.141   8.674  1.2034 -1.0845  0.0871
24949SOL     OW86905   3.305   8.873   9.862  0.8239  0.6285 -0.2110
24949SOL    HW186906   3.385   8.927   9.836  1.1299  0.5814  0.6060
24949SOL    HW286907   3.302   8.865   9.962 -0.7744  1.5157 -0.1624
24950SOL     OW86908   3.926   1.919   7.774 -0.4446  0.0629 -0.2073
24950SOL    HW186909   3.879   1.904   7.687 -0.2632 -0.0208 -0.2916
24950SOL    HW286910   3.948   1.830   7.815 -0.4731  0.1023 -0.1084
24951SOL     OW86911   9.429   5.234   2.111 -0.0853  0.0755  0.2965
24951SOL    HW186912   9.426   5.158   2.175  1.0590 -1.3343 -1.3093
24951SOL    HW286913   9.519   5.277   2.112  0.7128 -1.4566 -2.0583
24952SOL     OW86914   9.790   1.997   2.289 -0.5622 -0.0732  0.3710
24952SOL    HW186915   9.846   1.924   2.250 -0.9924 -0.5440  0.6247
24952SOL    HW286916   9.711   1.957   2.336 -1.1327  0.5892 -0.0172
24953SOL     OW86917   3.133   4.850   9.772 -0.2504  0.4290 -0.4204
24953SOL    HW186918   3.195   4.913   9.727  2.1407 -0.6863  1.2319
24953SOL    HW286919   3.142   4.759   9.731  0.6757 -0.1867  1.1117
24954SOL     OW86920   2.621   3.406   8.918 -0.5494 -0.1688 -0.0800
24954SOL    HW186921   2.662   3.483   8.967 -0.3567 -0.5590  0.3778
24954SOL    HW286922   2.640   3.321   8.967 -1.5656 -0.4051 -0.0760
24955SOL     OW86923   8.505   3.264   1.162  0.2461 -0.3168  0.3112
24955SOL    HW186924   8.519   3.195   1.233  0.5923 -0.9419 -0.3586
24955SOL    HW286925   8.415   3.307   1.175  0.3364 -0.3664  1.1672
24956SOL     OW86926   8.882   6.141   5.257 -0.2365 -0.0735  0.1352
24956SOL    HW186927   8.837   6.052   5.259  1.6038 -1.1783 -3.2743
24956SOL    HW286928   8.857   6.189   5.173  1.7708  1.0092  0.1251
24957SOL     OW86929   9.346   2.543   2.243 -0.1749 -0.1034  0.1050
24957SOL    HW186930   9.327   2.459   2.296  0.6550  0.6021  1.5543
24957SOL    HW286931   9.432   2.532   2.194 -0.0508 -0.0880  0.3187
24958SOL     OW86932   6.719   2.530   2.280  0.0119 -0.2653  0.3578
24958SOL    HW186933   6.782   2.483   2.342 -0.7853 -1.2089  0.4582
24958SOL    HW286934   6.637   2.558   2.330  0.7015  1.7166  0.4191
24959SOL     OW86935   4.143   8.662   0.032  0.3257  0.1507  0.0125
24959SOL    HW186936   4.178   8.568   0.029 -0.5645 -0.1552 -0.7841
24959SOL    HW286937   4.178   8.713  -0.047  0.5708  0.4137  0.2870
24960SOL     OW86938   2.117   5.172   4.164 -0.5674 -0.4039  0.0319
24960SOL    HW186939   2.201   5.160   4.112 -0.0123 -0.0578  0.8475
24960SOL    HW286940   2.071   5.256   4.134  0.4453  0.5256  1.0362
24961SOL     OW86941   3.734   3.594   3.906  0.9290 -0.4081 -0.2055
24961SOL    HW186942   3.760   3.668   3.845  0.0272 -3.0417 -3.9630
24961SOL    HW286943   3.639   3.605   3.935  0.8808  0.0179 -0.5381
24962SOL     OW86944   9.967   6.461   8.561 -0.5750  0.0850  0.5200
24962SOL    HW186945  10.057   6.500   8.583 -0.2428 -0.3674 -0.0429
24962SOL    HW286946   9.901   6.491   8.630 -0.4979  2.2607 -0.3056
24963SOL     OW86947   8.898   0.571   2.420  0.1422  0.1805  0.3663
24963SOL    HW186948   8.838   0.493   2.435  0.4368 -0.3421 -1.0573
24963SOL    HW286949   8.924   0.574   2.324  1.4258  1.1017  0.7352
24964SOL     OW86950   3.740   6.699   4.265  0.4219  0.3280 -0.0305
24964SOL    HW186951   3.813   6.642   4.302  0.9963  1.1149  0.0750
24964SOL    HW286952   3.773   6.745   4.182 -0.5717 -0.7522 -1.0388
24965SOL     OW86953   1.852   5.898   9.543 -0.3107 -0.0417 -0.3670
24965SOL    HW186954   1.768   5.845   9.531  0.2544 -0.7041 -1.3941
24965SOL    HW286955   1.828   5.994   9.559 -1.3069 -0.4719  0.8268
24966SOL     OW86956   1.113   8.763   3.922 -0.4002  0.4531  0.2675
24966SOL    HW186957   1.059   8.834   3.878  0.1507  1.2561  0.8764
24966SOL    HW286958   1.075   8.743   4.012 -0.4693  0.0776  0.1569
24967SOL     OW86959   9.851   0.641   7.111 -0.2574 -0.1422 -0.3416
24967SOL    HW186960   9.801   0.676   7.191 -1.3721  0.4732 -1.2889
24967SOL    HW286961   9.789   0.589   7.053  0.1027  0.9018 -1.6973
24968SOL     OW86962   1.534   8.515   9.228  0.1994 -0.4092  1.1672
24968SOL    HW186963   1.631   8.526   9.205  0.1793  3.1807  2.3653
24968SOL    HW286964   1.525   8.455   9.308  1.6326  0.6471  2.1598
24969SOL     OW86965   1.015   2.574   0.092  0.0207  0.2463 -0.2976
24969SOL    HW186966   0.925   2.554   0.131 -0.1266  1.9265  0.2637
24969SOL    HW286967   1.027   2.522   0.008 -1.4537 -0.0467 -0.3453
24970SOL     OW86968   2.900   8.437   6.685 -0.0864  0.0353  0.1381
24970SOL    HW186969   2.961   8.358   6.685  1.0642  0.9142 -0.1656
24970SOL    HW286970   2.888   8.469   6.591  0.9729  1.3715  0.4465
24971SOL     OW86971   9.010   3.110   2.410  0.1993  0.0731  0.0983
24971SOL    HW186972   9.025   3.029   2.353  0.3998  0.6387 -0.6652
24971SOL    HW286973   8.953   3.175   2.359 -0.6503  0.0671  1.0212
24972SOL     OW86974   8.205   8.290   4.405  0.3388  0.0581 -0.9552
24972SOL    HW186975   8.256   8.263   4.323 -0.4554 -0.3322 -1.3236
24972SOL    HW286976   8.157   8.376   4.388 -2.0156 -1.3746 -1.8431
24973SOL     OW86977   5.730   5.636   2.554 -0.7801 -0.4449  0.0012
24973SOL    HW186978   5.749   5.709   2.620 -0.7117 -0.6297  0.1857
24973SOL    HW286979   5.792   5.560   2.570 -0.8022 -0.5134 -0.2413
24974SOL     OW86980   2.565   9.875   2.128  0.2547 -0.2139 -0.2159
24974SOL    HW186981   2.584   9.780   2.150  1.8083  0.4025  1.2417
24974SOL    HW286982   2.582   9.891   2.031  1.0004 -1.1838 -0.2477
24975SOL     OW86983   6.573   9.060   7.358  0.3301  0.0817 -0.3796
24975SOL    HW186984   6.530   9.053   7.268 -1.8049  0.4164  0.5658
24975SOL    HW286985   6.549   9.148   7.399  1.2738 -0.0703  0.5114
24976SOL     OW86986   8.608   5.614   4.417 -0.1685 -0.0027 -0.1541
24976SOL    HW186987   8.603   5.706   4.455 -1.9160  0.2921 -1.0365
24976SOL    HW286988   8.520   5.590   4.375  0.0024 -2.3615  0.7310
24977SOL     OW86989   0.455   9.093   6.266  0.7562  0.4845  0.1689
24977SOL    HW186990   0.394   9.117   6.342  0.0692  0.8804 -0.5039
24977SOL    HW286991   0.537   9.048   6.302 -0.1829 -0.5671  1.0326
24978SOL     OW86992   6.019   3.345   8.987 -0.3965  0.4627 -0.1008
24978SOL    HW186993   5.967   3.323   9.069 -2.0771  2.3022 -0.6331
24978SOL    HW286994   5.995   3.282   8.914  0.8254 -0.9442  0.6988
24979SOL     OW86995   2.657   3.826   3.279 -0.1664 -0.3954  0.6986
24979SOL    HW186996   2.610   3.835   3.367 -1.7424 -0.3881 -0.1259
24979SOL    HW286997   2.612   3.755   3.225 -1.4982  2.0633 -1.5323
24980SOL     OW86998   6.374   0.196   7.368  0.0530 -0.0430 -0.1826
24980SOL    HW186999   6.462   0.153   7.390  0.2330  0.6168  0.3909
24980SOL    HW287000   6.315   0.128   7.323  0.1404 -1.0521  1.1858
24981SOL     OW87001   0.564   6.675   1.000 -0.3373 -0.4714 -0.6544
24981SOL    HW187002   0.594   6.600   1.060 -0.0418  1.9992  2.4047
24981SOL    HW287003   0.636   6.695   0.933  1.2891 -0.2689  1.1265
24982SOL     OW87004   6.065   3.364   2.328  0.4440 -0.5909 -0.5153
24982SOL    HW187005   6.048   3.266   2.324  2.3239 -0.9970  0.8380
24982SOL    HW287006   6.016   3.404   2.406 -0.3849 -0.4247 -1.1130
24983SOL     OW87007   8.027   4.822   2.576 -0.9641 -0.6171 -0.4651
24983SOL    HW187008   8.090   4.871   2.637 -2.1261 -2.1182  2.0110
24983SOL    HW287009   8.054   4.838   2.481  2.2204 -0.0015  0.4821
24984SOL     OW87010   0.872   8.977   4.837 -0.3277 -0.1317  0.8913
24984SOL    HW187011   0.923   9.047   4.887 -1.0062  1.0211 -0.0123
24984SOL    HW287012   0.774   8.989   4.853 -0.4512 -0.8806  0.7326
24985SOL     OW87013   0.437   7.549   5.058 -0.3303  0.7324 -0.1315
24985SOL    HW187014   0.460   7.483   5.129 -1.5349 -1.0262 -1.3179
24985SOL    HW287015   0.364   7.609   5.091 -1.7240 -0.8426 -0.2505
24986SOL     OW87016   8.233   4.750   3.518 -0.1047 -0.2330  0.3586
24986SOL    HW187017   8.299   4.809   3.471  0.8041 -1.1466  0.4754
24986SOL    HW287018   8.141   4.787   3.507  0.2324  0.1583 -1.2014
24987SOL     OW87019   1.290   8.977   1.839  0.1316 -0.3362  0.1879
24987SOL    HW187020   1.263   9.058   1.891  2.4822  0.5936 -0.0054
24987SOL    HW287021   1.333   8.911   1.900 -0.3329 -0.7514  0.0628
24988SOL     OW87022   1.754   6.392   4.724  0.3396 -0.1250  0.2621
24988SOL    HW187023   1.806   6.451   4.662 -0.1759 -3.1025 -3.1506
24988SOL    HW287024   1.681   6.347   4.673 -0.2633 -2.5362  3.1194
24989SOL     OW87025   8.119   5.937   0.931  0.1212 -0.2769  0.1932
24989SOL    HW187026   8.152   5.845   0.952  1.9975 -0.2549 -2.3536
24989SOL    HW287027   8.168   6.003   0.989  3.1921 -0.4340 -2.0840
24990SOL     OW87028   0.781   8.895   1.220  0.4157  0.0562  0.2828
24990SOL    HW187029   0.696   8.854   1.251  0.5401 -0.4821 -0.0771
24990SOL    HW287030   0.761   8.979   1.168  0.0737 -0.3655 -0.2698
24991SOL     OW87031   0.245   1.070   4.228 -0.0439 -0.3743  0.7171
24991SOL    HW187032   0.151   1.077   4.194  0.4290 -0.0140 -0.5599
24991SOL    HW287033   0.308   1.060   4.151  1.2157  2.0734  1.3471
24992SOL     OW87034   5.766   7.794   8.364  0.4589 -0.1995  0.0121
24992SOL    HW187035   5.718   7.881   8.360  1.1629  0.1422 -1.2980
24992SOL    HW287036   5.861   7.809   8.390  0.3070 -0.6989  0.8842
24993SOL     OW87037   3.347   6.556   8.081 -0.2036 -0.3312 -0.4550
24993SOL    HW187038   3.444   6.536   8.073  0.3215  0.8605  2.4559
24993SOL    HW287039   3.323   6.629   8.017  0.9060 -0.2930 -0.8431
24994SOL     OW87040   2.470   4.591   3.836  0.4007 -0.0300  0.6477
24994SOL    HW187041   2.523   4.668   3.871  0.0289 -0.3458  1.9276
24994SOL    HW287042   2.485   4.511   3.895  0.8622 -0.9676 -0.7110
24995SOL     OW87043   0.717   8.235   6.282  0.0048  0.0180 -0.4410
24995SOL    HW187044   0.647   8.170   6.252 -0.0234  0.6057 -1.6929
24995SOL    HW287045   0.686   8.283   6.364 -0.0640 -1.3853  0.3731
24996SOL     OW87046   1.038   3.451   0.020  0.2559  0.1755 -0.3075
24996SOL    HW187047   0.944   3.482   0.011 -0.3777 -1.8892 -1.1049
24996SOL    HW287048   1.062   3.444   0.117 -0.1168  1.5140 -0.1109
24997SOL     OW87049   1.143   2.085   9.978 -0.4990  0.2451 -0.4011
24997SOL    HW187050   1.059   2.037  10.003  0.7613 -1.9279 -0.1703
24997SOL    HW287051   1.169   2.060   9.885  0.5582 -0.0869 -0.0218
24998SOL     OW87052   1.570   2.921   5.511 -0.6312 -0.6792  0.1623
24998SOL    HW187053   1.490   2.936   5.454  0.8431  2.4884 -1.2338
24998SOL    HW287054   1.558   2.968   5.599  0.2512  1.1694 -0.6589
24999SOL     OW87055   4.513   2.173   2.875  1.1665  0.4069 -0.4905
24999SOL    HW187056   4.447   2.173   2.799 -1.2491  2.9552  1.5085
24999SOL    HW287057   4.487   2.102   2.941  3.1585 -1.6807 -1.8714
25000SOL     OW87058   9.410   6.927   9.941 -0.3109  0.2874 -0.7397
25000SOL    HW187059   9.496   6.973   9.965 -1.1354  1.6809 -0.3675
25000SOL    HW287060   9.334   6.980   9.978 -1.3472 -0.6893 -1.4690
25001SOL     OW87061   3.784   4.954   6.352 -0.2606  0.8587  0.3602
25001SOL    HW187062   3.766   5.027   6.286 -1.3291  0.0659 -0.2465
25001SOL    HW287063   3.811   4.871   6.303  0.3454  0.6660  1.0114
25002SOL     OW87064   1.738   6.940   4.028  0.1184 -0.5233  0.2117
25002SOL    HW187065   1.759   6.960   3.932  1.1746 -2.6409 -0.0077
25002SOL    HW287066   1.805   6.985   4.087  0.6979 -0.9271 -0.1377
25003SOL     OW87067   4.416   3.874   8.998  0.0230 -0.8932 -0.3607
25003SOL    HW187068   4.436   3.844   9.091 -0.3550 -2.1479 -0.6619
25003SOL    HW287069   4.363   3.803   8.951 -1.6847  0.6767 -0.8337
25004SOL     OW87070   7.548   0.978   4.862  0.4541  0.0690 -0.0392
25004SOL    HW187071   7.564   0.994   4.764 -0.3995 -1.2079 -0.3929
25004SOL    HW287072   7.568   1.062   4.913  0.5223  0.8619 -1.3519
25005SOL     OW87073   2.328   3.976   3.979 -0.6777  0.1151  0.0967
25005SOL    HW187074   2.402   4.043   3.970 -1.8301  1.3546 -0.3931
25005SOL    HW287075   2.327   3.915   3.900  1.0482 -1.1860  1.0576
25006SOL     OW87076   3.095   4.791   3.859  0.3964 -0.1038 -0.3608
25006SOL    HW187077   3.081   4.888   3.879 -0.6387 -0.7969  2.5261
25006SOL    HW287078   3.008   4.748   3.838  0.8520 -0.4085 -1.6352
25007SOL     OW87079   7.598   0.795   6.588  0.3739 -0.5349 -0.2589
25007SOL    HW187080   7.698   0.796   6.595  0.3893  0.6546 -0.5464
25007SOL    HW287081   7.562   0.886   6.612 -0.7375 -1.3462  1.2529
25008SOL     OW87082   4.128   3.180   6.776  0.3637  0.1770  0.2876
25008SOL    HW187083   4.181   3.258   6.743 -2.0953  1.3104 -1.1364
25008SOL    HW287084   4.134   3.105   6.710  1.8470 -0.4813  1.1381
25009SOL     OW87085   9.085   4.075   3.765 -0.2174  0.8145 -0.2095
25009SOL    HW187086   8.991   4.041   3.756  0.4695 -1.1711 -0.1307
25009SOL    HW287087   9.139   4.045   3.686 -0.0093  3.3073 -1.0837
25010SOL     OW87088   1.650   3.556   6.797 -0.6287  0.4595 -0.5293
25010SOL    HW187089   1.704   3.614   6.858 -0.8465  1.1746 -1.0202
25010SOL    HW287090   1.682   3.461   6.805 -0.9116  0.4811  0.9715
25011SOL     OW87091   7.302   6.070   3.188  0.5253  0.2805 -0.4763
25011SOL    HW187092   7.249   6.069   3.104  0.8422  0.8069 -0.6847
25011SOL    HW287093   7.256   6.015   3.257  0.6593 -0.7878 -1.2341
25012SOL     OW87094   2.785   5.225   2.269  0.2222  0.5660 -0.2807
25012SOL    HW187095   2.858   5.184   2.324 -1.0831  2.2608  2.8386
25012SOL    HW287096   2.820   5.308   2.225  0.0573  1.7512  1.7516
25013SOL     OW87097   3.201   6.683   7.873 -0.1135 -0.0149 -0.0091
25013SOL    HW187098   3.123   6.624   7.849 -0.0275 -0.3539  0.5241
25013SOL    HW287099   3.168   6.774   7.895 -0.5016 -0.4856  1.4233
25014SOL     OW87100   4.023   9.882   1.178  0.0861 -0.4083 -0.5866
25014SOL    HW187101   3.972   9.873   1.264  1.2474  1.1087  0.3047
25014SOL    HW287102   3.981   9.954   1.122 -0.1830 -0.8321 -0.9329
25015SOL     OW87103   2.101   2.720   7.473 -0.7063  0.3533  0.3505
25015SOL    HW187104   2.133   2.704   7.380  1.3202 -0.0978  1.0824
25015SOL    HW287105   2.022   2.780   7.472 -0.9243  0.0556 -1.6799
25016SOL     OW87106   7.728   1.849   6.912 -0.2449  0.7317  0.0975
25016SOL    HW187107   7.793   1.853   6.836  0.7073  1.4492  0.9369
25016SOL    HW287108   7.642   1.810   6.880  0.9164 -1.1721 -0.7961
25017SOL     OW87109   2.947   5.342   7.419  0.1270 -0.7391 -0.0924
25017SOL    HW187110   3.039   5.305   7.414 -0.1050 -1.3748  0.2060
25017SOL    HW287111   2.950   5.441   7.428  0.7326 -0.4210 -3.2204
25018SOL     OW87112   5.501   8.554   7.098 -0.3011  0.1036  0.0527
25018SOL    HW187113   5.438   8.540   7.174 -0.6542 -2.4665 -0.6909
25018SOL    HW287114   5.595   8.547   7.132 -0.4565 -1.0382  0.2492
25019SOL     OW87115   2.861   1.277   8.858  0.0599 -0.2667 -0.6349
25019SOL    HW187116   2.945   1.265   8.804  0.0562  1.6171 -1.1145
25019SOL    HW287117   2.877   1.247   8.952  1.3059  0.1825 -0.6984
25020SOL     OW87118   7.913   1.150   5.660 -0.1726 -0.4152  0.2319
25020SOL    HW187119   7.884   1.230   5.712  0.6267 -0.0291  0.0899
25020SOL    HW287120   7.899   1.167   5.562 -1.1482 -0.9231  0.2785
25021SOL     OW87121   9.869   5.843   6.082  0.6069  0.2361  0.3217
25021SOL    HW187122   9.782   5.845   6.033  0.4243 -0.1631  0.6351
25021SOL    HW287123   9.903   5.749   6.086  1.1822  0.4206 -0.0280
25022SOL     OW87124   2.110   8.289   0.246  0.1072 -0.5650  0.1780
25022SOL    HW187125   2.094   8.387   0.254  3.3796  0.0756 -0.4595
25022SOL    HW287126   2.098   8.261   0.150 -3.2686 -1.3181  0.7568
25023SOL     OW87127   3.901   8.071   2.403 -0.3243  0.1336  0.5256
25023SOL    HW187128   3.918   7.986   2.452  0.9920 -0.6572 -1.2777
25023SOL    HW287129   3.988   8.118   2.387 -0.8298  0.7584 -0.3865
25024SOL     OW87130   5.946   2.163   5.993  0.7474 -0.0886  0.3789
25024SOL    HW187131   5.918   2.250   5.953 -0.2149 -0.9108 -0.7517
25024SOL    HW287132   5.910   2.155   6.086  1.3175  0.9647  0.6907
25025SOL     OW87133   6.689   8.298   8.055 -0.3114  0.7534  0.5031
25025SOL    HW187134   6.730   8.262   8.139 -0.9418  0.6607  0.7753
25025SOL    HW287135   6.708   8.396   8.049  1.0054  0.4805 -0.0013
25026SOL     OW87136   6.380   3.286   3.147 -0.0032 -0.8200  0.3924
25026SOL    HW187137   6.432   3.361   3.107  0.0903  0.1210  2.2242
25026SOL    HW287138   6.373   3.211   3.081 -0.3403  0.8923 -1.5604
25027SOL     OW87139   2.426   4.050   8.228  0.4713  0.3435 -0.6980
25027SOL    HW187140   2.453   4.077   8.321 -1.3435  3.3978 -0.9961
25027SOL    HW287141   2.378   3.962   8.232 -0.8134  1.0823  1.4922
25028SOL     OW87142   9.991   2.244   7.001 -0.8098  0.3495  0.0060
25028SOL    HW187143  10.064   2.223   6.937 -1.6133  0.8816 -1.0905
25028SOL    HW287144   9.940   2.160   7.022 -0.7873  0.2492 -0.3431
25029SOL     OW87145   2.103   2.899   0.053 -0.3808  0.3831  0.5153
25029SOL    HW187146   2.162   2.830   0.094 -1.0671 -0.0859  0.7075
25029SOL    HW287147   2.131   2.990   0.085  0.1333  0.1495  0.7272
25030SOL     OW87148   7.795   3.716   7.691 -0.6047  0.2797 -0.0325
25030SOL    HW187149   7.697   3.696   7.691 -0.3738 -0.8848  0.1293
25030SOL    HW287150   7.845   3.641   7.646  0.2427  0.6637  0.2540
25031SOL     OW87151   9.556   8.702   4.331  0.0247 -0.1209 -0.1166
25031SOL    HW187152   9.618   8.630   4.300  0.9231  0.2732  0.7013
25031SOL    HW287153   9.523   8.680   4.423 -1.2516 -0.4454 -0.6409
25032SOL     OW87154   0.888   0.151   6.351  0.1763 -0.4661 -0.3542
25032SOL    HW187155   0.901   0.098   6.435 -0.0129  0.0399  0.0002
25032SOL    HW287156   0.889   0.090   6.272 -0.8482 -1.1052  0.1174
25033SOL     OW87157   2.101   6.594   2.481 -0.2729 -0.0404 -0.7367
25033SOL    HW187158   2.042   6.643   2.417 -1.5631  0.5794  0.8887
25033SOL    HW287159   2.075   6.617   2.575  1.5123 -1.0105  0.0321
25034SOL     OW87160   7.689   9.771   6.565  0.3447 -0.1849  0.6880
25034SOL    HW187161   7.633   9.749   6.485  0.0097 -0.2565  0.9450
25034SOL    HW287162   7.780   9.732   6.552 -0.1550 -1.4908  1.0089
25035SOL     OW87163   3.962   4.661   6.021  0.0760 -0.1065 -0.2081
25035SOL    HW187164   4.001   4.615   5.941  0.0592 -0.1101 -0.2145
25035SOL    HW287165   4.035   4.682   6.086  0.3262  1.2781 -0.9128
25036SOL     OW87166   2.959   7.443   1.521 -0.2655  0.0013 -0.6974
25036SOL    HW187167   2.945   7.427   1.423 -0.8430 -0.8327 -0.4841
25036SOL    HW287168   2.987   7.538   1.535 -1.9245  0.6397 -1.5098
25037SOL     OW87169   6.480   7.350   5.488 -0.0423 -0.1045 -0.3129
25037SOL    HW187170   6.498   7.446   5.512 -0.5220  0.0717 -0.6436
25037SOL    HW287171   6.495   7.337   5.390 -0.1867 -0.3223 -0.3056
25038SOL     OW87172   3.579   5.758   2.336  0.1073  0.1513  0.3681
25038SOL    HW187173   3.616   5.792   2.250 -1.4125 -0.4962 -0.5574
25038SOL    HW287174   3.574   5.659   2.334 -0.5795  0.1707  0.9326
25039SOL     OW87175   0.987   2.018   4.833 -0.3316 -0.0883  0.1265
25039SOL    HW187176   1.014   1.933   4.878  1.0766  0.4929  0.4348
25039SOL    HW287177   1.002   2.011   4.735  1.2465  0.3006  0.3155
25040SOL     OW87178   4.206   7.381   9.448  0.1000 -0.2390 -0.5040
25040SOL    HW187179   4.294   7.374   9.495 -1.2986 -0.5544  2.1653
25040SOL    HW287180   4.192   7.476   9.419 -0.0582  0.5421  1.9551
25041SOL     OW87181   4.589   8.190   2.178  0.5160 -0.0575 -0.3783
25041SOL    HW187182   4.507   8.213   2.126  0.1637  0.3742  0.3539
25041SOL    HW287183   4.670   8.204   2.121  0.1461  0.5738 -0.7533
25042SOL     OW87184   1.108   8.230   0.060  0.1936 -0.2317  0.2805
25042SOL    HW187185   1.024   8.201   0.106  0.3516  1.2084  1.5671
25042SOL    HW287186   1.121   8.328   0.076 -0.0892  0.4926 -3.4625
25043SOL     OW87187   4.528   6.859   4.153  0.1738 -0.2725  0.3533
25043SOL    HW187188   4.455   6.904   4.205 -0.3997  1.1726 -1.6495
25043SOL    HW287189   4.607   6.845   4.213 -0.9168  0.1676  1.9577
25044SOL     OW87190   8.189   3.703   0.116  0.1546 -0.3170 -0.0714
25044SOL    HW187191   8.253   3.758   0.170 -1.4954  0.9045  0.6995
25044SOL    HW287192   8.186   3.610   0.153 -0.3416  0.2830  1.4796
25045SOL     OW87193   3.506   7.580   9.248 -0.0450 -0.0794 -0.3879
25045SOL    HW187194   3.520   7.570   9.150  2.2056  0.1024 -0.1187
25045SOL    HW287195   3.411   7.560   9.271  0.4162 -4.7543 -2.0044
25046SOL     OW87196   2.112   3.355   2.462  0.1181  0.0665 -0.0197
25046SOL    HW187197   2.026   3.321   2.499  1.1154 -2.2680  0.2586
25046SOL    HW287198   2.111   3.345   2.362  0.0863 -0.0395 -0.0093
25047SOL     OW87199   4.825   7.771   2.287 -0.3988 -0.2745 -0.2532
25047SOL    HW187200   4.823   7.688   2.343  0.6641  0.3811  0.7616
25047SOL    HW287201   4.882   7.755   2.206  0.1201 -0.4024  0.1387
25048SOL     OW87202   0.361   0.529   5.211  0.4284  0.0439 -0.6252
25048SOL    HW187203   0.434   0.465   5.232 -0.4063 -1.0868 -1.0852
25048SOL    HW287204   0.273   0.480   5.209 -0.5141  1.6032  1.1712
25049SOL     OW87205   9.374   4.141   6.951 -0.0889  0.2186 -0.3241
25049SOL    HW187206   9.336   4.230   6.928 -0.0564 -0.2475 -2.2379
25049SOL    HW287207   9.434   4.110   6.878  0.6355 -0.9669  0.7483
25050SOL     OW87208   8.693   7.420   4.536 -0.2139 -0.1333  0.7525
25050SOL    HW187209   8.791   7.420   4.515 -0.1036 -1.6269  1.1659
25050SOL    HW287210   8.679   7.382   4.628 -1.1452  0.5864  0.9202
25051SOL     OW87211   4.506   3.166   6.332 -0.2320 -0.3805  0.3301
25051SOL    HW187212   4.527   3.186   6.428 -2.1317  0.3297  0.6145
25051SOL    HW287213   4.591   3.153   6.281  0.8084 -0.0083  1.9507
25052SOL     OW87214   7.166   7.515   6.405 -0.0214  0.4656 -0.2790
25052SOL    HW187215   7.173   7.573   6.324 -1.3822 -0.1210 -0.8303
25052SOL    HW287216   7.213   7.559   6.482 -0.5541  2.0304 -0.8360
25053SOL     OW87217   5.924   2.415   9.095 -0.4035 -0.3228 -0.1587
25053SOL    HW187218   5.848   2.360   9.130 -0.5807  0.4495  0.7177
25053SOL    HW287219   6.010   2.375   9.125 -0.5491  0.2051  0.9973
25054SOL     OW87220   0.224   2.818   5.183  0.4470  0.1479  0.0914
25054SOL    HW187221   0.172   2.817   5.098  0.5179  2.1221 -0.0010
25054SOL    HW287222   0.223   2.727   5.224 -1.4382 -0.2922 -0.8877
25055SOL     OW87223   9.842   5.330   3.766 -0.4412 -0.2636  0.3404
25055SOL    HW187224   9.849   5.375   3.855 -1.8728 -1.8989  1.3395
25055SOL    HW287225   9.826   5.398   3.695 -0.6761  0.9604  1.5384
25056SOL     OW87226   2.882   3.787   4.375  0.3649 -0.3473 -0.0515
25056SOL    HW187227   2.931   3.855   4.430  2.3810 -0.9474 -1.0475
25056SOL    HW287228   2.868   3.705   4.429 -1.6830  0.6547  1.0107
25057SOL     OW87229   2.517   6.706   4.588 -0.1019  0.2295 -0.2732
25057SOL    HW187230   2.553   6.776   4.526  1.6932  0.0180  0.5147
25057SOL    HW287231   2.586   6.635   4.603 -1.1554 -0.6373  0.5897
25058SOL     OW87232   1.325   6.814   9.052 -0.5275  0.4216 -0.0682
25058SOL    HW187233   1.274   6.881   9.106 -1.3520 -0.0886 -0.2151
25058SOL    HW287234   1.299   6.722   9.079  2.1196  0.1035  1.6064
25059SOL     OW87235   7.328   8.014   6.025  0.3746  0.7243 -0.5751
25059SOL    HW187236   7.413   8.006   6.077 -0.0703  1.0145  0.1989
25059SOL    HW287237   7.315   7.930   5.971  0.6117  0.2248  0.1293
25060SOL     OW87238   9.986   5.343   5.581  0.1325  0.3297 -0.8499
25060SOL    HW187239   9.905   5.296   5.617  0.3314  1.0956  0.6128
25060SOL    HW287240   9.999   5.429   5.630  0.5024  1.3254 -2.6527
25061SOL     OW87241   2.354   3.047   4.393 -0.4892 -0.3133 -0.1331
25061SOL    HW187242   2.308   3.025   4.479  0.2487  0.7543  0.5524
25061SOL    HW287243   2.301   3.116   4.344 -0.1986  0.1220  0.1503
25062SOL     OW87244   6.538   4.277   1.580 -0.2651  0.1626  0.8443
25062SOL    HW187245   6.555   4.250   1.485  0.1586 -0.3774  1.0683
25062SOL    HW287246   6.493   4.366   1.582 -1.2474 -0.3025  0.1007
25063SOL     OW87247   2.683   6.303   6.212  0.3749  0.3566 -0.6344
25063SOL    HW187248   2.647   6.236   6.278 -1.1578  1.8184  0.0543
25063SOL    HW287249   2.698   6.390   6.259  1.2074  0.8309 -1.7875
25064SOL     OW87250   5.836   7.979   4.600 -0.3706 -0.5123 -0.0575
25064SOL    HW187251   5.860   7.882   4.590  1.7228 -0.1322  1.1481
25064SOL    HW287252   5.747   7.986   4.646  0.0861 -1.8348  1.0643
25065SOL     OW87253   3.117   3.700   3.660  0.8175  0.8505 -0.7316
25065SOL    HW187254   3.063   3.719   3.578 -1.7886 -2.6373  0.0657
25065SOL    HW287255   3.184   3.628   3.641  0.0760 -0.1066  0.2341
25066SOL     OW87256   8.573   8.031   2.506 -0.9057  0.0903 -0.1165
25066SOL    HW187257   8.480   7.995   2.508 -0.6464 -0.5487  0.5236
25066SOL    HW287258   8.569   8.131   2.494 -1.7851  0.4406  2.6047
25067SOL     OW87259   3.378   0.326   4.061  0.0919  0.6741  0.4236
25067SOL    HW187260   3.292   0.372   4.038  0.7967  1.6201 -0.3300
25067SOL    HW287261   3.450   0.393   4.077  0.6564 -0.1073  1.2330
25068SOL     OW87262   1.366   8.675   7.460 -0.2411 -0.2596 -0.1887
25068SOL    HW187263   1.446   8.734   7.461 -0.4979  0.0846 -0.0961
25068SOL    HW287264   1.309   8.697   7.381 -0.2890 -0.4422 -0.2057
25069SOL     OW87265   7.020   2.152   0.290  0.8643  0.6758  0.2852
25069SOL    HW187266   6.950   2.083   0.305  1.4647  0.2515  1.1456
25069SOL    HW287267   7.083   2.155   0.368  2.2032  0.5797 -0.7594
25070SOL     OW87268   3.801   0.358   7.717 -0.3425 -0.1980 -0.0030
25070SOL    HW187269   3.778   0.329   7.810 -1.3180  0.6157  0.0178
25070SOL    HW287270   3.896   0.389   7.714 -0.7117  1.0935  1.0551
25071SOL     OW87271   8.106   9.505   6.910  0.1173  0.1408 -0.1148
25071SOL    HW187272   8.035   9.454   6.862  1.4249 -0.2316 -1.7246
25071SOL    HW287273   8.068   9.549   6.991 -1.9046 -0.1212 -0.9069
25072SOL     OW87274   4.670   9.401   2.180  0.0984  0.4138  0.2132
25072SOL    HW187275   4.746   9.375   2.120  0.6091  0.6854  0.7415
25072SOL    HW287276   4.630   9.487   2.147  1.1623  1.2168  0.9489
25073SOL     OW87277   7.427   1.932   1.117  0.0673  0.1311  0.0584
25073SOL    HW187278   7.332   1.950   1.141 -0.4248 -0.6847 -1.2174
25073SOL    HW287279   7.432   1.851   1.058  1.7867 -1.2286  1.9875
25074SOL     OW87280   3.405   8.678   5.989 -0.0854 -0.2251  0.2292
25074SOL    HW187281   3.489   8.631   6.018  0.6609  0.2551 -1.1087
25074SOL    HW287282   3.360   8.624   5.919 -0.9330 -0.5002  0.9767
25075SOL     OW87283   3.249   9.084   2.744  0.0438 -0.6035 -0.2997
25075SOL    HW187284   3.188   9.142   2.798  0.1127 -2.5189  1.9229
25075SOL    HW287285   3.296   9.140   2.676 -2.0166  1.4144 -0.1270
25076SOL     OW87286   3.745   9.796   6.645 -0.2434 -0.2179 -0.0844
25076SOL    HW187287   3.701   9.716   6.603 -0.5442 -0.1541  0.1069
25076SOL    HW287288   3.680   9.873   6.646  0.2269  0.1956 -0.7738
25077SOL     OW87289   9.274   5.141   1.389 -0.6928  0.0452 -0.0676
25077SOL    HW187290   9.295   5.237   1.408 -0.7733  0.8413 -3.5692
25077SOL    HW287291   9.187   5.135   1.340 -0.3519 -1.7421 -0.4903
25078SOL     OW87292   9.975   4.117   3.171 -0.6504  0.1025  0.3110
25078SOL    HW187293   9.945   4.147   3.261  0.2321  2.6809 -0.2262
25078SOL    HW287294  10.074   4.133   3.162 -0.7660  0.0134 -1.1661
25079SOL     OW87295   6.469   4.615  10.010 -0.1863 -0.3639 -0.2342
25079SOL    HW187296   6.456   4.585   9.916  0.9277  0.5577 -0.6938
25079SOL    HW287297   6.557   4.581  10.044  0.5183  1.3101 -0.3504
25080SOL     OW87298   1.692   5.366   2.942 -0.8507 -0.0650  0.9088
25080SOL    HW187299   1.696   5.383   3.040  0.8142 -1.6397  1.1482
25080SOL    HW287300   1.609   5.315   2.920 -0.5968 -0.8181  1.6876
25081SOL     OW87301   1.175   6.484   7.951 -1.0311 -0.0086  0.2443
25081SOL    HW187302   1.215   6.400   7.988  0.2452 -0.1136 -1.3322
25081SOL    HW287303   1.181   6.557   8.020  0.4732 -0.4387  0.5751
25082SOL     OW87304   7.333   0.473   8.001 -0.1923 -0.0508 -0.3287
25082SOL    HW187305   7.318   0.558   8.052  1.6438 -0.0149  0.1922
25082SOL    HW287306   7.335   0.492   7.903  0.9685  0.6623 -0.1835
25083SOL     OW87307   2.943   1.602   2.455  0.1835 -0.0525  0.3559
25083SOL    HW187308   2.998   1.674   2.498  1.0166  0.1723 -1.0397
25083SOL    HW287309   2.968   1.513   2.494  0.3177  0.2365  0.9369
25084SOL     OW87310   9.564   8.430   6.904 -0.2755 -0.4174  0.3189
25084SOL    HW187311   9.632   8.498   6.930 -1.3686  1.3367 -1.2820
25084SOL    HW287312   9.605   8.365   6.841  0.2524 -0.0915  0.3195
25085SOL     OW87313   3.239   3.829   6.928  0.2768  0.1814 -0.0073
25085SOL    HW187314   3.188   3.743   6.919 -0.4938  0.7230 -0.9725
25085SOL    HW287315   3.267   3.860   6.837 -1.2922  2.0484  0.1294
25086SOL     OW87316   6.608   8.977   6.454 -0.1222  0.0917 -0.3581
25086SOL    HW187317   6.640   8.924   6.376 -0.3392 -0.0765 -0.3317
25086SOL    HW287318   6.557   9.057   6.422  1.0253  0.8039 -0.4168
25087SOL     OW87319   7.477   7.545   3.295 -0.1403 -0.0988 -0.5489
25087SOL    HW187320   7.391   7.588   3.264 -0.0824 -0.6346 -1.4639
25087SOL    HW287321   7.531   7.613   3.344 -1.4366  0.0384  0.7175
25088SOL     OW87322   8.142   8.782   8.148  0.2764  0.1123 -0.5396
25088SOL    HW187323   8.146   8.734   8.061  0.2656  1.0625 -1.0686
25088SOL    HW287324   8.176   8.722   8.221  0.4662 -0.6099 -1.2191
25089SOL     OW87325   4.985   4.470   7.885 -0.0705 -0.3852 -0.4676
25089SOL    HW187326   5.067   4.488   7.940 -1.2211 -0.6957  1.4217
25089SOL    HW287327   4.926   4.405   7.934 -1.1676 -0.6136 -2.0647
25090SOL     OW87328   8.168   5.553   9.974  0.0710 -0.1054 -0.0806
25090SOL    HW187329   8.149   5.475  10.034 -0.4372  1.0244  1.2310
25090SOL    HW287330   8.253   5.535   9.923  0.5147 -1.0601  0.9782
25091SOL     OW87331   0.120   7.252   8.778 -0.3437  0.4773 -0.1478
25091SOL    HW187332   0.103   7.351   8.783 -1.1702  0.3091  0.5348
25091SOL    HW287333   0.086   7.208   8.861  0.9973 -0.2551  0.0251
25092SOL     OW87334   0.432   7.864   2.237 -0.6194 -0.5688 -0.7283
25092SOL    HW187335   0.393   7.834   2.324  0.1813 -1.1652 -0.5667
25092SOL    HW287336   0.390   7.950   2.209  0.1380  0.3777  0.9663
25093SOL     OW87337   4.632   8.234   1.848  0.3444 -0.1094 -0.3916
25093SOL    HW187338   4.682   8.191   1.773  2.3279  0.8729  0.3270
25093SOL    HW287339   4.651   8.332   1.848 -1.6624  0.2982 -0.1300
25094SOL     OW87340   7.870   6.590   4.101  0.4728 -0.0533 -0.2386
25094SOL    HW187341   7.835   6.632   4.017  1.1144 -0.1781 -0.5739
25094SOL    HW287342   7.920   6.659   4.154 -1.5517  0.5198  0.9896
25095SOL     OW87343   9.836   0.204   5.371 -0.0465  0.4337 -0.3322
25095SOL    HW187344   9.781   0.141   5.316  0.8750 -0.2122 -0.5217
25095SOL    HW287345   9.929   0.208   5.335 -0.5362  3.2793 -1.3973
25096SOL     OW87346   0.648   8.726   9.853  0.2678  0.4339 -0.0482
25096SOL    HW187347   0.718   8.741   9.783 -0.2475  0.4058 -0.5704
25096SOL    HW287348   0.560   8.759   9.819 -0.0639  0.0380  0.4281
25097SOL     OW87349   8.698   4.221   4.184  0.1199  0.2224  0.4178
25097SOL    HW187350   8.764   4.211   4.258 -0.8523 -2.6140  0.9720
25097SOL    HW287351   8.606   4.223   4.222 -0.2929  0.5479 -0.5882
25098SOL     OW87352   0.648   5.711   5.801  0.5773 -0.6801 -0.8022
25098SOL    HW187353   0.597   5.795   5.816  0.6182 -0.6697 -0.7172
25098SOL    HW287354   0.710   5.695   5.878 -0.4928 -1.5441 -0.1024
25099SOL     OW87355   9.192   4.708   2.996  0.2047 -0.4541 -0.1793
25099SOL    HW187356   9.258   4.634   3.011 -1.2933 -1.6066  0.8485
25099SOL    HW287357   9.117   4.674   2.940 -0.9247  0.0155  1.0188
25100SOL     OW87358   2.108   3.820   6.373  0.4726  0.0855 -0.8862
25100SOL    HW187359   2.125   3.904   6.426  1.1270 -1.0044  0.6802
25100SOL    HW287360   2.177   3.812   6.301  2.2699 -0.6219  0.8726
25101SOL     OW87361   8.237   5.381   7.011 -0.5727  0.0945  0.2995
25101SOL    HW187362   8.186   5.295   7.024  0.0915 -0.1725  1.2015
25101SOL    HW287363   8.290   5.401   7.094 -1.0300  1.5906  0.2428
25102SOL     OW87364   4.418   8.576   2.183  0.2924  0.6826  0.0526
25102SOL    HW187365   4.477   8.602   2.260  0.9990 -0.2405 -0.1650
25102SOL    HW287366   4.411   8.652   2.119  1.3913  0.7422 -0.0011
25103SOL     OW87367   8.629   7.612   2.919  0.1529 -0.1745 -0.4728
25103SOL    HW187368   8.712   7.667   2.923 -0.7335  1.2240 -1.0645
25103SOL    HW287369   8.651   7.522   2.881  1.1398  0.6655 -1.9332
25104SOL     OW87370   4.369   1.218   0.510 -0.0902 -0.3094  0.7824
25104SOL    HW187371   4.414   1.290   0.563  1.1971 -1.3712  1.1857
25104SOL    HW287372   4.416   1.131   0.527 -2.5266 -1.5389  1.4736
25105SOL     OW87373   0.742   4.121   3.331 -0.0606  0.1590 -0.1298
25105SOL    HW187374   0.839   4.097   3.322 -0.3383 -0.6412 -1.1264
25105SOL    HW287375   0.687   4.038   3.326 -0.7461  0.4934  1.5176
25106SOL     OW87376   8.544   9.025   9.576  0.1145 -0.0295  0.1888
25106SOL    HW187377   8.631   9.061   9.610  0.6446 -0.3776 -0.7803
25106SOL    HW287378   8.509   9.085   9.504  1.1530 -1.5695 -1.6464
25107SOL     OW87379   3.004   7.485   5.544 -0.1669 -0.3948  0.6899
25107SOL    HW187380   3.064   7.554   5.502 -0.2579 -0.5296  0.3328
25107SOL    HW287381   3.055   7.434   5.612 -0.8307  1.8426  2.9463
25108SOL     OW87382   8.792   9.447   5.174 -0.3147  0.7206 -0.5067
25108SOL    HW187383   8.693   9.455   5.161 -0.3260  0.0468 -0.8583
25108SOL    HW287384   8.824   9.520   5.235 -1.4268 -0.5773  1.7085
25109SOL     OW87385   7.651   1.174   7.030 -0.0545 -0.1731  0.2736
25109SOL    HW187386   7.737   1.206   7.071 -0.5783  1.1459  0.3720
25109SOL    HW287387   7.665   1.085   6.988  1.5640  0.3891 -0.4018
25110SOL     OW87388   1.544   2.024   9.374  0.5790 -0.4744 -0.4880
25110SOL    HW187389   1.611   2.022   9.299  1.6287  1.5028  0.3620
25110SOL    HW287390   1.580   2.077   9.450 -1.6633 -0.0027  0.3002
25111SOL     OW87391   1.923   4.700   3.262  0.1575  0.2776  0.5129
25111SOL    HW187392   1.909   4.724   3.166  0.8726 -0.2461  0.2754
25111SOL    HW287393   1.901   4.779   3.320  0.6585  0.8990 -0.1385
25112SOL     OW87394   7.472   9.085   6.359 -0.0962 -0.1147 -0.6300
25112SOL    HW187395   7.429   9.150   6.296 -1.5477  1.7012  2.1403
25112SOL    HW287396   7.403   9.023   6.394  0.2482  0.3762  0.9387
25113SOL     OW87397   9.499   4.664   4.843 -0.0071 -0.9456  0.2731
25113SOL    HW187398   9.504   4.593   4.772  0.5507 -0.7002  0.0753
25113SOL    HW287399   9.591   4.694   4.867 -0.2635 -0.0533  0.1312
25114SOL     OW87400   4.547   3.053   8.888  0.4744  0.1466  0.6800
25114SOL    HW187401   4.544   3.120   8.815 -1.4124  0.5296  1.0970
25114SOL    HW287402   4.555   2.961   8.849 -3.5543  0.0918 -0.1760
25115SOL     OW87403   2.776   1.166  10.002  0.2970  0.3704 -0.0227
25115SOL    HW187404   2.837   1.095  10.037  0.7889  1.5535  1.5668
25115SOL    HW287405   2.789   1.176   9.903  0.5552 -1.4024 -0.1886
25116SOL     OW87406   5.275   8.985   9.082 -0.1667 -0.2518 -0.5995
25116SOL    HW187407   5.187   8.962   9.125  0.5502 -0.6000  0.7026
25116SOL    HW287408   5.345   8.921   9.113  1.2978  2.0560  1.0000
25117SOL     OW87409   4.114   4.870   2.942 -0.1495  0.3787  0.4265
25117SOL    HW187410   4.160   4.930   3.007 -0.5529  1.1680 -0.0033
25117SOL    HW287411   4.180   4.806   2.902  0.3991  0.9111  0.4726
25118SOL     OW87412   4.101   6.595   0.077 -0.1435 -0.2655 -0.9351
25118SOL    HW187413   4.002   6.589   0.064 -0.1054 -0.8144 -0.9774
25118SOL    HW287414   4.132   6.686   0.050 -0.9943  0.7766  1.4321
25119SOL     OW87415   1.123   7.599   5.542 -0.1745  0.5143 -0.1919
25119SOL    HW187416   1.138   7.501   5.536 -1.1660  0.4245 -1.5379
25119SOL    HW287417   1.035   7.622   5.499  1.0408  2.2455 -1.8513
25120SOL     OW87418   0.651   0.697   1.169 -0.1884  0.0715  0.0737
25120SOL    HW187419   0.622   0.622   1.108  0.4958  0.1065 -0.3012
25120SOL    HW287420   0.699   0.659   1.248 -1.1215  0.0232  0.6182
25121SOL     OW87421   0.984   1.438   2.191  0.5884  0.0178 -0.5029
25121SOL    HW187422   1.075   1.433   2.150  1.0740  1.3669  0.3917
25121SOL    HW287423   0.932   1.513   2.150  0.8603  0.9852  0.8874
25122SOL     OW87424   1.601   2.530   8.760  0.6520 -0.1437  0.0961
25122SOL    HW187425   1.618   2.549   8.663  2.3015  0.2041  0.4296
25122SOL    HW287426   1.612   2.432   8.778 -1.9209 -0.5630 -0.4886
25123SOL     OW87427   0.085   5.023   4.591  0.4062 -0.0510  0.6204
25123SOL    HW187428   0.128   4.986   4.674 -0.1192  0.9240  1.3404
25123SOL    HW287429  -0.010   4.992   4.586  0.1848  0.5918  0.8356
25124SOL     OW87430   4.041   0.493   7.773 -0.7272 -0.3391  0.3345
25124SOL    HW187431   3.984   0.568   7.741  0.7809  0.4708 -0.5066
25124SOL    HW287432   4.041   0.491   7.873 -1.7323  0.0288  0.3419
25125SOL     OW87433   2.363   6.279   7.732 -0.4913  0.5257  0.4785
25125SOL    HW187434   2.387   6.235   7.645 -1.6550  1.1490 -0.1812
25125SOL    HW287435   2.419   6.241   7.805  1.5127  0.9989 -0.7705
25126SOL     OW87436   3.043   2.471   8.519  0.9296 -0.0708 -0.0504
25126SOL    HW187437   3.038   2.405   8.594 -2.0786  0.4636  0.2967
25126SOL    HW287438   3.032   2.563   8.556 -0.5215  0.1967 -1.1030
25127SOL     OW87439   1.445   7.517   6.944 -0.0443 -0.3233 -0.3049
25127SOL    HW187440   1.366   7.460   6.921 -0.9827  0.3847  1.1028
25127SOL    HW287441   1.529   7.467   6.922 -0.8670 -1.6362 -0.5443
25128SOL     OW87442   7.939   0.493   2.384 -0.2564 -0.5337 -0.1770
25128SOL    HW187443   7.926   0.412   2.326 -0.4931 -1.7544  1.5548
25128SOL    HW287444   7.887   0.482   2.469 -0.1040  1.3490  0.1719
25129SOL     OW87445   8.362   3.790   3.420 -0.1699 -0.1973 -0.1809
25129SOL    HW187446   8.396   3.882   3.405  0.1596 -0.3988 -0.6698
25129SOL    HW287447   8.388   3.760   3.512  0.0993  0.0317 -0.1815
25130SOL     OW87448   1.140   6.203   0.846 -0.4582  0.1292 -0.3502
25130SOL    HW187449   1.183   6.266   0.911 -0.6848  0.2427 -0.3135
25130SOL    HW287450   1.195   6.200   0.763  0.2422 -0.5768  0.1256
25131SOL     OW87451   3.579   0.625   3.831 -0.0066 -0.2455 -0.0447
25131SOL    HW187452   3.656   0.687   3.813 -0.1889 -0.7565 -2.8957
25131SOL    HW287453   3.614   0.540   3.869  0.6282  0.2610  0.5257
25132SOL     OW87454   5.035   2.542   1.031  0.5072 -0.1523 -0.5373
25132SOL    HW187455   5.067   2.447   1.034 -0.7038 -0.5406  0.8945
25132SOL    HW287456   4.946   2.545   0.985  0.0900  0.1405  0.2790
25133SOL     OW87457   4.527   8.513   9.642  0.6441  0.5644  0.0991
25133SOL    HW187458   4.497   8.565   9.563 -0.5113  0.4448  0.4481
25133SOL    HW287459   4.467   8.434   9.655  0.1911  1.1342  1.6729
25134SOL     OW87460   3.393   2.340   5.259 -0.1974  0.5967 -0.3336
25134SOL    HW187461   3.374   2.263   5.198  0.6449 -0.6844  0.9658
25134SOL    HW287462   3.433   2.415   5.207  2.7335 -1.3289 -1.0392
25135SOL     OW87463   0.924   6.912   5.384  0.1544 -0.0223 -0.2535
25135SOL    HW187464   1.003   6.945   5.436  0.0329 -0.1174 -0.0098
25135SOL    HW287465   0.897   6.822   5.418 -0.3950  0.2415  0.0191
25136SOL     OW87466   5.866   6.311   2.375 -0.4828 -0.3214 -0.0670
25136SOL    HW187467   5.769   6.336   2.370 -0.3847  0.1725  0.4556
25136SOL    HW287468   5.877   6.215   2.352 -1.1604 -0.5077  0.4044
25137SOL     OW87469   2.218   0.591   5.124 -0.0342 -0.0756  0.0845
25137SOL    HW187470   2.243   0.553   5.213 -0.2001  0.0754  0.1957
25137SOL    HW287471   2.134   0.644   5.133  0.1944  0.3184 -0.0687
25138SOL     OW87472   7.839   2.271   5.282 -0.4682  0.6336 -0.4674
25138SOL    HW187473   7.830   2.371   5.275 -2.0053  0.5256 -0.2182
25138SOL    HW287474   7.840   2.245   5.379  1.2976  0.5000 -0.4980
25139SOL     OW87475   2.695   3.836   1.523 -0.3196 -0.2154  0.4695
25139SOL    HW187476   2.738   3.926   1.526  2.3875 -1.4598  0.0074
25139SOL    HW287477   2.717   3.792   1.436  0.2865 -2.2552  1.6367
25140SOL     OW87478   0.883   2.480   8.871  0.1231  0.5709 -0.2870
25140SOL    HW187479   0.860   2.511   8.963  1.1232  1.1046 -0.2026
25140SOL    HW287480   0.969   2.428   8.874  0.2177  0.6834 -0.9320
25141SOL     OW87481   1.446   5.218   2.426 -0.8722  0.5843 -0.3251
25141SOL    HW187482   1.518   5.148   2.428 -2.1196 -0.6939  2.5728
25141SOL    HW287483   1.358   5.175   2.405 -1.5889  1.3122  1.1251
25142SOL     OW87484   1.529   3.236   4.962  0.1192 -0.4339 -0.2463
25142SOL    HW187485   1.440   3.217   4.920  0.5390 -1.4265 -0.7226
25142SOL    HW287486   1.596   3.172   4.926  1.1037  0.5321 -0.1397
25143SOL     OW87487   9.586   9.967   4.626  0.1059  0.1972  0.1732
25143SOL    HW187488   9.598  10.057   4.586  0.0848  0.2825  0.3558
25143SOL    HW287489   9.642   9.900   4.577 -1.8685 -0.1715 -1.6225
25144SOL     OW87490   9.489   1.422   6.670  0.3897 -0.4707  0.2368
25144SOL    HW187491   9.519   1.487   6.601  1.6636  0.5116  1.6856
25144SOL    HW287492   9.558   1.351   6.681 -0.0916 -0.9650  0.0658
25145SOL     OW87493   3.143   3.182   0.603  0.3993 -0.5020  0.9349
25145SOL    HW187494   3.066   3.229   0.560 -0.4315 -0.9234  1.9243
25145SOL    HW287495   3.151   3.090   0.565  2.2364  0.5197 -1.2436
25146SOL     OW87496   3.183   3.604   0.782  0.3918 -0.1390  0.4260
25146SOL    HW187497   3.193   3.505   0.776  1.6312  0.0403 -0.7499
25146SOL    HW287498   3.133   3.638   0.701 -0.4786  0.1482  1.0725
25147SOL     OW87499   7.434   1.688   3.532  0.3399  0.0948 -0.0228
25147SOL    HW187500   7.494   1.657   3.458  1.2833 -2.4515  1.7339
25147SOL    HW287501   7.489   1.714   3.611 -0.7727 -1.0772  1.1683
25148SOL     OW87502   2.424   9.762   8.521 -0.7182  0.5096  0.0690
25148SOL    HW187503   2.362   9.698   8.568 -0.7311  0.9748  0.6976
25148SOL    HW287504   2.444   9.839   8.582  0.0379  0.6403 -0.3431
25149SOL     OW87505   1.925   0.200   9.522  0.1463  0.1422 -0.4822
25149SOL    HW187506   1.999   0.231   9.581 -0.8792  0.4313  0.6789
25149SOL    HW287507   1.959   0.131   9.459  1.2967 -0.0389  0.3281
25150SOL     OW87508   1.435   6.255   9.332  0.0563  0.0988 -0.0939
25150SOL    HW187509   1.409   6.238   9.237 -2.3033  0.8193  0.3897
25150SOL    HW287510   1.465   6.169   9.374 -2.2577 -0.9477 -0.5090
25151SOL     OW87511   0.236   8.594   5.422  0.0303  0.0013 -0.0527
25151SOL    HW187512   0.165   8.525   5.405 -0.9967  1.0481 -0.1018
25151SOL    HW287513   0.193   8.677   5.459  1.3625  0.2855  0.8701
25152SOL     OW87514   5.115   7.777   3.979  0.3712 -0.6924 -0.4085
25152SOL    HW187515   5.026   7.744   4.010  0.3714 -2.1587 -1.9024
25152SOL    HW287516   5.166   7.702   3.937  1.6893  0.4896 -0.9784
25153SOL     OW87517   9.702   9.808   5.488  0.2194  0.5865 -0.6965
25153SOL    HW187518   9.647   9.877   5.441 -1.2379  0.3018  0.5559
25153SOL    HW287519   9.700   9.722   5.436 -1.2147  0.3327 -0.2547
25154SOL     OW87520   2.535   2.124   3.914 -0.0470  0.2511 -0.0380
25154SOL    HW187521   2.478   2.117   3.996 -0.9406  1.6581 -0.5275
25154SOL    HW287522   2.494   2.189   3.850  1.0787 -0.2112 -1.2519
25155SOL     OW87523   2.680   6.553   1.788 -0.0329 -0.0398  0.8030
25155SOL    HW187524   2.779   6.566   1.795  0.1761 -0.7546 -0.4620
25155SOL    HW287525   2.658   6.523   1.695 -1.3233 -0.8515  1.3581
25156SOL     OW87526   6.793   2.565   3.919 -0.2255  0.1306 -0.0309
25156SOL    HW187527   6.751   2.485   3.962 -1.9971  0.7786 -0.5103
25156SOL    HW287528   6.810   2.545   3.823 -0.0723  0.1127 -0.0001
25157SOL     OW87529   8.705   4.620  10.065  0.2102 -0.0913  0.0891
25157SOL    HW187530   8.742   4.527  10.071 -2.5069 -1.1394  1.5597
25157SOL    HW287531   8.743   4.676  10.139  0.8084 -0.4357  0.0422
25158SOL     OW87532   1.420   9.409   9.893  0.1272  0.4332  0.0500
25158SOL    HW187533   1.367   9.458   9.963 -1.1304  1.1619 -1.3668
25158SOL    HW287534   1.516   9.433   9.902  0.2929 -1.0539  2.7950
25159SOL     OW87535   9.516   6.987   1.011 -0.1537  0.1665  0.2473
25159SOL    HW187536   9.611   6.981   0.980 -0.6529 -0.0220 -1.3245
25159SOL    HW287537   9.487   7.082   1.013  0.4826  0.3331  2.0729
25160SOL     OW87538   9.844   2.022   7.111  0.0566 -0.2954 -0.0597
25160SOL    HW187539   9.809   2.055   7.199  0.5255  0.8517 -0.2818
25160SOL    HW287540   9.768   1.989   7.055 -0.5377  1.0690 -0.0864
25161SOL     OW87541   4.098   6.684   4.634  0.1572  0.9362  0.1584
25161SOL    HW187542   4.005   6.652   4.653  0.8864 -0.8181  0.9230
25161SOL    HW287543   4.146   6.617   4.577  1.7312  0.6109  1.8055
25162SOL     OW87544   2.485   3.346   6.823  0.1631  0.1654 -0.3314
25162SOL    HW187545   2.506   3.286   6.745 -1.1281 -2.4529  1.2703
25162SOL    HW287546   2.432   3.424   6.791  1.5959  0.3366 -2.4236
25163SOL     OW87547   5.894   7.372   3.372 -0.3000 -0.4617  0.1962
25163SOL    HW187548   5.917   7.465   3.400  0.5544 -1.2583  2.2027
25163SOL    HW287549   5.794   7.361   3.373 -0.6107  1.3540 -3.1924
25164SOL     OW87550   1.684   7.549   7.879 -0.5037 -0.5557  0.3078
25164SOL    HW187551   1.781   7.570   7.887 -0.4182  0.0785 -2.0054
25164SOL    HW287552   1.631   7.620   7.925  0.0675  0.1151 -0.0522
25165SOL     OW87553   8.284   9.977   8.493 -0.1117  0.8897  0.1145
25165SOL    HW187554   8.354  10.043   8.464 -1.3665  2.7650  1.2198
25165SOL    HW287555   8.221   9.960   8.417  1.0155 -0.1404 -0.6107
25166SOL     OW87556   8.758   6.795   0.151 -0.0274 -0.0594  0.2936
25166SOL    HW187557   8.758   6.719   0.216 -1.4953 -0.8540 -0.5996
25166SOL    HW287558   8.720   6.764   0.064 -1.8347  1.9961  0.2921
25167SOL     OW87559   0.248   5.737   4.010  0.5167  0.1283 -0.1639
25167SOL    HW187560   0.216   5.645   4.030 -3.6267  1.6121  0.6974
25167SOL    HW287561   0.220   5.762   3.917  1.6074  0.4951 -0.3935
25168SOL     OW87562   8.577   7.206   6.637 -0.4614 -0.8299 -0.1785
25168SOL    HW187563   8.488   7.208   6.590 -0.5803 -0.5447  0.0608
25168SOL    HW287564   8.585   7.121   6.689 -0.3023 -1.1811 -0.7655
25169SOL     OW87565   0.317   2.769   0.164 -0.5552  0.1809 -0.3979
25169SOL    HW187566   0.228   2.733   0.192 -0.4057  0.4910  0.4885
25169SOL    HW287567   0.386   2.698   0.175 -0.0933  0.9949  2.2639
25170SOL     OW87568   4.932   0.272   8.359 -0.3004  0.4964  0.1990
25170SOL    HW187569   4.849   0.327   8.348 -0.5327  0.5884  2.1691
25170SOL    HW287570   4.912   0.194   8.418  0.3773 -0.9769 -1.4814
25171SOL     OW87571   2.323   0.849   1.126 -0.0942 -0.3248 -0.4006
25171SOL    HW187572   2.233   0.886   1.103  0.2178  2.1839  2.0681
25171SOL    HW287573   2.381   0.923   1.161  1.9380 -2.4330  0.8202
25172SOL     OW87574   3.123   9.629   3.652  0.6947 -0.0443 -0.7200
25172SOL    HW187575   3.104   9.690   3.728 -0.6529  0.6407 -1.5730
25172SOL    HW287576   3.221   9.607   3.650  1.2954  2.4080 -0.6199
25173SOL     OW87577   8.430   5.727   5.753  0.2022  0.4055  0.1502
25173SOL    HW187578   8.405   5.660   5.822 -0.1337  2.0214  1.6329
25173SOL    HW287579   8.434   5.818   5.794 -0.3153  1.4543 -2.0110
25174SOL     OW87580   8.668   7.872   5.251 -0.2154  0.2606  0.6381
25174SOL    HW187581   8.713   7.856   5.339 -1.7263  1.0620  1.5713
25174SOL    HW287582   8.574   7.839   5.255 -0.4805  0.8591 -0.4947
25175SOL     OW87583   2.611   5.830   2.498  0.2445  0.5333 -0.1453
25175SOL    HW187584   2.674   5.771   2.448 -0.5129 -0.1691 -0.2800
25175SOL    HW287585   2.663   5.886   2.562  1.1513  0.9650 -1.2320
25176SOL     OW87586   1.253   9.797   8.941  0.1086 -0.2088  0.0965
25176SOL    HW187587   1.173   9.737   8.945 -0.5149  0.4927 -1.6482
25176SOL    HW287588   1.233   9.882   8.988  0.1590 -0.3950  0.4603
25177SOL     OW87589   8.397   1.503   2.459 -0.3692 -0.0836  0.1562
25177SOL    HW187590   8.444   1.564   2.396  0.6004  0.9855  1.8530
25177SOL    HW287591   8.445   1.502   2.547 -1.1694 -2.2143  0.6186
25178SOL     OW87592   7.316   9.591   8.448 -0.0282  0.2690  0.3040
25178SOL    HW187593   7.281   9.592   8.354  2.9937 -0.9207 -0.9160
25178SOL    HW287594   7.332   9.684   8.479 -0.8497  0.6638 -0.4378
25179SOL     OW87595   3.286   8.898   8.370 -0.2679 -0.3990 -0.1763
25179SOL    HW187596   3.344   8.968   8.329  1.3992 -1.1791  0.8024
25179SOL    HW287597   3.228   8.940   8.440  0.6605  0.0135  0.3482
25180SOL     OW87598   0.221   7.931   0.884 -0.1781  0.0047 -0.0588
25180SOL    HW187599   0.309   7.907   0.844  0.9193  0.7566  1.8597
25180SOL    HW287600   0.223   8.026   0.916 -1.8703  0.2092 -0.4837
25181SOL     OW87601   2.136   5.855   0.117 -0.9143  0.1742 -0.4221
25181SOL    HW187602   2.206   5.924   0.101 -1.7278  0.8077 -1.2674
25181SOL    HW287603   2.111   5.811   0.031  0.4479 -2.0347  0.2610
25182SOL     OW87604   0.170   3.657   7.997 -0.3878 -0.1123  0.7327
25182SOL    HW187605   0.181   3.734   7.935 -1.9176  0.5281  1.2209
25182SOL    HW287606   0.245   3.657   8.064  0.2012  0.3205  0.0802
25183SOL     OW87607   5.401   9.058   8.855  0.2218  0.4287  0.3372
25183SOL    HW187608   5.499   9.067   8.873  0.5707 -1.4869 -0.5089
25183SOL    HW287609   5.354   9.027   8.937  0.6980 -1.0279  0.0655
25184SOL     OW87610   9.167   1.449   4.471 -0.6972  0.1250 -0.1307
25184SOL    HW187611   9.254   1.492   4.450 -0.8222  0.5825  0.2650
25184SOL    HW287612   9.093   1.514   4.454 -1.0154 -0.4889 -1.1291
25185SOL     OW87613   0.958   1.781   0.963  0.8779  0.3582  0.5986
25185SOL    HW187614   0.890   1.792   0.890  0.8368  0.0536  0.5906
25185SOL    HW287615   0.913   1.790   1.052  0.6677 -0.7035  0.6078
25186SOL     OW87616   3.887   7.967   3.152 -0.5505  0.3443  0.1674
25186SOL    HW187617   3.842   7.879   3.140  0.6934 -0.3930  0.7787
25186SOL    HW287618   3.933   7.992   3.066  0.7234 -0.5523  0.5725
25187SOL     OW87619   9.358   1.941   2.023  0.1954  0.0988  0.2115
25187SOL    HW187620   9.422   1.993   1.967  1.9992 -3.7719 -1.4882
25187SOL    HW287621   9.293   1.894   1.964 -0.7629 -0.3913  1.6378
25188SOL     OW87622   7.240   7.890   4.134 -0.3576  0.3807 -0.3305
25188SOL    HW187623   7.168   7.830   4.099  0.9021 -1.0533 -0.5162
25188SOL    HW287624   7.203   7.981   4.149 -2.4321 -0.5429  0.3769
25189SOL     OW87625   6.731   9.133   5.983  0.3008 -0.1050 -0.4651
25189SOL    HW187626   6.678   9.218   5.985  0.8141  0.2153 -0.5183
25189SOL    HW287627   6.678   9.062   5.935 -0.6899 -0.2081  0.7339
25190SOL     OW87628   5.673   8.557   7.881 -0.1183 -0.3242  0.1878
25190SOL    HW187629   5.661   8.656   7.883  1.7426 -0.0728  0.1135
25190SOL    HW287630   5.628   8.519   7.800  1.3638  0.8039 -1.2054
25191SOL     OW87631   1.566   9.566   3.849  0.0146  0.2192  0.4496
25191SOL    HW187632   1.645   9.620   3.819 -0.1848  0.8751  1.0884
25191SOL    HW287633   1.486   9.625   3.854 -0.8854 -0.7765 -1.7213
25192SOL     OW87634   7.973   5.250   7.272 -0.6778 -0.4478  0.4123
25192SOL    HW187635   7.966   5.164   7.323 -0.3583 -0.3576  0.6132
25192SOL    HW287636   8.023   5.233   7.187 -1.1189 -0.5774  0.1768
25193SOL     OW87637   9.445   9.758   1.675  0.0038 -0.1307  0.0084
25193SOL    HW187638   9.543   9.757   1.693  0.1923 -0.2123 -1.0112
25193SOL    HW287639   9.398   9.803   1.751  0.8930  0.5720  0.1531
25194SOL     OW87640   3.319   9.564   7.110  1.5521  0.0589 -0.1503
25194SOL    HW187641   3.418   9.555   7.122  1.5645 -1.3657 -1.1855
25194SOL    HW287642   3.297   9.561   7.012  0.5317  0.9715  0.0390
25195SOL     OW87643   4.778   0.340   3.972 -0.3376 -0.4075 -0.3583
25195SOL    HW187644   4.840   0.263   3.958  0.5655  0.0387  1.1055
25195SOL    HW287645   4.809   0.418   3.920 -0.9581 -0.8656 -1.4276
25196SOL     OW87646   7.207   0.121   7.279  0.1895 -0.7568 -0.8669
25196SOL    HW187647   7.136   0.164   7.223 -0.9950 -1.1685  0.2604
25196SOL    HW287648   7.215   0.025   7.255 -0.0393 -0.8418 -0.6059
25197SOL     OW87649   9.743   3.034   5.550  0.1565 -0.2363  0.0676
25197SOL    HW187650   9.711   2.970   5.620  0.2827  0.1856  0.5162
25197SOL    HW287651   9.677   3.038   5.475  0.9055 -2.1031 -0.7411
25198SOL     OW87652   1.524   4.911   5.615  0.0704  0.1073  0.0754
25198SOL    HW187653   1.597   4.973   5.642  2.1006 -2.3435  0.4283
25198SOL    HW287654   1.504   4.925   5.518 -1.0064  2.7566  0.6495
25199SOL     OW87655   9.924   9.340   7.917 -0.0517 -0.2530  0.5428
25199SOL    HW187656   9.833   9.297   7.922  0.1010 -0.6300  0.1154
25199SOL    HW287657   9.988   9.287   7.973  0.4459 -1.3787 -1.0809
25200SOL     OW87658   7.846   7.658   5.037 -0.1447 -0.2460  0.0489
25200SOL    HW187659   7.906   7.608   4.974 -0.5120  1.2389 -1.5353
25200SOL    HW287660   7.897   7.734   5.078 -0.8503  0.9403 -1.2024
25201SOL     OW87661   8.597   8.086   0.994 -0.4953 -0.2046 -0.1817
25201SOL    HW187662   8.679   8.098   1.048  2.0229  0.8067 -3.9939
25201SOL    HW287663   8.570   8.174   0.954 -2.9999 -0.6713  0.3760
25202SOL     OW87664   2.822   4.455   6.355 -0.2880 -0.8107  0.1679
25202SOL    HW187665   2.782   4.496   6.273 -0.8805  0.4190  1.0462
25202SOL    HW287666   2.832   4.525   6.426  1.3172 -1.5981  0.7549
25203SOL     OW87667   0.882   7.645   6.798 -0.0178 -0.2928  0.0134
25203SOL    HW187668   0.789   7.683   6.796 -0.6104 -1.7435 -0.4026
25203SOL    HW287669   0.917   7.649   6.892 -0.5734  0.0519  0.2093
25204SOL     OW87670   3.220   7.851   5.920  0.1363  0.7021  0.0709
25204SOL    HW187671   3.240   7.949   5.913  1.2187  0.4077 -1.0966
25204SOL    HW287672   3.297   7.798   5.884 -0.2936 -0.5910  1.0194
25205SOL     OW87673   7.142   3.808   9.272 -0.1298 -0.0705 -0.3430
25205SOL    HW187674   7.067   3.849   9.220 -0.8752  0.3959  1.0436
25205SOL    HW287675   7.230   3.840   9.236 -0.6128 -0.0944 -1.5587
25206SOL     OW87676   9.499   1.863   8.767  0.1710 -1.0834 -0.2027
25206SOL    HW187677   9.462   1.949   8.734  0.9914 -0.3800  0.6967
25206SOL    HW287678   9.585   1.843   8.721 -0.0824 -1.4846 -0.5017
25207SOL     OW87679   8.076   0.914   8.721 -0.2524  0.1297  0.2062
25207SOL    HW187680   8.166   0.883   8.751  0.0729  0.5944 -0.2832
25207SOL    HW287681   8.046   0.860   8.643 -1.0962 -1.0713  1.3232
25208SOL     OW87682   7.982   5.108   6.490 -0.2544 -0.0754  0.4356
25208SOL    HW187683   8.073   5.092   6.528  0.3338  0.0767 -0.8578
25208SOL    HW287684   7.934   5.176   6.545  0.0525 -0.8731  1.6848
25209SOL     OW87685   9.955   7.920   1.717 -0.1123 -0.1318 -0.5394
25209SOL    HW187686   9.920   7.973   1.640 -1.3452 -1.2803 -0.7843
25209SOL    HW287687  10.055   7.912   1.709 -0.0990  0.7698 -1.3636
25210SOL     OW87688   7.785   4.548   4.632 -0.0835  0.3593  0.0196
25210SOL    HW187689   7.829   4.622   4.581 -2.2873  1.2248 -0.6943
25210SOL    HW287690   7.804   4.559   4.729 -1.7541  2.8857  0.1213
25211SOL     OW87691   7.339   4.489   0.706  0.8254 -0.5563 -0.1297
25211SOL    HW187692   7.375   4.561   0.647 -0.7036  0.0620 -0.3224
25211SOL    HW287693   7.415   4.445   0.755  1.8025  0.8867 -0.3178
25212SOL     OW87694   6.137   6.588   0.758  0.1213  0.3258 -0.0517
25212SOL    HW187695   6.160   6.651   0.832  0.4048  1.3585 -1.0022
25212SOL    HW287696   6.219   6.570   0.703 -0.3501  0.5324 -0.8367
25213SOL     OW87697   6.589   1.624   1.367  0.2993  0.0614  0.3648
25213SOL    HW187698   6.508   1.568   1.350 -1.0385  2.3067 -0.8880
25213SOL    HW287699   6.621   1.609   1.460 -0.3246 -2.3741  0.2141
25214SOL     OW87700   5.575   1.684   0.024 -0.1429 -0.3601  0.3287
25214SOL    HW187701   5.487   1.651   0.057 -0.1627 -0.2059  0.4294
25214SOL    HW287702   5.579   1.677  -0.076 -1.5922  2.8182 -0.0180
25215SOL     OW87703   4.544   2.824   2.490 -0.1370  0.6872  0.1914
25215SOL    HW187704   4.533   2.898   2.556  0.3897  0.6710  0.3049
25215SOL    HW287705   4.464   2.764   2.492 -0.3499  0.9804  0.4462
25216SOL     OW87706   9.820   0.496   5.194  0.6737  0.5191 -0.1057
25216SOL    HW187707   9.817   0.593   5.220  0.0854  0.2803  0.7287
25216SOL    HW287708   9.743   0.448   5.235  0.8757 -0.2797 -0.6455
25217SOL     OW87709   9.514   4.611   5.259 -0.5591 -0.6359 -0.6246
25217SOL    HW187710   9.608   4.641   5.244  0.0261 -3.1533 -2.4178
25217SOL    HW287711   9.483   4.640   5.349  1.0468  2.3924 -0.9945
25218SOL     OW87712   0.461   5.061   2.941 -0.6956 -0.2835  0.0050
25218SOL    HW187713   0.415   5.048   3.028 -2.3334  0.9216 -0.6470
25218SOL    HW287714   0.411   5.014   2.869 -0.6151  0.5721 -0.6290
25219SOL     OW87715   1.965   6.653   2.735 -0.1755  0.2938 -0.0027
25219SOL    HW187716   1.898   6.727   2.740 -1.5905 -1.0272  1.1753
25219SOL    HW287717   1.918   6.565   2.744  1.8251 -0.6279  2.1490
25220SOL     OW87718   9.790   2.621   3.199  0.1514 -0.2127  0.0228
25220SOL    HW187719   9.755   2.629   3.106  1.4771  0.0557 -0.4537
25220SOL    HW287720   9.741   2.685   3.259  0.2811  0.6478 -0.7782
25221SOL     OW87721   4.853   2.645   8.955 -0.7168 -0.3946  0.3344
25221SOL    HW187722   4.918   2.663   8.881  0.8700 -1.3413  1.4603
25221SOL    HW287723   4.772   2.599   8.918 -0.3431 -0.0497 -0.9406
25222SOL     OW87724   2.975   2.070   9.924  0.1035  0.1342 -0.3536
25222SOL    HW187725   2.900   2.018   9.962 -0.3989  2.0556  1.3719
25222SOL    HW287726   3.062   2.033   9.958 -0.1657 -0.5449 -0.3939
25223SOL     OW87727   6.227   0.268   4.894 -0.1983  0.0375  0.0315
25223SOL    HW187728   6.267   0.306   4.810  0.6352 -0.9067 -0.0132
25223SOL    HW287729   6.180   0.183   4.872 -2.4603  1.2605  0.0549
25224SOL     OW87730   2.938   6.240   6.268 -0.1052 -0.6718 -0.2565
25224SOL    HW187731   2.995   6.200   6.197  1.3709  0.4331  0.2733
25224SOL    HW287732   2.847   6.259   6.232  0.1448 -1.5981 -1.3843
25225SOL     OW87733   7.590   1.452   0.831 -0.7933 -0.1147 -0.4279
25225SOL    HW187734   7.674   1.433   0.882 -0.4628  1.8482 -0.2168
25225SOL    HW287735   7.613   1.483   0.739 -1.2585  1.1230 -0.1353
25226SOL     OW87736   1.082   3.047   3.565  0.4392  0.1037 -0.4976
25226SOL    HW187737   1.003   3.080   3.514  0.6658  0.8343 -0.3893
25226SOL    HW287738   1.072   3.072   3.661  1.6955  1.8987 -0.8105
25227SOL     OW87739   5.066   9.494   6.758 -0.3267 -0.5891  0.1401
25227SOL    HW187740   5.116   9.410   6.777  0.8659  0.7298  3.0773
25227SOL    HW287741   5.002   9.512   6.832 -1.1309  0.6981 -0.8461
25228SOL     OW87742   6.461   5.177   1.483 -0.2365 -0.2231 -0.0170
25228SOL    HW187743   6.518   5.211   1.557  0.2323 -0.7931 -0.1181
25228SOL    HW287744   6.401   5.104   1.517 -0.9247  0.3897  0.0951
25229SOL     OW87745   8.096   5.810   8.680  0.0318 -0.3016 -0.2045
25229SOL    HW187746   8.110   5.755   8.762  1.7478  0.1940 -0.1405
25229SOL    HW287747   8.082   5.906   8.706 -2.5061 -0.5952 -0.3393
25230SOL     OW87748   1.577   8.134   1.465  0.4706 -0.1888 -0.2232
25230SOL    HW187749   1.628   8.061   1.510  0.4193  0.0290  0.1894
25230SOL    HW287750   1.480   8.107   1.458  0.6113 -0.5465 -0.8938
25231SOL     OW87751   9.599   7.104  10.026 -0.1035  0.1896 -0.3554
25231SOL    HW187752   9.589   7.164  10.106 -0.1220  0.3261 -0.4596
25231SOL    HW287753   9.649   7.152   9.955  0.8763 -0.3218 -0.0177
25232SOL     OW87754   8.891   8.354   4.287 -0.6346  0.5163  0.5265
25232SOL    HW187755   8.919   8.342   4.192 -1.3329 -0.2799  0.4137
25232SOL    HW287756   8.910   8.448   4.316  0.9251  0.3511  0.0618
25233SOL     OW87757   0.108   7.376   2.492 -0.0536  0.2470 -0.4135
25233SOL    HW187758   0.171   7.454   2.501 -0.1192  0.1706  0.8054
25233SOL    HW287759   0.160   7.292   2.480  0.0833  0.2124  0.3789
25234SOL     OW87760   6.785   0.763   7.247  0.5686  0.0216 -0.2847
25234SOL    HW187761   6.841   0.833   7.291 -0.8252  0.9019  0.1056
25234SOL    HW287762   6.693   0.764   7.286 -0.0122 -0.7534 -1.5940
25235SOL     OW87763   4.917   0.728   3.690 -0.2113  0.2932 -0.3052
25235SOL    HW187764   4.979   0.793   3.647 -0.6121 -0.0446 -1.4072
25235SOL    HW287765   4.835   0.776   3.722  0.7967  0.8171  1.5658
25236SOL     OW87766   9.445   7.442   9.252  0.4181 -0.0366 -0.3930
25236SOL    HW187767   9.530   7.493   9.266  1.2128 -0.8453 -2.0724
25236SOL    HW287768   9.439   7.368   9.319 -0.4830  1.8774  1.7118
25237SOL     OW87769   5.880   6.765   1.998  0.6665  0.5238 -0.4460
25237SOL    HW187770   5.903   6.734   1.906 -0.3706 -0.1694 -0.4759
25237SOL    HW287771   5.925   6.707   2.066  0.1430  0.0503 -0.5066
25238SOL     OW87772   8.740   2.901   9.513  0.3088 -0.2474 -0.1657
25238SOL    HW187773   8.788   2.851   9.440 -0.5727  1.2161 -1.7841
25238SOL    HW287774   8.803   2.967   9.554  0.3411  0.1083 -0.7692
25239SOL     OW87775   3.304   4.916   2.171  0.2637  0.1476 -0.0027
25239SOL    HW187776   3.356   4.876   2.095  0.8353  1.1893 -0.1752
25239SOL    HW287777   3.357   4.907   2.255 -0.5026 -1.2821  0.3435
25240SOL     OW87778   1.181   0.171   1.699 -0.0276  0.6166 -0.0082
25240SOL    HW187779   1.214   0.223   1.621 -1.1080  1.7933  0.3049
25240SOL    HW287780   1.167   0.233   1.777 -1.5013 -0.0948  0.3085
25241SOL     OW87781   2.966   7.152   3.931 -0.1195 -0.1281  0.5899
25241SOL    HW187782   2.890   7.125   3.872  0.3305  0.9299 -0.4884
25241SOL    HW287783   3.047   7.099   3.906  0.3442  1.0396 -0.4657
25242SOL     OW87784   5.123   3.543   8.263  0.0875  0.3225  0.0529
25242SOL    HW187785   5.150   3.630   8.304  0.4150 -0.0600  0.6494
25242SOL    HW287786   5.174   3.528   8.179  0.7763  0.2330  0.4793
25243SOL     OW87787   9.922   9.038   0.076  0.0437 -0.4328  0.2196
25243SOL    HW187788   9.925   9.136   0.094 -1.6388 -0.1408 -1.0412
25243SOL    HW287789  10.016   9.004   0.063  0.5030  1.4122 -1.5066
25244SOL     OW87790   0.372   0.355   3.293  0.0295  0.3324  0.3948
25244SOL    HW187791   0.371   0.415   3.372  1.2853  0.2395  0.4965
25244SOL    HW287792   0.344   0.406   3.212  1.1772  1.0876  0.4617
25245SOL     OW87793   6.537   1.143   3.278 -0.0271  0.8797 -0.9850
25245SOL    HW187794   6.593   1.061   3.288 -0.6402  0.6314  0.5928
25245SOL    HW287795   6.595   1.223   3.271  0.5323  0.5619  0.0055
25246SOL     OW87796   0.682   2.555   0.871 -0.3582 -0.0527  0.1859
25246SOL    HW187797   0.582   2.551   0.866 -0.4269  1.4814  0.1806
25246SOL    HW287798   0.713   2.501   0.949 -1.0665 -1.9848 -0.8403
25247SOL     OW87799   3.617   1.214   2.549  0.7351  0.1373  0.2591
25247SOL    HW187800   3.533   1.265   2.564 -0.5741 -1.8644  0.0116
25247SOL    HW287801   3.685   1.240   2.617 -0.0603  1.8095  0.4408
25248SOL     OW87802   6.593   8.685   5.207 -0.0805 -0.5774 -0.0934
25248SOL    HW187803   6.675   8.652   5.254 -1.3140 -0.9159  1.8941
25248SOL    HW287804   6.553   8.760   5.260 -0.4372  0.3416 -1.6433
25249SOL     OW87805   4.084   9.644   9.557 -0.7853  0.2979 -0.0947
25249SOL    HW187806   4.112   9.738   9.537 -0.7675  0.3530  0.1770
25249SOL    HW287807   4.099   9.586   9.477  1.4223  0.0210  0.4945
25250SOL     OW87808   9.328   9.728   0.739  0.2159  0.3199 -0.2413
25250SOL    HW187809   9.319   9.804   0.674 -0.9369  0.7926  0.4512
25250SOL    HW287810   9.423   9.721   0.769  0.4501  1.1062 -0.7800
25251SOL     OW87811   8.380   7.006   4.362  0.2440 -0.2202  0.3725
25251SOL    HW187812   8.291   7.045   4.337  0.0603  0.0404  1.4243
25251SOL    HW287813   8.378   6.978   4.458  1.6967  0.8959  0.7459
25252SOL     OW87814   9.737   2.454   1.783 -0.3534  0.1744 -0.0724
25252SOL    HW187815   9.703   2.462   1.690 -2.9495 -2.5231  0.5875
25252SOL    HW287816   9.823   2.402   1.783 -1.3788 -1.5422 -0.7673
25253SOL     OW87817   2.760   6.003   2.648  0.4308 -0.1739  0.0787
25253SOL    HW187818   2.804   6.093   2.653 -0.3842  0.2345  0.0339
25253SOL    HW287819   2.830   5.932   2.641  1.1064  0.3836  1.1246
25254SOL     OW87820   5.361   8.198   3.844 -0.1815  0.0965  0.1953
25254SOL    HW187821   5.407   8.265   3.904 -1.1107  1.1289 -0.2305
25254SOL    HW287822   5.268   8.184   3.875  0.1195 -1.3015  0.4968
25255SOL     OW87823   4.775   9.271   3.992  0.0866 -0.3100 -0.1100
25255SOL    HW187824   4.775   9.227   3.902  0.0626  1.4511 -1.0097
25255SOL    HW287825   4.793   9.369   3.980 -0.9648  0.1216  1.7086
25256SOL     OW87826   0.146   7.031   1.450  0.1436 -0.1573  0.0864
25256SOL    HW187827   0.233   7.014   1.404  0.0095 -2.1296  0.5174
25256SOL    HW287828   0.158   7.100   1.521  1.2776 -0.1546 -0.1049
25257SOL     OW87829   2.174   6.071   5.410 -0.2653 -0.0810 -0.2082
25257SOL    HW187830   2.145   6.166   5.404 -0.7052 -0.0870  1.4703
25257SOL    HW287831   2.093   6.012   5.421 -0.0430 -0.7187 -1.8123
25258SOL     OW87832   1.132   8.352   6.478  0.3389  0.2163  0.0135
25258SOL    HW187833   1.071   8.387   6.549  0.6227  0.3647  0.1899
25258SOL    HW287834   1.100   8.383   6.388 -0.4975 -0.6750 -0.0001
25259SOL     OW87835   7.722   4.897   4.666 -0.2364  0.4189 -0.0240
25259SOL    HW187836   7.638   4.869   4.618 -0.3613  0.4000  0.2052
25259SOL    HW287837   7.799   4.843   4.633 -0.7007 -1.0848  1.3383
25260SOL     OW87838   8.614   5.983   4.985  0.5264  0.4150  0.0895
25260SOL    HW187839   8.565   5.954   5.067 -0.0027  1.9707  0.3423
25260SOL    HW287840   8.703   5.938   4.982 -0.4126 -1.5033  0.2626
25261SOL     OW87841   7.618   4.193   0.598 -0.1147  0.3852  0.3766
25261SOL    HW187842   7.579   4.139   0.673  2.1665 -0.3349  1.0931
25261SOL    HW287843   7.587   4.157   0.511  0.1093 -1.1056  0.8995
25262SOL     OW87844   8.200   5.730   7.610  1.0146  0.3245  0.3609
25262SOL    HW187845   8.223   5.636   7.632  0.6551  0.3567  0.8587
25262SOL    HW287846   8.104   5.748   7.630  0.8265  0.5156 -0.6773
25263SOL     OW87847   2.059   9.142   1.965 -0.4061  0.0783  0.3713
25263SOL    HW187848   2.034   9.196   2.046 -0.9594  1.1598 -0.5018
25263SOL    HW287849   2.116   9.199   1.904 -2.1517  0.1550 -1.2193
25264SOL     OW87850   8.836   1.687   2.053  0.2071 -0.4514 -0.1407
25264SOL    HW187851   8.913   1.750   2.044 -0.0824 -0.3009 -1.7213
25264SOL    HW287852   8.754   1.738   2.076  0.3239 -0.4589  0.2946
25265SOL     OW87853   3.023   7.270   0.474  0.1987 -0.1361 -0.1763
25265SOL    HW187854   3.045   7.339   0.543 -1.6384  0.1992  0.1230
25265SOL    HW287855   3.087   7.277   0.398  3.5004 -1.8467  2.3541
25266SOL     OW87856   0.963   8.120   0.855 -0.4473 -0.2181 -0.2757
25266SOL    HW187857   1.003   8.212   0.855  2.4302 -1.4188  0.1358
25266SOL    HW287858   0.943   8.092   0.949 -0.0031 -0.5685 -0.2865
25267SOL     OW87859   3.086   3.252   1.963  0.0831  0.6036 -0.1452
25267SOL    HW187860   3.130   3.190   2.028 -0.8198 -1.6918 -1.6931
25267SOL    HW287861   3.154   3.311   1.922  0.9307  0.7919  1.4776
25268SOL     OW87862   4.766   9.322   9.369 -0.3172  0.3298  0.7068
25268SOL    HW187863   4.834   9.383   9.408 -0.2007 -0.1384  1.2462
25268SOL    HW287864   4.779   9.317   9.270  2.2892 -1.9402  1.0869
25269SOL     OW87865   8.465   4.773   1.830 -0.0362  0.4927  0.4529
25269SOL    HW187866   8.378   4.782   1.880 -0.4704 -0.6828 -0.0846
25269SOL    HW287867   8.459   4.826   1.745 -1.2184 -1.7217 -0.8805
25270SOL     OW87868   4.172   1.844   2.227  0.2136  0.2750 -0.2119
25270SOL    HW187869   4.202   1.817   2.136  0.4965 -0.1709  0.0126
25270SOL    HW287870   4.235   1.808   2.295  0.5469  1.4271  0.1041
25271SOL     OW87871   7.394   6.865   6.034 -0.3952  0.2195 -0.3093
25271SOL    HW187872   7.442   6.952   6.044  1.1331 -0.7627  1.2692
25271SOL    HW287873   7.316   6.863   6.095 -0.4894  0.5225 -0.4188
25272SOL     OW87874   7.801   9.559   9.657 -0.7049  0.5620  0.3051
25272SOL    HW187875   7.797   9.614   9.573  0.2233  0.1131 -0.0414
25272SOL    HW287876   7.740   9.480   9.648 -0.9002  0.7221  0.2079
25273SOL     OW87877   7.620   2.023   4.027  0.1586 -0.2775  0.1348
25273SOL    HW187878   7.651   2.079   4.104 -0.8641 -1.1630  1.2194
25273SOL    HW287879   7.524   1.998   4.041  0.8099 -2.9404  0.0826
25274SOL     OW87880   3.855   3.801   6.905 -0.3283  0.0817 -0.5284
25274SOL    HW187881   3.905   3.728   6.858  0.5367  0.1929  0.2129
25274SOL    HW287882   3.767   3.814   6.860 -0.0507 -0.6938 -1.3269
25275SOL     OW87883   2.276   4.828   6.745 -0.1471  0.7261 -0.5175
25275SOL    HW187884   2.321   4.740   6.728 -1.7139 -0.1526 -0.1808
25275SOL    HW287885   2.325   4.900   6.696  1.1499 -0.3239 -0.8046
25276SOL     OW87886   8.996   7.851   2.029  0.1192  0.2105 -0.0975
25276SOL    HW187887   8.903   7.881   2.009  0.1928  0.3166 -0.2813
25276SOL    HW287888   8.998   7.806   2.118  0.2533  1.9102  0.7674
25277SOL     OW87889   3.291   5.907   1.474  0.2897 -0.2942  0.5091
25277SOL    HW187890   3.221   5.895   1.545 -1.1564 -0.5432 -0.9391
25277SOL    HW287891   3.257   5.970   1.404  1.7846  0.1070  0.1360
25278SOL     OW87892   8.737   1.326   0.478  0.6586  0.0904 -0.3305
25278SOL    HW187893   8.833   1.344   0.499  0.2712  0.0327  1.5893
25278SOL    HW287894   8.706   1.246   0.529 -0.7991  0.9739  0.2098
25279SOL     OW87895   7.113   3.825   1.929 -0.3170 -0.2956  1.0415
25279SOL    HW187896   7.153   3.738   1.900  0.7148  0.8025 -0.9104
25279SOL    HW287897   7.177   3.872   1.989 -0.7034 -0.6540  1.7564
25280SOL     OW87898   9.381   7.858   0.377  0.4395  0.2642  0.6604
25280SOL    HW187899   9.285   7.857   0.347  0.5908 -1.6338  0.1427
25280SOL    HW287900   9.419   7.949   0.363 -0.9315  0.7230 -0.2875
25281SOL     OW87901   3.695   7.035   8.497 -0.0021 -0.0044 -0.1763
25281SOL    HW187902   3.748   6.999   8.421 -1.3679 -1.7532 -0.3281
25281SOL    HW287903   3.755   7.053   8.575  1.1788  0.4466 -1.1727
25282SOL     OW87904   5.163   5.610   1.046 -0.2725  0.3618  0.0361
25282SOL    HW187905   5.172   5.709   1.038 -0.0958  0.3421 -0.0135
25282SOL    HW287906   5.085   5.579   0.992  0.9859  0.2208 -1.7812
25283SOL     OW87907   6.713   5.662   1.000 -0.1374 -0.1234  0.4958
25283SOL    HW187908   6.635   5.724   0.994  0.8500  1.0035 -1.0596
25283SOL    HW287909   6.779   5.699   1.066 -0.3506 -0.4365  0.8851
25284SOL     OW87910   9.997   7.104   9.052  0.0749  0.5727 -0.0691
25284SOL    HW187911  10.052   7.055   9.120 -1.4450 -2.5438 -0.9623
25284SOL    HW287912   9.929   7.161   9.098  0.7777  0.5301  1.0261
25285SOL     OW87913   9.745   3.083   1.511 -0.5281  0.1191  0.1731
25285SOL    HW187914   9.827   3.055   1.461  0.1579  1.2363  0.6585
25285SOL    HW287915   9.670   3.020   1.490  0.4745 -0.9759 -0.1970
25286SOL     OW87916   6.624   5.835   8.018  0.3829 -0.6638 -0.0336
25286SOL    HW187917   6.532   5.869   8.037  0.3131 -1.5478  1.2337
25286SOL    HW287918   6.665   5.801   8.102  2.2198  0.5495 -0.4120
25287SOL     OW87919   1.766   0.759   7.306  0.0818  0.1027  0.2111
25287SOL    HW187920   1.698   0.687   7.291  0.3122 -0.3003  1.0947
25287SOL    HW287921   1.760   0.825   7.231 -2.6541  1.1790  1.3218
25288SOL     OW87922   4.926   5.394   6.667 -0.0462  0.2113  0.5053
25288SOL    HW187923   4.844   5.377   6.613  0.0353  1.1540  0.0890
25288SOL    HW287924   4.972   5.476   6.634  1.5818 -0.8185  0.1227
25289SOL     OW87925   1.237   2.885   7.027 -0.0243 -0.1402 -0.1110
25289SOL    HW187926   1.246   2.785   7.027 -1.4062 -0.2723 -0.5853
25289SOL    HW287927   1.301   2.923   6.961  1.0764 -0.6427  0.6333
25290SOL     OW87928   9.966   1.251   4.821  0.3453  0.1868  0.1368
25290SOL    HW187929   9.973   1.337   4.872  0.4667  0.5822 -0.5423
25290SOL    HW287930  10.058   1.217   4.801  0.3002  0.8909 -1.2622
25291SOL     OW87931   4.629   9.233   0.026 -0.4108  0.4903  0.0993
25291SOL    HW187932   4.723   9.203   0.016  0.6720  3.6414  0.1517
25291SOL    HW287933   4.602   9.229   0.122 -0.3449 -0.4516  0.0774
25292SOL     OW87934   7.901   5.271   4.559 -0.1862 -0.3825 -0.5707
25292SOL    HW187935   7.875   5.303   4.468  0.9878 -1.0448 -1.1482
25292SOL    HW287936   7.983   5.214   4.552 -0.9664 -1.6894  0.7115
25293SOL     OW87937   5.555   0.403   6.337 -0.0881 -0.3391 -0.0441
25293SOL    HW187938   5.614   0.339   6.287 -0.6859 -1.1560  0.2836
25293SOL    HW287939   5.482   0.352   6.382 -1.3222  0.7135 -0.8196
25294SOL     OW87940   5.013   5.987   0.336  0.1399 -0.5579 -0.2671
25294SOL    HW187941   4.942   6.013   0.402  0.1343 -1.4535  0.0855
25294SOL    HW287942   5.004   6.042   0.253 -1.6224 -1.3970 -0.6407
25295SOL     OW87943   7.800   2.694   3.253 -0.9235  0.1011  0.9244
25295SOL    HW187944   7.892   2.677   3.216 -2.0604 -0.1642 -1.9674
25295SOL    HW287945   7.769   2.785   3.223 -1.3118  0.5206  2.5572
25296SOL     OW87946   1.550   3.572   9.955  0.1049 -0.3140  0.0133
25296SOL    HW187947   1.489   3.495   9.974  0.5795 -0.6013  0.3879
25296SOL    HW287948   1.600   3.555   9.870  0.2638 -0.4578  0.1348
25297SOL     OW87949   7.720   5.557   9.907  0.2307  0.0232 -0.1401
25297SOL    HW187950   7.793   5.507   9.955 -0.6221  1.0522  2.3130
25297SOL    HW287951   7.759   5.636   9.860  0.7896  0.2750  0.7354
25298SOL     OW87952   0.617   0.734   8.715 -0.4965  0.0482  1.0177
25298SOL    HW187953   0.716   0.722   8.720 -0.5224 -0.3072  0.6727
25298SOL    HW287954   0.576   0.706   8.802 -0.3006  0.1040  1.1271
25299SOL     OW87955   9.308   9.019   5.602  0.0935 -0.2459 -0.6973
25299SOL    HW187956   9.395   8.977   5.574 -0.7856 -1.0264 -2.3173
25299SOL    HW287957   9.281   9.088   5.535  0.1127  0.9555  0.5025
25300SOL     OW87958   3.785   5.306   2.898  0.3723 -0.5342 -0.1921
25300SOL    HW187959   3.786   5.405   2.883 -0.4593 -0.3285  1.0753
25300SOL    HW287960   3.700   5.268   2.863  0.4473 -0.7314 -0.1604
25301SOL     OW87961   8.180   2.253   6.542 -0.6774 -0.3046 -0.1768
25301SOL    HW187962   8.125   2.269   6.623  2.2235  1.3838  1.5268
25301SOL    HW287963   8.270   2.220   6.568  0.8860  1.8233 -2.5766
25302SOL     OW87964   8.492   4.238   0.807 -0.0547  0.5994 -0.0637
25302SOL    HW187965   8.501   4.186   0.723  1.2381  2.5689 -1.1809
25302SOL    HW287966   8.582   4.265   0.840 -0.4600 -1.2493  2.6846
25303SOL     OW87967   1.099   8.473   8.505  0.0078  0.1121 -0.4675
25303SOL    HW187968   1.085   8.547   8.439  0.6181 -0.0279 -0.7552
25303SOL    HW287969   1.196   8.469   8.530 -0.3048  0.4907  0.8234
25304SOL     OW87970   1.841   7.618   9.523 -0.2115 -0.3582 -0.2448
25304SOL    HW187971   1.834   7.645   9.620  2.6563  0.3691 -0.1931
25304SOL    HW287972   1.774   7.670   9.470 -1.5514 -0.4666  1.2840
25305SOL     OW87973   0.280   3.378   5.496  0.1399 -0.5146  0.0672
25305SOL    HW187974   0.281   3.470   5.458  0.8043 -0.5804 -0.0736
25305SOL    HW287975   0.237   3.381   5.587 -1.9667 -0.4543 -0.8898
25306SOL     OW87976   0.766   1.881   5.671  0.3162  0.1650 -0.1948
25306SOL    HW187977   0.793   1.897   5.576  1.2630 -1.6109 -0.2446
25306SOL    HW287978   0.719   1.792   5.678  1.9071 -0.5865  1.3048
25307SOL     OW87979   0.226   6.086   2.723  0.2663  0.1450  0.7045
25307SOL    HW187980   0.163   6.028   2.774 -0.2900 -0.5860 -0.8037
25307SOL    HW287981   0.176   6.161   2.680  0.4743 -0.2076 -0.1645
25308SOL     OW87982   3.047   9.168   7.351  0.0530 -0.0157 -0.1030
25308SOL    HW187983   3.050   9.193   7.448 -1.9202  1.9750 -0.5242
25308SOL    HW287984   2.981   9.226   7.303  0.1887 -1.7124 -2.4459
25309SOL     OW87985   9.641   5.885   7.904  0.2224 -0.4737  0.1268
25309SOL    HW187986   9.548   5.917   7.922  0.8994  2.0188 -0.6659
25309SOL    HW287987   9.642   5.833   7.819 -0.2453  0.4190 -0.4271
25310SOL     OW87988   3.015   7.586   7.216 -0.1043 -0.5434 -0.1445
25310SOL    HW187989   2.918   7.564   7.206 -0.0826 -1.0985  0.7671
25310SOL    HW287990   3.060   7.512   7.267  0.7282 -0.1271 -0.2737
25311SOL     OW87991   8.581   2.959  10.063 -0.0728  0.6111  0.1230
25311SOL    HW187992   8.500   2.911  10.029  0.4230  0.1334 -0.3966
25311SOL    HW287993   8.591   2.944  10.161 -0.5935  0.6465  0.1807
25312SOL     OW87994   1.642   3.839   2.926 -0.3926 -0.1944 -0.1773
25312SOL    HW187995   1.646   3.780   3.007 -2.3333 -1.6765 -1.1296
25312SOL    HW287996   1.633   3.783   2.844  2.4832  1.2530 -1.5493
25313SOL     OW87997   0.840   4.111   5.250 -0.8263  0.1889  0.2122
25313SOL    HW187998   0.812   4.025   5.292  0.3655  0.0130  0.6700
25313SOL    HW287999   0.833   4.185   5.318  1.5739 -0.1809  0.9004
25314SOL     OW88000   4.920   0.117   3.870 -0.7617  0.2489  0.6643
25314SOL    HW188001   4.998   0.059   3.891 -0.0028  1.4968  1.2990
25314SOL    HW288002   4.836   0.073   3.902 -0.3949 -1.2878 -0.3860
25315SOL     OW88003   2.066   3.074   2.191 -0.4793 -0.3352  0.8249
25315SOL    HW188004   2.031   3.049   2.282 -0.9654  0.1222  0.7617
25315SOL    HW288005   2.072   3.173   2.183  1.7608 -0.4167  1.1795
25316SOL     OW88006   2.087   3.747   6.673 -0.5477  0.3392  0.2481
25316SOL    HW188007   2.026   3.737   6.594  0.6116  2.1650 -0.9323
25316SOL    HW288008   2.069   3.834   6.718  0.3142  0.3143  0.6476
25317SOL     OW88009   6.920   4.057   3.220 -0.1285  0.1697 -0.0620
25317SOL    HW188010   6.887   4.138   3.174 -3.2458 -0.1983  1.4023
25317SOL    HW288011   6.999   4.081   3.277  0.2334  1.7336 -1.2002
25318SOL     OW88012   9.890   1.433   7.030  0.9383  0.1798 -0.6334
25318SOL    HW188013   9.817   1.365   7.024 -0.0722  1.1378  0.7395
25318SOL    HW288014   9.975   1.387   7.056 -0.0599 -0.3702  1.7292
25319SOL     OW88015   0.380   8.593   3.234  0.0024 -0.0067  0.7216
25319SOL    HW188016   0.304   8.648   3.200 -0.1520  0.3807  1.6885
25319SOL    HW288017   0.365   8.497   3.210  1.0754  0.5533 -2.4065
25320SOL     OW88018   2.127   4.118   6.249 -0.1996 -0.4869 -0.8253
25320SOL    HW188019   2.049   4.064   6.281 -1.2268  0.3432 -1.8536
25320SOL    HW288020   2.098   4.213   6.237  2.0551  0.7640  2.7894
25321SOL     OW88021   3.654   1.439   6.772 -0.0683 -0.5422 -0.2346
25321SOL    HW188022   3.703   1.511   6.821 -1.2227  0.3518 -0.3707
25321SOL    HW288023   3.695   1.426   6.682 -0.9727  1.2166 -0.9149
25322SOL     OW88024   7.063   1.870   8.667  0.2336 -0.5025 -0.8757
25322SOL    HW188025   7.054   1.961   8.626  0.9850  1.0079  2.1523
25322SOL    HW288026   6.985   1.854   8.728  1.1685 -1.0648  0.1671
25323SOL     OW88027   1.495   7.751   6.061 -0.1884  0.1501 -0.2659
25323SOL    HW188028   1.550   7.689   6.005 -0.2223 -0.7213  0.6672
25323SOL    HW288029   1.444   7.699   6.129  0.2862  1.2594  0.9594
25324SOL     OW88030   9.009   6.691   6.707 -0.6504  0.3314  0.4053
25324SOL    HW188031   8.972   6.611   6.660 -5.3442  1.6775  1.5326
25324SOL    HW288032   9.059   6.662   6.789 -1.6037 -1.5247  0.3487
25325SOL     OW88033   3.418   4.604   8.730 -0.5127 -0.0017  0.1597
25325SOL    HW188034   3.343   4.666   8.751 -0.5866 -0.1649  0.3878
25325SOL    HW288035   3.455   4.624   8.639  0.9843  1.8861  1.1544
25326SOL     OW88036   6.920   6.545   7.478  0.1741  0.5178 -0.1090
25326SOL    HW188037   7.011   6.505   7.477 -0.1320 -0.1852 -0.3838
25326SOL    HW288038   6.871   6.515   7.561 -0.2638 -0.1575 -0.6068
25327SOL     OW88039   0.100   4.605   6.036 -0.7553 -0.1633 -0.1280
25327SOL    HW188040   0.179   4.644   5.988  0.1146 -0.9195  0.6546
25327SOL    HW288041   0.067   4.670   6.104 -1.1667  0.3801 -0.8373
25328SOL     OW88042   2.904   4.123   9.365 -0.2821  0.1413  1.0599
25328SOL    HW188043   2.959   4.130   9.448 -1.4822 -1.9647  2.0595
25328SOL    HW288044   2.809   4.105   9.390 -0.7346 -0.0662 -0.7755
25329SOL     OW88045   8.764   7.868   5.846 -0.1345 -0.6189 -0.1864
25329SOL    HW188046   8.708   7.907   5.772  0.0541  0.3191  0.1555
25329SOL    HW288047   8.787   7.940   5.911 -0.3075 -1.4470  0.7971
25330SOL     OW88048   9.560   3.098   3.566 -0.4139  0.1382 -0.1284
25330SOL    HW188049   9.483   3.048   3.526  0.5885 -1.5402 -0.0022
25330SOL    HW288050   9.584   3.058   3.654 -0.5390  1.7968  0.6912
25331SOL     OW88051   0.998   3.076   0.947 -0.6244  0.6963  0.0654
25331SOL    HW188052   1.028   3.158   0.996  3.3760 -0.6932  0.0714
25331SOL    HW288053   0.955   3.103   0.860 -4.5462  2.9811  2.5624
25332SOL     OW88054   7.885   3.235   9.663  0.0597  0.1534  0.4055
25332SOL    HW188055   7.814   3.166   9.645 -2.1159  1.4058  3.7730
25332SOL    HW288056   7.868   3.315   9.605  0.7980 -0.8843 -1.2911
25333SOL     OW88057   9.113   5.758   7.153 -0.0348  0.1951 -0.2560
25333SOL    HW188058   9.052   5.773   7.074  1.1210 -0.0451 -1.2041
25333SOL    HW288059   9.190   5.701   7.125  0.5376  0.3484  0.9869
25334SOL     OW88060   7.697   6.305   5.279 -0.2919  0.2717  0.2595
25334SOL    HW188061   7.699   6.397   5.240  1.1732  0.1964  0.1277
25334SOL    HW288062   7.772   6.295   5.345 -0.1041 -1.0085 -0.1341
25335SOL     OW88063   1.896   0.278   3.407  0.0863  0.2883 -0.3496
25335SOL    HW188064   1.842   0.234   3.478  0.6571 -0.7668 -0.5516
25335SOL    HW288065   1.936   0.363   3.443 -0.9974  0.6379  0.0544
25336SOL     OW88066   2.351   5.663   4.098  0.2196 -0.2006 -0.2831
25336SOL    HW188067   2.399   5.640   4.013 -1.1319 -0.6425 -0.9387
25336SOL    HW288068   2.317   5.757   4.093 -0.3058 -0.3949 -0.4574
25337SOL     OW88069   5.437   1.876   5.834  0.0043 -0.0457 -0.0035
25337SOL    HW188070   5.342   1.897   5.855  0.7309  1.6158  1.7664
25337SOL    HW288071   5.463   1.920   5.748 -0.4512  0.5934  0.1847
25338SOL     OW88072   6.818   5.233   9.128 -0.4665  0.0762 -0.2335
25338SOL    HW188073   6.793   5.280   9.213 -0.7259 -0.8098  0.1943
25338SOL    HW288074   6.915   5.210   9.130  0.3125  3.0128 -1.6461
25339SOL     OW88075   6.827   3.588   7.925  0.0027 -0.3303 -0.7368
25339SOL    HW188076   6.759   3.659   7.907 -1.1906 -1.1889  0.1900
25339SOL    HW288077   6.895   3.622   7.990 -0.3875  0.0712 -0.5364
25340SOL     OW88078   2.191   1.437   0.222  0.2551  0.2119  0.6118
25340SOL    HW188079   2.283   1.408   0.250 -0.0548 -0.3082  1.0960
25340SOL    HW288080   2.125   1.410   0.292 -0.4968 -0.8907 -0.4903
25341SOL     OW88081   4.526   4.293   8.026  0.3351 -1.3920 -0.1138
25341SOL    HW188082   4.577   4.232   7.966  1.2986 -0.3800 -0.3448
25341SOL    HW288083   4.431   4.296   7.998  0.1593 -3.1995  0.2314
25342SOL     OW88084   3.365   9.762   0.891 -0.2697  0.0268  0.0274
25342SOL    HW188085   3.275   9.804   0.900 -0.6895 -0.4125 -1.9773
25342SOL    HW288086   3.365   9.698   0.814  1.3967 -0.9233  0.7935
25343SOL     OW88087   5.128   6.608   2.308  0.2920  0.1546 -0.2913
25343SOL    HW188088   5.208   6.612   2.249  0.7144  0.4197  0.2966
25343SOL    HW288089   5.142   6.668   2.388 -1.6866  2.5697 -1.6718
25344SOL     OW88090   2.765   4.633   2.509  0.5959 -0.0579  0.2697
25344SOL    HW188091   2.677   4.649   2.464 -0.1937 -0.1775  1.7492
25344SOL    HW288092   2.827   4.708   2.485  0.4346 -0.4855 -1.5794
25345SOL     OW88093   4.242   7.677   1.763 -0.1789  0.1750 -0.2292
25345SOL    HW188094   4.193   7.738   1.826 -1.1262  0.6843 -1.4300
25345SOL    HW288095   4.302   7.732   1.704 -0.6993 -0.1049 -1.0199
25346SOL     OW88096   2.520   1.189   3.452  0.0279 -0.4090  0.2656
25346SOL    HW188097   2.560   1.183   3.360  0.7705 -2.3339  0.6950
25346SOL    HW288098   2.555   1.271   3.498  0.6884 -0.1487 -0.6829
25347SOL     OW88099   6.120   1.267   2.188 -0.0266 -0.9643  0.3510
25347SOL    HW188100   6.172   1.311   2.115 -0.1552 -1.0738  0.1946
25347SOL    HW288101   6.086   1.178   2.156 -0.0095 -1.0510  0.5713
25348SOL     OW88102   6.114   0.645   5.093  0.3650 -0.0539 -0.4002
25348SOL    HW188103   6.035   0.606   5.046  2.0352 -0.8030 -2.6728
25348SOL    HW288104   6.139   0.586   5.170 -1.4614  0.3644  0.5396
25349SOL     OW88105   2.593   2.061   5.799  0.1687 -0.2679  0.1598
25349SOL    HW188106   2.592   2.112   5.884  1.1191 -0.4176  0.2676
25349SOL    HW288107   2.687   2.038   5.774 -0.0333  0.3772 -1.2944
25350SOL     OW88108   1.111   9.963   6.503  0.0613 -0.3166  0.2271
25350SOL    HW188109   1.105   9.984   6.600 -1.2401  1.6026 -0.2261
25350SOL    HW288110   1.160  10.036   6.456  0.5143 -1.1324 -0.5892
25351SOL     OW88111   0.869   8.165   5.062  0.3446  0.2296  0.0621
25351SOL    HW188112   0.825   8.181   5.151  1.1070 -0.5080  0.5776
25351SOL    HW288113   0.968   8.175   5.072  0.6078 -1.8519 -0.2509
25352SOL     OW88114   0.567   6.609   0.043 -0.0373  0.0566  0.0062
25352SOL    HW188115   0.571   6.510   0.053 -0.2517 -0.0075 -0.5229
25352SOL    HW288116   0.577   6.634  -0.053 -1.4345  0.4659 -0.0439
25353SOL     OW88117   5.125   2.222   9.946  0.1352 -0.3198 -0.1610
25353SOL    HW188118   5.045   2.168   9.969 -0.4553  0.4571 -0.3841
25353SOL    HW288119   5.097   2.307   9.901  1.1084 -0.3689 -0.8952
25354SOL     OW88120   5.812   6.007   0.828  0.3469 -0.1397 -0.1137
25354SOL    HW188121   5.835   5.922   0.875 -1.3015 -0.7209 -0.3329
25354SOL    HW288122   5.774   6.072   0.894  1.7277  0.4851  0.0787
25355SOL     OW88123   4.391   7.069   1.381  0.2441  0.4809  0.5225
25355SOL    HW188124   4.446   7.133   1.436  0.9592  0.4006 -0.0869
25355SOL    HW288125   4.409   7.085   1.284  0.2048 -0.4545  0.3586
25356SOL     OW88126   5.300   3.509   7.752 -0.0053  0.1328 -0.0862
25356SOL    HW188127   5.307   3.412   7.729  0.3840  0.8567 -3.1961
25356SOL    HW288128   5.203   3.535   7.755 -0.1588 -0.6221  2.0471
25357SOL     OW88129   5.343   8.759   6.967  0.4692 -0.3897 -0.5144
25357SOL    HW188130   5.352   8.763   6.868  1.1377 -1.2143 -0.4945
25357SOL    HW288131   5.429   8.725   7.007 -0.1328 -1.0065  0.2714
25358SOL     OW88132   0.203   6.647   0.434  0.2701  0.5183  0.1989
25358SOL    HW188133   0.210   6.547   0.429  0.9906  0.6487 -2.0293
25358SOL    HW288134   0.129   6.678   0.373 -0.0067  1.3462  0.9412
25359SOL     OW88135   2.979   6.093   7.404 -0.4820 -0.5027 -0.2328
25359SOL    HW188136   3.043   6.169   7.410 -0.5264 -0.6100  2.0855
25359SOL    HW288137   2.886   6.126   7.422 -0.4525 -1.1527  1.1797
25360SOL     OW88138   3.016   0.692   0.197 -0.5595  0.1843  0.2461
25360SOL    HW188139   2.972   0.693   0.107 -0.7082 -0.6493  0.3044
25360SOL    HW288140   2.953   0.653   0.264  0.6127 -1.8944  0.1561
25361SOL     OW88141   4.389   4.664   9.918 -0.2013  0.2317  0.4155
25361SOL    HW188142   4.350   4.578   9.884  0.6580 -0.1120  0.2924
25361SOL    HW288143   4.489   4.662   9.908 -0.1341  1.0425  0.8768
25362SOL     OW88144   3.531   3.835   4.936  0.2512 -1.0940  0.4668
25362SOL    HW188145   3.508   3.922   4.893  1.3122  0.1380  2.3063
25362SOL    HW288146   3.620   3.804   4.904 -0.3352 -1.7700 -0.5488
25363SOL     OW88147   8.608   5.844   1.198  0.0530 -0.1735 -0.0864
25363SOL    HW188148   8.681   5.780   1.221  0.2360  0.3686  0.8846
25363SOL    HW288149   8.642   5.938   1.208 -0.9018  0.0879  0.7965
25364SOL     OW88150   8.558   7.033   7.038  0.1031  0.8309  0.1114
25364SOL    HW188151   8.485   6.989   7.090  0.3003  1.1989  0.7140
25364SOL    HW288152   8.556   7.003   6.943 -0.7185  0.7072  0.1709
25365SOL     OW88153   5.625   0.126   7.966 -0.2508  0.2154  0.2278
25365SOL    HW188154   5.542   0.080   7.935  0.5442 -0.2951 -1.1984
25365SOL    HW288155   5.604   0.184   8.044 -2.0191  0.3828 -0.3617
25366SOL     OW88156   4.489   9.815   3.953 -0.0371  0.0201 -0.3396
25366SOL    HW188157   4.424   9.833   3.879 -0.3182  0.2942 -0.0277
25366SOL    HW288158   4.556   9.747   3.923 -1.7467 -1.9136  0.0408
25367SOL     OW88159   8.864   1.642   3.362  0.2626 -0.0217 -0.0218
25367SOL    HW188160   8.853   1.741   3.356  1.0404  0.1005  0.5459
25367SOL    HW288161   8.960   1.618   3.348 -0.1484 -0.8195 -1.6449
25368SOL     OW88162   2.255   5.113   0.740  0.1730 -0.2362  0.2507
25368SOL    HW188163   2.231   5.028   0.693  0.7984 -0.4132  0.2423
25368SOL    HW288164   2.341   5.100   0.790  0.4387  0.4827 -0.0110
25369SOL     OW88165   3.462   5.591   8.662  0.5715  0.1456  0.3511
25369SOL    HW188166   3.499   5.499   8.677  0.1039 -0.2835 -1.0274
25369SOL    HW288167   3.527   5.659   8.695  1.2449 -0.6724  0.7277
25370SOL     OW88168   7.055   8.370   5.491 -0.1032  0.4774  0.1747
25370SOL    HW188169   7.095   8.371   5.400 -0.4457  0.4964  0.0218
25370SOL    HW288170   7.053   8.276   5.526  0.0201  0.4689  0.1592
25371SOL     OW88171   0.530   5.208   9.424  0.5578 -0.3179 -0.4463
25371SOL    HW188172   0.509   5.138   9.493 -0.1102  0.4210  0.1046
25371SOL    HW288173   0.578   5.284   9.468  0.8401 -0.2024 -0.9542
25372SOL     OW88174   1.539   6.716   3.947 -0.5683 -0.1589 -0.0999
25372SOL    HW188175   1.469   6.704   4.017 -0.7725  1.0856 -0.0902
25372SOL    HW288176   1.608   6.781   3.979 -0.8204  0.6553 -1.1742
25373SOL     OW88177   1.075   4.823   2.382 -0.1018  0.0122 -0.4963
25373SOL    HW188178   1.128   4.755   2.333 -1.1519  0.3139 -2.0972
25373SOL    HW288179   0.978   4.799   2.378 -0.3085  0.6782  0.4099
25374SOL     OW88180   3.492   4.948   3.341 -0.1334  0.5271  0.0512
25374SOL    HW188181   3.471   4.852   3.359  0.7803  0.5482  1.3156
25374SOL    HW288182   3.573   4.975   3.393 -0.6737  2.1196  0.1013
25375SOL     OW88183   1.973   3.864   2.490  0.1409  0.4547  0.5508
25375SOL    HW188184   1.931   3.833   2.575  1.6979  1.2678  1.6336
25375SOL    HW288185   1.963   3.963   2.481 -1.0059  0.2377 -0.7802
25376SOL     OW88186   2.989   9.626   4.791  0.3541 -0.1865 -0.2716
25376SOL    HW188187   2.936   9.620   4.706 -1.4845 -0.7454  0.8824
25376SOL    HW288188   3.063   9.559   4.788 -0.0207 -0.5728 -1.2095
25377SOL     OW88189   9.475   5.418   3.490 -0.0816  0.0962  0.0001
25377SOL    HW188190   9.566   5.459   3.498  0.0862 -0.4849  1.2894
25377SOL    HW288191   9.484   5.321   3.469 -0.4211  0.1847 -0.5536
25378SOL     OW88192   3.536   3.659   9.976 -0.1651  0.0490 -0.4234
25378SOL    HW188193   3.552   3.602  10.056  0.1565  1.7434  0.7589
25378SOL    HW288194   3.547   3.604   9.893  0.5724 -1.4839  0.6592
25379SOL     OW88195   8.535   3.856   5.443  0.4144  0.2925 -0.1742
25379SOL    HW188196   8.618   3.803   5.460  0.1204  0.0718  0.5659
25379SOL    HW288197   8.465   3.832   5.510 -0.4527  0.0532 -1.1492
25380SOL     OW88198   3.367   7.237   0.617 -0.7110 -0.6234 -0.5158
25380SOL    HW188199   3.344   7.144   0.586  1.1828 -1.3440  0.1431
25380SOL    HW288200   3.413   7.287   0.544 -3.1645  0.3722 -1.4078
25381SOL     OW88201   5.374   7.799   6.570  0.3996 -0.0896 -0.2026
25381SOL    HW188202   5.359   7.713   6.619 -0.1546 -0.0823 -0.3563
25381SOL    HW288203   5.465   7.799   6.529  0.5729 -0.4130  0.1857
25382SOL     OW88204   2.601   1.198   9.018 -0.1623  0.5040  0.0753
25382SOL    HW188205   2.655   1.141   9.080  0.0920  2.0128  1.2453
25382SOL    HW288206   2.649   1.207   8.930  0.2120 -0.3397  0.1888
25383SOL     OW88207   7.801   4.120   9.157 -0.3784 -0.1459 -0.1463
25383SOL    HW188208   7.815   4.063   9.237  1.0826  0.4407  0.0276
25383SOL    HW288209   7.781   4.063   9.077 -0.7784 -0.7846  0.4141
25384SOL     OW88210   0.222   6.874   3.034  0.3393  1.0856  0.1919
25384SOL    HW188211   0.229   6.881   3.133  1.3961  2.8424  0.0201
25384SOL    HW288212   0.313   6.858   2.996 -0.5003 -3.2132 -0.2834
25385SOL     OW88213   4.419   2.119   7.734  0.6054  0.6119 -0.6813
25385SOL    HW188214   4.442   2.208   7.694  1.1282  0.2313 -1.2230
25385SOL    HW288215   4.332   2.127   7.783  0.8261  1.5120 -0.4235
25386SOL     OW88216   2.649   8.784   5.491 -0.2496 -0.0448  0.7624
25386SOL    HW188217   2.690   8.779   5.401  1.0965 -0.6893  1.3915
25386SOL    HW288218   2.567   8.842   5.488 -0.0758  0.1368 -0.7935
25387SOL     OW88219   7.142   2.198   5.053 -0.0930 -0.5424  0.4473
25387SOL    HW188220   7.104   2.107   5.072  2.6378 -2.0615 -0.9284
25387SOL    HW288221   7.228   2.208   5.104  0.1100  0.8688 -0.1695
25388SOL     OW88222   7.657   3.192   2.052 -0.4002  0.3885  0.0046
25388SOL    HW188223   7.739   3.229   2.008 -0.0654 -0.4904 -0.1190
25388SOL    HW288224   7.679   3.103   2.094 -1.1811  0.3537  0.3459
25389SOL     OW88225   9.287   4.958   3.794 -0.4734 -0.0061 -0.1335
25389SOL    HW188226   9.298   4.931   3.698  0.6300  0.9720 -0.2911
25389SOL    HW288227   9.253   5.052   3.798  1.7832  0.8266  0.4207
25390SOL     OW88228   3.350   0.442   8.645 -0.3261  0.4354 -0.0039
25390SOL    HW188229   3.262   0.486   8.627 -0.2347  0.1514 -1.2500
25390SOL    HW288230   3.334   0.356   8.695 -0.6949  0.7505  0.4201
25391SOL     OW88231   0.339   0.699   6.199 -0.3032 -0.2149 -0.0506
25391SOL    HW188232   0.359   0.750   6.283  0.1911 -0.0392 -0.2691
25391SOL    HW288233   0.276   0.625   6.220  0.0907 -0.3922  0.5487
25392SOL     OW88234   4.564   5.784   3.437 -0.9898 -0.2477 -0.2058
25392SOL    HW188235   4.475   5.740   3.427  0.7427 -3.5428 -2.0875
25392SOL    HW288236   4.575   5.853   3.365 -1.3906 -1.0002 -1.0021
25393SOL     OW88237   5.194   5.878   1.040 -0.2161 -0.1886  0.2236
25393SOL    HW188238   5.289   5.908   1.049  0.1084 -1.2646  0.4361
25393SOL    HW288239   5.144   5.897   1.125  0.2381 -1.0986  0.7058
25394SOL     OW88240   8.258   8.031   3.985 -0.5760  0.5321 -0.4172
25394SOL    HW188241   8.208   7.998   4.064 -0.6523  2.0993  0.1962
25394SOL    HW288242   8.226   7.983   3.903  0.1119 -1.7260  0.5885
25395SOL     OW88243   2.558   3.393   4.302 -0.0865 -0.2760 -0.0518
25395SOL    HW188244   2.462   3.394   4.328  0.0365  0.1075  0.4105
25395SOL    HW288245   2.614   3.409   4.383  0.4279 -1.8235 -0.0797
25396SOL     OW88246   1.572   4.430   8.459 -0.6563 -0.2088  0.4119
25396SOL    HW188247   1.542   4.519   8.495 -0.8164 -0.5385  1.0993
25396SOL    HW288248   1.523   4.411   8.374 -2.1346 -0.5652  1.3181
25397SOL     OW88249   8.803   6.269   7.401  0.3589 -0.3682  0.0843
25397SOL    HW188250   8.785   6.353   7.452 -0.1529  0.0974 -0.8711
25397SOL    HW288251   8.832   6.291   7.308  0.1738 -1.2454 -0.1824
25398SOL     OW88252   9.772   0.529   4.125 -0.1024  0.6625 -0.2085
25398SOL    HW188253   9.739   0.593   4.195  1.9217  0.2916  1.1199
25398SOL    HW288254   9.867   0.505   4.144 -0.2843 -1.3736 -1.7092
25399SOL     OW88255   7.448   1.273   1.349  0.0609 -0.0338 -0.0644
25399SOL    HW188256   7.436   1.372   1.343  1.4487  0.1028 -0.6949
25399SOL    HW288257   7.529   1.252   1.404 -1.2457 -0.8668  1.5752
25400SOL     OW88258   4.781   2.199   2.737 -0.0840 -0.0061 -0.0680
25400SOL    HW188259   4.735   2.184   2.825 -0.2277  1.0801  0.0431
25400SOL    HW288260   4.727   2.260   2.680  0.3414 -0.1668 -0.6531
25401SOL     OW88261   1.813   3.646   9.719  0.1386  0.1243 -0.2850
25401SOL    HW188262   1.744   3.594   9.668  1.1719  0.0646 -1.6333
25401SOL    HW288263   1.895   3.657   9.664  0.0668  2.9386  0.0925
25402SOL     OW88264   3.140   0.346   1.861 -0.4466 -0.4217 -0.5104
25402SOL    HW188265   3.064   0.383   1.914  0.7652  1.0056  0.2873
25402SOL    HW288266   3.132   0.376   1.766  0.7766  2.3899  0.2223
25403SOL     OW88267   6.122   4.107   9.117 -0.1971  0.6037  0.1919
25403SOL    HW188268   6.221   4.122   9.110 -0.4532  2.0750 -0.4782
25403SOL    HW288269   6.081   4.181   9.170 -0.8398 -0.4393  1.1645
25404SOL     OW88270   9.488   2.726   6.267 -0.2467  0.0052  0.8169
25404SOL    HW188271   9.412   2.695   6.324 -0.7831  0.3343  0.2776
25404SOL    HW288272   9.548   2.648   6.247 -0.5841 -0.3071  1.0172
25405SOL     OW88273   1.076   5.394   3.927 -0.2631  0.2393 -0.3763
25405SOL    HW188274   1.145   5.427   3.991 -1.0326  1.2674 -0.0742
25405SOL    HW288275   1.101   5.421   3.834 -0.3478  0.7512 -0.2492
25406SOL     OW88276   4.678   4.865   0.663 -0.7939 -0.2073  0.0015
25406SOL    HW188277   4.687   4.962   0.686 -1.1262 -0.0031 -0.7116
25406SOL    HW288278   4.745   4.842   0.592 -0.1466 -0.6994  0.7642
25407SOL     OW88279   4.653   6.920   3.598 -0.0211 -0.3975  0.0309
25407SOL    HW188280   4.598   6.975   3.661  0.5072 -0.2494  0.3633
25407SOL    HW288281   4.745   6.907   3.635  0.6645  0.6828 -1.2524
25408SOL     OW88282   7.288   4.237   2.417  0.3046  0.1505  0.0064
25408SOL    HW188283   7.289   4.187   2.330  1.5414 -0.9073  0.6157
25408SOL    HW288284   7.304   4.334   2.400  0.2041 -0.0029 -0.9801
25409SOL     OW88285   7.756   3.183   3.057  0.1660 -0.6407 -0.1313
25409SOL    HW188286   7.738   3.176   3.155  0.4842 -0.7801 -0.0825
25409SOL    HW288287   7.670   3.173   3.007 -0.5058  2.6923  0.2681
25410SOL     OW88288   8.054   2.790   9.028 -1.4745  0.6895 -0.1123
25410SOL    HW188289   8.023   2.850   8.954 -0.1989  1.4740 -0.0354
25410SOL    HW288290   8.136   2.829   9.069 -0.5950 -1.1504 -0.0818
25411SOL     OW88291   8.521   9.813   2.562 -0.7175 -0.1210  0.0196
25411SOL    HW188292   8.523   9.715   2.583  1.3524 -0.1129 -0.0223
25411SOL    HW288293   8.519   9.865   2.648 -1.1308 -0.1828  0.0497
25412SOL     OW88294   0.613   1.140   4.266  0.2279 -0.1036  0.8772
25412SOL    HW188295   0.565   1.059   4.300  0.3404 -1.3071 -1.7001
25412SOL    HW288296   0.663   1.116   4.183  0.2708  2.6258  0.0855
25413SOL     OW88297   5.039   4.106   8.544  0.0732 -0.6674  0.3655
25413SOL    HW188298   4.941   4.118   8.562  0.1001  0.3156 -0.1056
25413SOL    HW288299   5.086   4.194   8.557  0.8492 -1.0734  0.3068
25414SOL     OW88300   1.315   8.086   1.477  0.4797 -0.9785 -0.1578
25414SOL    HW188301   1.257   8.027   1.420 -3.3435  1.2237  1.2733
25414SOL    HW288302   1.306   8.058   1.573 -1.0616  1.5699  0.4928
25415SOL     OW88303   5.236   8.738   7.998 -0.5593 -0.5270  0.1550
25415SOL    HW188304   5.281   8.742   8.087 -0.8855 -0.2864  0.3103
25415SOL    HW288305   5.219   8.643   7.973 -1.7895 -0.5463  1.0229
25416SOL     OW88306   6.949   6.595   7.204  0.6264 -0.5858  0.4350
25416SOL    HW188307   7.042   6.629   7.194  0.2309  0.9757  1.8001
25416SOL    HW288308   6.925   6.590   7.301 -0.9559 -0.2934  0.0795
25417SOL     OW88309   5.506   2.226   2.663  0.4609  0.1012 -0.4356
25417SOL    HW188310   5.421   2.275   2.645  0.6385  0.6310  0.1559
25417SOL    HW288311   5.568   2.236   2.585 -0.5383 -1.4292 -1.4641
25418SOL     OW88312   7.968   4.188   1.540  0.4071 -0.0523  0.3514
25418SOL    HW188313   7.932   4.256   1.604  1.1336  1.0608 -0.4094
25418SOL    HW288314   7.894   4.156   1.480 -0.2985 -1.1722  1.7716
25419SOL     OW88315   7.767   8.522   7.880 -0.5928 -0.2884 -0.3839
25419SOL    HW188316   7.725   8.448   7.934  1.7273 -2.6352 -1.6890
25419SOL    HW288317   7.787   8.599   7.940 -2.1240 -1.0940  1.2198
25420SOL     OW88318   2.221   3.659   1.455  0.0951 -0.0050  0.2389
25420SOL    HW188319   2.306   3.672   1.404 -1.4472  3.3541 -1.6893
25420SOL    HW288320   2.156   3.606   1.400  0.1798 -0.7239  0.8240
25421SOL     OW88321   4.461   9.413   2.623  0.1542 -0.8452 -0.3572
25421SOL    HW188322   4.481   9.316   2.639  0.6519 -0.8347 -0.8988
25421SOL    HW288323   4.385   9.421   2.559 -0.7203 -0.8803  0.6750
25422SOL     OW88324   0.674   7.648   4.562 -0.2256 -0.1841  0.2508
25422SOL    HW188325   0.602   7.658   4.630 -0.1783  0.2812  0.2343
25422SOL    HW288326   0.744   7.584   4.596 -0.9455 -1.1211  0.0058
25423SOL     OW88327   4.469   3.375   3.706  0.3065 -0.0587  0.0664
25423SOL    HW188328   4.555   3.424   3.721 -0.2308  1.0375 -0.4171
25423SOL    HW288329   4.474   3.285   3.750  1.7869 -0.0978 -0.1762
25424SOL     OW88330   5.191   3.323   2.104  0.0553 -0.0154 -0.2527
25424SOL    HW188331   5.244   3.258   2.158  0.2802 -1.9532 -2.7363
25424SOL    HW288332   5.249   3.361   2.031 -0.7952  1.0671 -0.3823
25425SOL     OW88333   4.559   0.370   0.383 -0.7225 -0.1915 -0.2145
25425SOL    HW188334   4.479   0.364   0.442 -0.6705  1.2571  0.0107
25425SOL    HW288335   4.530   0.385   0.288 -0.8048 -2.4912 -0.5918
25426SOL     OW88336   2.235   9.935   6.996 -0.3220 -0.2178  0.0729
25426SOL    HW188337   2.243  10.023   6.949  1.9743 -0.4506 -0.0096
25426SOL    HW288338   2.178   9.947   7.077 -1.8510  0.8463 -1.1210
25427SOL     OW88339   7.362   2.245   9.901 -0.2236 -0.0839  0.1629
25427SOL    HW188340   7.307   2.210   9.977 -0.2507  1.2679  0.7883
25427SOL    HW288341   7.457   2.217   9.914 -0.1078  0.6869  1.0595
25428SOL     OW88342   4.871   0.116   8.582  0.1741  0.1786  0.3989
25428SOL    HW188343   4.938   0.047   8.609 -1.3875 -0.9312  1.5806
25428SOL    HW288344   4.863   0.185   8.655 -0.3975 -0.0374  0.5473
25429SOL     OW88345   0.092   0.305   7.682 -0.1467  0.6181 -0.0706
25429SOL    HW188346   0.001   0.262   7.679  0.3460 -0.4301 -0.3042
25429SOL    HW288347   0.122   0.311   7.777 -0.1407  0.2853 -0.0510
25430SOL     OW88348   2.492   0.220   3.214  0.2758  0.0567 -0.1888
25430SOL    HW188349   2.446   0.133   3.230  0.2788  0.0576 -0.1748
25430SOL    HW288350   2.584   0.216   3.254 -0.1707  0.5017  0.8962
25431SOL     OW88351   2.678   9.926   7.106 -0.1428 -0.0332  0.5345
25431SOL    HW188352   2.745   9.873   7.158 -0.8153 -1.9861 -0.5584
25431SOL    HW288353   2.629   9.988   7.168  1.2838 -0.0080  1.6626
25432SOL     OW88354   0.861   4.832   0.654  0.0655 -0.4510  0.1712
25432SOL    HW188355   0.886   4.756   0.715 -0.8476  0.8588  2.2130
25432SOL    HW288356   0.944   4.876   0.621  0.5646 -0.1811  1.7476
25433SOL     OW88357   3.104   2.376   1.264 -0.5537  0.3320  0.1285
25433SOL    HW188358   3.153   2.291   1.244 -0.2660  0.3641  0.6978
25433SOL    HW288359   3.011   2.370   1.227  0.1708  0.6410 -1.7694
25434SOL     OW88360   1.967   2.394   8.178  0.1315 -0.4249 -0.2637
25434SOL    HW188361   2.028   2.318   8.155 -0.1087  0.0914 -2.7128
25434SOL    HW288362   1.887   2.392   8.118 -1.6378 -0.3089  2.0232
25435SOL     OW88363   9.711   9.218   7.674  0.1427 -0.3717  0.9172
25435SOL    HW188364   9.757   9.304   7.651  0.5975 -1.4515 -2.4236
25435SOL    HW288365   9.624   9.212   7.625  0.4561 -2.1165  0.5381
25436SOL     OW88366   1.771   4.420   4.888 -0.4206 -0.1865  0.4702
25436SOL    HW188367   1.782   4.472   4.803 -1.1939 -0.5610  0.1342
25436SOL    HW288368   1.846   4.441   4.950 -0.0330  0.3495 -0.1749
25437SOL     OW88369   7.619   0.804   2.502 -0.7345 -0.1300 -0.0095
25437SOL    HW188370   7.552   0.787   2.574 -0.2067  1.9468  0.9993
25437SOL    HW288371   7.711   0.801   2.541 -0.2597 -2.1265 -1.2219
25438SOL     OW88372   5.139   2.407   5.010  0.8417 -0.0004 -0.1785
25438SOL    HW188373   5.066   2.405   4.942 -0.0762 -1.5259  0.8174
25438SOL    HW288374   5.193   2.323   5.003  0.7206 -0.1809  0.9891
25439SOL     OW88375   0.623   7.668   3.293  0.4520  0.8212 -0.2879
25439SOL    HW188376   0.634   7.672   3.392 -0.3668 -0.3885 -0.1455
25439SOL    HW288377   0.712   7.649   3.251  0.4349 -0.6911  0.3439
25440SOL     OW88378   2.523   5.280   7.033  0.4686  0.6311 -0.3367
25440SOL    HW188379   2.553   5.216   6.962 -0.7885 -1.7304  1.1681
25440SOL    HW288380   2.602   5.327   7.072  1.4359 -0.0693 -1.4265
25441SOL     OW88381   1.204   1.247   5.966  0.7830 -0.2159  0.1104
25441SOL    HW188382   1.158   1.319   5.914  2.3079  1.3671  0.9288
25441SOL    HW288383   1.136   1.179   5.995 -0.5535  0.4815 -1.2963
25442SOL     OW88384   3.902   4.639   9.538 -0.2541 -0.3952 -0.3795
25442SOL    HW188385   3.807   4.611   9.544 -0.2452 -0.2938  0.1780
25442SOL    HW288386   3.910   4.717   9.476 -0.7261  0.5590  0.7658
25443SOL     OW88387   0.775   9.666   2.011 -0.3420 -0.2006  0.0231
25443SOL    HW188388   0.863   9.687   1.968 -0.3101 -2.0887 -0.8981
25443SOL    HW288389   0.785   9.585   2.068 -1.3120  0.0464  0.5424
25444SOL     OW88390   2.554   0.538   8.557 -0.1387 -0.0026  0.3334
25444SOL    HW188391   2.564   0.500   8.648  2.1347  2.5076  1.2076
25444SOL    HW288392   2.639   0.525   8.505 -0.6148  0.5649 -0.6160
25445SOL     OW88393   7.799   2.430   6.636  0.1540  0.7083  0.4461
25445SOL    HW188394   7.778   2.474   6.549  0.3806  2.0962  1.0876
25445SOL    HW288395   7.745   2.471   6.708 -0.9314 -1.2542  0.7955
25446SOL     OW88396   9.211   4.359   3.629  0.0416  0.3835 -0.2216
25446SOL    HW188397   9.114   4.344   3.609 -0.1052 -0.9172  1.3193
25446SOL    HW288398   9.264   4.279   3.601  0.5716  0.7925 -0.4010
25447SOL     OW88399   4.563   8.001   6.321 -0.0560  0.2113  0.1311
25447SOL    HW188400   4.555   8.095   6.354 -3.3956  0.1921 -0.4751
25447SOL    HW288401   4.540   7.997   6.224 -0.4609 -1.3028  0.2685
25448SOL     OW88402   6.942   8.364   5.018  0.7642 -0.2459  0.2869
25448SOL    HW188403   6.846   8.393   5.014  0.7114 -0.6452 -2.8996
25448SOL    HW288404   6.953   8.278   4.968  3.0426  0.6039 -0.7653
25449SOL     OW88405   6.833   9.730   2.468  0.1584 -0.3202 -0.3279
25449SOL    HW188406   6.807   9.637   2.443  0.6077 -0.4354 -0.3572
25449SOL    HW288407   6.850   9.735   2.567 -1.5626  0.1225 -0.0297
25450SOL     OW88408   7.648   8.738   7.660 -0.1700 -0.3818 -0.9504
25450SOL    HW188409   7.616   8.646   7.683 -0.9456 -0.3092 -1.7342
25450SOL    HW288410   7.574   8.790   7.619 -0.4119  1.3679  1.5504
25451SOL     OW88411   1.326   8.918   3.799 -0.0802  0.4946 -0.7449
25451SOL    HW188412   1.270   8.861   3.859  1.4117 -0.4420 -0.1888
25451SOL    HW288413   1.343   9.006   3.842  0.4676  0.0586 -0.0578
25452SOL     OW88414   6.091   5.986   1.991  0.0955  0.2029 -0.6700
25452SOL    HW188415   6.115   6.081   2.012 -0.5243  0.3432 -0.5974
25452SOL    HW288416   6.080   5.935   2.077 -1.2406  0.4801 -0.6638
25453SOL     OW88417   1.990   8.036   8.488  0.1218 -0.6973  0.3154
25453SOL    HW188418   2.079   7.995   8.469  1.3734  1.5835  1.0672
25453SOL    HW288419   1.967   8.023   8.584  0.5288  0.3343  0.5603
25454SOL     OW88420   9.606   3.326   1.811  0.4470 -0.1631 -0.1982
25454SOL    HW188421   9.538   3.347   1.741  0.3451 -0.5558 -0.2188
25454SOL    HW288422   9.680   3.394   1.807  1.2767 -1.1256 -1.7846
25455SOL     OW88423   2.531   4.496   8.651 -0.1114  0.2470 -0.0039
25455SOL    HW188424   2.543   4.584   8.697  1.1641 -0.1292  0.3887
25455SOL    HW288425   2.584   4.425   8.698  0.9074 -0.2207 -1.7829
25456SOL     OW88426   3.896   0.038   5.727  0.0594  0.0691 -0.7133
25456SOL    HW188427   3.979   0.016   5.675 -0.7316 -1.8914 -1.1997
25456SOL    HW288428   3.922   0.068   5.819  1.3155 -0.5894 -0.8324
25457SOL     OW88429   3.803   8.756   2.694 -0.2543 -0.1989 -0.3253
25457SOL    HW188430   3.769   8.832   2.750 -0.7292 -0.7585  0.1476
25457SOL    HW288431   3.734   8.684   2.691  0.1643 -0.5767 -0.8498
25458SOL     OW88432   2.402   6.698   7.547  0.3184  0.4094  0.5924
25458SOL    HW188433   2.362   6.610   7.522  1.8502 -0.5363  1.4614
25458SOL    HW288434   2.343   6.743   7.614 -0.4325  0.0370  0.1913
25459SOL     OW88435   7.899   0.958   6.622 -0.3117  0.1776  0.0886
25459SOL    HW188436   7.894   0.864   6.589 -2.5293  0.5128 -0.5893
25459SOL    HW288437   7.982   1.002   6.587  0.9281 -1.6082  0.7088
25460SOL     OW88438   6.262   3.784   3.117 -0.4446  0.4403 -0.4158
25460SOL    HW188439   6.235   3.697   3.158 -1.3525  0.8736 -0.0983
25460SOL    HW288440   6.268   3.774   3.018  0.8914 -0.3743 -0.2631
25461SOL     OW88441   2.866   0.770   1.735 -0.0502 -0.3564 -0.3010
25461SOL    HW188442   2.884   0.716   1.653 -0.3833  0.3658 -0.8540
25461SOL    HW288443   2.891   0.865   1.718 -0.0324 -0.2212  0.4707
25462SOL     OW88444   1.055   8.785   8.915  0.3070 -0.5394  0.2250
25462SOL    HW188445   1.107   8.850   8.970  0.3956  0.6037 -1.1737
25462SOL    HW288446   0.959   8.812   8.912  0.0318 -1.4125  0.9995
25463SOL     OW88447   9.939   8.598   9.043 -1.1193  0.1176  0.4456
25463SOL    HW188448   9.904   8.672   8.985  2.6536 -2.2017 -5.3127
25463SOL    HW288449  10.028   8.625   9.080  0.3753 -1.3860 -1.8562
25464SOL     OW88450   1.764   6.025   4.733 -0.1337  0.5994  0.7110
25464SOL    HW188451   1.685   5.978   4.774  0.5506  0.9653  2.4735
25464SOL    HW288452   1.733   6.110   4.691 -1.1121 -0.5776 -1.0399
25465SOL     OW88453   6.422   1.944   9.091  0.3390 -0.5121 -0.1691
25465SOL    HW188454   6.370   2.023   9.059  1.2974 -0.1899 -0.9476
25465SOL    HW288455   6.380   1.908   9.175 -1.0558 -0.1891 -0.7259
25466SOL     OW88456   0.855   0.709   8.090 -0.2712  0.3620 -0.3603
25466SOL    HW188457   0.875   0.638   8.157 -0.5401  0.2943 -0.3484
25466SOL    HW288458   0.852   0.798   8.135  1.3322  0.5375 -0.6017
25467SOL     OW88459   9.509   4.336   5.173  0.2347  0.6450 -0.1312
25467SOL    HW188460   9.495   4.428   5.208 -0.3883 -0.0970  1.6038
25467SOL    HW288461   9.421   4.290   5.164  0.7539 -0.8084  1.9025
25468SOL     OW88462   7.537   2.036   8.173 -0.1396 -0.0806  0.1854
25468SOL    HW188463   7.488   2.087   8.102 -1.8315  1.1452  2.2020
25468SOL    HW288464   7.472   1.992   8.234  1.2969  0.0728  1.8489
25469SOL     OW88465   6.444   0.620   2.011  0.5066 -0.6547  0.2571
25469SOL    HW188466   6.541   0.632   2.031  0.7191 -1.7309 -0.0691
25469SOL    HW288467   6.391   0.690   2.058  1.4780  0.2096  0.0768
25470SOL     OW88468   9.352   9.563   2.108 -0.1429 -0.3511  0.2175
25470SOL    HW188469   9.264   9.526   2.136  0.0105 -0.3775  0.6662
25470SOL    HW288470   9.425   9.517   2.157  0.1585 -0.7103 -0.5594
25471SOL     OW88471   3.722   6.550   7.539 -0.4494  0.1570  0.5898
25471SOL    HW188472   3.725   6.456   7.505  0.2327  1.0535 -1.9793
25471SOL    HW288473   3.647   6.599   7.494  2.1732  2.1453 -1.8015
25472SOL     OW88474   2.688   5.192   1.419 -0.2815 -0.1626  0.2509
25472SOL    HW188475   2.620   5.150   1.360 -0.8599  1.5132 -0.2987
25472SOL    HW288476   2.645   5.222   1.504  0.0397 -0.2731  0.4548
25473SOL     OW88477   3.408   7.623   8.626  0.2693 -0.0416 -0.5414
25473SOL    HW188478   3.498   7.658   8.650  1.2986 -1.1135 -2.6771
25473SOL    HW288479   3.350   7.698   8.595  1.4526  0.2188 -2.1507
25474SOL     OW88480   4.395   2.287   8.219  0.0776  0.6503 -0.0738
25474SOL    HW188481   4.458   2.224   8.173  2.0134  0.5978  2.5009
25474SOL    HW288482   4.422   2.297   8.315 -2.7654  2.1089  0.6428
25475SOL     OW88483   1.072   0.754   3.333 -0.1115 -0.3476 -0.6643
25475SOL    HW188484   1.151   0.815   3.329 -0.4398  0.0705 -0.9540
25475SOL    HW288485   1.091   0.678   3.395  0.3297  0.0178 -0.3446
25476SOL     OW88486   5.054   4.169   8.202 -0.2900  0.0746 -0.1059
25476SOL    HW188487   5.042   4.095   8.269 -0.7114  0.6275  0.4349
25476SOL    HW288488   5.095   4.248   8.248  0.2470  0.1424 -0.7041
25477SOL     OW88489   2.590   3.686   9.556  0.2827 -0.3868 -0.6921
25477SOL    HW188490   2.613   3.776   9.593  1.4762 -0.4870 -1.1619
25477SOL    HW288491   2.506   3.653   9.598  1.1630 -0.1234  1.3062
25478SOL     OW88492   4.779   8.487   1.833 -0.3169  0.6213  0.4535
25478SOL    HW188493   4.844   8.450   1.766 -0.0817 -0.1817  1.1284
25478SOL    HW288494   4.829   8.539   1.902 -0.3110 -0.5409  1.3415
25479SOL     OW88495   3.541   3.835   5.397 -0.1368  0.0198  0.2923
25479SOL    HW188496   3.451   3.826   5.355  0.2671 -2.2814 -0.1540
25479SOL    HW288497   3.564   3.750   5.443  0.6857  1.5084  2.7010
25480SOL     OW88498   8.801   3.114   2.074  0.2441  0.1894 -0.4807
25480SOL    HW188499   8.741   3.062   2.134 -0.3427  1.1562 -0.2173
25480SOL    HW288500   8.814   3.065   1.988  0.9922 -1.1429  0.3808
25481SOL     OW88501   9.357   1.160   4.529 -0.4420  0.2098 -0.3483
25481SOL    HW188502   9.321   1.186   4.439 -1.0435 -0.6821 -0.3717
25481SOL    HW288503   9.368   1.061   4.533  0.3958  0.3224  0.2693
25482SOL     OW88504   5.956   1.746   5.772 -0.9279 -0.5170  0.8966
25482SOL    HW188505   5.952   1.845   5.760  1.0925 -0.4707  0.3489
25482SOL    HW288506   5.917   1.720   5.860 -1.2603  0.7862  1.1302
25483SOL     OW88507   2.962   7.900   5.345 -0.3532  0.1790 -0.0594
25483SOL    HW188508   2.869   7.935   5.338 -0.0709  1.0145  0.3294
25483SOL    HW288509   2.962   7.802   5.325 -1.8829 -0.6145  3.4247
25484SOL     OW88510   7.098   4.612   1.424  0.4196 -0.3550 -0.0197
25484SOL    HW188511   7.012   4.617   1.475 -0.0301 -0.2314 -0.7963
25484SOL    HW288512   7.111   4.519   1.390  0.0435 -0.0989 -0.8636
25485SOL     OW88513   6.063   3.796  10.032  0.0023 -0.0746 -0.9375
25485SOL    HW188514   5.964   3.813  10.040  0.0622 -0.1794  0.0838
25485SOL    HW288515   6.082   3.701  10.058  0.6242  0.5301  0.9028
25486SOL     OW88516   7.507   0.079   2.700  0.5302  1.0891 -0.0729
25486SOL    HW188517   7.412   0.052   2.685  0.3457 -0.4441  3.2438
25486SOL    HW288518   7.513   0.178   2.707 -0.9753  1.1563  0.4745
25487SOL     OW88519   3.188   3.491   5.909  0.3919  0.1748  0.2038
25487SOL    HW188520   3.108   3.547   5.933  0.8145  0.7067  0.4036
25487SOL    HW288521   3.182   3.464   5.813 -0.5701 -0.7051  0.4981
25488SOL     OW88522   8.032   3.190   8.982  0.2318 -0.4295  0.1377
25488SOL    HW188523   8.026   3.106   8.929 -1.4207  0.1687 -0.6592
25488SOL    HW288524   8.060   3.265   8.922 -0.9751  0.1109  0.2219
25489SOL     OW88525   3.649   2.392   6.448  0.1153  0.1006 -0.0421
25489SOL    HW188526   3.734   2.354   6.482  0.0659 -0.8523 -0.9570
25489SOL    HW288527   3.584   2.318   6.430 -0.5163  0.7345 -0.3855
25490SOL     OW88528   4.791   0.905   7.685  0.2654  0.0527  0.7897
25490SOL    HW188529   4.782   0.975   7.756 -0.3048  0.5522  0.2319
25490SOL    HW288530   4.729   0.830   7.704 -1.0478  0.9132 -0.0208
25491SOL     OW88531   6.418   5.205   8.602 -0.2074  0.2010  0.3144
25491SOL    HW188532   6.510   5.239   8.618 -0.1586 -0.8333  2.4579
25491SOL    HW288533   6.422   5.116   8.558 -0.2342  0.9321 -1.1849
25492SOL     OW88534   6.704   1.449   5.269  0.1142  0.0775 -0.3376
25492SOL    HW188535   6.634   1.407   5.327  0.6997  0.1211  0.4119
25492SOL    HW288536   6.756   1.515   5.323 -0.1285  1.0324 -1.2344
25493SOL     OW88537   8.005   6.904   4.795  0.8035 -0.5659  0.2350
25493SOL    HW188538   8.031   6.842   4.868  0.1269  0.1348  1.0742
25493SOL    HW288539   8.028   6.998   4.820  2.8271 -0.5626 -1.4821
25494SOL     OW88540   6.173   3.056   1.001  0.0571  0.3624 -0.0009
25494SOL    HW188541   6.161   3.025   0.906 -0.7042  0.6977 -0.0172
25494SOL    HW288542   6.204   3.151   1.000 -0.2431  0.4600  0.0936
25495SOL     OW88543   3.717   8.206   9.430  0.1408 -0.2356  0.4440
25495SOL    HW188544   3.719   8.286   9.370  0.6155 -1.7394 -1.5966
25495SOL    HW288545   3.682   8.233   9.520  0.4616  2.2880 -0.1376
25496SOL     OW88546   1.083   2.733   7.722 -0.0039 -0.2054 -0.1025
25496SOL    HW188547   1.164   2.787   7.697 -1.0517  1.2025 -0.5292
25496SOL    HW288548   1.109   2.638   7.733  1.4820 -0.0005 -1.5457
25497SOL     OW88549   3.532   1.302   7.887  0.4332  0.3255  0.2731
25497SOL    HW188550   3.586   1.345   7.960  0.1603  2.3346 -0.6700
25497SOL    HW288551   3.449   1.356   7.871 -0.2221 -0.9007 -0.5587
25498SOL     OW88552   6.919   3.333   9.565 -0.7109 -0.1287  0.0485
25498SOL    HW188553   6.888   3.263   9.500 -3.1253 -1.4015  2.4769
25498SOL    HW288554   6.983   3.294   9.630 -1.3079  0.1276  0.8074
25499SOL     OW88555   3.419   8.520   7.405  0.0090 -0.2643 -0.3694
25499SOL    HW188556   3.507   8.565   7.389 -0.5181  1.3577  1.1871
25499SOL    HW288557   3.381   8.491   7.317  0.0261  3.0289 -1.5427
25500SOL     OW88558   3.075   8.835   5.737  0.3467  0.5178  0.4985
25500SOL    HW188559   2.987   8.862   5.699  0.1310  0.6272  1.0734
25500SOL    HW288560   3.124   8.778   5.671  0.4204  1.5740 -0.3662
25501SOL     OW88561   1.686   7.481   0.036  0.7151  0.3606  0.3277
25501SOL    HW188562   1.630   7.547   0.085  0.8745  0.3860  0.4791
25501SOL    HW288563   1.658   7.388   0.061 -0.6974  0.3560 -1.2552
25502SOL     OW88564   2.033   1.887   8.125 -0.0310  0.4380 -0.3118
25502SOL    HW188565   2.069   1.904   8.217 -0.5323 -0.1450 -0.0026
25502SOL    HW288566   2.028   1.973   8.075 -1.0776  0.9905  0.6897
25503SOL     OW88567   3.229   3.320   4.063  0.4546  0.3529 -0.5644
25503SOL    HW188568   3.204   3.411   4.029 -1.2836  0.0265 -0.2284
25503SOL    HW288569   3.268   3.266   3.988  2.2471  1.6166 -0.5822
25504SOL     OW88570   1.695   3.187   9.011  0.2026  0.3825  0.1593
25504SOL    HW188571   1.763   3.168   9.083  0.0447  1.1574  0.5173
25504SOL    HW288572   1.647   3.103   8.988  0.4356  0.0758  0.7782
25505SOL     OW88573   7.425   8.195   7.783 -0.0867 -0.1973  0.2875
25505SOL    HW188574   7.374   8.237   7.708 -0.1262 -2.7647 -1.1982
25505SOL    HW288575   7.523   8.212   7.770 -0.0130 -1.4534 -0.9177
25506SOL     OW88576   4.095   0.120   9.174  0.0904  0.2335  0.5827
25506SOL    HW188577   4.186   0.091   9.144  0.0769 -0.7569  1.4512
25506SOL    HW288578   4.101   0.208   9.220  0.8394 -0.4336  1.8166
25507SOL     OW88579   8.906   8.987   6.086  0.0363  0.2522  0.1986
25507SOL    HW188580   8.929   8.928   6.007  1.0175 -0.6961  1.1703
25507SOL    HW288581   8.823   9.039   6.065 -1.5115 -2.3099 -0.2817
25508SOL     OW88582   0.081   4.504   9.267 -0.1591  0.1522 -0.1759
25508SOL    HW188583   0.051   4.520   9.360 -1.5433 -1.9712 -0.2178
25508SOL    HW288584   0.181   4.506   9.264 -0.0947  0.0588  1.3974
25509SOL     OW88585   3.909   7.383   2.117  0.5672 -0.2399  0.1441
25509SOL    HW188586   3.816   7.348   2.119  0.7052 -0.5580  2.3640
25509SOL    HW288587   3.969   7.316   2.072 -0.1219 -0.3609 -0.6165
25510SOL     OW88588   7.503   1.877   9.295 -0.0979 -0.2440 -0.3031
25510SOL    HW188589   7.496   1.819   9.377  0.8907 -2.1450 -1.5120
25510SOL    HW288590   7.413   1.883   9.251 -0.0642 -1.5389 -0.5848
25511SOL     OW88591   1.472   6.380   7.079  0.5481  0.1580  0.4923
25511SOL    HW188592   1.432   6.292   7.103  1.1978  0.3475  2.3368
25511SOL    HW288593   1.561   6.366   7.035 -0.2357 -0.1574 -1.0251
25512SOL     OW88594   7.745   5.089   5.322 -0.5229 -0.5721  0.3304
25512SOL    HW188595   7.786   5.013   5.373  2.5011 -0.5248 -1.8926
25512SOL    HW288596   7.735   5.063   5.226 -0.3342  1.4995 -0.2670
25513SOL     OW88597   0.673   7.272   6.507 -0.0531  0.2007 -0.8966
25513SOL    HW188598   0.733   7.263   6.428  0.1558  1.3434 -0.8801
25513SOL    HW288599   0.727   7.293   6.588 -0.3196 -0.3935 -0.5644
25514SOL     OW88600   2.489   1.119   5.983  0.2211 -0.0664  0.8124
25514SOL    HW188601   2.485   1.217   5.968  0.3611 -0.2095 -0.1636
25514SOL    HW288602   2.558   1.098   6.052 -0.2454  0.5686  1.4732
25515SOL     OW88603   9.630   7.916   1.252  0.4945  0.0240 -0.6054
25515SOL    HW188604   9.614   7.911   1.351 -1.2241  1.8668 -0.7589
25515SOL    HW288605   9.605   8.007   1.219  2.2148 -0.1872 -2.5553
25516SOL     OW88606   3.508   4.711   2.826  0.1182  0.8172  0.6602
25516SOL    HW188607   3.549   4.665   2.904 -0.3001  1.1674  1.0904
25516SOL    HW288608   3.480   4.803   2.852  1.8133  1.6828 -0.4420
25517SOL     OW88609   0.752   8.678   5.893  1.1296 -0.5080  0.0554
25517SOL    HW188610   0.756   8.596   5.950 -1.4317  0.1181  1.2105
25517SOL    HW288611   0.792   8.755   5.943  0.4294 -0.3294  0.3487
25518SOL     OW88612   3.309   4.853   4.142 -0.0839  0.0038 -0.2640
25518SOL    HW188613   3.261   4.771   4.172 -0.4596  0.5448  0.6238
25518SOL    HW288614   3.245   4.929   4.133  0.6905  0.9337  1.6840
25519SOL     OW88615   5.567   9.735   4.060 -0.2448 -0.1516  0.0742
25519SOL    HW188616   5.660   9.750   4.025  0.2309 -0.2174  1.2897
25519SOL    HW288617   5.503   9.792   4.010  0.1440 -1.7311 -2.2963
25520SOL     OW88618   7.682   0.557   6.058  0.1703  0.3273  0.1123
25520SOL    HW188619   7.734   0.597   5.982 -0.1728 -0.8644 -0.7610
25520SOL    HW288620   7.722   0.469   6.083 -0.4324  0.1675  0.5314
25521SOL     OW88621   8.384   2.576   3.371  0.2684  0.0905 -0.4665
25521SOL    HW188622   8.422   2.645   3.309  1.3873  0.6904  0.8578
25521SOL    HW288623   8.458   2.519   3.405 -0.5542 -1.2617 -0.9210
25522SOL     OW88624   8.842   6.961   2.626 -0.6079  0.1740 -0.1909
25522SOL    HW188625   8.842   7.054   2.588 -3.3464  0.4830  0.4422
25522SOL    HW288626   8.881   6.962   2.718 -0.4291  0.6597 -0.2694
25523SOL     OW88627   4.359   7.650   5.906  0.1411  0.1876  0.6311
25523SOL    HW188628   4.445   7.685   5.868  0.3329 -0.1476  0.7555
25523SOL    HW288629   4.372   7.556   5.935 -0.3668  0.0209  0.3256
25524SOL     OW88630   6.636   9.802   8.821  0.1858  0.1639 -0.1299
25524SOL    HW188631   6.566   9.816   8.751 -0.4317  0.5400  0.5462
25524SOL    HW288632   6.615   9.720   8.874 -0.0683  0.6001  0.4496
25525SOL     OW88633   9.869   5.213   9.025 -0.4013 -0.2622  0.1578
25525SOL    HW188634   9.851   5.267   8.943 -0.0926  2.5976  1.8672
25525SOL    HW288635   9.791   5.154   9.044 -0.8441 -0.2925 -1.6710
25526SOL     OW88636   8.133   3.071  10.049 -0.6730  0.1222  0.1968
25526SOL    HW188637   8.115   2.984  10.095  2.4305 -0.9007 -0.3618
25526SOL    HW288638   8.180   3.133  10.111 -0.1120  0.2406 -0.3395
25527SOL     OW88639   1.103   2.545   5.532  0.3437  0.6991 -0.0921
25527SOL    HW188640   1.088   2.458   5.578  0.9708  0.9426  0.5973
25527SOL    HW288641   1.121   2.530   5.435  0.5607  0.0577  0.0491
25528SOL     OW88642   9.606   4.455   7.346  0.1849  0.0174  0.2703
25528SOL    HW188643   9.681   4.510   7.383  1.0655  0.0725 -1.5659
25528SOL    HW288644   9.526   4.513   7.330 -0.3855 -0.0877  2.4669
25529SOL     OW88645   1.474   3.067   6.005 -0.2593 -0.0755 -0.0702
25529SOL    HW188646   1.551   3.101   6.059 -0.4121  1.4268 -0.7752
25529SOL    HW288647   1.413   3.014   6.064  0.7464 -0.3705  0.7255
25530SOL     OW88648   1.545   6.874   1.015  0.0475  0.2988 -0.3747
25530SOL    HW188649   1.623   6.934   1.028 -1.3172  1.8032  1.1002
25530SOL    HW288650   1.461   6.928   1.006 -1.3698 -1.3253  2.1800
25531SOL     OW88651   3.425   0.064   7.255  0.5159  0.5506  0.4146
25531SOL    HW188652   3.477   0.053   7.339  1.4247  0.9508 -0.0824
25531SOL    HW288653   3.471   0.015   7.181 -0.5728 -0.2605  0.2662
25532SOL     OW88654   4.624   3.571   8.661 -0.0648  0.0107 -0.1277
25532SOL    HW188655   4.681   3.518   8.599  0.9761 -0.1426  0.9270
25532SOL    HW288656   4.531   3.534   8.663  0.4042 -1.1575 -0.1267
25533SOL     OW88657   6.548   9.025   4.151 -0.5799  0.1019  0.1968
25533SOL    HW188658   6.599   9.052   4.069 -0.1789  0.6405  0.6212
25533SOL    HW288659   6.601   8.958   4.203  0.0941  1.3068  1.0892
25534SOL     OW88660   9.417   4.573   1.786 -0.4051  0.2658 -0.0291
25534SOL    HW188661   9.492   4.614   1.838  0.7931 -0.4426 -1.2010
25534SOL    HW288662   9.408   4.476   1.811  1.4388 -0.5820 -2.5541
25535SOL     OW88663   7.635   7.502   4.417 -0.2398  0.1322  0.2698
25535SOL    HW188664   7.558   7.438   4.407  0.7135 -1.0102  0.2041
25535SOL    HW288665   7.654   7.517   4.514 -0.2476  0.0639  0.2815
25536SOL     OW88666   5.222   6.614   3.086 -0.0764  0.3382 -0.1376
25536SOL    HW188667   5.265   6.541   3.033 -1.3143  0.3769 -1.2199
25536SOL    HW288668   5.280   6.636   3.165  1.9324  0.4702 -1.6069
25537SOL     OW88669   0.383   8.362   5.856  0.0152  0.2896 -0.0058
25537SOL    HW188670   0.306   8.313   5.897 -0.2138  1.5462  1.0976
25537SOL    HW288671   0.451   8.383   5.926  0.7164  0.4249 -0.7152
25538SOL     OW88672   1.791   8.545   8.336  0.4607 -0.1808  0.1329
25538SOL    HW188673   1.800   8.563   8.238  1.2151 -0.1984  0.1963
25538SOL    HW288674   1.697   8.562   8.364  0.8411  2.3867 -0.0785
25539SOL     OW88675   1.272   1.893   3.042 -0.1504  0.0791 -0.0755
25539SOL    HW188676   1.271   1.934   3.134 -0.4891  1.0220 -0.4902
25539SOL    HW288677   1.345   1.935   2.988  0.9099 -1.4136  0.1683
25540SOL     OW88678   2.126   4.670   2.778 -0.2223  0.3449 -0.1768
25540SOL    HW188679   2.205   4.646   2.721 -0.1137 -1.3509  0.6735
25540SOL    HW288680   2.152   4.665   2.874 -0.1716  3.9787  0.0621
25541SOL     OW88681   9.350   0.787   4.158 -0.8540 -0.4096  0.1609
25541SOL    HW188682   9.289   0.708   4.160 -1.5432  0.1289  1.3097
25541SOL    HW288683   9.297   0.871   4.170  0.1069  0.0652  1.2527
25542SOL     OW88684   3.611   4.737   1.654 -0.2842  0.4537  0.1790
25542SOL    HW188685   3.578   4.810   1.596  0.0905  0.2073 -0.3496
25542SOL    HW288686   3.546   4.661   1.654  0.3702 -0.1151 -1.0228
25543SOL     OW88687   0.804   8.715   7.282  0.1744  0.0061 -0.1377
25543SOL    HW188688   0.828   8.682   7.373  0.1985  0.2796 -0.0432
25543SOL    HW288689   0.872   8.684   7.216  0.3162  0.0516 -0.0135
25544SOL     OW88690   8.642   8.668   8.976 -0.6159 -0.3487  0.1293
25544SOL    HW188691   8.590   8.722   9.043 -0.7952 -1.5022  0.9415
25544SOL    HW288692   8.616   8.571   8.984  0.9390 -0.8024 -0.1349
25545SOL     OW88693   0.024   8.215   1.595 -0.6133  0.2102  0.0944
25545SOL    HW188694  -0.023   8.284   1.540  0.7916  0.3377 -0.9897
25545SOL    HW288695   0.058   8.257   1.679  0.4108  0.9106 -0.6565
25546SOL     OW88696   3.196   4.611   5.130 -0.5963 -0.2246 -0.5836
25546SOL    HW188697   3.222   4.680   5.197 -1.4054  0.8043 -1.3066
25546SOL    HW288698   3.227   4.640   5.039  0.3764 -1.5383 -0.6877
25547SOL     OW88699   2.624   9.219   8.907 -0.3645 -0.0332  0.1085
25547SOL    HW188700   2.628   9.153   8.981 -2.3106 -1.4309 -1.0029
25547SOL    HW288701   2.588   9.175   8.824 -2.8469  2.6495 -0.3329
25548SOL     OW88702   2.504   5.059   7.582  0.2314  0.4658  0.2702
25548SOL    HW188703   2.463   5.034   7.494 -1.7474 -0.9028  1.5250
25548SOL    HW288704   2.582   5.118   7.567  0.0387  0.0988 -2.4269
25549SOL     OW88705   9.235   8.899   3.656 -0.3666  0.1960  0.0748
25549SOL    HW188706   9.244   8.800   3.667  1.7113  0.3731  0.2259
25549SOL    HW288707   9.218   8.941   3.746  0.1282  0.1084  0.2092
25550SOL     OW88708   2.467   2.165   7.678  0.4627  0.0519 -0.0188
25550SOL    HW188709   2.451   2.230   7.753  1.3641  1.1492 -0.7467
25550SOL    HW288710   2.539   2.102   7.703  0.7174  0.3763  0.0690
25551SOL     OW88711   3.103   9.893   0.840  0.3488 -0.4290  0.5276
25551SOL    HW188712   3.055   9.981   0.842  0.2872 -0.4193 -0.8530
25551SOL    HW288713   3.056   9.830   0.778  2.3217 -0.2896 -1.1846
25552SOL     OW88714   1.170   7.275   4.438  0.1470 -0.8121 -0.1989
25552SOL    HW188715   1.256   7.309   4.475 -0.5457 -0.2415  0.9165
25552SOL    HW288716   1.099   7.278   4.509 -1.5279  1.4824 -1.8741
25553SOL     OW88717   9.198   1.818   1.840 -0.3029  0.3256  0.4771
25553SOL    HW188718   9.268   1.755   1.808 -0.4887  0.0082  0.6951
25553SOL    HW288719   9.133   1.836   1.766  0.6518  1.5346 -0.1020
25554SOL     OW88720   9.990   7.627   4.638 -0.3042  0.2655 -0.2100
25554SOL    HW188721   9.986   7.604   4.735  2.6368  0.6502  0.0394
25554SOL    HW288722  10.049   7.562   4.590  1.6501  2.4789 -0.9446
25555SOL     OW88723   0.072   7.894   3.463  0.2924  0.0503  0.4884
25555SOL    HW188724   0.117   7.814   3.504 -0.2778 -0.0886  0.8440
25555SOL    HW288725   0.103   7.977   3.510 -0.4506 -0.1198  1.2816
25556SOL     OW88726   4.877   5.359   4.672 -0.2445  0.0867  0.1424
25556SOL    HW188727   4.785   5.321   4.686 -0.7792  1.1600 -0.4607
25556SOL    HW288728   4.931   5.346   4.755 -0.4903 -1.7705  0.0477
25557SOL     OW88729   3.509   0.531   6.069  0.3192 -0.1082  0.3936
25557SOL    HW188730   3.576   0.498   6.003  1.1973 -0.6326  1.5283
25557SOL    HW288731   3.552   0.600   6.128 -0.5042  0.4878  0.3054
25558SOL     OW88732   1.943   6.998   8.643 -0.3519  0.2652 -0.0836
25558SOL    HW188733   1.850   7.026   8.665 -0.7423 -0.4347 -0.7840
25558SOL    HW288734   1.944   6.900   8.621  0.7958 -0.0571  1.3346
25559SOL     OW88735   1.162   6.901   1.962 -0.2969  0.5634  0.1432
25559SOL    HW188736   1.219   6.844   2.022 -0.1742  1.5968  1.0216
25559SOL    HW288737   1.130   6.846   1.885 -0.1109 -0.6710  0.9307
25560SOL     OW88738   0.506   6.887   9.552 -0.3400  0.6355 -0.2439
25560SOL    HW188739   0.487   6.936   9.637  2.8083  0.3137  0.6833
25560SOL    HW288740   0.577   6.935   9.500 -0.2856 -0.6507 -1.3963
25561SOL     OW88741   2.168   9.457   9.251 -0.1260  0.2543 -0.7394
25561SOL    HW188742   2.166   9.475   9.349 -1.0976  1.0508 -0.8996
25561SOL    HW288743   2.249   9.499   9.211  1.0781 -1.3566 -0.0381
25562SOL     OW88744   8.828   6.083   6.757  0.0034  0.0302 -0.2677
25562SOL    HW188745   8.791   6.022   6.827 -0.7413 -1.0233 -1.5554
25562SOL    HW288746   8.805   6.177   6.780 -1.4168 -0.4125  0.2218
25563SOL     OW88747   9.628   2.537   8.978  0.1182 -0.3172 -0.8353
25563SOL    HW188748   9.713   2.518   9.028 -1.3724 -0.5063  1.7494
25563SOL    HW288749   9.648   2.550   8.881  2.9822 -1.1619 -0.4061
25564SOL     OW88750   3.382   2.802   3.329 -0.3266  0.1594  0.0303
25564SOL    HW188751   3.378   2.808   3.428  0.8490  1.2748  0.0256
25564SOL    HW288752   3.459   2.745   3.302  0.2750  1.0991 -0.2586
25565SOL     OW88753   4.860   9.123   2.616  0.3287  0.2962 -0.7945
25565SOL    HW188754   4.815   9.165   2.537  0.2449 -1.4107 -1.6689
25565SOL    HW288755   4.798   9.057   2.658  0.7259  0.5056  0.1201
25566SOL     OW88756   9.709   5.230   5.297 -0.1708  0.4617 -0.0665
25566SOL    HW188757   9.803   5.255   5.319  0.2503 -1.6089  0.6946
25566SOL    HW288758   9.653   5.232   5.381  0.0054 -1.5141  0.1377
25567SOL     OW88759   6.727   3.697   1.545  0.4437 -0.4187 -0.0623
25567SOL    HW188760   6.752   3.677   1.451  0.2495 -2.2123  0.2544
25567SOL    HW288761   6.716   3.796   1.556  2.2312 -0.0292 -1.4627
25568SOL     OW88762   7.087   4.010   2.201  0.0589  0.1984  0.4630
25568SOL    HW188763   7.153   4.083   2.185  0.8758 -0.6069  0.1231
25568SOL    HW288764   7.007   4.024   2.143  0.2287  0.8036  0.3715
25569SOL     OW88765   3.544   0.204   9.117  0.5584  0.9115 -0.6051
25569SOL    HW188766   3.449   0.234   9.123  0.4372  0.4198  0.0328
25569SOL    HW288767   3.547   0.114   9.072  0.7845  1.2185 -1.2098
25570SOL     OW88768   7.848   3.266   8.247  0.5944 -0.1251 -0.1930
25570SOL    HW188769   7.923   3.223   8.297 -0.9409  1.0829  3.3543
25570SOL    HW288770   7.879   3.354   8.209  0.9422  0.4756  1.4447
25571SOL     OW88771   5.486   1.360   1.058 -0.2531  0.4421 -0.4780
25571SOL    HW188772   5.392   1.359   1.091  0.4276 -1.8477  1.5994
25571SOL    HW288773   5.541   1.421   1.116 -0.0981  0.3385 -0.5145
25572SOL     OW88774   3.126   2.466   4.961  0.0892  0.5198  0.1213
25572SOL    HW188775   3.205   2.523   4.983  0.7358 -0.6857  0.9541
25572SOL    HW288776   3.152   2.397   4.894  0.1702 -0.9038  1.5892
25573SOL     OW88777   9.135   2.655   1.375  0.1454  0.2340  0.3770
25573SOL    HW188778   9.106   2.686   1.465  2.5839  2.1622  0.5646
25573SOL    HW288779   9.227   2.617   1.380  0.5650  0.9499 -1.3935
25574SOL     OW88780   1.140   8.375   5.568 -0.1609 -0.2333  0.1363
25574SOL    HW188781   1.188   8.425   5.496  0.0086 -0.2728  0.2235
25574SOL    HW288782   1.187   8.387   5.655  0.2336 -1.0586  0.0403
25575SOL     OW88783   1.270   8.060   9.980 -0.2623  0.2314 -0.0845
25575SOL    HW188784   1.235   8.137  10.033 -0.5209  0.5237 -0.6722
25575SOL    HW288785   1.246   8.073   9.883 -0.8270 -0.8764 -0.1033
25576SOL     OW88786   7.351   4.173   3.381  0.4615  0.7341 -0.3098
25576SOL    HW188787   7.381   4.083   3.349 -0.2305  0.3357  0.1757
25576SOL    HW288788   7.431   4.226   3.410  0.9007  0.3985 -0.8926
25577SOL     OW88789   0.733   4.282   4.813  0.1709 -0.1233  0.2886
25577SOL    HW188790   0.762   4.349   4.881  1.2229  0.7376 -0.9862
25577SOL    HW288791   0.659   4.225   4.851 -0.4955  1.5223  1.4986
25578SOL     OW88792   1.811   8.840   0.027 -0.3507  0.7503 -0.2721
25578SOL    HW188793   1.829   8.809   0.121 -0.8818 -0.0290 -0.4158
25578SOL    HW288794   1.854   8.928   0.012 -0.3131  0.9121  0.7327
25579SOL     OW88795   1.840   0.137   8.130 -0.1447 -0.0383 -0.4614
25579SOL    HW188796   1.779   0.185   8.193  0.4381 -0.9491  0.8340
25579SOL    HW288797   1.827   0.038   8.139  0.9117 -0.2167 -0.7850
25580SOL     OW88798   2.040   9.190   6.708  0.6053  0.2840 -0.1583
25580SOL    HW188799   2.105   9.115   6.701  4.1356  3.3627 -2.9957
25580SOL    HW288800   2.053   9.238   6.794 -1.5316 -2.1370  1.5745
25581SOL     OW88801   0.537   7.762   8.576  0.2302 -0.5988 -0.4450
25581SOL    HW188802   0.513   7.856   8.552 -1.7216 -1.2700 -1.2712
25581SOL    HW288803   0.570   7.714   8.495  1.9354 -0.4427  0.1322
25582SOL     OW88804   3.753   4.689   4.446  0.0137  0.5818 -0.2304
25582SOL    HW188805   3.746   4.666   4.349 -0.9127  1.4770 -0.3892
25582SOL    HW288806   3.673   4.653   4.495  1.2406 -1.2248  0.4955
25583SOL     OW88807   9.103   6.835   6.502  0.0364  0.2841 -0.1486
25583SOL    HW188808   9.189   6.799   6.463 -0.0281 -0.5221  0.4388
25583SOL    HW288809   9.088   6.795   6.592  0.0140  1.9000  0.5803
25584SOL     OW88810   3.996   8.098   7.482 -0.6070 -0.2845  0.0060
25584SOL    HW188811   4.027   8.100   7.577  0.4754 -0.2098 -0.3516
25584SOL    HW288812   4.000   8.191   7.444  0.8409 -0.6382 -0.7200
25585SOL     OW88813   8.207   2.009   6.061 -0.1090  0.3505 -0.7021
25585SOL    HW188814   8.245   2.060   6.138 -0.6211  1.3119 -1.0908
25585SOL    HW288815   8.282   1.971   6.006  0.2664  0.4923 -0.2912
25586SOL     OW88816   0.974   8.861   4.146  0.4763  0.8787 -0.4202
25586SOL    HW188817   1.026   8.925   4.090  2.9458 -0.6076  0.0879
25586SOL    HW288818   1.012   8.858   4.239  2.0409 -3.0846 -1.0903
25587SOL     OW88819   3.553   7.751   6.155  0.1022 -0.5115 -0.2012
25587SOL    HW188820   3.464   7.717   6.124  0.3248  0.5634 -2.0387
25587SOL    HW288821   3.546   7.849   6.176  0.7752 -0.4917 -0.0624
25588SOL     OW88822   3.391   3.431   8.376  0.9599  0.2740 -0.0125
25588SOL    HW188823   3.425   3.354   8.321 -1.3932 -0.4849 -0.4662
25588SOL    HW288824   3.375   3.509   8.316  1.8959  0.6446  0.2072
25589SOL     OW88825   4.612   0.709   6.884  0.4434  0.9015  0.6389
25589SOL    HW188826   4.577   0.743   6.971  0.4685  1.3605  0.4720
25589SOL    HW288827   4.650   0.618   6.897  0.3267  0.9129  1.0806
25590SOL     OW88828   7.334   9.726   4.692  0.3927 -0.4774 -0.0988
25590SOL    HW188829   7.373   9.800   4.746  0.3628  0.3403 -1.1647
25590SOL    HW288830   7.285   9.765   4.613  0.5924 -1.6394 -0.8114
25591SOL     OW88831   2.195   0.297   4.954  0.2976  0.1858  0.6980
25591SOL    HW188832   2.221   0.378   4.902  0.0421 -0.3678 -0.3143
25591SOL    HW288833   2.267   0.275   5.021  2.1610 -0.9163 -1.5765
25592SOL     OW88834   2.270   6.652   1.446 -0.1821  0.0360 -0.1279
25592SOL    HW188835   2.305   6.619   1.359 -0.7306  0.0882 -0.3678
25592SOL    HW288836   2.305   6.594   1.520 -0.4770 -0.5852 -0.4729
25593SOL     OW88837   7.516   8.766   2.646 -0.5642  0.0138  0.5239
25593SOL    HW188838   7.516   8.696   2.718 -2.2722 -0.6733 -0.1186
25593SOL    HW288839   7.572   8.734   2.569 -1.1874 -0.5783  0.3076
25594SOL     OW88840   1.319   6.149   1.159  0.4283  0.4171  0.3401
25594SOL    HW188841   1.318   6.191   1.249 -0.2384  2.2332 -0.4981
25594SOL    HW288842   1.310   6.220   1.089  1.1614 -0.9414 -1.1644
25595SOL     OW88843   9.252   2.829   3.187  0.1188 -0.1345 -0.0225
25595SOL    HW188844   9.154   2.809   3.187  0.3234 -1.3518 -2.3534
25595SOL    HW288845   9.277   2.876   3.102  1.5174  0.4212  0.6720
25596SOL     OW88846   1.770   4.701   8.270  0.2724  0.4510  0.7133
25596SOL    HW188847   1.738   4.723   8.178 -2.0735 -0.7304  1.1810
25596SOL    HW288848   1.849   4.641   8.265  0.9907  1.4864 -0.5191
25597SOL     OW88849   8.307   6.441   7.128 -0.5163 -0.7381 -0.3615
25597SOL    HW188850   8.239   6.461   7.057 -1.1204  1.2179  0.7316
25597SOL    HW288851   8.263   6.395   7.204 -0.9816  1.8049  0.9744
25598SOL     OW88852   9.678   4.735   7.255  0.6169  0.0740 -0.3022
25598SOL    HW188853   9.690   4.821   7.206  0.7672  0.1998 -0.0468
25598SOL    HW288854   9.581   4.709   7.254  0.2175  1.3679  1.4896
25599SOL     OW88855   0.335   4.844   6.221 -0.0943 -0.5740  0.5363
25599SOL    HW188856   0.280   4.921   6.255  1.4043  0.4165  0.7511
25599SOL    HW288857   0.319   4.764   6.280 -1.0040 -0.1853  0.8286
25600SOL     OW88858   4.655   5.699   0.871 -0.2039  0.4121  0.0527
25600SOL    HW188859   4.664   5.667   0.777  0.2376  1.9780 -0.4519
25600SOL    HW288860   4.559   5.718   0.892 -0.2991  0.0805 -0.0882
25601SOL     OW88861   1.801   3.768   8.666 -0.5121  0.2582 -1.0182
25601SOL    HW188862   1.717   3.819   8.687  0.2013  1.0074  0.0685
25601SOL    HW288863   1.859   3.765   8.747 -0.1776 -1.6087 -1.3177
25602SOL     OW88864   9.741   3.063   8.208  0.4277 -0.4007 -0.5422
25602SOL    HW188865   9.805   3.024   8.142  0.5142 -1.6343  0.2466
25602SOL    HW288866   9.788   3.133   8.262  1.4684 -2.0812  0.7949
25603SOL     OW88867   9.771   0.739   8.398  0.2348  0.4162  1.2162
25603SOL    HW188868   9.846   0.674   8.383 -0.0744  0.3546 -0.0913
25603SOL    HW288869   9.786   0.821   8.343 -1.7209 -0.4677 -0.7057
25604SOL     OW88870   3.696   2.345   9.251 -0.5343 -0.4574  0.4142
25604SOL    HW188871   3.606   2.302   9.248 -0.9185  0.2936  1.1550
25604SOL    HW288872   3.725   2.356   9.346 -0.2314  0.5000  0.2124
25605SOL     OW88873   9.179   3.698   9.292 -0.4343  0.2146 -1.2328
25605SOL    HW188874   9.253   3.689   9.358 -0.3508  2.9692 -0.8736
25605SOL    HW288875   9.100   3.740   9.336 -1.6957 -1.3469 -1.9792
25606SOL     OW88876   8.684   0.218   4.707 -0.2635 -0.1116 -0.5550
25606SOL    HW188877   8.587   0.194   4.707 -0.0280 -1.1182 -1.4434
25606SOL    HW288878   8.713   0.240   4.800 -1.1201 -0.7515 -0.1280
25607SOL     OW88879   7.855   0.464   6.790 -0.1225  0.1603  0.7787
25607SOL    HW188880   7.837   0.448   6.693  0.5230  0.4689  0.6064
25607SOL    HW288881   7.787   0.416   6.845 -0.8542  0.4917  0.1625
25608SOL     OW88882   5.398   4.276   1.924 -0.1357 -0.1255  0.2747
25608SOL    HW188883   5.472   4.299   1.860 -0.1400  1.4064  0.7907
25608SOL    HW288884   5.435   4.231   2.005  0.1225 -0.1779  0.1252
25609SOL     OW88885   4.511   9.680   1.117 -0.3759  0.4909  0.6052
25609SOL    HW188886   4.566   9.722   1.046 -0.1058 -0.9513 -0.0515
25609SOL    HW288887   4.519   9.734   1.201  0.4710  1.3771 -0.0266
25610SOL     OW88888   5.787   1.630   5.482  0.2586 -0.8343  0.2012
25610SOL    HW188889   5.881   1.596   5.475 -0.0925 -1.8405  0.2700
25610SOL    HW288890   5.785   1.711   5.540  1.2658 -0.0738 -0.8080
25611SOL     OW88891   3.098   6.006   2.492 -0.2723  0.1142 -1.0432
25611SOL    HW188892   3.082   6.087   2.436 -0.1485  1.5743  0.9937
25611SOL    HW288893   3.147   5.938   2.437 -1.5578  0.8449 -3.1919
25612SOL     OW88894   0.334   1.104   2.181  0.3459 -0.0505 -0.0473
25612SOL    HW188895   0.380   1.020   2.211 -2.7889 -1.4356  1.0575
25612SOL    HW288896   0.239   1.084   2.157 -0.0195  2.9098 -1.3295
25613SOL     OW88897   5.631   1.207   1.685  0.0566 -0.7170 -0.2716
25613SOL    HW188898   5.622   1.111   1.660  0.0916 -1.1254  1.2266
25613SOL    HW288899   5.724   1.239   1.664  0.2035 -1.1567 -0.2919
25614SOL     OW88900   1.604   0.653   2.310 -0.3272  0.3368  0.0530
25614SOL    HW188901   1.557   0.654   2.221  0.1791  1.6351 -0.2094
25614SOL    HW288902   1.665   0.575   2.315 -1.9347 -0.9460  0.0942
25615SOL     OW88903   4.175   4.258   4.778  0.2835 -0.1941 -0.1862
25615SOL    HW188904   4.216   4.345   4.750  0.7207 -0.1949  0.4451
25615SOL    HW288905   4.246   4.189   4.786  0.1645 -0.1945  0.9273
25616SOL     OW88906   3.261   9.686   7.596 -0.8079  0.0308 -0.2844
25616SOL    HW188907   3.183   9.724   7.647 -0.8381 -1.5259  0.8897
25616SOL    HW288908   3.229   9.647   7.510 -1.1148  0.6086 -0.4349
25617SOL     OW88909   2.486   2.338   7.887  0.0893 -0.5202 -0.0127
25617SOL    HW188910   2.468   2.376   7.978 -1.1489  0.3503 -0.6086
25617SOL    HW288911   2.582   2.356   7.863 -0.1001  1.0223  0.3066
25618SOL     OW88912   2.155   3.403   1.255  0.2421  0.1096  0.1055
25618SOL    HW188913   2.122   3.331   1.316  1.0205  0.0009  0.4087
25618SOL    HW288914   2.092   3.413   1.178 -0.7224  0.2168  0.8984
25619SOL     OW88915   0.549   5.467   3.407 -0.1544  0.1373 -0.9159
25619SOL    HW188916   0.598   5.495   3.324 -0.0935 -0.8889 -1.2274
25619SOL    HW288917   0.485   5.539   3.434  1.7884  1.6793 -0.2898
25620SOL     OW88918   8.151   6.488   5.000  0.1693 -0.4362  0.4034
25620SOL    HW188919   8.214   6.451   4.932  2.0779 -1.2411  2.5483
25620SOL    HW288920   8.067   6.433   5.002  0.5864 -1.1010 -0.4737
25621SOL     OW88921   2.867   9.525   5.028  0.0533  0.2225  0.1427
25621SOL    HW188922   2.907   9.551   4.940  0.9357 -0.3304  0.3767
25621SOL    HW288923   2.800   9.451   5.014  0.4200 -0.0766 -0.0212
25622SOL     OW88924   0.089   7.853   3.196 -0.3746 -0.0634  0.4997
25622SOL    HW188925   0.121   7.761   3.173 -1.6725 -0.6100  0.7843
25622SOL    HW288926   0.082   7.861   3.296  1.4525  0.9523  0.5481
25623SOL     OW88927   3.106   1.396   9.591  0.1292  0.2115  0.2901
25623SOL    HW188928   3.192   1.444   9.605  1.1529 -1.1075 -1.2414
25623SOL    HW288929   3.097   1.322   9.657  0.8375 -0.5206 -0.4236
25624SOL     OW88930   4.321   5.485   1.437  0.5888 -0.5722  0.0207
25624SOL    HW188931   4.348   5.574   1.399  1.4690 -0.1471  1.5939
25624SOL    HW288932   4.320   5.491   1.537 -3.4263 -1.1454  0.0803
25625SOL     OW88933   0.542   4.800   5.320 -0.1541 -0.2970  0.1210
25625SOL    HW188934   0.460   4.802   5.263  0.0858 -0.5799 -0.2353
25625SOL    HW288935   0.617   4.758   5.270 -0.4253 -2.2188  1.2705
25626SOL     OW88936   6.524   4.827   8.885  0.0278 -0.5565 -0.3388
25626SOL    HW188937   6.570   4.770   8.953  0.7640 -0.1746 -0.5123
25626SOL    HW288938   6.587   4.896   8.851 -0.8969  0.4554 -0.0317
25627SOL     OW88939   4.046   3.081   1.830  0.0499 -0.0492  0.1793
25627SOL    HW188940   3.961   3.060   1.783  0.7357 -1.2829 -0.5431
25627SOL    HW288941   4.119   3.097   1.762  0.6669 -0.2216  0.7922
25628SOL     OW88942   8.578   0.848   6.908  0.0552  0.2397  0.0062
25628SOL    HW188943   8.546   0.867   7.001 -0.5562  1.8454 -0.5134
25628SOL    HW288944   8.663   0.899   6.892  1.0905 -1.3729  0.2466
25629SOL     OW88945   1.079   7.332   0.177 -0.5466 -0.3799 -0.1366
25629SOL    HW188946   1.098   7.413   0.233 -0.9584  0.2670 -0.9111
25629SOL    HW288947   0.980   7.327   0.159 -0.3368 -0.1252 -1.4455
25630SOL     OW88948   4.314   8.071   5.261  0.1760 -0.1647 -0.3456
25630SOL    HW188949   4.366   8.131   5.322  2.2575 -2.1063 -0.1316
25630SOL    HW288950   4.264   8.003   5.316 -1.0138  0.4523 -0.6468
25631SOL     OW88951   8.284   7.726   2.048  0.2401  0.3642  0.4763
25631SOL    HW188952   8.221   7.682   1.984  0.7057  1.3587 -0.6879
25631SOL    HW288953   8.237   7.799   2.097 -0.1776 -0.5474  1.4479
25632SOL     OW88954   4.297   2.226   6.595 -0.3298  0.0399  0.3811
25632SOL    HW188955   4.378   2.277   6.623 -0.4761  0.0496  0.7914
25632SOL    HW288956   4.319   2.169   6.516 -0.0379  0.3703  0.2273
25633SOL     OW88957   7.516   2.527   3.584  0.0164  0.0408  0.3592
25633SOL    HW188958   7.604   2.554   3.545 -0.4217  1.9765  0.6682
25633SOL    HW288959   7.451   2.512   3.510 -0.0122  0.8441  0.2167
25634SOL     OW88960   7.027   7.655   7.159 -0.0468 -0.0997 -0.0819
25634SOL    HW188961   6.944   7.706   7.181 -0.4651 -0.1502 -1.5283
25634SOL    HW288962   7.066   7.689   7.073  1.3575 -0.1699  0.5049
25635SOL     OW88963   8.065   6.749   3.895 -0.4669  0.5580  0.2455
25635SOL    HW188964   8.063   6.688   3.816 -2.1006  1.1359 -0.1805
25635SOL    HW288965   8.136   6.719   3.959 -1.1649 -1.7344 -0.0036
25636SOL     OW88966   2.342   5.963   4.246 -0.1744  0.2264 -0.7933
25636SOL    HW188967   2.348   6.037   4.179  0.0036  0.6239 -0.3465
25636SOL    HW288968   2.345   6.002   4.338 -0.5497 -0.3045 -0.5559
25637SOL     OW88969   5.553   4.326   1.222 -0.3706 -0.1941  0.1576
25637SOL    HW188970   5.585   4.373   1.304 -1.3649  1.2313 -0.2358
25637SOL    HW288971   5.564   4.228   1.232 -0.0456  0.0096  1.8104
25638SOL     OW88972   1.285   8.066   0.553 -0.0592 -0.1892  0.0287
25638SOL    HW188973   1.241   8.150   0.522  0.0274 -0.5684 -1.1795
25638SOL    HW288974   1.220   7.990   0.547  0.1074 -0.3573  0.3357
25639SOL     OW88975   8.956   3.727   0.834  0.4313  0.2648  0.1835
25639SOL    HW188976   8.928   3.688   0.746  0.6970  1.1879 -0.3239
25639SOL    HW288977   8.927   3.667   0.908  1.3086 -1.1676 -0.6053
25640SOL     OW88978   7.474   7.717   8.850  0.5767  0.1167  0.0473
25640SOL    HW188979   7.529   7.718   8.933 -0.3738  2.1963  0.6857
25640SOL    HW288980   7.508   7.647   8.787  3.6887  1.1068  0.5765
25641SOL     OW88981   3.009   7.307   9.602 -0.2438 -0.0943  0.3079
25641SOL    HW188982   2.999   7.395   9.555 -1.1446  0.9717  2.4029
25641SOL    HW288983   3.080   7.315   9.672 -0.2334 -1.0852  0.4169
25642SOL     OW88984   0.142   0.437   6.236  0.5263 -0.5231  0.1622
25642SOL    HW188985   0.046   0.414   6.220  0.5090 -0.5314  0.2767
25642SOL    HW288986   0.163   0.426   6.333  0.1241  1.4383  0.4862
25643SOL     OW88987   9.405   9.935  10.008  0.3440 -0.6239 -0.2000
25643SOL    HW188988   9.476   9.984   9.957  0.9621 -1.4652 -0.1466
25643SOL    HW288989   9.356  10.000  10.066  0.2535  0.1755 -1.1480
25644SOL     OW88990   9.306   3.780   7.991 -0.5460  0.1125 -0.4301
25644SOL    HW188991   9.231   3.785   8.057 -0.6983  1.4012 -0.6858
25644SOL    HW288992   9.377   3.845   8.017 -1.1863  1.5897 -2.2268
25645SOL     OW88993   8.003   0.901   5.454 -0.4222 -0.1699 -0.4431
25645SOL    HW188994   8.009   0.897   5.553  1.7383  0.9698 -0.5057
25645SOL    HW288995   7.992   0.996   5.425 -2.0567 -0.5858 -1.2587
25646SOL     OW88996   3.411   6.072   1.054  0.7185 -0.3823 -0.2450
25646SOL    HW188997   3.414   6.166   1.088 -2.0201  0.2698 -1.6848
25646SOL    HW288998   3.426   6.072   0.955 -1.3674 -1.2283 -0.5847
25647SOL     OW88999   1.767   7.057   0.754  0.5310 -0.4770  0.6004
25647SOL    HW189000   1.803   7.150   0.750 -2.6496  0.7947 -0.4831
25647SOL    HW289001   1.668   7.059   0.742  0.6428 -4.2217 -2.0372
25648SOL     OW89002   8.151   2.907   4.887  0.4619 -0.2988  0.3377
25648SOL    HW189003   8.185   2.842   4.819 -1.4449 -0.3497 -0.6089
25648SOL    HW289004   8.180   2.878   4.978  2.5207 -0.5690 -0.3774
25649SOL     OW89005   1.809   6.346   7.826 -0.0284 -0.4441 -0.3071
25649SOL    HW189006   1.866   6.363   7.746 -1.2061 -2.9616 -1.7652
25649SOL    HW289007   1.825   6.253   7.859 -1.2325 -0.2187  0.9691
25650SOL     OW89008   9.946   6.872   7.154  0.2387 -0.3796 -0.7645
25650SOL    HW189009   9.880   6.798   7.157  0.0026 -0.1985 -1.4959
25650SOL    HW289010   9.904   6.956   7.190 -0.1964 -0.0598 -2.0149
25651SOL     OW89011   3.609   1.732   1.240 -0.5878  0.8140  0.5183
25651SOL    HW189012   3.677   1.757   1.309  1.7652 -1.4564 -0.9024
25651SOL    HW289013   3.641   1.762   1.150 -0.0459 -2.8701 -0.5612
25652SOL     OW89014   5.227   0.745   6.085  0.1093 -0.0824  0.0662
25652SOL    HW189015   5.177   0.721   6.003 -2.0670 -1.9640  1.8806
25652SOL    HW289016   5.283   0.826   6.067 -2.0266  0.8882 -2.6060
25653SOL     OW89017   3.120   2.284   5.375  0.6193 -0.2076  0.0753
25653SOL    HW189018   3.210   2.326   5.368  0.9238 -0.8728 -0.0914
25653SOL    HW289019   3.062   2.338   5.436  0.7357  0.8994 -0.7795
25654SOL     OW89020   7.422   7.118   5.345 -0.0227 -0.0744  0.5922
25654SOL    HW189021   7.381   7.041   5.395 -0.9751 -0.5447 -0.8858
25654SOL    HW289022   7.476   7.083   5.269 -1.5903  0.7557 -0.9219
25655SOL     OW89023   5.611   1.565   6.640 -0.3282 -0.3965 -0.1720
25655SOL    HW189024   5.617   1.555   6.739  0.2027 -0.7417 -0.2344
25655SOL    HW289025   5.703   1.556   6.601 -0.4980  0.0240 -0.6680
25656SOL     OW89026   7.741   8.720   8.688  0.3347 -0.2362  0.4333
25656SOL    HW189027   7.729   8.819   8.686 -0.0699 -0.2742  0.8921
25656SOL    HW289028   7.783   8.693   8.774  1.8195 -0.3207 -0.2889
25657SOL     OW89029   1.693   2.762   3.402  0.3051  0.0877  0.5018
25657SOL    HW189030   1.640   2.797   3.325  0.7085 -1.9082 -0.7049
25657SOL    HW289031   1.677   2.820   3.482 -0.6619  1.7673 -0.8793
25658SOL     OW89032   2.482   7.782   7.030  0.1792 -0.3713  0.2951
25658SOL    HW189033   2.434   7.868   7.017  1.2138  0.2625  0.6477
25658SOL    HW289034   2.513   7.775   7.125  0.7447 -0.7942  0.0790
25659SOL     OW89035   4.245   4.799   3.833  0.4900  0.4382  0.1106
25659SOL    HW189036   4.189   4.720   3.858  1.8629 -1.0850 -1.4572
25659SOL    HW289037   4.222   4.828   3.740 -1.6377  3.3983  1.4928
25660SOL     OW89038   3.358   2.921   8.945  0.2109 -0.1575  0.0448
25660SOL    HW189039   3.397   2.979   9.016  1.7596 -1.9028  0.6571
25660SOL    HW289040   3.267   2.892   8.972  0.5803 -0.3771  1.0834
25661SOL     OW89041   9.583   4.875   0.269 -0.1523  1.0324  0.2159
25661SOL    HW189042   9.541   4.833   0.350  0.4623 -0.2992 -0.1383
25661SOL    HW289043   9.513   4.922   0.216 -0.5200  2.1918  1.6680
25662SOL     OW89044   3.938   2.066   2.515  0.4443 -0.5043 -0.6092
25662SOL    HW189045   3.900   2.037   2.603  0.5239  0.6567 -0.1936
25662SOL    HW289046   4.038   2.074   2.523  0.5548 -1.3643 -1.0820
25663SOL     OW89047   6.452   5.469   7.632  0.1484 -0.2865  0.2060
25663SOL    HW189048   6.462   5.494   7.536  0.5569  1.7005  0.7336
25663SOL    HW289049   6.526   5.408   7.659  0.9457  0.4226 -0.3503
25664SOL     OW89050   1.028   0.524   5.523  0.2742  0.8824 -0.3870
25664SOL    HW189051   1.127   0.525   5.537  0.0437 -0.4572  1.4862
25664SOL    HW289052   0.982   0.556   5.606 -0.9407 -1.6671 -0.0143
25665SOL     OW89053   1.490   0.061   8.781 -0.0838 -0.0034 -0.2452
25665SOL    HW189054   1.585   0.053   8.811 -0.5967  0.0859  1.4379
25665SOL    HW289055   1.473   0.153   8.746  0.2447  0.2124  0.1676
25666SOL     OW89056   1.787   4.117   1.407 -0.1844  0.5797 -0.3414
25666SOL    HW189057   1.733   4.103   1.490 -0.5477 -1.5000 -0.9017
25666SOL    HW289058   1.725   4.126   1.329  0.1776  1.8613 -0.4871
25667SOL     OW89059   3.318   7.070   4.161 -0.5427  0.0625 -0.1471
25667SOL    HW189060   3.344   7.146   4.221 -0.1233 -0.8743  0.8799
25667SOL    HW289061   3.387   6.997   4.168 -0.9504 -0.4178 -1.1006
25668SOL     OW89062   5.371   2.517   5.084  0.6307 -0.1200 -0.6814
25668SOL    HW189063   5.275   2.523   5.058  0.4568 -0.1651 -0.0583
25668SOL    HW289064   5.378   2.499   5.183  1.2864  4.0245  0.1330
25669SOL     OW89065   0.275   6.279   6.667  0.2157  0.1633 -0.3266
25669SOL    HW189066   0.255   6.360   6.721 -0.6559 -0.6174  0.5481
25669SOL    HW289067   0.287   6.200   6.728 -0.3316 -0.6407 -1.2335
25670SOL     OW89068   3.155   7.909   0.808  0.3716 -0.0201 -0.2448
25670SOL    HW189069   3.130   7.955   0.893  2.1940 -0.4595  0.5527
25670SOL    HW289070   3.216   7.967   0.754  1.1695 -0.7095 -0.1045
25671SOL     OW89071   1.334   5.707   9.308  0.6458  0.2154  0.5288
25671SOL    HW189072   1.334   5.608   9.323 -2.2567  0.1190  0.2151
25671SOL    HW289073   1.387   5.729   9.227 -0.7621 -1.3790 -0.8700
25672SOL     OW89074   4.000   1.464   2.219  0.4519 -0.2195 -0.3341
25672SOL    HW189075   3.933   1.392   2.235 -0.8182  0.7109 -1.3481
25672SOL    HW289076   4.062   1.436   2.146  0.1454 -0.4071 -0.5260
25673SOL     OW89077   0.340   5.520   9.725 -0.1028  0.5795  0.2564
25673SOL    HW189078   0.396   5.551   9.801  0.4165  1.3098 -0.4085
25673SOL    HW289079   0.278   5.593   9.697  0.4537  0.6938 -0.7042
25674SOL     OW89080   7.582   0.913   8.983 -0.2781  0.4013 -0.3690
25674SOL    HW189081   7.501   0.910   9.041 -0.0205  0.2494 -0.0089
25674SOL    HW289082   7.664   0.910   9.041 -0.0142 -2.0051 -0.8424
25675SOL     OW89083   1.553   1.654   2.685 -0.1344 -0.2735  0.3756
25675SOL    HW189084   1.632   1.600   2.713 -1.4586 -2.6042 -0.2964
25675SOL    HW289085   1.497   1.601   2.621 -1.1006  2.1594 -0.8723
25676SOL     OW89086   0.948   1.016   6.371  0.1910 -0.1578 -0.1563
25676SOL    HW189087   0.900   1.034   6.285  1.9748 -2.7016 -1.7539
25676SOL    HW289088   1.042   1.051   6.365  0.5156 -0.8845  0.4970
25677SOL     OW89089   8.539   2.606   9.896  0.2903 -0.2469  0.1385
25677SOL    HW189090   8.616   2.629   9.836  1.9179 -0.9061  1.9635
25677SOL    HW289091   8.466   2.564   9.841  0.0650  2.8555 -2.0882
25678SOL     OW89092   7.635   7.433   2.695  0.0600 -0.0086  0.2888
25678SOL    HW189093   7.660   7.352   2.643  2.6019 -0.4940  2.1912
25678SOL    HW289094   7.674   7.514   2.652  0.2159 -0.1404  0.1832
25679SOL     OW89095   2.668   3.725   6.079  0.4837  0.2431 -0.3638
25679SOL    HW189096   2.594   3.659   6.089  0.0264  0.7041 -0.6583
25679SOL    HW289097   2.717   3.734   6.166 -1.2804  1.6446  0.5275
25680SOL     OW89098   4.085   8.547   1.235  0.4513 -0.2844  0.1536
25680SOL    HW189099   4.148   8.624   1.249  0.7396 -0.5986  0.6182
25680SOL    HW289100   4.063   8.506   1.323  0.6780 -1.0295 -0.1331
25681SOL     OW89101   8.563   5.250   4.636  0.0447  0.3263  0.1225
25681SOL    HW189102   8.610   5.257   4.724  0.3431  1.9799 -0.1494
25681SOL    HW289103   8.610   5.182   4.579  1.3658  1.0364  0.3309
25682SOL     OW89104   7.973   9.335   3.526  0.5779 -0.0729  0.2194
25682SOL    HW189105   8.066   9.349   3.558  0.3086  2.9636 -0.1472
25682SOL    HW289106   7.910   9.336   3.604  0.4924  1.5991  0.1369
25683SOL     OW89107   2.085   0.951   1.712 -0.0421 -0.6690 -0.4787
25683SOL    HW189108   2.076   1.050   1.724 -0.6893 -0.6591 -1.0114
25683SOL    HW289109   2.016   0.919   1.646 -0.4037 -1.5926  0.3300
25684SOL     OW89110   2.446   9.399   3.273 -0.7738 -0.3770  0.1076
25684SOL    HW189111   2.473   9.371   3.365 -1.1119  0.7776  0.5661
25684SOL    HW289112   2.371   9.341   3.241 -0.0247 -1.3981  0.1731
25685SOL     OW89113   6.522   0.798   4.609 -0.6088  0.3200 -0.7641
25685SOL    HW189114   6.517   0.811   4.510 -2.5443  0.7793 -0.6252
25685SOL    HW289115   6.432   0.815   4.650 -0.0952 -0.9419  0.9539
25686SOL     OW89116   2.882   2.356   4.618 -0.1463 -0.6664  0.2180
25686SOL    HW189117   2.846   2.376   4.709 -0.0387  1.9818 -0.2842
25686SOL    HW289118   2.809   2.319   4.561 -1.3982  1.9946  0.0456
25687SOL     OW89119   5.259   1.789   8.149 -0.3540 -0.0741 -0.0888
25687SOL    HW189120   5.286   1.878   8.111 -0.4366  0.1699  0.4083
25687SOL    HW289121   5.247   1.799   8.248  0.4363 -0.8328  0.0896
25688SOL     OW89122   8.171   9.095   3.687 -0.1741 -0.6526  0.2386
25688SOL    HW189123   8.173   8.999   3.714 -0.8816 -0.4263  1.0673
25688SOL    HW289124   8.198   9.153   3.764 -0.9534 -0.1007  0.1014
25689SOL     OW89125   7.867   2.558   9.450 -0.0045 -0.1020 -0.3877
25689SOL    HW189126   7.877   2.654   9.473  0.0205  0.2239 -1.7070
25689SOL    HW289127   7.772   2.530   9.466  0.4176 -0.3708  1.8008
25690SOL     OW89128   2.819   6.250   1.870  0.1311 -0.0449 -0.3299
25690SOL    HW189129   2.793   6.217   1.779 -0.7586  0.1702 -0.1587
25690SOL    HW289130   2.836   6.349   1.866  0.4813 -0.1044 -0.3430
25691SOL     OW89131   9.796   1.958   7.567  0.1751 -0.0879 -0.0740
25691SOL    HW189132   9.707   1.935   7.527  0.2905  0.1460 -0.4720
25691SOL    HW289133   9.784   2.018   7.646  0.0680  1.2456 -1.0832
25692SOL     OW89134   5.595   9.351   7.376 -0.2529  0.2510  0.3418
25692SOL    HW189135   5.611   9.387   7.468  0.2100  1.4904 -0.2207
25692SOL    HW289136   5.660   9.392   7.312  0.6678 -2.0306 -0.2189
25693SOL     OW89137   0.652   3.207   7.981  0.2172  0.3667 -0.1518
25693SOL    HW189138   0.709   3.217   7.899 -0.0805  1.9488 -0.1738
25693SOL    HW289139   0.561   3.243   7.963 -0.5833 -1.4904  0.1230
25694SOL     OW89140   9.930   0.267   7.051  0.1648 -0.5499  0.0041
25694SOL    HW189141   9.955   0.227   6.962 -0.8391  0.7078 -0.8626
25694SOL    HW289142   9.831   0.257   7.065  0.2659 -0.4144  0.8240
25695SOL     OW89143   2.077   6.717   8.158 -0.1487  0.5611  0.2822
25695SOL    HW189144   2.020   6.646   8.117  1.0578 -1.6274  2.2870
25695SOL    HW289145   2.153   6.738   8.098 -1.2208  1.1146 -0.9041
25696SOL     OW89146   2.476   5.329   9.194  0.1350  0.0920 -1.1496
25696SOL    HW189147   2.401   5.357   9.135 -0.0933  0.5588 -0.6465
25696SOL    HW289148   2.547   5.400   9.195  0.2542 -0.0262 -1.0634
25697SOL     OW89149   1.668   6.189   1.373  0.2050 -0.7787 -0.4757
25697SOL    HW189150   1.744   6.134   1.339 -0.7820 -0.7227 -2.8395
25697SOL    HW289151   1.691   6.286   1.367  1.1870 -0.8295  1.8811
25698SOL     OW89152   1.587   9.727   4.866  0.2688 -0.6697  0.3960
25698SOL    HW189153   1.623   9.741   4.774  2.8383  1.0285  1.5816
25698SOL    HW289154   1.488   9.720   4.863  0.2609  0.1080 -2.4123
25699SOL     OW89155   0.985   2.500   5.131 -0.6006 -0.0898 -0.2065
25699SOL    HW189156   1.027   2.570   5.188 -0.9345 -0.9227  1.0795
25699SOL    HW289157   0.983   2.532   5.036  1.3976  0.6549 -0.0351
25700SOL     OW89158   0.945   3.819   8.939  0.3890 -0.0911  0.1713
25700SOL    HW189159   0.850   3.841   8.962  0.2277  0.0334 -0.6209
25700SOL    HW289160   1.002   3.900   8.955  0.3530 -0.1374  0.5541
25701SOL     OW89161   7.157   5.630   1.224 -0.4834 -0.3612 -0.6709
25701SOL    HW189162   7.163   5.553   1.160  1.3387 -0.8713  0.0758
25701SOL    HW289163   7.179   5.598   1.316  0.0255  0.9887 -0.3150
25702SOL     OW89164   3.647   6.133   8.524  0.3977 -0.0451  0.4071
25702SOL    HW189165   3.560   6.085   8.531  0.6423 -0.3215  1.6943
25702SOL    HW289166   3.631   6.229   8.501 -0.0642 -0.8325 -2.7134
25703SOL     OW89167   1.019   7.470   5.831  0.1896 -0.0119  0.0900
25703SOL    HW189168   1.068   7.523   5.901  0.8690  2.1181 -1.9204
25703SOL    HW289169   0.922   7.493   5.834  0.3760  0.8586 -0.3164
25704SOL     OW89170   2.020   2.639   7.878 -0.7321  0.2215  0.2556
25704SOL    HW189171   1.985   2.588   7.957 -1.0235 -0.3860 -0.2615
25704SOL    HW289172   2.107   2.682   7.902 -1.0370  0.4130  1.0488
25705SOL     OW89173   4.326   3.207   8.293 -0.2084 -0.3284  0.0107
25705SOL    HW189174   4.321   3.215   8.393 -0.8107  0.8907 -0.1162
25705SOL    HW289175   4.261   3.270   8.251  0.8707 -0.0038 -1.1859
25706SOL     OW89176   8.586   7.129   5.147  0.2585 -0.2369 -0.4602
25706SOL    HW189177   8.675   7.174   5.143  0.3416 -0.2886  0.5950
25706SOL    HW289178   8.586   7.051   5.085  0.2101  1.0309 -2.0732
25707SOL     OW89179   7.834   0.313   5.462 -0.5893 -0.7446 -0.3412
25707SOL    HW189180   7.822   0.410   5.441  0.1842 -0.1128  1.9443
25707SOL    HW289181   7.758   0.281   5.518  0.8871 -0.5377  1.8261
25708SOL     OW89182   8.071   3.883   8.059  0.1516  0.2985 -0.4136
25708SOL    HW189183   7.986   3.917   8.019  1.3210  1.8767 -1.5946
25708SOL    HW289184   8.092   3.793   8.021 -1.1699 -0.2664  0.1582
25709SOL     OW89185   9.768   5.903   0.193 -0.4776  0.3200 -0.2027
25709SOL    HW189186   9.782   5.994   0.232 -1.5455  0.2010  0.4886
25709SOL    HW289187   9.682   5.901   0.143  0.2617  0.1017 -1.4920
25710SOL     OW89188   6.849   0.468   8.249 -0.1356  0.1268 -0.6419
25710SOL    HW189189   6.811   0.490   8.159 -2.6901  0.1966  0.4100
25710SOL    HW289190   6.787   0.406   8.297  1.2858 -0.0457  1.0179
25711SOL     OW89191   6.409   8.014   3.914 -0.0767 -0.1612  0.1096
25711SOL    HW189192   6.487   8.044   3.859  1.2526 -1.2218  1.3759
25711SOL    HW289193   6.372   7.929   3.876 -0.3535  0.1208 -0.2508
25712SOL     OW89194   3.987   8.829   9.022  0.3678 -0.1436 -0.5810
25712SOL    HW189195   3.992   8.731   9.040 -0.7132 -0.1601 -0.3579
25712SOL    HW289196   3.950   8.876   9.102  0.3811  0.3801 -0.8797
25713SOL     OW89197   3.140   4.418   1.181 -0.2591 -0.3837 -0.0478
25713SOL    HW189198   3.107   4.327   1.208  0.4293 -0.4887  0.4741
25713SOL    HW289199   3.215   4.444   1.241 -0.0405  0.2645 -0.6039
25714SOL     OW89200   0.430   2.677   3.029  0.0105  0.3527  0.2405
25714SOL    HW189201   0.488   2.734   2.972 -1.8328  0.3900 -1.6869
25714SOL    HW289202   0.339   2.719   3.037 -0.6066 -1.0581  0.8758
25715SOL     OW89203   5.009   6.798   1.502 -0.6329  0.1536  0.6616
25715SOL    HW189204   4.922   6.767   1.541 -0.8076  0.5576  0.5995
25715SOL    HW289205   5.084   6.741   1.537 -0.8319  0.2764  1.2968
25716SOL     OW89206   2.772   5.202   4.611 -0.1433  0.2954 -0.0864
25716SOL    HW189207   2.725   5.114   4.601  0.9749 -0.4444  0.9811
25716SOL    HW289208   2.866   5.194   4.576 -0.0995  1.1174 -0.1650
25717SOL     OW89209   8.792   9.124   7.118 -0.0234  0.0565 -0.8014
25717SOL    HW189210   8.792   9.173   7.205 -1.1802 -0.2430 -0.6182
25717SOL    HW289211   8.865   9.159   7.059  1.0418 -0.0439  0.4564
25718SOL     OW89212   5.232   9.744   2.906  0.4993  0.2395  0.4386
25718SOL    HW189213   5.318   9.795   2.904  1.1993 -0.9520 -1.2345
25718SOL    HW289214   5.191   9.743   2.814 -0.2803 -0.8932  0.7836
25719SOL     OW89215   7.850   5.003   7.405  0.1309 -0.0597  0.3387
25719SOL    HW189216   7.879   5.009   7.501 -2.4099 -0.4189  1.1703
25719SOL    HW289217   7.763   5.051   7.394  1.6161  2.1605 -2.3634
25720SOL     OW89218   5.171   4.817   7.047 -0.0613  0.5934 -0.4994
25720SOL    HW189219   5.229   4.784   6.972  1.5522  0.5667  0.7345
25720SOL    HW289220   5.081   4.774   7.042  0.5134 -0.4840 -1.5836
25721SOL     OW89221   4.617   2.418   7.871 -0.1943  0.0989 -0.0305
25721SOL    HW189222   4.584   2.474   7.796  2.8946 -1.0321 -2.3226
25721SOL    HW289223   4.557   2.339   7.883 -0.8565  0.4322 -1.1142
25722SOL     OW89224   9.394   7.581   6.823 -0.0373 -0.2787 -0.4421
25722SOL    HW189225   9.334   7.558   6.747  0.9017 -3.1066 -0.4088
25722SOL    HW289226   9.476   7.523   6.819  1.2820  1.4260  1.1868
25723SOL     OW89227   5.683   5.012   0.393 -0.0220 -0.0097  0.4525
25723SOL    HW189228   5.645   5.029   0.484  0.9249  0.2296  0.8082
25723SOL    HW289229   5.653   4.922   0.361  0.5135 -0.5622  1.4659
25724SOL     OW89230   1.227   3.184   0.803  0.3091  0.0967 -0.1845
25724SOL    HW189231   1.205   3.129   0.723  0.8011 -0.8430  0.3192
25724SOL    HW289232   1.149   3.182   0.867  0.4127 -0.2061 -0.0652
25725SOL     OW89233   3.891   7.928   5.241  0.5113 -0.2221 -0.2312
25725SOL    HW189234   3.798   7.914   5.208  0.6697 -1.1607 -0.2939
25725SOL    HW289235   3.951   7.857   5.203  1.0063 -0.3591  0.7765
25726SOL     OW89236   4.501   9.161   6.034  0.4932  0.1957  0.0242
25726SOL    HW189237   4.544   9.235   6.086  1.2095 -1.5971  2.0574
25726SOL    HW289238   4.567   9.089   6.018 -0.0112  0.2661 -2.5578
25727SOL     OW89239   7.511   5.059   9.463  0.4643 -0.5402 -0.4012
25727SOL    HW189240   7.519   5.054   9.363  0.0612  0.5759 -0.4954
25727SOL    HW289241   7.506   4.967   9.501  1.3474 -0.9869 -1.3507
25728SOL     OW89242   9.488   6.027   9.694  0.3590  0.2814 -0.0728
25728SOL    HW189243   9.477   6.065   9.602 -1.0742 -0.2113 -0.1230
25728SOL    HW289244   9.443   5.937   9.698  0.2876  0.3690  1.1548
25729SOL     OW89245   3.002   6.100   5.771 -0.2964  0.1475 -0.9205
25729SOL    HW189246   3.014   6.081   5.868 -2.5659  0.0646 -0.6371
25729SOL    HW289247   3.055   6.033   5.717 -0.1109 -0.6362  0.2231
25730SOL     OW89248   4.514   3.577   0.935  0.1943 -0.0704  0.4320
25730SOL    HW189249   4.569   3.628   1.001 -0.0166 -0.4707  0.9193
25730SOL    HW289250   4.572   3.513   0.886  0.7233  1.5578 -1.1297
25731SOL     OW89251   3.036   6.322   4.309 -0.4374 -0.0833  0.4885
25731SOL    HW189252   3.098   6.394   4.278 -1.1419  0.9486  1.4509
25731SOL    HW289253   3.020   6.257   4.235 -0.8347  1.4706 -0.8042
25732SOL     OW89254   8.084   6.929   5.642 -0.7500  0.0964  0.4079
25732SOL    HW189255   8.152   6.858   5.663  0.0726  1.0218  0.9393
25732SOL    HW289256   8.130   7.017   5.633 -1.7227  0.5113 -0.5908
25733SOL     OW89257   9.386   5.674   1.283  0.6608  0.2240  0.3322
25733SOL    HW189258   9.385   5.628   1.194  0.7547 -0.2961  0.5976
25733SOL    HW289259   9.331   5.758   1.278 -1.6155 -1.2048  0.5274
25734SOL     OW89260   5.045   3.172   6.404 -0.4538  0.0223  0.3250
25734SOL    HW189261   5.057   3.255   6.457 -1.6126 -0.1301  0.8311
25734SOL    HW289262   5.106   3.174   6.325 -0.9086  1.6206 -0.0009
25735SOL     OW89263   9.679   7.545   0.499 -0.5717  0.1116 -0.0559
25735SOL    HW189264   9.605   7.574   0.439  1.0061  1.4663 -1.4104
25735SOL    HW289265   9.717   7.626   0.545 -0.2279 -0.6220  0.9539
25736SOL     OW89266   9.634   0.094   3.971  0.1518  0.6505  0.3866
25736SOL    HW189267   9.571   0.093   4.049  1.8415  1.8903  1.8366
25736SOL    HW289268   9.725   0.067   4.002  0.6085  0.0323 -1.4250
25737SOL     OW89269   4.164   6.623   0.802 -0.2921  0.0539 -0.0158
25737SOL    HW189270   4.099   6.640   0.876  1.5539  0.6802  1.5214
25737SOL    HW289271   4.159   6.697   0.735 -2.9004 -1.1781 -1.2685
25738SOL     OW89272   9.269   8.064   1.109 -0.4593 -0.2019 -0.1326
25738SOL    HW189273   9.182   8.112   1.113 -0.0047  0.5313  1.6049
25738SOL    HW289274   9.310   8.074   1.018 -2.1090 -0.4299 -0.9066
25739SOL     OW89275   0.126   3.610   1.155 -0.7721 -0.5712  0.1453
25739SOL    HW189276   0.225   3.600   1.162 -0.7627 -0.9753 -0.5020
25739SOL    HW289277   0.083   3.521   1.170 -1.1598 -0.0228  2.4638
25740SOL     OW89278   7.275   0.559   3.445 -0.2797  0.1332 -0.3588
25740SOL    HW189279   7.314   0.481   3.395 -1.3711  0.9196 -2.4954
25740SOL    HW289280   7.339   0.635   3.444  0.1895 -0.2543  0.4620
25741SOL     OW89281   9.331   6.212   8.468  0.0984  0.4432  0.3313
25741SOL    HW189282   9.283   6.242   8.551 -0.7807 -2.0329  0.7692
25741SOL    HW289283   9.269   6.218   8.390 -0.4499 -1.2929  0.6241
25742SOL     OW89284   8.371   9.925   1.885  0.2017  0.0579  0.3151
25742SOL    HW189285   8.388   9.891   1.792 -1.1867  1.0321 -0.3102
25742SOL    HW289286   8.337  10.019   1.880 -1.8339 -0.5762  1.6928
25743SOL     OW89287   0.910   7.651   3.253  0.4723 -0.3133  0.7180
25743SOL    HW189288   0.937   7.704   3.172  1.4221 -0.7097  0.7647
25743SOL    HW289289   0.935   7.702   3.336  0.0770 -0.1880  0.7584
25744SOL     OW89290   0.589   6.261   2.932  0.1311  1.0115 -0.6323
25744SOL    HW189291   0.676   6.217   2.956 -0.4120 -0.1869 -0.8277
25744SOL    HW289292   0.542   6.205   2.864 -0.4965  1.9933 -1.0057
25745SOL     OW89293   2.261   9.221   9.068  0.4148 -0.9859 -0.2537
25745SOL    HW189294   2.248   9.306   9.118  0.8635 -0.4518 -1.0275
25745SOL    HW289295   2.179   9.164   9.076  0.4483 -0.8663  0.9865
25746SOL     OW89296   0.347   7.071   4.302  0.5912  0.0429 -0.4102
25746SOL    HW189297   0.374   7.165   4.321  0.1301 -0.2183  1.5922
25746SOL    HW289298   0.422   7.009   4.325  0.4696 -0.1823 -0.6132
25747SOL     OW89299   8.390   5.414   0.419 -0.2725  0.1111  0.4154
25747SOL    HW189300   8.490   5.415   0.426 -0.1747  1.2540 -0.9482
25747SOL    HW289301   8.362   5.467   0.339 -1.9275 -1.0465  0.2131
25748SOL     OW89302   4.202   7.432   1.673  0.1523 -0.1180  0.1996
25748SOL    HW189303   4.203   7.529   1.699  2.7243  0.4667 -1.8546
25748SOL    HW289304   4.267   7.381   1.728  0.6855 -0.1667 -0.4664
25749SOL     OW89305   7.381   4.202   3.835 -0.3448 -0.2129 -0.5696
25749SOL    HW189306   7.328   4.279   3.798 -1.5045  0.5734  2.5933
25749SOL    HW289307   7.320   4.143   3.889  0.6159 -3.1584 -2.5390
25750SOL     OW89308   0.761   9.426   3.515  0.2830  0.3022  0.3912
25750SOL    HW189309   0.662   9.409   3.519  0.3563 -0.0824  0.5413
25750SOL    HW289310   0.808   9.341   3.492  0.3982  0.9681 -2.0030
25751SOL     OW89311   2.765   6.884   2.288  0.2603  0.1094 -0.0828
25751SOL    HW189312   2.739   6.829   2.368  1.7988 -1.4957 -0.6667
25751SOL    HW289313   2.771   6.980   2.315 -3.8032  0.2679  0.6385
25752SOL     OW89314   4.644   9.521   5.153  0.4396 -0.0520 -0.4199
25752SOL    HW189315   4.578   9.583   5.194 -0.5040 -0.9203 -0.5880
25752SOL    HW289316   4.649   9.538   5.054  0.3522 -0.0878 -0.4303
25753SOL     OW89317   3.525   8.399   6.911 -0.0552 -0.3551 -0.1398
25753SOL    HW189318   3.488   8.482   6.869  1.5235 -0.0993 -1.0475
25753SOL    HW289319   3.520   8.323   6.847 -0.1549 -0.6185  0.1765
25754SOL     OW89320   1.800   2.904   1.192 -0.2739 -0.0696 -0.6439
25754SOL    HW189321   1.720   2.845   1.178 -0.0559 -0.3194 -0.8284
25754SOL    HW289322   1.805   2.931   1.288 -0.4666 -0.2123 -0.5938
25755SOL     OW89323   0.057   7.336   1.652 -0.2998  0.7002 -0.0466
25755SOL    HW189324  -0.024   7.288   1.686 -0.0401 -0.1509 -0.6343
25755SOL    HW289325   0.034   7.432   1.635 -1.5494  0.1566 -1.5270
25756SOL     OW89326   3.919   2.202  10.021 -0.1847  0.8255 -0.2816
25756SOL    HW189327   3.986   2.264  10.062  0.6786 -1.0716  1.2633
25756SOL    HW289328   3.841   2.192  10.082 -0.0789 -0.0121 -0.2767
25757SOL     OW89329   3.801   7.234   7.262 -0.2116  0.6733  0.4003
25757SOL    HW189330   3.793   7.143   7.304 -1.5849  0.0322 -1.1976
25757SOL    HW289331   3.742   7.298   7.311 -0.8141  0.2259  0.2672
25758SOL     OW89332   6.263   3.499   8.271 -0.0495 -0.0492  0.0753
25758SOL    HW189333   6.284   3.596   8.282  0.8692 -0.1024 -1.0477
25758SOL    HW289334   6.340   3.454   8.227 -0.2390 -1.4087  1.1150
25759SOL     OW89335   8.448   8.940   4.348 -0.4580 -0.1971 -0.0592
25759SOL    HW189336   8.381   9.013   4.362  0.5606  0.7016  0.1550
25759SOL    HW289337   8.411   8.854   4.384 -0.1844  0.9348  3.0982
25760SOL     OW89338   9.046   5.298   4.356  0.0746  0.1863 -0.3348
25760SOL    HW189339   8.953   5.275   4.386  0.1387  0.9464  0.4485
25760SOL    HW289340   9.111   5.268   4.425  0.3508  0.3755 -0.5153
25761SOL     OW89341   3.181   7.949   0.473  0.1371 -0.0616  0.2413
25761SOL    HW189342   3.127   7.866   0.487  0.2659 -0.3053 -0.7149
25761SOL    HW289343   3.161   7.987   0.383  1.4571 -0.0786 -0.0634
25762SOL     OW89344   8.915   4.477   9.142  0.2293 -0.1708  0.2197
25762SOL    HW189345   8.824   4.447   9.112 -0.1330  0.3293  0.7958
25762SOL    HW289346   8.917   4.479   9.242  1.1682 -1.0564  0.2237
25763SOL     OW89347   5.797   5.581   1.920  0.0970 -0.6115  0.3130
25763SOL    HW189348   5.718   5.564   1.980  0.2666 -0.1710  0.6633
25763SOL    HW289349   5.782   5.665   1.868  0.2179 -0.6695  0.1847
25764SOL     OW89350   9.778   8.087   8.420  0.0673 -0.7334 -0.2428
25764SOL    HW189351   9.865   8.089   8.469  0.5921 -2.7752 -1.0230
25764SOL    HW289352   9.709   8.138   8.471  1.9564  1.7076 -0.0932
25765SOL     OW89353   6.379   2.590   8.872  0.5035 -0.4845  0.5550
25765SOL    HW189354   6.302   2.630   8.923  0.0041 -1.3361  0.4828
25765SOL    HW289355   6.416   2.513   8.923  1.8871  0.4484  1.0023
25766SOL     OW89356   3.476   1.380   4.535 -0.0009 -0.1772 -0.7987
25766SOL    HW189357   3.397   1.440   4.549 -0.5568 -1.1067  0.1406
25766SOL    HW289358   3.495   1.330   4.620  1.4894 -0.0979 -1.0769
25767SOL     OW89359   7.930   2.476   4.397  0.4099 -1.0684  0.3634
25767SOL    HW189360   7.994   2.401   4.414  0.0229 -1.6170 -0.5468
25767SOL    HW289361   7.856   2.444   4.338  0.1396 -0.0198  0.1194
25768SOL     OW89362   2.297   0.709   6.734 -0.4566  0.4316  0.6525
25768SOL    HW189363   2.326   0.805   6.737  0.2331  0.2466 -0.0442
25768SOL    HW289364   2.361   0.653   6.787 -0.6402  0.3064  0.7415
25769SOL     OW89365   8.601   2.054   1.334  0.2293 -0.2682 -0.2510
25769SOL    HW189366   8.545   2.114   1.276  0.0877  0.0293  0.1940
25769SOL    HW289367   8.697   2.082   1.327  0.2770 -0.5444 -0.7243
25770SOL     OW89368   0.734   2.609   3.658 -0.5594 -0.2160  0.4806
25770SOL    HW189369   0.767   2.521   3.625 -0.7704 -0.1546  0.1023
25770SOL    HW289370   0.684   2.597   3.744 -0.6410 -0.4744  0.3957
25771SOL     OW89371   1.744   9.323   1.729 -0.4606 -0.4719  0.1037
25771SOL    HW189372   1.728   9.294   1.635  1.2654  1.8647 -0.9775
25771SOL    HW289373   1.781   9.247   1.782 -0.7367 -1.6130 -1.3109
25772SOL     OW89374   0.835   9.968   6.149  0.0902 -0.3378 -0.4805
25772SOL    HW189375   0.907   9.902   6.126 -0.9859 -0.9700 -2.0906
25772SOL    HW289376   0.780   9.932   6.225  1.2683  0.0040  0.5418
25773SOL     OW89377   8.833   5.513   7.509 -0.3419 -0.2221  0.4169
25773SOL    HW189378   8.916   5.565   7.526  0.0589 -0.7920  0.2157
25773SOL    HW289379   8.821   5.445   7.582 -1.4285  0.8474  1.2614
25774SOL     OW89380   2.806   3.615   0.427 -0.2065 -0.4102 -0.0443
25774SOL    HW189381   2.728   3.671   0.400 -0.4463 -0.7346 -0.0329
25774SOL    HW289382   2.778   3.548   0.496  0.4249  0.4629  1.0733
25775SOL     OW89383   6.021   9.844   4.513 -0.0939  0.2448 -0.5217
25775SOL    HW189384   6.112   9.882   4.529 -0.0696  0.3068 -0.8161
25775SOL    HW289385   6.010   9.824   4.416 -0.2817 -0.0522 -0.4381
25776SOL     OW89386   7.182   6.351   2.842  0.6201  0.3587 -0.5453
25776SOL    HW189387   7.173   6.447   2.818 -0.6578  0.1207 -1.0800
25776SOL    HW289388   7.272   6.317   2.813  1.7431  1.7952  1.1616
25777SOL     OW89389   6.610   0.311   6.263  0.1963  0.5200 -0.1702
25777SOL    HW189390   6.632   0.301   6.360  0.4691 -1.5359 -0.4366
25777SOL    HW289391   6.644   0.400   6.230  4.1934 -0.6656  0.4935
25778SOL     OW89392   3.273   0.054   0.706  0.0443  0.5511  0.1218
25778SOL    HW189393   3.362   0.030   0.666  1.8196  2.3169  2.8264
25778SOL    HW289394   3.223  -0.030   0.726  2.6524 -0.6801  1.8444
25779SOL     OW89395   1.023   5.121   3.563 -0.2273  0.3015  0.3701
25779SOL    HW189396   0.959   5.179   3.612  0.1541  0.3660  0.7959
25779SOL    HW289397   1.056   5.048   3.623  0.0568  0.2396  0.1441
25780SOL     OW89398   4.369   6.613   9.893  0.6333 -0.5169 -0.7867
25780SOL    HW189399   4.456   6.637   9.935  0.4714 -2.7876  0.9808
25780SOL    HW289400   4.383   6.542   9.825  0.5752  1.5325 -3.0015
25781SOL     OW89401   6.874   8.879   8.666  0.1413  0.3944 -0.8805
25781SOL    HW189402   6.846   8.862   8.572  1.6309  0.4239 -1.3488
25781SOL    HW289403   6.936   8.958   8.669 -0.6934  1.0249  0.2573
25782SOL     OW89404   4.861   0.222   3.333 -0.1719  0.2809  0.0787
25782SOL    HW189405   4.796   0.271   3.274 -1.0903 -0.3663  0.5450
25782SOL    HW289406   4.835   0.233   3.428  2.7218  3.4255  0.6400
25783SOL     OW89407   9.079   3.006   0.453 -0.4461 -0.4770  0.4669
25783SOL    HW189408   9.112   2.946   0.381 -0.6255 -1.7738  1.4524
25783SOL    HW289409   9.032   3.084   0.412  1.2143 -0.1551 -0.8528
25784SOL     OW89410   1.826   1.067   4.400  0.3219 -0.6172  0.2821
25784SOL    HW189411   1.806   1.095   4.306  1.7766 -0.6614 -0.0533
25784SOL    HW289412   1.819   1.145   4.461  1.4383 -0.1342 -0.1947
25785SOL     OW89413   8.090   4.761   9.453 -0.3277  0.6862  0.1983
25785SOL    HW189414   7.999   4.721   9.464  0.0682  0.0774  1.3145
25785SOL    HW289415   8.091   4.819   9.371 -0.7236 -2.0356 -1.7829
25786SOL     OW89416   4.073   1.008   9.079 -0.2589  0.4646 -0.1700
25786SOL    HW189417   4.103   1.092   9.034  0.5760  0.6574  0.7466
25786SOL    HW289418   4.021   0.952   9.014  1.0997  0.6563 -1.4267
25787SOL     OW89419   8.564   9.167   5.785  0.1637 -0.4753  0.2595
25787SOL    HW189420   8.520   9.245   5.739  0.1307 -0.9571 -0.5410
25787SOL    HW289421   8.641   9.199   5.839 -0.7935  0.3124  1.1830
25788SOL     OW89422   0.792   5.521   8.088  0.2491 -0.3135  0.1263
25788SOL    HW189423   0.734   5.448   8.054  2.0067 -0.8913 -1.7450
25788SOL    HW289424   0.761   5.549   8.178 -0.7125 -3.0852  0.7049
25789SOL     OW89425   8.887   8.845   9.463  0.6534 -0.7327 -0.0570
25789SOL    HW189426   8.889   8.882   9.556 -1.2698  0.4824 -0.4714
25789SOL    HW289427   8.807   8.880   9.415  0.8984 -2.4240 -1.7487
25790SOL     OW89428   5.383   5.656   3.036 -0.9330  0.2168  0.3610
25790SOL    HW189429   5.423   5.637   3.125 -1.1315  2.0027  0.8412
25790SOL    HW289430   5.454   5.689   2.974 -0.8083 -0.9549 -0.1480
25791SOL     OW89431   0.860   2.401   5.812 -0.4885  0.0375 -0.6974
25791SOL    HW189432   0.838   2.488   5.767  0.5217  0.9495  0.5387
25791SOL    HW289433   0.896   2.337   5.744 -0.5006  0.8577 -1.4856
25792SOL     OW89434   2.609   9.313   6.389 -0.0405  0.3320 -0.8809
25792SOL    HW189435   2.535   9.353   6.336 -0.5950  0.2008 -0.2222
25792SOL    HW289436   2.685   9.378   6.396 -1.0752  1.4215  0.4950
25793SOL     OW89437   6.047   2.109   9.415  0.3597  0.4002 -0.2916
25793SOL    HW189438   6.083   2.099   9.507 -1.0862  3.1409  0.6264
25793SOL    HW289439   5.984   2.034   9.394  0.5399 -0.1166  1.0279
25794SOL     OW89440   5.211   5.255   8.994  0.4692  0.1695 -0.0213
25794SOL    HW189441   5.261   5.340   8.975  1.1727  0.1572  1.6075
25794SOL    HW289442   5.153   5.232   8.917  0.3206  2.1076 -0.5189
25795SOL     OW89443   4.252   5.471   1.758  0.1871 -0.4208 -0.5183
25795SOL    HW189444   4.338   5.522   1.769  0.3169 -0.9538  1.0409
25795SOL    HW289445   4.189   5.495   1.832 -0.0227 -2.0086 -0.1696
25796SOL     OW89446   5.311   0.923   6.529 -0.0427 -0.1361 -0.1336
25796SOL    HW189447   5.339   0.993   6.464 -0.6366 -0.8075 -1.1290
25796SOL    HW289448   5.249   0.858   6.484  0.5026 -1.3031  0.7580
25797SOL     OW89449   8.106   1.823   1.186 -0.2310  0.0878  0.0642
25797SOL    HW189450   8.162   1.900   1.157 -0.4488 -0.1118 -0.9329
25797SOL    HW289451   8.138   1.740   1.139 -0.2874 -0.3420  0.7772
25798SOL     OW89452   0.320   8.978   6.060  0.5241  0.3945 -0.4573
25798SOL    HW189453   0.295   9.044   5.989 -0.3941  1.0761  0.4937
25798SOL    HW289454   0.365   9.025   6.135 -2.4351  0.3943  1.4114
25799SOL     OW89455   6.673   5.364   8.043  0.1310 -0.1331  0.2382
25799SOL    HW189456   6.668   5.395   8.138 -1.8877 -0.0800  0.1431
25799SOL    HW289457   6.588   5.317   8.019  0.7830 -0.4879 -1.4280
25800SOL     OW89458   7.312   6.063   5.819 -0.2425 -0.3852 -0.2116
25800SOL    HW189459   7.337   6.054   5.723  1.0595 -1.5757  0.2179
25800SOL    HW289460   7.316   6.159   5.846 -0.2015 -0.0971 -1.2252
25801SOL     OW89461   6.253   7.606   4.427  0.2841 -0.3519 -0.2789
25801SOL    HW189462   6.194   7.676   4.388 -0.3557  0.8365  2.6884
25801SOL    HW289463   6.347   7.622   4.398  0.1101  1.6212  0.1961
25802SOL     OW89464   7.908   2.333   4.140  0.0387 -0.2070  0.3290
25802SOL    HW189465   7.843   2.316   4.066  1.0097 -1.9175 -0.1650
25802SOL    HW289466   8.000   2.339   4.102  0.5777 -1.3913  1.4262
25803SOL     OW89467   6.958   1.847   0.483 -0.7198 -0.4447 -0.0350
25803SOL    HW189468   6.933   1.751   0.474 -2.6433  0.2525 -2.8805
25803SOL    HW289469   6.909   1.901   0.414  1.5183  2.3694  0.4744
25804SOL     OW89470   4.967   6.363   2.093  0.0936  0.3108 -0.1975
25804SOL    HW189471   4.921   6.431   2.150 -0.1144 -0.3308  0.4057
25804SOL    HW289472   5.055   6.339   2.133 -0.3244 -0.5988  0.1841
25805SOL     OW89473   0.493   9.762   7.826  0.6529  0.0143 -0.4476
25805SOL    HW189474   0.479   9.682   7.768 -0.8717 -0.5148  0.6066
25805SOL    HW289475   0.450   9.746   7.915  0.8027  1.8009 -0.0386
25806SOL     OW89476   8.601   2.729   1.061 -0.1565 -0.1879  0.5644
25806SOL    HW189477   8.694   2.695   1.073  0.1410  0.2194 -0.5321
25806SOL    HW289478   8.603   2.816   1.011 -1.1733 -0.5641 -0.1501
25807SOL     OW89479   0.961   8.804   0.025 -0.0255  0.2202  0.0715
25807SOL    HW189480   1.025   8.877   0.001 -1.0813  0.5983 -1.6230
25807SOL    HW289481   0.911   8.829   0.108  0.4678  0.8844  0.1654
25808SOL     OW89482   2.101   3.064   6.332 -0.0396  1.2869 -0.8781
25808SOL    HW189483   2.034   3.009   6.383  1.4062 -0.4240 -0.7678
25808SOL    HW289484   2.137   3.136   6.392  1.3447 -0.4556  0.4554
25809SOL     OW89485   3.591   7.718   6.685 -0.1807  0.3279  0.3829
25809SOL    HW189486   3.606   7.773   6.767 -0.9242 -0.2272  0.8896
25809SOL    HW289487   3.496   7.725   6.656 -0.5994 -1.7466  1.2156
25810SOL     OW89488   8.626   0.534   8.108 -0.2179 -0.2320  0.2020
25810SOL    HW189489   8.643   0.435   8.098 -0.2703 -0.1410 -0.8572
25810SOL    HW289490   8.542   0.558   8.060 -0.9371  0.1104  1.6017
25811SOL     OW89491   4.660   2.127   8.971 -0.6372  0.4651 -0.2079
25811SOL    HW189492   4.718   2.132   8.890 -0.2166  0.2313  0.0737
25811SOL    HW289493   4.691   2.052   9.030 -0.1906  1.3723  0.7357
25812SOL     OW89494   8.702   2.314   0.017 -0.0778  0.4198  0.1518
25812SOL    HW189495   8.794   2.339   0.049  0.5805  0.8709 -1.9767
25812SOL    HW289496   8.708   2.230  -0.037 -1.0232  0.1265  0.4983
25813SOL     OW89497   6.318   9.185   3.885  0.0873  0.1740  0.2457
25813SOL    HW189498   6.340   9.088   3.883 -1.0963 -0.1020  0.3861
25813SOL    HW289499   6.351   9.225   3.971 -1.4596 -0.6093  1.2310
25814SOL     OW89500   3.664   6.833   2.816 -0.4131  0.7092  0.6702
25814SOL    HW189501   3.616   6.847   2.730 -1.8273 -0.9160  1.1642
25814SOL    HW289502   3.599   6.804   2.886  1.1690 -0.8878  1.5382
25815SOL     OW89503   8.665   5.871   8.399  0.0422  0.4507  0.7231
25815SOL    HW189504   8.587   5.928   8.375 -0.7495 -0.5852  0.8118
25815SOL    HW289505   8.641   5.775   8.388  2.0264  0.1688 -1.4710
25816SOL     OW89506   1.769   1.501   9.674  0.3499  0.0391  0.0050
25816SOL    HW189507   1.778   1.600   9.673  2.7330 -0.1333  0.2268
25816SOL    HW289508   1.710   1.473   9.749  0.3376  1.2439  0.4454
25817SOL     OW89509   5.660   7.863   2.882 -0.0266 -0.0367 -0.1424
25817SOL    HW189510   5.619   7.882   2.793  1.0986  2.8608 -0.1023
25817SOL    HW289511   5.591   7.874   2.953 -0.1996  0.6995 -0.4186
25818SOL     OW89512   1.197   7.937   1.236  0.3664 -0.0112 -0.0473
25818SOL    HW189513   1.250   7.978   1.161 -0.4482  1.0417 -0.0624
25818SOL    HW289514   1.254   7.871   1.285  1.5270  0.7233 -0.3861
25819SOL     OW89515   0.851   4.778   0.027  0.3652  0.5661  0.5099
25819SOL    HW189516   0.853   4.782   0.127 -1.1706 -1.1829  0.6441
25819SOL    HW289517   0.819   4.865  -0.010 -1.2043  0.4858  1.6533
25820SOL     OW89518   9.638   7.610   2.461 -0.1630  0.4582 -0.1727
25820SOL    HW189519   9.624   7.545   2.536  0.5176  0.5338  0.0280
25820SOL    HW289520   9.550   7.649   2.434 -0.8359 -1.9998 -1.6325
25821SOL     OW89521   6.568   0.710   3.343 -0.2617 -0.0052  0.3239
25821SOL    HW189522   6.478   0.667   3.332 -0.2303  0.2948 -1.2854
25821SOL    HW289523   6.640   0.642   3.326 -0.1828 -0.0533  0.8317
25822SOL     OW89524   2.325   9.969   6.546  0.3501 -0.0001  0.5029
25822SOL    HW189525   2.271  10.048   6.575  1.5845  0.3865  1.8083
25822SOL    HW289526   2.341   9.974   6.447 -0.9911  0.4927  0.3081
25823SOL     OW89527   8.221   7.907   8.418  0.0243 -0.7305  0.4903
25823SOL    HW189528   8.265   7.918   8.507 -0.3698  0.0176  0.5990
25823SOL    HW289529   8.124   7.886   8.431 -0.6467  2.0319  0.2407
25824SOL     OW89530   1.175   1.274   9.041 -0.0363  0.3601  0.0478
25824SOL    HW189531   1.098   1.305   9.097 -0.2982 -0.5196  0.1686
25824SOL    HW289532   1.141   1.224   8.962  0.4662 -1.4140  0.9393
25825SOL     OW89533   5.636   3.023   8.899  1.1603  0.1550  0.2464
25825SOL    HW189534   5.592   3.082   8.831  0.0403  1.6050  2.1860
25825SOL    HW289535   5.635   2.929   8.867 -1.9571  0.3810 -0.5008
25826SOL     OW89536   4.117   3.558   9.112 -0.4274 -0.9703 -0.1806
25826SOL    HW189537   4.187   3.561   9.041 -2.2783 -0.9928 -2.0195
25826SOL    HW289538   4.135   3.480   9.172  0.3957 -1.7194 -1.3782
25827SOL     OW89539   9.472   2.388   4.612 -0.2173  0.1159  0.3663
25827SOL    HW189540   9.424   2.364   4.696 -2.4689  0.2898 -0.8177
25827SOL    HW289541   9.437   2.475   4.578  1.5335  0.6469 -0.1281
25828SOL     OW89542   3.497   6.213   7.774 -0.9557 -0.8635 -0.0501
25828SOL    HW189543   3.450   6.188   7.859 -0.7566 -0.0512  0.3030
25828SOL    HW289544   3.497   6.312   7.764  2.3505 -0.6904  0.9437
25829SOL     OW89545   0.867   2.343   3.341  0.2121 -0.3195  0.3031
25829SOL    HW189546   0.907   2.425   3.299 -0.2478  0.3395  1.1287
25829SOL    HW289547   0.771   2.336   3.315 -0.0865  0.1111  1.2419
25830SOL     OW89548   7.474   9.558   2.453 -0.7096  0.5964  0.5640
25830SOL    HW189549   7.447   9.651   2.429  0.8636  0.2505 -2.8503
25830SOL    HW289550   7.573   9.556   2.471 -0.4793 -0.6182 -0.7182
25831SOL     OW89551   2.887   5.982   2.216  0.0210  0.1956 -0.4102
25831SOL    HW189552   2.897   6.080   2.234  1.2870  0.0978 -0.5454
25831SOL    HW289553   2.838   5.970   2.129 -0.2715  0.7071 -0.3210
25832SOL     OW89554   9.860   8.442   1.929 -0.1305 -0.5062  0.2064
25832SOL    HW189555   9.852   8.451   2.029  1.1836 -1.5120  0.4180
25832SOL    HW289556   9.815   8.358   1.900  2.2092 -1.8700  0.3751
25833SOL     OW89557   9.444   0.367   5.967 -0.5883 -0.6789  0.1924
25833SOL    HW189558   9.459   0.272   5.993 -0.3668 -0.5661  0.4860
25833SOL    HW289559   9.482   0.427   6.038  1.7305 -0.3495 -1.2594
25834SOL     OW89560   7.887   5.482   7.685  0.2008 -0.2851 -0.1332
25834SOL    HW189561   7.964   5.433   7.727  0.3270  0.2643  0.2842
25834SOL    HW289562   7.805   5.469   7.741  0.8392  2.1468  1.4605
25835SOL     OW89563   4.052   4.062   2.899  0.9383  0.4666  0.5654
25835SOL    HW189564   3.988   4.063   2.976  0.8809  0.7032  0.5171
25835SOL    HW289565   4.130   4.005   2.921  0.3560 -0.4337  0.3360
25836SOL     OW89566   1.158   7.558   3.570 -0.3043 -0.5055  0.0174
25836SOL    HW189567   1.162   7.574   3.471 -0.5683 -0.7956 -0.0430
25836SOL    HW289568   1.131   7.643   3.616  1.0644 -0.0352 -0.0428
25837SOL     OW89569   3.216   3.997   1.065  0.3071 -0.2306  0.0409
25837SOL    HW189570   3.262   3.928   1.009  0.6905  1.1065 -1.3437
25837SOL    HW289571   3.143   3.955   1.118 -0.5648 -1.4214 -2.0439
25838SOL     OW89572   0.370   2.049   7.169 -0.0424 -0.4922 -0.2508
25838SOL    HW189573   0.390   2.050   7.071 -1.2133 -0.1873 -0.4958
25838SOL    HW289574   0.288   1.995   7.185  0.1704 -0.5759  0.5767
25839SOL     OW89575   4.135   7.076   7.690  0.0572  0.0555  0.2101
25839SOL    HW189576   4.099   7.036   7.775 -0.5710 -1.4311 -0.7487
25839SOL    HW289577   4.193   7.155   7.713 -1.1417  0.4600  1.9501
25840SOL     OW89578   8.896   1.534   6.478  0.8532 -0.0960 -0.1256
25840SOL    HW189579   8.899   1.598   6.555 -2.4504 -1.9154  1.6108
25840SOL    HW289580   8.896   1.585   6.392  0.2036  2.1726  1.1739
25841SOL     OW89581   8.518   0.021   4.939  0.2012  0.0557  0.0419
25841SOL    HW189582   8.616   0.030   4.958 -0.0069  1.8416  0.3436
25841SOL    HW289583   8.476   0.111   4.940 -1.7995 -0.8600  1.8152
25842SOL     OW89584   6.499   4.828   2.472  0.9495 -0.1261 -0.3905
25842SOL    HW189585   6.588   4.849   2.432  0.2414  1.3182 -1.2529
25842SOL    HW289586   6.443   4.911   2.474 -0.6658 -1.1935 -0.6178
25843SOL     OW89587   2.183   6.733   7.685  0.0954 -0.2390 -0.0934
25843SOL    HW189588   2.133   6.735   7.599 -0.7658  1.4353  0.4204
25843SOL    HW289589   2.172   6.644   7.729  1.1278 -1.3518 -2.0441
25844SOL     OW89590   1.323   8.309   5.225  0.4676 -0.3290 -0.3874
25844SOL    HW189591   1.237   8.342   5.187 -0.0813 -1.2740  0.0184
25844SOL    HW289592   1.307   8.225   5.277  1.2659  0.6584  1.5323
25845SOL     OW89593   1.688   5.457   4.277  0.3930  0.3096  0.2465
25845SOL    HW189594   1.605   5.504   4.306  0.2872  1.5851 -2.0119
25845SOL    HW289595   1.670   5.359   4.269 -0.5729  0.4333  0.8241
25846SOL     OW89596   6.868   0.182   9.263 -0.2913  0.1340  0.8532
25846SOL    HW189597   6.954   0.177   9.314 -0.1443  0.4512  0.6410
25846SOL    HW289598   6.887   0.181   9.165 -0.4907  0.7489  0.8028
25847SOL     OW89599   1.891   2.077   3.874 -0.2157 -0.3899 -0.1977
25847SOL    HW189600   1.966   2.062   3.810 -1.6447 -1.4118 -1.6752
25847SOL    HW289601   1.831   2.149   3.840  0.1744  0.5566  1.0644
25848SOL     OW89602   8.491   4.817   0.004 -0.4991  0.2884 -0.1398
25848SOL    HW189603   8.549   4.899   0.002 -0.1819  0.0491 -2.2843
25848SOL    HW289604   8.548   4.735  -0.004 -1.0144 -0.0072 -0.8657
25849SOL     OW89605   4.842   8.264   4.672  0.4791  0.0234  0.2610
25849SOL    HW189606   4.837   8.179   4.619 -0.3113 -0.2226  0.7058
25849SOL    HW289607   4.891   8.246   4.757  0.7844  0.1435  0.1075
25850SOL     OW89608   9.727   2.593   5.591 -0.1197  0.2068  0.3585
25850SOL    HW189609   9.628   2.582   5.590 -0.1413  0.3006 -2.4472
25850SOL    HW289610   9.751   2.677   5.541  1.3867  0.0136  0.7514
25851SOL     OW89611   9.976   5.152   6.912 -0.1940  0.1730 -0.6279
25851SOL    HW189612  10.065   5.107   6.904  0.3998  1.4885 -1.6006
25851SOL    HW289613   9.906   5.098   6.866  0.4604  0.1030 -1.5347
25852SOL     OW89614   8.773   7.389   0.340  0.0638 -0.2318 -0.5929
25852SOL    HW189615   8.800   7.483   0.318 -1.6490  0.7370  1.2202
25852SOL    HW289616   8.679   7.374   0.307  0.0636 -1.0638 -0.2011
25853SOL     OW89617   8.166   4.002   2.132  0.0411 -0.3403  0.1667
25853SOL    HW189618   8.163   3.991   2.032 -0.1143 -1.2920  0.2692
25853SOL    HW289619   8.251   4.049   2.158  1.0112 -1.7899 -0.2769
25854SOL     OW89620   1.501   2.444   8.238 -0.7234  0.0414 -0.7029
25854SOL    HW189621   1.438   2.441   8.315 -1.2486 -1.2304 -1.1736
25854SOL    HW289622   1.583   2.391   8.260 -1.0605 -0.6835 -1.1815
25855SOL     OW89623   3.370   0.234   6.929 -0.3069 -0.3621  0.1837
25855SOL    HW189624   3.335   0.141   6.921 -1.3538  0.0899 -0.7191
25855SOL    HW289625   3.463   0.238   6.893  0.4048 -1.4027  1.8205
25856SOL     OW89626   3.268   2.915   9.740 -0.5353  0.4946 -0.7621
25856SOL    HW189627   3.289   2.959   9.653 -1.6310  0.0358 -1.2620
25856SOL    HW289628   3.348   2.922   9.801  0.1298  1.0666 -1.6878
25857SOL     OW89629   4.714   2.939   6.746  0.4335 -0.3743 -0.5408
25857SOL    HW189630   4.722   2.974   6.840  1.0093 -1.2915 -0.2415
25857SOL    HW289631   4.796   2.961   6.695  0.4414 -0.5403 -0.6008
25858SOL     OW89632   8.378   2.835   3.232  0.1674  0.0057  1.0627
25858SOL    HW189633   8.434   2.884   3.299  0.2429 -0.5059  1.3787
25858SOL    HW289634   8.290   2.881   3.222  0.3420  0.3662  1.1464
25859SOL     OW89635   1.120   7.216   5.029 -0.3464  0.7431  0.0454
25859SOL    HW189636   1.021   7.202   5.036 -0.2506  0.5063  0.9963
25859SOL    HW289637   1.138   7.312   5.008 -0.7950  0.6669 -0.7214
25860SOL     OW89638   2.481   6.791   4.224  0.7285 -0.0390  0.4865
25860SOL    HW189639   2.504   6.839   4.140  1.9134 -1.9189 -0.2737
25860SOL    HW289640   2.382   6.775   4.227  0.8000 -0.8348 -1.0238
25861SOL     OW89641   4.043   2.691   3.996  0.6038 -1.0454  0.7569
25861SOL    HW189642   3.958   2.699   3.943  0.9435  0.6900  0.4397
25861SOL    HW289643   4.121   2.711   3.936  0.9288  1.9761  2.1012
25862SOL     OW89644   5.604   1.765   9.167 -0.0605 -0.5326  0.0438
25862SOL    HW189645   5.667   1.766   9.245 -0.6347 -1.1214  0.5221
25862SOL    HW289646   5.531   1.832   9.183 -0.5834 -1.1753  0.3515
25863SOL     OW89647   0.899   7.651   9.387 -0.3676 -0.4109  0.1734
25863SOL    HW189648   0.841   7.582   9.429  1.3065 -0.5846  2.3129
25863SOL    HW289649   0.916   7.725   9.453 -1.3622  1.6130 -1.7457
25864SOL     OW89650   8.706   9.144   5.385 -0.1934 -0.2281 -0.1786
25864SOL    HW189651   8.784   9.112   5.439 -0.9469 -0.6780  0.6340
25864SOL    HW289652   8.740   9.203   5.311  0.8473  0.2609  0.6731
25865SOL     OW89653   6.986   6.554   1.544  1.2355 -0.2684 -0.4180
25865SOL    HW189654   7.006   6.543   1.641  0.1649  2.9924  0.2254
25865SOL    HW289655   6.931   6.476   1.513  2.9304 -2.1501  1.1656
25866SOL     OW89656   7.586   4.769   6.981 -0.0922  0.3968  0.2574
25866SOL    HW189657   7.680   4.757   7.013 -0.0043 -2.3824 -0.8803
25866SOL    HW289658   7.523   4.767   7.058  0.7258  1.8825  0.9875
25867SOL     OW89659   1.041   1.778   4.955 -0.5284  0.0167 -0.0003
25867SOL    HW189660   1.026   1.695   5.009  0.2652  0.0253  0.2419
25867SOL    HW289661   1.044   1.754   4.858  0.0722 -0.3035  0.0897
25868SOL     OW89662   4.011   5.484   4.226 -0.0512  0.5014  0.0747
25868SOL    HW189663   4.076   5.559   4.216  0.3727  0.0669 -0.4784
25868SOL    HW289664   3.942   5.490   4.154 -0.6269  0.9606  0.6596
25869SOL     OW89665   3.432   6.543   8.890  0.0183 -0.3648 -0.4784
25869SOL    HW189666   3.335   6.546   8.866  0.3486  0.5429 -1.7524
25869SOL    HW289667   3.482   6.609   8.835  1.4894 -1.3826 -0.3887
25870SOL     OW89668   3.229   7.477   9.905  0.1798 -0.2564  0.2828
25870SOL    HW189669   3.289   7.398   9.891  1.1465  0.5725 -0.3214
25870SOL    HW289670   3.148   7.448   9.955  0.5480 -1.6242  0.1185
25871SOL     OW89671   5.289   7.629   2.595  0.0206  0.2661 -0.1162
25871SOL    HW189672   5.353   7.572   2.646  0.5549 -1.4317 -2.6031
25871SOL    HW289673   5.337   7.707   2.555  0.3300 -0.4186 -1.0847
25872SOL     OW89674   9.938   2.333   2.943  0.3703  0.0833 -0.0495
25872SOL    HW189675   9.995   2.348   2.862  0.0976  1.6209  0.0224
25872SOL    HW289676   9.860   2.395   2.940 -0.1496 -0.5160  0.9252
25873SOL     OW89677   7.225   4.695   0.339  0.0752  0.2676  0.1199
25873SOL    HW189678   7.207   4.605   0.380 -0.6439  0.0114 -0.7303
25873SOL    HW289679   7.170   4.764   0.387 -1.3362 -0.1433 -0.8548
25874SOL     OW89680   3.452   8.182  10.016 -0.3594  0.2071  0.1511
25874SOL    HW189681   3.433   8.146  10.107 -2.6953  1.5645  0.2365
25874SOL    HW289682   3.366   8.203   9.970  0.8732  2.9703 -0.9795
25875SOL     OW89683   1.062   8.080   1.653  0.0476  0.1100  0.1186
25875SOL    HW189684   1.021   8.128   1.575 -1.1785 -0.7755  0.2080
25875SOL    HW289685   1.095   7.990   1.623 -0.6355 -0.3270  0.6736
25876SOL     OW89686   1.539   9.716   8.059  0.4302  0.9582  0.0921
25876SOL    HW189687   1.578   9.642   8.004 -0.7022  0.7282 -0.4178
25876SOL    HW289688   1.450   9.687   8.095  1.4175  0.8591  2.5742
25877SOL     OW89689   1.351   9.979   5.853 -0.6344  0.1158  0.1220
25877SOL    HW189690   1.328  10.045   5.782 -1.9906  2.3835  2.5840
25877SOL    HW289691   1.444   9.944   5.837  0.2347  2.8299 -1.0822
25878SOL     OW89692   2.747   8.928   4.090  0.2183  0.0645 -0.4486
25878SOL    HW189693   2.743   8.828   4.081 -2.7156  0.0083  0.9085
25878SOL    HW289694   2.758   8.953   4.187 -2.3207  1.0722 -0.3868
25879SOL     OW89695   0.207   5.355   8.752 -0.3493 -0.2782 -0.1644
25879SOL    HW189696   0.291   5.338   8.805  0.0048  1.4830 -0.1321
25879SOL    HW289697   0.222   5.328   8.657 -0.4907 -2.0511  0.2986
25880SOL     OW89698   8.893   2.183   1.379  0.1449 -0.3433  0.3663
25880SOL    HW189699   8.963   2.235   1.330 -0.6710  1.5576  1.1642
25880SOL    HW289700   8.859   2.238   1.456  0.0653 -2.5351  1.9239
25881SOL     OW89701   3.956   1.975   1.033 -0.2058 -0.3300 -0.2173
25881SOL    HW189702   3.998   2.060   1.063  1.5261 -1.3564  0.3248
25881SOL    HW289703   4.006   1.938   0.955 -0.8392 -0.9604 -0.3354
25882SOL     OW89704   3.208   8.586   6.609 -0.1006  0.0889 -0.4517
25882SOL    HW189705   3.208   8.620   6.703  1.9500  0.3625 -0.5374
25882SOL    HW289706   3.233   8.489   6.608  2.1631  0.6414 -0.8715
25883SOL     OW89707   1.240   9.479   5.931  0.1147 -0.0441  0.2244
25883SOL    HW189708   1.271   9.574   5.932 -0.6167  0.2034 -0.6567
25883SOL    HW289709   1.167   9.468   5.864 -1.0351 -0.8438  1.5811
25884SOL     OW89710   4.647   8.485   5.511  0.4071 -0.0362  0.3710
25884SOL    HW189711   4.607   8.435   5.588  0.1159 -0.8983 -0.3239
25884SOL    HW289712   4.574   8.508   5.446  0.6314  0.7927  0.4153
25885SOL     OW89713   3.293   5.714   7.733  1.2126  0.7591  0.0848
25885SOL    HW189714   3.257   5.798   7.693  0.1581  0.3758  0.2246
25885SOL    HW289715   3.365   5.677   7.674  1.4129  1.5454 -0.1679
25886SOL     OW89716   8.279   7.784   3.552 -0.0593 -0.2312  0.0803
25886SOL    HW189717   8.346   7.857   3.533 -1.9511  0.8110 -3.0150
25886SOL    HW289718   8.302   7.703   3.499 -1.5758  0.3649 -1.5410
25887SOL     OW89719   3.702   5.534   9.287  0.2785 -0.3630  0.6767
25887SOL    HW189720   3.716   5.574   9.378  0.9298  0.5828  0.1750
25887SOL    HW289721   3.790   5.521   9.242 -0.0737 -0.2576 -0.0550
25888SOL     OW89722   5.008   2.468   8.204 -0.2424 -0.0102 -0.7146
25888SOL    HW189723   4.973   2.402   8.270  1.1489  0.4452  0.5238
25888SOL    HW289724   4.933   2.521   8.166 -1.0727 -0.3774  0.4008
25889SOL     OW89725   4.445   9.265   2.246 -0.6777 -0.0389  0.0938
25889SOL    HW189726   4.525   9.324   2.247 -1.8138  1.5279  0.7239
25889SOL    HW289727   4.428   9.234   2.152  0.3009  0.1100 -0.1356
25890SOL     OW89728   6.727   6.388   1.515  0.0346 -0.0937 -0.3442
25890SOL    HW189729   6.689   6.350   1.599  2.5729  0.6123  1.1648
25890SOL    HW289730   6.751   6.314   1.453  0.7891 -0.7654  0.7321
25891SOL     OW89731   4.845   3.525   3.312 -0.9217  0.5583  0.7047
25891SOL    HW189732   4.934   3.543   3.353  0.4825 -0.2893 -1.9196
25891SOL    HW289733   4.800   3.611   3.290  0.1036  0.9646  0.2014
25892SOL     OW89734   7.950   0.158   8.454  0.4136  0.7144  0.1609
25892SOL    HW189735   8.004   0.077   8.475  1.1700  1.6420  1.9012
25892SOL    HW289736   8.007   0.225   8.406  0.6004  1.3635  1.2713
25893SOL     OW89737   3.025   1.304   1.805 -0.8295  0.5684  0.0498
25893SOL    HW189738   2.967   1.308   1.724 -0.5406 -0.5553 -0.2253
25893SOL    HW289739   3.063   1.211   1.814 -0.6829  0.7501  1.3422
25894SOL     OW89740   9.411   3.510   0.093  0.2939  0.4933 -0.6828
25894SOL    HW189741   9.388   3.567   0.014 -3.9637 -2.0629 -1.4428
25894SOL    HW289742   9.347   3.530   0.168  0.4516 -1.3336 -0.0387
25895SOL     OW89743   9.604   4.906   9.402  0.0581  0.1002  0.5441
25895SOL    HW189744   9.593   5.005   9.413  0.6493  0.2090  0.1742
25895SOL    HW289745   9.689   4.887   9.353  0.3859 -0.6290  1.3778
25896SOL     OW89746   9.495   7.248   6.360 -0.1707 -0.1713 -0.1475
25896SOL    HW189747   9.435   7.195   6.301 -0.4759 -1.0740  0.9553
25896SOL    HW289748   9.451   7.259   6.450  0.0329  1.6596 -0.2587
25897SOL     OW89749   2.188   4.656   3.039  0.1298 -0.4178  0.1172
25897SOL    HW189750   2.152   4.627   3.127  0.1676 -1.7021 -0.2903
25897SOL    HW289751   2.226   4.749   3.048 -0.5387 -0.2429  1.2589
25898SOL     OW89752   1.237   2.528   6.628 -0.0059  0.2913  0.1809
25898SOL    HW189753   1.196   2.537   6.537  0.8137 -3.1403 -0.6012
25898SOL    HW289754   1.331   2.561   6.625 -0.3121  1.1720  0.0639
25899SOL     OW89755   6.806   4.628   1.085  0.3521  0.7687  0.0670
25899SOL    HW189756   6.867   4.691   1.133  0.1096  1.5346 -0.6272
25899SOL    HW289757   6.803   4.651   0.988  0.3077 -0.3507 -0.2126
25900SOL     OW89758   7.846   3.444   1.587 -0.2995 -0.1417  0.3979
25900SOL    HW189759   7.782   3.521   1.586  0.9248  0.8722 -1.5083
25900SOL    HW289760   7.794   3.358   1.591 -1.6733  0.7358  2.4969
25901SOL     OW89761   4.343   5.882   0.318 -0.5027  0.1212  0.5646
25901SOL    HW189762   4.342   5.783   0.305  3.0701  0.1527 -0.5545
25901SOL    HW289763   4.418   5.907   0.379 -0.8623  2.1907  0.2000
25902SOL     OW89764   3.843   2.457   5.554  0.1239 -0.6701 -0.4510
25902SOL    HW189765   3.905   2.493   5.484  1.2643 -0.6938  0.5412
25902SOL    HW289766   3.827   2.360   5.538  0.9752 -0.8459 -0.2503
25903SOL     OW89767   5.010   0.919   9.898  0.4667  0.2675 -0.4273
25903SOL    HW189768   5.097   0.964   9.878  1.2635  0.0382  2.2951
25903SOL    HW289769   4.946   0.986   9.935  0.2173  0.0134 -0.3946
25904SOL     OW89770   9.865   0.712   5.980  0.0644 -0.3809 -0.1998
25904SOL    HW189771   9.926   0.651   5.929 -0.1940  0.2661 -1.2964
25904SOL    HW289772   9.918   0.758   6.052  0.9176  0.3128 -1.2608
25905SOL     OW89773   1.066   9.928   8.349  0.4178  0.7229 -0.4154
25905SOL    HW189774   1.115   9.849   8.385 -2.5638 -0.6346  0.8293
25905SOL    HW289775   1.036   9.909   8.256  0.9541  0.9605 -0.6368
25906SOL     OW89776   1.718   7.834   5.608 -0.2560 -0.1861 -0.0239
25906SOL    HW189777   1.679   7.900   5.672 -0.2295  1.1083 -1.3254
25906SOL    HW289778   1.814   7.819   5.629  0.3370  1.9138 -1.0746
25907SOL     OW89779   9.177   0.208   4.385  0.0127 -0.1645  0.0486
25907SOL    HW189780   9.139   0.148   4.314  1.0138 -0.1809 -0.4833
25907SOL    HW289781   9.274   0.221   4.368  0.2042  0.0261  1.2949
25908SOL     OW89782   7.278   2.936   8.684  0.3574 -0.7802  0.0684
25908SOL    HW189783   7.190   2.931   8.730  0.2626 -2.2444 -0.2453
25908SOL    HW289784   7.272   2.998   8.606  0.4985  1.6536  1.9491
25909SOL     OW89785   0.823   1.679   0.131  0.3519 -0.3922  0.6548
25909SOL    HW189786   0.758   1.664   0.056  0.9273  0.7020 -0.0793
25909SOL    HW289787   0.779   1.655   0.218 -1.0925  0.4744  0.1950
25910SOL     OW89788   8.778   0.094   3.207 -0.5759  0.0803 -0.1035
25910SOL    HW189789   8.845   0.065   3.139  1.1182 -1.4222  2.1698
25910SOL    HW289790   8.693   0.043   3.193  0.1623 -1.1182 -0.3214
25911SOL     OW89791   4.858   0.437   0.189 -0.2217 -0.4996  0.2941
25911SOL    HW189792   4.764   0.460   0.163 -0.5202 -2.1020 -0.1105
25911SOL    HW289793   4.856   0.365   0.258  0.7143 -2.0717 -1.2670
25912SOL     OW89794   6.764   1.036   3.469  0.3488  0.0304 -0.8810
25912SOL    HW189795   6.775   0.991   3.381  2.1341 -0.1545 -0.5873
25912SOL    HW289796   6.708   0.979   3.529  2.2216 -1.5984 -0.6592
25913SOL     OW89797   9.754   1.824   9.444 -0.0114  0.2879 -0.0423
25913SOL    HW189798   9.681   1.763   9.473 -0.0283 -0.4365 -1.5839
25913SOL    HW289799   9.719   1.889   9.377  0.5742  0.4787 -0.1715
25914SOL     OW89800   1.919   1.896   9.925  0.0768  0.0726 -0.0154
25914SOL    HW189801   1.947   1.919  10.018 -3.5135  1.5796  0.7840
25914SOL    HW289802   1.912   1.796   9.916  2.0106 -0.1472  0.8237
25915SOL     OW89803   9.306   8.972   1.843 -0.2541  0.2853  0.8114
25915SOL    HW189804   9.305   8.967   1.943  1.0308  0.9187  0.8716
25915SOL    HW289805   9.365   9.048   1.814 -3.3316  2.3055 -0.3530
25916SOL     OW89806   3.282   4.738   4.926 -0.1472  0.6015  0.2276
25916SOL    HW189807   3.278   4.688   4.840  1.8987  1.1660 -0.2275
25916SOL    HW289808   3.223   4.819   4.922 -1.0555 -0.0781 -0.1577
25917SOL     OW89809   2.796   3.438   1.717  0.5293  0.3901  0.2733
25917SOL    HW189810   2.811   3.533   1.692 -2.7269  0.9161  0.1790
25917SOL    HW289811   2.824   3.379   1.642 -0.6697  1.4655 -1.0331
25918SOL     OW89812   1.793   9.992   0.051  0.7029  0.4746  0.0971
25918SOL    HW189813   1.850  10.060   0.005 -1.7313  3.3590  1.1359
25918SOL    HW289814   1.819   9.986   0.147 -2.0602  3.5523  1.1657
25919SOL     OW89815   1.467   9.650   1.191  0.7582  0.1147  0.1382
25919SOL    HW189816   1.484   9.746   1.213  0.8074  0.1125  0.1072
25919SOL    HW289817   1.546   9.595   1.219  1.1170  0.2092 -0.6968
25920SOL     OW89818   4.438   0.589   5.921  0.3885  0.5189  0.4278
25920SOL    HW189819   4.409   0.497   5.946  1.3598  0.6529  2.1101
25920SOL    HW289820   4.537   0.593   5.915  0.2240  0.6966 -2.7933
25921SOL     OW89821   7.137   2.688   2.806 -0.1780 -0.8390  0.6632
25921SOL    HW189822   7.055   2.645   2.770  0.5096 -1.7802  0.1938
25921SOL    HW289823   7.214   2.670   2.744  0.5141 -0.5022  1.4172
25922SOL     OW89824   3.166   2.678   0.640 -0.0599  0.4824 -0.0474
25922SOL    HW189825   3.096   2.622   0.594  0.5225 -1.1035  0.9705
25922SOL    HW289826   3.208   2.625   0.713  2.4597  1.3045 -0.8502
25923SOL     OW89827   2.775   4.615   9.715  0.1134  0.0124  0.2779
25923SOL    HW189828   2.855   4.595   9.772 -0.3507  0.7867  1.2201
25923SOL    HW289829   2.697   4.637   9.773 -0.5024  0.3310 -0.6539
25924SOL     OW89830   8.627   1.674   5.894  0.3780 -0.3084 -0.5807
25924SOL    HW189831   8.655   1.762   5.931  0.5605 -0.1856 -0.9982
25924SOL    HW289832   8.664   1.600   5.951 -3.1888 -0.0799  2.1549
25925SOL     OW89833   4.092   1.800   0.850  0.3331 -0.3422  0.1753
25925SOL    HW189834   4.111   1.868   0.780  0.7296 -0.2613  0.3618
25925SOL    HW289835   4.010   1.748   0.825  0.8007 -0.6902 -0.6139
25926SOL     OW89836   4.663   1.293   2.268  0.0106 -0.4461  0.1375
25926SOL    HW189837   4.623   1.384   2.281 -0.7169 -0.8768  0.9532
25926SOL    HW289838   4.611   1.226   2.321  2.7892 -0.7806  2.5334
25927SOL     OW89839   8.114   8.324   6.338  0.1361 -0.1609 -0.3907
25927SOL    HW189840   8.073   8.265   6.408  0.5727 -0.8581 -0.7171
25927SOL    HW289841   8.136   8.413   6.378 -3.2935  0.8599 -0.6297
25928SOL     OW89842   3.669   2.311   3.469 -0.1731  0.1687  0.1728
25928SOL    HW189843   3.651   2.257   3.386 -1.5002  0.5527  0.2089
25928SOL    HW289844   3.620   2.271   3.546  1.8689 -0.7958  1.0198
25929SOL     OW89845   1.311   4.206   2.527 -0.2687 -0.3729  0.2216
25929SOL    HW189846   1.213   4.213   2.546 -0.4406 -1.0306 -0.3733
25929SOL    HW289847   1.352   4.297   2.526 -0.9849 -0.0502 -0.0601
25930SOL     OW89848   9.535   6.944   3.065  0.4594 -0.1392 -0.2079
25930SOL    HW189849   9.577   7.017   3.011 -0.4974 -0.7106 -1.7466
25930SOL    HW289850   9.479   6.984   3.138  0.5444  0.6538 -0.5764
25931SOL     OW89851   8.113   0.599   8.159  0.0668  0.1038  0.4088
25931SOL    HW189852   8.043   0.659   8.119  0.0766 -0.1052  0.0795
25931SOL    HW289853   8.201   0.646   8.157 -0.0239  0.2932  0.6532
25932SOL     OW89854   3.521   0.869   4.295 -0.3884  0.6784 -0.6237
25932SOL    HW189855   3.546   0.961   4.265  1.8645  0.4470  0.4996
25932SOL    HW289856   3.513   0.809   4.215  0.2897  1.3164 -1.1741
25933SOL     OW89857   8.524   1.568   7.694 -0.0066  0.2876  0.5723
25933SOL    HW189858   8.499   1.473   7.714 -0.0408  0.0228 -0.7454
25933SOL    HW289859   8.619   1.571   7.663 -0.4735  0.4965 -0.8631
25934SOL     OW89860   1.454   7.862   2.090  0.1548  0.3482 -0.3929
25934SOL    HW189861   1.484   7.872   2.185  1.1284 -0.6016 -0.5874
25934SOL    HW289862   1.401   7.942   2.063  1.4902  1.5190  0.3586
25935SOL     OW89863   8.143   7.639   8.304  0.0029  0.4631  0.5584
25935SOL    HW189864   8.230   7.596   8.282  0.1418  0.7052  0.6406
25935SOL    HW289865   8.158   7.721   8.359 -0.3373 -0.2020  1.6614
25936SOL     OW89866   8.607   3.398   4.889  0.3014 -0.4452 -0.6337
25936SOL    HW189867   8.664   3.471   4.927  0.6139 -1.0624  0.1023
25936SOL    HW289868   8.526   3.438   4.846 -0.8577  0.2254  2.0397
25937SOL     OW89869   1.770   3.916   2.076 -0.1201 -1.0226 -0.3856
25937SOL    HW189870   1.868   3.919   2.094 -0.2087  0.5567 -0.0860
25937SOL    HW289871   1.721   3.896   2.160 -0.1669  0.3308 -0.0724
25938SOL     OW89872   5.930   5.188   1.530  0.0844  0.4723 -0.2845
25938SOL    HW189873   5.979   5.260   1.480  0.5890 -0.4749 -1.1610
25938SOL    HW289874   5.848   5.163   1.479  0.5060 -0.3702 -0.5500
25939SOL     OW89875   9.875   5.765   5.428  0.1517  0.0915 -0.6782
25939SOL    HW189876   9.950   5.719   5.381  0.0448  0.8015 -1.5538
25939SOL    HW289877   9.798   5.778   5.365 -0.7690 -0.7584  0.2462
25940SOL     OW89878   2.894   4.470   0.759  0.1772  0.1974  1.0704
25940SOL    HW189879   2.963   4.524   0.711 -0.2069  0.1579  0.4686
25940SOL    HW289880   2.888   4.500   0.854  0.0871  1.0985  0.7879
25941SOL     OW89881   9.847   9.689   8.039 -0.0224 -0.0621 -0.1530
25941SOL    HW189882   9.901   9.764   8.078  1.0176 -1.3223  0.8621
25941SOL    HW289883   9.862   9.686   7.940 -1.8884  2.5150 -0.5788
25942SOL     OW89884   9.881   7.781   2.760  0.1225 -0.3414 -0.5647
25942SOL    HW189885   9.935   7.806   2.840  1.3793  0.1669 -1.5515
25942SOL    HW289886   9.887   7.683   2.744 -2.2840 -0.8760  1.4874
25943SOL     OW89887   4.060   6.197   8.795 -0.1837 -0.0978 -0.4341
25943SOL    HW189888   3.991   6.174   8.864 -0.2283  0.0254 -0.4402
25943SOL    HW289889   4.128   6.123   8.791 -0.5468 -0.4192 -0.7333
25944SOL     OW89890   0.922   9.382   1.843 -0.0687  0.4025 -0.5037
25944SOL    HW189891   0.925   9.478   1.871  1.2048  0.1006  0.4833
25944SOL    HW289892   0.830   9.346   1.857 -0.3677  1.2806 -0.1563
25945SOL     OW89893   0.075   3.429   9.475 -0.5093 -0.3063 -0.1177
25945SOL    HW189894   0.161   3.383   9.452 -1.0329 -0.8406 -1.0344
25945SOL    HW289895   0.087   3.480   9.560  0.5282 -0.8862  0.0991
25946SOL     OW89896   2.201   9.479   4.687  0.2664 -0.3972 -0.1793
25946SOL    HW189897   2.218   9.576   4.667 -1.8909  0.1304  0.3480
25946SOL    HW289898   2.262   9.449   4.759  0.9873  0.5764 -0.3690
25947SOL     OW89899   8.764   9.613   2.760 -0.0182 -0.4618  0.2147
25947SOL    HW189900   8.821   9.694   2.745  1.2230 -1.5528 -1.2287
25947SOL    HW289901   8.691   9.611   2.693 -1.1112  0.3480  1.3555
25948SOL     OW89902   9.955   9.130   3.959  0.7021 -0.1277  0.1382
25948SOL    HW189903  10.047   9.161   3.979  0.6764 -0.5176  0.8895
25948SOL    HW289904   9.935   9.048   4.013  1.2483 -2.2530 -2.7664
25949SOL     OW89905   6.667   0.833   4.847 -0.0376  0.1366  0.2794
25949SOL    HW189906   6.615   0.799   4.768 -0.5246  0.3554  0.5083
25949SOL    HW289907   6.650   0.774   4.926 -0.5415  0.6582  0.5619
25950SOL     OW89908   0.155   8.819   5.594 -0.4138 -0.1422  0.2110
25950SOL    HW189909   0.240   8.819   5.648 -0.5027 -0.5691  0.3544
25950SOL    HW289910   0.077   8.810   5.656 -0.5953  0.8138  0.1247
25951SOL     OW89911   5.716   4.905   9.430 -0.1196 -0.1896  0.2082
25951SOL    HW189912   5.752   4.976   9.490  0.5577 -0.4156  0.0789
25951SOL    HW289913   5.653   4.946   9.364 -0.6494  0.0980  0.8900
25952SOL     OW89914   4.401   7.024   4.353 -0.2290  0.3824  0.0212
25952SOL    HW189915   4.433   7.096   4.291 -0.1269  0.2052 -0.1314
25952SOL    HW289916   4.422   7.050   4.447 -1.0970  1.0244  0.0465
25953SOL     OW89917   2.736   7.456   8.171 -0.3316 -0.3490 -0.7664
25953SOL    HW189918   2.655   7.507   8.142  0.2684  0.0027 -1.8660
25953SOL    HW289919   2.717   7.408   8.256 -1.4991  0.2262 -0.6964
25954SOL     OW89920   6.532   0.529   7.796  0.0401 -0.0394 -0.4756
25954SOL    HW189921   6.551   0.511   7.699 -0.4573 -1.3171 -0.3436
25954SOL    HW289922   6.439   0.500   7.817  1.1250 -2.4782  1.0737
25955SOL     OW89923   6.016   8.998   6.462  0.2778  0.4327 -0.3939
25955SOL    HW189924   5.986   9.087   6.426 -0.1355 -0.6237 -2.7808
25955SOL    HW289925   5.937   8.945   6.490  0.4378  0.3317 -0.1286
25956SOL     OW89926   1.859   1.177   2.028  0.1784 -0.3457 -0.0490
25956SOL    HW189927   1.848   1.110   1.954 -0.9599 -0.3711  0.1316
25956SOL    HW289928   1.863   1.128   2.116 -0.0408 -0.2161  0.0329
25957SOL     OW89929   6.620   2.454   1.488 -0.8156  0.3357  0.0904
25957SOL    HW189930   6.548   2.516   1.520 -0.9808  0.8373 -1.2126
25957SOL    HW289931   6.695   2.454   1.554 -1.0957  1.4308  0.4303
25958SOL     OW89932   9.836   5.294   4.335 -0.1282  0.0871  0.3423
25958SOL    HW189933   9.776   5.224   4.374 -1.2848  1.0381  0.2701
25958SOL    HW289934   9.782   5.373   4.306  1.3242  1.6511  1.7776
25959SOL     OW89935   3.276   6.768   2.436  0.3998 -0.5818  0.3207
25959SOL    HW189936   3.204   6.758   2.506 -0.4462  2.9097  0.0406
25959SOL    HW289937   3.244   6.728   2.350 -0.0814 -1.5000  0.9119
25960SOL     OW89938   7.036   1.530   8.108 -0.0874 -0.7212 -0.2098
25960SOL    HW189939   7.128   1.570   8.107 -1.0444  1.5327 -2.2316
25960SOL    HW289940   7.032   1.455   8.042 -0.2033  0.4275 -1.5318
25961SOL     OW89941   7.763   7.281   4.854  0.0623 -0.1241  0.2197
25961SOL    HW189942   7.816   7.339   4.791 -0.4370  1.8710  1.5697
25961SOL    HW289943   7.689   7.237   4.804 -0.9469  2.2328 -0.4603
25962SOL     OW89944   1.888   7.112   9.443 -0.0749  0.4915  0.3887
25962SOL    HW189945   1.835   7.037   9.483 -0.7489  0.5099 -0.4489
25962SOL    HW289946   1.925   7.169   9.516 -2.5831  1.4160  0.9916
25963SOL     OW89947   7.075   4.590   8.490  0.2661  0.0730 -0.0193
25963SOL    HW189948   7.042   4.540   8.410  0.7612  0.3254 -0.3839
25963SOL    HW289949   7.015   4.572   8.567 -0.2439 -0.1398 -0.4606
25964SOL     OW89950   6.040   4.782   1.579 -1.0439 -0.2076  0.4032
25964SOL    HW189951   6.022   4.798   1.482 -0.6593 -2.1055 -0.0187
25964SOL    HW289952   5.954   4.758   1.625 -0.8869 -1.6272  0.0080
25965SOL     OW89953   4.962   7.713   5.723  0.1157 -0.4564 -0.1932
25965SOL    HW189954   4.996   7.697   5.816  0.5304 -1.0176 -0.4363
25965SOL    HW289955   5.037   7.742   5.665 -0.4385  1.4158 -0.0072
25966SOL     OW89956   8.085   3.627   6.841  0.0841 -0.0707  0.4050
25966SOL    HW189957   8.123   3.558   6.779  1.9560  1.2646  0.0405
25966SOL    HW289958   8.101   3.599   6.936  2.1366  0.5390  0.2596
25967SOL     OW89959   6.962   9.272   7.646 -0.3649  0.1785 -0.0222
25967SOL    HW189960   6.920   9.276   7.737  0.3371 -0.0824  0.3105
25967SOL    HW289961   6.894   9.299   7.578 -0.8935  0.3842  0.5766
25968SOL     OW89962   0.382   5.930   4.533 -0.0500  0.0853  0.1513
25968SOL    HW189963   0.459   5.989   4.507 -0.2378  0.0881 -0.3988
25968SOL    HW289964   0.333   5.901   4.451 -0.1986 -0.5109  0.4492
25969SOL     OW89965   5.733   7.306   3.595 -0.6241 -0.2941  0.6621
25969SOL    HW189966   5.819   7.296   3.645 -0.5403  2.1828  1.0870
25969SOL    HW289967   5.657   7.274   3.651 -0.1067 -1.5286  0.6812
25970SOL     OW89968   8.167   9.041   7.243  0.1286 -0.0718  0.0723
25970SOL    HW189969   8.125   8.982   7.174  0.7575 -0.6756  0.2035
25970SOL    HW289970   8.119   9.030   7.330 -0.5679  0.5752 -0.2187
25971SOL     OW89971   4.855   8.286   2.081 -0.0276 -0.2091  0.0625
25971SOL    HW189972   4.860   8.280   2.180 -1.2132 -1.4093  0.0667
25971SOL    HW289973   4.897   8.371   2.050 -0.1676  0.4419  1.6386
25972SOL     OW89974   7.964   4.527   0.406 -0.4362 -0.2764 -0.6002
25972SOL    HW189975   8.025   4.455   0.375 -0.8890  0.4529 -3.2961
25972SOL    HW289976   7.869   4.498   0.395 -0.6176 -0.0192  0.2093
25973SOL     OW89977   5.550   7.770   8.117  0.4235  0.2200 -0.0898
25973SOL    HW189978   5.607   7.704   8.166  0.0801 -0.0613 -0.0745
25973SOL    HW289979   5.515   7.729   8.034 -1.0815 -0.1441  0.7056
25974SOL     OW89980   3.804   7.499   0.486  0.2937 -0.0096 -0.4000
25974SOL    HW189981   3.782   7.597   0.478  0.3197 -0.0420 -0.9465
25974SOL    HW289982   3.843   7.481   0.576  0.8317  0.5935 -0.5008
25975SOL     OW89983   5.001   9.412   3.016 -0.6690 -0.0982  0.0188
25975SOL    HW189984   5.096   9.442   3.019 -0.9529  0.9316 -0.6994
25975SOL    HW289985   4.980   9.379   2.924 -0.7633 -1.1609  0.4198
25976SOL     OW89986   3.612   4.576   1.321 -0.2604  0.2776 -0.2502
25976SOL    HW189987   3.682   4.531   1.378 -1.0739 -0.6096  0.0634
25976SOL    HW289988   3.619   4.675   1.332  0.7360  0.1804  0.0353
25977SOL     OW89989   9.241   4.434   0.702  0.1205 -0.8849 -0.0765
25977SOL    HW189990   9.157   4.452   0.752  0.3119 -2.0293  0.6701
25977SOL    HW289991   9.317   4.423   0.766  1.0325  1.0053 -0.7787
25978SOL     OW89992   2.376   8.844   6.256  0.0060  0.2581  1.4551
25978SOL    HW189993   2.358   8.766   6.317 -0.1732  0.0918  1.1901
25978SOL    HW289994   2.431   8.813   6.179  0.3588  0.5000  1.6091
25979SOL     OW89995   4.712   4.449   6.376 -0.4821  0.5190  0.1050
25979SOL    HW189996   4.682   4.433   6.471 -0.0195 -3.2527 -0.2825
25979SOL    HW289997   4.811   4.451   6.373 -0.4467 -1.2122 -0.5006
25980SOL     OW89998   2.507   6.532   1.012  0.1621 -0.0313  0.7930
25980SOL    HW189999   2.578   6.503   0.947 -0.7291 -0.7313  0.1253
25980SOL    HW290000   2.435   6.580   0.963  1.0589  2.3576  1.7310
25981SOL     OW90001   8.678   0.236   9.296 -0.0753 -0.2523 -0.3989
25981SOL    HW190002   8.713   0.177   9.369 -0.2503 -1.7331 -1.4726
25981SOL    HW290003   8.606   0.188   9.246 -0.1433  0.8369 -1.3801
25982SOL     OW90004   2.495   4.956   0.335 -0.1478 -0.2444  0.2180
25982SOL    HW190005   2.536   4.999   0.254 -1.4659 -2.2608 -1.5604
25982SOL    HW290006   2.455   5.027   0.394 -0.5067  1.1363 -1.6520
25983SOL     OW90007   0.397   9.223   4.848  0.6184 -0.2432  0.2527
25983SOL    HW190008   0.404   9.300   4.911  0.6782  0.1437 -0.2229
25983SOL    HW290009   0.459   9.237   4.771 -0.0604 -0.3053 -0.3149
25984SOL     OW90010   3.487   9.408   0.613 -0.1853  0.0829 -0.1085
25984SOL    HW190011   3.441   9.320   0.605  0.7905 -0.4773  0.3241
25984SOL    HW290012   3.532   9.414   0.703  2.7426 -0.4446 -1.4861
25985SOL     OW90013   7.045   2.786   0.516 -0.4971 -0.7698 -0.5451
25985SOL    HW190014   7.124   2.817   0.568 -1.4324 -0.1518  0.5335
25985SOL    HW290015   6.961   2.821   0.558 -1.2993 -0.6591 -2.1955
25986SOL     OW90016   7.103   9.156   9.189 -0.3447 -0.2286 -0.2328
25986SOL    HW190017   7.076   9.141   9.284 -0.3759 -1.7289 -0.4689
25986SOL    HW290018   7.038   9.111   9.128  0.9155 -1.2176 -0.8869
25987SOL     OW90019   8.806   0.568   9.881  0.1134  0.0845  0.3290
25987SOL    HW190020   8.759   0.492   9.925 -2.0669  1.0272 -0.3423
25987SOL    HW290021   8.818   0.643   9.946 -1.5838  0.8188 -0.1960
25988SOL     OW90022   8.166   2.517   3.209 -0.3666 -0.3255  0.0596
25988SOL    HW190023   8.152   2.616   3.206  1.7784 -0.0092 -0.1242
25988SOL    HW290024   8.258   2.497   3.243 -1.5768 -2.3354  2.3448
25989SOL     OW90025   8.947   0.223   4.781  0.3114 -0.9419  0.2900
25989SOL    HW190026   8.860   0.212   4.733  1.1815  0.5531 -1.7167
25989SOL    HW290027   9.017   0.255   4.717  1.1265  2.7660  2.8408
25990SOL     OW90028   7.884   5.325   8.540 -1.0075  0.6558 -0.5894
25990SOL    HW190029   7.954   5.396   8.534  0.0591 -0.3960 -0.6600
25990SOL    HW290030   7.902   5.255   8.471 -2.4104  0.6097 -0.9377
25991SOL     OW90031   0.595   6.946   3.351  0.6550  0.3263  0.2604
25991SOL    HW190032   0.623   6.894   3.271 -1.0023 -0.1725  0.0008
25991SOL    HW290033   0.639   6.909   3.433  1.8594  0.4491 -0.3257
25992SOL     OW90034   6.473   9.431   4.026  0.0146  0.3569 -0.1097
25992SOL    HW190035   6.482   9.511   4.086 -0.3655  0.4543 -0.1869
25992SOL    HW290036   6.401   9.447   3.959 -1.2655 -0.7425  0.9704
25993SOL     OW90037   8.906   6.825   8.015  0.1329  0.0455 -0.2820
25993SOL    HW190038   8.815   6.818   8.055 -0.0447 -1.4627 -0.9122
25993SOL    HW290039   8.900   6.814   7.915  0.8877  0.8941 -0.4209
25994SOL     OW90040   9.916   0.008   3.115 -0.1485 -0.1335 -0.0153
25994SOL    HW190041   9.826   0.010   3.070  0.0258  1.3978 -0.3109
25994SOL    HW290042   9.983  -0.035   3.055 -0.4367 -0.2501 -0.2529
25995SOL     OW90043   4.678   6.259   3.804  0.6774 -0.4658  0.1873
25995SOL    HW190044   4.629   6.202   3.871  0.0752  1.5377  1.5160
25995SOL    HW290045   4.777   6.247   3.816  0.5846  0.0703  1.6588
25996SOL     OW90046   9.334   4.984   2.273  0.1976 -0.6323  0.0923
25996SOL    HW190047   9.241   4.966   2.241 -0.5076 -0.8747  2.1669
25996SOL    HW290048   9.335   4.985   2.373  2.4553 -0.7357  0.1040
25997SOL     OW90049   7.282   4.205   2.123  0.0003 -0.1340  0.7702
25997SOL    HW190050   7.271   4.256   2.038  0.0738 -1.1583  0.1359
25997SOL    HW290051   7.379   4.194   2.143 -0.0188  0.5240  1.2501
25998SOL     OW90052   0.994   0.241   1.440  0.2680  0.0890  0.9800
25998SOL    HW190053   1.062   0.168   1.431  0.7061  0.6942 -0.7963
25998SOL    HW290054   0.909   0.204   1.477  0.4704 -1.3340  0.0673
25999SOL     OW90055   9.872   8.302   0.288  0.1588 -0.2564  0.4256
25999SOL    HW190056   9.946   8.359   0.251 -0.0640  0.2508  0.7538
25999SOL    HW290057   9.842   8.237   0.218  0.9305 -0.4813  0.2984
26000SOL     OW90058   3.823   3.706   6.220  0.9066  0.1191  0.2493
26000SOL    HW190059   3.873   3.648   6.284  3.9244  0.4767 -1.7052
26000SOL    HW290060   3.839   3.802   6.242  0.5757  0.2439 -0.0426
26001SOL     OW90061   3.258   1.985   6.843  0.1833 -0.2179 -0.0822
26001SOL    HW190062   3.263   1.886   6.858 -1.2733 -0.4724 -1.1224
26001SOL    HW290063   3.348   2.026   6.861  0.7072 -1.6624  0.7293
26002SOL     OW90064   8.616   1.934   7.562  0.0253 -0.1630  0.2659
26002SOL    HW190065   8.543   1.910   7.626 -0.5919  0.9405 -0.0240
26002SOL    HW290066   8.662   2.018   7.592  1.7723 -1.3063  0.9208
26003SOL     OW90067   4.920   3.319   1.894 -0.0715  0.2403 -0.0938
26003SOL    HW190068   4.992   3.389   1.894 -0.9265  1.1298  1.1904
26003SOL    HW290069   4.959   3.231   1.920  0.7400  0.5072 -0.3849
26004SOL     OW90070   2.448   4.503   9.658  0.0951 -0.3244  0.3473
26004SOL    HW190071   2.475   4.543   9.745 -2.0556 -0.8477  1.2657
26004SOL    HW290072   2.523   4.514   9.592  0.8145  2.1886  1.5350
26005SOL     OW90073   3.787   7.501   5.218  0.3091 -0.2216 -0.0689
26005SOL    HW190074   3.693   7.532   5.206  0.0470 -1.0792 -0.2670
26005SOL    HW290075   3.846   7.580   5.236 -0.8137  0.1159  2.4260
26006SOL     OW90076   1.659   8.978   1.839  0.1298 -0.1721  0.1343
26006SOL    HW190077   1.627   8.969   1.933  0.4363 -0.7224  0.1844
26006SOL    HW290078   1.752   8.944   1.831 -0.5469 -1.8816 -0.7468
26007SOL     OW90079   0.465   1.564   3.357 -0.5384 -0.1820  0.3170
26007SOL    HW190080   0.416   1.486   3.397 -1.2100 -0.1203 -0.3668
26007SOL    HW290081   0.407   1.607   3.288 -0.1624  0.9110  0.6729
26008SOL     OW90082   3.441   4.375   7.396 -0.2564  0.0765 -0.2574
26008SOL    HW190083   3.403   4.448   7.452  2.0834  0.3608  1.0248
26008SOL    HW290084   3.461   4.296   7.454 -0.3264 -0.6174 -1.1680
26009SOL     OW90085   9.574   3.216   3.924 -0.3746 -0.5310 -0.2407
26009SOL    HW190086   9.528   3.300   3.894  0.4749 -0.2547 -0.7814
26009SOL    HW290087   9.618   3.232   4.012 -0.7589 -0.5986 -0.0368
26010SOL     OW90088   8.021   9.795   9.192 -0.0261 -0.1960  0.2393
26010SOL    HW190089   8.007   9.854   9.273  0.0279 -1.0767  0.8930
26010SOL    HW290090   8.112   9.755   9.196 -0.3059 -0.8430  0.1310
26011SOL     OW90091   5.205   4.518   8.024 -0.3316 -0.0791  0.5228
26011SOL    HW190092   5.287   4.541   7.972 -0.2166  0.1416  0.7949
26011SOL    HW290093   5.212   4.559   8.115 -1.4498  1.2612  0.0202
26012SOL     OW90094   7.834   5.136   8.923  0.2485 -0.6038 -0.7960
26012SOL    HW190095   7.821   5.216   8.864  1.6366 -2.2870 -3.4870
26012SOL    HW290096   7.927   5.135   8.958 -0.6853  0.5996  1.8395
26013SOL     OW90097   8.807   3.903   1.751 -0.1547 -0.5171 -0.6387
26013SOL    HW190098   8.814   3.822   1.693  0.8312  0.1396 -1.4587
26013SOL    HW290099   8.888   3.960   1.738 -1.3903  1.2165 -1.0223
26014SOL     OW90100   0.759   2.786   6.678  0.4506  0.2706  0.2807
26014SOL    HW190101   0.847   2.792   6.724  0.1025 -0.5284  1.0588
26014SOL    HW290102   0.739   2.873   6.632  2.0575  0.1543 -0.6792
26015SOL     OW90103   3.207   6.943   9.401  0.6374 -0.1589  0.2299
26015SOL    HW190104   3.211   7.030   9.351  1.6691 -0.4486 -0.2048
26015SOL    HW290105   3.290   6.890   9.383 -0.1317 -1.3890  0.2222
26016SOL     OW90106   8.718   5.355   7.163  0.0688 -0.4209  0.0709
26016SOL    HW190107   8.791   5.383   7.226  0.6137  2.0339 -1.5746
26016SOL    HW290108   8.677   5.437   7.123 -3.2653 -1.7885  0.5762
26017SOL     OW90109   7.094   8.111   5.541 -0.3081  0.0421  0.1115
26017SOL    HW190110   7.152   8.048   5.488 -0.7783 -0.2748 -0.0284
26017SOL    HW290111   7.098   8.086   5.637  1.3465  1.2408  0.3649
26018SOL     OW90112   4.331   9.527   6.396 -0.1715  0.3817  0.7318
26018SOL    HW190113   4.278   9.591   6.451  0.6350  0.5688  1.2966
26018SOL    HW290114   4.425   9.559   6.390 -0.0315 -0.1551  0.0566
26019SOL     OW90115   0.536   6.724   5.768 -0.1554 -0.2249 -0.1182
26019SOL    HW190116   0.487   6.655   5.714 -0.7550  0.6805 -0.7503
26019SOL    HW290117   0.508   6.717   5.864 -0.6511 -0.4762 -0.2777
26020SOL     OW90118   1.981   8.534   3.379 -0.8746 -0.0562  0.3229
26020SOL    HW190119   2.078   8.515   3.395 -1.0633 -1.2260  0.0885
26020SOL    HW290120   1.946   8.591   3.454 -0.1197 -0.0017  0.6372
26021SOL     OW90121   1.979   1.206   9.580  0.2168 -0.2589 -0.5932
26021SOL    HW190122   1.879   1.198   9.581  0.1224  0.8255 -1.1393
26021SOL    HW290123   2.005   1.302   9.569  1.3276 -0.3988  0.7232
26022SOL     OW90124   2.194   0.407   8.324 -0.2263  0.2849  0.4134
26022SOL    HW190125   2.226   0.429   8.232 -0.8700  2.0716  0.5833
26022SOL    HW290126   2.119   0.469   8.349 -1.4267 -1.5018  1.3665
26023SOL     OW90127   1.984   6.177   6.222  0.5713  0.2351 -0.4402
26023SOL    HW190128   1.922   6.100   6.233  0.0742  0.7340  0.2955
26023SOL    HW290129   2.068   6.146   6.176  0.5638 -0.8359  0.2414
26024SOL     OW90130   8.426   8.233   9.799 -0.4338 -0.6374  0.2230
26024SOL    HW190131   8.467   8.275   9.718 -0.1771  1.6626  1.4901
26024SOL    HW290132   8.498   8.208   9.864 -0.8596  1.8108  1.7047
26025SOL     OW90133   2.628   7.481   8.652  0.4917 -0.0492 -0.4257
26025SOL    HW190134   2.609   7.508   8.746 -0.3313  0.4740 -0.7385
26025SOL    HW290135   2.726   7.485   8.635  0.7187 -0.8186  0.6147
26026SOL     OW90136   2.971   0.297   0.050 -0.3236  0.1447 -0.3251
26026SOL    HW190137   3.052   0.349   0.079  0.4995 -2.1139  1.6299
26026SOL    HW290138   2.901   0.303   0.121  0.5451 -2.9798  0.8561
26027SOL     OW90139   5.690   8.007   8.068  0.6236 -0.3515 -0.1760
26027SOL    HW190140   5.721   8.069   8.140  0.3738  0.1284 -0.4863
26027SOL    HW290141   5.649   7.926   8.110 -0.6386  0.4864  0.2253
26028SOL     OW90142   6.568   9.761   3.438  0.4512  0.3527 -0.1467
26028SOL    HW190143   6.648   9.703   3.453  0.0352 -0.0591  0.5544
26028SOL    HW290144   6.548   9.811   3.522 -0.3080  0.0886 -0.1643
26029SOL     OW90145   4.048   0.325   8.231  0.1143 -0.0170 -0.2209
26029SOL    HW190146   4.055   0.226   8.245 -1.4126  0.0181  0.9176
26029SOL    HW290147   4.051   0.371   8.319 -2.8301  0.6971 -0.4458
26030SOL     OW90148   1.255   2.837   3.413  0.2313 -0.0125 -0.2108
26030SOL    HW190149   1.186   2.892   3.460 -0.4195 -0.8525 -0.1756
26030SOL    HW290150   1.283   2.882   3.329 -0.8532  0.0112 -0.5653
26031SOL     OW90151   6.389   2.057   5.337 -0.5474 -0.0695  0.0193
26031SOL    HW190152   6.313   2.098   5.388 -0.4482 -0.3136  0.3651
26031SOL    HW290153   6.365   2.050   5.240 -0.4538  1.0931 -0.0944
26032SOL     OW90154   8.113   1.690   2.558  0.1536 -0.3138 -0.7122
26032SOL    HW190155   8.211   1.707   2.552  0.0315  0.5645 -0.2594
26032SOL    HW290156   8.082   1.707   2.652 -0.5728  0.1643 -1.0377
26033SOL     OW90157   8.125   6.680   3.393 -0.5207 -0.3865 -0.2490
26033SOL    HW190158   8.216   6.663   3.431 -1.0476  1.3136  1.8598
26033SOL    HW290159   8.116   6.778   3.371 -1.5324 -0.7003 -1.2746
26034SOL     OW90160   1.261   9.378   9.023  0.0153 -0.1084  0.3307
26034SOL    HW190161   1.344   9.378   8.966 -0.3663  1.1115 -0.2375
26034SOL    HW290162   1.181   9.374   8.964 -0.3692  0.4473  0.8221
26035SOL     OW90163   5.927   0.047   7.658 -0.0981 -0.1040 -0.2394
26035SOL    HW190164   5.856   0.104   7.699 -0.5484 -0.6189 -0.2985
26035SOL    HW290165   5.969   0.096   7.582 -0.9826 -0.1373 -0.7522
26036SOL     OW90166   0.042   6.915   4.083  0.2332 -0.0099 -0.3694
26036SOL    HW190167   0.058   6.883   3.990  1.1697 -1.5238  0.2999
26036SOL    HW290168   0.036   7.015   4.083  3.2310  0.2282 -1.6111
26037SOL     OW90169   3.890   3.578   9.426 -0.1422  0.2373 -0.0791
26037SOL    HW190170   3.876   3.665   9.379 -1.2906 -0.3826 -0.9087
26037SOL    HW290171   3.821   3.567   9.498  0.8749  0.6439  0.9646
26038SOL     OW90172   4.411   4.948   9.171  0.1776  0.7443  0.0730
26038SOL    HW190173   4.313   4.953   9.188  0.3912  1.3198  1.2414
26038SOL    HW290174   4.442   4.854   9.177 -0.3213  0.5460 -0.4262
26039SOL     OW90175   2.297   7.041   4.700  0.2737 -0.1909  0.6814
26039SOL    HW190176   2.215   7.084   4.738 -1.0076 -1.6005 -0.4261
26039SOL    HW290177   2.377   7.074   4.749 -1.0612  0.3024  2.6070
26040SOL     OW90178   8.516   7.373   0.138 -0.2800 -0.4197 -0.0082
26040SOL    HW190179   8.598   7.401   0.089  0.2221  0.7372  1.4303
26040SOL    HW290180   8.440   7.361   0.073  0.6602 -0.1132 -1.1762
26041SOL     OW90181   7.035   0.674   9.986 -0.1009 -0.2213 -0.4497
26041SOL    HW190182   7.031   0.684  10.085 -1.0001 -0.1437 -0.4880
26041SOL    HW290183   7.108   0.610   9.961 -0.3332 -0.7707  0.2926
26042SOL     OW90184   4.661   2.443   0.660 -0.2027 -0.6430  0.2233
26042SOL    HW190185   4.694   2.470   0.751 -0.8346  1.5938 -0.1764
26042SOL    HW290186   4.568   2.476   0.647 -0.7362 -2.4033 -0.6400
26043SOL     OW90187   0.246   6.298   1.758  0.3259 -0.0700 -0.0250
26043SOL    HW190188   0.244   6.364   1.834 -1.0892  2.1810 -1.9511
26043SOL    HW290189   0.152   6.274   1.733  0.8209 -2.4357  0.2842
26044SOL     OW90190   2.132   0.836   0.323 -0.1311  0.0818 -0.2782
26044SOL    HW190191   2.154   0.915   0.380 -0.7478  1.0127 -1.3140
26044SOL    HW290192   2.167   0.753   0.367 -0.1317  0.8342  1.1814
26045SOL     OW90193   0.993   3.870   5.492  0.1848 -0.1911  0.3123
26045SOL    HW190194   0.949   3.839   5.408 -3.0898  1.1407  1.4821
26045SOL    HW290195   1.043   3.955   5.474 -1.5809  0.7858 -0.0185
26046SOL     OW90196   9.699   7.207   8.975 -0.4518 -0.2637  0.0112
26046SOL    HW190197   9.710   7.296   9.019 -0.9086  0.3934 -1.1724
26046SOL    HW290198   9.603   7.180   8.977 -0.6417  0.2208 -1.3734
26047SOL     OW90199   7.517   5.147   1.920  0.1560 -0.0209  0.1883
26047SOL    HW190200   7.540   5.123   2.014 -0.6899  1.2367  0.7332
26047SOL    HW290201   7.593   5.197   1.878 -0.2113  1.1084  0.8465
26048SOL     OW90202   6.804   1.584   5.825 -0.3727 -0.3413  0.0979
26048SOL    HW190203   6.794   1.512   5.756 -0.7353  1.3676 -1.6750
26048SOL    HW290204   6.765   1.669   5.790 -0.2745  0.6361  2.3101
26049SOL     OW90205   7.511   5.815   3.450  0.3089  0.1157 -0.1083
26049SOL    HW190206   7.553   5.801   3.540 -1.1484 -0.2060  0.5340
26049SOL    HW290207   7.538   5.904   3.414 -0.8889  1.2406  1.6755
26050SOL     OW90208   5.237   5.808   0.346  0.5269 -0.1329 -0.3434
26050SOL    HW190209   5.157   5.867   0.334  0.6481 -0.0013 -0.5132
26050SOL    HW290210   5.241   5.775   0.440 -0.2804 -0.9357 -0.5848
26051SOL     OW90211   8.753   5.357   2.004 -0.0935  0.2179 -0.0005
26051SOL    HW190212   8.775   5.430   2.069  0.1682 -0.6640  0.9237
26051SOL    HW290213   8.838   5.316   1.970 -0.2230 -1.3449  1.4486
26052SOL     OW90214   8.534   3.658   0.895  0.0873  0.4173 -0.3549
26052SOL    HW190215   8.571   3.750   0.882  0.4186  0.3053 -0.2114
26052SOL    HW290216   8.549   3.629   0.990 -0.5582  0.4555 -0.2377
26053SOL     OW90217   4.609   3.722   2.587  0.0468  0.6383  0.3526
26053SOL    HW190218   4.535   3.722   2.654  1.5271  0.6439  2.0215
26053SOL    HW290219   4.644   3.815   2.576  0.3892  0.4932  0.2154
26054SOL     OW90220   2.412   0.526   8.990 -0.9684  0.5777 -0.0155
26054SOL    HW190221   2.331   0.511   8.934 -0.8831 -0.5722  0.1549
26054SOL    HW290222   2.445   0.620   8.978 -1.6772  0.7103 -0.9170
26055SOL     OW90223   1.745   6.858   6.192  0.5975  0.4546  0.4623
26055SOL    HW190224   1.767   6.760   6.193  0.0034  0.3173  0.0806
26055SOL    HW290225   1.651   6.871   6.163  1.4079  1.2725 -1.8899
26056SOL     OW90226   1.995   2.612   8.386  0.2941 -0.7181  0.1355
26056SOL    HW190227   2.008   2.543   8.314  0.1362 -3.6285  2.8095
26056SOL    HW290228   2.080   2.620   8.439  0.0454  0.6044  0.3491
26057SOL     OW90229   4.653   0.313   0.865  0.1495  0.0025 -0.5859
26057SOL    HW190230   4.629   0.386   0.801  0.9789  0.0958 -0.7916
26057SOL    HW290231   4.625   0.225   0.828 -0.7922  0.2038 -0.3691
26058SOL     OW90232   2.562   6.944   2.102  0.1536  0.0049  0.3889
26058SOL    HW190233   2.634   6.916   2.166  1.0713  0.6238 -0.3583
26058SOL    HW290234   2.563   6.884   2.022 -0.4860 -0.2849  0.5932
26059SOL     OW90235   3.550   0.598   0.426  0.0074 -0.3863 -0.0909
26059SOL    HW190236   3.501   0.685   0.420 -1.5094 -1.2986 -1.2266
26059SOL    HW290237   3.637   0.605   0.376 -0.3481  0.3049 -0.6213
26060SOL     OW90238   4.856   1.270   5.193 -0.1625  0.2371  0.2638
26060SOL    HW190239   4.814   1.329   5.123 -0.1642  0.7573  0.6931
26060SOL    HW290240   4.918   1.325   5.249 -0.9607  0.0595  1.3378
26061SOL     OW90241   4.789   2.219   4.772 -0.1388 -0.7672 -0.0480
26061SOL    HW190242   4.836   2.305   4.795 -1.2898 -0.5323  1.5458
26061SOL    HW290243   4.704   2.239   4.723  0.3930 -1.0832 -1.1026
26062SOL     OW90244   5.926   1.505   4.101 -0.3455 -0.2736 -0.3554
26062SOL    HW190245   5.970   1.429   4.052 -1.5851  0.2039 -2.3020
26062SOL    HW290246   5.895   1.573   4.034  3.0375  3.2583  1.4776
26063SOL     OW90247   3.565   3.020   8.697  0.4597  0.0246 -0.1039
26063SOL    HW190248   3.582   3.004   8.600  0.4333 -1.1148  0.0708
26063SOL    HW290249   3.550   2.932   8.743 -3.1089  0.7577  0.2724
26064SOL     OW90250   6.123   7.392   6.513 -0.3468  0.0230  0.1208
26064SOL    HW190251   6.159   7.340   6.435  2.2048  0.9037  0.6416
26064SOL    HW290252   6.029   7.363   6.533  0.4442 -3.2147 -0.5838
26065SOL     OW90253   6.020   0.967   7.137 -0.5466  0.1094  0.9484
26065SOL    HW190254   6.058   0.890   7.188 -0.0560 -0.0280  0.3821
26065SOL    HW290255   5.992   0.937   7.046  0.0149  0.6903  0.5826
26066SOL     OW90256   1.238   6.654   5.658  0.1928  0.0343 -0.3942
26066SOL    HW190257   1.302   6.725   5.629  1.2482 -0.2611  1.1185
26066SOL    HW290258   1.191   6.616   5.579 -0.7520  2.7686 -1.1703
26067SOL     OW90259   0.699   5.960   7.751  0.7261  0.4000  0.0865
26067SOL    HW190260   0.761   5.970   7.829 -1.5684 -1.9774  2.2850
26067SOL    HW290261   0.663   5.867   7.748 -1.7371  1.3550 -1.9319
26068SOL     OW90262   1.049   2.162   3.221  0.0959 -0.1225 -0.0468
26068SOL    HW190263   0.997   2.230   3.273 -0.7223  0.2255 -1.3180
26068SOL    HW290264   1.087   2.204   3.139  1.0797 -0.7674  0.0658
26069SOL     OW90265   0.996   5.852   2.271 -0.8720  0.2127 -0.1422
26069SOL    HW190266   1.000   5.762   2.314 -2.4272  0.8126  1.3211
26069SOL    HW290267   0.979   5.842   2.173 -1.3827 -1.0810  0.0739
26070SOL     OW90268   8.165   9.507   0.928  0.0539  0.1387  0.3074
26070SOL    HW190269   8.242   9.563   0.959  1.9330 -2.3820  0.3872
26070SOL    HW290270   8.185   9.471   0.837 -0.6360 -1.2443  0.6861
26071SOL     OW90271   0.143   0.252   1.604  0.4985 -0.3735  0.3173
26071SOL    HW190272   0.226   0.306   1.619  0.0521 -0.0014  1.4847
26071SOL    HW290273   0.097   0.284   1.521  1.5587 -0.6345 -0.3786
26072SOL     OW90274   3.882   3.900   3.787 -0.6353  0.6196 -0.4105
26072SOL    HW190275   3.870   3.905   3.887 -2.2869  1.8975 -0.6604
26072SOL    HW290276   3.950   3.830   3.766  0.5245  1.0703  1.6722
26073SOL     OW90277   8.329   6.499   6.230 -0.2004  0.5368 -0.1436
26073SOL    HW190278   8.233   6.478   6.244  0.2141 -1.4387 -0.1397
26073SOL    HW290279   8.339   6.595   6.203 -2.1755  0.6912 -0.3661
26074SOL     OW90280   3.275   6.483   2.504 -0.1751 -0.2274 -0.4921
26074SOL    HW190281   3.223   6.566   2.484  0.6772  0.0112 -1.8117
26074SOL    HW290282   3.347   6.504   2.570 -1.5497 -0.4944  1.1200
26075SOL     OW90283   7.982   4.442   5.927 -0.1064  0.3097 -0.2745
26075SOL    HW190284   7.927   4.359   5.936  2.7690 -1.9587 -2.6601
26075SOL    HW290285   8.021   4.466   6.016 -3.2046  0.7562  1.0104
26076SOL     OW90286   8.720   5.135   5.899 -0.0630 -0.1193 -0.5412
26076SOL    HW190287   8.732   5.207   5.831 -1.1366  1.6570  1.1291
26076SOL    HW290288   8.775   5.055   5.872  0.0117  0.7602 -3.1476
26077SOL     OW90289   6.390   0.948   3.780  0.1194 -0.3384 -0.2208
26077SOL    HW190290   6.483   0.912   3.777  0.4383  0.4182  0.4934
26077SOL    HW290291   6.392   1.047   3.770 -0.6593 -0.3692 -0.7960
26078SOL     OW90292   2.970   1.422   1.557 -0.2818  0.4911  0.5211
26078SOL    HW190293   2.953   1.465   1.468  0.4069 -0.2366  0.0326
26078SOL    HW290294   2.948   1.487   1.630  0.8577  1.7064 -0.2038
26079SOL     OW90295   2.563   5.579   6.425 -0.2723  0.8360 -0.1129
26079SOL    HW190296   2.556   5.646   6.351 -0.3673  0.7045 -0.2217
26079SOL    HW290297   2.656   5.541   6.427 -0.1702  1.0882  0.0508
26080SOL     OW90298   7.412   7.951   7.922 -0.5179  0.1313  0.4729
26080SOL    HW190299   7.415   8.033   7.866 -1.0204 -1.2169 -1.5859
26080SOL    HW290300   7.504   7.930   7.956  0.0287  0.3112 -0.8458
26081SOL     OW90301   9.181   0.678   9.493 -0.2141  0.4129 -0.1998
26081SOL    HW190302   9.129   0.722   9.419  0.3728  1.6343  0.1083
26081SOL    HW290303   9.246   0.743   9.531  0.7675 -0.7763  0.1801
26082SOL     OW90304   6.300   4.915   9.474 -0.0370  0.3141 -0.1302
26082SOL    HW190305   6.246   4.921   9.558  0.9312  1.7415  0.4147
26082SOL    HW290306   6.244   4.878   9.400 -0.8184 -1.2183  1.2133
26083SOL     OW90307   3.448   0.898   2.938  0.1839  0.4188 -0.0415
26083SOL    HW190308   3.377   0.828   2.940  0.4522  0.1035 -1.0110
26083SOL    HW290309   3.533   0.860   2.975  0.5790 -0.0711 -1.4187
26084SOL     OW90310   1.846   7.336   2.303  0.5131 -0.1952  0.2901
26084SOL    HW190311   1.758   7.374   2.332  0.6997  1.5868 -1.4150
26084SOL    HW290312   1.920   7.389   2.344  0.7812 -0.2478 -0.1207
26085SOL     OW90313   4.204   3.199   3.982 -0.4779  0.0289  0.3552
26085SOL    HW190314   4.260   3.171   3.904 -1.0549 -1.1742  0.3445
26085SOL    HW290315   4.245   3.277   4.028  0.0343  0.5433 -0.9714
26086SOL     OW90316   1.258   4.949   0.877 -0.1197  0.1459  0.1641
26086SOL    HW190317   1.268   4.867   0.822 -1.0460 -2.0823  3.2014
26086SOL    HW290318   1.318   4.944   0.957 -0.9662  1.9361  0.9626
26087SOL     OW90319   8.820   0.013   7.521 -0.4489  0.2409  0.3328
26087SOL    HW190320   8.723   0.016   7.544 -0.1580 -0.2113  1.6910
26087SOL    HW290321   8.841   0.084   7.454 -1.5258  0.9824  0.7633
26088SOL     OW90322   8.997   9.719   7.449  0.2101  0.3592  0.1380
26088SOL    HW190323   9.003   9.763   7.539 -0.6942  1.9716 -0.5576
26088SOL    HW290324   9.049   9.773   7.383 -2.0880  1.1965 -1.0318
26089SOL     OW90325   3.637   7.294   2.250 -0.3664 -0.0717  0.3538
26089SOL    HW190326   3.642   7.364   2.322 -0.2967  1.0940 -0.7512
26089SOL    HW290327   3.624   7.204   2.291  0.4123  0.4875  1.8529
26090SOL     OW90328   2.213   6.120   6.063  0.5250 -0.4585  0.0691
26090SOL    HW190329   2.236   6.216   6.079 -0.6829 -0.2409  0.5517
26090SOL    HW290330   2.209   6.102   5.965 -0.1433  0.2156 -0.0358
26091SOL     OW90331   7.753   3.022   4.446  1.0174  0.2221 -0.4209
26091SOL    HW190332   7.835   3.035   4.390  0.4144 -0.8983 -1.5768
26091SOL    HW290333   7.685   3.092   4.421  1.4303  0.8559  0.2061
26092SOL     OW90334   9.702   0.293   2.927  0.2255 -0.0986 -0.4629
26092SOL    HW190335   9.627   0.357   2.914  0.1881  0.0870  0.5786
26092SOL    HW290336   9.783   0.343   2.957  0.7132 -0.3243 -1.3805
26093SOL     OW90337   0.546   2.132   8.034  0.0821 -0.0353 -0.2829
26093SOL    HW190338   0.593   2.062   7.981  0.9526 -0.3229  0.8525
26093SOL    HW290339   0.588   2.221   8.017  1.6019 -0.4169  1.3632
26094SOL     OW90340   8.227   1.426   1.644  0.1421 -0.5588  0.4905
26094SOL    HW190341   8.153   1.377   1.599  0.1453 -0.8080  0.7548
26094SOL    HW290342   8.262   1.371   1.719  0.3704 -0.2949  0.5761
26095SOL     OW90343   8.683   0.802   9.366  0.0587  0.1542 -0.6123
26095SOL    HW190344   8.702   0.729   9.432  0.1307  0.2743 -0.5028
26095SOL    HW290345   8.585   0.825   9.369  0.4062  1.4893  0.8014
26096SOL     OW90346   9.291   9.452   3.385  0.4240 -0.6158 -0.3262
26096SOL    HW190347   9.363   9.465   3.453 -2.4317 -0.2912  2.7697
26096SOL    HW290348   9.271   9.354   3.376 -0.1158 -0.5673  0.3185
26097SOL     OW90349   0.751   3.838   4.499  0.2275 -0.1722  0.5298
26097SOL    HW190350   0.756   3.740   4.516 -0.2851 -0.2505  0.2345
26097SOL    HW290351   0.737   3.854   4.401 -1.1777  0.1515  0.7802
26098SOL     OW90352   9.289   1.969   2.997  0.4812  0.7004 -0.5206
26098SOL    HW190353   9.279   2.034   3.072 -1.9647 -1.2765  0.9336
26098SOL    HW290354   9.227   1.995   2.922  0.2376  0.6145 -0.3505
26099SOL     OW90355   9.744   0.995   6.776  0.2488  0.3492 -0.0104
26099SOL    HW190356   9.842   0.977   6.774  0.2797  0.4299  0.5333
26099SOL    HW290357   9.701   0.953   6.696  0.6532 -0.1257  0.0156
26100SOL     OW90358   3.557   3.701   7.044 -0.3664  0.2481 -0.0485
26100SOL    HW190359   3.474   3.674   7.092  0.0484  1.4550  1.3819
26100SOL    HW290360   3.594   3.623   6.994 -1.2213 -0.8340  0.9911
26101SOL     OW90361   0.477   2.433   8.504  0.0760 -0.5666  0.5184
26101SOL    HW190362   0.452   2.359   8.441 -1.0388 -0.3036  0.6313
26101SOL    HW290363   0.560   2.408   8.554  0.6857 -0.9960 -0.6891
26102SOL     OW90364   6.735   4.611   0.330  0.1171  0.0024  0.2717
26102SOL    HW190365   6.699   4.689   0.280 -1.0317 -0.0370  1.0029
26102SOL    HW290366   6.814   4.640   0.385  0.6289  0.3036 -0.6183
26103SOL     OW90367   5.014   9.548   3.450 -0.1847  0.6848  0.4826
26103SOL    HW190368   5.003   9.536   3.351  0.2989  0.8571  0.4095
26103SOL    HW290369   5.016   9.459   3.494  2.2085  0.5145  0.0629
26104SOL     OW90370   2.050   5.837   0.666  0.4450 -0.5952  0.1409
26104SOL    HW190371   2.062   5.750   0.618 -2.3757 -1.2168  0.4488
26104SOL    HW290372   2.035   5.910   0.599  1.1758 -0.6181 -0.0560
26105SOL     OW90373   3.224   5.354   9.353 -0.3260 -0.2639  0.0645
26105SOL    HW190374   3.133   5.324   9.323 -0.7127  0.5535  0.4035
26105SOL    HW290375   3.279   5.378   9.273 -0.8176  0.3913 -0.0806
26106SOL     OW90376   1.320   2.906   7.729  0.0657 -0.2037  0.2228
26106SOL    HW190377   1.414   2.881   7.704  0.4558  1.7768 -0.4273
26106SOL    HW290378   1.317   3.004   7.750 -2.1186  0.0109 -1.0283
26107SOL     OW90379   1.151   9.018   7.001  0.1652  0.2195  0.4351
26107SOL    HW190380   1.177   9.071   6.920  1.4640 -1.1533 -0.0616
26107SOL    HW290381   1.105   8.934   6.973  0.7586 -0.3392  1.1205
26108SOL     OW90382   0.944   6.601   7.707 -0.4428 -0.0382  0.5327
26108SOL    HW190383   0.895   6.536   7.765  0.2563  0.7991  2.0999
26108SOL    HW290384   1.042   6.590   7.720 -0.2590 -0.3548 -1.0803
26109SOL     OW90385   1.168   0.188   0.915 -1.0332  0.5275  0.2333
26109SOL    HW190386   1.170   0.090   0.935 -1.2996  0.4502 -0.1261
26109SOL    HW290387   1.113   0.204   0.833 -1.0804  0.9877  0.3567
26110SOL     OW90388   3.205   4.235   2.843 -0.0117  0.7239 -0.3122
26110SOL    HW190389   3.128   4.280   2.888 -0.8196 -0.1055 -0.8366
26110SOL    HW290390   3.219   4.274   2.753  0.4857  1.1982 -0.0275
26111SOL     OW90391   4.683   0.032   3.957  0.0783  0.4303 -0.1183
26111SOL    HW190392   4.627  -0.049   3.980  0.5970  0.3560  0.9194
26111SOL    HW290393   4.624   0.102   3.916 -0.2641 -0.6994 -1.5937
26112SOL     OW90394   5.250   3.103   2.494  0.0836  0.0571  0.4335
26112SOL    HW190395   5.250   3.174   2.565  0.5516  1.2873 -0.7875
26112SOL    HW290396   5.332   3.047   2.504  0.0856  0.1450  0.9489
26113SOL     OW90397   1.410   1.934   2.465 -0.0894  0.7736  0.4439
26113SOL    HW190398   1.378   1.865   2.401  1.7028 -0.4432  0.8254
26113SOL    HW290399   1.342   1.947   2.538 -0.9804  0.3387 -0.3012
26114SOL     OW90400   0.727   9.532   0.018 -0.0339 -0.0932  0.2974
26114SOL    HW190401   0.682   9.443   0.019 -0.0356 -0.1385  3.5062
26114SOL    HW290402   0.663   9.601  -0.015 -0.6643 -0.9897 -0.3669
26115SOL     OW90403   5.046   2.436   9.411 -0.4906 -0.0238 -0.2163
26115SOL    HW190404   4.991   2.471   9.334  0.5798  0.1541 -0.9081
26115SOL    HW290405   5.143   2.448   9.391 -0.2137  1.2136  1.7286
26116SOL     OW90406   9.977   8.543   3.763 -0.0138  0.0225 -0.3342
26116SOL    HW190407   9.880   8.544   3.740  0.2307 -1.8145 -1.6200
26116SOL    HW290408   9.990   8.513   3.857 -0.6497 -0.6347 -0.4597
26117SOL     OW90409   2.766   2.315   5.514 -0.1458  0.5631  0.4048
26117SOL    HW190410   2.791   2.394   5.457 -0.2073  1.9076  2.1951
26117SOL    HW290411   2.825   2.238   5.490 -1.4696  0.4739 -2.8470
26118SOL     OW90412   1.121   8.335   7.202 -0.0689  0.0471  0.2527
26118SOL    HW190413   1.048   8.267   7.212 -1.0012  0.9826 -0.0979
26118SOL    HW290414   1.187   8.303   7.135 -0.3168 -0.6672  0.3355
26119SOL     OW90415   8.508   0.424   2.729 -0.5487 -0.2221  0.6414
26119SOL    HW190416   8.551   0.380   2.807  0.2282 -1.5314 -0.4949
26119SOL    HW290417   8.510   0.524   2.742 -1.2803 -0.4551  2.6890
26120SOL     OW90418   6.710   5.762   1.911  0.1867 -0.2237  0.2116
26120SOL    HW190419   6.642   5.835   1.910  0.1428 -0.2093  1.9642
26120SOL    HW290420   6.801   5.800   1.922  0.6021 -0.1913 -2.9219
26121SOL     OW90421   1.987   8.108   8.112  0.3173 -0.1691  0.3140
26121SOL    HW190422   2.031   8.027   8.150  1.1273 -0.1449 -0.5391
26121SOL    HW290423   2.033   8.190   8.146 -0.6630 -0.0479  1.3782
26122SOL     OW90424   5.435   0.990   9.333 -0.1494  0.4917 -0.3362
26122SOL    HW190425   5.431   0.968   9.236  1.3338  2.5951 -0.8910
26122SOL    HW290426   5.500   1.064   9.349  0.3420 -0.4553  2.3868
26123SOL     OW90427   2.897   2.517   9.108  0.3889  0.8920  0.6579
26123SOL    HW190428   2.831   2.510   9.182 -0.7114 -0.3271 -0.4201
26123SOL    HW290429   2.989   2.522   9.146 -0.2278  1.3280  2.1286
26124SOL     OW90430   5.938   8.400   7.652 -0.0308  0.0547  0.4519
26124SOL    HW190431   5.878   8.321   7.640  0.1892  0.3034 -2.7272
26124SOL    HW290432   6.030   8.369   7.673  0.0704 -0.5982 -0.8652
26125SOL     OW90433   3.289   4.799   1.898  0.2773  0.0891  0.0317
26125SOL    HW190434   3.262   4.728   1.833  0.8860 -0.8870  0.8117
26125SOL    HW290435   3.241   4.884   1.877  0.0738 -0.3531 -1.3590
26126SOL     OW90436   7.901   1.754   7.132 -0.7115  0.1597  0.8499
26126SOL    HW190437   7.853   1.811   7.064  0.3772 -0.9239 -0.8673
26126SOL    HW290438   7.941   1.813   7.202  2.8032  1.8516 -2.3928
26127SOL     OW90439   6.827   4.665   1.993  0.3705 -0.0757  0.2141
26127SOL    HW190440   6.888   4.660   2.072  1.0785  1.8163 -0.1937
26127SOL    HW290441   6.840   4.583   1.937 -1.0129 -2.0445  2.6322
26128SOL     OW90442   5.800   4.826   8.840  0.1983  0.1826 -0.1246
26128SOL    HW190443   5.740   4.747   8.827  0.2166  0.2806 -0.8197
26128SOL    HW290444   5.805   4.848   8.937 -1.2798  0.4629 -0.1021
26129SOL     OW90445   1.634   7.347   1.111 -0.2208 -0.0324  0.5427
26129SOL    HW190446   1.564   7.369   1.180  0.4281  0.9759  0.9026
26129SOL    HW290447   1.609   7.390   1.024  0.2981  0.9120  0.8556
26130SOL     OW90448   1.944   4.181   0.516  0.0339  0.3454  0.6786
26130SOL    HW190449   2.003   4.117   0.468  1.2679  0.8494  1.5198
26130SOL    HW290450   1.855   4.139   0.532  0.7589 -1.0744  1.0315
26131SOL     OW90451   1.215   6.490   7.032 -0.2365 -0.0385 -0.7541
26131SOL    HW190452   1.184   6.549   7.107 -1.9772 -1.4829 -0.2963
26131SOL    HW290453   1.311   6.466   7.046 -0.5030 -0.1898  0.9557
26132SOL     OW90454   8.645   3.038   6.779  0.7030  0.3103 -0.3151
26132SOL    HW190455   8.580   3.101   6.735 -0.8468 -1.0427 -0.0309
26132SOL    HW290456   8.649   3.057   6.877 -1.1550 -1.1421  0.0885
26133SOL     OW90457   7.225   7.664   3.270 -0.3325 -0.2605  0.0085
26133SOL    HW190458   7.241   7.740   3.333 -0.0906 -0.0618 -0.2947
26133SOL    HW290459   7.177   7.591   3.319  0.9751 -0.6208  0.7746
26134SOL     OW90460   9.891   4.390   4.821 -0.2706  0.1903  0.4905
26134SOL    HW190461   9.922   4.298   4.797  0.3105 -0.2702  2.8802
26134SOL    HW290462   9.819   4.385   4.890  0.3591  1.5492  1.2702
26135SOL     OW90463   1.625   4.759   5.818 -0.1259 -0.3200  0.6012
26135SOL    HW190464   1.583   4.813   5.745  1.6004  1.9162  1.2207
26135SOL    HW290465   1.637   4.664   5.787  0.3614  0.5426 -1.9156
26136SOL     OW90466   6.193   9.488   3.382  0.3264 -0.0899 -0.0866
26136SOL    HW190467   6.260   9.460   3.451 -0.9594 -1.0757  0.7728
26136SOL    HW290468   6.159   9.408   3.334 -1.2614  0.2794  0.4191
26137SOL     OW90469   1.563   5.964   0.360 -0.0789  0.0482 -0.2666
26137SOL    HW190470   1.467   5.940   0.370 -0.0383 -0.3075 -0.7026
26137SOL    HW290471   1.572   6.063   0.346 -0.2819  0.2679  1.0711
26138SOL     OW90472   2.390   4.807   1.012 -0.0423 -0.1125 -0.6126
26138SOL    HW190473   2.336   4.781   0.932 -0.6915  0.6611 -0.4259
26138SOL    HW290474   2.330   4.817   1.091  0.4128  0.4803 -0.3386
26139SOL     OW90475   3.558   2.044   4.295 -0.0103 -0.0216 -0.1526
26139SOL    HW190476   3.492   1.969   4.288  1.3974 -1.5885  2.3589
26139SOL    HW290477   3.633   2.030   4.230  1.1207 -1.7933  1.4640
26140SOL     OW90478   0.119   3.348   2.837  0.4017  0.3414  0.0939
26140SOL    HW190479   0.124   3.407   2.918  0.9685 -0.9270  1.0079
26140SOL    HW290480   0.024   3.318   2.824  0.4764 -0.2979  0.9349
26141SOL     OW90481   4.619   9.554   0.326 -0.0867 -0.1295  0.6587
26141SOL    HW190482   4.522   9.552   0.350 -0.2322 -3.8766  0.1006
26141SOL    HW290483   4.674   9.565   0.409 -0.9433  1.7943  0.9954
26142SOL     OW90484   5.526   3.370   9.986 -0.1455  0.4230 -0.3056
26142SOL    HW190485   5.518   3.372  10.086  2.0555 -0.3388 -0.0848
26142SOL    HW290486   5.435   3.362   9.946 -1.0806  0.9672  1.6327
26143SOL     OW90487   2.076   5.155   0.921  0.0927 -0.3356 -0.0821
26143SOL    HW190488   2.145   5.138   0.851  0.2726  2.0578 -0.5581
26143SOL    HW290489   1.988   5.174   0.878 -0.4131 -1.4608  0.4447
26144SOL     OW90490   7.813   9.293   3.797 -0.1708  0.2167 -0.0504
26144SOL    HW190491   7.755   9.292   3.878  1.3404  0.8753  1.0778
26144SOL    HW290492   7.870   9.211   3.795 -0.9036 -0.2778 -0.9794
26145SOL     OW90493   8.663   0.548   1.489  0.2312 -0.3769 -0.1659
26145SOL    HW190494   8.700   0.486   1.420 -1.9490 -1.1438 -0.6769
26145SOL    HW290495   8.595   0.608   1.447  0.3414  0.5341  0.9125
26146SOL     OW90496   2.719   7.868   5.554  0.4570  0.2296  0.0250
26146SOL    HW190497   2.793   7.838   5.614  0.0887 -0.5657  0.0725
26146SOL    HW290498   2.705   7.967   5.565  0.1369  0.0194  1.4992
26147SOL     OW90499   6.543   1.378   7.104  0.2656 -0.8118  0.1517
26147SOL    HW190500   6.452   1.418   7.116  0.6694  0.1925 -0.1636
26147SOL    HW290501   6.612   1.450   7.099  1.0973 -1.5735  0.4805
26148SOL     OW90502   1.711   6.450   1.326  0.1316  0.0237 -0.0330
26148SOL    HW190503   1.646   6.526   1.322  2.2065  1.8485  0.1244
26148SOL    HW290504   1.768   6.450   1.244  1.6751  0.0454  1.0201
26149SOL     OW90505   3.141   4.438   7.695  0.1081 -0.3482  0.5917
26149SOL    HW190506   3.106   4.393   7.777 -0.3818  1.2915  1.3108
26149SOL    HW290507   3.197   4.517   7.722 -2.3805  1.9091 -0.6612
26150SOL     OW90508   0.367   4.270   7.173  0.1959 -0.2520 -0.3281
26150SOL    HW190509   0.356   4.228   7.263 -0.9927  4.5259  1.9044
26150SOL    HW290510   0.291   4.242   7.114 -2.1995  1.0638  2.0549
26151SOL     OW90511   1.308   5.335   6.283  0.0451  0.5971  0.0679
26151SOL    HW190512   1.386   5.273   6.292 -2.1172 -2.2666  0.0219
26151SOL    HW290513   1.238   5.291   6.226 -1.2764  3.4456 -0.5764
26152SOL     OW90514   4.310   3.888   3.388  0.2379 -0.0238 -0.3286
26152SOL    HW190515   4.288   3.797   3.352 -2.2875  0.3628  0.1423
26152SOL    HW290516   4.268   3.957   3.329  0.7197  0.7794  0.2721
26153SOL     OW90517   9.223   7.812   4.324  0.2704  0.2296 -0.1116
26153SOL    HW190518   9.157   7.773   4.387 -0.3334 -1.9253 -2.0291
26153SOL    HW290519   9.175   7.847   4.243  1.4101 -0.7857 -1.2368
26154SOL     OW90520   2.025   6.871   4.802 -0.2027  0.5062 -0.2153
26154SOL    HW190521   2.094   6.803   4.776 -0.4365  1.3324 -3.1724
26154SOL    HW290522   1.938   6.849   4.758 -1.6064  0.0222  2.7067
26155SOL     OW90523   2.111   9.811   4.210  0.0138  0.0665 -0.5216
26155SOL    HW190524   2.156   9.723   4.197  0.5621  0.4451 -1.3089
26155SOL    HW290525   2.180   9.881   4.227 -0.3777  0.4217 -0.3869
26156SOL     OW90526   3.184   6.974   0.257 -0.6085 -0.5312 -0.0024
26156SOL    HW190527   3.214   6.900   0.197  0.9998  0.3125 -0.2659
26156SOL    HW290528   3.084   6.971   0.266 -0.5757 -2.6854 -0.0459
26157SOL     OW90529   8.225   4.828   1.950  0.1752  0.3698  0.6033
26157SOL    HW190530   8.126   4.832   1.952  0.0807 -1.4669  0.4411
26157SOL    HW290531   8.263   4.920   1.964 -1.5200  0.9763  1.2780
26158SOL     OW90532   5.892   0.520   7.072  0.4869 -0.2169 -0.2834
26158SOL    HW190533   5.925   0.426   7.061  2.3593  0.4103 -0.2275
26158SOL    HW290534   5.906   0.549   7.167  1.6181  0.7154 -0.7158
26159SOL     OW90535   1.694   2.025   9.021 -0.1094  0.3778 -0.0060
26159SOL    HW190536   1.731   2.027   8.928  0.0918  1.9068  0.1080
26159SOL    HW290537   1.639   1.942   9.032  0.5736 -0.2555 -1.2087
26160SOL     OW90538   6.044   0.205   5.156  0.2260  0.2973 -0.0202
26160SOL    HW190539   5.944   0.194   5.161  0.1923  0.6895  0.2241
26160SOL    HW290540   6.083   0.131   5.103 -0.3531  0.9773 -1.4139
26161SOL     OW90541   4.929   4.536   6.887 -1.3114  0.5991 -0.0041
26161SOL    HW190542   4.934   4.561   6.790  0.3508 -0.4188 -0.2037
26161SOL    HW290543   4.877   4.451   6.897 -1.1781  0.5102 -0.0507
26162SOL     OW90544   3.023   0.151   7.753  0.0631  0.2524 -0.2940
26162SOL    HW190545   3.004   0.196   7.666 -1.1693  1.4207  0.5731
26162SOL    HW290546   3.121   0.152   7.770  0.1525  1.5277 -0.8536
26163SOL     OW90547   1.067   0.029   8.664  0.3373 -0.3917 -0.0544
26163SOL    HW190548   1.090  -0.050   8.720 -2.1679 -1.2525 -0.1488
26163SOL    HW290549   1.023  -0.001   8.579  0.4966  1.0404 -0.6705
26164SOL     OW90550   3.182   4.109   4.863  0.2843 -0.1684  0.0858
26164SOL    HW190551   3.137   4.024   4.835  1.3053 -0.8945  0.5965
26164SOL    HW290552   3.130   4.152   4.937 -2.6012  1.9158 -3.0347
26165SOL     OW90553   9.728   7.181   0.825  0.0328 -0.0673 -0.3165
26165SOL    HW190554   9.784   7.217   0.899  0.2258 -0.4519 -0.2771
26165SOL    HW290555   9.770   7.098   0.788  0.3693  0.5613 -1.3916
26166SOL     OW90556   1.939   8.240   2.316 -0.2465 -0.7825 -0.0420
26166SOL    HW190557   1.919   8.152   2.359  1.9734 -1.9601 -1.3391
26166SOL    HW290558   2.036   8.263   2.331 -0.1308  0.1070 -2.0527
26167SOL     OW90559   8.694   2.976   0.954  0.4841  0.0989 -0.2265
26167SOL    HW190560   8.715   3.045   1.023  2.3368 -0.5477 -0.1029
26167SOL    HW290561   8.778   2.927   0.930 -0.2784 -0.1645 -2.4189
26168SOL     OW90562   3.186   1.614   1.472 -0.3865  0.5389 -0.4233
26168SOL    HW190563   3.090   1.637   1.460 -0.7032 -0.3258  0.3982
26168SOL    HW290564   3.194   1.527   1.520  0.8185 -0.5792 -2.6057
26169SOL     OW90565   9.994   0.272   3.483  0.4097  0.3822  0.4071
26169SOL    HW190566   9.992   0.365   3.520  0.5019 -0.2635  2.0912
26169SOL    HW290567   9.928   0.215   3.532  1.5807 -0.8638  0.5685
26170SOL     OW90568   7.607   6.608   4.194  0.0084  0.4717  0.2439
26170SOL    HW190569   7.576   6.665   4.118 -0.4332 -1.0658 -0.7600
26170SOL    HW290570   7.697   6.570   4.172  0.4793  1.0843  1.0824
26171SOL     OW90571   0.963   9.832   3.440 -0.2759 -0.0762  0.0126
26171SOL    HW190572   1.020   9.792   3.368 -1.7934  2.3103 -2.5829
26171SOL    HW290573   0.988   9.928   3.453 -0.6611 -0.2324  2.0569
26172SOL     OW90574   6.737   9.417   3.309 -0.0661  0.5614  0.1342
26172SOL    HW190575   6.667   9.449   3.244  0.9822  1.3211 -0.6325
26172SOL    HW290576   6.825   9.456   3.285  1.4455 -3.4531 -1.2343
26173SOL     OW90577   1.414   5.096   1.334  0.2274  0.4252 -0.1058
26173SOL    HW190578   1.446   5.030   1.266  0.1946 -2.0479  2.2123
26173SOL    HW290579   1.317   5.113   1.320 -0.1861 -1.4402  0.4126
26174SOL     OW90580   8.606   9.193   2.673  0.2381  0.6949  0.2055
26174SOL    HW190581   8.552   9.274   2.698  0.6807  0.6622  1.3196
26174SOL    HW290582   8.701   9.207   2.703  0.4210 -0.0386 -0.0351
26175SOL     OW90583   2.780   5.000   9.583 -0.5996 -0.3015  0.4496
26175SOL    HW190584   2.760   5.035   9.675 -0.3174  1.0197  0.0099
26175SOL    HW290585   2.836   4.917   9.591  0.8672  0.7551  1.4274
26176SOL     OW90586   8.944   9.784   0.056 -0.1727  0.0704 -0.3492
26176SOL    HW190587   8.895   9.697   0.065 -1.6124  0.9661  0.8049
26176SOL    HW290588   9.034   9.768   0.016 -1.5175 -1.6038 -2.8655
26177SOL     OW90589   2.582   5.012   7.851  0.0025  0.1652  0.5229
26177SOL    HW190590   2.679   4.992   7.836 -0.0185 -1.0047  1.8282
26177SOL    HW290591   2.542   5.047   7.767  1.3346 -0.2531 -0.3006
26178SOL     OW90592   7.960   7.826   8.439  0.1146 -0.6549 -0.2472
26178SOL    HW190593   7.870   7.808   8.401 -0.3476 -0.4953  0.7482
26178SOL    HW290594   7.959   7.806   8.537  0.3920  1.9190  0.3135
26179SOL     OW90595   3.541   6.990   7.005  0.2624 -0.1923  0.0709
26179SOL    HW190596   3.490   7.055   7.061  2.2122  1.2795  0.1814
26179SOL    HW290597   3.536   7.017   6.909 -1.1201 -1.3955 -0.2175
26180SOL     OW90598   3.554   9.800   1.347 -0.0138 -0.6931 -0.1967
26180SOL    HW190599   3.560   9.744   1.265 -0.7899 -0.1744 -0.6100
26180SOL    HW290600   3.596   9.889   1.330  0.0111 -0.6584  0.0402
26181SOL     OW90601   0.316   8.099   1.320  0.0600  0.0596 -0.2768
26181SOL    HW190602   0.362   8.135   1.401 -1.5554  0.3522  0.5429
26181SOL    HW290603   0.317   8.167   1.247  0.1658  0.3770  0.0231
26182SOL     OW90604   7.010   6.047   5.904 -0.2091 -0.2214 -0.3469
26182SOL    HW190605   7.101   6.024   5.870 -0.4408 -0.7294 -0.6367
26182SOL    HW290606   6.991   5.992   5.986 -0.2281 -0.0744 -0.2539
26183SOL     OW90607   1.295   8.460   4.476  0.0187 -0.2590  0.0692
26183SOL    HW190608   1.241   8.438   4.395  1.5238  2.3009 -1.7247
26183SOL    HW290609   1.316   8.377   4.527 -2.6579 -1.6566 -1.0654
26184SOL     OW90610   8.258   1.044   0.466  0.0229 -0.1266  0.0487
26184SOL    HW190611   8.236   1.100   0.386  0.1513 -0.7004 -0.3916
26184SOL    HW290612   8.294   0.956   0.436  0.3662 -0.2277  0.7426
26185SOL     OW90613   8.939   6.697   6.260  0.5575 -0.2466  0.7144
26185SOL    HW190614   8.991   6.782   6.249 -1.6416  0.9670 -0.7015
26185SOL    HW290615   8.899   6.694   6.351  0.3608  0.4102  0.6524
26186SOL     OW90616   0.913   1.480   1.767 -0.0774  0.4210 -0.1372
26186SOL    HW190617   0.973   1.539   1.821  1.8995 -1.1950 -0.4554
26186SOL    HW290618   0.884   1.403   1.824  1.4275 -0.9031 -1.0991
26187SOL     OW90619   5.171   0.678   5.265 -0.2212  0.2648 -0.5595
26187SOL    HW190620   5.158   0.641   5.357 -1.7455  0.7688 -0.5688
26187SOL    HW290621   5.235   0.754   5.269  0.8465 -0.6332 -0.1414
26188SOL     OW90622   1.441   4.631   6.694  1.2344  0.6869 -0.4447
26188SOL    HW190623   1.392   4.633   6.781  1.2098 -0.7085 -0.4135
26188SOL    HW290624   1.462   4.724   6.665 -1.1588  1.3074 -0.2925
26189SOL     OW90625   8.443   8.036   3.473  0.5352 -0.2819  0.1701
26189SOL    HW190626   8.530   7.994   3.497  0.4887  0.7411  2.2674
26189SOL    HW290627   8.451   8.083   3.385  1.6167 -1.5491 -0.4241
26190SOL     OW90628   3.591   8.757   9.117 -0.0169  0.3011 -0.4488
26190SOL    HW190629   3.671   8.801   9.157  0.9099 -1.9131  0.2553
26190SOL    HW290630   3.586   8.779   9.020  1.8645 -0.0302 -0.6602
26191SOL     OW90631   6.118   7.848   4.797  0.0506 -0.5468  0.1921
26191SOL    HW190632   6.132   7.936   4.753 -0.9401 -0.9609 -0.9868
26191SOL    HW290633   6.111   7.860   4.896  0.0294  0.6773  0.0396
26192SOL     OW90634   7.727   0.363   3.548  0.5556  0.5130  0.0745
26192SOL    HW190635   7.713   0.291   3.616 -0.1464 -0.0324 -0.6455
26192SOL    HW290636   7.753   0.322   3.460 -4.6765  0.7078 -1.7519
26193SOL     OW90637   4.257   3.642   0.163 -0.1730 -0.0284 -0.5415
26193SOL    HW190638   4.212   3.722   0.123 -2.4295 -0.2572  1.3881
26193SOL    HW290639   4.203   3.560   0.141  1.8601 -0.9654 -2.1096
26194SOL     OW90640   0.680   1.741   9.613 -0.8640  0.0195  0.8040
26194SOL    HW190641   0.617   1.734   9.536 -0.6393  2.2361  0.3659
26194SOL    HW290642   0.674   1.834   9.651  1.7766  0.1169  1.0406
26195SOL     OW90643   4.374   2.573   5.035  0.5061  0.4122 -0.1749
26195SOL    HW190644   4.315   2.652   5.055  0.3446  0.2078  0.1615
26195SOL    HW290645   4.329   2.515   4.966 -0.3506 -0.4905  1.1168
26196SOL     OW90646   2.167   5.748   7.151  0.3247 -0.3983 -0.0543
26196SOL    HW190647   2.222   5.816   7.200 -2.0771 -0.3855  2.7832
26196SOL    HW290648   2.076   5.743   7.193 -1.6980 -0.8100 -4.2259
26197SOL     OW90649   7.051   2.077   8.907  0.5867  0.5615 -0.1104
26197SOL    HW190650   7.003   2.157   8.871  2.2517  1.1411 -1.0596
26197SOL    HW290651   7.144   2.075   8.873  1.1579 -0.7583  1.4499
26198SOL     OW90652   6.849   9.859   9.163  0.4689  0.3142 -0.0209
26198SOL    HW190653   6.945   9.879   9.145  0.2028  1.3851 -0.3081
26198SOL    HW290654   6.798   9.945   9.168 -0.0527 -0.1010  2.5310
26199SOL     OW90655   0.430   1.696   0.699 -0.2254  0.0339 -0.3596
26199SOL    HW190656   0.393   1.615   0.744 -0.0261  0.2407  0.1779
26199SOL    HW290657   0.405   1.778   0.752 -0.1678  0.2949 -0.7351
26200SOL     OW90658   9.418   3.958   1.141 -0.3545  0.1645  0.1304
26200SOL    HW190659   9.510   3.958   1.102 -0.8861 -0.7298 -1.1805
26200SOL    HW290660   9.422   3.987   1.236  1.3110 -0.0712  0.1500
26201SOL     OW90661   2.262   6.055   2.454  0.7637  0.1032 -0.0839
26201SOL    HW190662   2.221   6.024   2.368 -0.3863  2.5474 -0.4632
26201SOL    HW290663   2.259   5.981   2.521 -2.9842 -0.2652 -0.5359
26202SOL     OW90664   7.931   2.078   9.304  0.9997 -0.0877  0.0775
26202SOL    HW190665   7.847   2.024   9.299 -0.0788  1.5259  0.3619
26202SOL    HW290666   7.919   2.163   9.253  1.6998  1.1500  1.9110
26203SOL     OW90667   3.592   9.517   7.093 -0.1704 -0.2466 -0.3614
26203SOL    HW190668   3.580   9.427   7.053  2.0834 -1.2246  1.0331
26203SOL    HW290669   3.689   9.531   7.115 -0.4990  2.4832 -0.4864
26204SOL     OW90670   1.928   6.995   6.623  0.1072 -0.1800 -0.0689
26204SOL    HW190671   1.844   6.949   6.650 -0.7608  0.1727 -2.0677
26204SOL    HW290672   1.927   7.089   6.657 -0.5659 -0.0084 -0.5537
26205SOL     OW90673   5.919   9.115   4.433 -0.1581 -0.5674  0.2946
26205SOL    HW190674   6.004   9.067   4.412  0.4092  0.7709 -0.5920
26205SOL    HW290675   5.928   9.211   4.406 -0.9519  0.2468  2.8294
26206SOL     OW90676   7.995   7.422   3.020 -0.1909  0.0581  0.4661
26206SOL    HW190677   8.026   7.375   2.938 -0.5766  0.4655  0.0835
26206SOL    HW290678   7.895   7.421   3.023 -0.1994  0.7057  0.5321
26207SOL     OW90679   7.245   9.004   6.485  0.2533 -0.9881  0.1147
26207SOL    HW190680   7.175   8.933   6.484 -0.1902 -0.5518 -0.8308
26207SOL    HW290681   7.231   9.065   6.563  0.0491 -1.3617  0.3697
26208SOL     OW90682   1.147   3.411   7.030 -0.1627  0.3444  0.1045
26208SOL    HW190683   1.246   3.412   7.022 -0.2194  0.4159 -0.7071
26208SOL    HW290684   1.119   3.344   7.098  0.3916 -0.5673 -0.5520
26209SOL     OW90685   8.669   3.644   7.974  0.2622  0.3939  0.3402
26209SOL    HW190686   8.576   3.671   7.997  0.5172 -0.4250  2.4854
26209SOL    HW290687   8.704   3.703   7.902 -1.4100  1.6307  0.5035
26210SOL     OW90688   4.860   3.315   5.589 -0.3152  0.0781 -0.2417
26210SOL    HW190689   4.816   3.227   5.574 -0.5225  0.0006  0.7811
26210SOL    HW290690   4.824   3.357   5.673  0.2120  0.8586 -0.3951
26211SOL     OW90691   2.099   2.952   1.754  0.3505 -0.1935  0.5723
26211SOL    HW190692   2.023   2.889   1.740  0.3176 -0.3418  1.3964
26211SOL    HW290693   2.078   3.014   1.829  0.9228 -0.0439  0.6111
26212SOL     OW90694   3.638   3.251   2.802  0.4223  0.1140 -0.1143
26212SOL    HW190695   3.560   3.208   2.846  0.2266 -0.3673 -0.9231
26212SOL    HW290696   3.648   3.345   2.835  0.8427 -0.5338  1.6532
26213SOL     OW90697   2.112   3.122   5.170 -0.1434  0.6140 -0.1813
26213SOL    HW190698   2.180   3.112   5.243 -2.2031 -0.3270  1.6510
26213SOL    HW290699   2.090   3.033   5.132  0.2943  1.0145 -1.4131
26214SOL     OW90700   9.409   7.741   8.184  0.0319  0.2240 -0.3407
26214SOL    HW190701   9.328   7.797   8.171  1.1835  1.6377 -1.6461
26214SOL    HW290702   9.474   7.790   8.243 -0.5985 -1.4802  1.8502
26215SOL     OW90703   9.033   4.657   0.334  0.2685  0.4721 -0.4653
26215SOL    HW190704   9.022   4.645   0.236  0.4072  0.5756 -0.4926
26215SOL    HW290705   9.101   4.728   0.353 -1.2079  1.8709 -0.2933
26216SOL     OW90706   9.300   8.429   3.856 -0.0339 -0.7333 -0.0904
26216SOL    HW190707   9.224   8.390   3.804 -0.8936 -2.2330  2.1978
26216SOL    HW290708   9.273   8.519   3.892 -0.5999 -1.0592  0.3282
26217SOL     OW90709   5.071   5.776   9.931 -1.0945  0.3711  0.4020
26217SOL    HW190710   5.133   5.799   9.856 -1.9597  0.5046 -0.2702
26217SOL    HW290711   5.122   5.775  10.017 -0.2634  0.9640 -0.0840
26218SOL     OW90712   6.238   5.255   9.973  0.4039  0.5101  0.2503
26218SOL    HW190713   6.228   5.308  10.057  0.2319 -0.2440  0.7144
26218SOL    HW290714   6.219   5.313   9.894  1.2041  1.3832  0.7021
26219SOL     OW90715   0.992   5.217   6.805  0.1200 -0.6581 -0.4223
26219SOL    HW190716   0.911   5.262   6.767  1.7191  2.1848 -0.6368
26219SOL    HW290717   1.040   5.168   6.732 -0.3416 -0.6910 -0.7035
26220SOL     OW90718   0.866   0.740   9.988  0.5910 -0.2670 -0.3901
26220SOL    HW190719   0.791   0.774  10.046  1.1419  2.3938 -1.1696
26220SOL    HW290720   0.953   0.765  10.030  1.0312 -1.2712 -0.6979
26221SOL     OW90721   6.412   7.967   3.564  0.1461 -0.6311 -0.4098
26221SOL    HW190722   6.317   7.953   3.536 -0.0724 -0.3573  0.1755
26221SOL    HW290723   6.472   7.962   3.484 -0.5312  0.7886 -1.0220
26222SOL     OW90724   7.091   8.642   5.852  0.5164  0.2522 -0.3542
26222SOL    HW190725   7.171   8.697   5.874 -0.3101  1.6110 -0.6142
26222SOL    HW290726   7.114   8.545   5.854  1.8669  0.5842  0.7144
26223SOL     OW90727   0.960   9.487   9.179 -0.0086 -0.2848 -0.3962
26223SOL    HW190728   0.907   9.438   9.111  1.2690 -1.2523 -0.7085
26223SOL    HW290729   1.028   9.545   9.133 -0.1945  0.2667  0.0170
26224SOL     OW90730   9.984   3.797   4.421 -0.2285 -0.0126  0.8376
26224SOL    HW190731  10.035   3.858   4.360 -0.4280  0.0653  0.7495
26224SOL    HW290732  10.013   3.812   4.516 -0.4023  0.3384  0.8337
26225SOL     OW90733   5.023   5.946   1.722  0.7192 -0.2821  0.3387
26225SOL    HW190734   5.012   5.853   1.686  1.5949 -0.0289 -0.6119
26225SOL    HW290735   4.951   6.005   1.685  0.8392 -0.3254  0.0335
26226SOL     OW90736   1.431   4.120   9.223 -0.9894 -0.0890 -0.2923
26226SOL    HW190737   1.519   4.118   9.270 -0.4244  2.9848 -1.1046
26226SOL    HW290738   1.398   4.214   9.219 -2.8389 -0.8015 -2.7186
26227SOL     OW90739   7.292   1.096   7.111  0.1178  0.0760 -0.0360
26227SOL    HW190740   7.230   1.171   7.135  0.5315  0.3711  0.1149
26227SOL    HW290741   7.281   1.074   7.014 -0.6788 -0.3001  0.1397
26228SOL     OW90742   0.164   1.737   9.151 -0.2790 -0.4992 -0.3854
26228SOL    HW190743   0.097   1.693   9.092 -2.4422 -0.4786  1.9697
26228SOL    HW290744   0.117   1.790   9.222  2.1487 -1.8307  2.3376
26229SOL     OW90745   9.022   7.128   2.105  0.3637  0.1028  0.2871
26229SOL    HW190746   9.081   7.170   2.036  0.0010  0.3252  0.1080
26229SOL    HW290747   8.982   7.199   2.163  0.9762 -0.1123  0.9790
26230SOL     OW90748   5.385   6.976   1.102 -0.3119  0.1236 -0.3039
26230SOL    HW190749   5.382   7.029   1.186  1.9308  1.3328 -0.9565
26230SOL    HW290750   5.306   7.000   1.045  0.0561  1.9054 -0.0903
26231SOL     OW90751   8.273   5.468   2.545  0.0265  0.3392 -0.1685
26231SOL    HW190752   8.323   5.459   2.459  0.9093  2.4800  0.0827
26231SOL    HW290753   8.184   5.509   2.528 -0.2787 -0.3344 -0.2003
26232SOL     OW90754   7.396   2.740   4.556 -0.0409 -0.0400 -1.1703
26232SOL    HW190755   7.407   2.828   4.508 -5.5041  0.1822 -2.4254
26232SOL    HW290756   7.410   2.665   4.491  0.2177  0.0233 -1.1892
26233SOL     OW90757   3.216   2.490   9.419 -0.0359  0.0580  0.5900
26233SOL    HW190758   3.312   2.503   9.446  0.9446 -0.9252 -2.2540
26233SOL    HW290759   3.184   2.402   9.455  0.7229 -0.4766 -0.0210
26234SOL     OW90760   8.257   8.555   6.460  0.2037 -0.0330  0.0028
26234SOL    HW190761   8.295   8.599   6.379 -0.8805  1.1499  0.1274
26234SOL    HW290762   8.263   8.616   6.538  0.5390 -0.8789  0.6550
26235SOL     OW90763   5.956   5.321   1.249 -0.5372 -0.4001  0.3879
26235SOL    HW190764   6.039   5.332   1.194 -1.4199 -1.4288 -1.1892
26235SOL    HW290765   5.940   5.404   1.302 -0.3518  1.1017 -1.8571
26236SOL     OW90766   3.919   7.656   9.932  0.0600  0.1308 -0.4084
26236SOL    HW190767   3.908   7.749   9.968 -1.6974  0.7585 -2.4893
26236SOL    HW290768   3.864   7.593   9.987 -1.8543  0.9469 -1.3175
26237SOL     OW90769   5.087   5.062   1.191 -0.4009 -0.3024 -0.1784
26237SOL    HW190770   5.119   5.141   1.138 -1.8100 -0.1438 -0.8369
26237SOL    HW290771   4.989   5.050   1.176 -0.2290 -2.1028  0.0323
26238SOL     OW90772   2.612   7.836   7.897 -0.4089  0.3790  0.5696
26238SOL    HW190773   2.593   7.802   7.989 -0.4802  0.3508  0.5447
26238SOL    HW290774   2.692   7.896   7.899 -0.1308  0.0144  0.5747
26239SOL     OW90775   0.805   9.592   1.624 -0.0413 -0.2050 -0.2042
26239SOL    HW190776   0.825   9.499   1.593 -0.9609 -0.3085 -0.5249
26239SOL    HW290777   0.728   9.588   1.689  0.0202  0.3167 -0.1034
26240SOL     OW90778   3.068   7.696   1.315  0.3783  0.0352 -0.2417
26240SOL    HW190779   3.066   7.675   1.412 -0.3576 -1.3088 -0.5385
26240SOL    HW290780   3.144   7.758   1.296 -1.0393  2.4408  1.5829
26241SOL     OW90781   0.189   0.364   6.816 -0.1417 -0.1701 -0.4261
26241SOL    HW190782   0.274   0.405   6.782  0.2796 -1.8361 -1.4753
26241SOL    HW290783   0.210   0.280   6.866 -1.0584  0.3043  0.7797
26242SOL     OW90784   4.476   9.122   2.778  0.0523 -0.3403  0.2360
26242SOL    HW190785   4.521   9.064   2.710 -0.0361 -0.1282 -0.0036
26242SOL    HW290786   4.428   9.064   2.844  1.1790 -0.5787  0.8459
26243SOL     OW90787   9.344   3.094   1.792 -0.3803  0.4711  0.0965
26243SOL    HW190788   9.395   3.179   1.778 -0.7602  0.7405  0.3330
26243SOL    HW290789   9.262   3.095   1.734 -0.0583 -0.0024 -0.3567
26244SOL     OW90790   9.317   0.061   4.949  0.2302  0.0904 -0.2459
26244SOL    HW190791   9.403   0.025   4.912 -0.4411 -0.8116 -0.9329
26244SOL    HW290792   9.309   0.158   4.924  1.3290  0.3339  0.3349
26245SOL     OW90793   7.466   0.226   7.241 -0.4497  0.2056  0.1673
26245SOL    HW190794   7.475   0.206   7.144  0.3362 -0.4376  0.3628
26245SOL    HW290795   7.370   0.216   7.269 -0.2598 -2.4594  0.0427
26246SOL     OW90796   2.637   5.463   0.032  0.5002 -0.4211  0.2476
26246SOL    HW190797   2.728   5.485  -0.006  0.1438  1.1965  0.2739
26246SOL    HW290798   2.598   5.386  -0.017  0.3540  1.1949 -2.2717
26247SOL     OW90799   0.248   8.548   9.933 -0.2771  0.1560  0.2179
26247SOL    HW190800   0.158   8.587   9.955 -0.7536 -1.1161  0.5224
26247SOL    HW290801   0.267   8.564   9.836 -1.0510 -0.0182  0.0317
26248SOL     OW90802   4.538   6.737   2.934 -0.3302  0.0511  0.0176
26248SOL    HW190803   4.611   6.694   2.881 -2.5879 -1.0383 -2.3787
26248SOL    HW290804   4.508   6.820   2.889 -1.7217 -0.4404 -0.0005
26249SOL     OW90805   3.522   2.128   7.164 -0.1871 -0.7118 -0.4034
26249SOL    HW190806   3.533   2.047   7.106 -0.1160 -1.2217  0.3144
26249SOL    HW290807   3.425   2.141   7.186 -0.2988 -0.0696 -1.2713
26250SOL     OW90808   9.761   3.410   6.094  0.2575 -0.4458  0.1608
26250SOL    HW190809   9.760   3.318   6.055 -0.2949 -0.5535  0.4245
26250SOL    HW290810   9.758   3.477   6.021  3.2829 -0.5919 -0.1626
26251SOL     OW90811   7.097   3.437   3.454  0.2446  0.5130  0.2720
26251SOL    HW190812   7.123   3.464   3.362  0.4602 -1.2268 -0.1920
26251SOL    HW290813   7.005   3.471   3.474  0.1551  0.8053 -0.6169
26252SOL     OW90814   5.186   3.572   0.510 -0.2276  0.8321  0.0578
26252SOL    HW190815   5.141   3.485   0.490 -0.4790  0.4547  2.1531
26252SOL    HW290816   5.267   3.556   0.568  0.3349  1.8850 -0.4181
26253SOL     OW90817   5.846   8.851   7.685  0.1133  0.9485 -0.2104
26253SOL    HW190818   5.919   8.783   7.687  0.4008  1.2503 -0.3074
26253SOL    HW290819   5.801   8.850   7.596  0.0252  0.7887 -0.1638
26254SOL     OW90820   8.138   2.097   5.143  0.1667  0.2133  0.3122
26254SOL    HW190821   8.057   2.131   5.095 -0.7831 -0.0379  1.7070
26254SOL    HW290822   8.117   2.084   5.240  1.5268 -1.0117  0.4664
26255SOL     OW90823   1.229   1.005   1.352  0.1287  0.1246 -0.3041
26255SOL    HW190824   1.297   0.964   1.413 -1.5805  0.4183  1.8935
26255SOL    HW290825   1.151   0.942   1.343  0.1198  0.3371 -1.7362
26256SOL     OW90826   0.493   5.235   2.640 -0.5547  0.1464 -0.3852
26256SOL    HW190827   0.540   5.148   2.626  1.7753  0.7823  2.8825
26256SOL    HW290828   0.543   5.308   2.593  0.2213  0.4100  0.8261
26257SOL     OW90829   8.177   1.461   0.268  0.3075 -0.1716 -0.0027
26257SOL    HW190830   8.259   1.492   0.220  1.0326  0.1257  1.4169
26257SOL    HW290831   8.201   1.388   0.331  0.1874  2.3850  3.1400
26258SOL     OW90832   5.684   1.103   4.093  0.0691  0.3730 -0.0857
26258SOL    HW190833   5.783   1.096   4.099  0.0045  0.0188  0.6030
26258SOL    HW290834   5.659   1.175   4.027  0.7756  0.6240 -0.0785
26259SOL     OW90835   5.123   2.398   6.112  0.4535  0.4434 -0.4380
26259SOL    HW190836   5.133   2.303   6.081  1.0532  0.3047  0.1686
26259SOL    HW290837   5.091   2.399   6.207  0.0486  0.8518 -0.5791
26260SOL     OW90838   2.467   5.039   4.095  0.4483 -0.1367 -0.4706
26260SOL    HW190839   2.442   5.130   4.061  1.4423 -0.6035 -2.5176
26260SOL    HW290840   2.389   4.977   4.083 -0.2383  0.4286  0.9498
26261SOL     OW90841   0.481   6.945   5.638  0.5022 -0.1471  0.1038
26261SOL    HW190842   0.521   6.867   5.686 -2.9794 -1.4734  1.0709
26261SOL    HW290843   0.417   6.992   5.699  0.1723  1.5518 -1.4979
26262SOL     OW90844   7.954   6.223   3.365  0.7683  0.3136  0.2747
26262SOL    HW190845   7.919   6.265   3.449  1.3875 -0.5679  0.9865
26262SOL    HW290846   8.029   6.278   3.329 -1.0066  1.9540 -0.9984
26263SOL     OW90847   1.547   9.943   9.324 -0.0151  0.3812  0.1796
26263SOL    HW190848   1.591  10.028   9.350  0.1821  0.3569 -0.0728
26263SOL    HW290849   1.546   9.880   9.401  0.4546  0.3553  0.1615
26264SOL     OW90850   5.614   1.548   2.230 -0.2848  0.0855  0.3106
26264SOL    HW190851   5.605   1.448   2.229 -2.1103  0.2323  0.9805
26264SOL    HW290852   5.567   1.586   2.151 -1.4944  0.5513  1.2399
26265SOL     OW90853   3.451   0.951   2.019  0.7566  0.6330  0.3591
26265SOL    HW190854   3.378   0.998   1.969  0.7602  0.8963  0.6001
26265SOL    HW290855   3.473   0.866   1.973  1.1925  1.1756 -0.4463
26266SOL     OW90856   9.314   7.959   8.531  0.1545  0.3950 -0.1066
26266SOL    HW190857   9.276   8.005   8.611  0.6041  2.5584 -1.0841
26266SOL    HW290858   9.239   7.934   8.469 -0.0548  0.3085  0.1795
26267SOL     OW90859   1.797   1.021   5.177  0.1275 -0.2555 -0.3468
26267SOL    HW190860   1.790   1.081   5.257  0.4027  0.7961 -1.0966
26267SOL    HW290861   1.788   0.926   5.205  0.3467  0.1057  0.9507
26268SOL     OW90862   0.939   0.958   5.788 -0.1568 -0.5126  0.2186
26268SOL    HW190863   0.881   1.031   5.751 -1.2973 -1.2706  0.4828
26268SOL    HW290864   1.034   0.987   5.785 -0.3399 -0.0305 -2.0972
26269SOL     OW90865   3.140   1.117   7.245  0.6888  0.0014 -0.5985
26269SOL    HW190866   3.234   1.119   7.280 -0.4000 -0.1908  2.4373
26269SOL    HW290867   3.096   1.205   7.262  0.0371 -0.1994 -1.2303
26270SOL     OW90868   6.758   9.146   4.339  0.4883  0.3877  0.5953
26270SOL    HW190869   6.694   9.135   4.262  0.7811  0.5154  0.3297
26270SOL    HW290870   6.707   9.153   4.424  0.2005 -0.7551  0.5229
26271SOL     OW90871   9.211   4.650   0.543 -0.4170 -0.1761 -0.1680
26271SOL    HW190872   9.228   4.564   0.592 -2.6956  0.0430  1.0559
26271SOL    HW290873   9.163   4.630   0.457  1.9620 -0.3850 -1.5104
26272SOL     OW90874   0.754   0.860   5.957 -0.2832  0.3568  0.3415
26272SOL    HW190875   0.839   0.877   5.906  0.2581  1.0339  1.4588
26272SOL    HW290876   0.677   0.860   5.893  0.4791  0.4083 -0.5936
26273SOL     OW90877   9.476   3.161   3.306 -0.0289 -0.6808  0.1326
26273SOL    HW190878   9.433   3.097   3.369  1.0258 -1.1718  0.3597
26273SOL    HW290879   9.523   3.232   3.358  1.2060 -1.3272 -0.0895
26274SOL     OW90880   2.171   0.177   5.803  0.0100  0.3440  0.0710
26274SOL    HW190881   2.263   0.180   5.765  0.8267 -0.8910  1.8468
26274SOL    HW290882   2.138   0.082   5.805 -0.9067  0.6580  0.3359
26275SOL     OW90883   9.824   6.134   6.600 -0.2914 -0.3834 -0.0315
26275SOL    HW190884   9.759   6.208   6.585 -0.7325 -0.4686  1.4466
26275SOL    HW290885   9.787   6.049   6.564 -0.3123 -0.1353 -0.6082
26276SOL     OW90886   2.237   9.761   4.665  0.3010 -0.0253 -0.9756
26276SOL    HW190887   2.327   9.773   4.709  0.8694  0.5822 -2.2884
26276SOL    HW290888   2.197   9.850   4.645 -0.5599 -0.2968 -0.5006
26277SOL     OW90889   2.796   0.275   1.921 -0.1054  0.3993 -0.0499
26277SOL    HW190890   2.718   0.269   1.983 -1.0585  0.4397 -1.2290
26277SOL    HW290891   2.860   0.344   1.954  0.2038 -0.7140  1.7616
26278SOL     OW90892   3.452   0.600   8.856  0.3161  0.2282 -0.2593
26278SOL    HW190893   3.478   0.692   8.829 -0.5683 -0.1006 -2.3136
26278SOL    HW290894   3.403   0.555   8.781 -1.3792 -1.0782  1.5723
26279SOL     OW90895   2.338   9.932   9.329 -0.4902  0.1087  0.1250
26279SOL    HW190896   2.245   9.907   9.358 -0.4519  0.8527  0.8764
26279SOL    HW290897   2.401   9.858   9.352 -1.3234 -1.5964 -2.8013
26280SOL     OW90898   8.801   5.679   6.478  0.2311 -0.0078  0.2970
26280SOL    HW190899   8.845   5.680   6.388  2.0762  1.7978  1.1699
26280SOL    HW290900   8.734   5.754   6.483 -0.8474 -0.9361 -0.0151
26281SOL     OW90901   5.305   3.062   5.476 -0.3231  0.5220 -0.2864
26281SOL    HW190902   5.294   3.043   5.379  1.3973 -0.8460 -0.2267
26281SOL    HW290903   5.345   2.983   5.522  0.1686  1.6526  1.2852
26282SOL     OW90904   1.715   5.145   4.581 -0.3935 -0.3394 -0.2795
26282SOL    HW190905   1.673   5.100   4.502  1.2290 -2.2372 -0.1100
26282SOL    HW290906   1.688   5.098   4.665 -2.3841  1.8850  0.3689
26283SOL     OW90907   8.887   5.214   3.200 -0.3497 -0.2705  0.1188
26283SOL    HW190908   8.899   5.182   3.294  0.2150 -2.3997 -0.6359
26283SOL    HW290909   8.974   5.250   3.166 -0.0321 -1.3590 -0.2384
26284SOL     OW90910   6.867   1.650   1.598  0.4975 -0.2136  0.1734
26284SOL    HW190911   6.899   1.570   1.548 -1.9885 -0.5011 -0.9974
26284SOL    HW290912   6.837   1.622   1.689 -1.1026 -0.7573 -0.5094
26285SOL     OW90913   6.461   2.167   0.845  0.0850 -0.3075 -0.3647
26285SOL    HW190914   6.457   2.235   0.772 -0.5739 -0.8947 -0.8905
26285SOL    HW290915   6.473   2.213   0.933 -1.1438  0.5411 -0.6237
26286SOL     OW90916   9.186   5.229   3.842 -0.2086  0.0557  0.4830
26286SOL    HW190917   9.182   5.277   3.930 -2.0675  1.1587 -0.1786
26286SOL    HW290918   9.269   5.255   3.793  0.4901 -0.0371  1.5981
26287SOL     OW90919   0.854   3.081   3.427  0.2284 -0.2826 -0.2055
26287SOL    HW190920   0.845   3.175   3.460 -0.1925 -0.8732  1.3784
26287SOL    HW290921   0.800   3.071   3.343 -0.2281  0.7305 -0.0455
26288SOL     OW90922   9.280   6.577   7.913 -0.3915 -0.0784 -0.4574
26288SOL    HW190923   9.264   6.489   7.957 -0.0236  0.0654 -0.0228
26288SOL    HW290924   9.261   6.651   7.978  0.9710  0.1183 -0.2569
26289SOL     OW90925   3.157   9.092   5.018 -0.0938  0.1903 -1.1591
26289SOL    HW190926   3.216   9.026   4.972  1.2576  0.3800  0.2759
26289SOL    HW290927   3.144   9.066   5.113 -0.4186  1.4186 -0.8484
26290SOL     OW90928   3.014   4.408   4.559 -0.6622  0.0971 -0.0130
26290SOL    HW190929   2.983   4.347   4.486 -1.3124 -0.5374  0.7742
26290SOL    HW290930   3.101   4.376   4.596 -0.4054  0.3366 -0.4043
26291SOL     OW90931   6.317   1.464   0.410  0.1182 -0.4662 -0.2181
26291SOL    HW190932   6.385   1.447   0.338  0.4697  1.2696 -0.3290
26291SOL    HW290933   6.363   1.483   0.496 -0.2837 -1.4454  0.2209
26292SOL     OW90934   0.283   7.989   7.557 -0.0996 -0.1838 -0.2971
26292SOL    HW190935   0.380   7.971   7.541  0.4999  0.6023  2.1743
26292SOL    HW290936   0.236   7.904   7.578  0.2121 -0.4771 -0.7948
26293SOL     OW90937   0.759   1.766   6.973  0.1518  0.2695 -0.2604
26293SOL    HW190938   0.727   1.782   6.880 -0.4742 -2.5746 -0.5852
26293SOL    HW290939   0.825   1.690   6.973 -1.1096 -0.8759  1.8002
26294SOL     OW90940   2.658   4.478   6.820  0.2425 -0.1084 -0.4616
26294SOL    HW190941   2.668   4.489   6.919 -0.1577 -2.7328 -0.1087
26294SOL    HW290942   2.738   4.431   6.783  0.0599  0.2153 -1.2875
26295SOL     OW90943   9.372   8.442   3.185 -0.6045 -0.4841  0.0492
26295SOL    HW190944   9.408   8.394   3.265  0.4306  0.5375  0.2065
26295SOL    HW290945   9.294   8.499   3.212  0.3394  0.6047  0.5339
26296SOL     OW90946   4.193   4.454   8.105 -0.0592 -0.5196 -0.2953
26296SOL    HW190947   4.212   4.406   8.191 -0.5841  1.8612  1.1706
26296SOL    HW290948   4.097   4.479   8.100  0.0708 -0.1781 -1.3534
26297SOL     OW90949   4.077   4.754   6.623  0.5037  0.4378 -0.4732
26297SOL    HW190950   4.126   4.783   6.704  2.2148  0.2042 -1.4092
26297SOL    HW290951   4.037   4.834   6.577 -1.2261  0.4788  1.0490
26298SOL     OW90952   0.641   0.352   0.564  0.2732  0.4084  0.3561
26298SOL    HW190953   0.647   0.257   0.595 -0.9713  0.1158 -0.2854
26298SOL    HW290954   0.585   0.404   0.628 -0.6657  0.2559 -0.3343
26299SOL     OW90955   3.853   3.920   9.828 -0.3082  0.7276 -0.2876
26299SOL    HW190956   3.801   3.886   9.750 -1.0330  0.3204  0.3728
26299SOL    HW290957   3.951   3.910   9.809 -0.4707  1.1957 -1.3889
26300SOL     OW90958   5.699   8.368   8.040  0.8067 -0.5778  0.2242
26300SOL    HW190959   5.683   8.445   7.979 -0.8873 -0.7834  0.3900
26300SOL    HW290960   5.716   8.286   7.986 -1.2385 -0.8767 -0.0056
26301SOL     OW90961   4.865   4.308   8.669 -0.0606 -0.5013 -0.2056
26301SOL    HW190962   4.928   4.381   8.644 -0.7722 -0.6703 -2.5379
26301SOL    HW290963   4.775   4.346   8.689  0.1792 -0.5095  0.9791
26302SOL     OW90964   2.645   2.621   2.482 -0.1948 -0.7229  0.3503
26302SOL    HW190965   2.607   2.607   2.391  1.6658 -0.0530 -0.5573
26302SOL    HW290966   2.702   2.543   2.507  0.5262 -0.2224  0.2924
26303SOL     OW90967   8.719   1.123   0.674  0.3634 -0.5215  0.7353
26303SOL    HW190968   8.793   1.105   0.738  0.2150  0.1568  1.0978
26303SOL    HW290969   8.725   1.058   0.597  2.1671  0.4263  0.0490
26304SOL     OW90970   8.478   9.420   3.542  0.6914  0.2638  0.5694
26304SOL    HW190971   8.402   9.458   3.594  0.4422 -0.8410  1.0413
26304SOL    HW290972   8.443   9.380   3.456  0.4889 -1.6025  1.4859
26305SOL     OW90973   0.357   1.915   3.946 -0.3708 -0.2799 -0.4414
26305SOL    HW190974   0.339   1.959   3.858 -0.6068  0.4378 -0.0364
26305SOL    HW290975   0.292   1.948   4.015  0.7198  0.2423  0.3547
26306SOL     OW90976   3.977   9.272   9.681  0.4104  0.1438  0.2583
26306SOL    HW190977   3.879   9.265   9.663 -0.2136  1.9843  2.6230
26306SOL    HW290978   4.008   9.190   9.728  0.3262 -1.0507 -1.7240
26307SOL     OW90979   9.726   5.566   2.261 -0.1791 -0.2795 -0.9419
26307SOL    HW190980   9.747   5.557   2.358  1.5010 -0.0362 -1.2633
26307SOL    HW290981   9.668   5.646   2.247 -0.6616 -0.4813 -0.1070
26308SOL     OW90982   3.790   6.932   1.694 -0.7105 -0.1731 -0.0606
26308SOL    HW190983   3.865   6.914   1.758  1.4088  0.7228 -2.1707
26308SOL    HW290984   3.775   7.031   1.687  1.7282  0.0684 -3.6747
26309SOL     OW90985   6.131   8.397   3.392  0.2520  0.2940  0.2055
26309SOL    HW190986   6.121   8.482   3.443  0.9999  2.1131 -2.5986
26309SOL    HW290987   6.041   8.354   3.381 -0.2085  0.9984  1.1692
26310SOL     OW90988   8.713   8.575   1.266  0.3851  0.3727  0.3611
26310SOL    HW190989   8.793   8.570   1.207 -0.0802 -1.2956 -0.1685
26310SOL    HW290990   8.636   8.611   1.214 -0.6622 -3.3317 -0.8617
26311SOL     OW90991   4.400   8.178   7.721 -0.1087  0.2447  0.2378
26311SOL    HW190992   4.384   8.270   7.757  0.6569 -0.5888  2.8076
26311SOL    HW290993   4.498   8.162   7.714 -0.2106 -0.7939  0.9981
26312SOL     OW90994   9.264   6.033   1.527  0.4246 -0.2331 -0.6529
26312SOL    HW190995   9.305   6.123   1.509  2.3428 -0.5674  1.8148
26312SOL    HW290996   9.336   5.969   1.556 -0.8138 -2.7545 -2.8536
26313SOL     OW90997   2.666   7.610   2.269 -0.0588  0.1331  0.4782
26313SOL    HW190998   2.586   7.667   2.288 -0.9327 -1.4766  1.7457
26313SOL    HW290999   2.638   7.514   2.259  1.7626 -0.5135  1.3262
26314SOL     OW91000   4.663   6.271   8.423  0.6767 -0.6565 -0.0351
26314SOL    HW191001   4.760   6.253   8.408  1.1606  1.2814  0.6614
26314SOL    HW291002   4.623   6.197   8.477  2.0129 -0.9321  0.5909
26315SOL     OW91003   2.843   3.117   7.207  0.0956  0.0246 -0.2162
26315SOL    HW191004   2.789   3.163   7.278  0.1101  3.1082 -2.0689
26315SOL    HW291005   2.939   3.144   7.216 -0.0342  1.1307 -1.8649
26316SOL     OW91006   3.922   4.950   5.318 -0.3296 -0.1259  0.1612
26316SOL    HW191007   3.901   4.986   5.409 -1.1719  1.4229 -0.6192
26316SOL    HW291008   3.890   4.855   5.311 -1.1009  0.0538  1.1767
26317SOL     OW91009   3.403   2.149   7.588 -0.3450  0.0090  0.2291
26317SOL    HW191010   3.312   2.156   7.627 -0.2624 -1.7780  0.7600
26317SOL    HW291011   3.468   2.196   7.648 -0.7635  0.4275  0.3580
26318SOL     OW91012   3.243   0.245   8.851 -0.4148 -0.0554  0.1554
26318SOL    HW191013   3.159   0.226   8.800 -0.6798  1.2422  0.1063
26318SOL    HW291014   3.320   0.198   8.807 -0.7464  0.5473 -1.0872
26319SOL     OW91015   5.688   6.033   0.552 -0.9242 -0.2185 -0.0160
26319SOL    HW191016   5.589   6.018   0.542 -0.8676  0.1626 -1.2746
26319SOL    HW291017   5.715   6.017   0.647 -2.5302  1.6308  0.7904
26320SOL     OW91018   2.503   9.252   7.769  0.7751  0.0425  0.2261
26320SOL    HW191019   2.544   9.234   7.679  0.6885  1.6834 -0.1434
26320SOL    HW291020   2.530   9.179   7.832 -0.1933 -1.8390 -1.4478
26321SOL     OW91021   4.686   0.545   0.699 -0.0107  0.0721 -0.3360
26321SOL    HW191022   4.668   0.546   0.600 -0.7764  1.8094 -0.2000
26321SOL    HW291023   4.764   0.604   0.719 -0.8168  0.9667  0.2460
26322SOL     OW91024   8.717   2.264   2.766  0.1245 -0.3584  0.2642
26322SOL    HW191025   8.675   2.189   2.818  0.0521  0.5180  1.5049
26322SOL    HW291026   8.790   2.228   2.708  1.0589 -1.2074  1.9206
26323SOL     OW91027   7.106   7.151   4.844 -0.5513  0.5264  0.2020
26323SOL    HW191028   7.039   7.086   4.879  1.7716 -1.8641  0.3268
26323SOL    HW291029   7.184   7.156   4.906 -0.1271  2.5016 -0.4493
26324SOL     OW91030   4.974   9.658   9.522  0.0391  0.0349 -0.4528
26324SOL    HW191031   5.044   9.636   9.454  1.8933  1.6265  0.8897
26324SOL    HW291032   4.978   9.756   9.543 -2.1638  0.0166  0.1253
26325SOL     OW91033   7.448   3.463   0.916 -0.0711 -0.8238  0.2041
26325SOL    HW191034   7.524   3.406   0.884 -0.1493 -0.0944 -1.3112
26325SOL    HW291035   7.374   3.405   0.948  0.2100 -1.5641 -0.4857
26326SOL     OW91036   6.359   1.465   9.538  0.2845 -0.4948  0.2965
26326SOL    HW191037   6.416   1.547   9.536 -0.5130  0.0473 -1.8283
26326SOL    HW291038   6.412   1.387   9.504 -0.1153 -0.0517 -1.3920
26327SOL     OW91039   9.128   1.252   8.681  0.3521  0.3312  0.2485
26327SOL    HW191040   9.089   1.191   8.749  1.8450 -1.1013 -0.1499
26327SOL    HW291041   9.218   1.283   8.712 -0.0468  1.6839  0.0748
26328SOL     OW91042   6.368   1.137   9.214 -0.0886  1.1035  0.4141
26328SOL    HW191043   6.333   1.193   9.139  0.1090  0.0832 -0.4455
26328SOL    HW291044   6.291   1.099   9.266 -0.2671 -0.2021 -0.7802
26329SOL     OW91045   5.852   3.878   1.231  0.8087 -0.5116 -0.4369
26329SOL    HW191046   5.944   3.914   1.242  1.0913 -1.4779  0.5462
26329SOL    HW291047   5.825   3.831   1.315 -0.7059  0.0393 -0.5992
26330SOL     OW91048   4.994   7.658   4.517  0.0632  0.2249 -0.2616
26330SOL    HW191049   4.905   7.626   4.550  0.3218 -0.3067 -0.0589
26330SOL    HW291050   4.982   7.740   4.463 -0.5802  0.0201 -0.4365
26331SOL     OW91051   2.779   7.798   8.575  0.2985 -0.5063  0.2369
26331SOL    HW191052   2.822   7.868   8.632 -0.0368  0.1285 -0.2832
26331SOL    HW291053   2.808   7.707   8.606  1.5847 -0.1055  0.2376
26332SOL     OW91054   7.019   3.733   2.277 -0.2762  0.2284 -0.1395
26332SOL    HW191055   7.030   3.808   2.212  0.1534 -1.0745 -1.5839
26332SOL    HW291056   7.109   3.700   2.305 -0.4612  0.5644  0.8762
26333SOL     OW91057   0.370   1.274   0.913  0.0261  0.3256 -0.3796
26333SOL    HW191058   0.314   1.210   0.861 -0.3860  0.5613 -0.2328
26333SOL    HW291059   0.437   1.224   0.968 -0.1727  0.0309 -0.4070
26334SOL     OW91060   4.443   9.105   3.472 -0.0413 -0.1116  0.1206
26334SOL    HW191061   4.378   9.059   3.533 -0.4889  1.4264  0.8403
26334SOL    HW291062   4.503   9.163   3.526  0.1400  0.5818 -0.8239
26335SOL     OW91063   4.431   4.895   8.036 -0.4275  0.1222 -0.0253
26335SOL    HW191064   4.419   4.796   8.031  1.2618 -0.1213  0.3541
26335SOL    HW291065   4.450   4.921   8.131  1.7679  0.4612 -0.5331
26336SOL     OW91066   1.866   7.897   0.943  0.5630  0.0714 -0.1683
26336SOL    HW191067   1.780   7.914   0.991  0.4656  0.6684 -0.5468
26336SOL    HW291068   1.902   7.983   0.908  0.5385 -0.3840 -1.3283
26337SOL     OW91069   9.595   5.492   0.510 -0.5145 -0.4963  0.0713
26337SOL    HW191070   9.517   5.523   0.455  0.5551 -0.5738 -1.4935
26337SOL    HW291071   9.671   5.555   0.498  1.3852 -3.1357 -2.4266
26338SOL     OW91072   7.731   2.338   6.288 -0.2144  0.3439 -0.1549
26338SOL    HW191073   7.814   2.286   6.309  0.3603  1.4315  0.3133
26338SOL    HW291074   7.735   2.370   6.193 -1.1302 -1.4610 -0.8402
26339SOL     OW91075   9.126   1.419   9.054  0.5883  0.3702  0.4888
26339SOL    HW191076   9.046   1.478   9.069  0.4642  0.2290  0.3942
26339SOL    HW291077   9.160   1.433   8.961  0.9892  0.8098  0.6988
26340SOL     OW91078   9.336   1.600   1.754  0.2803 -0.3022  0.2406
26340SOL    HW191079   9.328   1.560   1.663 -0.2750 -0.8211  0.5138
26340SOL    HW291080   9.270   1.557   1.815 -0.0524  0.7615  0.6383
26341SOL     OW91081   1.322   3.153   8.077  0.2888  0.2565  0.2004
26341SOL    HW191082   1.287   3.235   8.122  2.0442  1.4717 -0.5961
26341SOL    HW291083   1.274   3.073   8.112 -1.4676  1.6131  0.9820
26342SOL     OW91084   6.150   2.517   8.750  0.6462 -0.4521  0.4534
26342SOL    HW191085   6.102   2.581   8.810  0.2471 -0.7561  0.4645
26342SOL    HW291086   6.248   2.536   8.752  0.7772 -1.1793  2.1130
26343SOL     OW91087   4.685   8.738   4.564 -0.1162 -0.4329  0.5253
26343SOL    HW191088   4.737   8.672   4.618 -1.1054 -0.6601  1.2155
26343SOL    HW291089   4.748   8.797   4.513  0.7861 -1.3467  0.5775
26344SOL     OW91090   7.044   9.949   6.780 -0.4711  0.0793  0.3856
26344SOL    HW191091   6.992   9.945   6.865 -1.7877 -0.8151 -0.4494
26344SOL    HW291092   6.982   9.964   6.703  0.3586 -2.0184 -0.7386
26345SOL     OW91093   6.112   0.043   4.881  0.3305 -0.0788 -0.0950
26345SOL    HW191094   6.208   0.016   4.871  0.5588  0.9455 -0.7227
26345SOL    HW291095   6.054  -0.027   4.839  0.9031  0.1999 -1.4051
26346SOL     OW91096   0.389   7.098   1.117 -0.1419  0.4556 -0.1373
26346SOL    HW191097   0.424   7.049   1.037  0.5947 -1.2371  1.1803
26346SOL    HW291098   0.308   7.150   1.091 -1.4361 -2.0742 -1.4628
26347SOL     OW91099   6.982   6.943   5.246 -0.0109 -0.7287  0.2608
26347SOL    HW191100   7.036   7.024   5.270 -1.1079  0.9692 -2.7413
26347SOL    HW291101   6.890   6.971   5.218 -0.8167 -3.1340  0.3724
26348SOL     OW91102   0.966   9.296   9.572 -0.4210 -0.4256 -0.2220
26348SOL    HW191103   1.030   9.224   9.596  1.7157  0.4395 -3.0768
26348SOL    HW291104   0.950   9.355   9.652  1.1808 -1.5237  0.9208
26349SOL     OW91105   0.358   6.138   3.051 -0.4438  0.0383  0.6592
26349SOL    HW191106   0.445   6.173   3.085  0.2380 -0.8925 -0.0927
26349SOL    HW291107   0.310   6.210   3.000  0.4483  0.2001  0.0382
26350SOL     OW91108   0.374   0.860   9.729  0.0327  0.0972 -0.2477
26350SOL    HW191109   0.468   0.824   9.724  0.2120  0.1162  2.3739
26350SOL    HW291110   0.373   0.943   9.784 -1.3977  0.5402 -0.9361
26351SOL     OW91111   5.615   2.279   5.481 -0.0717 -0.0866  0.5525
26351SOL    HW191112   5.531   2.302   5.529 -0.6036 -1.9537  0.5713
26351SOL    HW291113   5.593   2.237   5.393  0.8739  1.3611 -0.4094
26352SOL     OW91114   4.134   9.104   7.117  0.0312  0.4782  0.3839
26352SOL    HW191115   4.163   9.128   7.209 -0.6100  2.0423  0.1838
26352SOL    HW291116   4.214   9.078   7.062  0.5388  0.6435  1.0429
26353SOL     OW91117   8.702   1.259   0.167 -0.3994  0.1402  0.0598
26353SOL    HW191118   8.750   1.301   0.244  0.2414  0.0151 -0.2641
26353SOL    HW291119   8.694   1.325   0.093  2.5031 -0.9074 -1.2633
26354SOL     OW91120   7.812   4.859   4.928 -0.0472 -0.1038 -0.5140
26354SOL    HW191121   7.808   4.932   4.996 -2.1999 -2.0453  1.5288
26354SOL    HW291122   7.767   4.889   4.844  1.2752  1.7659 -0.5948
26355SOL     OW91123   5.228   1.268   7.697 -0.1361 -0.1828 -0.1768
26355SOL    HW191124   5.172   1.236   7.773  0.5547 -1.4590 -0.2027
26355SOL    HW291125   5.263   1.190   7.645  1.9250  0.5865  0.0058
26356SOL     OW91126   0.876   0.832   4.217  0.0093 -0.1747 -0.1396
26356SOL    HW191127   0.853   0.918   4.172  0.5466  0.2958  0.4677
26356SOL    HW291128   0.834   0.756   4.168 -0.9216  0.4759 -0.3683
26357SOL     OW91129   2.944   4.039   5.305  0.0046  0.1400  0.3015
26357SOL    HW191130   2.893   4.040   5.219  0.1605 -0.2451  0.2058
26357SOL    HW291131   2.907   4.110   5.366  0.3560  0.8773 -0.3434
26358SOL     OW91132   8.608   6.246   6.799 -0.3768 -0.2077 -0.1046
26358SOL    HW191133   8.558   6.255   6.713  0.6737 -2.5361 -0.9873
26358SOL    HW291134   8.543   6.230   6.874 -1.0910 -1.5274 -0.9853
26359SOL     OW91135   9.819   5.311   0.733 -0.0005  0.6115  0.3425
26359SOL    HW191136   9.904   5.261   0.719 -0.2308  0.1312  0.6728
26359SOL    HW291137   9.755   5.290   0.659 -0.3891 -0.1997  0.9005
26360SOL     OW91138   1.304   8.677   6.375  0.0432  0.3353 -0.1092
26360SOL    HW191139   1.303   8.587   6.417  0.7832  0.9399  1.2528
26360SOL    HW291140   1.375   8.680   6.305 -1.1665 -0.6638 -1.3965
26361SOL     OW91141   5.322   8.895   8.663 -0.1968  0.4699  0.0439
26361SOL    HW191142   5.367   8.946   8.735 -0.7503 -0.1075  0.8134
26361SOL    HW291143   5.386   8.877   8.588 -0.2791  3.1892 -0.7323
26362SOL     OW91144   8.258   7.457   9.192  0.0389 -0.6088 -0.1774
26362SOL    HW191145   8.242   7.483   9.097  0.2644 -1.6049 -0.4927
26362SOL    HW291146   8.224   7.529   9.253 -2.7553 -1.2785 -0.9191
26363SOL     OW91147   9.134   8.833   4.114  0.1979  0.0616 -0.4714
26363SOL    HW191148   9.210   8.888   4.146 -0.2676  0.4968 -0.1060
26363SOL    HW291149   9.048   8.871   4.148 -0.2684  0.2072 -1.7812
26364SOL     OW91150   5.571   7.063   3.035 -0.3103 -0.0787  0.3178
26364SOL    HW191151   5.629   7.023   2.965 -0.7100 -0.8489  0.4223
26364SOL    HW291152   5.626   7.083   3.116  0.0290  0.2504  0.0122
26365SOL     OW91153   8.783   1.548   4.161 -0.0107 -0.6276  0.5706
26365SOL    HW191154   8.751   1.583   4.074 -1.6497  0.1356  1.4577
26365SOL    HW291155   8.883   1.550   4.164  0.0303 -0.1878 -1.0776
26366SOL     OW91156   8.251   0.539   9.538 -0.1554  0.5604  0.4354
26366SOL    HW191157   8.190   0.601   9.489  0.9051  1.4179  0.1884
26366SOL    HW291158   8.342   0.579   9.543  0.1547 -0.2814  1.6475
26367SOL     OW91159   5.217   4.520   6.963  0.0062 -0.4877  0.2688
26367SOL    HW191160   5.248   4.491   6.872 -1.2214 -1.1933  0.0570
26367SOL    HW291161   5.117   4.520   6.965  0.0126  0.9181  1.1904
26368SOL     OW91162   1.929   5.229   7.208 -0.1531 -0.0984  0.0345
26368SOL    HW191163   1.839   5.200   7.240 -0.3935  0.3488 -0.2359
26368SOL    HW291164   1.923   5.260   7.113  0.4272 -0.7774 -0.2366
26369SOL     OW91165   9.128   6.075   8.827 -0.4519 -0.1214  0.8011
26369SOL    HW191166   9.135   6.054   8.925  0.5616  2.3167  1.2937
26369SOL    HW291167   9.193   6.147   8.804 -2.5508  1.2455 -1.0971
26370SOL     OW91168   2.811   4.623   5.054  0.1974  0.3110  0.1256
26370SOL    HW191169   2.724   4.575   5.041 -0.4923  1.5569  0.0380
26370SOL    HW291170   2.868   4.612   4.972  0.5248 -1.2733  0.5376
26371SOL     OW91171   4.335   9.923   2.726  0.4279 -0.1003 -0.3594
26371SOL    HW191172   4.432   9.926   2.701  0.8762 -0.1255  1.3094
26371SOL    HW291173   4.301  10.017   2.735  0.6151 -0.0814  0.1978
26372SOL     OW91174   7.670   7.562   4.690  0.1716  0.3408 -0.6490
26372SOL    HW191175   7.660   7.533   4.786  0.7752  1.0142 -0.3808
26372SOL    HW291176   7.763   7.593   4.674  0.6696 -1.7485 -2.0136
26373SOL     OW91177   0.809   3.395   1.362 -0.9071  0.0234 -0.0328
26373SOL    HW191178   0.830   3.315   1.305 -1.9935  1.1798 -2.0960
26373SOL    HW291179   0.710   3.408   1.365 -0.7286  1.2839  0.3328
26374SOL     OW91180   2.829   8.635   5.917 -0.3133 -0.2703  0.5137
26374SOL    HW191181   2.836   8.672   6.010 -0.6172 -1.8025  1.1522
26374SOL    HW291182   2.836   8.711   5.851  0.5456  0.7662  1.7481
26375SOL     OW91183   4.246   2.788   3.503 -0.0450 -0.0253  0.6567
26375SOL    HW191184   4.297   2.874   3.510  0.3486  0.1978 -3.4481
26375SOL    HW291185   4.166   2.791   3.562  0.1441  3.0589  0.8162
26376SOL     OW91186   8.497   0.631   7.464 -0.2764 -0.2663  0.5782
26376SOL    HW191187   8.462   0.600   7.552 -0.6539 -0.0677  0.4984
26376SOL    HW291188   8.546   0.556   7.419 -0.9686 -0.6714  0.4950
26377SOL     OW91189   1.263   3.707   4.530  0.2821  0.3890 -0.5482
26377SOL    HW191190   1.177   3.757   4.544  0.6835  1.2314 -1.0180
26377SOL    HW291191   1.319   3.715   4.613  0.6711  1.3890 -0.8970
26378SOL     OW91192   6.673   0.415   9.683  0.6633  0.0183 -0.3790
26378SOL    HW191193   6.668   0.362   9.768  1.0034 -2.2594 -1.7451
26378SOL    HW291194   6.768   0.417   9.651  0.3716 -0.0880 -1.2806
26379SOL     OW91195   9.039   4.085   6.167  0.3132  0.3439 -0.2953
26379SOL    HW191196   9.073   4.105   6.076  0.5342  1.7705  0.0934
26379SOL    HW291197   9.099   4.125   6.236 -0.4536  0.2376  0.4583
26380SOL     OW91198   9.377   6.503   2.774  0.7090 -0.2484  0.1309
26380SOL    HW191199   9.367   6.600   2.756 -0.1705 -0.0588  1.4946
26380SOL    HW291200   9.348   6.451   2.694  2.1478  0.6195 -0.9648
26381SOL     OW91201   4.801   8.068   4.007  0.3413 -0.6007 -0.0885
26381SOL    HW191202   4.814   8.159   3.967 -1.7096 -0.2789 -0.1110
26381SOL    HW291203   4.767   8.077   4.100 -1.1580 -1.3082 -0.5393
26382SOL     OW91204   6.389   4.942   2.846 -0.0552  0.5797 -0.4571
26382SOL    HW191205   6.376   4.854   2.892 -1.2855  0.5961 -0.7537
26382SOL    HW291206   6.314   5.004   2.872  1.0944  1.7336  0.1952
26383SOL     OW91207   5.586   4.013   2.446 -0.0740  0.1492  0.7620
26383SOL    HW191208   5.671   4.002   2.394  0.2257 -3.0116  1.8229
26383SOL    HW291209   5.517   3.950   2.412 -0.8692  0.2259  2.1934
26384SOL     OW91210   9.662   5.944   0.736  0.1221 -0.3746  0.5391
26384SOL    HW191211   9.693   6.033   0.769 -1.4763  1.2342 -2.0815
26384SOL    HW291212   9.740   5.891   0.705  1.0433  0.3197  1.6407
26385SOL     OW91213   2.000   5.495   2.155 -0.4845  0.2136  1.0611
26385SOL    HW191214   1.903   5.519   2.164 -0.6201  0.8620 -1.7093
26385SOL    HW291215   2.009   5.395   2.146 -1.0382  0.2628 -0.1367
26386SOL     OW91216   1.214   5.735   5.941  0.2285  0.1432  0.5021
26386SOL    HW191217   1.245   5.675   6.015  0.2171 -1.5040 -0.7805
26386SOL    HW291218   1.292   5.776   5.896  0.4815 -1.8274 -0.9504
26387SOL     OW91219   4.192   7.570   5.267 -0.1898 -0.4397 -0.2869
26387SOL    HW191220   4.122   7.534   5.329 -1.2407  1.1025 -0.5486
26387SOL    HW291221   4.227   7.495   5.210 -1.9985 -1.1598 -0.5111
26388SOL     OW91222   0.308   7.057   8.788 -0.0540 -0.2114 -0.7235
26388SOL    HW191223   0.385   7.118   8.807  0.6916 -1.2192 -0.4882
26388SOL    HW291224   0.223   7.110   8.786  0.3477  0.5759  1.3752
26389SOL     OW91225   0.250   2.207   8.361 -0.0292 -0.0329 -0.4491
26389SOL    HW191226   0.151   2.216   8.366  0.2455  2.1440  1.6227
26389SOL    HW291227   0.285   2.166   8.445  1.0180  1.1649 -0.2825
26390SOL     OW91228   3.761   5.083   1.510 -0.3185  0.3811 -0.2088
26390SOL    HW191229   3.690   5.043   1.568  0.6283 -1.6003 -0.3788
26390SOL    HW291230   3.811   5.152   1.562  0.1739 -1.0001  1.1729
26391SOL     OW91231   2.393   4.722   2.007 -0.3850  0.0207  0.1981
26391SOL    HW191232   2.364   4.630   1.980 -0.7958  0.3633 -0.5213
26391SOL    HW291233   2.491   4.733   1.987 -0.8463  0.5281 -1.8635
26392SOL     OW91234   7.234   6.284   2.459 -0.1618 -0.3724  0.0343
26392SOL    HW191235   7.326   6.318   2.443 -0.0078 -0.7555  0.0930
26392SOL    HW291236   7.171   6.361   2.471  0.4331 -0.1133  1.5909
26393SOL     OW91237   8.710   1.398   7.183  0.4018  0.1818 -0.1731
26393SOL    HW191238   8.687   1.351   7.098  1.9370  1.1166 -1.1519
26393SOL    HW291239   8.646   1.474   7.197  1.2292  1.1388 -1.4649
26394SOL     OW91240   3.587   7.698   7.019 -0.3144 -0.0276 -0.3674
26394SOL    HW191241   3.607   7.621   6.959  0.8316  0.1493 -0.2218
26394SOL    HW291242   3.590   7.783   6.966  0.6824  0.1270 -0.0573
26395SOL     OW91243   0.378   9.407   7.805  0.2017  0.0250  0.1484
26395SOL    HW191244   0.474   9.392   7.826  0.0787 -1.8530 -0.5788
26395SOL    HW291245   0.369   9.474   7.731  0.9579 -0.2882 -0.2231
26396SOL     OW91246   8.397   1.798   1.334 -0.1518 -0.1674 -0.4598
26396SOL    HW191247   8.362   1.886   1.303  2.5254  0.6523 -1.2747
26396SOL    HW291248   8.443   1.810   1.422  0.8191 -0.6283 -0.9037
26397SOL     OW91249   6.505   7.285   4.908 -0.4661  0.4760 -0.0334
26397SOL    HW191250   6.418   7.284   4.958 -0.2063  0.7913  0.4294
26397SOL    HW291251   6.519   7.375   4.868 -0.1698  0.5380  0.2128
26398SOL     OW91252   8.041   1.377   7.343 -0.9745  0.0447 -0.0935
26398SOL    HW191253   7.987   1.386   7.427 -1.5573  2.7524 -0.7536
26398SOL    HW291254   8.071   1.281   7.334  1.0454  0.1045  4.4168
26399SOL     OW91255   0.834   2.242   5.084  0.5877 -0.2403 -0.0394
26399SOL    HW191256   0.877   2.327   5.115 -0.0604 -0.0527  0.3576
26399SOL    HW291257   0.867   2.165   5.139  1.0221 -0.2180 -0.2659
26400SOL     OW91258   1.514   5.339   4.016 -0.2422  0.2165  0.8349
26400SOL    HW191259   1.580   5.306   3.948 -0.4854  0.8626  0.2802
26400SOL    HW291260   1.547   5.316   4.107  0.1022 -0.6362  0.5042
26401SOL     OW91261   3.752   7.561   0.049 -0.0475  0.1007 -0.6357
26401SOL    HW191262   3.676   7.612   0.089  0.4614  0.9127 -0.6910
26401SOL    HW291263   3.800   7.511   0.120  0.2659  0.7665 -0.3831
26402SOL     OW91264   9.696   5.853   8.357 -0.6969  0.0727 -0.7247
26402SOL    HW191265   9.599   5.827   8.350 -0.9189  0.9777 -1.1794
26402SOL    HW291266   9.753   5.772   8.349 -1.5244 -1.0124  3.3977
26403SOL     OW91267   2.182   5.661   2.275  0.3488  0.0530  0.2693
26403SOL    HW191268   2.118   5.595   2.238 -0.6790  1.5177 -0.6209
26403SOL    HW291269   2.159   5.681   2.370 -0.6835  0.7709 -0.1264
26404SOL     OW91270   1.559   6.865   6.705  0.8026  0.1444 -0.3760
26404SOL    HW191271   1.462   6.853   6.686  0.6285 -2.0586  1.6621
26404SOL    HW291272   1.610   6.788   6.668  1.6515  0.7994 -0.5881
26405SOL     OW91273   7.490   7.820   4.045  0.5957 -0.3509 -0.1809
26405SOL    HW191274   7.527   7.899   3.995  1.9787  0.3968  1.9644
26405SOL    HW291275   7.406   7.847   4.091  1.1098 -0.0903  0.6162
26406SOL     OW91276   3.971   0.220   2.996  0.6104  0.5561  0.1731
26406SOL    HW191277   4.056   0.196   3.042  1.1290  0.0497 -1.0393
26406SOL    HW291278   3.933   0.303   3.037  1.5536  0.6455  0.8781
26407SOL     OW91279   8.987   6.280   3.955  0.6659  0.3661 -0.1046
26407SOL    HW191280   8.900   6.329   3.960  1.6522  2.0914  1.1341
26407SOL    HW291281   9.055   6.339   3.912  1.0908 -1.1680 -1.5453
26408SOL     OW91282   3.980   3.833   8.914  0.8097 -0.5614 -0.4234
26408SOL    HW191283   3.887   3.862   8.891  1.2863 -0.2238 -1.9525
26408SOL    HW291284   4.041   3.912   8.909  1.1189 -0.7063  0.9640
26409SOL     OW91285   4.243   7.222   8.395 -0.2332 -0.2151 -0.0385
26409SOL    HW191286   4.191   7.278   8.460 -1.6640 -1.9266  0.3327
26409SOL    HW291287   4.234   7.260   8.303 -2.1373 -0.4618  0.0338
26410SOL     OW91288   0.625   8.056   5.942 -0.1179 -0.2116  0.1097
26410SOL    HW191289   0.639   8.066   6.041  1.9719 -1.2775 -0.0509
26410SOL    HW291290   0.561   7.982   5.925  0.3449 -0.7372  0.6373
26411SOL     OW91291   8.971   1.247   5.029  0.3650  0.2598 -0.1037
26411SOL    HW191292   8.884   1.297   5.036 -1.1265 -1.5379 -3.9100
26411SOL    HW291293   8.961   1.155   5.067  0.9017  0.3981  0.3736
26412SOL     OW91294   7.211   9.263   8.302 -0.1831 -0.3073  0.2283
26412SOL    HW191295   7.286   9.199   8.285  0.1491  0.2488 -0.3868
26412SOL    HW291296   7.143   9.218   8.361 -0.1128 -1.3466 -0.4552
26413SOL     OW91297   0.677   8.463   3.459  0.5598 -0.0307 -0.4070
26413SOL    HW191298   0.658   8.554   3.422 -3.6837 -1.1788 -1.2917
26413SOL    HW291299   0.649   8.394   3.393  1.0953 -2.0498  1.4275
26414SOL     OW91300   8.581   0.216   5.598  0.1781  0.1529  0.0782
26414SOL    HW191301   8.487   0.248   5.608  1.1102  2.1419  3.0232
26414SOL    HW291302   8.613   0.234   5.505 -1.8007  0.9310 -0.4720
26415SOL     OW91303   9.616   5.875   2.905  0.5175  0.2050  0.2540
26415SOL    HW191304   9.607   5.833   2.815  0.6837 -0.4349  0.5361
26415SOL    HW291305   9.527   5.879   2.949  0.2797  1.3227 -0.2890
26416SOL     OW91306   5.356   4.504   0.071 -0.0637 -0.5034 -0.0887
26416SOL    HW191307   5.346   4.470   0.164  2.0419 -0.8600  0.0241
26416SOL    HW291308   5.451   4.527   0.054 -0.5012 -0.0603 -2.0266
26417SOL     OW91309   2.586   9.556   4.529 -0.5772  0.4101 -0.0745
26417SOL    HW191310   2.557   9.561   4.434  0.5922  1.3935 -0.3928
26417SOL    HW291311   2.578   9.462   4.562  0.1686 -0.1540 -1.5022
26418SOL     OW91312   2.406   3.121   7.523 -0.3035  0.1802 -0.6211
26418SOL    HW191313   2.389   3.082   7.613  1.2105 -2.2695 -1.3527
26418SOL    HW291314   2.320   3.154   7.484 -0.9568  1.3706  1.7157
26419SOL     OW91315   6.771   2.145   3.227 -0.1815  0.2640 -0.5520
26419SOL    HW191316   6.740   2.050   3.229  0.1058  0.1677 -0.7226
26419SOL    HW291317   6.755   2.187   3.316  0.0068 -0.0434 -0.3744
26420SOL     OW91318   8.353   3.731   5.617 -0.2182  0.4185 -0.5515
26420SOL    HW191319   8.345   3.760   5.713  0.4738 -1.9033  0.2334
26420SOL    HW291320   8.261   3.715   5.580 -0.4477  0.5732 -0.0565
26421SOL     OW91321   3.761   0.667   0.104 -0.4121  0.0926 -0.1618
26421SOL    HW191322   3.706   0.745   0.073 -0.4523 -0.3433 -1.2201
26421SOL    HW291323   3.787   0.612   0.024 -1.0224 -1.3966  0.6510
26422SOL     OW91324   7.983   2.759   4.490  0.0583  0.5115 -0.3765
26422SOL    HW191325   7.903   2.761   4.550  0.4306 -0.6752  0.1734
26422SOL    HW291326   7.990   2.669   4.447  1.9600  0.0757  0.7835
26423SOL     OW91327   1.813   1.728   3.852  0.7284 -0.0820 -0.5328
26423SOL    HW191328   1.798   1.811   3.798 -0.5768  0.7051  0.9764
26423SOL    HW291329   1.796   1.749   3.949  2.6963 -1.5298  0.1455
26424SOL     OW91330   1.216   9.556   2.228 -0.1364  0.5418  0.0501
26424SOL    HW191331   1.209   9.457   2.215  0.9401  0.0860  2.5792
26424SOL    HW291332   1.291   9.592   2.172  0.1120 -0.2541 -0.1395
26425SOL     OW91333   7.257   5.803   6.929 -0.0555 -0.0499  0.0417
26425SOL    HW191334   7.198   5.753   6.864 -0.1551  1.4252 -1.0326
26425SOL    HW291335   7.335   5.745   6.954 -0.0853 -0.7032 -1.3019
26426SOL     OW91336   1.991   8.274   5.122 -0.5333 -0.3796 -0.0438
26426SOL    HW191337   2.036   8.187   5.102  0.8011  0.2505  0.1825
26426SOL    HW291338   1.957   8.274   5.216 -0.3432 -0.5724  0.0234
26427SOL     OW91339   8.683   8.716  10.049 -0.6947 -0.3924 -0.1682
26427SOL    HW191340   8.642   8.781   9.985 -1.3233  0.9915  1.5997
26427SOL    HW291341   8.645   8.625  10.033 -1.0612 -0.0099 -1.5547
26428SOL     OW91342   0.248   3.864   8.755  0.2691  0.2303  0.5979
26428SOL    HW191343   0.161   3.847   8.710 -0.1313 -1.8295  2.0785
26428SOL    HW291344   0.277   3.957   8.736 -1.7277  0.6079 -0.7932
26429SOL     OW91345   1.622   1.771   1.602 -0.3092  0.1040 -0.4164
26429SOL    HW191346   1.721   1.762   1.593 -0.3624 -1.9522  0.6468
26429SOL    HW291347   1.600   1.842   1.668  0.4458  0.6773 -0.7762
26430SOL     OW91348   3.764   0.765   6.836  0.1708 -0.3001  0.1729
26430SOL    HW191349   3.808   0.828   6.900  0.5205  2.1203 -2.3768
26430SOL    HW291350   3.778   0.797   6.742 -1.6768 -2.9180 -1.0530
26431SOL     OW91351   6.153   9.034   4.816 -0.1416 -0.6224 -0.0492
26431SOL    HW191352   6.176   8.940   4.843  1.5533  0.2590  1.7038
26431SOL    HW291353   6.228   9.072   4.761 -1.0554 -0.4574 -1.1976
26432SOL     OW91354   1.481   5.784   8.633 -0.1917  0.7092 -0.1026
26432SOL    HW191355   1.539   5.820   8.706  0.3568  0.0384 -0.2065
26432SOL    HW291356   1.471   5.853   8.561 -0.5142  1.2717  0.4735
26433SOL     OW91357   4.992   3.214   9.800 -0.2895  0.4303 -0.5848
26433SOL    HW191358   5.010   3.216   9.701 -3.2474 -1.4097 -1.2370
26433SOL    HW291359   4.894   3.205   9.815  0.1772  0.1944  2.5651
26434SOL     OW91360   8.198   7.062   9.402 -0.0655  0.3460 -0.3378
26434SOL    HW191361   8.186   7.151   9.446 -2.4983 -0.3075  0.3984
26434SOL    HW291362   8.126   7.049   9.334 -1.3571 -2.1475  1.4440
26435SOL     OW91363   7.549   7.001   4.866 -0.6204  0.2171 -0.2567
26435SOL    HW191364   7.470   6.939   4.875 -0.3373 -0.3371 -1.4009
26435SOL    HW291365   7.540   7.053   4.781  0.0469  0.4476 -0.1866
26436SOL     OW91366   5.057   5.854   2.041 -0.0790  0.4672 -0.0127
26436SOL    HW191367   5.010   5.878   1.956 -2.1750  1.2530  1.3209
26436SOL    HW291368   5.090   5.760   2.035 -0.7973  0.2853 -1.4348
26437SOL     OW91369   4.814   5.923   1.436  0.0090 -0.3574  0.1169
26437SOL    HW191370   4.752   5.893   1.364  0.9601 -1.3850 -0.2938
26437SOL    HW291371   4.892   5.860   1.441  1.3220  1.2352  0.2075
26438SOL     OW91372   0.816   3.337   3.517 -0.0360  0.4143  0.4526
26438SOL    HW191373   0.834   3.324   3.614  1.1319  0.1407  0.2066
26438SOL    HW291374   0.726   3.381   3.505 -0.3951  0.0093  1.6199
26439SOL     OW91375   7.364   7.830   7.698 -0.1723 -0.7358 -0.2719
26439SOL    HW191376   7.393   7.850   7.792 -0.3262  0.7303 -0.5313
26439SOL    HW291377   7.372   7.732   7.681  0.6568 -0.8992  1.0072
26440SOL     OW91378   9.199   7.508   6.644  0.0788  0.0340  0.4885
26440SOL    HW191379   9.131   7.513   6.717 -0.6198 -0.1149 -0.1396
26440SOL    HW291380   9.153   7.484   6.558  0.8479  0.4732 -0.0495
26441SOL     OW91381   8.400   7.879   4.871 -0.7532  0.2048  0.1245
26441SOL    HW191382   8.488   7.926   4.870 -1.1596  0.9867  0.2369
26441SOL    HW291383   8.327   7.946   4.890 -1.3818 -0.4020 -0.1456
26442SOL     OW91384   8.250   3.218   4.788  0.2345 -0.3925 -0.2587
26442SOL    HW191385   8.269   3.159   4.867  1.1412  0.4096  0.1255
26442SOL    HW291386   8.163   3.190   4.747  0.4273 -1.7160  0.1842
26443SOL     OW91387   4.014   3.044   5.810 -0.1524 -0.5497 -0.0047
26443SOL    HW191388   3.947   2.977   5.777  0.1217 -2.0295  2.2579
26443SOL    HW291389   3.966   3.120   5.854 -0.4075 -1.3328  1.1117
26444SOL     OW91390   9.412   7.052   3.877  0.5683 -0.1765 -0.4210
26444SOL    HW191391   9.478   6.978   3.870 -0.0208 -0.7074 -0.4118
26444SOL    HW291392   9.319   7.016   3.866  0.0600  0.0900  2.5243
26445SOL     OW91393   5.316   4.205   0.017  0.0754  0.4372  0.2681
26445SOL    HW191394   5.370   4.160  -0.054 -0.3155  0.1682  0.1378
26445SOL    HW291395   5.275   4.288  -0.020  0.3312  0.5994  0.3440
26446SOL     OW91396   0.785   2.874   0.644  0.1706  0.1577 -0.6972
26446SOL    HW191397   0.771   2.858   0.742  1.1137 -0.9833 -0.7363
26446SOL    HW291398   0.726   2.949   0.614 -0.6631  0.0408  0.5856
26447SOL     OW91399   0.545   8.577   7.108 -0.6960 -0.2123  0.6656
26447SOL    HW191400   0.623   8.516   7.119 -0.6739 -0.3073  0.0246
26447SOL    HW291401   0.466   8.523   7.078 -0.8098 -0.0048  0.5935
26448SOL     OW91402   6.597   9.997   8.056  0.3339  0.5232 -0.7604
26448SOL    HW191403   6.573  10.093   8.042  0.1795  0.3301 -1.8815
26448SOL    HW291404   6.636   9.960   7.971  0.6083 -0.3389 -0.2605
26449SOL     OW91405   0.999   5.818   7.365 -0.1647  0.5048  0.2403
26449SOL    HW191406   0.964   5.887   7.429 -1.3973 -0.8749  1.1090
26449SOL    HW291407   1.018   5.733   7.415  1.0573  0.1065 -0.8547
26450SOL     OW91408   7.179   2.905   2.540 -0.5942 -0.1244  0.5814
26450SOL    HW191409   7.084   2.877   2.554 -0.9974  0.1130 -1.5112
26450SOL    HW291410   7.240   2.838   2.583 -1.6219 -2.5698 -1.6415
26451SOL     OW91411   8.705   7.418   7.547 -0.2756  0.4536 -0.3988
26451SOL    HW191412   8.735   7.504   7.587 -2.0048  1.0252 -0.2640
26451SOL    HW291413   8.731   7.415   7.451  1.1036  0.4646 -0.0329
26452SOL     OW91414   9.142   3.033   5.096 -0.0600 -0.4521 -0.0883
26452SOL    HW191415   9.216   2.967   5.091 -0.2350 -0.6871  0.3700
26452SOL    HW291416   9.079   3.019   5.020 -0.5978 -1.4212  0.5251
26453SOL     OW91417   8.858   0.965   9.701 -0.6424 -0.2353 -0.4611
26453SOL    HW191418   8.876   0.868   9.685 -1.9528 -0.6326  0.4429
26453SOL    HW291419   8.761   0.984   9.687 -0.4305  0.9074 -0.4170
26454SOL     OW91420   6.163   5.425   9.706 -0.1178  0.0529 -0.1226
26454SOL    HW191421   6.158   5.356   9.635  0.1695 -0.0984  0.0004
26454SOL    HW291422   6.077   5.476   9.711 -0.5091 -0.6284  0.1244
26455SOL     OW91423   3.754   7.873   1.707 -0.1431  0.2716 -0.1089
26455SOL    HW191424   3.691   7.847   1.780  0.5626  1.3819  0.9115
26455SOL    HW291425   3.703   7.920   1.634 -0.1383  3.7722  2.0132
26456SOL     OW91426   1.715   3.090   2.060  0.3409  0.3055 -0.2848
26456SOL    HW191427   1.804   3.101   2.015 -0.0737  2.6563 -0.5586
26456SOL    HW291428   1.714   3.143   2.144 -0.7703  0.1527 -0.1969
26457SOL     OW91429   5.802   1.207   0.333 -0.8020 -0.1365 -0.2725
26457SOL    HW191430   5.767   1.248   0.418 -0.9896  0.0488 -0.4391
26457SOL    HW291431   5.749   1.125   0.312  0.3188 -1.1296  0.6863
26458SOL     OW91432   8.454   8.178   3.895 -0.2046 -0.1262 -0.0223
26458SOL    HW191433   8.494   8.239   3.963 -1.3120  0.3976  0.1759
26458SOL    HW291434   8.370   8.139   3.931 -2.0143  1.9032 -1.8659
26459SOL     OW91435   2.345   9.212   7.391 -0.3635 -0.5504 -0.0322
26459SOL    HW191436   2.294   9.287   7.434 -1.7726 -0.6913 -1.4106
26459SOL    HW291437   2.439   9.212   7.424 -1.0524  0.1997  1.9805
26460SOL     OW91438   3.041   4.421   2.952  0.0716  0.6041  0.4110
26460SOL    HW191439   2.952   4.462   2.969 -0.5286 -0.1733 -0.7408
26460SOL    HW291440   3.097   4.484   2.899 -1.3339 -0.5213 -2.5362
26461SOL     OW91441   8.013   8.687   3.313  0.4469  0.2043  0.2309
26461SOL    HW191442   7.964   8.608   3.350 -0.7986  0.5916 -0.5635
26461SOL    HW291443   7.982   8.770   3.360 -0.3267  0.5602 -0.8772
26462SOL     OW91444   6.092   9.578   5.007 -0.2658 -0.2436 -0.2460
26462SOL    HW191445   6.074   9.569   5.105  0.6364  0.5911  0.0092
26462SOL    HW291446   6.190   9.563   4.990 -0.5643 -1.2309 -1.1352
26463SOL     OW91447   5.192   3.065   8.876 -0.3196  0.0148  0.1308
26463SOL    HW191448   5.240   3.140   8.830  0.2711  0.2016  1.0514
26463SOL    HW291449   5.094   3.085   8.880 -0.1262  0.8700  0.6206
26464SOL     OW91450   9.150   6.842   2.078  0.0195 -0.1017  0.3500
26464SOL    HW191451   9.134   6.940   2.061 -0.6011  0.1478  2.3048
26464SOL    HW291452   9.065   6.792   2.065  0.7549 -0.6881 -2.5569
26465SOL     OW91453   5.856   1.082   5.307 -0.0190 -0.9129 -0.2269
26465SOL    HW191454   5.929   1.045   5.249 -0.4817 -3.0281  0.4974
26465SOL    HW291455   5.818   1.164   5.264  2.2461 -0.2345 -0.9973
26466SOL     OW91456   7.794   8.577   6.448 -0.3038 -0.2555  0.1892
26466SOL    HW191457   7.705   8.568   6.403 -1.2092  0.0758  1.8478
26466SOL    HW291458   7.843   8.656   6.411 -0.8044 -0.2975 -0.5687
26467SOL     OW91459   3.532   8.026   9.819  0.8575  0.0923  0.6966
26467SOL    HW191460   3.496   8.070   9.901  0.5751 -0.1499  0.7037
26467SOL    HW291461   3.457   7.984   9.768  1.1133 -0.3121  0.6477
26468SOL     OW91462   2.649   0.723   6.562  0.2394  0.0307 -0.5629
26468SOL    HW191463   2.564   0.737   6.512  0.2868  1.0110 -0.3817
26468SOL    HW291464   2.727   0.744   6.503  0.3641 -1.0249 -0.7797
26469SOL     OW91465   0.617   3.065   4.453 -0.0987 -0.3578  0.2252
26469SOL    HW191466   0.629   2.974   4.413 -0.1987 -0.0315 -0.5585
26469SOL    HW291467   0.579   3.056   4.545  0.6190 -1.1412  0.4550
26470SOL     OW91468   1.724   8.082   8.924 -0.0524 -0.7105 -0.2418
26470SOL    HW191469   1.664   8.159   8.945  1.6560  0.3063  1.1790
26470SOL    HW291470   1.670   8.002   8.900 -1.8807  0.7840 -1.1900
26471SOL     OW91471   0.625   6.408   1.137  0.4497  0.1058 -0.3979
26471SOL    HW191472   0.710   6.435   1.182  0.2375 -0.3073  0.2607
26471SOL    HW291473   0.580   6.336   1.190  0.2792 -0.5185 -1.3640
26472SOL     OW91474   7.228   0.291   6.115 -0.4497  0.3357  0.0980
26472SOL    HW191475   7.134   0.259   6.125 -0.3737  0.2535  0.5339
26472SOL    HW291476   7.243   0.319   6.020 -1.1682  1.1482  0.2112
26473SOL     OW91477   3.103   1.026   8.081  0.8741  0.3595 -0.1704
26473SOL    HW191478   3.086   0.929   8.098  0.3072  0.2958 -1.0305
26473SOL    HW291479   3.132   1.071   8.166 -0.3393 -0.2473  0.5846
26474SOL     OW91480   2.265   9.479   8.148  0.3815 -0.3956  0.5192
26474SOL    HW191481   2.349   9.439   8.112  1.2657  1.2625  0.7075
26474SOL    HW291482   2.287   9.561   8.201 -1.4563  0.6844 -0.3430
26475SOL     OW91483   4.909   1.247   3.924  0.0948 -0.4035 -0.3620
26475SOL    HW191484   4.896   1.147   3.924 -0.3502 -0.3672  2.0440
26475SOL    HW291485   4.819   1.291   3.924  0.2926 -0.0132  0.9531
26476SOL     OW91486   8.915   5.625   7.885 -0.2720  0.6620 -0.1103
26476SOL    HW191487   8.898   5.527   7.884 -0.4152  0.6927 -1.1124
26476SOL    HW291488   8.847   5.671   7.943  0.7048  0.0155  1.5899
26477SOL     OW91489   1.243   3.442   7.806  0.0492  0.1536 -1.2427
26477SOL    HW191490   1.192   3.470   7.725  0.2247  0.9243 -1.0897
26477SOL    HW291491   1.193   3.468   7.888 -0.1818 -0.7309 -1.0983
26478SOL     OW91492   0.321   1.371   6.215  0.0739  0.5536 -0.4720
26478SOL    HW191493   0.358   1.281   6.192  0.2056  0.5199 -0.1295
26478SOL    HW291494   0.390   1.441   6.195  0.6768  0.4043  1.0704
26479SOL     OW91495   1.664   7.661   2.339 -0.0152 -0.0537 -0.0494
26479SOL    HW191496   1.583   7.717   2.322  0.4230  0.6557  0.2364
26479SOL    HW291497   1.642   7.565   2.320 -1.6147 -0.1850  2.3169
26480SOL     OW91498   3.665   1.999   0.382 -0.4380 -0.3960  0.0548
26480SOL    HW191499   3.585   2.047   0.417 -0.3811 -0.8145  0.7553
26480SOL    HW291500   3.696   1.931   0.448  0.7653  0.0627 -0.0121
26481SOL     OW91501   8.142   8.883   5.191 -0.1562 -0.2233 -0.0699
26481SOL    HW191502   8.173   8.851   5.101 -0.5755 -0.4934 -0.1180
26481SOL    HW291503   8.174   8.976   5.206 -0.6975  0.0777 -0.7983
26482SOL     OW91504   3.437   6.081   1.619  0.0407 -0.4647  0.0157
26482SOL    HW191505   3.403   6.020   1.547  2.7681 -0.0743 -1.6854
26482SOL    HW291506   3.505   6.032   1.673  2.2448  0.9828 -1.3544
26483SOL     OW91507   6.927   0.704   4.705  0.1697  0.0213 -0.1941
26483SOL    HW191508   6.844   0.718   4.760  0.9294 -3.7184  2.0779
26483SOL    HW291509   6.907   0.640   4.631  1.5071 -2.9117  1.8701
26484SOL     OW91510   6.538   2.337   1.071 -0.4037 -0.5065 -0.4974
26484SOL    HW191511   6.605   2.285   1.123 -0.3768 -0.4012 -0.4278
26484SOL    HW291512   6.486   2.397   1.133 -1.0497 -1.1171 -0.4454
26485SOL     OW91513   5.231   7.871   4.916  0.3075 -0.2966 -0.1153
26485SOL    HW191514   5.253   7.820   4.832 -1.0006  0.4784 -0.9336
26485SOL    HW291515   5.296   7.845   4.988  0.3189 -2.3230 -0.8250
26486SOL     OW91516   8.572   4.692   6.839 -0.1949 -0.0555 -0.2388
26486SOL    HW191517   8.496   4.663   6.780  2.1987  1.0382 -4.0260
26486SOL    HW291518   8.655   4.642   6.814  1.0303  0.8634  1.8678
26487SOL     OW91519   7.892   5.022   9.412  0.0755 -0.2174  0.2262
26487SOL    HW191520   7.822   4.951   9.405  0.3350 -0.4166 -0.3887
26487SOL    HW291521   7.909   5.043   9.508  2.1454 -3.1063  0.5532
26488SOL     OW91522   2.571   8.990   1.529 -0.2087  0.1788  0.2585
26488SOL    HW191523   2.603   9.044   1.607 -0.3346  0.1154  0.3558
26488SOL    HW291524   2.630   8.910   1.518  0.2769  0.5921 -0.1921
26489SOL     OW91525   0.560   9.757   4.366 -0.7341 -0.0746 -0.0105
26489SOL    HW191526   0.571   9.775   4.464 -1.3873  2.9074 -0.4492
26489SOL    HW291527   0.463   9.751   4.344 -0.5792 -1.1890 -0.4116
26490SOL     OW91528   9.985   8.048   9.563  0.9408  0.1231 -0.3805
26490SOL    HW191529   9.923   8.122   9.535  1.0967  0.0245 -0.9833
26490SOL    HW291530  10.061   8.043   9.500  1.2385 -0.1755 -0.0015
26491SOL     OW91531   2.738   9.636   2.080 -0.1589  0.0450  0.1114
26491SOL    HW191532   2.821   9.649   2.135 -0.8194 -0.7307  1.3308
26491SOL    HW291533   2.763   9.624   1.984  1.1167  0.1516  0.4186
26492SOL     OW91534   3.210   2.620   5.753 -0.4195  0.3101  0.3704
26492SOL    HW191535   3.211   2.613   5.853 -0.8431 -1.6916  0.2507
26492SOL    HW291536   3.264   2.699   5.725  0.0996  0.6183  2.1620
26493SOL     OW91537   0.364   0.906   6.370  0.5485 -0.3555  0.0216
26493SOL    HW191538   0.270   0.903   6.402  0.5358  0.4982  0.0700
26493SOL    HW291539   0.425   0.933   6.445  0.6440  0.5835 -0.3823
26494SOL     OW91540   4.114   3.627   7.163  0.3323 -0.0307 -0.5662
26494SOL    HW191541   4.022   3.602   7.190 -0.3742 -0.0092 -2.8312
26494SOL    HW291542   4.158   3.679   7.236 -0.6372 -1.9319  1.4225
26495SOL     OW91543   2.816   5.649   8.746  0.7622 -0.5159  0.5145
26495SOL    HW191544   2.770   5.708   8.679 -0.5894 -2.5416 -0.3942
26495SOL    HW291545   2.912   5.675   8.752  0.2201  1.6902  0.0425
26496SOL     OW91546   9.152   5.616   8.005 -0.6508  0.3113 -0.4540
26496SOL    HW191547   9.119   5.608   8.099  2.9628  1.2915  0.9399
26496SOL    HW291548   9.077   5.649   7.947 -2.4965  1.1580  2.3027
26497SOL     OW91549   3.176   4.206   1.965 -0.3240 -0.1047 -0.2322
26497SOL    HW191550   3.251   4.269   1.944 -0.1051  0.5334  2.2563
26497SOL    HW291551   3.130   4.237   2.049 -1.7116 -1.9440 -0.2995
26498SOL     OW91552   1.488   1.359   3.964  0.0041  0.1813  0.0135
26498SOL    HW191553   1.566   1.382   4.022  1.0466 -0.7309 -1.0243
26498SOL    HW291554   1.465   1.438   3.907  2.0296 -0.4838 -1.7794
26499SOL     OW91555   2.015   3.595   3.394 -0.4110 -0.1557  0.2423
26499SOL    HW191556   2.034   3.642   3.481  1.6363  0.6860 -0.6243
26499SOL    HW291557   1.949   3.522   3.410  1.0212 -0.9668  2.7921
26500SOL     OW91558   6.166   7.606   4.063 -0.0138 -0.5456 -0.6751
26500SOL    HW191559   6.225   7.525   4.060  0.9157  0.1274 -1.1010
26500SOL    HW291560   6.074   7.581   4.034 -0.3683 -1.9600  1.5625
26501SOL     OW91561   5.181   9.791   8.415  0.0201  0.7146  0.5369
26501SOL    HW191562   5.100   9.829   8.371  0.1883  1.0600  0.5215
26501SOL    HW291563   5.180   9.691   8.407  0.6099  0.8420 -1.2430
26502SOL     OW91564   8.302   8.496   3.080  0.5638 -0.1240  0.1887
26502SOL    HW191565   8.350   8.577   3.115  0.3729 -0.0820  0.3533
26502SOL    HW291566   8.291   8.430   3.154 -1.1258  0.5672  0.5752
26503SOL     OW91567   8.771   6.624   3.448 -0.7993  0.1000 -0.4208
26503SOL    HW191568   8.735   6.545   3.399  1.0368 -0.0217 -1.6446
26503SOL    HW291569   8.739   6.708   3.405  1.5715 -0.0008 -2.5067
26504SOL     OW91570   1.718   1.776   8.373 -0.3685  0.3328 -0.0593
26504SOL    HW191571   1.702   1.782   8.274 -0.6585  0.9970  0.0228
26504SOL    HW291572   1.776   1.697   8.393  2.0968  1.8155 -1.0627
26505SOL     OW91573   7.879   5.775   3.080  0.2118  0.0488 -0.0478
26505SOL    HW191574   7.888   5.866   3.039  0.0378  0.2108  0.2766
26505SOL    HW291575   7.905   5.779   3.176 -2.0584  0.2590  0.5865
26506SOL     OW91576   3.760   2.993   3.944  0.2570  0.2127 -0.2617
26506SOL    HW191577   3.718   3.030   3.861 -0.5903 -1.2819 -0.5156
26506SOL    HW291578   3.836   3.052   3.971  0.3108  0.9263 -1.8806
26507SOL     OW91579   3.085   0.544   7.573 -0.2230 -0.7547 -0.4671
26507SOL    HW191580   3.137   0.620   7.612  0.3723 -2.2787  1.8198
26507SOL    HW291581   3.032   0.577   7.495  2.7216  1.2486 -1.7491
26508SOL     OW91582   2.946   5.163   1.508  0.3661  0.3205 -0.1762
26508SOL    HW191583   2.854   5.172   1.471  0.0814  1.6691  0.8144
26508SOL    HW291584   3.009   5.219   1.455  0.9080 -1.7800 -1.7909
26509SOL     OW91585   7.347   8.337   3.156  0.3241  0.1779  0.6045
26509SOL    HW191586   7.264   8.288   3.183 -0.5213  1.7748  0.9724
26509SOL    HW291587   7.356   8.420   3.211  2.5194 -0.2877  1.0205
26510SOL     OW91588   0.458   4.419   0.314 -0.4827  0.1161 -0.0149
26510SOL    HW191589   0.414   4.366   0.243 -2.0877 -0.1385  1.1452
26510SOL    HW291590   0.456   4.368   0.400  1.4173  0.4200  0.2402
26511SOL     OW91591   3.479   1.368   0.577  0.4298 -0.4437  0.3102
26511SOL    HW191592   3.471   1.437   0.648 -1.2583 -1.8245  1.4831
26511SOL    HW291593   3.506   1.281   0.618 -0.2769 -1.1823 -0.7773
26512SOL     OW91594   0.625   7.559   1.369  0.2840  0.1544  0.0664
26512SOL    HW191595   0.542   7.566   1.314  0.4005  0.7296 -0.0452
26512SOL    HW291596   0.646   7.649   1.409  1.0266  0.0852 -0.1636
26513SOL     OW91597   7.449   2.740   9.374  0.3706  0.2303 -0.4161
26513SOL    HW191598   7.380   2.748   9.445 -0.2809 -0.5836 -0.9517
26513SOL    HW291599   7.528   2.798   9.397 -0.0002  0.2686  0.7617
26514SOL     OW91600   2.364   2.331  10.023  0.0481 -0.1889 -0.6199
26514SOL    HW191601   2.435   2.339  10.092 -0.3238 -1.4977 -0.0674
26514SOL    HW291602   2.274   2.328  10.067 -0.3154  0.8104 -1.2711
26515SOL     OW91603   4.513   2.378   6.681 -0.0199 -0.2092 -0.0417
26515SOL    HW191604   4.482   2.451   6.742  0.8997 -0.9997  1.4182
26515SOL    HW291605   4.595   2.408   6.632  0.0732 -0.0740  0.1929
26516SOL     OW91606   1.830   2.352   4.399  1.1109 -0.3472  0.1438
26516SOL    HW191607   1.799   2.264   4.435  0.3581  0.2638  1.0138
26516SOL    HW291608   1.829   2.421   4.472 -0.8081  1.0003 -1.1037
26517SOL     OW91609   9.836   4.081   1.650 -0.6687  0.6771 -0.2029
26517SOL    HW191610   9.775   4.104   1.574  0.9271 -0.9327 -2.0214
26517SOL    HW291611   9.912   4.147   1.653  0.9780 -1.0600 -2.0388
26518SOL     OW91612   1.226   6.992   1.029 -0.5796 -0.0297  0.0929
26518SOL    HW191613   1.237   6.962   1.124  1.1094 -0.9297 -0.3659
26518SOL    HW291614   1.232   6.913   0.968  1.2728  0.8633 -0.9512
26519SOL     OW91615   3.073   2.257   6.366  0.0708 -0.2181 -0.0824
26519SOL    HW191616   3.073   2.298   6.457 -1.6885  2.6585 -1.3176
26519SOL    HW291617   3.015   2.175   6.367 -1.2207  0.6796  1.0191
26520SOL     OW91618   2.208   0.699   4.596  0.3410 -0.4008 -0.4937
26520SOL    HW191619   2.180   0.610   4.633  0.7092 -0.0124  0.7414
26520SOL    HW291620   2.131   0.741   4.548 -0.6241 -0.2282  1.1674
26521SOL     OW91621   1.762   5.921   6.166  0.5491 -0.2132  0.0044
26521SOL    HW191622   1.686   5.939   6.104  1.3995 -0.6282 -1.1763
26521SOL    HW291623   1.770   5.996   6.232 -0.4457  0.1654 -0.2977
26522SOL     OW91624   6.821   9.355   7.408 -0.2845 -0.0978 -0.1331
26522SOL    HW191625   6.825   9.446   7.449  3.2333  0.6524 -1.8798
26522SOL    HW291626   6.785   9.363   7.315 -1.7411 -0.7664  0.3747
26523SOL     OW91627   8.953   6.602   2.018  0.0017  0.9881 -0.0097
26523SOL    HW191628   8.970   6.512   2.057 -0.4654  1.6049  1.6272
26523SOL    HW291629   8.889   6.653   2.075  0.3203  2.3944 -0.8645
26524SOL     OW91630   6.705   1.078   6.189 -0.0919 -0.6898  0.6507
26524SOL    HW191631   6.706   1.161   6.245 -0.2284  0.4113 -0.9459
26524SOL    HW291632   6.611   1.047   6.175 -0.2762  0.5791 -1.1568
26525SOL     OW91633   2.148   1.321   7.884  0.1378 -0.0619  0.4351
26525SOL    HW191634   2.148   1.227   7.918  0.7131  0.2779  1.3952
26525SOL    HW291635   2.069   1.370   7.921  1.6857  0.8037  2.7506
26526SOL     OW91636   0.922   8.362   3.905 -0.7736 -0.3724  0.0832
26526SOL    HW191637   0.885   8.421   3.978  0.2307 -0.7112  0.8815
26526SOL    HW291638   1.021   8.354   3.917 -0.8760 -2.0763 -0.1369
26527SOL     OW91639   6.142   4.504   2.794  0.3237  0.0614 -0.1204
26527SOL    HW191640   6.194   4.419   2.789  1.4343  0.6860  0.6637
26527SOL    HW291641   6.163   4.560   2.714  1.1835  0.4882  0.3953
26528SOL     OW91642   3.259   5.551   2.987  0.1428  0.3227 -0.2934
26528SOL    HW191643   3.193   5.476   2.996 -1.4610  1.8021  0.7327
26528SOL    HW291644   3.348   5.515   2.961 -0.4315 -2.0043  0.8694
26529SOL     OW91645   8.035   6.266   8.153  0.5485  0.4665 -0.1419
26529SOL    HW191646   8.096   6.191   8.182 -1.2379 -0.6996  0.6753
26529SOL    HW291647   8.023   6.263   8.054 -0.8724 -1.4248  0.0542
26530SOL     OW91648   3.107   2.884   9.087  0.1876  0.7977  0.1484
26530SOL    HW191649   3.059   2.908   9.171 -1.8674  0.9313 -1.0293
26530SOL    HW291650   3.072   2.939   9.012  1.4534  0.1229 -0.9650
26531SOL     OW91651   0.534   1.084   7.785  0.0103 -0.5035 -0.0289
26531SOL    HW191652   0.527   1.181   7.764 -1.3051 -0.3856  0.8607
26531SOL    HW291653   0.443   1.043   7.782  0.7444 -2.0664 -1.9691
26532SOL     OW91654   9.558   7.394   5.974 -0.3143  0.0466  0.4086
26532SOL    HW191655   9.555   7.447   6.059 -1.0566 -0.8340  0.9455
26532SOL    HW291656   9.524   7.450   5.899 -1.9815  0.0524  1.1442
26533SOL     OW91657   0.542   2.781   7.279  0.4435 -0.1278 -0.2013
26533SOL    HW191658   0.579   2.757   7.368  1.1338 -0.1396 -0.4878
26533SOL    HW291659   0.460   2.836   7.290  0.2417 -0.5581  0.4430
26534SOL     OW91660   8.552   2.270   5.018  0.6743  0.3701  0.0518
26534SOL    HW191661   8.559   2.346   5.083  2.0836 -0.2257  0.6044
26534SOL    HW291662   8.573   2.184   5.064  3.7379  0.1463 -1.5701
26535SOL     OW91663   2.784   8.406   6.094 -0.5219 -0.5940 -0.9241
26535SOL    HW191664   2.807   8.489   6.044  0.0659  0.7448  1.4922
26535SOL    HW291665   2.686   8.406   6.116 -0.2422  0.2846  0.4413
26536SOL     OW91666   0.427   0.455   5.796 -0.2631 -0.4714  0.1314
26536SOL    HW191667   0.495   0.411   5.854 -0.6608 -0.3664  0.6801
26536SOL    HW291668   0.350   0.487   5.852  0.5524  2.0032 -0.0717
26537SOL     OW91669   6.923   9.367   3.728 -0.3445 -0.3241 -0.0445
26537SOL    HW191670   6.868   9.414   3.797  0.1174  0.4126 -0.1601
26537SOL    HW291671   6.877   9.284   3.697 -0.8155 -0.3500  0.7352
26538SOL     OW91672   8.206   8.483   5.556 -0.2297  0.0179  0.4981
26538SOL    HW191673   8.206   8.571   5.604 -4.4470  0.4682 -0.0910
26538SOL    HW291674   8.213   8.499   5.457  1.2452 -0.4687  0.5154
26539SOL     OW91675   3.893   8.085   6.226 -0.6934 -0.3610 -0.4022
26539SOL    HW191676   3.863   8.178   6.246 -0.4647 -0.1833 -0.8781
26539SOL    HW291677   3.938   8.083   6.136 -0.9959 -0.9907 -0.5427
26540SOL     OW91678   9.967   1.862   5.949 -0.4115  0.2557  0.6194
26540SOL    HW191679   9.882   1.838   5.994 -1.4052  0.7775 -0.9471
26540SOL    HW291680  10.044   1.824   6.000 -1.4998  0.8403  2.7368
26541SOL     OW91681   9.141   1.598   3.287  0.0643  0.3706 -0.7005
26541SOL    HW191682   9.204   1.559   3.354 -0.7405  0.8140  0.3253
26541SOL    HW291683   9.192   1.624   3.205  1.2719  0.9987  0.2288
26542SOL     OW91684   5.165   9.388   7.735  0.2174 -0.6032 -0.1040
26542SOL    HW191685   5.168   9.408   7.637  1.3398  2.4887  0.5028
26542SOL    HW291686   5.100   9.314   7.752 -0.3922 -0.8163 -3.1254
26543SOL     OW91687   2.328   1.893   5.542  0.0781  0.0602 -0.1094
26543SOL    HW191688   2.252   1.851   5.493 -1.4893  0.4236  1.9537
26543SOL    HW291689   2.392   1.932   5.476 -2.7934  1.9552 -1.9145
26544SOL     OW91690   4.512   5.024   1.571 -0.3224 -0.0940  0.6394
26544SOL    HW191691   4.537   5.050   1.478 -0.2234  1.5670  1.1270
26544SOL    HW291692   4.586   4.970   1.612  1.4292  2.6748  1.1990
26545SOL     OW91693   8.862   3.813   8.511 -0.2255  0.4810  0.2639
26545SOL    HW191694   8.872   3.903   8.554 -1.3248  0.9024 -0.3505
26545SOL    HW291695   8.951   3.782   8.478  0.2707  1.0592  1.0485
26546SOL     OW91696   3.191   8.383   7.766 -0.3086 -0.6963 -0.7988
26546SOL    HW191697   3.261   8.431   7.713 -1.3605 -1.4331 -2.9674
26546SOL    HW291698   3.167   8.298   7.719 -2.8573 -0.3134 -0.3015
26547SOL     OW91699   3.970   9.231   6.210  0.5662  0.4175 -0.0481
26547SOL    HW191700   3.981   9.308   6.273 -0.0383  1.2118 -0.9093
26547SOL    HW291701   4.012   9.253   6.122  1.4861 -0.7220  0.0798
26548SOL     OW91702   2.494   4.428   0.021 -0.6013 -0.3900 -0.6403
26548SOL    HW191703   2.592   4.431   0.003 -1.0576  1.4521 -3.1006
26548SOL    HW291704   2.477   4.448   0.117  1.4003 -0.3930 -0.2679
26549SOL     OW91705   3.292   1.518   7.392 -0.4170  0.3532 -0.5546
26549SOL    HW191706   3.317   1.424   7.414  1.3111  0.8377 -0.4327
26549SOL    HW291707   3.246   1.560   7.471  0.1307  0.0733 -0.0841
26550SOL     OW91708   8.225   6.031   0.014  0.2828 -0.3334  0.4368
26550SOL    HW191709   8.127   6.012   0.002  0.5021 -0.4627 -1.2570
26550SOL    HW291710   8.278   5.955  -0.023  1.0308 -1.0594  2.8829
26551SOL     OW91711   2.660   5.529   0.624  0.3135 -0.2655 -0.1317
26551SOL    HW191712   2.591   5.487   0.682 -0.2015 -0.4297 -0.8590
26551SOL    HW291713   2.619   5.603   0.571  1.0264  0.6105  0.5180
26552SOL     OW91714   6.076   5.713   0.809 -0.3500 -0.1518  0.1951
26552SOL    HW191715   6.039   5.645   0.872  0.2620 -0.0420  0.6792
26552SOL    HW291716   6.008   5.733   0.738 -0.5664 -1.1897  0.1057
26553SOL     OW91717   1.435   2.617   6.216  0.5877  0.3168  0.4298
26553SOL    HW191718   1.513   2.656   6.265 -0.2177  0.1608  1.8760
26553SOL    HW291719   1.465   2.584   6.127  2.0876  0.6431  0.7965
26554SOL     OW91720   8.740   5.601   2.909  0.2097  0.2630  0.2215
26554SOL    HW191721   8.648   5.636   2.893  1.1463  2.4555 -0.5154
26554SOL    HW291722   8.786   5.587   2.821  0.3620 -1.5166  0.5559
26555SOL     OW91723   2.902   7.001   8.350  0.0238  0.0965 -0.2304
26555SOL    HW191724   2.981   6.950   8.386  0.4214  0.6408 -0.3339
26555SOL    HW291725   2.888   6.977   8.254 -0.2476 -0.3786 -0.0762
26556SOL     OW91726   2.009   9.510   2.810 -0.5402 -1.1331 -0.1716
26556SOL    HW191727   2.061   9.563   2.744 -1.2346  0.5828  0.6435
26556SOL    HW291728   2.053   9.515   2.900 -3.6793  2.8932  1.2667
26557SOL     OW91729   4.750   9.856   6.542 -0.1120  0.2904 -0.0227
26557SOL    HW191730   4.668   9.849   6.600  0.3493  0.5340  0.6571
26557SOL    HW291731   4.821   9.796   6.578  0.2319  0.5609 -0.2520
26558SOL     OW91732   7.651   3.078  10.042  0.2706  0.0381 -0.0801
26558SOL    HW191733   7.650   3.164   9.990 -1.6500  0.3016  0.3602
26558SOL    HW291734   7.588   3.086  10.119 -1.5715 -2.5322 -1.2782
26559SOL     OW91735   4.867   9.490   9.155 -0.1269 -0.5285 -0.1241
26559SOL    HW191736   4.874   9.559   9.227 -0.4442  0.4528 -1.0136
26559SOL    HW291737   4.786   9.509   9.099  1.6089  0.3399 -2.4053
26560SOL     OW91738   7.435   8.498   7.720 -0.7505  0.0290  0.3351
26560SOL    HW191739   7.524   8.476   7.680 -0.7737  0.1187  0.2319
26560SOL    HW291740   7.435   8.474   7.817 -0.2723  0.9587  0.5729
26561SOL     OW91741   3.708   1.943   3.819  0.3058 -0.2907 -0.3594
26561SOL    HW191742   3.679   2.034   3.847  1.0338  0.2245 -1.2644
26561SOL    HW291743   3.683   1.877   3.890  0.4581  0.7168  0.6494
26562SOL     OW91744   7.745   9.561   2.478 -0.6471  0.4974  0.1541
26562SOL    HW191745   7.821   9.497   2.466  0.1812  1.3487  0.7775
26562SOL    HW291746   7.737   9.586   2.574 -1.2033  1.0354 -0.0275
26563SOL     OW91747   3.547   9.684   7.955 -0.1231  0.5755  0.6212
26563SOL    HW191748   3.537   9.608   8.018  0.1600 -0.7878 -0.9268
26563SOL    HW291749   3.643   9.691   7.926 -0.7066 -0.6204 -1.7783
26564SOL     OW91750   9.371   5.343   8.538 -0.0561 -0.2669  0.3250
26564SOL    HW191751   9.331   5.258   8.573 -1.2108  0.4574  0.7886
26564SOL    HW291752   9.376   5.339   8.438 -0.9942 -0.4972  0.2799
26565SOL     OW91753   1.642   2.888   3.652  0.0170 -0.1341 -0.1151
26565SOL    HW191754   1.554   2.841   3.637 -0.1972  0.5596 -1.0865
26565SOL    HW291755   1.671   2.875   3.747 -0.4495 -1.5332 -0.1482
26566SOL     OW91756   5.782   3.260   0.214 -0.4453  0.2682 -0.4025
26566SOL    HW191757   5.709   3.264   0.146 -0.5366  3.0636 -0.1830
26566SOL    HW291758   5.773   3.336   0.278  1.1896 -0.8055  1.1621
26567SOL     OW91759   8.704   6.254   9.226 -0.3422  0.0972  0.5022
26567SOL    HW191760   8.660   6.175   9.183 -3.0318  1.8700 -0.1424
26567SOL    HW291761   8.769   6.295   9.162 -1.3623  0.3264 -0.4054
26568SOL     OW91762   9.373   1.278   5.532 -0.4206  0.2168  0.2643
26568SOL    HW191763   9.293   1.260   5.589  0.4538 -1.3741  1.0198
26568SOL    HW291764   9.448   1.311   5.590  0.3081 -0.9004 -0.0383
26569SOL     OW91765   8.133   8.008   7.681  0.5839 -0.2216 -0.2348
26569SOL    HW191766   8.229   7.989   7.702  1.4034  3.1119 -0.6686
26569SOL    HW291767   8.111   7.969   7.591  1.2336 -1.7439  0.2346
26570SOL     OW91768   1.447   3.980   4.530 -0.5337 -0.1910 -0.3401
26570SOL    HW191769   1.415   4.069   4.499  2.3387  1.4035  1.1545
26570SOL    HW291770   1.417   3.964   4.624  1.8770  0.7783  0.6359
26571SOL     OW91771   0.453   1.625   6.144  0.1892  0.4822  0.6451
26571SOL    HW191772   0.472   1.670   6.056  1.2043 -2.3066 -0.6247
26571SOL    HW291773   0.532   1.634   6.204  1.1176 -1.0542 -0.2857
26572SOL     OW91774   8.121   7.011   3.327 -0.4868 -1.1459  0.3063
26572SOL    HW191775   8.202   7.012   3.386  0.5277 -1.7588 -1.0324
26572SOL    HW291776   8.081   7.102   3.324  0.0463 -0.8776  1.1519
26573SOL     OW91777   9.008   9.005   8.977  0.3914 -0.4081  0.2633
26573SOL    HW191778   9.063   9.020   8.895  0.9043  0.6209  0.7900
26573SOL    HW291779   8.951   9.085   8.994 -0.2373 -0.9011  0.5209
26574SOL     OW91780   0.674   9.795   0.678 -0.3792 -0.0312 -0.2598
26574SOL    HW191781   0.607   9.783   0.751  1.1148  1.9262  1.5066
26574SOL    HW291782   0.636   9.762   0.592 -2.7557 -0.9948  1.1097
26575SOL     OW91783   2.301   0.286   9.911 -0.5059  1.3131 -0.1334
26575SOL    HW191784   2.219   0.253   9.865  1.3203 -1.9774 -1.1965
26575SOL    HW291785   2.352   0.346   9.849  0.0348 -0.0955 -1.0809
26576SOL     OW91786   7.630   8.685   5.505 -0.0664  0.0825  0.1360
26576SOL    HW191787   7.612   8.635   5.420 -1.3853 -0.9123  0.9767
26576SOL    HW291788   7.557   8.751   5.522 -0.4491 -0.5770  1.1083
26577SOL     OW91789   5.564   9.623   2.568 -0.4412  0.4227 -0.1856
26577SOL    HW191790   5.636   9.554   2.562  1.3827  2.2766 -0.1161
26577SOL    HW291791   5.545   9.643   2.664  0.2949  1.3002 -0.2208
26578SOL     OW91792   2.659   5.577   4.256 -0.5221 -0.4798  0.0038
26578SOL    HW191793   2.747   5.559   4.213  0.1162  1.1460  0.5786
26578SOL    HW291794   2.634   5.673   4.241 -1.1006 -0.3367  1.7824
26579SOL     OW91795   0.002   6.116   0.526 -0.1787  0.0221 -0.6525
26579SOL    HW191796  -0.022   6.060   0.447 -2.6590 -1.0183  0.7627
26579SOL    HW291797   0.076   6.072   0.576 -0.6437 -0.9047 -0.7581
26580SOL     OW91798   2.720   4.060   2.292  0.8847  0.4825  0.5018
26580SOL    HW191799   2.786   4.005   2.241  0.2245 -0.5284  0.7405
26580SOL    HW291800   2.750   4.156   2.291  1.9320  0.1611 -0.0684
26581SOL     OW91801   2.988   1.505   0.968  0.9587  0.3250 -0.0861
26581SOL    HW191802   2.888   1.507   0.964  0.9286  0.2050  0.5788
26581SOL    HW291803   3.021   1.584   1.021  1.2025  0.2054 -0.0589
26582SOL     OW91804   1.995   9.286   4.614  0.4140 -0.2849  0.3621
26582SOL    HW191805   2.069   9.347   4.643 -1.1505  0.8230  2.2133
26582SOL    HW291806   2.015   9.248   4.524  1.3227  3.1605 -0.9415
26583SOL     OW91807   6.817   3.650   1.295  0.0252  0.4652  0.3410
26583SOL    HW191808   6.758   3.649   1.214  1.6276  0.9249 -0.8425
26583SOL    HW291809   6.895   3.711   1.279  1.5469 -1.1700  1.3563
26584SOL     OW91810   6.075   4.907   0.122  0.4591  0.5520 -0.0529
26584SOL    HW191811   5.990   4.948   0.089  0.1094 -1.2100 -1.4271
26584SOL    HW291812   6.150   4.932   0.061  0.2990 -0.5876 -0.7275
26585SOL     OW91813   8.085   3.610   7.971 -0.7406 -0.1743  0.2664
26585SOL    HW191814   7.986   3.622   7.966 -0.5995  0.8637 -0.0424
26585SOL    HW291815   8.107   3.515   7.948 -1.6249 -0.2920 -0.1502
26586SOL     OW91816   6.990   7.909   4.310 -0.2649 -0.9084  0.3448
26586SOL    HW191817   6.958   7.815   4.321 -0.7329 -0.8553 -0.4494
26586SOL    HW291818   6.942   7.968   4.375 -0.6193 -1.0847  0.2467
26587SOL     OW91819   8.592   8.853   5.671  0.0055  0.6135  0.0231
26587SOL    HW191820   8.575   8.841   5.573 -0.5373 -1.4090  0.3309
26587SOL    HW291821   8.540   8.931   5.705 -1.1287  0.2909 -0.9622
26588SOL     OW91822   9.870   0.974   0.240  0.0887 -0.6181 -0.6125
26588SOL    HW191823   9.883   0.968   0.339  1.0443 -1.4661 -0.7860
26588SOL    HW291824   9.958   0.961   0.194 -0.0653  1.3374 -1.5319
26589SOL     OW91825   9.613   7.423   6.786  0.1495 -1.0311  0.1690
26589SOL    HW191826   9.711   7.443   6.790 -0.0683  0.0828  0.0911
26589SOL    HW291827   9.592   7.348   6.848  1.3685 -2.6177 -1.2713
26590SOL     OW91828   8.967   8.444   7.956 -0.2091 -0.7875  0.2565
26590SOL    HW191829   8.872   8.449   7.927 -0.1984  0.2995  0.3938
26590SOL    HW291830   9.025   8.420   7.878 -0.2811  1.2629 -0.4705
26591SOL     OW91831   2.828   7.034   6.680 -0.0504 -0.3676  0.8235
26591SOL    HW191832   2.738   7.075   6.697  0.3054  0.9414 -0.4062
26591SOL    HW291833   2.875   7.020   6.768 -1.1342 -0.3495  1.4201
26592SOL     OW91834   0.488   0.901   5.544  0.0845  0.4795  0.0175
26592SOL    HW191835   0.553   0.967   5.507 -0.6816  0.9953 -0.4157
26592SOL    HW291836   0.442   0.854   5.469 -0.2784  0.3573  0.3167
26593SOL     OW91837   8.282   1.481   5.157  0.3561  0.0494  0.2891
26593SOL    HW191838   8.381   1.471   5.145  0.1166 -2.1540 -0.0491
26593SOL    HW291839   8.237   1.472   5.068 -0.0870  2.2014  0.2721
26594SOL     OW91840   6.140   8.057   6.411  0.2442  0.3823  0.1154
26594SOL    HW191841   6.109   7.966   6.439  3.0557  0.4138  3.7081
26594SOL    HW291842   6.063   8.122   6.416 -1.3836 -1.4331 -0.8929
26595SOL     OW91843   3.253   1.571   5.469 -0.7460  0.0425 -0.2686
26595SOL    HW191844   3.263   1.480   5.429 -0.9482 -0.2129  0.2641
26595SOL    HW291845   3.240   1.638   5.396  1.7220 -0.0314 -0.8254
26596SOL     OW91846   2.114   9.216   3.583 -0.0760  0.2627 -0.0317
26596SOL    HW191847   2.209   9.200   3.558  0.4616  1.5521  1.1169
26596SOL    HW291848   2.059   9.228   3.500  0.2518 -3.0411 -0.8007
26597SOL     OW91849   9.920   0.403   0.897 -0.0569  0.2213 -0.1706
26597SOL    HW191850   9.827   0.427   0.871  0.0101 -0.8069 -1.3513
26597SOL    HW291851   9.983   0.473   0.864 -0.0919 -0.5352 -1.8539
26598SOL     OW91852   1.357   4.250   5.777  0.3202  0.6681  0.2388
26598SOL    HW191853   1.320   4.285   5.691 -1.5791  0.1340  0.8062
26598SOL    HW291854   1.432   4.309   5.808  0.8428  1.0177 -1.6225
26599SOL     OW91855   9.603   2.761   0.255  0.1384  0.5412 -0.2288
26599SOL    HW191856   9.583   2.679   0.202 -1.1045 -0.4509  1.7327
26599SOL    HW291857   9.644   2.830   0.195 -2.3270 -0.1038 -2.7588
26600SOL     OW91858   0.586   2.378   0.340 -0.3975 -0.2896  0.2737
26600SOL    HW191859   0.522   2.428   0.283  0.3799  1.2524  0.7376
26600SOL    HW291860   0.563   2.392   0.436 -0.0928 -0.7163  0.4119
26601SOL     OW91861   4.393   8.114   4.672 -0.0404  0.0785 -0.7517
26601SOL    HW191862   4.462   8.090   4.740  0.4028  0.5689 -1.0238
26601SOL    HW291863   4.312   8.150   4.718 -0.5345 -1.4917 -0.3717
26602SOL     OW91864   6.291   7.547   8.264 -0.1565  0.1460 -1.1201
26602SOL    HW191865   6.365   7.557   8.330 -1.0431 -0.6364  0.0112
26602SOL    HW291866   6.226   7.622   8.274 -0.0674  0.2663 -1.4107
26603SOL     OW91867   2.353   4.087   6.741  0.5687  0.5867 -0.1145
26603SOL    HW191868   2.415   4.166   6.737  1.1401  0.0665 -2.1912
26603SOL    HW291869   2.407   4.004   6.757  0.3869  0.1731 -1.6150
26604SOL     OW91870   1.867   5.219   8.917 -0.2761 -0.2025  0.4199
26604SOL    HW191871   1.876   5.123   8.888  1.3894  0.4058 -1.1455
26604SOL    HW291872   1.865   5.278   8.836  4.7461  1.5788  1.4171
26605SOL     OW91873   2.619   0.678   7.701  0.4246 -0.5866 -0.0313
26605SOL    HW191874   2.699   0.728   7.734 -1.3667  1.1823  1.7703
26605SOL    HW291875   2.536   0.718   7.741 -1.5739 -0.8228 -3.6956
26606SOL     OW91876   2.123   4.347   3.660 -0.0605  0.1237  0.3708
26606SOL    HW191877   2.155   4.354   3.754 -1.6610  0.6153  0.9054
26606SOL    HW291878   2.139   4.434   3.612  1.2113 -0.2895  0.0210
26607SOL     OW91879   1.509   4.567   3.096 -0.1845  0.5627  0.4018
26607SOL    HW191880   1.416   4.559   3.061 -0.6993  0.0011  1.8597
26607SOL    HW291881   1.560   4.484   3.075 -0.2240  0.5817  0.2277
26608SOL     OW91882   2.611   6.076   2.208 -0.1117 -0.3798  0.1865
26608SOL    HW191883   2.660   6.054   2.123  1.9312 -1.6907  1.6578
26608SOL    HW291884   2.565   5.993   2.241  1.2421 -0.5427  1.6993
26609SOL     OW91885   4.539   3.051   7.535  0.5876 -0.2838 -0.0895
26609SOL    HW191886   4.592   3.118   7.483  0.5472 -0.0474  0.1705
26609SOL    HW291887   4.462   3.020   7.480  0.9393 -0.5582 -0.4334
26610SOL     OW91888   8.670   8.512   6.172 -0.7734 -0.4181  0.2166
26610SOL    HW191889   8.594   8.449   6.186 -0.1812 -0.8150  1.7632
26610SOL    HW291890   8.727   8.479   6.097 -2.3948  0.1669 -1.3050
26611SOL     OW91891   3.643   3.084   6.958 -0.4924  0.3487  0.1790
26611SOL    HW191892   3.584   3.132   6.894 -0.3297 -0.2239 -0.4094
26611SOL    HW291893   3.662   2.992   6.923 -0.5642 -0.0406  1.1410
26612SOL     OW91894   8.237   0.387   4.841 -0.3845  0.2308 -0.3600
26612SOL    HW191895   8.235   0.486   4.853 -1.4661  0.2237 -0.4642
26612SOL    HW291896   8.144   0.353   4.825  0.0682 -0.7144 -1.0089
26613SOL     OW91897   2.381   9.516   2.022  0.2550  0.0086  0.6020
26613SOL    HW191898   2.395   9.447   2.093  2.0495 -0.2744  0.0140
26613SOL    HW291899   2.456   9.511   1.956 -1.0359  0.7098 -0.9533
26614SOL     OW91900   9.137   1.969   1.274  0.3755  0.5200 -0.7500
26614SOL    HW191901   9.109   1.982   1.370 -0.0074 -0.5421 -0.7089
26614SOL    HW291902   9.094   2.039   1.217 -0.1678  0.5735 -0.2823
26615SOL     OW91903   9.448   2.861   8.716 -0.6393  0.0636  0.3720
26615SOL    HW191904   9.504   2.917   8.778 -1.3275  0.8474  0.3017
26615SOL    HW291905   9.411   2.920   8.644 -0.4474 -0.7091 -0.3633
26616SOL     OW91906   0.384   6.349   4.584 -0.0564  0.4104  0.0749
26616SOL    HW191907   0.393   6.424   4.651 -0.7697 -0.1157  0.7698
26616SOL    HW291908   0.297   6.358   4.537  0.2015  0.4547 -0.3989
26617SOL     OW91909   6.810   0.644   8.606  0.2243  0.4074  0.2242
26617SOL    HW191910   6.892   0.701   8.606 -0.0959  0.8792  0.3627
26617SOL    HW291911   6.757   0.662   8.523  0.4960 -0.2401 -0.0868
26618SOL     OW91912   7.497   1.677   2.910  0.0167 -0.6214 -0.1307
26618SOL    HW191913   7.476   1.664   3.007  0.2355 -0.4036 -0.0542
26618SOL    HW291914   7.548   1.762   2.897 -1.3209  0.1236 -0.6282
26619SOL     OW91915   9.970   7.021   9.653 -0.3854  0.7135 -0.1222
26619SOL    HW191916   9.901   6.988   9.717 -0.8033  2.4100  0.3246
26619SOL    HW291917   9.992   6.948   9.587 -0.9195 -0.5893  1.1176
26620SOL     OW91918   0.224   5.084   3.928 -0.0471 -0.6320  0.1336
26620SOL    HW191919   0.224   5.113   4.024 -0.9059  0.2282 -0.1239
26620SOL    HW291920   0.133   5.052   3.903 -0.5111  1.6222 -1.1316
26621SOL     OW91921   0.512   8.425   3.050  0.0157  0.4383 -0.1590
26621SOL    HW191922   0.428   8.390   3.007 -0.4665  3.8403 -2.1428
26621SOL    HW291923   0.505   8.524   3.061  3.7873  0.7981 -0.3283
26622SOL     OW91924   6.521   1.469   4.925 -0.4075 -0.0653 -0.1466
26622SOL    HW191925   6.529   1.501   4.831  1.4811 -0.6347 -0.2000
26622SOL    HW291926   6.589   1.398   4.943 -0.5065  0.2618  1.7272
26623SOL     OW91927   2.222   4.583   1.745 -0.3295  0.3191  0.1626
26623SOL    HW191928   2.243   4.537   1.832  0.6741 -0.5808 -0.5536
26623SOL    HW291929   2.156   4.529   1.694 -1.3499  1.1292  0.5962
26624SOL     OW91930   1.698   0.650   5.825 -0.1182 -0.0569  0.0374
26624SOL    HW191931   1.622   0.586   5.817 -1.1514  1.0853  0.6842
26624SOL    HW291932   1.677   0.735   5.777 -0.2450  1.1583  2.1638
26625SOL     OW91933   0.021   4.764   6.371  0.0451 -0.6871  0.3666
26625SOL    HW191934   0.118   4.742   6.383 -0.1953 -1.1827  1.4500
26625SOL    HW291935  -0.035   4.699   6.421 -0.8949 -0.8900 -0.9140
26626SOL     OW91936   5.629   7.368   2.998 -0.3092 -0.4172  0.5724
26626SOL    HW191937   5.635   7.304   3.075 -1.6181 -1.5975 -0.2906
26626SOL    HW291938   5.668   7.456   3.025  1.0419 -1.4121  1.9439
26627SOL     OW91939   3.730   8.075   0.615 -0.1060  0.5826 -0.2417
26627SOL    HW191940   3.667   8.115   0.682  0.4390 -0.5472  0.9703
26627SOL    HW291941   3.807   8.136   0.600 -0.1316  0.7577  0.3270
26628SOL     OW91942   1.957   3.590   5.577 -0.2316 -0.1165 -0.2225
26628SOL    HW191943   1.874   3.644   5.565  0.6815  0.9908 -1.7546
26628SOL    HW291944   2.025   3.644   5.626 -0.8077 -1.4452  2.0861
26629SOL     OW91945   2.174   2.260   1.530 -0.8687  0.4761 -0.3639
26629SOL    HW191946   2.185   2.303   1.620  0.5775  1.8669 -1.1768
26629SOL    HW291947   2.216   2.170   1.530  0.7714  1.2355 -0.1751
26630SOL     OW91948   4.648   2.876   2.213 -0.2430 -0.1249  0.3208
26630SOL    HW191949   4.604   2.863   2.301 -0.9702  0.7162  0.0928
26630SOL    HW291950   4.589   2.839   2.141  0.1607 -0.4453  0.1582
26631SOL     OW91951   9.931   3.405   8.117 -0.1035 -0.1492  0.6969
26631SOL    HW191952   9.849   3.426   8.065 -0.5284 -1.7297  0.7017
26631SOL    HW291953  10.004   3.378   8.054  0.2562  0.7351  0.7293
26632SOL     OW91954   4.027   5.957   3.175  0.6263  0.0982 -0.8040
26632SOL    HW191955   3.994   6.038   3.224 -0.7045 -1.2559  0.6291
26632SOL    HW291956   4.109   5.922   3.220  0.9719  0.4324 -1.1798
26633SOL     OW91957   0.307   1.346   6.661 -0.3150  0.2603  0.0112
26633SOL    HW191958   0.289   1.381   6.569  0.0438 -0.6181 -0.3951
26633SOL    HW291959   0.313   1.423   6.725  0.1417  0.9213 -0.8162
26634SOL     OW91960   3.795   0.853   4.131 -0.8472 -0.2109  0.3039
26634SOL    HW191961   3.754   0.764   4.147 -2.4425  0.7807  1.8268
26634SOL    HW291962   3.742   0.902   4.061 -0.3937 -0.1635 -0.0106
26635SOL     OW91963   7.249   3.648   9.998  0.1064  0.0347 -0.1759
26635SOL    HW191964   7.277   3.705  10.075 -0.1852  0.2935 -0.2573
26635SOL    HW291965   7.260   3.552  10.022 -1.0009  0.0798  0.5979
26636SOL     OW91966   7.213   6.871   6.234 -0.2322  0.5556  0.9447
26636SOL    HW191967   7.122   6.844   6.265  0.4080 -1.4581  1.1787
26636SOL    HW291968   7.254   6.933   6.300 -0.8311  0.2462  1.6184
26637SOL     OW91969   1.706   0.713   0.040  0.1052  0.0566  0.4704
26637SOL    HW191970   1.631   0.653   0.065 -0.4342  0.1482 -0.8995
26637SOL    HW291971   1.777   0.708   0.111 -0.4108 -1.3408  0.9113
26638SOL     OW91972   0.854   9.903   3.131 -0.4254  0.9280 -0.1798
26638SOL    HW191973   0.788   9.827   3.137 -1.6633  2.0439  0.5282
26638SOL    HW291974   0.812   9.980   3.083  1.8796  0.0869 -3.6862
26639SOL     OW91975   2.207   4.655   5.421 -0.4755 -0.0161  0.0231
26639SOL    HW191976   2.259   4.627   5.502 -3.4830  1.9780  2.7553
26639SOL    HW291977   2.202   4.755   5.417 -2.4567 -0.1383 -1.2545
26640SOL     OW91978   5.334   7.029   5.286  0.1604  0.5521 -0.3254
26640SOL    HW191979   5.386   6.951   5.321  0.4177  0.7734 -0.2130
26640SOL    HW291980   5.280   7.068   5.361 -2.6662 -1.6247 -1.1070
26641SOL     OW91981   3.882   0.213   3.566  0.6611 -1.0132 -0.6495
26641SOL    HW191982   3.801   0.167   3.531 -0.3095  1.1533 -1.3386
26641SOL    HW291983   3.964   0.164   3.535 -0.2919 -1.3505 -2.7203
26642SOL     OW91984   2.053   4.177   7.485 -0.0542 -0.0327  0.6001
26642SOL    HW191985   1.984   4.235   7.441 -0.6812 -0.3376  1.1872
26642SOL    HW291986   2.060   4.201   7.582 -0.6404 -1.2538  0.9432
26643SOL     OW91987   0.079   6.850   3.815 -0.0356 -0.1791 -0.0616
26643SOL    HW191988   0.118   6.758   3.809 -0.4970 -0.4792  1.3528
26643SOL    HW291989   0.149   6.917   3.790  1.3870 -0.7280  2.2766
26644SOL     OW91990   8.681   3.737   0.404  0.1101 -0.5651  0.0286
26644SOL    HW191991   8.598   3.780   0.438  0.6601 -0.1088  0.8090
26644SOL    HW291992   8.720   3.794   0.331  0.1360 -0.4020  0.1698
26645SOL     OW91993   9.932   0.790   9.226  0.1251  0.2132 -0.1853
26645SOL    HW191994   9.969   0.806   9.317  1.3423 -3.5599  0.0762
26645SOL    HW291995   9.838   0.756   9.235  1.7316 -4.5156  0.0334
26646SOL     OW91996   2.901   1.434   0.278 -0.3967  0.0036  0.0160
26646SOL    HW191997   2.922   1.493   0.199 -1.1350 -0.3652 -0.4665
26646SOL    HW291998   2.935   1.342   0.261  0.4444  0.2012  0.6203
26647SOL     OW91999   1.634   4.663   0.591 -0.1733  0.3829  0.3867
26647SOL    HW192000   1.688   4.579   0.596  3.4298  2.4278 -1.7061
26647SOL    HW292001   1.577   4.661   0.509 -1.4829 -0.7584  1.3087
26648SOL     OW92002   0.092   4.686   0.184 -1.0418  0.0047 -0.3524
26648SOL    HW192003   0.064   4.694   0.088 -2.7734  0.5626  0.1660
26648SOL    HW292004   0.085   4.590   0.213  1.6391 -0.5423 -1.3767
26649SOL     OW92005   9.891   5.814   5.691 -0.2635 -0.1597 -0.4373
26649SOL    HW192006   9.880   5.796   5.593  1.9378  1.0361 -0.9207
26649SOL    HW292007   9.952   5.746   5.731  0.0264  0.2468 -0.1897
26650SOL     OW92008   2.654   6.237   5.958 -0.6124 -0.4789 -0.1495
26650SOL    HW192009   2.573   6.290   5.934 -0.6760 -0.0395  0.9833
26650SOL    HW292010   2.689   6.268   6.047  1.9076  0.6360 -1.4851
26651SOL     OW92011   9.370   6.591   8.353 -0.2250  0.1215 -0.7054
26651SOL    HW192012   9.421   6.626   8.274  0.3119 -0.4566 -0.6218
26651SOL    HW292013   9.434   6.574   8.428 -0.7073  0.5011 -0.1990
26652SOL     OW92014   7.141   2.440   9.926 -0.0914 -0.2181 -0.1206
26652SOL    HW192015   7.072   2.390   9.874  0.5799 -0.3252 -0.9391
26652SOL    HW292016   7.232   2.403   9.904  0.1943 -0.3153  1.2045
26653SOL     OW92017   7.536   4.508   9.713  0.2401  0.6375  0.5919
26653SOL    HW192018   7.561   4.475   9.622 -0.4962  1.0952  0.2287
26653SOL    HW292019   7.496   4.432   9.766 -0.8430  0.7782 -0.0199
26654SOL     OW92020   3.774   6.701   6.603  0.7707 -0.0542  0.1885
26654SOL    HW192021   3.869   6.729   6.593  1.1704 -1.6668 -0.5910
26654SOL    HW292022   3.766   6.636   6.678  0.3315 -0.1748  0.0411
26655SOL     OW92023   4.376   4.071   2.274  0.0299  0.0732 -0.0811
26655SOL    HW192024   4.361   4.132   2.352  0.8656 -0.2525  0.3488
26655SOL    HW292025   4.435   4.117   2.207 -0.7832  0.3968 -0.5814
26656SOL     OW92026   2.033   0.677   1.080 -0.8293  0.1275 -0.6103
26656SOL    HW192027   1.974   0.668   1.000 -2.9638  0.3388  0.9078
26656SOL    HW292028   2.030   0.771   1.114 -0.0784  0.0007 -0.1694
26657SOL     OW92029   0.387   1.077   6.986  0.0365  0.8359 -0.0476
26657SOL    HW192030   0.389   1.160   7.041 -2.6282  0.2277  1.0843
26657SOL    HW292031   0.300   1.073   6.936  0.5278 -0.8118 -0.7909
26658SOL     OW92032   3.522   6.727   9.716  0.4926 -0.7003  0.6716
26658SOL    HW192033   3.616   6.751   9.693  0.6230 -1.8186  0.0285
26658SOL    HW292034   3.490   6.787   9.789  1.3065  0.4597  0.1006
26659SOL     OW92035   5.236   0.069   8.320 -0.3952  0.0551  0.1888
26659SOL    HW192036   5.334   0.066   8.341 -0.0572  1.0643 -1.1696
26659SOL    HW292037   5.193  -0.016   8.348  1.3625 -1.4273 -1.4849
26660SOL     OW92038   1.880   9.715   6.655 -0.0786  0.3384 -0.0453
26660SOL    HW192039   1.919   9.716   6.564  0.9646  1.0927  0.4037
26660SOL    HW292040   1.943   9.758   6.720  0.2372 -2.2492  1.4579
26661SOL     OW92041   3.251   3.059   6.892 -0.1594  0.1402  0.3842
26661SOL    HW192042   3.285   3.065   6.798  0.2432  0.5854  0.5556
26661SOL    HW292043   3.248   3.150   6.932 -0.0251 -0.0848  0.9127
26662SOL     OW92044   4.588   4.182   6.868  0.7550  0.3741 -0.1356
26662SOL    HW192045   4.514   4.233   6.911 -0.2133 -0.1035 -1.2354
26662SOL    HW292046   4.553   4.128   6.791  2.5048  1.5239 -1.8126
26663SOL     OW92047   3.934   7.746   5.604  0.2397  0.1043  0.3869
26663SOL    HW192048   3.962   7.837   5.574 -0.8534  0.4700  0.4770
26663SOL    HW292049   3.925   7.744   5.703 -0.0201 -0.0268  0.3612
26664SOL     OW92050   7.221   1.126   5.253  0.0563 -0.2484 -0.1202
26664SOL    HW192051   7.122   1.115   5.248 -0.0165  0.3520 -0.0696
26664SOL    HW292052   7.265   1.036   5.263 -0.2963 -0.8087 -3.1249
26665SOL     OW92053   7.338   3.216   0.696 -0.2433  0.2566  0.3127
26665SOL    HW192054   7.352   3.200   0.794  3.5066 -2.7718 -0.5913
26665SOL    HW292055   7.426   3.237   0.654 -1.5214 -0.2353 -2.6810
26666SOL     OW92056   0.277   3.186   7.181 -0.4481  0.4461 -0.4180
26666SOL    HW192057   0.191   3.237   7.176 -1.5533 -1.1751  1.3307
26666SOL    HW292058   0.294   3.142   7.093 -2.4032 -0.7642 -0.2261
26667SOL     OW92059   3.773   6.432   0.228  0.2087 -0.2350 -0.3672
26667SOL    HW192060   3.776   6.527   0.199  0.2714 -0.4566 -1.1014
26667SOL    HW292061   3.805   6.424   0.322  0.6915  0.4013 -0.4789
26668SOL     OW92062   4.176   5.013   8.374 -0.7081  0.0082 -0.2404
26668SOL    HW192063   4.088   4.970   8.395 -0.1943 -0.3094  1.2957
26668SOL    HW292064   4.185   5.098   8.426 -0.0724 -0.0148 -0.3065
26669SOL     OW92065   4.409   2.596   6.824  0.0784 -0.1601 -0.6517
26669SOL    HW192066   4.353   2.673   6.795 -0.8816 -1.6139 -2.7840
26669SOL    HW292067   4.359   2.542   6.892  0.2512  0.3841 -0.0875
26670SOL     OW92068   6.542   7.304   5.235  0.4450 -0.4256  0.0414
26670SOL    HW192069   6.615   7.326   5.170  1.1438 -0.0573  0.9513
26670SOL    HW292070   6.463   7.267   5.185  1.4710 -1.3896 -0.8788
26671SOL     OW92071   5.168   9.602   9.198  0.0965  0.4254  0.2388
26671SOL    HW192072   5.139   9.696   9.178  1.6913  0.7272 -0.7019
26671SOL    HW292073   5.124   9.540   9.133 -0.3669  0.6079  0.3777
26672SOL     OW92074   4.893   2.823   0.628 -0.4566 -0.1528 -0.0651
26672SOL    HW192075   4.865   2.846   0.721  0.7781  0.9475  0.0400
26672SOL    HW292076   4.988   2.849   0.614 -1.2913  1.8879 -2.3555
26673SOL     OW92077   4.686   3.315   8.450 -0.1296  0.1915 -0.5821
26673SOL    HW192078   4.763   3.255   8.470 -0.2549  0.4352  0.6443
26673SOL    HW292079   4.719   3.400   8.409  0.2248  0.1719 -0.3349
26674SOL     OW92080   7.709   4.386   9.517 -0.0612 -0.3764 -0.7511
26674SOL    HW192081   7.782   4.451   9.541 -0.6637  0.1567 -0.3583
26674SOL    HW292082   7.687   4.395   9.420 -0.0764 -0.0672 -0.7180
26675SOL     OW92083   0.483   4.938   8.930 -0.0012 -0.1243 -0.0622
26675SOL    HW192084   0.390   4.903   8.921 -0.9837  1.7897  2.1167
26675SOL    HW292085   0.520   4.913   9.019  1.2049  0.0074 -0.5110
26676SOL     OW92086   4.013   9.487   7.750  0.1832  0.2346 -0.4288
26676SOL    HW192087   4.097   9.508   7.700 -0.2025  1.6533 -0.5310
26676SOL    HW292088   4.035   9.434   7.832  1.0452 -0.3571 -1.0300
26677SOL     OW92089   4.788   0.370   5.633  0.3051  0.8105 -1.0225
26677SOL    HW192090   4.781   0.464   5.601 -0.6243  1.6928  1.6904
26677SOL    HW292091   4.868   0.360   5.692 -0.6198  0.3430  0.1661
26678SOL     OW92092   0.880   6.723   2.092 -0.6245  0.2316 -0.3558
26678SOL    HW192093   0.938   6.645   2.114 -2.5118 -1.1672 -0.2278
26678SOL    HW292094   0.904   6.800   2.152  0.6232 -0.5355  0.1577
26679SOL     OW92095   3.972   9.183   3.986 -0.0754 -0.4270  0.0873
26679SOL    HW192096   3.918   9.249   3.933  0.6289  0.3120  0.2826
26679SOL    HW292097   3.967   9.205   4.083 -1.9131 -2.1886  0.4158
26680SOL     OW92098   7.496   3.724   9.625 -0.1713  0.0128  0.2796
26680SOL    HW192099   7.524   3.636   9.661  1.1838  0.5615  0.5981
26680SOL    HW292100   7.467   3.784   9.699 -0.3651  0.0969  0.1381
26681SOL     OW92101   3.155   7.492   7.826 -0.3242 -0.0278 -0.1668
26681SOL    HW192102   3.222   7.566   7.812 -0.7273 -0.0183 -2.3244
26681SOL    HW292103   3.169   7.450   7.915  0.4820  2.0889  0.7249
26682SOL     OW92104   2.265   3.707   0.654 -0.5057 -0.5386  0.1544
26682SOL    HW192105   2.328   3.780   0.625 -0.6557 -0.0979  0.9307
26682SOL    HW292106   2.315   3.640   0.708 -0.8167  0.1421  1.3163
26683SOL     OW92107   7.377   8.375   2.623 -0.4471  0.9401 -0.5075
26683SOL    HW192108   7.367   8.281   2.591 -0.9829  1.0681 -0.7257
26683SOL    HW292109   7.332   8.385   2.711  0.3092  0.7922 -0.0971
26684SOL     OW92110   9.893   5.114   1.843 -0.8490 -0.0515 -0.1343
26684SOL    HW192111   9.911   5.168   1.761  2.1614 -1.7284 -0.6532
26684SOL    HW292112   9.862   5.023   1.818 -0.0609 -0.5223  0.5825
26685SOL     OW92113   1.877   4.437   5.624 -0.1120 -0.4891  0.0738
26685SOL    HW192114   1.871   4.433   5.524  1.3767  1.3699 -0.1235
26685SOL    HW292115   1.948   4.373   5.655  1.0553  0.6100 -0.2795
26686SOL     OW92116   9.110   9.762   3.387  0.0170 -0.0672  0.3170
26686SOL    HW192117   9.039   9.714   3.438  1.0511  0.1418  2.0148
26686SOL    HW292118   9.197   9.714   3.397  0.3491  0.2640 -0.8384
26687SOL     OW92119   3.370   2.453   0.150 -0.0318 -0.0529  0.2059
26687SOL    HW192120   3.330   2.521   0.089  0.5802 -0.1234 -0.2767
26687SOL    HW292121   3.298   2.398   0.191 -0.5215  0.7701  0.4606
26688SOL     OW92122   2.224   3.704   4.694 -0.1914 -0.0660  0.5544
26688SOL    HW192123   2.193   3.798   4.680 -2.0288 -1.0656 -2.5818
26688SOL    HW292124   2.208   3.677   4.789 -0.9647  2.3030  1.1315
26689SOL     OW92125   4.703   8.235   1.182 -0.1063  0.4017  0.1134
26689SOL    HW192126   4.800   8.216   1.165  0.0320  0.2053  1.0622
26689SOL    HW292127   4.648   8.196   1.109  0.3396 -1.8337  0.9208
26690SOL     OW92128   6.888   9.278   8.120  0.2378 -0.2738  0.1339
26690SOL    HW192129   6.893   9.276   8.220  1.7575 -2.2750  0.0634
26690SOL    HW292130   6.981   9.280   8.083 -0.1011 -4.2456 -1.2234
26691SOL     OW92131   7.824   1.932   4.470 -0.5533  0.0127 -0.6828
26691SOL    HW192132   7.906   1.877   4.485 -0.5343 -0.3313 -1.9916
26691SOL    HW292133   7.845   2.008   4.407 -0.7393  1.1324  0.5816
26692SOL     OW92134   8.553   4.042   5.889 -0.1861 -0.6884  0.2608
26692SOL    HW192135   8.645   4.064   5.857  0.0999  0.3664  1.7911
26692SOL    HW292136   8.558   3.986   5.971 -0.9244 -1.6393 -0.3258
26693SOL     OW92137   1.876   6.549   4.529  0.0957  0.0926 -0.4269
26693SOL    HW192138   1.858   6.478   4.460 -0.0770  0.9777 -1.3009
26693SOL    HW292139   1.974   6.558   4.543  0.1345 -0.0044 -0.6360
26694SOL     OW92140   9.356   9.240   1.013  0.6446  0.1874  0.3709
26694SOL    HW192141   9.418   9.261   0.937  1.6306 -1.5148  0.6941
26694SOL    HW292142   9.379   9.297   1.092  0.5014  0.9694 -0.1435
26695SOL     OW92143   0.395   6.867   4.862  0.2512  0.0386 -0.6510
26695SOL    HW192144   0.369   6.773   4.883  0.1597  0.3676  0.7936
26695SOL    HW292145   0.486   6.886   4.898  1.1032 -0.0800 -2.6963
26696SOL     OW92146   7.868   5.951   5.341  0.4550 -0.5493 -0.3660
26696SOL    HW192147   7.815   5.981   5.421  1.0979 -0.1719 -0.0846
26696SOL    HW292148   7.814   5.883   5.290 -0.9106  0.8624 -0.8669
26697SOL     OW92149   0.381   2.411   7.432  0.4857 -0.1581  0.2112
26697SOL    HW192150   0.377   2.451   7.523 -1.4198  2.1471 -0.8237
26697SOL    HW292151   0.292   2.418   7.387  1.1091 -2.1865 -1.4636
26698SOL     OW92152   9.464   6.089   4.737 -0.0679 -0.0200 -0.9846
26698SOL    HW192153   9.386   6.055   4.685  0.2848 -2.4174 -0.0181
26698SOL    HW292154   9.541   6.026   4.727  0.8134  0.8022  0.3899
26699SOL     OW92155   7.898   8.023   4.774  0.5032 -0.0672  0.0352
26699SOL    HW192156   7.914   8.094   4.705 -1.2146 -1.4363 -1.8245
26699SOL    HW292157   7.807   8.036   4.815  0.9676 -0.0641  1.0813
26700SOL     OW92158   8.109   7.347   5.152  0.8055  0.5377 -0.1070
26700SOL    HW192159   8.061   7.425   5.112 -0.8046 -1.6891 -2.6135
26700SOL    HW292160   8.207   7.356   5.135  0.5833  1.7498 -0.8161
26701SOL     OW92161   0.584   1.739   9.173 -0.1724  0.7637 -0.5548
26701SOL    HW192162   0.670   1.762   9.128  0.2997  0.2931  0.1015
26701SOL    HW292163   0.514   1.720   9.104  0.8928 -1.2301 -1.1121
26702SOL     OW92164   9.558   8.549   6.111  0.1861  0.5553  0.1057
26702SOL    HW192165   9.590   8.498   6.031  1.7519  1.3144  0.2236
26702SOL    HW292166   9.486   8.498   6.158  0.7413 -0.8580 -0.5823
26703SOL     OW92167   4.080   2.391   5.122 -0.4321 -0.1522 -0.0139
26703SOL    HW192168   4.038   2.300   5.111  0.0713 -0.3812 -0.0699
26703SOL    HW292169   4.144   2.406   5.047 -1.5296  0.8177 -0.7739
26704SOL     OW92170   1.093   2.272   4.874 -0.1327 -0.1315  0.1275
26704SOL    HW192171   1.039   2.356   4.871 -0.9320 -0.4632  3.1896
26704SOL    HW292172   1.034   2.193   4.863  0.4419 -0.3415 -1.4900
26705SOL     OW92173   8.523   0.825   8.525 -0.0762 -0.1106  0.4307
26705SOL    HW192174   8.568   0.840   8.613  2.0660  0.1470 -0.6755
26705SOL    HW292175   8.549   0.736   8.489 -1.9916 -0.7896  0.6347
26706SOL     OW92176   7.645   8.350   8.922  0.3422  0.5606 -0.5892
26706SOL    HW192177   7.556   8.368   8.964 -0.2096 -0.1488 -1.4442
26706SOL    HW292178   7.637   8.361   8.823  0.7138 -1.4648 -0.8597
26707SOL     OW92179   3.090   8.748   4.291 -0.1486 -0.8567 -0.1349
26707SOL    HW192180   3.021   8.782   4.356  0.2842  0.4342 -0.3542
26707SOL    HW292181   3.181   8.778   4.320 -0.1032  1.2251 -2.2808
26708SOL     OW92182   4.057   4.910   1.592  0.5317 -0.2667 -0.3489
26708SOL    HW192183   4.119   4.973   1.545 -2.0205  1.6893 -1.2370
26708SOL    HW292184   3.989   4.875   1.527 -0.1430 -1.2669  0.8679
26709SOL     OW92185   3.181   5.487   4.941 -0.1838 -0.2053 -0.4503
26709SOL    HW192186   3.257   5.457   4.884  0.4703  0.8367 -0.1484
26709SOL    HW292187   3.095   5.472   4.892  0.0791 -2.7868 -0.1968
26710SOL     OW92188   2.735   1.449   0.972 -0.1106  1.0106 -0.2496
26710SOL    HW192189   2.686   1.472   0.888 -1.6554  2.0641  0.9188
26710SOL    HW292190   2.686   1.375   1.019  0.4482  0.8002  0.0060
26711SOL     OW92191   0.993   9.966   2.447  0.2778 -0.0871 -0.0785
26711SOL    HW192192   1.057   9.941   2.374  1.2496  2.7553 -0.2838
26711SOL    HW292193   0.941   9.886   2.475  1.7074 -1.7842 -2.1135
26712SOL     OW92194   9.245   3.546   1.393  0.3765  0.3895 -0.1939
26712SOL    HW192195   9.270   3.457   1.355  0.8337  0.7710 -0.7956
26712SOL    HW292196   9.216   3.607   1.319 -1.4873  0.2417  0.3931
26713SOL     OW92197   9.482   0.553   4.476  0.0258 -0.2806 -0.0137
26713SOL    HW192198   9.491   0.551   4.376  0.2456  0.7287 -0.0121
26713SOL    HW292199   9.410   0.617   4.502  1.1621  0.7742  0.5577
26714SOL     OW92200   2.688   0.177   8.689  0.0437 -0.4451  0.7933
26714SOL    HW192201   2.665   0.181   8.592  0.4723  0.4242  0.7227
26714SOL    HW292202   2.724   0.087   8.712  0.5499 -0.4419  0.0093
26715SOL     OW92203   7.890   3.104   5.063  0.0576 -0.5808  0.5293
26715SOL    HW192204   7.967   3.106   5.127  1.0001 -1.2295 -0.5708
26715SOL    HW292205   7.900   3.026   5.001  0.4856  1.4375 -2.0182
26716SOL     OW92206   5.181   8.245   6.563 -0.3727  0.3003 -0.4839
26716SOL    HW192207   5.184   8.190   6.647  1.4123  0.7960 -0.2073
26716SOL    HW292208   5.185   8.185   6.484  0.6821 -0.0164 -0.1915
26717SOL     OW92209   0.611   0.822   9.439  0.0312  0.0855 -0.4317
26717SOL    HW192210   0.534   0.864   9.390 -0.2388 -0.1420 -0.2056
26717SOL    HW292211   0.672   0.778   9.373  1.8602  3.2826 -0.9629
26718SOL     OW92212   2.910   0.999   8.596 -0.3395 -0.2470  0.1652
26718SOL    HW192213   2.852   1.065   8.548 -1.0091 -0.7697  0.2539
26718SOL    HW292214   2.949   1.042   8.677 -1.3654 -0.1820  0.6277
26719SOL     OW92215   6.662   2.624   8.863 -0.5420 -0.1965  0.5157
26719SOL    HW192216   6.563   2.629   8.850 -0.4916  0.2106  0.2660
26719SOL    HW292217   6.704   2.579   8.785 -0.4045  0.7685  0.0280
26720SOL     OW92218   4.755   7.487   3.844 -0.1680  1.1589  0.3888
26720SOL    HW192219   4.790   7.431   3.919  0.9000  1.9818  0.5281
26720SOL    HW292220   4.762   7.436   3.758 -0.3121  0.6377  0.6880
26721SOL     OW92221   8.337   4.879   5.621  0.1190  0.0587 -0.4181
26721SOL    HW192222   8.361   4.961   5.673 -2.0671  1.0344 -0.9210
26721SOL    HW292223   8.239   4.863   5.628  0.5714 -2.7142 -0.0650
26722SOL     OW92224   6.607   0.802   3.597  0.2812  0.1355 -0.8527
26722SOL    HW192225   6.572   0.764   3.511 -2.0012  1.7144 -0.6773
26722SOL    HW292226   6.593   0.737   3.671 -2.3502  0.6814 -0.8051
26723SOL     OW92227   3.874   6.291   3.733  0.4270  0.0141 -0.5269
26723SOL    HW192228   3.907   6.229   3.804  3.6319  1.3903 -0.7388
26723SOL    HW292229   3.900   6.385   3.755 -2.3286  1.0525 -1.3806
26724SOL     OW92230   3.710   9.312   4.175  0.0031  0.3692 -0.2006
26724SOL    HW192231   3.761   9.311   4.089 -0.6306  1.2866 -0.5926
26724SOL    HW292232   3.678   9.220   4.195  3.1518 -0.5776  0.8689
26725SOL     OW92233   1.088   1.609   3.460 -0.1262  0.2663  0.0521
26725SOL    HW192234   1.125   1.549   3.388 -0.4439  0.0964  0.0323
26725SOL    HW292235   1.131   1.699   3.453 -1.4761  0.8109 -1.4966
26726SOL     OW92236   7.045   3.366   3.105  0.8420  0.1624 -0.2167
26726SOL    HW192237   7.095   3.294   3.153  0.9095  0.4848  0.1956
26726SOL    HW292238   7.064   3.455   3.147  0.8628  0.4401 -0.8063
26727SOL     OW92239   0.877   1.176   5.187  0.7314  0.0543  0.6436
26727SOL    HW192240   0.836   1.087   5.168  1.3176 -0.2852  0.9667
26727SOL    HW292241   0.806   1.241   5.212  0.5251 -0.8474  2.4310
26728SOL     OW92242   0.371   3.994   9.942 -0.0465 -0.3686 -0.1078
26728SOL    HW192243   0.279   3.979   9.979 -0.0058  1.3871  0.7677
26728SOL    HW292244   0.366   4.059   9.866  0.6190  0.6723  0.7332
26729SOL     OW92245   0.568   9.021   7.367 -0.5006 -0.2240 -0.1487
26729SOL    HW192246   0.657   9.014   7.322 -1.0621  2.4113 -1.8485
26729SOL    HW292247   0.577   9.001   7.464  2.0525  0.4837 -0.2054
26730SOL     OW92248   0.649   3.255   9.021  0.0414 -0.4402  0.1657
26730SOL    HW192249   0.653   3.155   9.020 -1.1426 -0.5028  1.0094
26730SOL    HW292250   0.620   3.288   8.931  0.6784 -0.8391 -0.1897
26731SOL     OW92251   5.138   9.933   2.488 -0.3773 -0.1524 -0.1128
26731SOL    HW192252   5.095  10.006   2.542 -0.0770 -0.4545  0.5435
26731SOL    HW292253   5.176   9.864   2.550  0.0429 -0.4635 -0.7136
26732SOL     OW92254   3.308   2.376   9.752 -0.0933  0.7284 -0.1878
26732SOL    HW192255   3.370   2.370   9.830 -0.2080 -0.8879 -0.2009
26732SOL    HW292256   3.256   2.461   9.757  0.7436  1.1883  0.8584
26733SOL     OW92257   5.159   3.234   6.147 -0.2683  0.0747  0.1919
26733SOL    HW192258   5.195   3.240   6.053  0.4947  2.3844  0.6114
26733SOL    HW292259   5.083   3.297   6.157 -1.0487 -0.9637  0.8394
26734SOL     OW92260   8.986   1.203   4.260  0.1810  0.0706  0.1345
26734SOL    HW192261   8.912   1.268   4.241 -0.3299 -0.3371  0.7333
26734SOL    HW292262   8.961   1.113   4.226  0.7039  0.0782 -0.2885
26735SOL     OW92263   3.574   4.374   7.141 -0.1680 -0.2413  0.3665
26735SOL    HW192264   3.514   4.364   7.220 -1.1059  1.7573 -0.0489
26735SOL    HW292265   3.642   4.301   7.140 -1.6595 -1.6706  1.6778
26736SOL     OW92266   6.872   0.160   6.523 -0.1355  0.3437 -0.3077
26736SOL    HW192267   6.777   0.181   6.498 -0.4177 -0.2520  0.2329
26736SOL    HW292268   6.916   0.242   6.559 -0.4301  0.6382 -0.6120
26737SOL     OW92269   2.865   2.303   0.273  0.1058  0.0467 -0.1436
26737SOL    HW192270   2.861   2.399   0.298 -0.3099  0.5692 -2.0718
26737SOL    HW292271   2.925   2.292   0.193  1.3455 -1.5170  0.9497
26738SOL     OW92272   7.380   6.632   0.436 -0.5340  0.0690  0.2218
26738SOL    HW192273   7.329   6.627   0.522 -1.9722 -2.2550 -0.7288
26738SOL    HW292274   7.476   6.611   0.453 -1.3056 -3.1260  0.8825
26739SOL     OW92275   0.390   8.200   7.236  0.2019 -0.3427  0.2536
26739SOL    HW192276   0.395   8.269   7.164  1.3375  0.2558  0.8910
26739SOL    HW292277   0.337   8.236   7.312  0.4021 -0.3443  0.3945
26740SOL     OW92278   1.818   3.589   4.769 -0.0630 -0.2146  0.2818
26740SOL    HW192279   1.883   3.611   4.843 -1.8605  0.4313  1.6982
26740SOL    HW292280   1.810   3.667   4.707  0.9061 -0.4936 -0.2046
26741SOL     OW92281   8.504   9.593   7.254 -0.0817 -0.1177  0.1190
26741SOL    HW192282   8.441   9.669   7.238  2.0286  1.5406 -0.5452
26741SOL    HW292283   8.581   9.624   7.309 -0.2349 -2.3304  1.6664
26742SOL     OW92284   2.030   7.008   4.360 -0.0631  0.0482 -0.3157
26742SOL    HW192285   1.960   7.027   4.429 -0.2373 -0.3407 -0.3828
26742SOL    HW292286   2.117   6.988   4.404  0.4388  2.2707 -0.2734
26743SOL     OW92287   7.760   5.583   6.351  0.1149  0.2289 -0.9142
26743SOL    HW192288   7.834   5.523   6.382  0.3463  0.6782 -0.5946
26743SOL    HW292289   7.686   5.582   6.418 -0.4723 -0.7617 -1.5684
26744SOL     OW92290   0.206   1.059   5.981 -0.6323 -0.2354  0.5189
26744SOL    HW192291   0.141   1.134   5.995 -1.2614 -0.4652 -1.1206
26744SOL    HW292292   0.289   1.077   6.034 -0.4146  2.0685 -0.5654
26745SOL     OW92293   7.184   2.572   0.645 -0.2239 -0.5937 -0.6754
26745SOL    HW192294   7.167   2.595   0.741 -1.4759 -1.2093 -0.7492
26745SOL    HW292295   7.131   2.633   0.586  1.5744  0.6859 -1.0329
26746SOL     OW92296   4.946   4.277   5.815 -0.2580  0.4186 -0.1389
26746SOL    HW192297   4.874   4.286   5.747  1.0999  1.6327 -1.4669
26746SOL    HW292298   4.987   4.186   5.809  0.4212  0.8011 -1.5604
26747SOL     OW92299   5.053   8.913   6.457 -0.2828  0.1954  0.1049
26747SOL    HW192300   5.115   8.971   6.510 -0.4643  0.5553 -0.0788
26747SOL    HW292301   4.963   8.912   6.500 -0.1795 -0.2408  0.3115
26748SOL     OW92302   2.805   0.365   6.088 -0.4300 -0.1711 -0.5966
26748SOL    HW192303   2.760   0.424   6.155 -1.2168  0.1028 -1.3611
26748SOL    HW292304   2.868   0.419   6.033 -1.1538 -0.0410 -1.2998
26749SOL     OW92305   2.075   0.863   5.440 -0.4692  0.7347  0.2122
26749SOL    HW192306   2.154   0.855   5.501  0.1215  0.1222 -0.6275
26749SOL    HW292307   2.106   0.883   5.347 -1.0147 -3.3053 -0.9474
26750SOL     OW92308   8.110   6.255   0.584 -0.0696  0.1165 -0.3196
26750SOL    HW192309   8.169   6.302   0.649 -1.0174  0.1565  0.5292
26750SOL    HW292310   8.077   6.169   0.625 -0.1088 -0.2004 -1.0136
26751SOL     OW92311   2.523   5.498   4.933  0.1057  0.0252 -0.4114
26751SOL    HW192312   2.440   5.460   4.892 -0.0632  0.7888 -0.8043
26751SOL    HW292313   2.504   5.591   4.965  0.2757 -0.5264  1.3046
26752SOL     OW92314   5.460   5.515   2.578 -0.1294  0.4185 -0.2150
26752SOL    HW192315   5.539   5.570   2.552 -0.1877  0.0386 -1.2019
26752SOL    HW292316   5.379   5.573   2.583  0.5690  1.2441  2.8982
26753SOL     OW92317   7.715   3.487   5.748 -0.4669  0.7200 -0.2026
26753SOL    HW192318   7.764   3.565   5.708 -0.3939  0.7141 -0.1236
26753SOL    HW292319   7.700   3.503   5.845 -1.7195  1.2936 -0.4740
26754SOL     OW92320   9.113   5.181   0.470 -0.2719 -0.3866  0.1688
26754SOL    HW192321   9.185   5.118   0.498 -0.1710 -0.5364 -0.4269
26754SOL    HW292322   9.085   5.162   0.376 -1.9894 -1.1591  0.8032
26755SOL     OW92323   9.681   8.862   1.956  0.4396  0.1020  0.0864
26755SOL    HW192324   9.671   8.795   1.883  0.2515  0.3539 -0.1211
26755SOL    HW292325   9.696   8.815   2.043  1.0711 -0.1869 -0.1809
26756SOL     OW92326   8.962   4.862   5.733 -0.0014  0.2372 -0.3440
26756SOL    HW192327   8.943   4.879   5.830  1.9735  0.4471  0.0304
26756SOL    HW292328   8.934   4.769   5.709  0.2280 -0.0931  0.6354
26757SOL     OW92329   8.369   0.440   3.567  0.0580  0.5352  0.2053
26757SOL    HW192330   8.447   0.499   3.587 -0.3255  0.9960  0.3246
26757SOL    HW292331   8.380   0.353   3.616 -0.6868  1.4971  2.1146
26758SOL     OW92332   4.034   0.814   7.411  0.2385 -0.0811  0.7332
26758SOL    HW192333   3.978   0.892   7.382  0.2201  0.3810  1.9577
26758SOL    HW292334   3.975   0.741   7.446  0.2865 -0.4393  0.0762
26759SOL     OW92335   2.703   1.578   1.383  0.0608  0.5348  0.4473
26759SOL    HW192336   2.653   1.601   1.299  0.5446  0.4360  0.1290
26759SOL    HW292337   2.652   1.611   1.462 -0.6538  0.1744  0.1413
26760SOL     OW92338   2.998   9.875   0.417  0.4980 -0.0020  0.0603
26760SOL    HW192339   2.952   9.882   0.329  0.5511 -0.5180 -0.0096
26760SOL    HW292340   3.087   9.831   0.405  0.0275 -1.1065  0.5355
26761SOL     OW92341   0.395   2.571   9.913  0.0401 -0.0029  0.4041
26761SOL    HW192342   0.348   2.490   9.948  0.4151 -0.7831 -0.8715
26761SOL    HW292343   0.455   2.545   9.838 -0.9699  1.6827 -1.0178
26762SOL     OW92344   2.113   8.341   9.322  0.0915 -0.1473  1.0429
26762SOL    HW192345   2.160   8.316   9.237  0.5648 -1.2757  1.6262
26762SOL    HW292346   2.176   8.335   9.399 -0.3192  0.9388  1.4731
26763SOL     OW92347   9.970   5.868   3.858 -0.1035  0.7300  0.1969
26763SOL    HW192348   9.908   5.802   3.816  1.5231 -0.0946 -0.9658
26763SOL    HW292349   9.946   5.960   3.830 -1.1993  0.4834  0.2937
26764SOL     OW92350   8.594   8.802   8.119 -0.3974  0.1614  0.4139
26764SOL    HW192351   8.635   8.713   8.138  0.5287  0.3478 -0.6636
26764SOL    HW292352   8.639   8.843   8.040 -2.1822  0.6883 -0.3732
26765SOL     OW92353   8.590   8.582   9.371  0.5000 -0.0701  0.7452
26765SOL    HW192354   8.657   8.520   9.330 -0.6989  0.5370 -2.2804
26765SOL    HW292355   8.592   8.669   9.321 -2.7080 -0.1356  0.4557
26766SOL     OW92356   3.566   0.827   2.259 -0.4254  0.6476  0.0638
26766SOL    HW192357   3.605   0.887   2.328 -0.5654 -0.4945  1.1373
26766SOL    HW292358   3.554   0.879   2.174  0.4919  1.8369  0.6386
26767SOL     OW92359   6.172   8.929   8.288 -0.0522  0.3963  1.0391
26767SOL    HW192360   6.095   8.895   8.234  0.1005  1.3493  0.2130
26767SOL    HW292361   6.137   8.988   8.361 -0.1188  0.7186  0.7494
26768SOL     OW92362   6.970   0.938   7.430 -0.2350 -0.3535 -0.6706
26768SOL    HW192363   6.899   0.960   7.496  0.0057  0.1818 -0.5902
26768SOL    HW292364   7.049   0.900   7.477  0.4840  1.3245 -0.4837
26769SOL     OW92365   0.587   1.896   2.201  0.7305 -0.8099  0.2752
26769SOL    HW192366   0.566   1.809   2.247 -1.8200  0.4026  1.5155
26769SOL    HW292367   0.624   1.960   2.268 -0.6066  0.1425  0.1178
26770SOL     OW92368   8.632   0.634   3.231 -0.3889 -0.9248  0.1584
26770SOL    HW192369   8.664   0.540   3.242  0.8213 -0.2473  2.7600
26770SOL    HW292370   8.710   0.695   3.214 -1.1086 -0.2982 -1.0172
26771SOL     OW92371   0.465   2.376   7.809  0.1101 -0.0612  0.0375
26771SOL    HW192372   0.407   2.296   7.798  0.3383 -0.5420  2.1057
26771SOL    HW292373   0.466   2.404   7.905  3.1949 -0.0106  0.0624
26772SOL     OW92374   9.940   7.474   5.909 -0.5998 -0.3779 -0.8219
26772SOL    HW192375   9.893   7.387   5.890 -1.0934 -0.6089  1.2553
26772SOL    HW292376  10.019   7.483   5.849 -2.1897 -0.8953 -3.0733
26773SOL     OW92377   2.133   8.744   3.065  0.0889 -0.7190  0.0709
26773SOL    HW192378   2.057   8.692   3.104 -1.0108  0.2953 -0.6813
26773SOL    HW292379   2.107   8.840   3.057  2.0152 -0.0692  1.2351
26774SOL     OW92380   5.306   6.319   9.797  0.0923  0.2598 -0.1374
26774SOL    HW192381   5.356   6.337   9.712  1.2437 -0.8326  0.2986
26774SOL    HW292382   5.275   6.224   9.797  0.2962  0.1961  0.7815
26775SOL     OW92383   1.136   3.786   3.029 -0.0762  0.3315  0.2565
26775SOL    HW192384   1.186   3.720   3.086 -1.2347  0.0032  0.9083
26775SOL    HW292385   1.186   3.801   2.944  0.6883 -0.6675  0.5188
26776SOL     OW92386   6.651   8.525   8.563 -0.1645  0.2602 -0.1563
26776SOL    HW192387   6.623   8.621   8.559  2.3899  0.9903 -1.4699
26776SOL    HW292388   6.626   8.481   8.477 -0.9060 -0.1435  0.2630
26777SOL     OW92389   9.288   2.433   6.642  0.1991  0.0913 -0.2790
26777SOL    HW192390   9.243   2.353   6.680 -1.6498  1.9772  1.6023
26777SOL    HW292391   9.385   2.433   6.669 -0.6094  0.3397  2.8098
26778SOL     OW92392   3.305   4.938   1.486 -0.4004 -0.4481 -0.2895
26778SOL    HW192393   3.281   5.033   1.505  0.3430 -0.3971  0.4342
26778SOL    HW292394   3.226   4.879   1.506 -0.0002 -0.2746  1.9744
26779SOL     OW92395   8.978   2.813   6.188  0.2429 -0.0795 -0.6581
26779SOL    HW192396   8.945   2.831   6.281 -0.0545 -1.7453 -0.4267
26779SOL    HW292397   9.054   2.747   6.192  0.0787 -0.3270 -1.6113
26780SOL     OW92398   2.561   0.425   2.214  0.0486  0.2223 -0.3471
26780SOL    HW192399   2.503   0.437   2.294  1.0060 -2.8140  0.8673
26780SOL    HW292400   2.657   0.430   2.242  0.3887 -1.1259 -1.2423
26781SOL     OW92401   7.171   1.450   9.215 -0.2591 -0.1943  0.1725
26781SOL    HW192402   7.086   1.401   9.203  0.3433 -1.3057  0.4063
26781SOL    HW292403   7.160   1.519   9.287 -1.2048  0.2696 -0.4069
26782SOL     OW92404   4.356   3.750   6.262 -0.1499 -0.5215 -0.2099
26782SOL    HW192405   4.420   3.692   6.313  0.3761  0.9617  0.8546
26782SOL    HW292406   4.405   3.799   6.190 -0.0919  0.5351  0.5383
26783SOL     OW92407   1.393   4.535   7.854 -0.7981 -0.0774  0.1996
26783SOL    HW192408   1.455   4.550   7.932 -1.2685 -2.4537  1.0844
26783SOL    HW292409   1.439   4.476   7.787 -1.6062 -0.8028  0.2697
26784SOL     OW92410   0.750   9.767   5.619 -0.1051 -0.0580  0.1845
26784SOL    HW192411   0.694   9.831   5.671 -1.6411 -0.5269 -0.8751
26784SOL    HW292412   0.806   9.817   5.554 -0.3788  0.2987  0.2201
26785SOL     OW92413   9.931   0.407   3.005 -0.0197 -0.1629 -0.6911
26785SOL    HW192414   9.979   0.494   3.011  0.2824 -0.4662  2.7204
26785SOL    HW292415   9.959   0.348   3.082 -1.7020 -2.4916 -1.7823
26786SOL     OW92416   7.430   6.275   2.769 -0.1043  0.5605  0.4714
26786SOL    HW192417   7.452   6.177   2.771 -0.5780  0.4268 -0.5986
26786SOL    HW292418   7.506   6.326   2.729 -0.4139  0.4639 -0.2548
26787SOL     OW92419   8.140   0.115   2.493  0.1039  0.1846 -0.0737
26787SOL    HW192420   8.214   0.178   2.515  0.4957  0.3927 -1.8825
26787SOL    HW292421   8.176   0.023   2.481  0.0711  0.2689 -0.8674
26788SOL     OW92422   6.467   7.988   7.008  0.1955  0.0798  0.5673
26788SOL    HW192423   6.377   7.946   7.025  0.5337 -0.0205  2.2302
26788SOL    HW292424   6.526   7.972   7.087  0.5432  3.1467  0.9691
26789SOL     OW92425   0.318   7.739   8.742  0.1657 -0.1903 -0.1286
26789SOL    HW192426   0.254   7.815   8.730  1.6176  0.9017 -1.1307
26789SOL    HW292427   0.389   7.743   8.671  0.7063 -2.0399  0.2657
26790SOL     OW92428   1.658   1.857   2.510 -0.3135 -0.4388  0.5034
26790SOL    HW192429   1.571   1.901   2.488  0.0582 -0.4379 -0.9885
26790SOL    HW292430   1.640   1.777   2.567 -1.1452  0.5208  1.6182
26791SOL     OW92431   0.159   6.548   7.366  0.6726 -0.2208  0.2759
26791SOL    HW192432   0.251   6.578   7.343  0.2985  1.1982  0.5671
26791SOL    HW292433   0.109   6.528   7.282  0.8444  0.2431  0.0624
26792SOL     OW92434   1.566   2.882   9.312 -0.0463  0.2353  0.4262
26792SOL    HW192435   1.547   2.868   9.409 -0.2764  0.3024  0.3899
26792SOL    HW292436   1.665   2.885   9.298 -0.0025  3.9062  1.1906
26793SOL     OW92437   7.626   1.327   6.085  0.5855 -0.1437  0.5057
26793SOL    HW192438   7.545   1.365   6.042  0.0398  0.5114  2.0479
26793SOL    HW292439   7.610   1.318   6.184  2.6419  0.7531  0.9533
26794SOL     OW92440   8.866   4.219   5.791  0.3438 -0.0915 -0.3118
26794SOL    HW192441   8.786   4.260   5.834  0.1474 -0.0957 -0.6737
26794SOL    HW292442   8.949   4.248   5.839 -0.0177 -1.6914  1.3421
26795SOL     OW92443   1.555   0.941   8.765  0.1055  0.2540  0.5972
26795SOL    HW192444   1.543   0.841   8.761  0.2297  0.2139  1.1811
26795SOL    HW292445   1.596   0.972   8.680  1.0996 -0.3405  0.8513
26796SOL     OW92446   0.303   1.301   4.844  0.7316 -0.3766 -0.4121
26796SOL    HW192447   0.299   1.221   4.785  0.6708 -1.3696  0.9076
26796SOL    HW292448   0.258   1.378   4.800  0.4388 -1.1798 -1.5211
26797SOL     OW92449   1.955   9.831   5.405  0.1204  0.0215  0.0871
26797SOL    HW192450   1.951   9.744   5.356  0.3499  0.1120 -0.0939
26797SOL    HW292451   1.877   9.887   5.380  0.1909  0.0326 -0.1046
26798SOL     OW92452   2.127   3.459   9.091 -0.0283 -0.2461 -0.2955
26798SOL    HW192453   2.073   3.522   9.147 -0.5980 -0.1571 -0.9341
26798SOL    HW292454   2.215   3.442   9.135 -0.1022  0.5440  0.1611
26799SOL     OW92455   2.604   6.881   4.837 -0.2908 -0.9157  0.0787
26799SOL    HW192456   2.576   6.813   4.769  1.6240 -0.1473 -1.5420
26799SOL    HW292457   2.630   6.965   4.790  0.2126 -0.0630  1.8548
26800SOL     OW92458   3.090   2.583   2.306  0.3126 -0.7766 -0.3317
26800SOL    HW192459   3.059   2.678   2.315  0.7929 -0.9125  3.6648
26800SOL    HW292460   3.189   2.579   2.320  0.1254 -2.0029  0.6773
26801SOL     OW92461   3.616   2.679   4.559  0.3021 -0.0633  0.0749
26801SOL    HW192462   3.545   2.691   4.628  0.2954 -0.1573  0.0854
26801SOL    HW292463   3.703   2.714   4.594 -0.0314  1.3078 -0.4714
26802SOL     OW92464   4.058   3.723   1.187  0.0724 -0.1694 -0.7237
26802SOL    HW192465   4.012   3.665   1.119  1.1586 -2.9758  0.8638
26802SOL    HW292466   4.021   3.704   1.278 -1.0770  3.2666 -0.4023
26803SOL     OW92467   7.856   4.210   8.136  0.6316 -0.0536 -0.4315
26803SOL    HW192468   7.784   4.222   8.203  0.8513  2.6574 -0.6450
26803SOL    HW292469   7.817   4.176   8.050 -0.1300 -0.2378 -0.0117
26804SOL     OW92470   6.556   1.500   4.667 -0.0073 -0.2248  0.3266
26804SOL    HW192471   6.480   1.504   4.602  0.2810 -0.3726 -0.0199
26804SOL    HW292472   6.640   1.529   4.621  0.0499  0.4799  0.8535
26805SOL     OW92473   0.915   9.242   1.398 -0.4623  0.4072  0.2845
26805SOL    HW192474   0.821   9.277   1.391  0.1098  2.7032  2.8447
26805SOL    HW292475   0.920   9.176   1.473  0.3051  1.7031  1.4076
26806SOL     OW92476   6.255   2.155   1.526 -0.1487 -0.1883  0.6435
26806SOL    HW192477   6.353   2.177   1.520 -0.3950  1.3060  1.7546
26806SOL    HW292478   6.216   2.153   1.434  0.6389  0.6422  0.2813
26807SOL     OW92479   7.501   0.512   3.089 -0.6315  0.0751 -0.0279
26807SOL    HW192480   7.442   0.586   3.121 -0.1613 -0.1401  1.3947
26807SOL    HW292481   7.495   0.435   3.153 -0.8335 -0.9647 -1.2948
26808SOL     OW92482   0.204   9.553   1.533 -0.8539 -0.3696  0.3622
26808SOL    HW192483   0.193   9.637   1.482 -0.0771 -0.2050  0.4538
26808SOL    HW292484   0.116   9.506   1.541 -1.3783  0.6646  0.7160
26809SOL     OW92485   9.947   0.077   1.310 -0.3357 -0.3125 -0.1915
26809SOL    HW192486  10.044   0.093   1.294 -0.1614 -0.1502  1.0233
26809SOL    HW292487   9.936   0.001   1.374 -0.9736  0.5180  0.6961
26810SOL     OW92488   3.908   7.767   3.398  0.1777 -0.5419  0.0804
26810SOL    HW192489   3.822   7.782   3.349 -0.4024 -2.0907  0.6175
26810SOL    HW292490   3.984   7.807   3.345 -0.6460 -0.6931 -1.2268
26811SOL     OW92491   9.258   7.267   3.689  0.0780 -0.0435  0.4876
26811SOL    HW192492   9.349   7.265   3.648 -0.1573 -0.0516 -0.0474
26811SOL    HW292493   9.226   7.361   3.697 -0.3487 -0.0984 -0.4377
26812SOL     OW92494   1.248   5.486   5.401  0.3756  0.4383  0.4912
26812SOL    HW192495   1.199   5.433   5.471 -2.4384  1.1618 -0.8639
26812SOL    HW292496   1.183   5.540   5.349  2.4056 -0.1639 -2.7958
26813SOL     OW92497   3.136   6.350   5.158 -0.1574  0.2187 -0.1951
26813SOL    HW192498   3.182   6.377   5.242  1.9550  0.1180 -1.2692
26813SOL    HW292499   3.064   6.284   5.178  1.4255 -1.0610  1.3551
26814SOL     OW92500   8.007   0.657   4.094 -0.0876  0.1429 -0.2849
26814SOL    HW192501   7.998   0.602   4.177  2.2454  0.7081  0.3591
26814SOL    HW292502   8.000   0.754   4.118 -0.8111  0.2604 -0.9567
26815SOL     OW92503   4.915   4.611   9.100  0.1242 -0.0928  0.1903
26815SOL    HW192504   4.980   4.564   9.161  0.8561  1.6794  0.8267
26815SOL    HW292505   4.824   4.609   9.141  0.0723 -1.1943  0.0564
26816SOL     OW92506   8.248   5.210   2.217  0.3138  0.0252  0.1442
26816SOL    HW192507   8.278   5.185   2.125 -0.6116 -0.2932 -0.0645
26816SOL    HW292508   8.154   5.182   2.232 -0.1808  1.7729  0.5260
26817SOL     OW92509   3.433   1.359   1.502 -0.0306 -0.0788  0.6573
26817SOL    HW192510   3.385   1.294   1.443  1.0312 -1.9001  1.7678
26817SOL    HW292511   3.529   1.331   1.512  0.0706  0.8198  2.3563
26818SOL     OW92512   8.674   3.516   2.237  0.3993  0.2934 -0.2473
26818SOL    HW192513   8.694   3.444   2.170  1.1209 -0.5221  0.8175
26818SOL    HW292514   8.736   3.593   2.223 -0.8529  1.0255 -1.8518
26819SOL     OW92515   2.021   1.551   2.053  0.0752 -0.1481 -0.1962
26819SOL    HW192516   2.015   1.642   2.092 -1.7643  0.5392 -1.9688
26819SOL    HW292517   1.947   1.538   1.986 -1.8206 -4.1147  2.4086
26820SOL     OW92518   3.303   6.095   3.312 -0.2677 -0.2223 -0.1182
26820SOL    HW192519   3.346   6.087   3.222  0.2697  0.5132  0.0684
26820SOL    HW292520   3.208   6.126   3.301  0.2570  1.3686 -0.3630
26821SOL     OW92521   0.047   2.591   4.593  0.2630 -0.0025 -0.4805
26821SOL    HW192522  -0.017   2.542   4.533 -1.3796  0.1801  1.0853
26821SOL    HW292523   0.065   2.682   4.556 -3.0892  1.2298  0.8106
26822SOL     OW92524   7.937   4.218   9.884 -0.3815  0.0984 -0.4854
26822SOL    HW192525   7.884   4.189   9.804 -0.0458  0.8684 -0.9987
26822SOL    HW292526   8.006   4.284   9.855 -0.0953  0.1948  0.4110
26823SOL     OW92527   0.171   2.415   1.975 -0.1510 -0.1052 -0.1290
26823SOL    HW192528   0.219   2.481   1.917  0.7830 -1.2051 -0.6260
26823SOL    HW292529   0.233   2.378   2.044 -0.7376 -0.2631  0.3219
26824SOL     OW92530   1.381   4.782   9.325 -0.0166 -0.0148 -0.0319
26824SOL    HW192531   1.411   4.687   9.323  1.6040  0.4983 -0.8079
26824SOL    HW292532   1.454   4.839   9.363 -0.8453  0.9656  0.0966
26825SOL     OW92533   3.676   3.218   8.927 -0.0428  0.0020  0.2069
26825SOL    HW192534   3.632   3.129   8.914  0.6969 -0.0631 -2.0725
26825SOL    HW292535   3.608   3.285   8.957 -0.5746 -1.3342  2.1130
26826SOL     OW92536   5.847   9.673   7.254 -0.4919  0.5174  0.5414
26826SOL    HW192537   5.826   9.719   7.340  0.0527  2.0939 -0.1629
26826SOL    HW292538   5.909   9.597   7.271 -0.7872  0.5105  1.6035
26827SOL     OW92539   6.989   4.977   0.097 -0.7251 -0.4796  0.9961
26827SOL    HW192540   7.040   4.891   0.097  0.6300  0.3036  0.6394
26827SOL    HW292541   6.920   4.975   0.025  0.8223 -0.4030 -0.5274
26828SOL     OW92542   2.627   3.169   7.997  0.2261  0.3243 -0.4962
26828SOL    HW192543   2.672   3.085   8.026 -1.5688 -0.8556 -1.0320
26828SOL    HW292544   2.690   3.223   7.942  1.1942 -0.9819 -0.7002
26829SOL     OW92545   8.369   9.593   9.179  0.0818 -0.6333  0.1595
26829SOL    HW192546   8.438   9.661   9.152 -0.5613 -0.1225 -0.2054
26829SOL    HW292547   8.379   9.511   9.123 -0.8286  0.1705 -1.1997
26830SOL     OW92548   5.322   3.250   8.714  0.1738 -0.7536 -0.5562
26830SOL    HW192549   5.408   3.203   8.694  1.0401  0.4792  0.2256
26830SOL    HW292550   5.335   3.348   8.704 -0.1474 -0.2866  3.0557
26831SOL     OW92551   8.008   2.162   8.891 -0.3027 -0.3799 -0.1320
26831SOL    HW192552   8.092   2.216   8.883 -0.9753  0.7235  0.0013
26831SOL    HW292553   7.990   2.115   8.805 -0.2042  0.3927 -0.5866
26832SOL     OW92554   8.247   9.477   7.200 -0.3360  0.2947 -0.9235
26832SOL    HW192555   8.182   9.444   7.269  0.1021  1.4882  0.0874
26832SOL    HW292556   8.337   9.439   7.219 -0.0858  1.1110 -0.4670
26833SOL     OW92557   9.845   8.375   2.693  0.2359  0.0992  0.0303
26833SOL    HW192558   9.920   8.314   2.719 -1.1931 -2.1089 -0.9838
26833SOL    HW292559   9.857   8.404   2.598  0.4135  0.6641  0.2234
26834SOL     OW92560   4.728   0.891   8.218 -0.0839  0.1900  0.5296
26834SOL    HW192561   4.657   0.936   8.163  1.2111  1.4163 -0.1773
26834SOL    HW292562   4.794   0.847   8.157 -0.0777 -0.7181  1.1775
26835SOL     OW92563   3.424   3.461   2.593 -0.2349 -0.4453  0.5025
26835SOL    HW192564   3.329   3.488   2.607 -0.1595  0.0664  0.0235
26835SOL    HW292565   3.439   3.441   2.496  0.8825  2.3498  0.0537
26836SOL     OW92566   4.239   1.457   9.324 -0.3024  0.0602 -0.0810
26836SOL    HW192567   4.199   1.369   9.349 -0.6656 -0.4467 -2.2966
26836SOL    HW292568   4.175   1.531   9.346 -1.9006 -0.6273 -2.2888
26837SOL     OW92569   1.899   2.250   0.789  0.2421  0.2054 -0.2528
26837SOL    HW192570   1.969   2.187   0.756 -1.0131 -0.6130 -1.3856
26837SOL    HW292571   1.884   2.235   0.887  1.1940 -0.0435 -0.1436
26838SOL     OW92572   3.829   9.521   8.273 -0.0492  0.1355 -0.1655
26838SOL    HW192573   3.742   9.498   8.230 -0.1919 -1.9581  1.1781
26838SOL    HW292574   3.824   9.613   8.311 -1.9449 -0.2468  0.5507
26839SOL     OW92575   1.105   1.046   2.305 -0.4325  0.4822  0.2630
26839SOL    HW192576   1.154   1.131   2.286 -0.6005  0.6367  0.5245
26839SOL    HW292577   1.141   0.973   2.247  1.4287  0.1451  1.7701
26840SOL     OW92578   8.811   7.753   5.446 -0.3827  0.5484  0.4149
26840SOL    HW192579   8.894   7.781   5.496 -1.1704 -0.3408  2.2767
26840SOL    HW292580   8.751   7.702   5.508 -1.7954  0.1690 -1.2430
26841SOL     OW92581   5.435   1.615   5.784 -0.3553  0.4858 -0.6465
26841SOL    HW192582   5.454   1.712   5.800 -0.3417  0.1727  1.3673
26841SOL    HW292583   5.513   1.561   5.816 -1.0139 -0.2838 -0.3467
26842SOL     OW92584   6.223   7.551   5.163  0.3464 -0.5642  0.0665
26842SOL    HW192585   6.289   7.626   5.158  0.6585 -0.8522 -0.1455
26842SOL    HW292586   6.205   7.529   5.259  0.7179 -0.6232  0.1231
26843SOL     OW92587   1.803   3.945   7.243 -0.5287  0.0045 -0.3727
26843SOL    HW192588   1.758   3.861   7.210 -1.0096  0.4182 -0.7697
26843SOL    HW292589   1.902   3.937   7.228 -0.5151 -0.7160  0.0839
26844SOL     OW92590   4.579   9.892   7.328  0.1407 -0.0723 -0.0613
26844SOL    HW192591   4.564   9.960   7.256  0.6952  0.0083 -0.1006
26844SOL    HW292592   4.509   9.903   7.398 -0.8344 -0.6128 -0.9338
26845SOL     OW92593   0.593   0.962   8.158 -0.4657  0.6184 -0.4539
26845SOL    HW192594   0.524   1.032   8.180 -0.8305 -0.7705  3.0639
26845SOL    HW292595   0.554   0.871   8.173  1.0862 -0.2750 -1.7232
26846SOL     OW92596   7.943   4.607   1.574 -0.0886 -1.0997 -0.1748
26846SOL    HW192597   7.955   4.682   1.639  0.5625 -1.1956 -0.1823
26846SOL    HW292598   8.015   4.611   1.504 -0.3520 -1.4302 -0.4663
26847SOL     OW92599   2.125   3.543   8.434  0.2385 -0.1942 -0.5269
26847SOL    HW192600   2.184   3.525   8.513  0.3963  0.0501 -0.5905
26847SOL    HW292601   2.138   3.470   8.367  1.1890  0.3725 -0.9655
26848SOL     OW92602   2.611   7.001   1.007 -0.1830  0.3668 -0.2825
26848SOL    HW192603   2.642   6.923   0.954  0.4542  1.0977 -1.0084
26848SOL    HW292604   2.521   7.030   0.975 -0.8698 -0.6667  0.6519
26849SOL     OW92605   2.128   2.865   8.646 -0.6089  0.2135  0.9236
26849SOL    HW192606   2.197   2.891   8.712  0.6991 -3.7540  1.2767
26849SOL    HW292607   2.047   2.830   8.694 -0.7109 -0.2047  0.4535
26850SOL     OW92608   7.126   2.099   9.692 -0.1908  0.8012 -0.2108
26850SOL    HW192609   7.168   2.040   9.761  1.1150  1.8382 -0.0936
26850SOL    HW292610   7.067   2.165   9.737 -2.1417 -0.7797 -0.3922
26851SOL     OW92611   8.406   2.610   8.027  0.2308 -0.0978 -0.2969
26851SOL    HW192612   8.442   2.517   8.039 -1.3056 -0.6945 -0.1772
26851SOL    HW292613   8.465   2.661   7.965 -0.0630 -1.8399 -2.0553
26852SOL     OW92614   6.117   4.874   1.990  0.1893 -0.1850 -0.1986
26852SOL    HW192615   6.207   4.855   2.031 -0.3773  0.2513  1.2757
26852SOL    HW292616   6.127   4.879   1.891  2.0642  1.2780  0.0217
26853SOL     OW92617   1.758   8.569   3.911  0.1309  0.1126  0.1593
26853SOL    HW192618   1.719   8.528   3.828  1.0156 -0.4342  0.0004
26853SOL    HW292619   1.746   8.506   3.988 -0.0270  0.2925  0.2777
26854SOL     OW92620   8.530   3.315   2.717  0.1031 -0.2285  0.2186
26854SOL    HW192621   8.601   3.310   2.647 -0.0863  1.1321 -0.0723
26854SOL    HW292622   8.471   3.234   2.710 -1.5992  1.2082 -2.9987
26855SOL     OW92623   2.960   9.996   2.787 -0.6314 -0.7906  0.2483
26855SOL    HW192624   2.865  10.025   2.799 -0.8136 -1.5848  0.7966
26855SOL    HW292625   3.019  10.048   2.849 -0.7036 -0.2902 -0.1004
26856SOL     OW92626   3.124   0.881   9.746  0.1541 -0.0666 -0.4216
26856SOL    HW192627   3.223   0.880   9.735  0.3370 -0.9968  1.1335
26856SOL    HW292628   3.088   0.788   9.738 -0.4480  0.1023  0.2336
26857SOL     OW92629   5.338   9.998   8.683 -0.4923  0.3377 -0.4467
26857SOL    HW192630   5.300  10.011   8.775 -0.0795 -1.4885 -0.0131
26857SOL    HW292631   5.317  10.079   8.628 -0.5749  1.5522  1.2968
26858SOL     OW92632   8.654   4.077   3.265 -0.3353  0.0187  0.0510
26858SOL    HW192633   8.577   4.094   3.203  0.3603 -0.3549 -0.9378
26858SOL    HW292634   8.712   4.158   3.269 -1.2204  0.5893  1.4429
26859SOL     OW92635   8.100   5.438   6.117 -0.1583  0.2209 -0.2392
26859SOL    HW192636   8.022   5.409   6.172  1.1355 -1.2368  0.8632
26859SOL    HW292637   8.078   5.524   6.071 -2.4189 -0.1957  0.0143
26860SOL     OW92638   8.076   0.131   3.256  0.2059 -0.2557  0.0639
26860SOL    HW192639   8.149   0.199   3.246 -0.7235  1.1415  2.4428
26860SOL    HW292640   8.107   0.059   3.318  0.5685 -1.1298 -1.1253
26861SOL     OW92641   9.939   2.721   9.641 -0.1116 -0.3557  0.5182
26861SOL    HW192642  10.039   2.727   9.635 -0.0625  0.1919  1.7482
26861SOL    HW292643   9.911   2.718   9.737 -1.3640  0.9452  0.2181
26862SOL     OW92644   2.889   2.800   3.970  0.3035  0.4947  0.0174
26862SOL    HW192645   2.876   2.886   4.020 -1.2615  0.0185  0.4781
26862SOL    HW292646   2.926   2.818   3.879 -2.3916  1.8834 -0.8417
26863SOL     OW92647   7.797   2.430   2.546  0.1486 -0.4947  0.0750
26863SOL    HW192648   7.793   2.520   2.503  0.3971 -0.5251 -0.0102
26863SOL    HW292649   7.890   2.411   2.577 -0.0054 -0.5185  0.5309
26864SOL     OW92650   1.477   4.897   3.512 -0.0580 -0.3817 -0.3244
26864SOL    HW192651   1.487   4.950   3.596  0.0718 -1.2653  0.2277
26864SOL    HW292652   1.516   4.806   3.525 -0.0979 -0.5543 -1.3236
26865SOL     OW92653   2.529   2.002   0.077  0.3520  0.4884 -0.3074
26865SOL    HW192654   2.502   1.934   0.007  2.0844 -1.1726  0.5990
26865SOL    HW292655   2.447   2.045   0.114 -0.8110 -1.1412 -0.8977
26866SOL     OW92656   8.079   3.701   5.877 -0.1461 -0.1394 -0.3344
26866SOL    HW192657   8.100   3.610   5.842  1.0392  0.1894 -0.4864
26866SOL    HW292658   8.163   3.754   5.886 -0.7362  0.6805  0.4904
26867SOL     OW92659   4.385   5.759   4.026 -0.0237  0.1363  0.9001
26867SOL    HW192660   4.452   5.709   4.079  0.2595  0.6683  1.0509
26867SOL    HW292661   4.398   5.858   4.040  0.8512  0.3321 -1.1151
26868SOL     OW92662   2.229   3.173   7.803 -0.8532 -0.0828 -0.0251
26868SOL    HW192663   2.256   3.082   7.771 -0.0020  0.2714 -0.3434
26868SOL    HW292664   2.276   3.194   7.889 -1.4811 -0.1643  0.3432
26869SOL     OW92665   9.751   4.769   4.917 -0.1777  0.3716 -0.8349
26869SOL    HW192666   9.729   4.854   4.965  0.9641  0.0889  0.2159
26869SOL    HW292667   9.812   4.714   4.974  0.6601 -0.2729 -2.3401
26870SOL     OW92668   7.172   5.931   9.531 -0.8118 -0.6391  0.2700
26870SOL    HW192669   7.203   6.026   9.536  1.8917 -1.5057  0.8551
26870SOL    HW292670   7.113   5.912   9.609  0.1895  0.0541  1.2288
26871SOL     OW92671   7.665   7.930   8.020 -0.3967 -0.5134  0.0079
26871SOL    HW192672   7.716   7.902   7.939 -0.3564 -3.4572  0.9976
26871SOL    HW292673   7.703   8.016   8.054  0.7354 -0.1617 -2.0461
26872SOL     OW92674   3.315   0.599   5.525  0.0568 -0.6249  0.3419
26872SOL    HW192675   3.380   0.562   5.591 -0.4156  0.6789  1.5572
26872SOL    HW292676   3.263   0.674   5.567 -1.5526 -1.0021 -0.9097
26873SOL     OW92677   9.538   1.054   1.372  0.2229  0.3443 -1.0556
26873SOL    HW192678   9.612   1.117   1.397 -1.4248  2.1873 -0.7238
26873SOL    HW292679   9.511   1.070   1.278  1.4211 -1.5724 -1.7701
26874SOL     OW92680   0.386   6.623   4.998  0.0585 -0.7377  0.0190
26874SOL    HW192681   0.327   6.594   4.923 -1.6481  0.4463  0.8637
26874SOL    HW292682   0.471   6.571   4.996 -1.4336 -3.2044 -0.6151
26875SOL     OW92683   4.765   1.041   5.314 -0.1279 -0.4197 -0.2504
26875SOL    HW192684   4.815   1.119   5.276  0.3878  0.4998  2.2057
26875SOL    HW292685   4.825   0.962   5.319 -0.4890 -0.8455 -2.2237
26876SOL     OW92686   7.317   0.432   5.894  0.2242 -0.4563 -0.1133
26876SOL    HW192687   7.363   0.355   5.849 -1.8502 -1.2685 -0.8911
26876SOL    HW292688   7.365   0.517   5.872  2.1578 -1.4207  0.2232
26877SOL     OW92689   9.486   4.828   7.981 -0.0366 -0.5269  0.3238
26877SOL    HW192690   9.508   4.904   7.920 -2.2995 -1.0888 -1.2791
26877SOL    HW292691   9.388   4.811   7.978  0.4086 -3.4848  0.6563
26878SOL     OW92692   8.359   5.814   9.989  0.3266  0.3114 -0.5408
26878SOL    HW192693   8.409   5.746   9.934  0.3938 -0.5146  0.5265
26878SOL    HW292694   8.299   5.766  10.054 -1.2878  1.2836 -1.2738
26879SOL     OW92695   2.778   4.907   6.599 -0.2783 -0.2062 -0.2730
26879SOL    HW192696   2.829   4.970   6.658  1.2701 -2.3276  0.7441
26879SOL    HW292697   2.778   4.942   6.505  1.9854  0.5094 -0.0482
26880SOL     OW92698   1.970   5.482   7.403  0.6398 -0.0602  0.3401
26880SOL    HW192699   1.881   5.478   7.447 -0.1803  2.6413 -0.9343
26880SOL    HW292700   1.975   5.413   7.331 -1.3219  1.2585 -1.1043
26881SOL     OW92701   1.500   5.431   2.618 -0.5509  0.3656  0.0931
26881SOL    HW192702   1.544   5.365   2.679 -0.8551 -0.0471 -0.1316
26881SOL    HW292703   1.473   5.385   2.533  0.3115  1.0405 -0.5586
26882SOL     OW92704   8.492   9.545   2.635 -0.3281 -0.0380 -0.0016
26882SOL    HW192705   8.445   9.502   2.558  4.0910 -1.4809 -2.0671
26882SOL    HW292706   8.481   9.489   2.717 -1.3342 -0.8636 -0.6912
26883SOL     OW92707   1.082   1.787   1.615  0.0597 -0.0354 -0.0573
26883SOL    HW192708   1.064   1.834   1.528 -1.3255 -1.0872 -0.3539
26883SOL    HW292709   1.099   1.690   1.598 -0.8001 -0.3574  0.8918
26884SOL     OW92710   0.223   9.435   1.932 -0.2905 -0.3938  0.2487
26884SOL    HW192711   0.285   9.422   2.009 -1.2581 -0.8212  0.9727
26884SOL    HW292712   0.265   9.495   1.864  0.0113  1.1552  1.7742
26885SOL     OW92713   8.789   3.874   2.026  0.9349  0.2546  0.1143
26885SOL    HW192714   8.808   3.878   1.928 -1.7095 -1.2745 -0.5055
26885SOL    HW292715   8.715   3.937   2.048  1.2506  0.2995  1.0654
26886SOL     OW92716   7.346   3.678   7.945 -0.0852 -0.5193  0.0702
26886SOL    HW192717   7.256   3.668   7.904 -0.1838 -2.0988  0.6563
26886SOL    HW292718   7.384   3.588   7.967  2.0010  0.0665 -0.9469
26887SOL     OW92719   2.980   9.127   0.396 -0.4308  0.1077  0.4272
26887SOL    HW192720   3.063   9.080   0.365 -1.0199 -1.3392  1.0226
26887SOL    HW292721   3.002   9.222   0.417  0.7616  0.1225 -0.8388
26888SOL     OW92722   9.413   7.876   6.847 -0.5338 -0.0682  0.4665
26888SOL    HW192723   9.452   7.785   6.835 -2.1954 -0.9464  1.5759
26888SOL    HW292724   9.377   7.908   6.759 -0.5397 -0.7829  0.2015
26889SOL     OW92725   3.463   5.248   1.319  0.1827  0.6941  0.5460
26889SOL    HW192726   3.405   5.204   1.250 -1.5488  2.4864  0.7919
26889SOL    HW292727   3.559   5.236   1.294 -0.3191 -1.2460 -0.5726
26890SOL     OW92728   3.996   3.152   4.662  0.6113 -0.9299 -0.0454
26890SOL    HW192729   4.080   3.188   4.703 -0.9283  2.3901  0.3269
26890SOL    HW292730   4.019   3.073   4.605  3.9178 -0.4358  0.4833
26891SOL     OW92731   8.207   4.981   1.556 -0.1674  0.0827  0.2734
26891SOL    HW192732   8.220   5.052   1.486 -0.8531 -0.5366 -0.4958
26891SOL    HW292733   8.127   5.002   1.611 -1.5953 -1.1323 -1.2812
26892SOL     OW92734   5.544   1.864   2.183  0.1198 -0.1329  0.8209
26892SOL    HW192735   5.523   1.916   2.265 -0.2090  1.2452 -0.1229
26892SOL    HW292736   5.641   1.841   2.181  0.4484  1.2694  0.7760
26893SOL     OW92737   5.200   0.870   4.179  0.0717 -0.1281 -0.5282
26893SOL    HW192738   5.167   0.836   4.267  0.2104 -0.2492 -0.5220
26893SOL    HW292739   5.156   0.956   4.157 -2.3606 -1.6517 -1.8434
26894SOL     OW92740   1.111   6.678   7.204 -0.1088  0.2600 -0.1594
26894SOL    HW192741   1.059   6.763   7.199 -0.7488 -0.1651 -0.8105
26894SOL    HW292742   1.185   6.688   7.271 -1.7260  0.4638  1.6323
26895SOL     OW92743   1.851   6.310   8.880  0.0157  0.2975 -0.7765
26895SOL    HW192744   1.895   6.223   8.859  0.2310  0.2972 -0.3180
26895SOL    HW292745   1.915   6.370   8.928 -0.6411  0.0961  0.3697
26896SOL     OW92746   6.012   4.108   8.283  0.1212 -0.4210  0.4619
26896SOL    HW192747   5.953   4.189   8.285 -2.2335 -2.0323 -1.1280
26896SOL    HW292748   6.095   4.129   8.232 -1.4112  0.4403 -1.7771
26897SOL     OW92749   6.834   5.582   6.744  0.0049  0.2356 -0.1599
26897SOL    HW192750   6.802   5.525   6.668  0.7915  0.8940 -1.0035
26897SOL    HW292751   6.825   5.532   6.830  0.9569 -1.2757 -0.9199
26898SOL     OW92752   7.631   3.053   0.919 -0.2431 -0.6593  0.4370
26898SOL    HW192753   7.702   2.989   0.889 -0.1139 -0.0742 -0.5364
26898SOL    HW292754   7.672   3.143   0.932 -0.7251 -0.4175  0.2917
26899SOL     OW92755   4.229   1.650   8.268  0.3625  0.2642  0.0024
26899SOL    HW192756   4.208   1.619   8.360  0.8042  1.2614  0.4386
26899SOL    HW292757   4.263   1.744   8.270  1.0147  0.0669 -1.1037
26900SOL     OW92758   6.874   1.264   4.285  0.0434  0.7114  0.1174
26900SOL    HW192759   6.867   1.184   4.345  0.1058 -1.4871 -2.6939
26900SOL    HW292760   6.970   1.292   4.279  0.3064 -0.2857 -0.4687
26901SOL     OW92761   4.246   3.175   9.582 -0.4458  0.0401 -0.1713
26901SOL    HW192762   4.262   3.084   9.543  0.5444  0.4575 -0.7303
26901SOL    HW292763   4.147   3.188   9.595 -0.6017 -1.0759 -0.1622
26902SOL     OW92764   3.821   7.575   7.692 -0.5847  0.3931  0.6983
26902SOL    HW192765   3.828   7.480   7.661  0.0696  0.7458 -0.2462
26902SOL    HW292766   3.732   7.612   7.666  0.4794  1.1231 -2.0307
26903SOL     OW92767   0.772   4.367   3.172 -0.4000 -0.0497  0.4401
26903SOL    HW192768   0.866   4.399   3.183 -0.6390 -0.2056  3.3135
26903SOL    HW292769   0.767   4.270   3.194 -0.8321 -0.6275 -2.0708
26904SOL     OW92770   7.486   2.295   3.789 -0.0989  0.2709  0.1548
26904SOL    HW192771   7.480   2.207   3.743  0.1186  0.3305  0.0101
26904SOL    HW292772   7.514   2.365   3.724  1.1128  0.1890  0.5703
26905SOL     OW92773   0.899   0.840   4.759 -0.6340  0.0507 -0.5038
26905SOL    HW192774   0.886   0.817   4.662 -0.4511 -1.3121 -0.2124
26905SOL    HW292775   0.965   0.915   4.767  1.2079 -1.4340 -1.3240
26906SOL     OW92776   0.226   5.004   6.909  0.3364  0.5702 -0.0418
26906SOL    HW192777   0.304   5.047   6.955  0.3813  0.7521 -0.2905
26906SOL    HW292778   0.207   4.916   6.952  2.0518 -0.4731 -1.4035
26907SOL     OW92779   3.655   2.369   8.928 -0.5655 -0.2116  0.4603
26907SOL    HW192780   3.681   2.453   8.881 -1.2274  0.9520  2.1743
26907SOL    HW292781   3.588   2.389   8.999 -0.5382 -2.1500  1.0592
26908SOL     OW92782   9.396   7.667   2.355  0.2813 -0.2189  0.3615
26908SOL    HW192783   9.383   7.616   2.270 -1.4558 -0.5459  0.8091
26908SOL    HW292784   9.366   7.761   2.342 -0.4066 -0.3845  0.7434
26909SOL     OW92785   4.594   5.307   4.724 -0.3047 -0.2915  0.0111
26909SOL    HW192786   4.551   5.219   4.703  2.1689 -1.9780  1.8010
26909SOL    HW292787   4.541   5.355   4.794 -0.1236 -1.6666  1.1021
26910SOL     OW92788   8.554   2.296   2.399 -0.3258  0.3461  0.0637
26910SOL    HW192789   8.510   2.337   2.320 -0.2121 -1.8324 -1.1709
26910SOL    HW292790   8.565   2.365   2.471 -0.6918  2.2771 -1.6896
26911SOL     OW92791   2.444   1.343   9.164 -0.3894 -0.6877 -0.1916
26911SOL    HW192792   2.497   1.293   9.096 -1.5521 -1.8421 -0.2443
26911SOL    HW292793   2.494   1.344   9.251 -0.3029 -1.7906 -0.2329
26912SOL     OW92794   0.504   3.051   6.033  0.5148  0.1703 -0.6610
26912SOL    HW192795   0.528   2.955   6.039  0.3128  0.0232 -2.0504
26912SOL    HW292796   0.509   3.081   5.938 -2.3920  0.7381 -0.6921
26913SOL     OW92797   9.141   9.533   9.877 -0.5027  0.1129  0.1706
26913SOL    HW192798   9.055   9.483   9.891 -0.3647  0.0748  0.8938
26913SOL    HW292799   9.210   9.470   9.840 -0.8853  0.2283 -0.7533
26914SOL     OW92800   2.364   6.955   0.353  0.3348  0.5521 -0.4036
26914SOL    HW192801   2.425   6.897   0.407 -0.0554 -0.0950 -0.6528
26914SOL    HW292802   2.415   6.998   0.279  0.8096  1.2095  0.2956
26915SOL     OW92803   3.140   9.125   9.238 -0.3375 -0.1997 -0.0033
26915SOL    HW192804   3.154   9.126   9.338 -0.2515 -1.3023 -0.0004
26915SOL    HW292805   3.053   9.169   9.216  0.4196  1.5659  0.4290
26916SOL     OW92806   9.829   7.612   0.020  0.1766  0.3404  0.2385
26916SOL    HW192807   9.737   7.605   0.058 -0.5080 -0.3514 -1.4943
26916SOL    HW292808   9.885   7.538   0.055 -0.3148 -0.0198  0.2747
26917SOL     OW92809   0.568   4.667   7.849 -0.0911 -0.2032 -0.3011
26917SOL    HW192810   0.640   4.600   7.832 -0.0348 -0.1828 -0.1512
26917SOL    HW292811   0.553   4.722   7.767 -1.9982 -2.1451 -1.2909
26918SOL     OW92812   3.754   0.943   9.037 -0.3074  0.0655  0.0018
26918SOL    HW192813   3.668   0.961   8.989  0.1957 -0.1913 -0.9943
26918SOL    HW292814   3.776   0.846   9.032 -0.1285  0.0739  0.5514
26919SOL     OW92815   3.907   3.224   2.251  0.5846  0.4524 -0.0065
26919SOL    HW192816   3.939   3.131   2.234 -2.0167 -0.1864 -1.5743
26919SOL    HW292817   3.870   3.263   2.167 -0.9413  1.8763  1.2933
26920SOL     OW92818   4.307   8.608   7.414 -0.0338 -0.1395  0.3958
26920SOL    HW192819   4.329   8.517   7.449  1.3379  0.1008  0.2107
26920SOL    HW292820   4.279   8.602   7.319  0.1864 -0.3578  0.3434
26921SOL     OW92821   6.448   3.726   1.611 -0.0078 -0.4894  0.7065
26921SOL    HW192822   6.545   3.738   1.588 -0.0724  0.2504  0.8020
26921SOL    HW292823   6.436   3.739   1.710  0.1677 -3.0007  1.0709
26922SOL     OW92824   6.558   1.824   0.345  0.0495  0.0712  0.3610
26922SOL    HW192825   6.471   1.857   0.310  1.0800  2.9508  0.3962
26922SOL    HW292826   6.542   1.770   0.428 -1.7945 -0.7440 -0.5033
26923SOL     OW92827   6.446   4.614   8.303 -0.7015 -0.2714  0.1851
26923SOL    HW192828   6.418   4.590   8.210 -0.4665 -1.5918  0.4473
26923SOL    HW292829   6.376   4.583   8.368 -0.1584 -0.6922  0.5706
26924SOL     OW92830   4.983   5.242   8.795  0.1633  0.1478 -0.0114
26924SOL    HW192831   4.915   5.218   8.864  0.6431 -0.3758  0.2797
26924SOL    HW292832   4.973   5.183   8.715  0.1963  0.1482 -0.0157
26925SOL     OW92833   8.659   3.643   6.482  0.4788  0.4669 -0.8499
26925SOL    HW192834   8.707   3.685   6.558  0.5581 -1.1351  0.0022
26925SOL    HW292835   8.561   3.642   6.500  0.3246  1.7063 -1.5826
26926SOL     OW92836   5.191   4.318   2.805  0.2683 -0.2039 -0.4699
26926SOL    HW192837   5.224   4.245   2.745 -0.6488  0.4738 -1.8222
26926SOL    HW292838   5.172   4.400   2.751 -1.2671  0.1930  0.6378
26927SOL     OW92839   8.729   8.132   4.070 -0.3218  0.0173  0.6771
26927SOL    HW192840   8.686   8.216   4.100 -0.3626  0.0308  0.5786
26927SOL    HW292841   8.764   8.082   4.149 -2.0573 -0.8439  0.9118
26928SOL     OW92842   1.536   1.646   2.260  0.0331  0.1995  0.2991
26928SOL    HW192843   1.486   1.602   2.335 -1.5956 -0.7641 -1.3035
26928SOL    HW292844   1.508   1.605   2.173  1.7525  1.4263 -0.8668
26929SOL     OW92845   3.994   0.427   4.640  0.4639 -0.1967  0.3517
26929SOL    HW192846   4.007   0.432   4.739 -1.0797  0.5811  0.5332
26929SOL    HW292847   4.054   0.493   4.595  1.3455 -0.7242  0.7510
26930SOL     OW92848   4.524   8.880   7.753 -0.7528  0.4933  0.5568
26930SOL    HW192849   4.456   8.823   7.798  0.3304 -2.0475 -0.8709
26930SOL    HW292850   4.493   8.901   7.660 -0.3583  0.7128  0.4743
26931SOL     OW92851   8.405   0.524   0.137  0.1513 -0.6041  0.4111
26931SOL    HW192852   8.339   0.542   0.210 -1.2749 -1.1803 -0.7211
26931SOL    HW292853   8.491   0.570   0.158 -0.7568  0.5547  1.6649
26932SOL     OW92854   7.493   0.548   8.227  0.0966 -0.4219 -0.1726
26932SOL    HW192855   7.461   0.461   8.189 -3.0538  0.4357  0.3717
26932SOL    HW292856   7.514   0.536   8.324 -2.3678 -0.1616  0.4366
26933SOL     OW92857   9.682   0.006   0.746 -0.0106 -0.1516  0.6948
26933SOL    HW192858   9.757   0.061   0.781  0.3085 -0.6470  0.7931
26933SOL    HW292859   9.605   0.066   0.722  0.5671  0.3998  0.1880
26934SOL     OW92860   2.631   5.116   6.845 -0.2843  0.5084  0.4334
26934SOL    HW192861   2.621   5.018   6.860 -2.3122  0.8475  1.4741
26934SOL    HW292862   2.599   5.140   6.753 -0.2960  0.2686  0.3755
26935SOL     OW92863   7.675   5.406   9.300 -0.3456  0.3322 -0.2362
26935SOL    HW192864   7.631   5.457   9.373 -1.8878 -0.7697 -0.3683
26935SOL    HW292865   7.759   5.364   9.334 -0.5364  0.6495  0.6232
26936SOL     OW92866   3.118   0.508   8.392  0.1369  0.2678 -0.0094
26936SOL    HW192867   3.145   0.518   8.296  3.0694 -0.4555  0.6874
26936SOL    HW292868   3.109   0.411   8.414  1.8450  0.3161  1.0213
26937SOL     OW92869   8.631   6.714   9.978 -0.2588 -0.0800  0.0346
26937SOL    HW192870   8.564   6.656  10.024 -2.4244  1.2086 -1.4636
26937SOL    HW292871   8.664   6.668   9.896 -0.6761  0.0652 -0.2154
26938SOL     OW92872   8.810   3.868   9.722 -0.2673 -0.5173 -0.3695
26938SOL    HW192873   8.741   3.858   9.793  0.8437 -1.3362  0.6098
26938SOL    HW292874   8.771   3.918   9.645 -1.5261  0.2472  0.7390
26939SOL     OW92875   7.251   0.316   8.507 -0.1271 -0.1270  0.0735
26939SOL    HW192876   7.308   0.264   8.443  0.4424 -0.4548  0.8380
26939SOL    HW292877   7.284   0.302   8.600 -0.3946  1.0786  0.3515
26940SOL     OW92878   1.299   6.265   9.059  0.2788  0.3293 -0.2207
26940SOL    HW192879   1.370   6.196   9.046  2.2307  2.2329 -0.0080
26940SOL    HW292880   1.232   6.259   8.986  2.0459  0.1252 -1.8602
26941SOL     OW92881   6.336   0.670   1.483 -0.0615 -0.2531  0.2596
26941SOL    HW192882   6.346   0.621   1.570 -0.1432  0.5054  0.7007
26941SOL    HW292883   6.414   0.731   1.470  0.1803 -0.7032 -0.4229
26942SOL     OW92884   1.577   2.246   1.037  0.1172 -0.3409 -0.1558
26942SOL    HW192885   1.499   2.220   0.979 -0.4215 -0.7794  0.7597
26942SOL    HW292886   1.611   2.336   1.008 -1.7943  0.6402  0.4924
26943SOL     OW92887   7.754   0.444   5.129  0.1090  0.1549  0.2210
26943SOL    HW192888   7.719   0.426   5.221 -0.3496  2.2049  0.4754
26943SOL    HW292889   7.843   0.490   5.135 -0.3478  1.1333 -0.3196
26944SOL     OW92890   8.324   4.189   8.618  0.0834 -0.3390  0.7173
26944SOL    HW192891   8.364   4.197   8.709  0.2402  0.6770  0.5695
26944SOL    HW292892   8.288   4.097   8.604 -3.0098  0.4209  3.1012
26945SOL     OW92893   9.499   8.218   8.957  0.2370  0.7989  0.3284
26945SOL    HW192894   9.459   8.273   9.030 -2.0818 -0.0484 -0.2653
26945SOL    HW292895   9.465   8.250   8.869  1.6295  0.6574 -0.2839
26946SOL     OW92896   8.988   4.974   2.797  0.0268 -0.4083 -0.0529
26946SOL    HW192897   8.939   5.015   2.874 -0.2986 -0.8717 -0.0134
26946SOL    HW292898   8.948   5.007   2.711 -0.9582 -1.4957 -0.0212
26947SOL     OW92899   6.087   5.116   0.632  0.8576  0.4067  0.5533
26947SOL    HW192900   6.098   5.119   0.533  0.0117  0.6686  0.4590
26947SOL    HW292901   6.102   5.023   0.664 -1.8051 -0.3400 -0.2089
26948SOL     OW92902   1.931   8.220   9.075 -0.1517 -0.3430  0.1530
26948SOL    HW192903   1.898   8.253   9.164 -0.0670  1.8937 -0.6058
26948SOL    HW292904   1.864   8.158   9.035 -1.7296  1.2514  0.2858
26949SOL     OW92905   1.143   3.168   0.219 -0.1374 -0.1594  0.3690
26949SOL    HW192906   1.104   3.179   0.128  1.5271  0.5135 -0.2736
26949SOL    HW292907   1.088   3.102   0.271  0.5965 -2.8299 -2.1228
26950SOL     OW92908   1.756   4.694   9.720 -0.6358  0.0981  0.1696
26950SOL    HW192909   1.810   4.777   9.731 -1.6028  0.4334  2.7187
26950SOL    HW292910   1.813   4.614   9.741 -0.7725  0.3909  1.7594
26951SOL     OW92911   9.677   2.399   9.564 -0.1832  0.5029 -0.5083
26951SOL    HW192912   9.762   2.350   9.541  0.3360  1.0933  0.1366
26951SOL    HW292913   9.604   2.333   9.578  0.5187 -0.1079  0.3725
26952SOL     OW92914   9.010   4.066   3.398  0.3334  0.1179 -0.1763
26952SOL    HW192915   9.082   4.034   3.460 -0.9886 -0.1836  1.2471
26952SOL    HW292916   8.962   3.987   3.359  0.5142  0.3185 -0.8138
26953SOL     OW92917   0.471   1.294   0.543 -0.8879  0.2456  0.1389
26953SOL    HW192918   0.565   1.310   0.575 -1.0139 -0.0685  0.6877
26953SOL    HW292919   0.452   1.353   0.465 -0.8055  1.5576  1.0839
26954SOL     OW92920   1.223   6.528   1.511  0.3844 -0.2727 -0.0582
26954SOL    HW192921   1.212   6.511   1.609 -0.3299  0.1763 -0.0592
26954SOL    HW292922   1.320   6.546   1.491  0.6533 -1.1512  0.4349
26955SOL     OW92923   0.611   5.194   3.401  0.0361 -0.2476 -0.2420
26955SOL    HW192924   0.526   5.142   3.391 -0.7220  1.0280 -0.6632
26955SOL    HW292925   0.589   5.291   3.414  1.4303  0.0746 -0.1791
26956SOL     OW92926   9.385   4.987   0.103 -0.0881  0.0577  0.0648
26956SOL    HW192927   9.379   5.068   0.045  0.7340 -0.8409 -1.3151
26956SOL    HW292928   9.318   4.919   0.073  0.7214 -0.6319 -0.2004
26957SOL     OW92929   9.276   2.939   1.421 -0.7475  0.2192 -0.3150
26957SOL    HW192930   9.214   2.976   1.491  1.8314 -0.1774  2.2477
26957SOL    HW292931   9.237   2.856   1.382 -0.3649 -1.9419  3.6859
26958SOL     OW92932   8.629   7.129   4.371 -0.3822 -0.7063  0.4573
26958SOL    HW192933   8.544   7.077   4.369  0.5223 -2.2685 -2.9879
26958SOL    HW292934   8.614   7.219   4.330 -1.1694  0.4753  3.2606
26959SOL     OW92935   8.334   5.746   7.365 -0.3037  0.0594  0.0202
26959SOL    HW192936   8.407   5.776   7.426 -1.2574  1.3093  0.5597
26959SOL    HW292937   8.252   5.726   7.419 -0.7281 -0.1957 -0.7108
26960SOL     OW92938   2.546   2.718   5.651  0.0927  0.0578  0.1411
26960SOL    HW192939   2.546   2.619   5.665  0.7837 -0.1351 -1.1497
26960SOL    HW292940   2.547   2.764   5.740 -0.6283 -1.0856  0.7548
26961SOL     OW92941   4.254   3.127   4.295 -0.3980  0.1107 -0.4873
26961SOL    HW192942   4.227   3.218   4.261  0.8215  0.4633 -0.5534
26961SOL    HW292943   4.266   3.131   4.394 -0.1394  0.0716 -0.5181
26962SOL     OW92944   2.479   2.480   6.830 -0.0181  0.1523  0.0405
26962SOL    HW192945   2.441   2.444   6.915 -2.2785  1.8847 -0.1911
26962SOL    HW292946   2.571   2.516   6.846 -0.6851  1.0630  1.9178
26963SOL     OW92947   6.637   5.950   0.784  0.5137  0.2664  0.3190
26963SOL    HW192948   6.636   5.872   0.721 -0.6122  0.5403 -0.0045
26963SOL    HW292949   6.587   5.928   0.867  1.2981  0.1976  0.7820
26964SOL     OW92950   8.176   9.901   4.024 -0.3102 -0.2815 -0.5218
26964SOL    HW192951   8.161   9.820   4.080  0.2370 -1.2721 -1.7871
26964SOL    HW292952   8.266   9.940   4.044 -0.5549  0.0014  0.0516
26965SOL     OW92953   8.839   0.921   1.839 -0.1563  0.8472 -0.2027
26965SOL    HW192954   8.866   0.832   1.803  1.4061  0.8520  0.8893
26965SOL    HW292955   8.797   0.910   1.929 -1.1323  1.1168 -0.6139
26966SOL     OW92956   8.583   5.559   1.863  0.2007 -0.0743 -0.6155
26966SOL    HW192957   8.635   5.613   1.797  1.3630 -0.7663 -0.2781
26966SOL    HW292958   8.646   5.506   1.920 -0.7065  1.7671  2.1854
26967SOL     OW92959   0.482   4.487   8.031  0.2584 -0.1480 -0.2640
26967SOL    HW192960   0.505   4.568   7.977  0.9260  0.5086  0.9898
26967SOL    HW292961   0.416   4.431   7.981 -1.6494  2.1129 -0.3472
26968SOL     OW92962   0.087   0.914   6.468  0.1651 -0.7514 -0.0512
26968SOL    HW192963   0.094   0.863   6.554 -3.4951  2.1042  2.0901
26968SOL    HW292964   0.015   0.874   6.411 -0.2378 -0.1709  0.0481
26969SOL     OW92965   3.883   2.580   6.537  0.3122  0.4035 -0.6021
26969SOL    HW192966   3.981   2.566   6.530  0.3026 -0.3056  0.6359
26969SOL    HW292967   3.842   2.573   6.446  1.5384  1.8673 -1.2922
26970SOL     OW92968   9.654   5.427   9.181  0.3731 -0.1281 -0.2712
26970SOL    HW192969   9.593   5.365   9.130  0.7014  0.0464 -0.8791
26970SOL    HW292970   9.720   5.373   9.232  0.4593 -0.2898 -0.5500
26971SOL     OW92971   3.671   0.308   0.097 -0.1796 -0.0038  0.1483
26971SOL    HW192972   3.649   0.357   0.012 -1.1398 -0.7271 -0.0267
26971SOL    HW292973   3.636   0.215   0.092  3.1117 -1.2671 -0.1771
26972SOL     OW92974   7.810   5.028   4.149 -0.4892  0.0094 -0.1719
26972SOL    HW192975   7.795   5.110   4.092 -0.5741 -0.0369 -0.2164
26972SOL    HW292976   7.903   5.029   4.185 -0.0297 -0.6052 -1.3400
26973SOL     OW92977   2.833   8.206   4.560 -0.4028  0.3713 -0.4594
26973SOL    HW192978   2.746   8.243   4.594 -0.7025 -0.8123  0.0730
26973SOL    HW292979   2.816   8.122   4.508  0.2567  1.0954 -1.8694
26974SOL     OW92980   2.465   9.675   6.786 -0.1786 -0.1812 -0.3335
26974SOL    HW192981   2.399   9.655   6.858 -0.6780 -1.9253 -1.2448
26974SOL    HW292982   2.516   9.758   6.809 -0.1031 -0.8827  2.1721
26975SOL     OW92983   3.971   6.530   2.255  0.3590 -0.3614  0.1856
26975SOL    HW192984   3.977   6.628   2.271 -0.0082  0.1801 -2.6662
26975SOL    HW292985   4.063   6.491   2.249  0.5025 -0.2513  1.5668
26976SOL     OW92986   1.686   7.707   5.145  0.1606 -0.3483  0.5508
26976SOL    HW192987   1.664   7.668   5.056  0.3530 -1.0542  0.8104
26976SOL    HW292988   1.686   7.635   5.215 -1.7534  0.4676  1.4407
26977SOL     OW92989   8.024   8.140   3.927  0.0972  0.5402  0.1283
26977SOL    HW192990   8.119   8.118   3.950  0.6476  0.9262 -1.6972
26977SOL    HW292991   8.020   8.180   3.836 -1.9598 -0.5528 -0.3004
26978SOL     OW92992   4.021   3.773   8.301 -0.6299  0.4610 -0.3487
26978SOL    HW192993   3.978   3.747   8.387 -0.8915  2.4628  0.1601
26978SOL    HW292994   4.119   3.787   8.315 -0.4581 -0.3809 -0.6590
26979SOL     OW92995   2.497   1.040   7.974  0.2025 -0.8131 -0.4916
26979SOL    HW192996   2.488   0.968   7.904 -0.7234 -0.6523 -0.5469
26979SOL    HW292997   2.482   1.129   7.931 -0.2379 -0.7051 -0.1054
26980SOL     OW92998   1.357   2.087   7.513 -0.2368 -0.4567 -0.5848
26980SOL    HW192999   1.303   2.112   7.432  1.7156 -0.4081 -1.8855
26980SOL    HW293000   1.396   2.170   7.554 -0.9980 -0.5092  0.2642
26981SOL     OW93001   5.412   1.509   0.411 -0.1082 -0.2908  0.4590
26981SOL    HW193002   5.335   1.446   0.422  0.6280 -1.0443  1.3444
26981SOL    HW293003   5.437   1.547   0.500  1.4378 -1.1225  0.3924
26982SOL     OW93004   2.725   6.355   1.137 -0.0879  0.2842  0.6312
26982SOL    HW193005   2.653   6.425   1.136  0.9459  1.3715  0.7548
26982SOL    HW293006   2.683   6.264   1.137 -1.4553  0.8912 -0.0358
26983SOL     OW93007   7.280   8.805   2.791 -0.9767 -0.0977  0.3813
26983SOL    HW193008   7.346   8.792   2.718 -3.8051  1.0872 -2.4996
26983SOL    HW293009   7.280   8.725   2.851  0.2727 -1.8308 -1.8687
26984SOL     OW93010   2.888   5.744   1.994  0.2342  0.2815 -0.0800
26984SOL    HW193011   2.914   5.753   2.090  0.4537  1.5128 -0.2460
26984SOL    HW293012   2.947   5.677   1.950  2.0815  1.8475 -0.0543
26985SOL     OW93013   0.736   0.569   5.153 -0.1660 -0.0522 -0.7883
26985SOL    HW193014   0.718   0.630   5.076  0.4624 -0.4472 -1.2598
26985SOL    HW293015   0.733   0.621   5.239  1.3750  0.8735 -1.2654
26986SOL     OW93016   2.982   7.489   4.245 -0.4862 -0.0408  0.3676
26986SOL    HW193017   2.949   7.472   4.338 -0.6915 -1.7243  0.0015
26986SOL    HW293018   3.059   7.429   4.225 -1.3018 -0.6512 -1.0169
26987SOL     OW93019   9.936   2.946   0.525 -0.0591  0.1073 -0.1955
26987SOL    HW193020   9.978   2.986   0.443 -1.7946  1.8642 -0.2683
26987SOL    HW293021   9.905   2.853   0.504  0.0146  0.3372 -1.3664
26988SOL     OW93022   3.355   3.345   1.893 -0.4733  0.1485  0.0319
26988SOL    HW193023   3.364   3.401   1.810 -0.7574 -0.8366 -0.6659
26988SOL    HW293024   3.437   3.289   1.904 -1.3525 -1.3012 -0.7542
26989SOL     OW93025   0.469   9.933   7.309 -0.4449  0.5682 -0.8378
26989SOL    HW193026   0.461   9.863   7.239  0.5094 -0.0415 -0.3398
26989SOL    HW293027   0.549   9.989   7.292 -1.3423  1.7070 -1.3772
26990SOL     OW93028   2.705   3.308   4.984  0.3749  0.3912 -0.0926
26990SOL    HW193029   2.625   3.334   5.037 -2.1200 -0.6285 -3.1661
26990SOL    HW293030   2.717   3.209   4.988  2.4391  0.6724  1.5605
26991SOL     OW93031   6.794   0.421   5.990  0.1988 -0.6261 -0.7399
26991SOL    HW193032   6.738   0.367   5.927 -0.3383 -1.5179  0.4885
26991SOL    HW293033   6.744   0.503   6.017 -0.9240 -1.8662  1.0603
26992SOL     OW93034   2.698   5.630   4.751  0.3324 -0.4058 -0.0260
26992SOL    HW193035   2.741   5.555   4.700 -0.4477 -0.1288 -1.0970
26992SOL    HW293036   2.633   5.593   4.817 -0.2821 -0.6648 -0.7719
26993SOL     OW93037   9.905   7.579   7.950 -0.3599 -0.1607 -0.7182
26993SOL    HW193038   9.832   7.598   8.015 -0.0703 -0.7308 -0.2273
26993SOL    HW293039   9.912   7.481   7.936 -0.3477 -0.0456 -1.5286
26994SOL     OW93040   2.354   2.821   2.681 -0.3018  0.2429  0.2173
26994SOL    HW193041   2.415   2.780   2.748 -0.6028 -0.6377 -0.0409
26994SOL    HW293042   2.375   2.785   2.590 -0.5144  0.7226 -0.0210
26995SOL     OW93043   3.697   0.315   4.807 -1.0517 -0.3705 -0.7406
26995SOL    HW193044   3.720   0.360   4.893 -2.5479  0.2340 -0.6537
26995SOL    HW293045   3.761   0.239   4.792  1.0912  1.3495 -0.5737
26996SOL     OW93046   1.008   3.635   0.930 -0.6612  0.3715 -0.0813
26996SOL    HW193047   0.980   3.631   0.834 -0.5578 -0.6762 -0.0732
26996SOL    HW293048   1.076   3.564   0.948  0.8340  1.8850  0.2885
26997SOL     OW93049   3.994   7.977   5.500  0.3272 -0.0531  0.1143
26997SOL    HW193050   3.958   7.966   5.407 -0.2971  0.8369  0.2415
26997SOL    HW293051   4.093   7.984   5.497  0.2778  0.4205 -0.5372
26998SOL     OW93052   1.391   8.385   8.739  0.3688  0.4081  0.1996
26998SOL    HW193053   1.477   8.345   8.707  1.8426  2.6064  1.3052
26998SOL    HW293054   1.341   8.318   8.793 -0.3225 -2.0759 -3.3655
26999SOL     OW93055   4.091   2.348   8.338 -0.1712 -0.2757  0.3777
26999SOL    HW193056   4.137   2.396   8.263  0.0376  0.5511  1.0145
26999SOL    HW293057   4.070   2.414   8.411 -2.6815 -0.5732 -0.0448
27000SOL     OW93058   3.192   3.371   4.332 -0.1246 -0.5102 -0.0230
27000SOL    HW193059   3.104   3.335   4.366 -0.2410  0.9706  1.2915
27000SOL    HW293060   3.216   3.324   4.247 -1.1684 -2.3990  0.6924
27001SOL     OW93061   3.358   9.501   5.999  0.3035  0.0425  0.2857
27001SOL    HW193062   3.345   9.412   5.957  1.5285  0.0256 -0.0851
27001SOL    HW293063   3.289   9.565   5.964  0.5839 -0.2776 -0.8841
27002SOL     OW93064   4.625   7.433   2.656 -0.2495  0.5467  0.4721
27002SOL    HW193065   4.713   7.385   2.654 -1.0922 -1.0392  0.6036
27002SOL    HW293066   4.602   7.464   2.564 -0.7318 -1.2612 -0.0417
27003SOL     OW93067   6.603   3.798   0.733 -0.0020 -0.2444 -0.3795
27003SOL    HW193068   6.669   3.844   0.674 -1.0410  0.6039 -0.8758
27003SOL    HW293069   6.652   3.748   0.805  1.1513  1.0054 -0.2900
27004SOL     OW93070   0.419   3.350   2.514  0.7331  0.1344  0.0568
27004SOL    HW193071   0.505   3.300   2.527  0.2647 -0.6398  0.2501
27004SOL    HW293072   0.425   3.439   2.559  0.8896 -0.5467  1.4019
27005SOL     OW93073   8.996   6.136   1.332  0.1029  0.8539  0.0000
27005SOL    HW193074   9.040   6.109   1.418  2.8115 -1.9407 -2.1679
27005SOL    HW293075   9.057   6.196   1.281  0.1374 -0.5688 -1.6683
27006SOL     OW93076   1.954   7.164   3.363 -0.0081  0.1098  0.1772
27006SOL    HW193077   2.038   7.155   3.417 -1.4728 -0.9794  2.3446
27006SOL    HW293078   1.952   7.093   3.293 -0.2775 -1.4955  1.7707
27007SOL     OW93079   9.709   8.086   0.742  0.4486 -0.1700  0.0783
27007SOL    HW193080   9.783   8.127   0.795  1.2987 -0.8986 -0.5388
27007SOL    HW293081   9.690   8.143   0.662  0.5250 -0.1226  0.0941
27008SOL     OW93082   8.734   5.396  10.018  0.4735 -0.7022 -0.4894
27008SOL    HW193083   8.807   5.332   9.992  2.7582  1.8738 -0.6767
27008SOL    HW293084   8.714   5.457   9.941 -0.7890 -0.3868  0.0806
27009SOL     OW93085   8.497   3.571   4.507  0.2009 -0.1086 -0.2405
27009SOL    HW193086   8.479   3.505   4.580  2.3441 -0.7124 -0.2301
27009SOL    HW293087   8.410   3.601   4.467 -0.8769 -1.6607  0.8844
27010SOL     OW93088   2.933   4.050   3.493  0.6436  0.6490 -0.4332
27010SOL    HW193089   2.983   3.990   3.555  1.8416 -0.5839 -2.5341
27010SOL    HW293090   2.968   4.144   3.500  0.9023  0.4743  0.5860
27011SOL     OW93091   0.459   9.418   0.442 -0.1645 -0.3618 -0.0657
27011SOL    HW193092   0.424   9.502   0.401  0.0684 -0.7341 -1.0325
27011SOL    HW293093   0.538   9.386   0.391 -2.0472 -2.7964 -1.5453
27012SOL     OW93094   2.455   0.391   2.717 -0.7009 -0.1705  0.2218
27012SOL    HW193095   2.475   0.484   2.745  0.8611 -0.6016  0.5517
27012SOL    HW293096   2.440   0.334   2.797 -1.6132 -0.2250  0.0217
27013SOL     OW93097   7.327   5.392   0.867 -0.1502  0.0596 -0.3338
27013SOL    HW193098   7.313   5.346   0.779  1.1028  0.5151 -0.7859
27013SOL    HW293099   7.367   5.327   0.932  1.2439  0.3945 -0.8514
27014SOL     OW93100   7.496   6.974   3.920  0.7749 -0.9084  0.1256
27014SOL    HW193101   7.562   7.014   3.984  0.1817 -1.5932  1.1778
27014SOL    HW293102   7.502   7.021   3.832  0.3087  1.2583  1.2355
27015SOL     OW93103   2.150   3.398   0.777  0.0487 -0.0280 -0.3221
27015SOL    HW193104   2.144   3.347   0.863  0.6272 -0.0603 -0.2974
27015SOL    HW293105   2.058   3.421   0.746 -0.1783 -0.2708  0.1530
27016SOL     OW93106   3.389   4.563   1.601  0.8549 -0.2488 -0.2976
27016SOL    HW193107   3.311   4.612   1.641  0.8883 -0.8736  0.5341
27016SOL    HW293108   3.368   4.541   1.505  0.4488  0.5386 -0.3926
27017SOL     OW93109   8.943   8.925   4.583  0.1051 -0.1697  0.3412
27017SOL    HW193110   8.862   8.919   4.525  0.9717  1.2794 -1.0678
27017SOL    HW293111   8.942   9.011   4.634  0.7960 -0.0850  0.2270
27018SOL     OW93112   8.967   9.054   2.411 -0.2760 -0.4002 -0.0497
27018SOL    HW193113   9.043   9.085   2.353 -0.5119 -0.1377 -0.2193
27018SOL    HW293114   9.003   8.999   2.486  0.2556  1.3160  0.9634
27019SOL     OW93115   4.609   9.277   7.564 -0.1267  0.0303  0.1929
27019SOL    HW193116   4.573   9.300   7.654 -1.6405  0.0530 -0.4027
27019SOL    HW293117   4.681   9.209   7.573 -0.4963 -0.2057  1.3866
27020SOL     OW93118   7.291   6.593   6.270  0.0510 -0.2661 -0.0397
27020SOL    HW193119   7.311   6.687   6.243 -0.1486 -0.5021 -1.0163
27020SOL    HW293120   7.331   6.576   6.360  0.0223  0.7727  0.1813
27021SOL     OW93121   1.504   8.833   2.391 -0.0205 -0.0807 -0.4488
27021SOL    HW193122   1.535   8.777   2.468  0.6235  1.6849  0.6134
27021SOL    HW293123   1.583   8.859   2.335 -0.1972  0.5096 -0.4231
27022SOL     OW93124   3.051   7.257   8.464  0.1151 -0.0820  0.7712
27022SOL    HW193125   3.012   7.273   8.555  1.9576 -1.0622  1.7555
27022SOL    HW293126   2.993   7.192   8.414 -0.2987 -0.4216  1.6748
27023SOL     OW93127   0.195   8.123   2.385 -0.5501  0.4397  0.7971
27023SOL    HW193128   0.110   8.114   2.437  1.1202 -0.4000  3.4249
27023SOL    HW293129   0.264   8.061   2.422  1.6565  2.1055 -0.4240
27024SOL     OW93130   7.719   2.605   3.937 -0.2555 -0.0819  0.7424
27024SOL    HW193131   7.758   2.606   4.029 -0.5213 -0.6127  0.8590
27024SOL    HW293132   7.725   2.697   3.898  0.3233  0.0344  1.0923
27025SOL     OW93133   4.699   7.842   7.951 -0.0239  0.3942  0.1424
27025SOL    HW193134   4.638   7.845   7.872  0.0620 -2.3732 -0.0793
27025SOL    HW293135   4.655   7.790   8.025  1.0728  0.4528  0.8432
27026SOL     OW93136   1.493   3.488   1.508  0.0766 -0.2144 -0.3637
27026SOL    HW193137   1.549   3.461   1.585 -0.2796  0.6568  0.2083
27026SOL    HW293138   1.539   3.463   1.422  0.5954 -0.9231  0.1225
27027SOL     OW93139   2.453   5.942   5.814 -0.5441 -0.1958  0.3412
27027SOL    HW193140   2.406   5.871   5.762 -0.6009 -0.6738  1.0500
27027SOL    HW293141   2.421   6.032   5.783 -1.8712 -0.5063  0.7657
27028SOL     OW93142   7.145   2.182   0.544  0.0140  0.2958  0.1353
27028SOL    HW193143   7.229   2.131   0.523 -1.1666 -1.9228  0.6921
27028SOL    HW293144   7.130   2.181   0.642 -2.2430 -1.9512 -0.1802
27029SOL     OW93145   0.961   9.490   9.805 -0.4443 -0.0105 -0.0552
27029SOL    HW193146   0.939   9.417   9.870  0.2934  1.1715  1.5495
27029SOL    HW293147   0.876   9.535   9.777 -0.9660 -1.8140 -1.4924
27030SOL     OW93148   2.244   3.534   7.252 -0.1741 -0.3307  0.1418
27030SOL    HW193149   2.265   3.477   7.173  2.1384  0.3664  0.2256
27030SOL    HW293150   2.308   3.514   7.326 -0.8702  0.6445  1.0294
27031SOL     OW93151   4.046   5.761   2.349  0.4119 -0.1490 -0.3390
27031SOL    HW193152   4.014   5.666   2.351  0.2968 -0.1633 -1.9809
27031SOL    HW293153   3.972   5.821   2.318  0.9568  0.2575 -0.8905
27032SOL     OW93154   4.399   5.495   8.295  0.3198  0.5624 -0.3983
27032SOL    HW193155   4.414   5.396   8.302  0.0641  0.6408  1.4727
27032SOL    HW293156   4.314   5.512   8.245 -0.9982 -0.2615  1.5039
27033SOL     OW93157   7.943   2.136   6.409  0.0413  0.3433 -0.2073
27033SOL    HW193158   7.998   2.053   6.400  0.4364  0.7597 -1.7225
27033SOL    HW293159   7.992   2.202   6.466  1.1751  0.7485 -1.6153
27034SOL     OW93160   1.694   8.361   4.610  0.4193  0.2561 -0.2545
27034SOL    HW193161   1.778   8.310   4.593  1.1549  1.3983 -0.0805
27034SOL    HW293162   1.707   8.424   4.687 -0.5041  0.6257 -0.3918
27035SOL     OW93163   7.490   0.153   6.968  0.0086 -0.6951 -0.5527
27035SOL    HW193164   7.542   0.085   6.917 -0.4664 -2.0047  0.6749
27035SOL    HW293165   7.485   0.238   6.915  0.5096 -1.6378 -2.1482
27036SOL     OW93166   0.586   7.478   6.244 -0.3306 -0.1696 -0.2388
27036SOL    HW193167   0.554   7.395   6.197  0.8469 -0.3354 -0.7742
27036SOL    HW293168   0.656   7.522   6.188 -0.9233  1.1672  0.0724
27037SOL     OW93169   2.168   9.025   2.961 -0.3368 -0.1596 -0.0967
27037SOL    HW193170   2.163   9.117   3.000 -0.5871  0.1746 -0.8981
27037SOL    HW293171   2.259   9.009   2.924 -0.1295 -0.4380  0.5302
27038SOL     OW93172   8.318   5.714   8.879 -0.7664 -0.0654  0.4671
27038SOL    HW193173   8.336   5.715   8.977  1.2920 -1.0657  0.1377
27038SOL    HW293174   8.389   5.766   8.832 -0.9973 -0.7061 -0.6019
27039SOL     OW93175   4.114   8.931   3.160 -0.4015  0.5197 -0.3458
27039SOL    HW193176   4.130   8.832   3.152 -0.0674  0.6258 -1.0540
27039SOL    HW293177   4.153   8.965   3.245 -1.5150 -0.1617  0.4539
27040SOL     OW93178   3.115   3.171   7.172 -0.2074  0.0820 -0.2167
27040SOL    HW193179   3.171   3.127   7.242  0.1130  4.2837  2.3338
27040SOL    HW293180   3.172   3.197   7.094  0.0141 -1.8042 -0.7146
27041SOL     OW93181   5.188   7.411   2.468 -0.0447  0.1372  0.1890
27041SOL    HW193182   5.153   7.343   2.533  1.6783 -0.7570  0.2061
27041SOL    HW293183   5.244   7.478   2.517  0.0714  0.2947 -0.1595
27042SOL     OW93184   0.773   2.131   9.914  0.0885  0.0387  0.0082
27042SOL    HW193185   0.756   2.229   9.929 -1.5029 -0.1436 -0.5173
27042SOL    HW293186   0.746   2.080   9.995 -0.4193 -0.0990 -0.2457
27043SOL     OW93187   7.045   9.066   4.659  0.5101  0.4193 -0.2925
27043SOL    HW193188   7.075   9.057   4.754 -1.3463  2.0923  0.4855
27043SOL    HW293189   7.022   8.976   4.622 -0.0111 -0.0939  1.2640
27044SOL     OW93190   1.647   5.734   8.234  0.4372 -0.1586  0.3057
27044SOL    HW193191   1.623   5.757   8.140 -0.4669  0.9484  0.7981
27044SOL    HW293192   1.572   5.683   8.276  0.4796  0.0969  0.6954
27045SOL     OW93193   7.791   5.029   3.385  0.2692  0.0521 -0.1194
27045SOL    HW193194   7.806   5.126   3.369 -0.7282  0.2715  0.2592
27045SOL    HW293195   7.693   5.009   3.382  0.3053 -0.5337  2.1291
27046SOL     OW93196   8.603   2.359   7.478 -0.7403  0.1398 -0.5403
27046SOL    HW193197   8.543   2.316   7.411 -0.1717 -0.4596 -0.6632
27046SOL    HW293198   8.592   2.459   7.474 -0.3114  0.1354 -1.8934
27047SOL     OW93199   5.220   6.566   1.269  0.1247 -0.1088  0.0490
27047SOL    HW193200   5.147   6.631   1.286 -0.0684 -0.5711  1.0483
27047SOL    HW293201   5.294   6.610   1.218 -0.5361  0.5468 -0.3361
27048SOL     OW93202   7.485   6.817   7.619  0.8081  0.2167 -0.5611
27048SOL    HW193203   7.393   6.792   7.587  0.4057  1.8600 -0.7460
27048SOL    HW293204   7.483   6.830   7.718  0.5077  1.5348 -0.7226
27049SOL     OW93205   3.736   1.564   2.348  0.8156 -0.1115  0.3503
27049SOL    HW193206   3.765   1.468   2.349 -0.1645 -0.4044  1.8841
27049SOL    HW293207   3.736   1.600   2.441  1.6580  1.5456 -0.2563
27050SOL     OW93208   5.460   7.798   8.386 -0.7312 -0.0769  0.3518
27050SOL    HW193209   5.438   7.810   8.289 -1.2757 -1.1478  0.3432
27050SOL    HW293210   5.525   7.869   8.414 -1.0353  0.6009 -0.6434
27051SOL     OW93211   7.387   1.184   0.376 -0.1494  0.6943 -0.3153
27051SOL    HW193212   7.329   1.258   0.412  2.1280  1.6279  1.5385
27051SOL    HW293213   7.395   1.193   0.277 -1.9883  1.3956 -0.4196
27052SOL     OW93214   1.547   8.072   9.924 -0.1972  0.0275 -0.2800
27052SOL    HW193215   1.575   8.104   9.833 -0.6914  2.0256  0.2494
27052SOL    HW293216   1.448   8.057   9.925 -0.1851 -0.0391 -0.0728
27053SOL     OW93217   5.829   2.435   9.581  0.4270 -0.1861  0.3818
27053SOL    HW193218   5.924   2.462   9.565  0.0122  0.0243 -1.8127
27053SOL    HW293219   5.827   2.346   9.627  1.6823 -0.3904  0.0566
27054SOL     OW93220   2.074   3.585   3.993  0.0825  0.1286  0.0611
27054SOL    HW193221   2.099   3.531   4.074  0.9442 -1.0202 -0.9537
27054SOL    HW293222   1.975   3.582   3.981 -0.0523  0.2839  1.0494
27055SOL     OW93223   8.214   2.845   5.137  0.3118  0.6642  0.4198
27055SOL    HW193224   8.256   2.765   5.095  3.7994  1.5413  1.9689
27055SOL    HW293225   8.193   2.826   5.233  1.3094  1.5941  0.8438
27056SOL     OW93226   4.614   9.546   6.830 -0.2012 -0.0524  0.9467
27056SOL    HW193227   4.522   9.531   6.796 -0.2335 -3.0067  2.1778
27056SOL    HW293228   4.617   9.630   6.884 -1.8080  0.8014 -0.2498
27057SOL     OW93229   0.600   2.723   5.423  0.4601  0.2819  0.2202
27057SOL    HW193230   0.658   2.788   5.471 -0.3307  1.9124 -0.9527
27057SOL    HW293231   0.589   2.640   5.478  4.0935 -0.2059  0.3314
27058SOL     OW93232   7.835   1.280   9.179 -0.8491 -0.8824  0.0175
27058SOL    HW193233   7.827   1.376   9.152  1.7877 -0.2813  1.1583
27058SOL    HW293234   7.895   1.233   9.114 -0.4963 -1.2507  0.6082
27059SOL     OW93235   9.293   5.464   8.812  0.1084 -0.7188 -0.0740
27059SOL    HW193236   9.297   5.384   8.873 -1.1021 -1.1969 -0.5913
27059SOL    HW293237   9.321   5.436   8.720  0.6715 -0.3019 -0.0285
27060SOL     OW93238   1.013   3.057   1.651 -0.3566 -0.0635 -0.4112
27060SOL    HW193239   0.989   2.996   1.727  3.7707  0.4130  1.3635
27060SOL    HW293240   1.032   3.003   1.570 -1.6379 -0.7760 -0.2541
27061SOL     OW93241   1.885   1.119   8.505  0.1531  0.4032 -0.3279
27061SOL    HW193242   1.901   1.190   8.436 -2.8063  0.5943 -0.8691
27061SOL    HW293243   1.793   1.081   8.493  0.7675 -1.7738  1.5510
27062SOL     OW93244   0.808   4.215   5.726  0.3837  0.4978 -0.5486
27062SOL    HW193245   0.794   4.268   5.810 -0.1579  0.9405 -0.9140
27062SOL    HW293246   0.749   4.134   5.728 -0.8485  1.3646 -1.2276
27063SOL     OW93247   6.298   1.717   9.909 -0.3635 -0.4318 -0.0711
27063SOL    HW193248   6.212   1.729   9.959  0.1254 -2.2037  1.2338
27063SOL    HW293249   6.304   1.624   9.874  2.1447 -1.1144  2.0607
27064SOL     OW93250   7.219   0.521   6.285  0.4419  0.0956 -0.6053
27064SOL    HW193251   7.291   0.493   6.349  0.3678  1.0644 -0.0953
27064SOL    HW293252   7.206   0.449   6.217  0.8024 -0.7688  0.2228
27065SOL     OW93253   0.966   5.116   4.147  0.0681  0.2384 -0.3870
27065SOL    HW193254   1.016   5.111   4.061 -1.1596 -0.4828 -1.0599
27065SOL    HW293255   1.005   5.189   4.204  1.6898 -0.1178 -1.0191
27066SOL     OW93256   3.090   2.930   6.085  0.2490  0.2516  0.0825
27066SOL    HW193257   3.157   2.862   6.057 -1.5004 -1.8481  0.7923
27066SOL    HW293258   3.128   2.987   6.158  0.7539 -1.9609  1.6020
27067SOL     OW93259   7.431   1.063   6.378  0.1309  0.2853  0.1797
27067SOL    HW193260   7.421   0.967   6.350  0.7687  0.3858 -0.4135
27067SOL    HW293261   7.447   1.067   6.476  2.4925 -0.4088 -0.1241
27068SOL     OW93262   9.654   6.055   2.691 -0.2337  0.2821  0.1044
27068SOL    HW193263   9.720   6.129   2.704  0.3752 -0.3393  0.6051
27068SOL    HW293264   9.565   6.083   2.726  0.5099 -0.0022  2.2838
27069SOL     OW93265   4.044   0.189   2.366 -0.1123 -0.0120  0.3806
27069SOL    HW193266   4.026   0.223   2.459  0.9973  0.4492  0.4303
27069SOL    HW293267   4.113   0.246   2.322 -1.2543  0.2808 -1.0509
27070SOL     OW93268   1.194   5.382   8.953 -0.1243 -0.2201 -0.4444
27070SOL    HW193269   1.173   5.290   8.920  1.1232 -0.0838 -1.6503
27070SOL    HW293270   1.264   5.377   9.024 -0.1769 -0.2266 -0.3931
27071SOL     OW93271   5.248   3.294   9.604 -0.5313  0.0330  0.1038
27071SOL    HW193272   5.312   3.316   9.531 -0.9612 -0.7448 -0.5166
27071SOL    HW293273   5.189   3.219   9.574 -1.1914  0.2066  0.9732
27072SOL     OW93274   3.083   0.113   1.571  0.3320  0.3136  0.1682
27072SOL    HW193275   3.063   0.021   1.538  0.3706 -0.2014  1.5653
27072SOL    HW293276   3.018   0.139   1.642  0.4023  1.3123 -0.1190
27073SOL     OW93277   3.844   3.043   9.802 -0.2874 -0.1027 -0.3781
27073SOL    HW193278   3.911   3.112   9.777  0.9503 -0.9492  0.5522
27073SOL    HW293279   3.839   3.036   9.902  0.5265 -2.2376 -0.4697
27074SOL     OW93280   8.406   7.242   9.148 -0.7995 -0.5642  0.0820
27074SOL    HW193281   8.421   7.176   9.222 -1.2614  0.5463  1.1745
27074SOL    HW293282   8.338   7.309   9.176 -0.6461  0.1402 -1.1879
27075SOL     OW93283   4.089   0.752   6.362  0.4730  0.7251  0.0950
27075SOL    HW193284   4.138   0.665   6.373  0.5199  0.8724  1.0797
27075SOL    HW293285   4.074   0.794   6.452 -0.5324  1.1989 -0.2861
27076SOL     OW93286   0.892   8.310   9.415 -0.5433  0.5672 -0.1684
27076SOL    HW193287   0.797   8.327   9.387 -0.5199  1.8513  0.5136
27076SOL    HW293288   0.953   8.330   9.339 -0.8290 -0.7295 -0.7733
27077SOL     OW93289   3.019   9.767   3.097 -0.5526 -0.6736  0.4300
27077SOL    HW193290   3.016   9.667   3.093 -1.6257 -0.6052 -1.3033
27077SOL    HW293291   3.104   9.799   3.056 -0.3014 -0.8652  0.7987
27078SOL     OW93292   9.880   7.625   9.756 -0.4747 -0.2777 -0.9129
27078SOL    HW193293   9.971   7.589   9.776 -0.6482 -0.6380 -0.7699
27078SOL    HW293294   9.828   7.633   9.841 -0.7265 -0.4853 -1.0479
27079SOL     OW93295   1.145   0.680   6.198 -0.4801  0.4796 -0.9780
27079SOL    HW193296   1.052   0.711   6.175 -0.8854 -0.2171 -0.2945
27079SOL    HW293297   1.143   0.583   6.222  0.2831  0.6704 -0.1152
27080SOL     OW93298   7.653   3.443   1.805  0.6340 -0.4446 -0.3066
27080SOL    HW193299   7.697   3.368   1.756 -1.3852 -1.2669 -0.9446
27080SOL    HW293300   7.554   3.428   1.806  0.3750  1.1580  1.3631
27081SOL     OW93301   0.796   8.685   1.853  0.3185 -0.5464 -0.3021
27081SOL    HW193302   0.823   8.589   1.850  1.5349 -0.1770 -1.5351
27081SOL    HW293303   0.863   8.740   1.804  1.1462  1.2779  2.6976
27082SOL     OW93304   8.493   5.734   3.605  0.6921 -0.4150  0.0060
27082SOL    HW193305   8.418   5.680   3.567  0.7052  0.1408 -0.8101
27082SOL    HW293306   8.497   5.720   3.704 -0.2653 -0.7234  0.0056
27083SOL     OW93307   5.354   8.954   4.872 -0.1981 -0.1040  0.1894
27083SOL    HW193308   5.444   8.915   4.852 -0.3393 -0.0089 -0.6188
27083SOL    HW293309   5.330   9.022   4.803 -2.0321 -1.9898 -1.0892
27084SOL     OW93310   9.831   9.391   4.016  0.3437 -0.6633  0.1527
27084SOL    HW193311   9.870   9.300   3.999  1.3712  0.1232 -1.8638
27084SOL    HW293312   9.732   9.382   4.027  0.2057 -1.8620 -1.7115
27085SOL     OW93313   4.425   4.794   0.107  0.5329 -0.2942 -0.2781
27085SOL    HW193314   4.372   4.747   0.177 -2.0004  2.3500 -0.3264
27085SOL    HW293315   4.407   4.754   0.017 -1.6302  0.7172 -0.3266
27086SOL     OW93316   2.040   8.173   1.862 -0.0431 -0.0438  0.1544
27086SOL    HW193317   2.064   8.262   1.821 -1.3460 -0.2267 -1.0216
27086SOL    HW293318   2.066   8.100   1.799  0.2479 -0.4482  0.7523
27087SOL     OW93319   9.401   1.277   3.467  0.1036  0.2367  0.2017
27087SOL    HW193320   9.473   1.209   3.477  1.2344  1.3846  0.0901
27087SOL    HW293321   9.412   1.324   3.379 -0.2746  0.9938  0.5536
27088SOL     OW93322   0.099   9.442   6.984 -0.2671 -0.1012  0.8701
27088SOL    HW193323   0.173   9.425   7.049  0.7008  0.9516  0.0586
27088SOL    HW293324   0.063   9.355   6.952  1.7158 -0.6473  0.0433
27089SOL     OW93325   0.870   5.566   0.846  0.1619  0.6551 -0.8578
27089SOL    HW193326   0.771   5.573   0.845  0.2453  1.7029 -2.2703
27089SOL    HW293327   0.900   5.531   0.935 -1.3916  1.3933 -0.0316
27090SOL     OW93328   5.452   7.483   2.784 -0.0379 -0.2469 -0.2032
27090SOL    HW193329   5.468   7.419   2.708 -0.6724  0.5851 -1.0518
27090SOL    HW293330   5.481   7.440   2.870  2.9951 -0.3163 -1.1833
27091SOL     OW93331   7.707   3.935   5.160  0.4080 -0.0922 -0.3671
27091SOL    HW193332   7.625   3.879   5.167  0.3008 -0.2225 -2.4815
27091SOL    HW293333   7.787   3.880   5.183  0.4232 -1.4955 -3.5090
27092SOL     OW93334   2.363   1.291   8.337 -0.2005 -0.0296 -0.3633
27092SOL    HW193335   2.461   1.309   8.324  0.2041 -1.7216  0.2048
27092SOL    HW293336   2.344   1.195   8.315 -1.1802 -0.5027  2.4133
27093SOL     OW93337   4.825   4.883   0.422 -0.3748 -0.0329  0.1373
27093SOL    HW193338   4.850   4.786   0.428  0.7649  0.4148  3.3305
27093SOL    HW293339   4.906   4.940   0.435 -1.2502  1.3568 -0.4031
27094SOL     OW93340   3.857   4.588   2.690 -0.2312  0.0071  0.0865
27094SOL    HW193341   3.853   4.658   2.762 -0.8132  0.0482  0.0183
27094SOL    HW293342   3.946   4.592   2.645  0.2085 -0.1456  0.9326
27095SOL     OW93343   3.670   1.438   0.049  0.6479  0.3235 -0.3690
27095SOL    HW193344   3.720   1.378   0.110 -0.2509  1.3605  1.4221
27095SOL    HW293345   3.691   1.533   0.071 -1.4279  0.7544 -0.1457
27096SOL     OW93346   4.333   6.650   2.144 -0.2494 -0.2178 -0.5527
27096SOL    HW193347   4.324   6.554   2.169 -0.5964 -0.0085  0.1250
27096SOL    HW293348   4.372   6.702   2.220  0.0929  0.1519 -0.9718
27097SOL     OW93349   3.456   9.265   6.632 -0.0161  0.2488  0.2906
27097SOL    HW193350   3.388   9.276   6.560 -0.7210 -2.5666  0.4787
27097SOL    HW293351   3.410   9.252   6.720  0.7842  0.0215  0.6836
27098SOL     OW93352   3.107   6.440   3.357 -0.8767 -0.2955 -0.1389
27098SOL    HW193353   3.081   6.404   3.267 -1.8278  1.8498 -0.7611
27098SOL    HW293354   3.156   6.526   3.345  1.7340 -1.5129  1.2935
27099SOL     OW93355   3.878   7.519   4.968 -0.8271  0.4252  0.1743
27099SOL    HW193356   3.941   7.455   4.923 -0.4006  0.7623  0.2861
27099SOL    HW293357   3.822   7.469   5.035 -0.0989  0.2667  0.6716
27100SOL     OW93358   4.687   2.247   2.202  0.4190  0.0772  0.3204
27100SOL    HW193359   4.622   2.319   2.177  2.4682  2.3708  1.2499
27100SOL    HW293360   4.747   2.228   2.123  0.5690  0.1761  0.4106
27101SOL     OW93361   4.430   0.925   1.662  0.0950  0.5968  0.9632
27101SOL    HW193362   4.372   1.006   1.667 -1.0754 -0.0390 -1.3481
27101SOL    HW293363   4.496   0.935   1.587  0.6155 -0.1328  1.3189
27102SOL     OW93364   1.052   3.860   1.749 -0.3574  0.5441 -0.1551
27102SOL    HW193365   1.108   3.939   1.726  1.1132 -0.2503  0.6252
27102SOL    HW293366   1.008   3.825   1.666  0.6268  0.9289 -0.8483
27103SOL     OW93367   7.183   9.680   7.169 -0.0190 -0.1999 -0.6886
27103SOL    HW193368   7.121   9.662   7.093  0.7084 -2.3998 -0.8038
27103SOL    HW293369   7.235   9.763   7.151 -2.1123  1.0513 -1.1089
27104SOL     OW93370   7.533   1.742   7.817 -0.3236 -0.0911  0.5149
27104SOL    HW193371   7.549   1.644   7.821  0.4062  0.0292  0.6312
27104SOL    HW293372   7.621   1.791   7.816 -0.6631  0.5181 -0.8170
27105SOL     OW93373   3.198   8.146   8.661  0.2841 -0.4209 -0.1940
27105SOL    HW193374   3.139   8.150   8.581 -0.1952 -1.3010  0.1132
27105SOL    HW293375   3.156   8.197   8.736  0.4765 -0.0540 -0.3329
27106SOL     OW93376   7.888   2.884   4.851  0.3444 -0.2001 -0.0581
27106SOL    HW193377   7.988   2.897   4.851  0.2497  0.7199 -2.3987
27106SOL    HW293378   7.858   2.858   4.760 -1.7672  1.0045  0.2644
27107SOL     OW93379   1.248   1.678   8.812 -0.7238  0.4162 -0.2562
27107SOL    HW193380   1.277   1.582   8.811  1.7676  1.1381 -0.2078
27107SOL    HW293381   1.172   1.689   8.877  0.6583 -1.0625  1.6865
27108SOL     OW93382   5.352   1.444   2.435 -0.0597 -0.1173  0.1133
27108SOL    HW193383   5.450   1.424   2.439  0.2870  1.6668  0.8333
27108SOL    HW293384   5.319   1.430   2.342  1.1392  0.5054 -0.4139
27109SOL     OW93385   0.867   5.887   3.180 -0.6938  0.0406 -0.1162
27109SOL    HW193386   0.886   5.831   3.099 -0.1152 -0.9002  0.6566
27109SOL    HW293387   0.948   5.890   3.238 -1.5733 -0.5698  1.1836
27110SOL     OW93388   3.237   5.865   7.114 -0.3670  0.0255  0.3726
27110SOL    HW193389   3.302   5.853   7.189 -1.3481  0.1756  1.2518
27110SOL    HW293390   3.205   5.960   7.113  0.0490  0.1672 -0.5804
27111SOL     OW93391   1.013   0.689   0.572  0.4004  0.2237 -0.0892
27111SOL    HW193392   0.957   0.737   0.505  0.4824  0.5511  0.0782
27111SOL    HW293393   1.104   0.672   0.533  0.0086 -0.8293 -0.5817
27112SOL     OW93394   0.497   1.256   1.530 -0.1659 -0.4297  0.2374
27112SOL    HW193395   0.539   1.294   1.612 -0.6214  1.5383 -0.4164
27112SOL    HW293396   0.400   1.278   1.528  0.0403  0.4559 -1.3097
27113SOL     OW93397   8.332   8.819   9.585  0.1018  0.1395  0.3018
27113SOL    HW193398   8.424   8.852   9.563  0.9421 -1.1501  1.7452
27113SOL    HW293399   8.314   8.832   9.682 -0.5984 -1.1107  0.3540
27114SOL     OW93400   8.652   1.179   8.735  0.4605  0.6038  0.0447
27114SOL    HW193401   8.713   1.252   8.766 -0.6929  0.2583  3.2258
27114SOL    HW293402   8.686   1.091   8.769 -0.0045  0.0292 -0.9685
27115SOL     OW93403   1.240   9.977   9.747 -0.2516 -0.0241 -0.0493
27115SOL    HW193404   1.245  10.076   9.734 -2.7982  0.0266 -0.7923
27115SOL    HW293405   1.318   9.934   9.700  2.3706  1.7564  2.4786
27116SOL     OW93406   1.860   1.649   6.738 -0.2640 -0.2550  0.1665
27116SOL    HW193407   1.762   1.662   6.722 -0.3160 -0.3515  0.4068
27116SOL    HW293408   1.878   1.651   6.836  0.3324  2.2687  0.0222
27117SOL     OW93409   8.491   2.600   6.696  0.1618 -0.4795 -0.3676
27117SOL    HW193410   8.533   2.517   6.658 -0.0003 -0.2984 -0.9415
27117SOL    HW293411   8.518   2.679   6.640  0.0621 -0.1875 -0.0027
27118SOL     OW93412   6.731   4.210   0.822 -0.0657 -0.7598 -0.4509
27118SOL    HW193413   6.808   4.273   0.806 -0.2453 -0.2706  0.5955
27118SOL    HW293414   6.709   4.162   0.737  0.5736  0.0304 -1.0663
27119SOL     OW93415   7.436   7.541   7.762  0.0640 -0.1673  0.4476
27119SOL    HW193416   7.421   7.596   7.844 -0.6124  1.4009 -0.7115
27119SOL    HW293417   7.533   7.518   7.754 -0.2104 -2.5391  3.0484
27120SOL     OW93418   7.736   6.527   2.482  0.2170 -0.4849  0.7895
27120SOL    HW193419   7.815   6.569   2.439  1.5420 -2.1523  1.5242
27120SOL    HW293420   7.751   6.520   2.581 -0.0299 -2.4635  0.7140
27121SOL     OW93421   3.703   3.087   5.532  0.1653  0.2027  0.5247
27121SOL    HW193422   3.689   3.161   5.466  1.1809  0.4016  0.5310
27121SOL    HW293423   3.792   3.045   5.517 -1.0428 -2.0798 -0.5328
27122SOL     OW93424   3.527   9.140   5.614  0.5844  0.3954  0.0096
27122SOL    HW193425   3.553   9.237   5.615  0.9799  0.3035 -0.9725
27122SOL    HW293426   3.522   9.106   5.708  2.1918  0.9045  0.2909
27123SOL     OW93427   3.621   5.150   2.363  0.5756  0.2413 -0.1765
27123SOL    HW193428   3.719   5.162   2.376  0.3876  1.7984 -0.1270
27123SOL    HW293429   3.592   5.196   2.279  0.1455 -1.5607 -1.0464
27124SOL     OW93430   4.362   7.362   4.073 -0.6128 -0.6155 -0.2135
27124SOL    HW193431   4.388   7.356   3.976  0.3282  0.9375 -0.0678
27124SOL    HW293432   4.433   7.318   4.129 -0.5930 -0.5004 -0.1481
27125SOL     OW93433   2.012   1.817   6.358 -0.0739 -0.8576  0.6852
27125SOL    HW193434   2.082   1.751   6.330 -0.9799 -1.6830  0.3215
27125SOL    HW293435   2.034   1.907   6.320  1.5767 -0.7616  1.8080
27126SOL     OW93436   7.064   6.084   2.223 -0.0639 -0.3421  0.0360
27126SOL    HW193437   7.100   5.991   2.230 -0.7927 -0.6931 -0.8082
27126SOL    HW293438   7.130   6.142   2.175 -0.3010 -0.8023 -0.8396
27127SOL     OW93439   3.935   4.337   7.817 -0.7312  0.4080  0.0663
27127SOL    HW193440   3.887   4.424   7.829 -2.0904 -0.3476  0.2126
27127SOL    HW293441   3.987   4.340   7.732 -1.3657  1.0918 -0.3096
27128SOL     OW93442   6.847   2.912   2.322  0.0459 -0.6006 -0.7753
27128SOL    HW193443   6.845   3.006   2.357 -0.3892 -0.8631 -0.0690
27128SOL    HW293444   6.762   2.893   2.273 -0.3619 -0.9748  0.0522
27129SOL     OW93445   8.244   9.576   8.626 -0.3820  0.1173  0.0119
27129SOL    HW193446   8.295   9.636   8.565  0.9452 -2.0709 -1.1107
27129SOL    HW293447   8.146   9.583   8.607 -0.1297  0.9455 -0.9922
27130SOL     OW93448   1.058   3.762   9.977  0.4531 -0.8298  0.6253
27130SOL    HW193449   1.033   3.666   9.991 -0.0683 -0.9070 -0.7412
27130SOL    HW293450   1.154   3.776   9.998  1.3397 -2.3337 -2.1841
27131SOL     OW93451   7.311   7.238   3.250  0.2576 -0.3944 -0.0437
27131SOL    HW193452   7.411   7.234   3.246  0.3728  2.3835 -0.8544
27131SOL    HW293453   7.282   7.260   3.343  0.2820 -3.0719  0.6367
27132SOL     OW93454   6.985   9.477   6.667 -0.3808 -0.1153 -0.0601
27132SOL    HW193455   6.947   9.509   6.580 -0.8549  0.5890  0.3956
27132SOL    HW293456   7.065   9.531   6.691  0.0749 -0.6672 -0.3211
27133SOL     OW93457   1.499   2.462   3.254 -0.4678 -0.0540 -0.8040
27133SOL    HW193458   1.416   2.496   3.296  1.7005  1.0642  2.7909
27133SOL    HW293459   1.549   2.537   3.211  0.0756 -0.2028 -0.4433
27134SOL     OW93460   0.456   8.069   2.886 -0.1756  0.3654 -0.1970
27134SOL    HW193461   0.515   8.137   2.844 -0.2968 -0.8734 -2.4194
27134SOL    HW293462   0.426   8.003   2.818 -1.2000 -1.1274  1.6294
27135SOL     OW93463   6.860   7.430   6.229  0.4816 -0.2938  0.0627
27135SOL    HW193464   6.860   7.516   6.278  1.2866  0.8153 -1.8251
27135SOL    HW293465   6.954   7.406   6.203 -0.0615 -0.0616 -2.2186
27136SOL     OW93466   3.133   1.973   4.716  0.2694 -0.8093 -0.0170
27136SOL    HW193467   3.215   2.019   4.751 -0.3507 -0.3613  0.8482
27136SOL    HW293468   3.053   2.029   4.734  0.1628  0.6903 -4.4032
27137SOL     OW93469   5.240   9.495   2.215  0.4778  0.3451 -0.0272
27137SOL    HW193470   5.314   9.550   2.178 -1.0154  1.2737 -1.6992
27137SOL    HW293471   5.161   9.499   2.154 -0.0610 -2.7637  0.3599
27138SOL     OW93472   1.752   1.147   7.358  0.2119 -0.3501  0.2474
27138SOL    HW193473   1.772   1.084   7.433  0.2736  0.2327  0.7197
27138SOL    HW293474   1.670   1.200   7.379  0.5050  0.1568  0.1199
27139SOL     OW93475   8.686   5.734   6.019  0.2139  0.6205 -0.3322
27139SOL    HW193476   8.613   5.672   5.992 -0.5292  1.1673  0.4037
27139SOL    HW293477   8.737   5.763   5.938 -2.7706  3.2468 -1.3758
27140SOL     OW93478   1.268   8.088   2.072 -0.3274 -0.8715  0.3177
27140SOL    HW193479   1.254   8.143   2.155 -1.5744 -2.0306  0.8873
27140SOL    HW293480   1.241   8.141   1.992 -0.3379 -0.2100  0.7484
27141SOL     OW93481   1.628   9.038   5.296 -0.2836  0.3763  0.4137
27141SOL    HW193482   1.606   9.132   5.273  0.7262  0.3102 -0.8671
27141SOL    HW293483   1.562   8.976   5.253 -1.2002  0.5107  1.6032
27142SOL     OW93484   4.804   5.672   8.997  0.1923  0.1027 -0.2014
27142SOL    HW193485   4.785   5.684   8.899  0.0043 -0.1602 -0.1982
27142SOL    HW293486   4.902   5.674   9.012  0.2901 -1.0968 -0.5694
27143SOL     OW93487   6.353   0.584   1.751 -0.1599 -0.4758  0.2765
27143SOL    HW193488   6.300   0.503   1.778  0.1735 -0.3695  1.2916
27143SOL    HW293489   6.411   0.612   1.827 -1.2574  1.5290  0.4240
27144SOL     OW93490   3.109   0.897   6.269  0.3960 -0.3681  0.0125
27144SOL    HW193491   3.179   0.841   6.314  1.3107  0.1668 -0.7097
27144SOL    HW293492   3.061   0.842   6.200 -0.1124 -0.8249  0.7310
27145SOL     OW93493   0.450   9.019   8.333  0.3880  0.3341  0.1046
27145SOL    HW193494   0.548   9.040   8.333  0.5386 -0.3360 -1.3949
27145SOL    HW293495   0.434   8.935   8.385  0.6699  0.2419  0.0470
27146SOL     OW93496   9.977   0.382   4.628  0.1685  0.1287 -0.0807
27146SOL    HW193497   9.902   0.408   4.568 -0.9517 -0.6889  0.9446
27146SOL    HW293498  10.059   0.435   4.605 -1.1193  2.0747 -0.2421
27147SOL     OW93499   9.574   3.261   7.151  0.1423 -0.1796  0.1357
27147SOL    HW193500   9.655   3.221   7.109  0.4457  1.5196 -0.9219
27147SOL    HW293501   9.594   3.354   7.182 -1.9342  0.9839 -1.8877
27148SOL     OW93502   2.229   0.875   6.996  0.0632  0.6041  0.0972
27148SOL    HW193503   2.214   0.915   6.906 -1.4271  0.0408  0.0715
27148SOL    HW293504   2.242   0.777   6.987 -2.4206  0.1898  0.6673
27149SOL     OW93505   2.739   2.051   2.269  0.1286 -0.0678  0.0900
27149SOL    HW193506   2.767   2.018   2.360  1.1542 -1.8714 -0.8538
27149SOL    HW293507   2.639   2.052   2.264  0.0049  2.0643  1.9389
27150SOL     OW93508   0.439   5.954   4.784 -0.3016 -0.0669  0.1936
27150SOL    HW193509   0.508   6.026   4.771  0.5533 -0.8270  0.5152
27150SOL    HW293510   0.405   5.925   4.695  1.7921 -1.6120 -0.1553
27151SOL     OW93511   7.781   7.640   7.337  0.0631  0.4206 -0.0999
27151SOL    HW193512   7.723   7.628   7.418 -2.6544 -0.8169 -2.1547
27151SOL    HW293513   7.836   7.558   7.323  0.1639  0.4343  0.2098
27152SOL     OW93514   0.076   2.900   0.744 -0.2488  0.1888 -0.4729
27152SOL    HW193515   0.026   2.934   0.665  2.4583  0.1553 -2.2740
27152SOL    HW293516   0.013   2.887   0.821 -3.1912 -1.0803 -2.9979
27153SOL     OW93517   0.121   5.656   7.362 -0.4475  0.7091  0.4096
27153SOL    HW193518   0.143   5.672   7.459  0.3623  1.4361  0.1136
27153SOL    HW293519   0.206   5.653   7.309 -0.8155 -0.7433 -0.1335
27154SOL     OW93520   3.664   8.303   6.066  0.1675  0.1489 -0.1553
27154SOL    HW193521   3.707   8.316   6.156  0.2730 -0.8088 -0.0546
27154SOL    HW293522   3.640   8.391   6.027  0.7848  0.6121  0.4981
27155SOL     OW93523   7.778   9.348   5.097  0.5151  0.1767  0.4234
27155SOL    HW193524   7.741   9.385   5.012 -0.3674 -0.1404  0.6597
27155SOL    HW293525   7.840   9.414   5.139 -0.5937  1.1653  0.5448
27156SOL     OW93526   9.490   7.707   1.187 -0.7188  0.5728 -0.0630
27156SOL    HW193527   9.518   7.653   1.108 -1.2870  1.1726 -0.6755
27156SOL    HW293528   9.542   7.793   1.189  1.7251 -0.8964  2.0846
27157SOL     OW93529   8.024   6.495   6.680 -0.6126  0.1477  0.2580
27157SOL    HW193530   8.022   6.414   6.620 -1.8939 -0.2555  0.8252
27157SOL    HW293531   7.930   6.526   6.696 -0.1486  1.5327  0.3501
27158SOL     OW93532   3.358   6.539   3.114  0.0189 -0.3729 -0.0247
27158SOL    HW193533   3.332   6.593   3.035  2.4543  1.3329  0.2735
27158SOL    HW293534   3.419   6.465   3.086  0.5726 -0.0003  0.1701
27159SOL     OW93535   2.767   9.353   8.536  0.3213  0.0896  0.0092
27159SOL    HW193536   2.814   9.378   8.451  0.5761  0.9405  0.3994
27159SOL    HW293537   2.824   9.289   8.588  0.5001  0.1549 -0.1055
27160SOL     OW93538   3.895   8.989   0.362  0.3957  0.2766  0.4761
27160SOL    HW193539   3.864   8.906   0.314  1.6609 -0.2287  0.5069
27160SOL    HW293540   3.964   9.035   0.307  1.5433 -0.0730  1.5981
27161SOL     OW93541   5.931   7.697   4.617  0.3347  0.1898  0.4457
27161SOL    HW193542   5.988   7.702   4.535 -0.5831 -0.8021 -0.2776
27161SOL    HW293543   5.978   7.741   4.693  1.5613  0.3982 -0.4113
27162SOL     OW93544   8.998   5.960   7.244 -0.6285 -0.3329  0.4326
27162SOL    HW193545   9.042   5.871   7.244 -0.0385 -0.0450 -0.1430
27162SOL    HW293546   9.024   6.010   7.326 -0.4315 -0.4369  0.4341
27163SOL     OW93547   9.023   7.667   8.332 -0.5217 -0.7742 -0.0328
27163SOL    HW193548   9.055   7.759   8.356 -0.0643 -0.9699  0.0990
27163SOL    HW293549   8.927   7.672   8.304 -0.2980 -0.1528 -0.7005
27164SOL     OW93550   3.802   8.652   1.211 -0.1130  0.0157  0.0389
27164SOL    HW193551   3.823   8.557   1.235  1.4298 -0.3816 -2.6858
27164SOL    HW293552   3.708   8.658   1.177  0.2847 -0.8458 -1.2483
27165SOL     OW93553   3.343   7.849   4.858  0.3193  0.2802 -0.0717
27165SOL    HW193554   3.269   7.810   4.912  0.0220 -0.6541 -1.1354
27165SOL    HW293555   3.306   7.913   4.791  0.4793 -0.1212 -0.5456
27166SOL     OW93556   8.448   6.513   0.359 -0.0261 -0.0478 -0.1241
27166SOL    HW193557   8.383   6.437   0.358 -0.6533  0.3921  2.7982
27166SOL    HW293558   8.537   6.480   0.389 -0.0810  0.2166  0.3264
27167SOL     OW93559   0.069   0.376   1.162  0.2361  0.1901  0.2962
27167SOL    HW193560   0.025   0.425   1.088  1.4290 -1.8268 -1.8395
27167SOL    HW293561   0.022   0.395   1.248 -0.8630  2.9769 -0.8762
27168SOL     OW93562   9.213   8.661   9.661  0.7754 -0.3934  0.4220
27168SOL    HW193563   9.265   8.676   9.577 -2.4432 -0.0333 -1.5819
27168SOL    HW293564   9.250   8.582   9.709  1.6282 -1.6443 -2.1927
27169SOL     OW93565   4.436   0.731   3.696 -0.3073  0.4470  0.0128
27169SOL    HW193566   4.411   0.667   3.623  1.8095 -0.9114  0.4360
27169SOL    HW293567   4.418   0.690   3.785 -0.8780  1.2661  0.2820
27170SOL     OW93568   1.316   0.280   7.507 -0.5223  0.4736 -0.1037
27170SOL    HW193569   1.337   0.322   7.419  1.9368 -0.7055 -0.1297
27170SOL    HW293570   1.308   0.351   7.577 -0.1981  1.2651 -0.8611
27171SOL     OW93571   5.894   9.169   5.738 -0.0905  0.6021 -0.0506
27171SOL    HW193572   5.812   9.227   5.730  0.8287  1.8671 -0.4278
27171SOL    HW293573   5.879   9.102   5.811 -1.4567  0.8349 -0.0908
27172SOL     OW93574   0.371   3.782   6.119  0.6121  0.3498  0.5142
27172SOL    HW193575   0.303   3.714   6.147  2.0810 -0.9637  0.9287
27172SOL    HW293576   0.324   3.868   6.095 -1.3584 -1.1653 -1.2008
27173SOL     OW93577   8.660   1.067   4.573 -0.4288 -0.0014 -0.9091
27173SOL    HW193578   8.576   1.117   4.593  0.2103  0.7909 -0.1498
27173SOL    HW293579   8.739   1.128   4.585  0.2074 -0.5009 -2.4135
27174SOL     OW93580   3.266   8.834   3.509  0.1966  0.3181 -0.0657
27174SOL    HW193581   3.284   8.924   3.549 -0.2708  0.4636 -0.1789
27174SOL    HW293582   3.346   8.805   3.455  0.7939  0.1582  0.8887
27175SOL     OW93583   5.147   8.345   6.232  0.7718 -0.2971 -0.1698
27175SOL    HW193584   5.142   8.251   6.197  0.6901 -0.1047 -0.6836
27175SOL    HW293585   5.070   8.398   6.196 -1.1283 -0.9001  2.8081
27176SOL     OW93586   9.295   9.922   1.499 -0.0828 -0.3751 -0.5209
27176SOL    HW193587   9.336   9.867   1.572 -1.8822  0.0620  0.8438
27176SOL    HW293588   9.343  10.010   1.493 -0.0284 -0.3488  0.2368
27177SOL     OW93589   0.194   2.973   2.453 -0.1059  0.3249  0.2323
27177SOL    HW193590   0.160   3.035   2.383  1.0070  0.5627 -0.1014
27177SOL    HW293591   0.231   3.026   2.530  0.4139  0.0747  0.1570
27178SOL     OW93592   1.110   7.200   2.833 -0.9095  0.1175  0.3856
27178SOL    HW193593   1.199   7.155   2.832 -0.6270  0.6815 -1.4768
27178SOL    HW293594   1.110   7.273   2.902  0.8668  1.6140 -1.1239
27179SOL     OW93595   2.295   0.798   5.609  0.0278  0.0068  0.0617
27179SOL    HW193596   2.381   0.826   5.651  1.4516 -3.0930 -0.6696
27179SOL    HW293597   2.233   0.761   5.678 -0.2886  1.1846  0.4152
27180SOL     OW93598   2.173   7.289   6.272  0.2799 -0.4130 -0.0662
27180SOL    HW193599   2.232   7.370   6.274  0.2350 -0.4036  0.8578
27180SOL    HW293600   2.077   7.318   6.268  0.2841 -0.4216 -0.2249
27181SOL     OW93601   3.948   1.797   5.405 -0.3514 -0.2704  0.2962
27181SOL    HW193602   3.912   1.714   5.446 -0.1067 -0.7401 -0.4290
27181SOL    HW293603   3.966   1.865   5.476 -2.0392 -0.2582  0.7211
27182SOL     OW93604   2.075   9.007   9.016  0.3615  0.5539 -0.0462
27182SOL    HW193605   2.005   9.027   9.084 -0.2608 -1.3528 -0.1104
27182SOL    HW293606   2.034   9.009   8.925  0.0770 -1.8440  0.0043
27183SOL     OW93607   9.581   7.075   4.927  0.1581  0.0682 -0.5397
27183SOL    HW193608   9.679   7.096   4.918  0.1761 -0.0086 -0.5207
27183SOL    HW293609   9.528   7.151   4.890  0.1966  1.2698  1.7928
27184SOL     OW93610   3.979   8.259   9.578  0.2765  0.3704  0.2649
27184SOL    HW193611   4.036   8.314   9.517  1.7159  0.7124  1.8721
27184SOL    HW293612   3.896   8.230   9.530  1.6124  0.1979 -1.9898
27185SOL     OW93613   3.399   9.031   9.171 -0.1636  0.3062  0.1579
27185SOL    HW193614   3.317   9.079   9.202 -0.9807 -0.3367 -0.9885
27185SOL    HW293615   3.447   8.992   9.250  0.0193  2.2059  1.0112
27186SOL     OW93616   4.514   2.552   5.283  0.0787  0.0418 -0.0720
27186SOL    HW193617   4.494   2.572   5.187 -0.2597 -1.6517 -0.3634
27186SOL    HW293618   4.432   2.569   5.338 -1.0236 -2.9246 -0.6889
27187SOL     OW93619   5.750   7.627   7.809 -0.7073  0.1847  0.1149
27187SOL    HW193620   5.796   7.641   7.897  1.4825  0.5002 -1.0365
27187SOL    HW293621   5.663   7.581   7.824  0.3794 -1.2633  2.3087
27188SOL     OW93622   9.871   8.259   3.443 -0.6133  0.3047 -0.2189
27188SOL    HW193623   9.822   8.346   3.453  0.6377  1.0858 -0.7253
27188SOL    HW293624   9.956   8.263   3.494 -1.1974 -1.1522  0.8874
27189SOL     OW93625   0.463   5.600   9.370 -0.0115  0.1221 -0.1688
27189SOL    HW193626   0.484   5.505   9.392 -0.9024 -0.1892 -0.6245
27189SOL    HW293627   0.501   5.661   9.440  1.9324 -0.4553 -0.7049
27190SOL     OW93628   3.389   4.047   5.607  0.5190 -0.7637  0.1792
27190SOL    HW193629   3.352   3.959   5.636  2.5404 -1.5354  0.4743
27190SOL    HW293630   3.473   4.032   5.554 -0.4705  0.8641 -1.9051
27191SOL     OW93631   1.058   4.226   6.071  0.6340  0.0060 -0.9130
27191SOL    HW193632   1.071   4.138   6.118  1.4934  0.0451 -1.0613
27191SOL    HW293633   1.106   4.223   5.983 -1.4176 -0.2732 -2.0695
27192SOL     OW93634   5.326   4.783   0.934  0.5585 -0.3630 -0.1992
27192SOL    HW193635   5.363   4.787   1.027  1.7914  1.2497 -0.7356
27192SOL    HW293636   5.310   4.875   0.901  2.2663 -0.8196 -2.4155
27193SOL     OW93637   9.427   3.362   4.197 -0.2275 -0.2509 -0.3886
27193SOL    HW193638   9.385   3.440   4.244 -1.2822 -0.7753 -0.4616
27193SOL    HW293639   9.361   3.320   4.135  0.8185 -0.2455 -1.5305
27194SOL     OW93640   8.317   0.249   8.741 -0.5232  0.1012 -0.1558
27194SOL    HW193641   8.406   0.205   8.731 -0.4770  0.3535 -0.8554
27194SOL    HW293642   8.309   0.288   8.833  0.9332  1.9243 -0.7868
27195SOL     OW93643   7.633   3.283   9.172  0.0199 -0.7022 -0.4503
27195SOL    HW193644   7.627   3.365   9.230 -0.1473 -1.2236  0.2857
27195SOL    HW293645   7.724   3.242   9.182 -0.1697 -1.0621 -0.1765
27196SOL     OW93646   7.321   0.649   7.181  0.4450  0.0146  0.4630
27196SOL    HW193647   7.261   0.583   7.136 -0.4311  0.6423  0.7125
27196SOL    HW293648   7.403   0.602   7.214 -0.3296 -1.0038  0.9420
27197SOL     OW93649   3.851   5.851   5.341  0.3513  0.6743 -0.7102
27197SOL    HW193650   3.760   5.811   5.326  0.3312 -0.0266  1.1781
27197SOL    HW293651   3.908   5.834   5.261 -0.8986  0.3165 -1.5429
27198SOL     OW93652   1.873   3.102   3.958  0.0208  0.3351  0.1356
27198SOL    HW193653   1.946   3.054   4.005  3.0733  3.3124 -1.3200
27198SOL    HW293654   1.874   3.199   3.986 -1.5563  0.9901 -1.9632
27199SOL     OW93655   7.320   3.654   1.414  0.5397 -0.3915 -0.3526
27199SOL    HW193656   7.397   3.594   1.437 -0.6403 -2.8146 -2.4370
27199SOL    HW293657   7.348   3.718   1.343  1.1097 -0.0995  0.1275
27200SOL     OW93658   9.459   5.059   1.143  0.0017 -0.0415 -0.5088
27200SOL    HW193659   9.545   5.007   1.141  1.2542  1.9461  0.5824
27200SOL    HW293660   9.407   5.035   1.225  0.0157 -0.4268 -0.6100
27201SOL     OW93661   2.918   8.576   8.325 -0.4826  0.2306 -0.3142
27201SOL    HW193662   2.985   8.508   8.293 -0.3393 -1.3021  3.0336
27201SOL    HW293663   2.826   8.547   8.299 -0.4389 -1.4117  1.1860
27202SOL     OW93664   8.888   2.372   6.390  0.3107 -0.3256 -0.4294
27202SOL    HW193665   8.875   2.468   6.416  1.1309 -0.5715  0.9163
27202SOL    HW293666   8.971   2.363   6.336 -0.5882 -0.0563 -1.9036
27203SOL     OW93667   3.097   9.998   6.566 -0.0718  0.2615 -0.1316
27203SOL    HW193668   3.056   9.909   6.582 -4.1261  1.6072 -2.1330
27203SOL    HW293669   3.186   9.987   6.523 -0.6441 -2.8208 -0.6368
27204SOL     OW93670   4.416   3.661   2.316 -0.2577  0.0869  0.1330
27204SOL    HW193671   4.417   3.566   2.347 -0.8650 -0.0623 -0.2977
27204SOL    HW293672   4.428   3.722   2.394  0.2974 -0.3482  0.3911
27205SOL     OW93673   2.600   3.367   9.419  0.6181  0.0574 -0.2732
27205SOL    HW193674   2.500   3.363   9.407  0.4295  1.8823  0.6923
27205SOL    HW293675   2.625   3.318   9.502  0.2181  2.0291  1.0436
27206SOL     OW93676   6.515   9.354   5.966 -0.1071 -0.4376 -0.0429
27206SOL    HW193677   6.491   9.426   5.901 -1.2834  1.5064  2.4435
27206SOL    HW293678   6.432   9.318   6.007  0.6885 -0.4685  1.5793
27207SOL     OW93679   7.685   8.679   4.087  0.5418  0.0527 -0.7571
27207SOL    HW193680   7.601   8.732   4.095  0.1598 -0.8975  2.0035
27207SOL    HW293681   7.763   8.738   4.108  0.2252 -0.0245  0.7550
27208SOL     OW93682   7.946   5.739   0.816 -0.4080 -0.0296 -0.1492
27208SOL    HW193683   7.961   5.812   0.882 -0.3859  0.0014 -0.1880
27208SOL    HW293684   7.963   5.650   0.859  1.4301  0.0774 -0.6394
27209SOL     OW93685   8.554   7.179   0.812  0.2112  0.1875 -0.1369
27209SOL    HW193686   8.637   7.187   0.757  0.0545  3.3766 -0.0038
27209SOL    HW293687   8.474   7.169   0.753  0.2822  1.2930 -0.4268
27210SOL     OW93688   3.343   6.251   5.393 -0.4595 -0.0738 -0.2155
27210SOL    HW193689   3.352   6.210   5.302  0.1753 -1.6201  0.5224
27210SOL    HW293690   3.402   6.201   5.457  0.6496  2.2727  0.6311
27211SOL     OW93691   6.563   1.594   5.495 -0.1293  0.1703  0.5100
27211SOL    HW193692   6.507   1.616   5.575 -1.7843  2.8518 -1.3323
27211SOL    HW293693   6.512   1.534   5.434  0.2785 -0.0174  0.3501
27212SOL     OW93694   0.333   6.387   8.559 -0.0166  0.1051  0.4295
27212SOL    HW193695   0.318   6.463   8.494 -0.2787  0.3201  0.7420
27212SOL    HW293696   0.279   6.403   8.642  0.3486 -0.1564  0.7147
27213SOL     OW93697   9.699   6.622   1.362 -0.6002 -0.5988 -0.6521
27213SOL    HW193698   9.680   6.715   1.330 -0.9016 -0.6050 -0.4985
27213SOL    HW293699   9.614   6.568   1.358 -0.8911 -0.3051  1.1567
27214SOL     OW93700   9.877   9.489   8.225  0.4714  0.0573 -0.2861
27214SOL    HW193701   9.833   9.416   8.172 -2.2930  1.2445  0.2610
27214SOL    HW293702   9.854   9.577   8.184 -0.4115  0.8971  1.9356
27215SOL     OW93703   4.549   2.815   2.992 -0.1094  0.6242  0.4510
27215SOL    HW193704   4.601   2.900   3.002  2.4936 -1.0288  1.4094
27215SOL    HW293705   4.587   2.745   3.052 -2.0389 -1.3347 -0.5249
27216SOL     OW93706   8.045   5.763   9.064  0.0217 -0.0358  0.0748
27216SOL    HW193707   8.034   5.846   9.009 -1.6976 -0.3346 -0.0776
27216SOL    HW293708   8.078   5.788   9.155  1.4779  0.6009 -0.6057
27217SOL     OW93709   2.672   6.250   9.570  0.4351  0.6792 -0.1289
27217SOL    HW193710   2.761   6.294   9.578  0.8142  0.0327 -0.7000
27217SOL    HW293711   2.653   6.230   9.473  0.2701 -0.3919  0.1149
27218SOL     OW93712   4.332   2.974   0.613 -0.1317 -0.2629  0.1897
27218SOL    HW193713   4.429   2.958   0.631 -0.2516  1.1528  2.3243
27218SOL    HW293714   4.296   3.039   0.680 -2.6669 -1.1131 -0.2853
27219SOL     OW93715   9.651   9.106   6.159 -0.1704  0.3680 -0.1788
27219SOL    HW193716   9.651   9.100   6.259  2.4318  1.2327 -0.0796
27219SOL    HW293717   9.717   9.176   6.131 -1.4792  0.6980 -2.4823
27220SOL     OW93718   5.573   2.279   8.851  0.2962  0.4329 -0.6073
27220SOL    HW193719   5.598   2.310   8.943  1.8024 -2.2019 -0.0746
27220SOL    HW293720   5.628   2.327   8.783  3.4021 -1.6895  0.2720
27221SOL     OW93721   0.447   1.191   3.866 -0.3415  0.0821 -1.4057
27221SOL    HW193722   0.395   1.112   3.833  0.4350 -1.2287  0.4620
27221SOL    HW293723   0.410   1.220   3.955  1.4403 -0.2234 -0.5516
27222SOL     OW93724   3.576   1.490   5.321 -0.1110 -0.4940  0.3844
27222SOL    HW193725   3.583   1.528   5.228  2.1187 -0.7475  0.4084
27222SOL    HW293726   3.585   1.564   5.387  0.7261 -0.5949  0.3970
27223SOL     OW93727   6.600   8.032   7.257 -0.2870  0.0134  0.4593
27223SOL    HW193728   6.592   8.130   7.272  1.4632  0.3899 -0.8894
27223SOL    HW293729   6.686   7.999   7.297 -0.0260 -0.6366 -0.6251
27224SOL     OW93730   1.691   5.682   0.845 -0.3373  0.0989  0.0492
27224SOL    HW193731   1.781   5.706   0.881 -0.5567  0.7789  0.1644
27224SOL    HW293732   1.660   5.755   0.783 -1.5941  0.7778  1.4342
27225SOL     OW93733   6.543   9.529   3.135 -0.4373 -0.8123 -0.4184
27225SOL    HW193734   6.496   9.486   3.059 -0.0506 -0.5774 -0.7925
27225SOL    HW293735   6.508   9.621   3.148  1.5417  0.2296 -2.2088
27226SOL     OW93736   9.900   2.037   0.116  0.3535 -0.9466  0.4576
27226SOL    HW193737   9.855   1.959   0.160 -1.2150 -0.5856 -0.4771
27226SOL    HW293738   9.838   2.080   0.051  1.8721 -0.0948 -0.4809
27227SOL     OW93739   1.821   0.292   5.761 -0.2902 -0.4571 -0.0284
27227SOL    HW193740   1.757   0.284   5.837 -1.7955 -1.9421 -1.4006
27227SOL    HW293741   1.869   0.204   5.749 -0.5256 -0.4295 -1.1859
27228SOL     OW93742   1.451   5.949   6.098  0.7058  0.2354  0.6614
27228SOL    HW193743   1.459   5.895   6.015  0.6691 -0.2392  0.9668
27228SOL    HW293744   1.508   6.031   6.090 -0.4459  0.9504 -0.4397
27229SOL     OW93745   8.468   8.136   8.411  0.0413  0.3435  0.3981
27229SOL    HW193746   8.385   8.189   8.432 -0.0145 -0.3349  1.9258
27229SOL    HW293747   8.517   8.116   8.496  1.3043 -0.0440 -0.4155
27230SOL     OW93748   6.012   1.462   0.043  0.2217  0.6345  0.0245
27230SOL    HW193749   6.003   1.556   0.010 -0.7900  0.6909  0.4648
27230SOL    HW293750   6.094   1.421   0.003  1.5132  2.1870  1.0209
27231SOL     OW93751   1.654   6.101   5.463 -0.0614 -0.0144  0.4988
27231SOL    HW193752   1.573   6.100   5.522 -0.5633 -1.3777 -0.1728
27231SOL    HW293753   1.717   6.172   5.494 -1.1653  0.5572  1.5039
27232SOL     OW93754   0.523   0.431   4.776  0.0833  0.9749  0.3119
27232SOL    HW193755   0.509   0.530   4.764 -1.9816  0.4790 -1.6455
27232SOL    HW293756   0.448   0.381   4.733  1.6083 -1.4968  0.4255
27233SOL     OW93757   8.373   1.273   6.456 -0.0951 -0.4760 -0.1252
27233SOL    HW193758   8.279   1.253   6.482 -0.2869 -0.6065 -0.9044
27233SOL    HW293759   8.402   1.208   6.385  0.3103  0.0705 -0.4617
27234SOL     OW93760   2.179   1.620   5.787  0.3822 -0.5354 -0.1097
27234SOL    HW193761   2.270   1.621   5.745  0.0372  1.7185 -0.8630
27234SOL    HW293762   2.110   1.644   5.718 -0.4697  0.5997  1.1064
27235SOL     OW93763   0.836   0.590   6.106  0.0256 -0.1663  0.0739
27235SOL    HW193764   0.758   0.607   6.045 -0.8722 -0.5817  1.0881
27235SOL    HW293765   0.805   0.535   6.184  2.0367 -3.2638 -1.2180
27236SOL     OW93766   2.861   2.067   4.879 -0.0450  0.2942 -0.6409
27236SOL    HW193767   2.773   2.056   4.833 -0.0368 -0.3680 -0.4995
27236SOL    HW293768   2.865   2.157   4.922 -0.7804  0.1918 -0.3607
27237SOL     OW93769   3.790   1.724   8.912  0.3765 -0.1364  0.4866
27237SOL    HW193770   3.775   1.626   8.900  4.2651 -0.4273 -3.1109
27237SOL    HW293771   3.718   1.775   8.865 -1.1664 -1.2198  1.6155
27238SOL     OW93772   8.846   4.880   3.663 -0.2658 -0.4263 -0.0890
27238SOL    HW193773   8.816   4.900   3.757  2.6969 -0.7924  0.9993
27238SOL    HW293774   8.886   4.789   3.660  1.9284  0.5509 -1.1531
27239SOL     OW93775   8.360   4.362   4.255 -0.0013  0.0039  0.1170
27239SOL    HW193776   8.360   4.271   4.298 -3.1676 -0.8246 -1.4926
27239SOL    HW293777   8.336   4.431   4.323 -0.0285 -0.6621  0.7924
27240SOL     OW93778   4.527   8.574   9.347  0.4163  0.0889 -0.3112
27240SOL    HW193779   4.430   8.599   9.349  0.1932 -0.5603 -1.8461
27240SOL    HW293780   4.541   8.504   9.277  1.8731 -0.3810  0.4319
27241SOL     OW93781   4.689   1.350   1.133 -0.5589  0.1481  0.3307
27241SOL    HW193782   4.652   1.283   1.069 -2.2808  2.0780 -0.7440
27241SOL    HW293783   4.733   1.424   1.083 -1.4934  1.4251  1.3498
27242SOL     OW93784   5.725   8.079   2.581 -0.0774 -0.7166 -0.2639
27242SOL    HW193785   5.670   7.995   2.576 -1.9791  0.5036 -0.5872
27242SOL    HW293786   5.818   8.057   2.608 -1.0781 -2.7201  1.6323
27243SOL     OW93787   9.649   4.067   5.009 -0.6371 -0.7563 -0.3055
27243SOL    HW193788   9.655   4.167   5.000  0.7147 -0.8950 -1.0637
27243SOL    HW293789   9.658   4.026   4.918 -3.0320 -1.4938 -0.2201
27244SOL     OW93790   4.948   8.283   2.697 -0.0772  0.3478 -0.1328
27244SOL    HW193791   4.893   8.200   2.701  2.8574 -1.6486  0.1842
27244SOL    HW293792   4.969   8.313   2.790 -0.7187  1.1984 -0.2529
27245SOL     OW93793   0.929   2.981   4.662 -0.0236  0.5557 -0.1475
27245SOL    HW193794   0.965   3.019   4.576 -1.0128  1.5770 -0.1296
27245SOL    HW293795   0.838   2.943   4.646  0.1309  0.0170  0.2735
27246SOL     OW93796   1.877   1.911   2.955  0.2728  0.4377  0.1252
27246SOL    HW193797   1.909   1.816   2.961 -0.6466  0.1640  0.8440
27246SOL    HW293798   1.864   1.936   2.859 -0.4499 -0.4876 -0.0201
27247SOL     OW93799   3.502   0.559   8.429  0.3515  0.2240 -0.2071
27247SOL    HW193800   3.570   0.601   8.488 -0.5787 -0.2775  1.2684
27247SOL    HW293801   3.433   0.512   8.486 -0.3786 -0.5543 -1.7002
27248SOL     OW93802   0.107   9.373   9.624 -0.0107 -0.3080  0.0645
27248SOL    HW193803   0.202   9.402   9.613  0.2508 -0.4839  1.7051
27248SOL    HW293804   0.053   9.404   9.545  1.1467  0.8634 -0.2813
27249SOL     OW93805   2.339   5.855   6.908 -0.3516  0.8038  0.1947
27249SOL    HW193806   2.264   5.845   6.974 -0.4742 -1.2216 -0.1921
27249SOL    HW293807   2.307   5.827   6.818  1.3065 -1.7718  0.3568
27250SOL     OW93808   4.121   0.689   8.144  0.1764  0.0667  0.4276
27250SOL    HW193809   4.073   0.608   8.110 -3.1008  1.2466  1.9853
27250SOL    HW293810   4.114   0.763   8.077  0.2028  0.0830  0.4424
27251SOL     OW93811   1.665   8.347   7.973  0.2702  0.1246  0.3427
27251SOL    HW193812   1.681   8.416   8.043 -0.4671  1.3660 -0.6876
27251SOL    HW293813   1.567   8.334   7.960  0.3975  0.1248 -0.6699
27252SOL     OW93814   2.690   7.100   9.277  0.8626  0.5951  0.5206
27252SOL    HW193815   2.738   7.078   9.192 -0.9090 -0.0028 -0.3462
27252SOL    HW293816   2.754   7.095   9.354  2.1725 -0.2259 -0.5978
27253SOL     OW93817   5.146   4.266   9.014  0.3409 -0.1813 -0.4236
27253SOL    HW193818   5.091   4.200   8.962  0.6621 -1.2948  0.6257
27253SOL    HW293819   5.235   4.277   8.969 -0.1305  0.4095 -1.2323
27254SOL     OW93820   8.382   0.799   8.985  0.3536  0.0425 -0.2927
27254SOL    HW193821   8.390   0.898   8.992  0.1223  0.0300  0.1610
27254SOL    HW293822   8.359   0.761   9.074  0.1232 -0.3909 -0.5356
27255SOL     OW93823   8.696   7.950   3.545 -0.0195 -0.0733  0.7436
27255SOL    HW193824   8.781   7.989   3.579 -0.7703 -0.3344  3.0146
27255SOL    HW293825   8.703   7.851   3.541  0.3073 -0.0105 -0.6136
27256SOL     OW93826   9.819   2.068   5.479 -0.3545  0.3453 -0.0633
27256SOL    HW193827   9.814   2.153   5.532 -2.7287 -0.2973  0.8260
27256SOL    HW293828   9.726   2.040   5.454  0.4860 -1.4982 -1.1480
27257SOL     OW93829   9.184   8.157  10.052  0.3245 -0.1636 -0.2286
27257SOL    HW193830   9.142   8.218  10.119 -0.1555 -0.2131 -0.4777
27257SOL    HW293831   9.276   8.188  10.031 -0.3454  1.1773 -1.2595
27258SOL     OW93832   6.809   0.481   5.325  0.1184 -0.0936 -0.8077
27258SOL    HW193833   6.821   0.513   5.231  0.0500  1.0479 -0.4370
27258SOL    HW293834   6.771   0.555   5.381  0.6696 -0.5836  0.2407
27259SOL     OW93835   9.208   8.640   3.496  0.1095 -0.8558  0.0365
27259SOL    HW193836   9.283   8.578   3.515  0.3964 -0.9478 -1.3679
27259SOL    HW293837   9.126   8.610   3.545  0.9904 -0.7047  1.6400
27260SOL     OW93838   5.001   1.660   9.412 -0.3241  0.3067  0.0136
27260SOL    HW193839   4.908   1.633   9.390 -0.2798  1.3194 -1.4894
27260SOL    HW293840   5.008   1.760   9.411  0.1979  0.3306  2.5559
27261SOL     OW93841   1.506   0.679   6.222  0.6444  0.2129 -0.3335
27261SOL    HW193842   1.535   0.763   6.176  1.7406 -0.7418 -1.4103
27261SOL    HW293843   1.467   0.616   6.155 -1.6992  0.4871  0.7236
27262SOL     OW93844   2.360   7.676   5.538 -0.2329 -0.0400  0.1898
27262SOL    HW193845   2.279   7.617   5.544  1.2210 -1.8305  3.4660
27262SOL    HW293846   2.436   7.623   5.498  0.9007 -0.2538  2.5517
27263SOL     OW93847   8.322   9.509   7.995 -0.3475 -0.0941 -0.1640
27263SOL    HW193848   8.389   9.440   8.022 -1.2428 -1.2182 -0.7710
27263SOL    HW293849   8.349   9.552   7.909 -0.3084 -0.4177 -0.3122
27264SOL     OW93850   4.921   8.986   8.856 -0.5294 -0.0598  0.5321
27264SOL    HW193851   4.925   8.889   8.881  0.4543 -0.3984 -0.8795
27264SOL    HW293852   4.887   8.995   8.762 -0.2628  0.9449  0.5259
27265SOL     OW93853   9.210   2.641   9.982  0.2268 -0.1916  0.3398
27265SOL    HW193854   9.156   2.720   9.952  0.3837  0.3504  1.4482
27265SOL    HW293855   9.307   2.659   9.964  0.4691  0.7725  2.4991
27266SOL     OW93856   4.273   4.407   9.246 -0.0376 -0.5160 -0.3626
27266SOL    HW193857   4.184   4.416   9.292 -0.1387 -0.2808 -0.5985
27266SOL    HW293858   4.341   4.373   9.310 -0.0953  0.1460  0.0507
27267SOL     OW93859   1.273   0.075   7.916 -0.3178  0.5685 -0.2060
27267SOL    HW193860   1.283   0.079   7.816  0.0538 -1.8500 -0.2971
27267SOL    HW293861   1.363   0.063   7.958 -0.5961  0.3820  0.3417
27268SOL     OW93862   0.919   8.593   8.128  0.4120 -0.2742  0.0704
27268SOL    HW193863   0.876   8.678   8.098  0.6041 -0.0482  0.4419
27268SOL    HW293864   0.881   8.516   8.076  0.3784  0.0615 -0.4010
27269SOL     OW93865   3.714   0.194   6.021 -0.1435  0.3305  0.0124
27269SOL    HW193866   3.688   0.110   6.067  0.2135  0.1937 -0.0320
27269SOL    HW293867   3.777   0.246   6.079 -1.1182  1.0299  0.4493
27270SOL     OW93868   2.437   6.422   2.220  0.2898 -0.4138  0.5490
27270SOL    HW193869   2.406   6.333   2.188  1.3961 -0.8821  0.7627
27270SOL    HW293870   2.527   6.413   2.262  1.0350  1.0181 -0.6776
27271SOL     OW93871   9.248   9.620   7.796 -0.6443 -0.3873 -0.3038
27271SOL    HW193872   9.285   9.634   7.705 -0.2554 -1.7984 -0.3632
27271SOL    HW293873   9.264   9.526   7.826 -0.2210  0.2104  1.4661
27272SOL     OW93874   8.021   1.668   4.654 -0.5114 -0.2607  0.4616
27272SOL    HW193875   7.968   1.647   4.573 -0.0506 -0.0571  0.1058
27272SOL    HW293876   7.983   1.750   4.699 -0.1813  0.1909 -0.0784
27273SOL     OW93877   8.184   3.027   3.858  0.4918 -0.2878  0.1000
27273SOL    HW193878   8.134   2.955   3.906  0.8948 -0.3512  0.4250
27273SOL    HW293879   8.148   3.116   3.886 -0.5781 -0.3843 -0.9387
27274SOL     OW93880   6.215   1.415   6.368 -0.6092  0.0143 -0.3166
27274SOL    HW193881   6.253   1.341   6.313 -2.1450 -0.8622 -0.2349
27274SOL    HW293882   6.127   1.386   6.407  0.4746  0.5788  2.6484
27275SOL     OW93883   9.537   6.856   6.189  0.3174  0.0501 -0.2829
27275SOL    HW193884   9.571   6.845   6.096  2.1755 -0.7630  0.4859
27275SOL    HW293885   9.589   6.928   6.235 -0.9383  0.8101 -0.0063
27276SOL     OW93886   3.845   1.575   5.580 -0.3788 -0.1428 -0.5801
27276SOL    HW193887   3.916   1.505   5.591  1.6946  2.0318  0.1383
27276SOL    HW293888   3.826   1.617   5.668 -1.3896  0.4258 -1.0626
27277SOL     OW93889   5.321   5.022   8.223 -0.5319  0.2743  0.3296
27277SOL    HW193890   5.380   4.946   8.195  0.3137  0.6342  1.0878
27277SOL    HW293891   5.375   5.106   8.225 -1.0899  0.6217  0.9655
27278SOL     OW93892   8.543   6.795   6.336 -0.0859 -0.0181 -0.2503
27278SOL    HW193893   8.456   6.783   6.384 -0.8358  0.4428 -1.4504
27278SOL    HW293894   8.603   6.717   6.354 -0.7414 -0.3265  0.6079
27279SOL     OW93895   5.655   6.781   2.145  0.1719 -0.2918 -0.2505
27279SOL    HW193896   5.735   6.777   2.085  0.0725 -0.3378 -0.3801
27279SOL    HW293897   5.573   6.753   2.094  0.0868 -0.3274 -0.0953
27280SOL     OW93898   4.582   1.773   6.840 -0.2256  0.3567 -0.4341
27280SOL    HW193899   4.672   1.792   6.799  1.2418  0.9564  2.9069
27280SOL    HW293900   4.577   1.817   6.930 -3.5149 -0.5404 -0.1388
27281SOL     OW93901   8.625   7.550   1.407 -0.0011  1.0017  0.0173
27281SOL    HW193902   8.643   7.647   1.390 -1.3353  1.2227 -0.2052
27281SOL    HW293903   8.552   7.541   1.475 -0.1355  0.1575 -0.2287
27282SOL     OW93904   3.084   9.127   4.272  0.1676  0.4466  0.4232
27282SOL    HW193905   3.138   9.092   4.196  0.9435 -0.4122  1.3567
27282SOL    HW293906   3.078   9.227   4.266 -1.6759  0.2436 -2.0011
27283SOL     OW93907   8.740   9.207   9.215 -0.6840 -0.1700 -0.2859
27283SOL    HW193908   8.683   9.285   9.242  0.5822  0.6174  0.1794
27283SOL    HW293909   8.820   9.240   9.165 -0.2463 -1.1866 -0.2652
27284SOL     OW93910   4.407   5.301   8.919 -0.5649 -0.1417 -0.0369
27284SOL    HW193911   4.372   5.314   8.827  0.3148  1.5918 -0.1293
27284SOL    HW293912   4.506   5.311   8.919 -0.4147 -1.3982  0.8884
27285SOL     OW93913   9.667   6.947   8.394 -0.3933  0.2052  0.6884
27285SOL    HW193914   9.606   7.014   8.436  0.7692  1.8480 -0.1771
27285SOL    HW293915   9.632   6.920   8.305 -0.5209  0.1551  0.7535
27286SOL     OW93916   3.390   6.601   1.069  0.7066 -0.8833 -0.1080
27286SOL    HW193917   3.469   6.619   1.128  1.6274 -3.2866 -0.5820
27286SOL    HW293918   3.382   6.675   1.002  2.3839 -0.4682  0.1096
27287SOL     OW93919   5.448   1.085   6.330 -0.5479 -0.7468 -0.2217
27287SOL    HW193920   5.463   1.079   6.231  0.1106  0.1939 -0.1860
27287SOL    HW293921   5.535   1.103   6.375 -1.2195  1.2938  0.3102
27288SOL     OW93922   8.242   6.130   1.324  0.3306  0.5286  0.9731
27288SOL    HW193923   8.238   6.175   1.235 -0.3062 -1.3625  0.0181
27288SOL    HW293924   8.150   6.113   1.357  0.5353 -1.4952  0.5604
27289SOL     OW93925   8.474   7.085  10.028 -0.6949 -0.5298  0.1522
27289SOL    HW193926   8.419   7.168  10.017  0.1355  0.1806  1.3314
27289SOL    HW293927   8.466   7.052  10.122  2.6456  0.8451  0.9684
27290SOL     OW93928   1.727   3.836   6.113 -0.0611  0.0326  0.2631
27290SOL    HW193929   1.643   3.886   6.134  0.7784  1.3190  0.6138
27290SOL    HW293930   1.747   3.845   6.015  0.5762  1.1701  0.4878
27291SOL     OW93931   1.833   3.370   0.988 -0.3079  0.0233  0.0073
27291SOL    HW193932   1.845   3.280   1.028  1.6598 -0.0360 -0.6483
27291SOL    HW293933   1.743   3.376   0.945 -0.2855 -1.7849 -0.3258
27292SOL     OW93934   2.611   8.043   9.963  0.4371  0.5390 -0.3566
27292SOL    HW193935   2.523   8.026   9.919 -0.6036  0.6183  1.6526
27292SOL    HW293936   2.649   7.957   9.997  1.5404  0.3851 -1.9405
27293SOL     OW93937   8.957   7.450   7.970  0.1393  0.2260 -0.0558
27293SOL    HW193938   8.875   7.506   7.978 -0.4572 -0.7761  0.9741
27293SOL    HW293939   9.033   7.495   8.016 -0.3564  0.1741  0.8358
27294SOL     OW93940   7.536   5.467   0.220 -0.2647  0.6221  0.3706
27294SOL    HW193941   7.563   5.375   0.192 -0.2498  0.6695  0.2322
27294SOL    HW293942   7.515   5.467   0.318 -1.3183  0.2352  0.1522
27295SOL     OW93943   0.045   8.516   3.393  0.1066 -0.8161  0.1492
27295SOL    HW193944   0.114   8.444   3.389 -0.4032 -1.2399 -1.2325
27295SOL    HW293945   0.090   8.603   3.416  1.0874 -1.1112 -0.6008
27296SOL     OW93946   5.631   2.010   4.892 -0.1502 -0.3403  0.3683
27296SOL    HW193947   5.624   2.110   4.890 -0.4932 -0.3713 -0.0797
27296SOL    HW293948   5.541   1.970   4.909 -0.1229 -0.5855 -0.0294
27297SOL     OW93949   4.794   6.225   0.879 -0.5119  0.0239 -0.4252
27297SOL    HW193950   4.836   6.245   0.791  0.4216 -0.3391 -0.0688
27297SOL    HW293951   4.712   6.281   0.891 -0.7240 -0.0367 -1.5840
27298SOL     OW93952   3.739   4.390   4.314  0.4603  0.4183  0.4699
27298SOL    HW193953   3.751   4.359   4.220 -0.3757 -0.5463  0.6724
27298SOL    HW293954   3.828   4.397   4.358  0.8399  0.6880 -0.3325
27299SOL     OW93955   8.843   8.948   8.651 -0.0587 -0.2680  0.6332
27299SOL    HW193956   8.891   9.033   8.670  0.3659 -0.1853 -0.7042
27299SOL    HW293957   8.788   8.958   8.568 -0.7038 -1.0171  0.9648
27300SOL     OW93958   9.219   3.492   5.244 -0.8991 -0.2626  0.2104
27300SOL    HW193959   9.209   3.487   5.343 -4.3406 -0.9878 -0.1292
27300SOL    HW293960   9.227   3.400   5.206 -0.6234 -0.0335 -0.3071
27301SOL     OW93961   1.982   2.278   8.418 -0.0757  0.2674  0.0019
27301SOL    HW193962   1.982   2.342   8.341  0.2688 -0.0180 -0.2353
27301SOL    HW293963   1.912   2.208   8.404  0.8456 -0.5412 -0.6893
27302SOL     OW93964   7.336   1.057   3.212  0.0477 -0.1134  0.6391
27302SOL    HW193965   7.411   1.055   3.146 -1.0049 -0.4082 -0.5514
27302SOL    HW293966   7.293   1.147   3.210 -0.4653 -0.3660  0.3856
27303SOL     OW93967   2.367   5.779   5.293  0.0849  0.2144  0.0549
27303SOL    HW193968   2.378   5.848   5.365 -3.4378  0.4685  0.4106
27303SOL    HW293969   2.342   5.692   5.334 -0.1713 -0.0901 -0.7492
27304SOL     OW93970   9.837   5.113   2.148  0.1700 -0.3568  0.0774
27304SOL    HW193971   9.909   5.058   2.191  0.5181  0.3364  0.3920
27304SOL    HW293972   9.860   5.130   2.052  0.3484 -0.2805  0.1323
27305SOL     OW93973   3.712   5.252   4.362 -0.7684 -0.5516 -0.3488
27305SOL    HW193974   3.754   5.176   4.413 -1.0118 -0.6370 -0.2720
27305SOL    HW293975   3.731   5.242   4.265 -2.6109 -1.9123 -0.6071
27306SOL     OW93976   3.179   9.542   7.900  0.0069 -0.3604 -0.0195
27306SOL    HW193977   3.269   9.514   7.866  0.2834 -1.4251  1.5017
27306SOL    HW293978   3.126   9.460   7.924 -0.4321  0.3245  1.3899
27307SOL     OW93979   8.336   2.109   2.410  0.4484 -0.0168 -0.2663
27307SOL    HW193980   8.242   2.143   2.414  1.0798  1.6778  0.8854
27307SOL    HW293981   8.399   2.187   2.415  1.9342 -1.2812  0.8515
27308SOL     OW93982   8.006   2.714   2.249  0.4198 -0.2392  1.0610
27308SOL    HW193983   7.972   2.797   2.203 -0.3301 -0.8012  0.5877
27308SOL    HW293984   8.104   2.705   2.233  0.3437  0.1000  0.3841
27309SOL     OW93985   8.569   4.161   7.836  0.2450  0.3054 -0.3983
27309SOL    HW193986   8.585   4.226   7.911  1.5648  0.0014 -0.4102
27309SOL    HW293987   8.565   4.068   7.873 -1.5926  0.3639 -0.3907
27310SOL     OW93988   9.633   0.017   7.829  0.6953  0.5242 -0.1833
27310SOL    HW193989   9.670   0.034   7.921  1.9488 -1.0693 -0.3662
27310SOL    HW293990   9.543   0.059   7.821 -0.0377 -0.4668  2.2654
27311SOL     OW93991   0.452   1.797   7.635  0.0777 -0.1112 -0.4423
27311SOL    HW193992   0.360   1.774   7.668  0.5362 -0.8938  0.3219
27311SOL    HW293993   0.449   1.813   7.537 -0.4633 -2.4935 -0.8402
27312SOL     OW93994   1.783   7.240   6.492 -0.1114  0.0254  1.0676
27312SOL    HW193995   1.846   7.302   6.538  0.3321 -0.7728  1.5501
27312SOL    HW293996   1.734   7.186   6.560 -0.0471 -0.5876  0.6355
27313SOL     OW93997   8.459   9.760   8.576 -0.1586 -0.7376  0.4288
27313SOL    HW193998   8.405   9.829   8.527 -2.9193 -1.7335  1.9359
27313SOL    HW293999   8.496   9.801   8.660 -2.0392 -1.0926  1.4742
27314SOL     OW94000   9.164   7.538   3.734 -0.4151 -0.4721 -0.4333
27314SOL    HW194001   9.203   7.590   3.658  0.2528  2.2198  1.7133
27314SOL    HW294002   9.064   7.538   3.727 -0.3955  0.6313 -0.7530
27315SOL     OW94003   7.707   5.138   0.083 -0.6901  0.1291 -0.6256
27315SOL    HW194004   7.625   5.143   0.139 -0.4278  2.4989 -0.3880
27315SOL    HW294005   7.694   5.071   0.010 -2.8162  0.4854 -0.6023
27316SOL     OW94006   2.667   5.872   3.404  0.1392  0.6381  0.4928
27316SOL    HW194007   2.633   5.819   3.326  0.2722 -0.5479  1.2334
27316SOL    HW294008   2.703   5.810   3.474  0.7725  1.7284  1.1549
27317SOL     OW94009   2.314   8.995   2.270  0.6301  0.1738  0.1064
27317SOL    HW194010   2.286   9.051   2.348  0.6397 -1.3449  1.2409
27317SOL    HW294011   2.337   9.054   2.193 -0.0418  1.6852  1.0253
27318SOL     OW94012   7.529   8.967   7.086 -0.0903  0.2916 -0.0765
27318SOL    HW194013   7.499   8.920   7.003 -1.7012 -0.4801  0.9118
27318SOL    HW294014   7.507   9.064   7.079 -1.1298  0.0533 -0.1365
27319SOL     OW94015   8.936   6.338   2.654 -0.4023  0.2844  0.5412
27319SOL    HW194016   8.947   6.437   2.641  1.7290 -0.0485 -0.5380
27319SOL    HW294017   8.844   6.310   2.628  0.2226  1.4110 -3.1528
27320SOL     OW94018   8.680   1.295   4.130  0.3654 -0.0543 -0.1363
27320SOL    HW194019   8.715   1.389   4.135  0.5803 -0.1512  0.2008
27320SOL    HW294020   8.601   1.286   4.190 -0.3232  0.1966 -0.9908
27321SOL     OW94021   8.003   5.059   7.881 -0.6897  0.3579 -0.3178
27321SOL    HW194022   7.941   5.135   7.864 -0.5900  0.4870 -0.1128
27321SOL    HW294023   7.955   4.986   7.930 -0.6390  0.5280 -0.0097
27322SOL     OW94024   3.595   9.654   2.813 -0.0764  0.8230  0.5618
27322SOL    HW194025   3.619   9.694   2.724 -0.7619 -1.1207 -0.5474
27322SOL    HW294026   3.561   9.725   2.874  2.1440  2.5212 -0.0768
27323SOL     OW94027   9.329   1.045   3.697  0.2716 -0.3163  0.3024
27323SOL    HW194028   9.410   1.096   3.670  0.6861 -1.0139  0.2121
27323SOL    HW294029   9.257   1.058   3.629  0.9429 -1.1901 -0.5869
27324SOL     OW94030   6.905   1.581   0.310 -0.1643  0.0102  0.6873
27324SOL    HW194031   6.838   1.603   0.239 -0.4930  0.7083  1.2142
27324SOL    HW294032   6.858   1.567   0.398  0.5598  2.3766  1.4777
27325SOL     OW94033   2.064   8.637   0.001 -0.2719  0.0445 -0.7803
27325SOL    HW194034   1.978   8.656   0.048  0.1570  0.7226 -0.2533
27325SOL    HW294035   2.052   8.560  -0.062 -1.3257  0.3001 -0.8966
27326SOL     OW94036   7.240   8.242   6.149 -0.3846 -0.7815  0.0895
27326SOL    HW194037   7.259   8.159   6.097  1.6169  0.7197 -1.6499
27326SOL    HW294038   7.308   8.251   6.223 -1.4800 -1.4101  1.1988
27327SOL     OW94039   8.768   8.470   7.421 -0.4415 -0.0603  0.0385
27327SOL    HW194040   8.711   8.548   7.397  0.3483  0.4721 -0.1346
27327SOL    HW294041   8.858   8.480   7.380 -0.4726 -1.2980 -0.3675
27328SOL     OW94042   1.751   8.615   7.988  0.7090 -0.0240  0.5644
27328SOL    HW194043   1.659   8.620   7.949  0.6911 -1.3622  0.4085
27328SOL    HW294044   1.806   8.690   7.952  0.3093 -0.4793 -1.0259
27329SOL     OW94045   2.599   4.806   3.945  0.3091  0.1168  0.3370
27329SOL    HW194046   2.591   4.866   4.025 -0.0571 -0.4014  0.6945
27329SOL    HW294047   2.549   4.845   3.868  1.0641  0.8551  0.2207
27330SOL     OW94048   5.109   9.285   3.834 -0.3597  0.7557  0.3318
27330SOL    HW194049   5.073   9.306   3.743 -0.4324 -1.5253 -0.1925
27330SOL    HW294050   5.206   9.263   3.828 -0.2846  0.9318  0.8546
27331SOL     OW94051   4.776   5.741   0.128 -0.4338 -0.0096  0.0213
27331SOL    HW194052   4.726   5.819   0.088  2.7155  1.3810 -1.3717
27331SOL    HW294053   4.813   5.684   0.054  1.5396  0.0009  0.9703
27332SOL     OW94054   2.676   1.650   4.340 -0.0840  0.1767  0.1251
27332SOL    HW194055   2.773   1.673   4.336  0.3186 -1.2845  1.2015
27332SOL    HW294056   2.622   1.732   4.321  1.3443  1.3134  0.8222
27333SOL     OW94057   8.904   0.240   8.315 -0.1374 -0.6560 -0.4513
27333SOL    HW194058   8.840   0.272   8.244 -0.7722 -1.0618 -0.0608
27333SOL    HW294059   8.911   0.141   8.310 -3.4930 -1.1837  2.7964
27334SOL     OW94060   3.375   7.669   3.673 -0.5880  0.2011  0.2873
27334SOL    HW194061   3.403   7.738   3.607  0.0183  1.4334  1.7942
27334SOL    HW294062   3.275   7.670   3.682 -0.6104  0.6167  0.0096
27335SOL     OW94063   8.443   0.056   9.383 -0.9055 -0.2861 -0.3441
27335SOL    HW194064   8.382   0.121   9.427  0.0532  0.6131 -0.3142
27335SOL    HW294065   8.446   0.074   9.284 -0.2734  0.0419 -0.2725
27336SOL     OW94066   7.962   4.419   1.985 -0.6393  0.4089 -0.2644
27336SOL    HW194067   7.946   4.342   2.046  0.2665  0.7049  0.3538
27336SOL    HW294068   7.895   4.491   2.004 -0.6190  0.3344  0.0929
27337SOL     OW94069   9.697   1.330   1.921 -0.3223 -0.0149  0.4580
27337SOL    HW194070   9.610   1.284   1.905 -0.4368  0.8132 -1.5363
27337SOL    HW294071   9.706   1.406   1.855  2.9165 -1.5198 -0.9264
27338SOL     OW94072   8.727   2.620   0.647  0.5508 -0.0368  0.4558
27338SOL    HW194073   8.712   2.562   0.567  0.3607  1.0134 -0.2905
27338SOL    HW294074   8.678   2.583   0.726 -0.9853  0.0659 -0.4399
27339SOL     OW94075   9.226   4.215   1.908 -0.2730  0.2576 -0.2712
27339SOL    HW194076   9.145   4.260   1.869 -0.3119  0.7854  0.3980
27339SOL    HW294077   9.204   4.120   1.929 -0.8510  0.4971  0.2557
27340SOL     OW94078   7.654   7.696   9.080 -1.0151  0.2078  0.4869
27340SOL    HW194079   7.736   7.641   9.093 -1.1953  0.2675  1.8993
27340SOL    HW294080   7.647   7.765   9.152 -1.9227  0.6837 -0.0344
27341SOL     OW94081   4.184   8.666   4.669  0.5862 -0.3928  0.5426
27341SOL    HW194082   4.213   8.672   4.764  1.0641 -2.5226  0.5641
27341SOL    HW294083   4.264   8.647   4.611  0.1978  0.2063 -0.2004
27342SOL     OW94084   9.582   6.852   3.863  0.0907  0.1544  0.2101
27342SOL    HW194085   9.564   6.767   3.813 -0.3984 -0.4090  1.3368
27342SOL    HW294086   9.666   6.894   3.827 -0.6912  0.1892 -1.6361
27343SOL     OW94087   6.405   7.361   3.765 -0.2464  0.4230 -0.5422
27343SOL    HW194088   6.487   7.305   3.750 -0.5132  0.1513 -1.0351
27343SOL    HW294089   6.427   7.457   3.752 -0.2455  0.2696 -1.8185
27344SOL     OW94090   1.788   6.113   1.650  0.0966 -0.0282  0.1220
27344SOL    HW194091   1.848   6.039   1.618 -1.3674 -0.3407 -1.9938
27344SOL    HW294092   1.731   6.145   1.574  0.0593  2.6652  1.2383
27345SOL     OW94093   8.799   7.518   8.913 -0.0544 -0.1188  0.5599
27345SOL    HW194094   8.725   7.467   8.956 -0.1833 -0.5016 -0.0947
27345SOL    HW294095   8.852   7.567   8.982 -1.1276  0.4352  0.9850
27346SOL     OW94096   0.150   1.578   8.650  0.0383  0.0324  0.0443
27346SOL    HW194097   0.177   1.547   8.741 -0.9041  0.9886  0.6585
27346SOL    HW294098   0.057   1.615   8.653 -0.4133 -0.9056 -1.5254
27347SOL     OW94099   1.441   2.496   3.607  0.8290 -0.0927 -0.1066
27347SOL    HW194100   1.395   2.408   3.596  1.7366 -0.4865 -0.8806
27347SOL    HW294101   1.514   2.504   3.538  2.2747  0.2637  1.4239
27348SOL     OW94102   4.425   6.390   1.292  0.1701  0.7698  0.9724
27348SOL    HW194103   4.376   6.460   1.241  0.0562 -0.3823 -0.5315
27348SOL    HW294104   4.421   6.411   1.390 -1.4264  1.8676  0.6876
27349SOL     OW94105   4.749   4.976   7.189 -0.0509 -1.0539 -0.5548
27349SOL    HW194106   4.679   4.914   7.223 -1.2002  0.3119 -0.4246
27349SOL    HW294107   4.814   4.925   7.132 -2.6023 -1.8785 -2.8230
27350SOL     OW94108   5.615   4.917   7.378 -0.6145 -0.0539 -1.2058
27350SOL    HW194109   5.685   4.968   7.328 -0.7235 -0.2464 -1.5584
27350SOL    HW294110   5.532   4.912   7.323 -0.2896 -1.4427 -1.5976
27351SOL     OW94111   1.610   9.476   4.957  0.1792  0.3997  0.2671
27351SOL    HW194112   1.609   9.473   5.057  1.8967  0.4815  0.3105
27351SOL    HW294113   1.601   9.571   4.927 -3.8559  0.0683  0.2231
27352SOL     OW94114   0.985   7.982   6.774 -0.0132 -0.0781 -0.2758
27352SOL    HW194115   0.986   8.029   6.686  1.1897 -1.0621 -0.7961
27352SOL    HW294116   1.033   7.895   6.767  0.1124 -0.1672  1.3599
27353SOL     OW94117   6.603   8.906   4.394  0.3169 -0.2318 -0.3834
27353SOL    HW194118   6.591   8.994   4.439  0.8893 -0.2215 -0.2469
27353SOL    HW294119   6.672   8.852   4.443 -1.2220 -1.4276  0.5083
27354SOL     OW94120   9.919   9.613   1.199  0.3384  0.4854 -0.1166
27354SOL    HW194121   9.945   9.576   1.110 -0.6781  0.4863 -0.4201
27354SOL    HW294122   9.869   9.699   1.185 -0.1688  0.2781  0.4451
27355SOL     OW94123   4.509   3.289   2.662 -0.2111 -0.4847 -0.0136
27355SOL    HW194124   4.493   3.309   2.565 -0.3563  0.8084  0.2596
27355SOL    HW294125   4.486   3.370   2.716 -0.3001 -1.2565  1.1209
27356SOL     OW94126   0.797   9.896   7.466 -0.0933  0.9678 -0.0617
27356SOL    HW194127   0.792   9.872   7.370 -1.9606  1.7589 -0.1655
27356SOL    HW294128   0.717   9.949   7.493 -1.2308 -2.0124  2.7190
27357SOL     OW94129   1.529   0.387   5.178  0.0636  0.2590 -0.2546
27357SOL    HW194130   1.557   0.304   5.226 -1.7849 -1.4136 -1.9413
27357SOL    HW294131   1.601   0.415   5.115  1.0915  0.5025  1.0218
27358SOL     OW94132   8.370   0.072   2.955 -0.0627 -0.1595 -0.4509
27358SOL    HW194133   8.339   0.118   3.037  0.0596 -2.2040  0.7908
27358SOL    HW294134   8.297   0.071   2.887 -1.1676 -0.9508  0.7235
27359SOL     OW94135   4.937   3.929   6.434 -0.0571  0.4382 -0.2622
27359SOL    HW194136   5.037   3.928   6.424  0.1334  3.8076  0.7557
27359SOL    HW294137   4.895   3.936   6.343  0.6819  0.7443 -0.5894
27360SOL     OW94138   0.799   7.193   6.285  0.4450 -0.4537 -0.1531
27360SOL    HW194139   0.823   7.100   6.313  0.5804 -0.9024 -1.6720
27360SOL    HW294140   0.734   7.189   6.209  0.8265  0.6828 -0.5549
27361SOL     OW94141   8.418   8.821   2.346  0.1839 -0.3467 -0.0337
27361SOL    HW194142   8.406   8.913   2.308 -1.3188 -0.6343 -0.2761
27361SOL    HW294143   8.343   8.763   2.317  1.2150 -1.7164 -0.0285
27362SOL     OW94144   9.199   6.386   5.013 -0.4804  0.2104  0.4049
27362SOL    HW194145   9.260   6.360   4.938  3.6125  0.2967  3.4657
27362SOL    HW294146   9.170   6.481   5.001  0.1076  0.2127 -1.0922
27363SOL     OW94147   0.626   3.781   5.825  0.4939 -0.3800  0.3195
27363SOL    HW194148   0.540   3.731   5.812  1.1689 -1.9554  1.6043
27363SOL    HW294149   0.633   3.810   5.921  0.8595  0.7655 -0.0517
27364SOL     OW94150   0.467   1.421   5.764  0.0538  0.4025 -0.1513
27364SOL    HW194151   0.378   1.392   5.728 -0.1469  2.3187 -1.2594
27364SOL    HW294152   0.495   1.506   5.719  1.1071  1.3772  2.2405
27365SOL     OW94153   0.731   8.620   5.184  0.3794 -0.2052  0.1584
27365SOL    HW194154   0.794   8.604   5.108  0.9399  0.5717  0.4539
27365SOL    HW294155   0.675   8.538   5.198  0.7615 -0.6112 -0.6295
27366SOL     OW94156   3.912   5.955   0.459  0.1259  0.1515 -0.6120
27366SOL    HW194157   3.979   6.019   0.421 -1.2276  1.7287 -0.4125
27366SOL    HW294158   3.852   5.922   0.386 -0.0983  0.2573 -0.4767
27367SOL     OW94159   4.345   9.029   3.036 -0.4100 -0.1373  0.1213
27367SOL    HW194160   4.368   9.123   3.061  0.6744 -0.2924 -0.2632
27367SOL    HW294161   4.249   9.011   3.058  0.0137  0.2976  2.4889
27368SOL     OW94162   0.723   6.135   9.017  0.6463  0.0722  0.3408
27368SOL    HW194163   0.722   6.087   9.104 -0.5439 -0.8772 -0.1949
27368SOL    HW294164   0.737   6.070   8.942 -0.3439  0.6323 -0.3380
27369SOL     OW94165   8.937   4.192   1.882 -0.4033  0.4405  0.1950
27369SOL    HW194166   8.940   4.201   1.981 -0.5271  3.9210 -0.0409
27369SOL    HW294167   8.848   4.223   1.848 -0.6987 -1.5598 -0.9703
27370SOL     OW94168   4.736   5.328   7.644 -0.2424  0.5582  0.3691
27370SOL    HW194169   4.706   5.243   7.688 -0.4821  0.0171 -0.8143
27370SOL    HW294170   4.831   5.348   7.669  0.3708 -0.9704 -0.7015
27371SOL     OW94171   4.723   5.154   3.536 -0.0500  0.1586 -0.2844
27371SOL    HW194172   4.725   5.208   3.451  0.5301  0.3679 -0.1394
27371SOL    HW294173   4.659   5.196   3.600 -0.1568  0.2548 -0.4538
27372SOL     OW94174   3.012   3.884   4.804 -0.0585  0.4876  0.1132
27372SOL    HW194175   2.957   3.945   4.747 -2.0846  0.0539  1.5181
27372SOL    HW294176   3.067   3.825   4.746  0.3090  2.1731 -1.3136
27373SOL     OW94177   8.443   0.747   0.790  0.1646  0.0790  0.0359
27373SOL    HW194178   8.450   0.768   0.887  1.4648 -0.8715  0.1537
27373SOL    HW294179   8.438   0.833   0.738 -1.0719  0.5910  0.9512
27374SOL     OW94180   7.093   5.566   9.995 -0.3058 -0.0466 -0.4217
27374SOL    HW194181   7.135   5.476   9.983 -1.8231 -0.7617 -0.3494
27374SOL    HW294182   7.128   5.608  10.078  0.5942 -0.4583 -0.5866
27375SOL     OW94183   3.071   8.930   2.325 -0.1389 -0.2024  0.0367
27375SOL    HW194184   3.128   8.996   2.277  0.3344  1.5426  2.9075
27375SOL    HW294185   3.116   8.902   2.409 -2.4105 -0.6748  1.1339
27376SOL     OW94186   8.373   3.324   2.125  0.5011 -0.1899  0.2017
27376SOL    HW194187   8.295   3.368   2.081  1.4917  0.5548 -0.8416
27376SOL    HW294188   8.405   3.382   2.200 -1.4353 -1.6499  2.1949
27377SOL     OW94189   4.849   3.864   0.210 -0.2509 -1.0626 -0.3773
27377SOL    HW194190   4.769   3.806   0.224 -1.3054  0.8434  1.8243
27377SOL    HW294191   4.915   3.848   0.284 -0.2007 -0.0402 -0.1935
27378SOL     OW94192   0.883   4.038   4.270  0.7357 -0.5352 -0.2851
27378SOL    HW194193   0.831   4.106   4.218  0.4776 -1.5812 -1.3966
27378SOL    HW294194   0.843   3.947   4.256  1.7394 -1.0787  0.3335
27379SOL     OW94195   3.321   7.473   1.073 -0.3052 -0.0627  0.1217
27379SOL    HW194196   3.335   7.563   1.033 -0.4946  0.3352  0.9395
27379SOL    HW294197   3.288   7.410   1.003 -3.0063  1.2350  0.1929
27380SOL     OW94198   4.516   1.942   4.961  0.1635 -0.6152  0.1246
27380SOL    HW194199   4.580   2.016   4.982  0.7796 -1.1328  0.0883
27380SOL    HW294200   4.544   1.859   5.010 -0.6986 -0.7456  0.4077
27381SOL     OW94201   9.416   6.424   3.311 -0.1499 -0.2920  0.0872
27381SOL    HW194202   9.325   6.459   3.287 -0.1064 -0.8110 -0.8315
27381SOL    HW294203   9.408   6.330   3.345  0.0766 -0.4352 -0.2553
27382SOL     OW94204   9.860   8.003   1.138  0.0244 -0.3279  0.5319
27382SOL    HW194205   9.786   7.962   1.190 -0.3988  0.8791  0.8983
27382SOL    HW294206   9.945   8.000   1.191 -0.8273  2.7122  2.1823
27383SOL     OW94207   9.629   5.398   7.584  0.0435 -0.3750 -0.2760
27383SOL    HW194208   9.717   5.446   7.589  0.2560 -0.9094  1.1747
27383SOL    HW294209   9.566   5.435   7.652 -1.5463  1.3216 -2.5621
27384SOL     OW94210   0.618   0.185   2.117  0.2972  0.0955 -0.6190
27384SOL    HW194211   0.578   0.096   2.098  0.1340 -0.2718  1.2917
27384SOL    HW294212   0.710   0.189   2.078  0.4076 -1.0193 -0.4936
27385SOL     OW94213   8.444   0.001   6.560 -0.7291  0.0444 -0.0370
27385SOL    HW194214   8.496  -0.011   6.475 -1.2399 -0.8316 -0.2379
27385SOL    HW294215   8.447   0.097   6.588  1.9813 -0.1773  0.5988
27386SOL     OW94216   9.597   4.297   4.787  0.3889 -0.7577  0.8626
27386SOL    HW194217   9.515   4.265   4.833 -0.6760 -1.8898 -1.6944
27386SOL    HW294218   9.573   4.365   4.718  1.7133 -0.4066  0.7231
27387SOL     OW94219   1.119   4.104   0.298 -0.1492 -0.2708 -0.1165
27387SOL    HW194220   1.084   4.103   0.391  1.8344  1.4276  0.6840
27387SOL    HW294221   1.172   4.021   0.281  1.6887  0.6065  1.1706
27388SOL     OW94222   1.407   9.336   4.507 -0.1691 -0.1639  0.3354
27388SOL    HW194223   1.456   9.312   4.591  1.8712  0.4106 -0.6649
27388SOL    HW294224   1.424   9.266   4.437 -3.5806 -1.7722  1.0076
27389SOL     OW94225   8.692   9.417   4.356 -0.0055 -0.4163 -0.5353
27389SOL    HW194226   8.742   9.337   4.389  0.3471 -1.5499 -3.6295
27389SOL    HW294227   8.730   9.447   4.269 -1.9024  1.4182 -0.7832
27390SOL     OW94228   8.617   6.861   7.806  0.4017 -0.1003  0.1242
27390SOL    HW194229   8.709   6.884   7.775  0.5762 -0.7720  0.1386
27390SOL    HW294230   8.622   6.828   7.901  0.3284 -1.4793 -0.3441
27391SOL     OW94231   1.783   5.704   8.978 -0.2126 -0.7882  0.0936
27391SOL    HW194232   1.766   5.637   8.906 -1.3122  0.1236 -0.4913
27391SOL    HW294233   1.879   5.697   9.007  0.1036 -1.5090 -1.0888
27392SOL     OW94234   3.881   9.591   1.109 -0.0172 -0.2030 -0.2848
27392SOL    HW194235   3.799   9.536   1.092  1.0627 -2.4003  1.2849
27392SOL    HW294236   3.914   9.572   1.202  0.9915  2.3611 -0.0939
27393SOL     OW94237   6.914   8.072   4.055  0.4687  0.0877  0.5503
27393SOL    HW194238   6.918   8.000   4.124 -0.3148 -0.5497 -0.0735
27393SOL    HW294239   6.825   8.117   4.058  0.9306  1.0002  0.8978
27394SOL     OW94240   0.700   5.942   0.340 -0.1724 -0.7871 -0.0210
27394SOL    HW194241   0.761   5.999   0.394 -1.3477 -0.6359  1.1708
27394SOL    HW294242   0.731   5.847   0.343  1.4800 -0.3393 -1.5733
27395SOL     OW94243   7.438   5.259   6.392 -0.1008 -0.1192  0.3895
27395SOL    HW194244   7.483   5.269   6.303  0.5380 -0.7594  0.6305
27395SOL    HW294245   7.357   5.201   6.382 -1.4420  1.8083 -0.2232
27396SOL     OW94246   8.911   7.954   1.745 -0.5239  0.3618 -0.1300
27396SOL    HW194247   8.832   7.916   1.793  0.2281 -0.1859  0.7162
27396SOL    HW294248   8.954   8.024   1.803 -1.5887  2.1371 -1.4558
27397SOL     OW94249   2.001   5.854   7.706  0.0233 -0.6096  0.1182
27397SOL    HW194250   2.065   5.899   7.643 -2.0269  0.6112 -1.1505
27397SOL    HW294251   1.936   5.799   7.653 -0.8143 -0.7501  1.2946
27398SOL     OW94252   8.180   2.451   5.716  0.0763  0.6155 -0.5942
27398SOL    HW194253   8.190   2.549   5.730 -2.0350  0.6563  0.8183
27398SOL    HW294254   8.193   2.429   5.619  0.7872  2.2300 -0.8700
27399SOL     OW94255   6.608   9.156   4.572 -0.9458  0.0412 -0.4631
27399SOL    HW194256   6.638   9.093   4.643 -2.0569  1.0416  0.9127
27399SOL    HW294257   6.579   9.242   4.614  1.2439  1.7634 -2.3564
27400SOL     OW94258   8.874   6.920   9.717  0.3766 -0.0643  0.0956
27400SOL    HW194259   8.897   6.972   9.799 -0.6478  0.7495 -0.1077
27400SOL    HW294260   8.775   6.926   9.701  0.6876  0.6612 -1.7524
27401SOL     OW94261   9.106   4.592   6.708  0.0912  0.0453  0.2208
27401SOL    HW194262   9.016   4.621   6.677  0.0338 -0.3889 -0.0208
27401SOL    HW294263   9.099   4.555   6.801 -0.1955 -1.1621 -0.2781
27402SOL     OW94264   2.999   7.402   9.222  0.1833  0.2202  0.2859
27402SOL    HW194265   2.968   7.424   9.315 -2.0375 -1.6076  0.0361
27402SOL    HW294266   2.969   7.474   9.159  0.4095  0.7369  0.7651
27403SOL     OW94267   6.282   5.364   7.810 -0.2441 -0.6874 -0.5757
27403SOL    HW194268   6.356   5.403   7.755 -0.1268  0.7112  0.5472
27403SOL    HW294269   6.195   5.406   7.785  0.0908  1.4941  1.6811
27404SOL     OW94270   1.557   0.512   4.090 -0.2864 -0.4335 -0.2444
27404SOL    HW194271   1.603   0.488   4.175  0.1976  2.0919  0.2246
27404SOL    HW294272   1.480   0.573   4.109 -0.7005 -0.5328 -1.5472
27405SOL     OW94273   0.888   0.241   5.601 -0.3828 -0.2818  0.5161
27405SOL    HW194274   0.852   0.286   5.682  2.9929 -1.3394  2.6789
27405SOL    HW294275   0.939   0.307   5.546 -0.1084 -0.2320  0.8295
27406SOL     OW94276   2.939   0.434   0.629  0.2614  0.0285 -0.1110
27406SOL    HW194277   2.889   0.502   0.576  0.0082 -1.7818 -2.2484
27406SOL    HW294278   3.014   0.478   0.678 -0.9507  2.1096 -0.0870
27407SOL     OW94279   8.996   9.286   6.162 -0.0560  0.4792 -0.3351
27407SOL    HW194280   9.004   9.193   6.197 -2.1515  0.7479  0.9013
27407SOL    HW294281   9.078   9.308   6.108  2.1652 -0.7668  2.3832
27408SOL     OW94282   8.496   6.772   5.413  0.1344 -0.1480  0.1719
27408SOL    HW194283   8.523   6.865   5.388 -0.8606  0.0730 -0.0853
27408SOL    HW294284   8.532   6.750   5.503 -0.0936  0.6885  0.4658
27409SOL     OW94285   4.247   9.849   1.411 -0.2387 -0.1784 -0.0864
27409SOL    HW194286   4.217   9.899   1.329 -0.4128 -0.7031 -0.3416
27409SOL    HW294287   4.167   9.832   1.470  0.1995  2.0945  1.2365
27410SOL     OW94288   2.781   6.080   8.591  0.5394 -0.7808  0.6362
27410SOL    HW194289   2.681   6.078   8.583  0.2335 -0.1397  3.6729
27410SOL    HW294290   2.819   5.995   8.554 -1.1088 -0.9145 -0.8102
27411SOL     OW94291   7.858   2.708   0.327  0.2574 -0.6770 -0.2105
27411SOL    HW194292   7.835   2.780   0.392  5.6135  0.4032  0.7698
27411SOL    HW294293   7.867   2.621   0.374 -2.0683 -1.2019 -0.6775
27412SOL     OW94294   7.935   8.402   3.456  0.3565 -0.2424  0.0282
27412SOL    HW194295   7.969   8.312   3.430  1.3327  0.3189 -0.6755
27412SOL    HW294296   7.836   8.397   3.473  0.1495 -1.1261 -1.4099
27413SOL     OW94297   8.116   1.871   3.142 -0.0947 -0.6972 -0.2160
27413SOL    HW194298   8.049   1.945   3.133  1.0277  0.4099  0.3668
27413SOL    HW294299   8.073   1.792   3.185 -1.3128 -0.4015 -0.8492
27414SOL     OW94300   9.665   0.561   5.831 -0.1456  0.7164  0.1227
27414SOL    HW194301   9.667   0.464   5.855  0.2412  0.5805 -0.4477
27414SOL    HW294302   9.726   0.612   5.892  1.3265  0.2803 -0.9642
27415SOL     OW94303   3.080   8.622   6.267  0.2606  0.7995 -0.3758
27415SOL    HW194304   3.077   8.672   6.180  2.2403  2.7145  0.6097
27415SOL    HW294305   3.174   8.619   6.301  0.1739 -3.3777 -0.1897
27416SOL     OW94306   1.435   1.496   0.796 -0.0605 -0.4003  0.3303
27416SOL    HW194307   1.354   1.527   0.846 -1.0882 -0.0106 -1.5566
27416SOL    HW294308   1.408   1.457   0.708  1.8501  0.3877 -0.6414
27417SOL     OW94309   3.169   1.684   7.188  0.3813 -0.1118 -0.1120
27417SOL    HW194310   3.161   1.773   7.234 -1.0172  0.1051 -0.7563
27417SOL    HW294311   3.225   1.623   7.243  0.7816  0.9504  0.6744
27418SOL     OW94312   8.953   6.260   5.030 -0.6799  0.1222  0.0462
27418SOL    HW194313   8.914   6.322   4.962  0.0641  0.5388  0.0045
27418SOL    HW294314   9.052   6.270   5.033 -0.6081 -0.6483  0.4532
27419SOL     OW94315   0.156   2.287   7.244 -0.2947  0.4679 -0.0747
27419SOL    HW194316   0.210   2.205   7.265 -0.5350  0.6396  1.2387
27419SOL    HW294317   0.085   2.263   7.178 -0.4493 -0.4271  0.3999
27420SOL     OW94318   9.859   8.948   4.629  1.0197 -0.1028 -0.2749
27420SOL    HW194319   9.901   8.981   4.713 -4.0817  1.4768  1.8956
27420SOL    HW294320   9.819   8.858   4.645 -1.2149  0.8150 -0.5094
27421SOL     OW94321   8.926   4.102   8.651 -0.0690 -0.0707  0.0953
27421SOL    HW194322   9.016   4.088   8.693 -0.2803  0.8099  0.8607
27421SOL    HW294323   8.868   4.155   8.714 -1.8103 -2.3900  0.4848
27422SOL     OW94324   8.811   5.231   1.479 -0.1431 -1.0534 -0.3610
27422SOL    HW194325   8.869   5.205   1.557 -1.0878  1.0948  1.0943
27422SOL    HW294326   8.854   5.200   1.394  1.0787 -3.1261  0.9822
27423SOL     OW94327   6.745   0.975   8.828 -0.2365 -0.0420 -0.0128
27423SOL    HW194328   6.775   1.045   8.763  0.4651 -0.6428 -0.3380
27423SOL    HW294329   6.671   0.922   8.787  0.5099 -0.7159 -0.5155
27424SOL     OW94330   8.147   6.365   3.628 -0.2303 -0.2441  0.0607
27424SOL    HW194331   8.245   6.364   3.613 -0.1678 -0.7006  0.4812
27424SOL    HW294332   8.125   6.315   3.712 -0.7526  0.4877  0.3722
27425SOL     OW94333   6.880   2.231   8.708 -0.0956  0.1193 -0.0201
27425SOL    HW194334   6.912   2.168   8.637 -0.5176  1.2674 -1.2499
27425SOL    HW294335   6.809   2.187   8.762  1.5535 -1.4497  0.9300
27426SOL     OW94336   2.790   3.657   4.850 -0.0362  0.3793  0.1696
27426SOL    HW194337   2.847   3.737   4.833  1.1566 -0.3474  0.7092
27426SOL    HW294338   2.773   3.648   4.949  3.4472 -2.4502  0.5911
27427SOL     OW94339   1.457   9.058   4.952 -0.2447  0.0808  0.4801
27427SOL    HW194340   1.418   9.095   4.867  1.7892  2.3816  0.4886
27427SOL    HW294341   1.385   9.051   5.021 -1.4369  0.4890 -0.6834
27428SOL     OW94342   4.370   1.419   5.310 -0.5607  0.2177 -0.3037
27428SOL    HW194343   4.331   1.495   5.259 -0.2086  0.8170  0.3237
27428SOL    HW294344   4.459   1.446   5.348 -1.6581  0.3820  2.1917
27429SOL     OW94345   8.414   1.574   4.797 -0.0869 -0.3821 -0.4140
27429SOL    HW194346   8.366   1.660   4.813 -1.0065 -0.6088 -1.8175
27429SOL    HW294347   8.507   1.593   4.768 -0.1829  0.1421 -0.3900
27430SOL     OW94348   0.978   3.965   5.036  0.1522 -0.2161 -0.4323
27430SOL    HW194349   0.946   3.983   5.128  0.2538  1.1130 -0.6483
27430SOL    HW294350   0.945   3.875   5.006 -1.5493  0.2093  0.1329
27431SOL     OW94351   5.023   4.014   5.797  0.3710  0.0447 -0.4878
27431SOL    HW194352   4.928   3.998   5.770  0.4971 -0.3432 -0.7034
27431SOL    HW294353   5.038   3.980   5.889 -0.4461  2.6933  0.6874
27432SOL     OW94354   8.142   0.373   6.649  0.1120 -0.4606  0.0458
27432SOL    HW194355   8.133   0.469   6.674 -1.3297 -0.4622 -0.4315
27432SOL    HW294356   8.139   0.316   6.731 -1.0709 -0.2354  0.1548
27433SOL     OW94357   7.210   3.915   0.403  0.0470  0.4655  0.5277
27433SOL    HW194358   7.220   3.822   0.367  0.8746  0.6030  0.3808
27433SOL    HW294359   7.127   3.957   0.366 -1.0374 -0.6778  1.6317
27434SOL     OW94360   0.002   1.361   1.199 -0.6077  0.3572 -0.6005
27434SOL    HW194361  -0.001   1.423   1.277 -0.5227 -0.2271 -0.1216
27434SOL    HW294362  -0.074   1.295   1.207 -0.3655  0.0520 -0.8023
27435SOL     OW94363   4.138   2.442   6.527  0.1587  0.0967  0.2712
27435SOL    HW194364   4.154   2.479   6.619 -0.2768 -0.9224  0.7565
27435SOL    HW294365   4.075   2.365   6.532 -0.5332  0.5597 -0.9890
27436SOL     OW94366   1.537   5.712   7.955 -0.2233  0.1122  0.1926
27436SOL    HW194367   1.447   5.669   7.950  0.7272 -1.8939 -0.1437
27436SOL    HW294368   1.607   5.642   7.967  1.4855  1.4900 -1.3897
27437SOL     OW94369   0.450   7.274   8.233 -0.2266  0.3510  0.1035
27437SOL    HW194370   0.399   7.204   8.281 -0.2338 -1.1218 -2.0017
27437SOL    HW294371   0.452   7.358   8.288  0.2492 -1.4399  2.8790
27438SOL     OW94372   2.887   0.145   6.186 -0.4262 -0.0174 -0.2207
27438SOL    HW194373   2.848   0.139   6.278  1.0598  1.6164  0.5621
27438SOL    HW294374   2.857   0.230   6.143 -0.7720 -0.5737 -1.0673
27439SOL     OW94375   0.940   9.937   9.450 -0.0543 -0.6773 -0.1070
27439SOL    HW194376   0.918   9.945   9.547  1.4364  0.9980  0.1158
27439SOL    HW294377   1.035   9.910   9.440 -0.1124 -0.4992 -1.1306
27440SOL     OW94378   8.073   4.766   4.205  0.1955 -0.5177  0.2235
27440SOL    HW194379   8.065   4.862   4.230 -1.3353 -0.4301 -0.5435
27440SOL    HW294380   8.126   4.758   4.121  0.3014 -0.3399  0.2727
27441SOL     OW94381   4.138   1.204   5.303 -0.7075 -0.1819 -0.6862
27441SOL    HW194382   4.221   1.149   5.289  1.1591  2.5803 -0.7572
27441SOL    HW294383   4.088   1.169   5.382  0.8485 -1.4940 -0.2493
27442SOL     OW94384   3.174   1.561   1.972  0.1217 -0.5092 -0.1519
27442SOL    HW194385   3.190   1.478   2.026 -2.1678 -1.5114 -0.9521
27442SOL    HW294386   3.165   1.536   1.875 -2.3817  0.4108 -0.1880
27443SOL     OW94387   2.174   2.642   6.765 -0.8403  0.0839  0.0601
27443SOL    HW194388   2.246   2.617   6.701 -0.4656 -1.0614  0.8976
27443SOL    HW294389   2.093   2.587   6.746 -0.4461 -0.8698  1.0914
27444SOL     OW94390   4.643   6.647   4.476 -0.4996 -0.2830 -0.1714
27444SOL    HW194391   4.618   6.553   4.501  1.9725 -0.3514  2.3109
27444SOL    HW294392   4.563   6.707   4.487 -1.2480 -1.5301  1.3866
27445SOL     OW94393   3.702   8.844   5.542 -0.2872 -0.0367  0.7953
27445SOL    HW194394   3.634   8.855   5.469  0.8648 -0.9982 -0.4515
27445SOL    HW294395   3.664   8.878   5.628 -2.2568 -0.3364  0.0778
27446SOL     OW94396   1.499   8.834   6.714 -0.1664 -0.0031  0.3803
27446SOL    HW194397   1.524   8.751   6.665 -0.5746  0.6209 -0.8988
27446SOL    HW294398   1.581   8.889   6.733  0.3208 -1.4200  2.6300
27447SOL     OW94399   6.825   5.951   1.057 -0.3816 -0.4453  0.1646
27447SOL    HW194400   6.734   5.942   1.016 -0.6245  3.3132 -0.2487
27447SOL    HW294401   6.893   5.964   0.986 -0.1759  1.3759  0.6640
27448SOL     OW94402   7.508   3.062   8.474  0.1067 -0.5768  0.6149
27448SOL    HW194403   7.516   3.015   8.386  1.0096  1.0226 -0.1900
27448SOL    HW294404   7.567   3.019   8.541  0.0264 -1.3205  0.2071
27449SOL     OW94405   4.637   8.133   3.122  0.2459  0.3341 -0.2150
27449SOL    HW194406   4.622   8.044   3.166  0.8898 -0.7047 -2.0517
27449SOL    HW294407   4.571   8.146   3.048 -0.9936  2.1905  1.1522
27450SOL     OW94408   9.906   2.418   4.421  0.1869 -0.2660 -0.5234
27450SOL    HW194409   9.854   2.396   4.503 -1.8009  2.3479 -1.0180
27450SOL    HW294410   9.911   2.337   4.362  0.5681 -1.8008  1.5431
27451SOL     OW94411   1.236   4.046   7.501 -0.0673 -0.1015 -0.0561
27451SOL    HW194412   1.169   4.065   7.573  0.4666  0.8440  0.1973
27451SOL    HW294413   1.252   3.947   7.497 -0.4429 -0.2079  0.8099
27452SOL     OW94414   6.719   1.275   4.064 -0.6373  0.4126 -0.1895
27452SOL    HW194415   6.650   1.208   4.090 -0.0243 -0.0959  0.1520
27452SOL    HW294416   6.777   1.296   4.142 -0.8603  1.3887 -0.2853
27453SOL     OW94417   2.834   4.804   5.550 -0.5800 -0.6705  0.1928
27453SOL    HW194418   2.796   4.822   5.459 -1.9514 -2.5924  0.3370
27453SOL    HW294419   2.805   4.875   5.614  0.6414  0.8568 -0.9173
27454SOL     OW94420   5.051   3.950   6.077  0.1194 -0.1582 -0.0912
27454SOL    HW194421   4.957   3.984   6.085 -0.1252 -0.7386 -0.4256
27454SOL    HW294422   5.058   3.862   6.124  0.2593 -0.5635 -0.8650
27455SOL     OW94423   7.934   7.602   3.329 -0.3172 -0.7359  0.1477
27455SOL    HW194424   7.986   7.609   3.415  1.0688  0.9654 -0.8001
27455SOL    HW294425   7.863   7.673   3.327 -0.2197 -0.6475 -0.1958
27456SOL     OW94426   2.844   3.232   7.589  0.1813  0.5217  0.1702
27456SOL    HW194427   2.849   3.306   7.656  3.4320  0.8967 -0.4025
27456SOL    HW294428   2.930   3.182   7.588 -0.3999 -0.5147 -2.5702
27457SOL     OW94429   7.434   6.608   2.326  0.1853 -0.4921 -0.2932
27457SOL    HW194430   7.392   6.673   2.390  0.0158 -1.6604  0.7894
27457SOL    HW294431   7.440   6.518   2.369 -1.2687 -1.6527 -2.4411
27458SOL     OW94432   4.464   5.264   0.233 -0.0454 -0.8692 -0.2022
27458SOL    HW194433   4.491   5.281   0.138 -1.5825 -3.2982 -1.1148
27458SOL    HW294434   4.491   5.172   0.259 -0.6714 -0.6241  1.3454
27459SOL     OW94435   2.199   9.390   0.163 -0.7845 -0.5091 -0.4463
27459SOL    HW194436   2.126   9.430   0.108 -1.3119 -2.5700 -1.3187
27459SOL    HW294437   2.172   9.298   0.191  0.7669 -0.6303  0.6996
27460SOL     OW94438   5.550   7.389   8.144  0.2550 -0.3727 -0.3255
27460SOL    HW194439   5.588   7.409   8.234  0.9646  0.2699 -0.7665
27460SOL    HW294440   5.479   7.456   8.122  0.3123 -0.3326 -0.3879
27461SOL     OW94441   5.090   3.565   2.216  0.3032  0.3647 -0.3218
27461SOL    HW194442   4.993   3.580   2.200  0.0127 -0.5895  0.4605
27461SOL    HW294443   5.116   3.474   2.185 -0.0476 -1.1184  3.4422
27462SOL     OW94444   9.923   0.096   4.686  0.3604 -0.2813 -0.3603
27462SOL    HW194445   9.958   0.190   4.688 -2.6973  0.9120 -0.5062
27462SOL    HW294446   9.853   0.088   4.616 -0.2759 -2.3827  0.4918
27463SOL     OW94447   8.487   1.249   0.769  0.1525 -0.3866 -0.0785
27463SOL    HW194448   8.499   1.339   0.812 -0.8215 -0.6511  0.7520
27463SOL    HW294449   8.573   1.223   0.724  0.7677  0.5007  0.5401
27464SOL     OW94450   4.053   2.367   8.713 -0.1786 -0.6162 -0.1579
27464SOL    HW194451   4.030   2.288   8.769 -0.3622 -0.7579 -0.4292
27464SOL    HW294452   3.976   2.430   8.709  0.5242  0.3671  1.3754
27465SOL     OW94453   2.735   9.628   2.699  0.7185 -0.4173  0.1034
27465SOL    HW194454   2.805   9.673   2.756  0.1211  0.4348  0.1736
27465SOL    HW294455   2.743   9.662   2.605  0.1387 -0.0076  0.1978
27466SOL     OW94456   7.407   2.146   0.931  0.5038 -0.0739 -0.1683
27466SOL    HW194457   7.468   2.141   0.852  1.6811  0.3336  0.6870
27466SOL    HW294458   7.433   2.074   0.997  0.2249  0.2586  0.3088
27467SOL     OW94459   6.965   1.089   7.195 -0.3462 -0.1363 -0.0066
27467SOL    HW194460   6.870   1.120   7.200 -0.5989 -1.0115  0.9511
27467SOL    HW294461   6.987   1.037   7.278  0.8103 -0.3756 -0.4530
27468SOL     OW94462   7.855   4.749   0.953  0.1671 -0.1538 -0.1720
27468SOL    HW194463   7.862   4.695   1.036 -3.0383 -0.6634 -0.1556
27468SOL    HW294464   7.934   4.810   0.945  1.0450 -0.8760  2.6498
27469SOL     OW94465   2.664   5.695   1.296 -0.1032  0.2573 -0.8400
27469SOL    HW194466   2.687   5.747   1.214 -0.8165 -0.1465 -1.2984
27469SOL    HW294467   2.719   5.612   1.299  1.5214  1.3629  0.2402
27470SOL     OW94468   8.215   8.060   5.730  0.4030  0.5810  0.2736
27470SOL    HW194469   8.119   8.047   5.704 -0.1193  0.1980  2.2946
27470SOL    HW294470   8.258   7.971   5.743  0.5728  0.7698  0.9916
27471SOL     OW94471   9.464   8.573   2.618 -0.1499 -0.2914 -0.1784
27471SOL    HW194472   9.368   8.545   2.617 -0.2341  0.0214 -0.7711
27471SOL    HW294473   9.522   8.492   2.624 -0.4361 -0.5069 -0.3209
27472SOL     OW94474   3.205   3.629   1.069  0.1874 -0.3419  0.0313
27472SOL    HW194475   3.191   3.630   0.970  0.1978 -0.0665  0.0336
27472SOL    HW294476   3.251   3.544   1.095 -1.2373 -1.1301 -0.0091
27473SOL     OW94477   6.368   1.350   9.985  0.6318 -0.1491 -0.7063
27473SOL    HW194478   6.305   1.299  10.043  1.4694 -0.1427  0.2157
27473SOL    HW294479   6.317   1.392   9.910 -0.4469 -0.2079 -0.0165
27474SOL     OW94480   8.698   3.458   2.924  0.0739  0.2501 -0.7273
27474SOL    HW194481   8.776   3.407   2.889 -0.6439 -1.2934 -0.1306
27474SOL    HW294482   8.639   3.485   2.848  1.5703  2.1183 -1.2626
27475SOL     OW94483   7.268   9.843   4.460 -0.1730 -0.5134  0.1668
27475SOL    HW194484   7.252   9.799   4.372  1.1422 -1.5091  0.3931
27475SOL    HW294485   7.314   9.931   4.446 -0.8544 -0.2168 -0.1913
27476SOL     OW94486   7.416   8.350   8.002 -0.5261  0.1198  0.4782
27476SOL    HW194487   7.328   8.377   8.041 -0.8942  1.2934 -1.1083
27476SOL    HW294488   7.400   8.286   7.927  0.1282 -1.5273  1.7263
27477SOL     OW94489   1.374   9.352   9.465 -0.0471 -0.0147  0.3277
27477SOL    HW194490   1.370   9.288   9.542  1.4096 -0.2603  0.2094
27477SOL    HW294491   1.427   9.312   9.391 -0.4964  0.6865 -0.3860
27478SOL     OW94492   8.617   8.322   5.405 -0.6316 -0.4819 -0.8994
27478SOL    HW194493   8.711   8.351   5.422 -1.2348  2.4376 -2.2052
27478SOL    HW294494   8.573   8.297   5.491  0.5894  0.4945  0.0220
27479SOL     OW94495   4.494   6.774   2.356 -0.7105  0.5561  0.0872
27479SOL    HW194496   4.441   6.715   2.416  0.2601 -0.7152 -0.2867
27479SOL    HW294497   4.499   6.866   2.395  0.0883 -0.2970  2.0580
27480SOL     OW94498   1.417   7.707   1.331  0.4433 -0.3485 -0.0492
27480SOL    HW194499   1.399   7.666   1.420  1.6781  1.9081  1.2701
27480SOL    HW294500   1.515   7.718   1.318  0.1628  2.6362 -0.0955
27481SOL     OW94501   0.330   6.441   7.764  0.0186  0.4923  0.3741
27481SOL    HW194502   0.367   6.502   7.694 -2.0382 -1.3107 -2.3477
27481SOL    HW294503   0.404   6.385   7.801  1.0665  1.1962 -0.6282
27482SOL     OW94504   3.762   3.814   4.586  0.6738  0.4030  0.0146
27482SOL    HW194505   3.793   3.908   4.606  0.3303  0.6110 -0.4297
27482SOL    HW294506   3.824   3.772   4.520  0.3530  0.6095 -0.4197
27483SOL     OW94507   7.511   8.133   9.191  0.3167  0.6337 -0.4715
27483SOL    HW194508   7.424   8.180   9.181  1.0632  2.5911  1.6760
27483SOL    HW294509   7.586   8.196   9.171  1.2586 -0.9279 -1.9802
27484SOL     OW94510   6.853   7.472   7.659  0.3244  0.0219  0.7355
27484SOL    HW194511   6.931   7.490   7.719  1.4495  0.7738 -0.8912
27484SOL    HW294512   6.812   7.384   7.682 -1.3150  1.7217  4.7257
27485SOL     OW94513   5.803   4.885   9.103 -0.2096  0.3541  0.0096
27485SOL    HW194514   5.799   4.813   9.172  0.1572  0.2781 -0.0516
27485SOL    HW294515   5.749   4.963   9.134 -0.6524  0.0369  0.0549
27486SOL     OW94516   5.064   6.982   1.292 -0.1632  0.0206 -0.4795
27486SOL    HW194517   5.057   6.910   1.361  0.9957  0.3153 -0.0270
27486SOL    HW294518   4.982   6.983   1.235 -1.8748  0.8274  1.9341
27487SOL     OW94519   1.301   0.273   1.432  0.0726  0.6014  0.8093
27487SOL    HW194520   1.322   0.182   1.398 -3.4035  1.2368 -3.4633
27487SOL    HW294521   1.332   0.341   1.365 -1.2842  2.3279  1.9074
27488SOL     OW94522   4.219   1.701   5.566  0.4136 -0.1647 -0.1969
27488SOL    HW194523   4.201   1.714   5.468  0.0166  2.1233  0.1550
27488SOL    HW294524   4.135   1.669   5.611  0.7375 -1.7207 -0.6768
27489SOL     OW94525   7.596   2.129   0.757  0.0266 -0.1368 -0.1523
27489SOL    HW194526   7.623   2.187   0.680  0.6540 -0.5414 -0.2377
27489SOL    HW294527   7.672   2.120   0.821 -1.1419  1.8915  1.5849
27490SOL     OW94528   4.056   2.651   7.727 -0.2162 -0.1112 -0.1147
27490SOL    HW194529   4.024   2.732   7.677 -1.2665  0.3696  1.2981
27490SOL    HW294530   4.006   2.643   7.813  1.6596 -0.8402  0.9518
27491SOL     OW94531   5.130   8.110   4.429 -0.4483 -0.0062  0.5058
27491SOL    HW194532   5.146   8.206   4.451 -2.8605  0.4751  0.3217
27491SOL    HW294533   5.217   8.066   4.408  0.7775  1.9437  1.3348
27492SOL     OW94534   0.622   1.600   6.361 -0.5578 -0.3568 -0.2723
27492SOL    HW194535   0.574   1.644   6.437 -0.0890 -0.2816 -0.0175
27492SOL    HW294536   0.646   1.506   6.388  1.6257  0.3985  0.5391
27493SOL     OW94537   9.398   6.349   4.837  0.4153  0.0270  0.0941
27493SOL    HW194538   9.420   6.270   4.781  0.5127  0.5767 -0.6514
27493SOL    HW294539   9.479   6.406   4.849 -0.0346  0.8792 -0.7776
27494SOL     OW94540   2.202   6.527   6.718  0.1749 -0.0639 -0.5126
27494SOL    HW194541   2.228   6.433   6.742 -0.3221 -0.1195 -0.1715
27494SOL    HW294542   2.210   6.540   6.619  2.3778  0.1999 -0.3282
27495SOL     OW94543   0.906   5.841   5.627  0.6251  0.3163  0.5446
27495SOL    HW194544   0.935   5.920   5.574 -1.0238  0.4256 -0.2360
27495SOL    HW294545   0.957   5.760   5.599 -0.8518  0.1845 -1.8777
27496SOL     OW94546   8.336   4.991   1.041 -0.0675 -0.4692  0.1379
27496SOL    HW194547   8.345   5.082   1.001 -1.4465  0.5669  2.1031
27496SOL    HW294548   8.425   4.946   1.042  0.0590 -0.4267 -3.7872
27497SOL     OW94549   0.117   3.039   9.951 -0.2928  0.7124 -0.5301
27497SOL    HW194550   0.134   2.943   9.927 -1.6463  0.3923 -0.2596
27497SOL    HW294551   0.184   3.069  10.018 -0.0891 -0.1679 -0.3310
27498SOL     OW94552   8.786   7.686   7.654 -0.4325 -0.1308 -0.4534
27498SOL    HW194553   8.871   7.648   7.690 -0.7777 -2.3359 -1.8821
27498SOL    HW294554   8.803   7.777   7.616  0.6814  0.6313  1.8087
27499SOL     OW94555   8.884   6.304   6.321  0.2972  0.2785 -0.1755
27499SOL    HW194556   8.863   6.208   6.340 -0.7477  0.4909 -0.2416
27499SOL    HW294557   8.847   6.329   6.231  2.3152  0.1925 -1.0647
27500SOL     OW94558   7.728   2.628   9.911 -0.3624 -0.4630  0.0573
27500SOL    HW194559   7.630   2.629   9.889  0.2611 -0.3713 -2.9481
27500SOL    HW294560   7.763   2.722   9.909 -0.2435 -0.4685  1.3936
27501SOL     OW94561   9.552   2.378   6.060  0.1106 -0.0819  0.0894
27501SOL    HW194562   9.541   2.284   6.027 -1.2208  0.3745 -0.8030
27501SOL    HW294563   9.640   2.414   6.029 -0.1596 -0.4256 -1.0872
27502SOL     OW94564   4.144   7.157   7.022 -0.2982 -0.1596 -0.2435
27502SOL    HW194565   4.109   7.246   7.051 -2.7134 -1.2007  0.2225
27502SOL    HW294566   4.144   7.095   7.101  0.8493 -0.7205 -0.6823
27503SOL     OW94567   2.878   3.888   2.175  0.3173  0.1210  0.2273
27503SOL    HW194568   2.974   3.874   2.199  0.9939  0.9597 -1.8650
27503SOL    HW294569   2.857   3.839   2.090 -1.2236 -0.3534  0.8491
27504SOL     OW94570   2.635   7.122   4.699  0.4657  0.1685 -0.5732
27504SOL    HW194571   2.585   7.208   4.685  0.6438  0.0793 -1.7970
27504SOL    HW294572   2.685   7.098   4.615  3.9813  1.1615  1.1523
27505SOL     OW94573   8.922   4.660   5.230 -0.4266  0.2715  0.0596
27505SOL    HW194574   8.882   4.612   5.151 -0.4152  1.4622 -0.6864
27505SOL    HW294575   8.989   4.727   5.198 -1.1040  1.4325  1.0123
27506SOL     OW94576   3.977   8.491   8.933  0.1292 -0.1598  0.0418
27506SOL    HW194577   3.941   8.403   8.902  2.3525 -1.0321 -0.1451
27506SOL    HW294578   3.982   8.554   8.855 -1.0830  0.0096  0.0969
27507SOL     OW94579   3.131   2.567   7.537 -0.1578  0.5382  0.1278
27507SOL    HW194580   3.130   2.524   7.628 -1.6597 -0.3807 -0.3023
27507SOL    HW294581   3.221   2.555   7.496  0.7715  1.6162  1.7909
27508SOL     OW94582   8.357   7.823   1.041 -0.0598  0.5318  0.0756
27508SOL    HW194583   8.362   7.795   0.945  0.5481 -1.1010  0.5704
27508SOL    HW294584   8.447   7.853   1.072 -0.1601  0.6486  0.2562
27509SOL     OW94585   9.131   1.467   7.512 -0.1143 -0.2063  0.3264
27509SOL    HW194586   9.086   1.556   7.520 -0.7803 -0.5585  0.5853
27509SOL    HW294587   9.074   1.397   7.557  0.2186 -0.8226 -0.2076
27510SOL     OW94588   3.498   3.728   7.914 -0.0753  0.7190  0.4797
27510SOL    HW194589   3.557   3.768   7.844 -1.5344  0.9031 -0.6662
27510SOL    HW294590   3.536   3.640   7.944  0.0153  0.1560 -1.2700
27511SOL     OW94591   1.978   7.285   9.203 -0.4148 -0.1251 -0.1153
27511SOL    HW194592   1.919   7.363   9.225 -1.2467 -0.5190 -0.9405
27511SOL    HW294593   1.958   7.209   9.264  0.0616  0.1354  0.3722
27512SOL     OW94594   3.157   4.904   6.149 -0.1297 -0.5300 -0.3152
27512SOL    HW194595   3.189   4.828   6.205  0.4702 -0.5537 -0.6863
27512SOL    HW294596   3.235   4.955   6.115 -0.2744 -2.6099 -4.0614
27513SOL     OW94597   0.874   4.200   8.615  0.0827 -0.6142  0.6816
27513SOL    HW194598   0.820   4.266   8.667  0.5883  0.2132  0.1633
27513SOL    HW294599   0.834   4.109   8.626 -1.6112  0.0223  0.0740
27514SOL     OW94600   5.675   2.623   0.862 -0.5102  0.3238 -0.0070
27514SOL    HW194601   5.651   2.551   0.798  0.6412 -0.6508  0.6198
27514SOL    HW294602   5.756   2.671   0.829 -2.3401  2.5822 -1.3515
27515SOL     OW94603   8.553   3.209   7.339  0.0621 -0.0021  0.0833
27515SOL    HW194604   8.548   3.308   7.325 -3.3159  0.3400  3.1020
27515SOL    HW294605   8.513   3.163   7.260  0.6182  1.0504 -0.8305
27516SOL     OW94606   9.391   2.201   0.462  0.1816 -0.1758 -0.1729
27516SOL    HW194607   9.338   2.199   0.547  1.2487 -1.0494  0.4757
27516SOL    HW294608   9.342   2.148   0.392 -0.4850  0.1840  0.0093
27517SOL     OW94609   2.202   8.351   8.672 -0.3645  0.3670  0.3639
27517SOL    HW194610   2.148   8.431   8.647 -2.2748 -1.5464 -1.9078
27517SOL    HW294611   2.251   8.316   8.592 -0.0763 -1.0976  1.1476
27518SOL     OW94612   0.807   4.547   2.146  0.1366 -0.2333 -0.5495
27518SOL    HW194613   0.749   4.558   2.066  0.2019  1.2314 -0.4198
27518SOL    HW294614   0.889   4.496   2.122  0.8142  1.4027 -1.7567
27519SOL     OW94615   3.305   4.356   2.311  0.4154  0.2503 -0.3348
27519SOL    HW194616   3.399   4.387   2.295  0.7239 -0.0290  0.8624
27519SOL    HW294617   3.242   4.433   2.300  0.5881  0.0848 -2.8142
27520SOL     OW94618   7.824   5.215   3.952  0.1495  0.2533 -0.1714
27520SOL    HW194619   7.774   5.208   3.865  0.3861 -0.8719 -0.2225
27520SOL    HW294620   7.922   5.215   3.934  0.2400 -1.6494  0.1833
27521SOL     OW94621   8.428   3.437   3.575  0.0346  0.2949 -0.0092
27521SOL    HW194622   8.426   3.465   3.479  1.2979 -2.5050 -0.9166
27521SOL    HW294623   8.522   3.417   3.602 -0.3065  1.0445  1.8438
27522SOL     OW94624   1.645   3.433   0.831  0.2797 -0.1304  0.2555
27522SOL    HW194625   1.617   3.507   0.770  1.3994 -0.8104 -1.1003
27522SOL    HW294626   1.570   3.368   0.842 -0.8065  1.3316  1.6761
27523SOL     OW94627   0.166   4.196   6.990 -0.4245 -0.6443  0.0959
27523SOL    HW194628   0.225   4.177   6.912 -0.6034 -0.7997 -0.0018
27523SOL    HW294629   0.073   4.216   6.957 -0.6440 -1.3139  0.3104
27524SOL     OW94630   6.883   9.499   5.488  1.0505  0.3993 -0.7640
27524SOL    HW194631   6.940   9.550   5.423  0.8239 -0.5522 -1.7354
27524SOL    HW294632   6.786   9.512   5.464  0.9601  0.1965 -0.5089
27525SOL     OW94633   5.328   8.282   9.171  0.1258 -0.3176 -0.0970
27525SOL    HW194634   5.233   8.312   9.160 -0.3082 -1.5109  0.2473
27525SOL    HW294635   5.385   8.360   9.195 -0.4395  0.7506 -2.1364
27526SOL     OW94636   4.181   3.320   9.239 -0.0753 -0.0911 -0.4678
27526SOL    HW194637   4.260   3.262   9.258 -0.0026  0.1694  0.0243
27526SOL    HW294638   4.157   3.371   9.321  0.0185  0.7774 -0.9799
27527SOL     OW94639   1.735   7.430   9.263 -0.5715 -0.0667  0.0196
27527SOL    HW194640   1.762   7.504   9.324 -1.0693 -0.3348  0.5680
27527SOL    HW294641   1.667   7.371   9.308 -0.4435 -0.6570 -0.5351
27528SOL     OW94642   3.073   9.089   1.465 -0.0773 -0.6433 -0.2752
27528SOL    HW194643   3.108   9.102   1.373 -0.7400 -2.4225 -0.8077
27528SOL    HW294644   3.104   9.001   1.501 -0.9369 -0.5825  0.6631
27529SOL     OW94645   7.008   0.874   2.423  0.2701 -0.5937 -0.3058
27529SOL    HW194646   6.913   0.864   2.451  0.4342  0.5254  0.6872
27529SOL    HW294647   7.063   0.902   2.502  1.4407 -1.3357 -0.8487
27530SOL     OW94648   0.483   4.789   4.506  0.8799  0.2076 -0.0529
27530SOL    HW194649   0.539   4.745   4.436  0.3768 -0.1051 -0.2624
27530SOL    HW294650   0.414   4.847   4.462  0.9605  0.5033  0.2031
27531SOL     OW94651   7.591   1.517   1.191 -0.4918 -0.2306  0.2174
27531SOL    HW194652   7.539   1.577   1.130  0.2433 -0.7896 -0.9844
27531SOL    HW294653   7.659   1.571   1.241 -0.1469  0.0206 -0.5111
27532SOL     OW94654   7.605   5.009   2.179  0.3953  0.1129 -0.5985
27532SOL    HW194655   7.570   4.946   2.248  2.0965 -0.5524 -0.3086
27532SOL    HW294656   7.669   5.074   2.222  0.4432  0.5416 -1.3048
27533SOL     OW94657   1.010   0.911   7.610 -0.1722  0.2558 -0.2851
27533SOL    HW194658   0.933   0.961   7.648 -0.3987  0.1493 -0.6070
27533SOL    HW294659   0.984   0.870   7.522  0.5434  1.0481 -0.8722
27534SOL     OW94660   2.878   0.027   4.645  0.8636  0.1589  0.0091
27534SOL    HW194661   2.932   0.025   4.561  0.2597 -1.5102 -0.3474
27534SOL    HW294662   2.790  -0.018   4.630  1.6284 -2.1924  2.1136
27535SOL     OW94663   6.396   1.112   0.470  0.0754  0.4891  0.5889
27535SOL    HW194664   6.379   1.054   0.390  0.2138  0.7538  0.3683
27535SOL    HW294665   6.310   1.154   0.499  0.2896  1.5800 -0.3358
27536SOL     OW94666   3.221   3.183   9.465  0.0617  0.3244  0.1721
27536SOL    HW194667   3.247   3.236   9.384 -0.4568  0.6205  0.1966
27536SOL    HW294668   3.132   3.215   9.499  0.8436  1.0413  1.5869
27537SOL     OW94669   4.750   7.951   4.655 -0.0087  0.4423 -0.0852
27537SOL    HW194670   4.689   7.992   4.723  0.4964  0.6229  0.2618
27537SOL    HW294671   4.793   7.870   4.693 -0.7091 -0.2030 -0.6390
27538SOL     OW94672   2.187   9.645   1.856  0.3701 -0.1948  0.1710
27538SOL    HW194673   2.268   9.610   1.903 -0.3209 -1.5981  0.3369
27538SOL    HW294674   2.117   9.573   1.852 -1.2886  1.3471  0.9959
27539SOL     OW94675   7.919   0.426   9.855  0.0055  0.3892 -0.0502
27539SOL    HW194676   7.873   0.497   9.909  0.7357  3.2166 -2.9278
27539SOL    HW294677   7.859   0.399   9.779 -0.3766 -2.3460  1.1911
27540SOL     OW94678   1.702   7.649   3.292  0.2570 -0.4541 -0.5242
27540SOL    HW194679   1.726   7.735   3.338  0.0497  0.1417 -1.4940
27540SOL    HW294680   1.606   7.653   3.263 -0.1447 -1.5675  0.5996
27541SOL     OW94681   8.093   7.364   8.657 -0.2261 -0.4790  0.0879
27541SOL    HW194682   8.087   7.272   8.619 -2.6041 -0.2771 -0.0468
27541SOL    HW294683   8.190   7.386   8.672  0.4738 -2.3943 -1.2863
27542SOL     OW94684   2.392   9.707   9.973 -0.1026  0.8388  0.0259
27542SOL    HW194685   2.423   9.642  10.042 -0.4218  0.8884  0.2160
27542SOL    HW294686   2.332   9.774  10.015 -0.4399  0.7616 -0.3369
27543SOL     OW94687   7.216   9.011   5.152 -0.3723  0.4492 -0.0773
27543SOL    HW194688   7.231   8.913   5.156  1.0687  0.5761 -1.6717
27543SOL    HW294689   7.284   9.058   5.209  0.0479  0.6063 -0.7062
27544SOL     OW94690   9.478   0.383   0.060  0.2675 -0.1932 -0.4870
27544SOL    HW194691   9.385   0.417   0.045  0.0555 -0.8626 -0.7085
27544SOL    HW294692   9.503   0.320  -0.014  0.1828 -1.4996  0.5779
27545SOL     OW94693   6.205   8.289   7.778 -0.2095  0.3353 -0.2143
27545SOL    HW194694   6.268   8.304   7.854 -0.0729 -1.5174  0.0645
27545SOL    HW294695   6.252   8.308   7.692  0.4761 -0.1838  0.0368
27546SOL     OW94696   0.143   5.328   2.205  0.4409  0.1700  0.4293
27546SOL    HW194697   0.089   5.403   2.166  1.3597  0.8344  0.4408
27546SOL    HW294698   0.109   5.306   2.297  0.8939  1.3228  0.8747
27547SOL     OW94699   7.369   1.537   5.284  0.3128 -0.2655  0.1006
27547SOL    HW194700   7.273   1.563   5.275  0.1603 -1.4393 -1.9571
27547SOL    HW294701   7.377   1.460   5.347 -0.2068 -0.8053 -0.4918
27548SOL     OW94702   1.480   3.514   7.678 -0.4127  0.3843  0.1576
27548SOL    HW194703   1.397   3.478   7.720 -0.6707 -0.4667 -1.0278
27548SOL    HW294704   1.519   3.445   7.616  0.9776  0.9061  0.4249
27549SOL     OW94705   5.070   1.633   8.508  0.1817 -0.8667  0.4740
27549SOL    HW194706   5.003   1.579   8.560  1.4968 -1.2990  1.7920
27549SOL    HW294707   5.161   1.616   8.546  0.6692  2.0834  0.7402
27550SOL     OW94708   4.640   1.309   8.110 -0.1722  0.7680  0.2556
27550SOL    HW194709   4.542   1.326   8.103 -0.3601  0.0590  1.2073
27550SOL    HW294710   4.670   1.320   8.205  0.5071  0.1082  0.1249
27551SOL     OW94711   1.293   4.084   4.082 -0.1718 -0.1012 -0.4260
27551SOL    HW194712   1.291   3.994   4.126 -0.2531  0.7602  1.3757
27551SOL    HW294713   1.381   4.097   4.037 -0.5004 -1.4450 -1.4770
27552SOL     OW94714   3.454   4.104   0.526 -0.4600  0.3454  0.3095
27552SOL    HW194715   3.540   4.054   0.514 -1.4604 -1.2571 -0.4267
27552SOL    HW294716   3.423   4.094   0.621  0.1024  0.8591  0.5560
27553SOL     OW94717   6.208   5.274   8.393  0.4656  0.3790  0.6498
27553SOL    HW194718   6.229   5.226   8.478  1.3911 -1.3799 -0.5378
27553SOL    HW294719   6.113   5.254   8.367  0.5150  0.0459  0.7170
27554SOL     OW94720   8.766   7.802   4.248 -0.0746 -0.1792 -0.4467
27554SOL    HW194721   8.754   7.772   4.343  3.1172 -0.0643  0.0414
27554SOL    HW294722   8.821   7.885   4.246 -2.4444  1.4331 -2.2762
27555SOL     OW94723   4.983   3.840   9.195  0.1249  0.0767 -0.1927
27555SOL    HW194724   5.013   3.772   9.128 -1.6161  0.8507 -1.8174
27555SOL    HW294725   5.053   3.910   9.207  0.2208  0.2485 -1.6805
27556SOL     OW94726   9.225   3.219   8.977 -0.0817  0.1463 -0.0557
27556SOL    HW194727   9.161   3.251   8.907  0.7547  2.9502  0.4050
27556SOL    HW294728   9.183   3.231   9.068  0.6396  0.9476  0.1781
27557SOL     OW94729   7.056   5.321   2.597 -0.4360  0.2765 -0.0988
27557SOL    HW194730   6.960   5.292   2.595 -0.3163 -0.1494  0.3932
27557SOL    HW294731   7.074   5.379   2.518 -0.7023 -0.9138 -1.0511
27558SOL     OW94732   2.004   1.582   8.698  0.0424 -0.5993  0.4505
27558SOL    HW194733   2.090   1.613   8.738  0.3394 -1.9175  0.8613
27558SOL    HW294734   1.975   1.498   8.743 -2.1328  0.5079  1.2032
27559SOL     OW94735   5.020   4.158   6.725  0.0495  0.1910 -0.5932
27559SOL    HW194736   4.973   4.197   6.646 -0.6016  0.4950 -0.0615
27559SOL    HW294737   5.111   4.126   6.698  0.2570  1.3048 -1.2222
27560SOL     OW94738   5.444   4.268   2.247 -0.2386 -0.3740  0.4989
27560SOL    HW194739   5.374   4.234   2.310 -2.6793 -0.8823 -2.3407
27560SOL    HW294740   5.469   4.195   2.183  0.6825  0.7290 -0.4232
27561SOL     OW94741   1.308   8.657   0.943  0.3800  0.0874  0.5468
27561SOL    HW194742   1.322   8.716   1.022  0.0123 -0.2555  0.8704
27561SOL    HW294743   1.281   8.566   0.973  4.2365 -1.2661  0.1672
27562SOL     OW94744   8.405   2.354   1.326 -0.3500 -0.1619 -0.0064
27562SOL    HW194745   8.461   2.326   1.403 -0.6425 -1.6765 -0.3400
27562SOL    HW294746   8.318   2.304   1.326 -1.0021  0.9434 -0.4419
27563SOL     OW94747   9.019   2.446   9.903  0.0590 -0.2847 -0.4881
27563SOL    HW194748   9.082   2.502   9.956 -1.7747  1.1832  0.1711
27563SOL    HW294749   8.938   2.499   9.879 -0.1014 -1.5532 -2.9879
27564SOL     OW94750   7.323   1.786   0.271 -0.1286 -0.2835 -0.1711
27564SOL    HW194751   7.417   1.753   0.268  0.2864  0.7674  0.8888
27564SOL    HW294752   7.265   1.719   0.317 -0.0143 -1.1718 -1.2908
27565SOL     OW94753   3.024   5.679   1.300  0.1744 -0.0182  0.6223
27565SOL    HW194754   3.010   5.777   1.314  0.5184  0.0704  0.3548
27565SOL    HW294755   3.083   5.643   1.373  0.1705  0.0057  0.6370
27566SOL     OW94756   1.076   4.744   7.207 -0.0380  0.0073  0.4001
27566SOL    HW194757   1.032   4.735   7.118 -2.9709 -0.1033  1.8242
27566SOL    HW294758   1.057   4.663   7.262  0.7060  0.6328  1.5982
27567SOL     OW94759   1.455   6.685   3.385 -0.1326  0.1760 -0.1295
27567SOL    HW194760   1.359   6.686   3.357  0.0779 -0.1559 -0.8573
27567SOL    HW294761   1.474   6.604   3.440 -0.0812 -0.1578 -0.6400
27568SOL     OW94762   0.365   1.907   6.367  0.0212 -0.1883 -0.2170
27568SOL    HW194763   0.357   1.921   6.268  0.3692  1.8669  0.0176
27568SOL    HW294764   0.360   1.995   6.414 -0.8721 -1.1973  1.6691
27569SOL     OW94765   8.129   5.271   5.877 -0.3955  0.0265 -0.7661
27569SOL    HW194766   8.150   5.342   5.810 -1.1778  0.6774 -0.3284
27569SOL    HW294767   8.164   5.300   5.967  1.6169 -1.3156 -1.0761
27570SOL     OW94768   1.081   5.309   1.593  0.3027  0.1263 -0.5426
27570SOL    HW194769   1.034   5.358   1.666  1.6956 -0.4443  0.7671
27570SOL    HW294770   1.016   5.284   1.522 -1.0175  0.9476  0.3651
27571SOL     OW94771   1.122   0.600   3.565  0.4128 -0.0453 -0.4432
27571SOL    HW194772   1.188   0.535   3.529  1.0162 -0.0808  0.7126
27571SOL    HW294773   1.145   0.623   3.659 -2.3607 -1.6567  0.7100
27572SOL     OW94774   9.015   0.710   3.582  0.4635 -0.6697  0.0502
27572SOL    HW194775   9.061   0.752   3.503  0.1084 -0.5587 -0.1004
27572SOL    HW294776   9.063   0.735   3.666 -1.0101  1.8875  0.1955
27573SOL     OW94777   6.034   5.479   2.324 -0.2967 -0.7884  0.0764
27573SOL    HW194778   6.096   5.557   2.312  0.6435 -1.2612  1.7868
27573SOL    HW294779   5.984   5.464   2.239  0.4971  0.8335 -0.7082
27574SOL     OW94780   4.546   0.048   3.556 -0.0830 -0.5996 -0.4882
27574SOL    HW194781   4.639   0.082   3.559 -0.0176 -0.7470 -0.7745
27574SOL    HW294782   4.485   0.120   3.522 -0.1282 -0.3891  0.0452
27575SOL     OW94783   3.413   8.155   1.589  0.0771 -0.0394  0.4435
27575SOL    HW194784   3.431   8.180   1.685 -0.3866  0.7947  0.3192
27575SOL    HW294785   3.314   8.156   1.573  0.1015 -1.0832  0.1906
27576SOL     OW94786   1.278   7.320   5.779 -0.0744  0.3543 -0.0221
27576SOL    HW194787   1.370   7.351   5.756  0.1721  0.4267  1.0423
27576SOL    HW294788   1.223   7.397   5.809 -1.2532  0.7570 -3.0018
27577SOL     OW94789   0.834   1.061   4.086  0.2216  0.6040 -0.3381
27577SOL    HW194790   0.788   1.036   4.001  0.7620 -0.5979 -0.2846
27577SOL    HW294791   0.836   1.160   4.095  1.4712  0.7988 -2.4542
27578SOL     OW94792   4.072   3.784   5.189 -0.2671 -0.1711 -0.1351
27578SOL    HW194793   4.014   3.726   5.131  1.0928 -0.5680 -1.1208
27578SOL    HW294794   4.148   3.730   5.224 -0.0936  0.5275  0.5793
27579SOL     OW94795   9.574   0.886   1.690 -0.5398  0.3352  0.6910
27579SOL    HW194796   9.511   0.842   1.753 -0.1585  1.9200  2.2003
27579SOL    HW294797   9.668   0.867   1.717 -0.3687  1.9132  1.2699
27580SOL     OW94798   4.594   6.017   8.548  0.5121  0.4944  0.1222
27580SOL    HW194799   4.592   6.012   8.448  0.9365  0.1803  0.1260
27580SOL    HW294800   4.510   5.977   8.584  1.3387 -1.4558 -0.0484
27581SOL     OW94801   5.361   8.360   4.373 -0.5966  0.0127 -0.0868
27581SOL    HW194802   5.389   8.438   4.317  0.8608 -0.9530 -0.7319
27581SOL    HW294803   5.384   8.377   4.468  2.3760 -0.8054 -0.6244
27582SOL     OW94804   0.344   0.552   0.422  0.6506  0.3060 -0.7200
27582SOL    HW194805   0.412   0.573   0.491 -2.2036  0.2276  2.2443
27582SOL    HW294806   0.372   0.471   0.371  3.0587  0.6682 -0.0080
27583SOL     OW94807   1.931   5.306   4.706 -0.1092  0.2696  0.3562
27583SOL    HW194808   1.972   5.368   4.639 -0.5443 -0.6708 -0.8072
27583SOL    HW294809   1.850   5.263   4.666 -1.0070  0.5180  1.8827
27584SOL     OW94810   8.460   7.710   9.575 -0.2749  0.0660 -0.6229
27584SOL    HW194811   8.438   7.807   9.562  1.2045  0.1358 -2.7879
27584SOL    HW294812   8.534   7.684   9.514  0.2011 -2.1482  0.8356
27585SOL     OW94813   1.383   8.417   1.566 -0.0828  0.2299 -0.4342
27585SOL    HW194814   1.308   8.378   1.620  1.8579 -0.9752  1.4914
27585SOL    HW294815   1.433   8.343   1.521  0.8438  0.9026 -0.5087
27586SOL     OW94816   7.394   7.339   6.077 -0.3426 -0.3934  0.2017
27586SOL    HW194817   7.440   7.424   6.103 -3.6076  1.2292  0.8784
27586SOL    HW294818   7.331   7.311   6.149  0.4429 -3.2435 -0.1672
27587SOL     OW94819   5.157   0.577   9.045 -0.2947 -0.4592 -0.5569
27587SOL    HW194820   5.182   0.483   9.024 -0.4620 -0.2411 -1.7307
27587SOL    HW294821   5.075   0.602   8.994 -0.9067 -0.0411  0.6199
27588SOL     OW94822   2.922   9.465   7.428 -0.0808 -0.0918  0.1070
27588SOL    HW194823   2.877   9.475   7.339  0.9587 -1.0090 -0.5438
27588SOL    HW294824   3.017   9.494   7.420  0.1465 -0.6393  0.7922
27589SOL     OW94825   8.852   3.589   1.052 -0.1531  0.2589  0.5491
27589SOL    HW194826   8.774   3.649   1.070  0.3507  1.2447 -0.5327
27589SOL    HW294827   8.819   3.500   1.019 -0.8425  0.3400  0.9971
27590SOL     OW94828   8.354   7.749   0.769  0.4316  0.0472  0.1524
27590SOL    HW194829   8.296   7.806   0.711  1.1785  0.0384 -0.6049
27590SOL    HW294830   8.327   7.653   0.758 -0.2407  0.1601  0.7600
27591SOL     OW94831   5.363   8.818   7.296 -0.3346  0.6400  0.2885
27591SOL    HW194832   5.316   8.889   7.349 -1.2764 -0.2688  0.6792
27591SOL    HW294833   5.300   8.776   7.231  0.0632 -0.2491  0.4647
27592SOL     OW94834   6.676   5.114   8.824  0.3225 -0.0465  0.4485
27592SOL    HW194835   6.642   5.208   8.817  1.3944  0.3563  0.5421
27592SOL    HW294836   6.739   5.096   8.748  0.2999 -0.6197  0.5614
27593SOL     OW94837   9.032   9.403   4.104  0.6283  0.4570  0.9485
27593SOL    HW194838   9.072   9.368   4.189  3.3065  0.9232 -0.0534
27593SOL    HW294839   9.103   9.451   4.052 -0.5560 -1.1270 -2.2646
27594SOL     OW94840   3.679   3.521   1.624 -0.5947  0.3862  0.3018
27594SOL    HW194841   3.584   3.520   1.658 -0.6199  0.9482  0.2644
27594SOL    HW294842   3.700   3.613   1.590 -0.0695  0.2303  0.2123
27595SOL     OW94843   9.437   6.442   7.369  0.0090 -0.3913  0.1140
27595SOL    HW194844   9.456   6.375   7.297  0.5458 -0.4397  0.3064
27595SOL    HW294845   9.497   6.426   7.447 -0.6997 -0.4509  0.6506
27596SOL     OW94846   0.582   3.539   9.922  0.4171  0.2260  0.2581
27596SOL    HW194847   0.629   3.585   9.997  2.1225  0.8532 -1.1691
27596SOL    HW294848   0.518   3.603   9.879 -0.4696 -0.0964  1.0819
27597SOL     OW94849   8.292   9.570   9.473 -0.2215  0.4855 -0.0298
27597SOL    HW194850   8.319   9.581   9.377 -0.6326 -0.1586 -0.2203
27597SOL    HW294851   8.248   9.481   9.486  1.3422 -0.1553  1.0997
27598SOL     OW94852   8.626   1.568   5.120  0.0041  0.1054  0.1674
27598SOL    HW194853   8.707   1.623   5.141  0.0795  0.5895 -1.3035
27598SOL    HW294854   8.654   1.474   5.101  0.1073  0.0418  0.6266
27599SOL     OW94855   7.897   4.670   1.209 -0.6792  0.2275  0.4434
27599SOL    HW194856   7.964   4.714   1.268  0.4427  0.9678 -1.3278
27599SOL    HW294857   7.930   4.579   1.183 -1.0931 -0.0336  0.8404
27600SOL     OW94858   4.044   5.693   4.567 -0.1016 -0.1274 -0.4264
27600SOL    HW194859   4.137   5.659   4.559 -0.1249 -1.2101  3.2099
27600SOL    HW294860   3.980   5.624   4.533  0.2265 -0.7292  0.1934
27601SOL     OW94861   6.626   7.820   4.246  0.2588 -0.5905 -0.0987
27601SOL    HW194862   6.588   7.903   4.286  0.7080 -0.1585 -0.5575
27601SOL    HW294863   6.571   7.791   4.168 -0.4904 -1.3083  0.6872
27602SOL     OW94864   0.195   5.465   4.113  0.2120  0.2493 -0.1125
27602SOL    HW194865   0.118   5.402   4.111 -0.0766  0.6309 -1.3844
27602SOL    HW294866   0.245   5.454   4.199 -0.9543 -0.3547  0.4961
27603SOL     OW94867   6.038   0.759   1.851 -0.1470 -0.3145 -0.2603
27603SOL    HW194868   6.105   0.768   1.925 -0.4491 -0.3000  0.0104
27603SOL    HW294869   5.996   0.669   1.855 -0.7296 -0.0262  0.0588
27604SOL     OW94870   1.551   9.024   2.729 -0.1242  0.2485  0.6419
27604SOL    HW194871   1.576   8.928   2.716 -1.1456  0.2937 -1.8845
27604SOL    HW294872   1.626   9.072   2.775  0.8615 -1.4936  0.8885
27605SOL     OW94873   0.927   8.661   1.322  0.2607 -0.1373  0.2667
27605SOL    HW194874   0.859   8.590   1.339  0.7978 -0.6948  0.0855
27605SOL    HW294875   0.919   8.694   1.228  0.1908 -0.1572  0.2661
27606SOL     OW94876   2.601   8.620   9.672  0.5244 -0.2998 -0.4517
27606SOL    HW194877   2.602   8.704   9.616 -1.2310 -1.1509 -1.8013
27606SOL    HW294878   2.579   8.542   9.614 -0.2955 -1.3607  1.2653
27607SOL     OW94879   6.293   1.853   1.437  0.1652 -0.3242  0.0256
27607SOL    HW194880   6.303   1.924   1.368  0.0204  0.5958  0.9372
27607SOL    HW294881   6.267   1.767   1.393 -0.8801  0.4794 -0.9557
27608SOL     OW94882   0.295   3.894   4.515  0.0187 -0.1980 -0.4483
27608SOL    HW194883   0.257   3.914   4.425 -0.9344 -2.8021 -0.6583
27608SOL    HW294884   0.359   3.818   4.509 -1.6486 -1.8266  1.3684
27609SOL     OW94885   0.794   7.404   7.804  0.2492  0.2173 -0.2951
27609SOL    HW194886   0.802   7.304   7.812  0.6178  0.3292  0.8526
27609SOL    HW294887   0.836   7.447   7.884 -1.9531  1.2178  0.3793
27610SOL     OW94888   9.295   3.121   5.803  0.0094  0.5770 -0.2451
27610SOL    HW194889   9.314   3.185   5.878 -0.9436 -0.0214  0.5143
27610SOL    HW294890   9.197   3.114   5.789  0.0799 -0.8841 -0.1598
27611SOL     OW94891   1.691   6.827   3.445  0.3365 -0.3600 -0.4602
27611SOL    HW194892   1.599   6.797   3.419  0.6078 -0.8239 -0.8693
27611SOL    HW294893   1.713   6.791   3.536 -0.0690  0.1467 -0.1506
27612SOL     OW94894   4.301   1.792   1.997 -0.3596 -0.2388 -0.3030
27612SOL    HW194895   4.370   1.824   1.932  0.5656 -1.6363 -0.0471
27612SOL    HW294896   4.220   1.762   1.946  0.1901 -0.9161 -0.7986
27613SOL     OW94897   2.870   8.526   9.425 -0.1475 -0.2068 -0.4673
27613SOL    HW194898   2.875   8.534   9.524 -1.7831  1.7254 -0.5192
27613SOL    HW294899   2.851   8.615   9.385  0.0165 -1.0532 -2.4874
27614SOL     OW94900   2.578   7.097   0.243 -0.0874 -0.4326  0.2278
27614SOL    HW194901   2.541   7.182   0.205 -0.7622  0.2178  2.2470
27614SOL    HW294902   2.645   7.118   0.314  0.7909 -1.6047 -0.2340
27615SOL     OW94903   6.683   6.003   7.815  0.6120  0.5008  0.0927
27615SOL    HW194904   6.770   6.049   7.832  0.1698  0.9266  1.2604
27615SOL    HW294905   6.674   5.925   7.878  0.1514  0.4650 -0.0140
27616SOL     OW94906   8.838   6.579   5.795 -0.0534  0.0239  0.2798
27616SOL    HW194907   8.779   6.598   5.873 -0.0610 -1.5933  0.7009
27616SOL    HW294908   8.930   6.614   5.812  0.7990 -3.0823  2.4161
27617SOL     OW94909   3.791   6.125   9.189 -0.7831 -0.4252 -0.0037
27617SOL    HW194910   3.701   6.084   9.204 -0.5442 -0.2670  1.9981
27617SOL    HW294911   3.820   6.172   9.273  0.6881  0.4362 -0.9869
27618SOL     OW94912   8.543   0.481   8.741  0.0168  0.3234  0.3106
27618SOL    HW194913   8.539   0.428   8.656 -1.7406 -0.9044  1.1245
27618SOL    HW294914   8.605   0.559   8.729  0.4563 -0.3204 -1.8110
27619SOL     OW94915   2.210   2.195   2.328 -0.1060 -0.8510 -0.2584
27619SOL    HW194916   2.177   2.206   2.422 -1.1355 -1.3972 -0.5479
27619SOL    HW294917   2.240   2.284   2.293 -1.2290 -0.3375  0.0358
27620SOL     OW94918   1.794   0.441   8.960 -0.0360  0.1343 -0.1788
27620SOL    HW194919   1.775   0.354   9.006 -1.4968 -0.3265 -1.6340
27620SOL    HW294920   1.725   0.509   8.986 -1.2396 -0.3076 -2.1310
27621SOL     OW94921   9.081   3.121   8.081  0.6572 -0.2173  0.4943
27621SOL    HW194922   9.114   3.032   8.113  3.5607  1.0644  1.2501
27621SOL    HW294923   9.046   3.173   8.159 -0.4374 -0.4316  0.1530
27622SOL     OW94924   1.479   5.999   8.452  0.2134 -0.1706  0.7141
27622SOL    HW194925   1.418   6.064   8.407  1.2245  0.0628 -0.3328
27622SOL    HW294926   1.561   6.046   8.485  0.9764 -0.9165 -0.0904
27623SOL     OW94927   4.543   6.768   1.954 -0.5296  0.1933 -0.4185
27623SOL    HW194928   4.502   6.725   2.034 -1.1513  0.4250 -0.6105
27623SOL    HW294929   4.524   6.866   1.956  0.2156  0.3350 -0.3878
27624SOL     OW94930   4.225   4.389   0.378 -0.1002 -0.2952 -0.0040
27624SOL    HW194931   4.325   4.387   0.378 -0.1010 -0.2255 -0.7604
27624SOL    HW294932   4.191   4.297   0.397  0.1013 -0.5639 -0.9377
27625SOL     OW94933   6.897   9.144   6.569 -0.2152  0.6603 -0.0874
27625SOL    HW194934   6.878   9.225   6.624  0.9615  1.6102 -1.0657
27625SOL    HW294935   6.922   9.172   6.476 -0.2905 -0.8455 -0.5706
27626SOL     OW94936   2.210   2.943   2.977 -0.3495 -0.3384  0.0017
27626SOL    HW194937   2.185   2.849   3.003 -1.9119 -0.4014 -1.6571
27626SOL    HW294938   2.281   2.941   2.907 -0.2671 -0.2652  0.0821
27627SOL     OW94939   1.213   4.216   2.983 -0.5057 -0.4065 -0.4260
27627SOL    HW194940   1.186   4.312   2.972  4.4526  1.4200  1.6636
27627SOL    HW294941   1.269   4.188   2.905 -0.1444 -0.8834 -0.0012
27628SOL     OW94942   5.866   2.699   9.161 -0.0362  0.2804 -0.1280
27628SOL    HW194943   5.900   2.609   9.136 -0.4895 -0.0613  0.4629
27628SOL    HW294944   5.814   2.693   9.246 -0.7585  0.9552 -0.5088
27629SOL     OW94945   1.900   3.461   0.320 -0.0873 -0.8503  0.5230
27629SOL    HW194946   1.928   3.366   0.309  0.5152 -1.1023  3.7597
27629SOL    HW294947   1.980   3.518   0.339 -0.4354  0.3726 -1.4299
27630SOL     OW94948   1.702   0.458   3.009  0.0498 -0.0479 -0.2797
27630SOL    HW194949   1.706   0.452   2.909  0.3836 -1.6294 -0.1785
27630SOL    HW294950   1.610   0.435   3.040  0.4118 -1.3116 -0.1159
27631SOL     OW94951   9.158   3.795   8.408  0.3861  0.0817 -0.5924
27631SOL    HW194952   9.257   3.789   8.397  0.3059  0.3088 -1.4894
27631SOL    HW294953   9.113   3.764   8.325 -0.2322  2.2943 -1.1332
27632SOL     OW94954   6.520   0.359   7.005  0.0511  0.0624 -0.0800
27632SOL    HW194955   6.559   0.279   6.960 -0.5523  0.1417 -0.7522
27632SOL    HW294956   6.559   0.442   6.965 -1.5290  0.1681 -1.4561
27633SOL     OW94957   4.111   2.806   3.126  0.0851  0.0328 -0.6405
27633SOL    HW194958   4.075   2.862   3.201  0.9527  1.0978 -1.0082
27633SOL    HW294959   4.171   2.736   3.164 -0.0979  0.0700 -0.2757
27634SOL     OW94960   7.869   6.810   2.596 -0.0660  0.8149 -0.3386
27634SOL    HW194961   7.963   6.777   2.583 -0.4816 -0.3226 -0.5001
27634SOL    HW294962   7.829   6.764   2.675 -0.2556  1.8216  0.1533
27635SOL     OW94963   1.785   4.088   2.708  0.0287  0.5340 -0.1269
27635SOL    HW194964   1.729   4.036   2.773 -0.3538  2.2734  0.9445
27635SOL    HW294965   1.872   4.111   2.750  0.4759  0.1838 -0.8517
27636SOL     OW94966   1.122   5.807  10.001 -0.5471  0.4113  0.3085
27636SOL    HW194967   1.183   5.854  10.065 -1.2875  2.9882 -0.8273
27636SOL    HW294968   1.124   5.853   9.912 -1.5246 -1.5538 -0.7742
27637SOL     OW94969   7.858   3.163   2.636  0.0480 -0.3940 -0.0400
27637SOL    HW194970   7.887   3.122   2.550 -0.4227 -1.1625  0.1625
27637SOL    HW294971   7.883   3.260   2.637 -0.2820 -0.2948 -1.1879
27638SOL     OW94972   4.205   0.807   9.279  0.5059  0.0724 -0.0314
27638SOL    HW194973   4.179   0.884   9.221 -1.5026 -0.1860  0.4742
27638SOL    HW294974   4.125   0.777   9.331  0.8162 -3.3563 -1.3912
27639SOL     OW94975   6.554   9.651   2.844  0.2190  0.2779 -0.1567
27639SOL    HW194976   6.535   9.749   2.842 -0.2285  0.1840 -1.2231
27639SOL    HW294977   6.653   9.636   2.837  0.3161  0.6614  0.3725
27640SOL     OW94978   4.943   9.647   4.992 -0.5202 -0.1969 -0.1284
27640SOL    HW194979   4.945   9.702   4.908 -1.5329  2.8950  1.7868
27640SOL    HW294980   4.860   9.591   4.994 -0.8772  0.3069 -0.8305
27641SOL     OW94981   2.586   1.990   6.247 -0.4927  0.2498 -0.0914
27641SOL    HW194982   2.489   1.991   6.275 -0.6581  1.0680 -0.6629
27641SOL    HW294983   2.642   2.025   6.322 -0.7543  0.7536 -0.1238
27642SOL     OW94984   8.530   7.118   4.057  0.3409  0.2953 -0.3547
27642SOL    HW194985   8.554   7.194   4.118  0.0757  0.7463 -0.8034
27642SOL    HW294986   8.477   7.153   3.980 -0.8138 -0.5228  0.0470
27643SOL     OW94987   7.887   3.422   9.470 -0.2688  0.0919  0.6943
27643SOL    HW194988   7.791   3.418   9.440 -0.2991 -0.0538  0.8093
27643SOL    HW294989   7.943   3.366   9.409 -0.0646  1.1351 -0.0933
27644SOL     OW94990   4.112   1.503   5.794 -0.4297 -0.2639  0.0644
27644SOL    HW194991   4.174   1.472   5.721  1.1274  0.2706  1.1305
27644SOL    HW294992   4.140   1.462   5.881 -1.0755  0.6387  0.7059
27645SOL     OW94993   3.165   1.562   0.462 -0.1974  0.2071  0.1431
27645SOL    HW194994   3.163   1.474   0.511 -0.6609  0.2048  0.1283
27645SOL    HW294995   3.106   1.627   0.510  0.8312  0.7732  0.6436
27646SOL     OW94996   3.994   7.455   7.963 -0.1936 -0.3077  0.6738
27646SOL    HW194997   3.988   7.384   7.893  0.9975  0.3535 -0.1261
27646SOL    HW294998   4.044   7.534   7.926 -0.1157  0.3091  2.0580
27647SOL     OW94999   7.091   1.913   4.159 -0.2082 -0.1348 -0.2996
27647SOL    HW195000   7.157   1.838   4.155 -0.0206  0.1158 -2.2878
27647SOL    HW295001   7.138   2.000   4.148 -0.3414  0.3504  2.7295
27648SOL     OW95002   7.605   7.759   3.633  0.0900 -0.3605 -0.1089
27648SOL    HW195003   7.702   7.741   3.616 -0.1556 -0.5310 -1.3253
27648SOL    HW295004   7.565   7.680   3.680  0.5833 -0.1896  0.6213
27649SOL     OW95005   7.147   1.149   9.487 -0.0907 -0.1291 -0.2456
27649SOL    HW195006   7.097   1.066   9.513 -1.2296  0.3328 -0.9436
27649SOL    HW295007   7.086   1.228   9.495  0.9310  0.6250  0.2150
27650SOL     OW95008   9.169   5.557   0.800 -0.4774 -0.0738 -0.7224
27650SOL    HW195009   9.240   5.627   0.793 -0.5039  0.0305  0.0465
27650SOL    HW295010   9.207   5.468   0.775  0.2096 -0.1997  0.7632
27651SOL     OW95011   0.508   8.451   7.858 -0.0450  0.1095  0.3212
27651SOL    HW195012   0.410   8.461   7.876 -0.6609 -3.7861 -0.5173
27651SOL    HW295013   0.530   8.488   7.768 -1.7923 -3.6829 -1.7600
27652SOL     OW95014   5.907   9.234   5.072  0.1437  0.1048  0.1931
27652SOL    HW195015   5.906   9.166   5.145  3.7420  0.2781  0.4530
27652SOL    HW295016   5.821   9.286   5.075 -1.6808 -2.8225  1.4241
27653SOL     OW95017   3.577   6.764   1.700 -0.0775  0.9429 -0.0609
27653SOL    HW195018   3.491   6.799   1.737 -0.2087  0.1015  0.4522
27653SOL    HW295019   3.649   6.832   1.713 -0.7291  1.7899 -0.7910
27654SOL     OW95020   1.953   8.957   2.315 -0.0140  0.0709  0.0802
27654SOL    HW195021   2.047   8.923   2.319  0.2591  0.2056 -3.4585
27654SOL    HW295022   1.891   8.883   2.289 -0.1734  0.9821 -2.2800
27655SOL     OW95023   6.624   5.080   0.981 -0.3047 -0.2564  0.3538
27655SOL    HW195024   6.620   5.148   0.908 -0.1107  0.7225  1.2437
27655SOL    HW295025   6.641   5.126   1.068  0.4551 -1.5079  0.8737
27656SOL     OW95026   2.919   1.670   2.754  0.0235 -0.0480 -0.6727
27656SOL    HW195027   2.865   1.586   2.766 -1.3098  0.9091  0.2544
27656SOL    HW295028   2.857   1.747   2.741  1.2432  0.7934 -1.5959
27657SOL     OW95029   6.543   0.792   2.733  0.6795  0.5016  0.7669
27657SOL    HW195030   6.506   0.870   2.683  2.4413  0.8568 -0.0206
27657SOL    HW295031   6.516   0.707   2.688  1.9228  0.8069 -0.5947
27658SOL     OW95032   0.943   5.268   5.305  0.1361 -0.1391 -0.4214
27658SOL    HW195033   0.951   5.171   5.285  0.6922 -0.3762  0.9064
27658SOL    HW295034   0.847   5.292   5.315  0.0840 -1.0243  1.4291
27659SOL     OW95035   8.339   1.202   5.718  0.4029  0.3665  0.6279
27659SOL    HW195036   8.280   1.223   5.796 -0.5259 -0.1581  0.0739
27659SOL    HW295037   8.388   1.116   5.735  0.2039  0.2544  0.6415
27660SOL     OW95038   4.109   4.340   4.157  0.3069 -0.3563 -0.3519
27660SOL    HW195039   4.208   4.347   4.170  0.4884 -1.1830 -1.2048
27660SOL    HW295040   4.091   4.301   4.067 -0.8117  0.5189 -0.5162
27661SOL     OW95041   7.950   8.035   7.062 -0.0677  0.2901  0.4253
27661SOL    HW195042   7.978   8.060   6.969  1.2862 -0.8119  0.5118
27661SOL    HW295043   7.966   7.937   7.076 -0.0107  0.5044  1.9039
27662SOL     OW95044   5.132   2.632   8.416  0.1221 -0.0912 -0.1523
27662SOL    HW195045   5.095   2.571   8.486 -2.5647  0.1342 -1.3148
27662SOL    HW295046   5.135   2.584   8.328 -3.5787  1.8643 -1.4307
27663SOL     OW95047   9.982   4.705  10.003  0.3710 -0.3359 -0.0201
27663SOL    HW195048   9.970   4.781   9.938 -0.9366 -2.0058 -1.8098
27663SOL    HW295049   9.908   4.708  10.070  1.2554  0.9142  0.9202
27664SOL     OW95050   3.900   1.283   7.839 -0.5290 -0.5509  0.6962
27664SOL    HW195051   3.949   1.234   7.767 -0.1226 -0.6388  1.0303
27664SOL    HW295052   3.858   1.365   7.800 -2.2596 -1.7972 -0.1269
27665SOL     OW95053   4.622   3.931   3.048 -0.0737  0.3784  0.1546
27665SOL    HW195054   4.617   3.986   2.965  0.9332 -2.8782 -2.1466
27665SOL    HW295055   4.547   3.865   3.049 -0.4174  0.7535  2.1647
27666SOL     OW95056   7.297   4.340   9.281 -0.0557  0.6701  0.1836
27666SOL    HW195057   7.262   4.294   9.199  1.6889  0.3592 -0.4106
27666SOL    HW295058   7.312   4.437   9.261  0.2914  0.6123  0.1718
27667SOL     OW95059   3.550   2.816   8.224 -0.4395  0.3281  0.3486
27667SOL    HW195060   3.471   2.760   8.251  0.5597 -1.0526  0.3996
27667SOL    HW295061   3.575   2.796   8.130  0.8101 -0.3745  0.8180
27668SOL     OW95062   9.171   8.658   1.091  0.1294  0.7550  0.0913
27668SOL    HW195063   9.209   8.586   1.033 -1.6867 -0.2574  0.1365
27668SOL    HW295064   9.136   8.732   1.033  0.4400  0.8356 -0.0006
27669SOL     OW95065   5.407   6.011   9.290  0.0227 -0.0099 -0.2751
27669SOL    HW195066   5.456   6.054   9.366 -0.8113 -1.1463  0.9225
27669SOL    HW295067   5.432   6.056   9.205  0.0135  2.1311  0.8188
27670SOL     OW95068   9.329   4.108   2.299  0.2253  0.1941 -0.1635
27670SOL    HW195069   9.291   4.145   2.384  0.9762  0.4151  0.0720
27670SOL    HW295070   9.346   4.182   2.235 -0.8799 -0.0244 -0.7349
27671SOL     OW95071   8.803   5.613   4.237 -0.7839  0.0913 -0.5643
27671SOL    HW195072   8.757   5.624   4.325  0.4363  2.0573 -0.1443
27671SOL    HW295073   8.773   5.685   4.174 -0.9224 -0.7252 -1.4414
27672SOL     OW95074   2.355   6.627   3.900 -0.2277  0.6376  0.4791
27672SOL    HW195075   2.449   6.645   3.869 -0.0073 -0.9557  0.1279
27672SOL    HW295076   2.292   6.684   3.848  0.2966 -0.6832 -1.6879
27673SOL     OW95077   4.005   6.164   2.144 -0.3699  0.1006  0.0960
27673SOL    HW195078   4.017   6.261   2.120 -2.0617  0.1118 -0.7246
27673SOL    HW295079   3.932   6.155   2.211 -0.0341 -0.5987  0.3743
27674SOL     OW95080   1.382   9.261   8.356  0.0901  0.2388  0.1390
27674SOL    HW195081   1.457   9.290   8.297 -1.4214  2.3041 -0.8068
27674SOL    HW295082   1.395   9.165   8.381  1.9269 -0.0260 -1.6976
27675SOL     OW95083   3.137   7.869   6.677 -0.0786  0.2561 -0.0102
27675SOL    HW195084   3.051   7.820   6.675 -0.2255  0.5224 -0.4744
27675SOL    HW295085   3.143   7.923   6.761 -0.5797  0.6172 -0.2040
27676SOL     OW95086   6.067   2.571   9.554  0.7974  0.3741 -0.5742
27676SOL    HW195087   6.161   2.549   9.577  1.2053  1.6817 -0.9485
27676SOL    HW295088   6.065   2.645   9.487 -0.4781 -0.1680 -1.1645
27677SOL     OW95089   0.627   3.269   7.700 -0.0978 -0.2477 -0.4835
27677SOL    HW195090   0.699   3.202   7.683 -0.6844 -1.2853  0.9958
27677SOL    HW295091   0.666   3.349   7.746  0.2529 -0.4301 -0.4650
27678SOL     OW95092   8.604   3.005   0.291  0.3006  0.0082  0.1017
27678SOL    HW195093   8.648   3.094   0.300  0.4674  0.0968 -1.4262
27678SOL    HW295094   8.572   2.974   0.381  2.5528  0.4059  1.0731
27679SOL     OW95095   2.480   7.427   5.466 -0.3576  0.3622  0.5289
27679SOL    HW195096   2.407   7.372   5.507 -0.0504  0.2367  0.9027
27679SOL    HW295097   2.565   7.414   5.517  0.1662 -0.2552 -0.4864
27680SOL     OW95098   7.901   1.533   3.812  0.1148  0.2554  0.3709
27680SOL    HW195099   7.885   1.621   3.767 -0.1948  0.4577  0.8726
27680SOL    HW295100   7.939   1.549   3.904 -1.6515 -0.0758  1.1730
27681SOL     OW95101   0.545   6.056   6.409 -0.0003  0.5378  0.3946
27681SOL    HW195102   0.537   5.973   6.354  0.8555  0.5995  0.1772
27681SOL    HW295103   0.454   6.081   6.444 -0.6154  0.7191 -1.2858
27682SOL     OW95104   9.243   7.791   0.975 -0.1920  0.5757 -0.3359
27682SOL    HW195105   9.247   7.727   1.051  1.3519  0.5851 -0.4020
27682SOL    HW295106   9.252   7.884   1.009 -0.9626  0.6789 -0.3952
27683SOL     OW95107   5.225   4.143   2.356  0.2712 -0.1278  0.1789
27683SOL    HW195108   5.126   4.152   2.366  0.3676  0.5715  0.5491
27683SOL    HW295109   5.251   4.046   2.360 -0.2680 -0.2295  1.3854
27684SOL     OW95110   0.241   5.414   5.769 -0.3088  0.0124 -1.0851
27684SOL    HW195111   0.258   5.327   5.723  0.4721 -0.0991 -0.6063
27684SOL    HW295112   0.267   5.489   5.708 -2.5119 -0.0276 -2.1203
27685SOL     OW95113   8.669   3.508   5.351  0.2587 -0.3199  0.5167
27685SOL    HW195114   8.574   3.540   5.360  0.5867  0.3648  1.5922
27685SOL    HW295115   8.730   3.570   5.400  1.1803 -1.2035  0.4997
27686SOL     OW95116   8.570   4.374   4.539  0.0353 -0.4827 -0.0962
27686SOL    HW195117   8.489   4.366   4.597  1.6769 -0.8413  2.2165
27686SOL    HW295118   8.554   4.443   4.469 -0.6668  2.7604  3.1307
27687SOL     OW95119   0.608   5.839   1.379  0.5576 -0.2205 -0.2680
27687SOL    HW195120   0.536   5.777   1.411  0.8375 -0.6613 -0.4835
27687SOL    HW295121   0.696   5.810   1.418  0.5930  0.4030  0.1133
27688SOL     OW95122   9.957   1.972   5.262  0.1405 -0.3908  0.1399
27688SOL    HW195123   9.961   2.030   5.181  0.7646  0.7184  0.9592
27688SOL    HW295124   9.908   2.019   5.335 -1.3764 -1.8183  0.0647
27689SOL     OW95125   1.765   9.216   6.219  0.3475 -0.3016 -0.2114
27689SOL    HW195126   1.753   9.287   6.288 -0.3042 -1.0219  0.4261
27689SOL    HW295127   1.851   9.167   6.236  0.2935 -0.3367 -0.0388
27690SOL     OW95128   1.930   9.027   9.315  0.1649  0.8860 -0.0848
27690SOL    HW195129   1.831   9.040   9.308 -0.0541  0.7230  2.2557
27690SOL    HW295130   1.968   9.097   9.375  1.4180  0.7111 -0.6776
27691SOL     OW95131   4.003   1.556   9.041 -0.2058  0.2930 -0.1677
27691SOL    HW195132   3.957   1.486   9.095  2.7472 -0.0783  1.9670
27691SOL    HW295133   4.003   1.643   9.091  1.1352  0.3640 -0.2781
27692SOL     OW95134   0.517   6.970   5.364  0.5379  0.3188 -0.0743
27692SOL    HW195135   0.457   7.005   5.292  1.3246  0.2047 -0.7911
27692SOL    HW295136   0.466   6.965   5.450 -0.9268 -1.1271 -0.9774
27693SOL     OW95137   9.596   6.255   6.807 -0.2128  0.0789 -0.4307
27693SOL    HW195138   9.594   6.182   6.739 -1.5857  1.2530 -1.6807
27693SOL    HW295139   9.511   6.255   6.860 -0.0984  0.5897 -0.2385
27694SOL     OW95140   0.616   7.415   9.024 -0.0644  0.1527 -0.3597
27694SOL    HW195141   0.698   7.444   9.075 -0.2628  2.6880 -1.4189
27694SOL    HW295142   0.552   7.492   9.019 -1.8559 -1.3552 -0.8747
27695SOL     OW95143   7.162   1.646   8.990 -0.5047  0.4898 -0.3035
27695SOL    HW195144   7.066   1.621   8.983 -0.5657  0.4620  0.6433
27695SOL    HW295145   7.203   1.602   9.070  0.3269  0.3997 -0.7704
27696SOL     OW95146   2.501   9.043   5.428 -0.3324  0.3141 -0.1285
27696SOL    HW195147   2.584   9.090   5.398  0.0833  0.4057  1.1360
27696SOL    HW295148   2.481   9.068   5.522 -1.3665 -0.3224 -0.1738
27697SOL     OW95149   4.519   0.166   1.431  0.0163  0.2306  0.3088
27697SOL    HW195150   4.531   0.101   1.506 -0.5073 -0.9357 -0.5967
27697SOL    HW295151   4.489   0.117   1.349 -0.3062  1.6117 -0.4161
27698SOL     OW95152   2.967   7.912   6.053 -0.6939 -0.2135 -0.2919
27698SOL    HW195153   2.929   8.002   6.029  1.0730  1.0634  1.4618
27698SOL    HW295154   3.054   7.899   6.004  0.3922  0.2201  1.4838
27699SOL     OW95155   1.803   6.794   4.634 -0.3834  0.0274 -0.2748
27699SOL    HW195156   1.714   6.775   4.674 -0.4464  0.6160 -0.1358
27699SOL    HW295157   1.817   6.735   4.554 -1.5564  1.0216 -1.2258
27700SOL     OW95158   3.256   0.054   9.959  0.1408 -0.1142  0.2482
27700SOL    HW195159   3.161   0.040   9.985  0.0885 -0.7600 -0.2654
27700SOL    HW295160   3.281  -0.013   9.889  0.5269  1.0254 -0.7144
27701SOL     OW95161   9.831   3.806   3.279  0.1446 -0.1709 -0.4163
27701SOL    HW195162   9.909   3.833   3.223  0.3506 -2.1473 -1.1124
27701SOL    HW295163   9.770   3.747   3.226 -1.2578  0.4424  0.4693
27702SOL     OW95164   1.615   1.248   5.115 -0.1624 -0.5481 -0.3304
27702SOL    HW195165   1.699   1.301   5.131  0.0090 -0.4919 -1.3917
27702SOL    HW295166   1.639   1.151   5.104 -0.2115 -0.4984 -0.8756
27703SOL     OW95167   1.289   7.740   6.981  0.0223  0.5605  0.4717
27703SOL    HW195168   1.347   7.665   6.949 -0.7931 -0.0156  0.3453
27703SOL    HW295169   1.247   7.715   7.068 -0.5972  0.6838  0.2132
27704SOL     OW95170   6.928   8.585   6.580 -0.0582 -0.3658  0.1215
27704SOL    HW195171   6.959   8.497   6.614 -1.2108  0.3637  3.2100
27704SOL    HW295172   6.841   8.573   6.532  1.8364 -1.4790 -3.1858
27705SOL     OW95173   4.029   9.525   9.806 -0.0490 -0.5032  0.3972
27705SOL    HW195174   4.009   9.434   9.770 -1.2029 -0.5318  1.1031
27705SOL    HW295175   4.077   9.579   9.737 -0.7672 -1.1132 -0.5723
27706SOL     OW95176   9.609   2.235   9.088 -0.3188  0.2580  0.5192
27706SOL    HW195177   9.615   2.204   8.993 -2.4346  0.5368  0.2667
27706SOL    HW295178   9.569   2.326   9.092 -0.4775  0.1571  1.6817
27707SOL     OW95179   1.916   8.357   4.303 -0.0567 -0.1913 -0.5016
27707SOL    HW195180   1.840   8.292   4.308 -1.7109  1.6075 -1.4973
27707SOL    HW295181   1.882   8.445   4.271  2.6015  0.4701 -1.5932
27708SOL     OW95182   9.157   5.239   5.353 -0.7817  0.2826  0.4887
27708SOL    HW195183   9.131   5.277   5.441  0.3945  1.3010  0.4122
27708SOL    HW295184   9.233   5.292   5.314  0.6944 -1.9292  0.2191
27709SOL     OW95185   0.390   6.977   4.036  0.3719  0.1842 -0.2016
27709SOL    HW195186   0.370   7.053   3.975 -0.6054 -0.1517 -0.2952
27709SOL    HW295187   0.360   7.000   4.129 -0.4920 -0.3444 -0.3538
27710SOL     OW95188   0.011   6.645   4.974  0.3886 -0.1979 -0.0823
27710SOL    HW195189  -0.071   6.588   4.980 -0.3785  0.4035 -3.9044
27710SOL    HW295190   0.006   6.718   5.043 -2.3369 -0.1097 -0.3224
27711SOL     OW95191   8.031   2.852   3.467 -0.1416  0.0200 -0.5282
27711SOL    HW195192   8.052   2.949   3.484 -0.3824  0.1962 -1.2393
27711SOL    HW295193   7.947   2.828   3.517 -0.0245  0.1454 -0.2641
27712SOL     OW95194   2.452   6.724   9.755  0.4588  0.6000  0.0415
27712SOL    HW195195   2.477   6.813   9.717  0.9687  0.1372 -0.6984
27712SOL    HW295196   2.532   6.681   9.795  0.0396  0.8416  1.1837
27713SOL     OW95197   9.586   6.269   8.418  0.0505  0.1931  0.3881
27713SOL    HW195198   9.491   6.238   8.417 -0.5643  2.0184  0.1448
27713SOL    HW295199   9.595   6.345   8.483  2.0252 -1.9816  2.7771
27714SOL     OW95200   5.436   9.824   3.338  0.0830  0.0205 -1.0644
27714SOL    HW195201   5.518   9.810   3.284  1.0502 -1.1057  0.6762
27714SOL    HW295202   5.460   9.868   3.425 -1.2324  0.2701 -0.8101
27715SOL     OW95203   1.742   7.874   2.642 -0.7103  0.3961  0.1114
27715SOL    HW195204   1.750   7.945   2.712  0.2573 -0.3866  0.8054
27715SOL    HW295205   1.783   7.908   2.556  0.8155  0.2533  0.7670
27716SOL     OW95206   1.399   3.729   0.796  0.3108  0.2501 -0.1484
27716SOL    HW195207   1.474   3.720   0.730 -0.3127 -2.3582 -0.5459
27716SOL    HW295208   1.318   3.765   0.750  0.0620 -0.9770 -0.6759
27717SOL     OW95209   7.114   4.534   0.864 -0.2436  0.2831 -0.4615
27717SOL    HW195210   7.194   4.515   0.807  1.7671  0.2563  2.3088
27717SOL    HW295211   7.135   4.513   0.959 -2.9790  1.9689  0.5608
27718SOL     OW95212   7.648   9.616   7.621 -0.3186 -0.1260  0.1555
27718SOL    HW195213   7.638   9.517   7.625 -2.6434  0.1183  0.9720
27718SOL    HW295214   7.732   9.643   7.666  0.0532 -1.6744  0.4183
27719SOL     OW95215   2.121   0.394   1.843  0.1606 -0.1916 -0.0644
27719SOL    HW195216   2.216   0.367   1.852  0.0241 -0.6987 -0.1538
27719SOL    HW295217   2.063   0.313   1.837 -0.1633  0.1045 -1.1488
27720SOL     OW95218   6.796   9.625   3.060  0.3688 -0.3937 -0.0407
27720SOL    HW195219   6.872   9.593   3.116  0.6059  1.6003  0.7898
27720SOL    HW295220   6.712   9.581   3.090  0.9129 -1.3752  0.0874
27721SOL     OW95221   3.716   1.833   1.003 -0.4785  0.1142  0.6110
27721SOL    HW195222   3.788   1.902   1.012  0.6698 -0.9962  0.2221
27721SOL    HW295223   3.743   1.766   0.933 -1.9012 -0.3230  0.4580
27722SOL     OW95224   9.266   3.161   5.316 -0.5279  0.2781  0.1463
27722SOL    HW195225   9.359   3.183   5.347 -0.3223  0.9339 -0.9152
27722SOL    HW295226   9.270   3.099   5.238 -1.0286 -0.7698  0.9452
27723SOL     OW95227   1.723   7.874   9.984  0.0468 -0.2000  0.1536
27723SOL    HW195228   1.673   7.832  10.060  0.5573  0.2164  0.7273
27723SOL    HW295229   1.672   7.953   9.950 -0.3686 -0.6151 -0.1879
27724SOL     OW95230   2.834   9.019   4.323 -0.2207  0.2007  0.0041
27724SOL    HW195231   2.907   9.085   4.308  0.1632 -0.3734 -0.6854
27724SOL    HW295232   2.863   8.952   4.391 -0.5628  0.6626  0.6109
27725SOL     OW95233   4.237   8.454   9.932 -0.1713 -0.8329 -0.2681
27725SOL    HW195234   4.312   8.433   9.994  0.8440 -0.7238 -1.4421
27725SOL    HW295235   4.203   8.368   9.892  0.3815 -0.7459 -0.9337
27726SOL     OW95236   2.635   1.848   3.961 -0.6688 -0.1819  0.3303
27726SOL    HW195237   2.692   1.855   4.043 -0.3140 -0.2028  0.0865
27726SOL    HW295238   2.590   1.935   3.943 -0.2755 -0.0076  0.2034
27727SOL     OW95239   0.265   6.476   2.915 -0.0738  0.0615 -0.0708
27727SOL    HW195240   0.191   6.543   2.906  0.6919  0.4872 -4.1773
27727SOL    HW295241   0.323   6.480   2.834  1.8855 -3.3670  1.0740
27728SOL     OW95242   7.734   0.465   0.584 -0.0634 -0.2846 -0.2824
27728SOL    HW195243   7.783   0.408   0.651 -0.1762 -1.1103 -0.8855
27728SOL    HW295244   7.728   0.559   0.618  1.9636 -0.1684 -0.2154
27729SOL     OW95245   1.040   6.980   0.516 -0.1431 -0.5820 -0.1414
27729SOL    HW195246   1.078   6.995   0.425 -0.0428  1.4654  0.2168
27729SOL    HW295247   0.989   6.894   0.517 -0.1219 -0.6399 -2.1232
27730SOL     OW95248   5.779   1.451   9.126 -0.0067 -0.2499  0.2240
27730SOL    HW195249   5.693   1.488   9.090  0.7545  0.9814 -0.3723
27730SOL    HW295250   5.771   1.352   9.137 -1.3865 -0.1907 -0.1476
27731SOL     OW95251   2.237   4.887   8.346 -0.0291  0.2138  0.0515
27731SOL    HW195252   2.222   4.831   8.265  0.5418  0.5552 -0.2975
27731SOL    HW295253   2.155   4.887   8.403 -0.7970  0.7953 -1.0429
27732SOL     OW95254   5.604   9.736   4.420 -0.0290 -0.2211  0.0588
27732SOL    HW195255   5.648   9.691   4.341  0.2270 -1.3057  0.8089
27732SOL    HW295256   5.660   9.721   4.501 -0.4478  0.6471  0.5024
27733SOL     OW95257   9.021   7.914   9.573  0.9544  0.2695 -0.3681
27733SOL    HW195258   8.988   8.004   9.600 -2.0485 -1.3179  1.5398
27733SOL    HW295259   9.116   7.902   9.603  0.6003  1.9136  1.4724
27734SOL     OW95260   7.737   9.012   6.400  0.3851  0.0216  0.3250
27734SOL    HW195261   7.638   9.013   6.386  0.1751 -4.1435  0.9963
27734SOL    HW295262   7.781   9.064   6.327 -2.1045 -1.2682 -2.2077
27735SOL     OW95263   4.738   7.644   2.876  0.1639 -0.0627 -0.3674
27735SOL    HW195264   4.722   7.653   2.974 -0.3566 -2.2990 -0.2173
27735SOL    HW295265   4.671   7.581   2.837  1.0942 -0.1072 -1.9445
27736SOL     OW95266   7.570   2.056   4.596 -0.0375  0.0546  0.5422
27736SOL    HW195267   7.507   2.080   4.522 -1.3216  1.7174  2.1461
27736SOL    HW295268   7.613   1.968   4.575 -1.7728 -0.4089 -1.2825
27737SOL     OW95269   5.206   5.241   8.554  0.6138  0.1468  0.2603
27737SOL    HW195270   5.175   5.290   8.472 -0.2174  0.7169  0.9026
27737SOL    HW295271   5.261   5.303   8.610  0.2942  0.0828  0.6465
27738SOL     OW95272   1.206   1.067   4.598 -0.0199  0.2124  0.5236
27738SOL    HW195273   1.151   1.022   4.528  1.5035  0.1318 -0.6545
27738SOL    HW295274   1.213   1.165   4.577 -0.1153  0.3077  0.9353
27739SOL     OW95275   7.959   3.578   1.172  0.9346  0.1690 -0.3924
27739SOL    HW195276   7.929   3.612   1.083  0.2674  0.6768  0.0220
27739SOL    HW295277   7.939   3.480   1.179 -1.8395  0.7529  0.3605
27740SOL     OW95278   1.637   7.581   5.473  0.0222  0.1632  0.1834
27740SOL    HW195279   1.717   7.520   5.473  0.8960  1.2736 -1.5042
27740SOL    HW295280   1.664   7.671   5.505 -0.2971  0.8301 -1.3766
27741SOL     OW95281   0.378   8.315   6.253  0.0887 -0.5737 -0.3230
27741SOL    HW195282   0.388   8.358   6.343  0.8436 -1.4882  0.0367
27741SOL    HW295283   0.295   8.349   6.209  0.0948  0.4238  0.4135
27742SOL     OW95284   0.676   0.065   4.669  0.1402 -0.2991  0.0943
27742SOL    HW195285   0.614   0.141   4.651  0.6668  0.1782  0.3038
27742SOL    HW295286   0.732   0.085   4.749  1.8768  0.0879 -1.1859
27743SOL     OW95287   2.159   9.503   7.908 -0.0920 -0.4074 -0.1806
27743SOL    HW195288   2.195   9.491   8.000  0.2060 -0.9947 -0.3708
27743SOL    HW295289   2.203   9.581   7.864 -1.7766  1.1927  0.9454
27744SOL     OW95290   5.177   1.710   0.911  1.0874  0.4661 -0.0051
27744SOL    HW195291   5.171   1.726   1.010 -0.5669 -0.5541  0.0814
27744SOL    HW295292   5.273   1.711   0.883  1.5543  1.0571  1.5603
27745SOL     OW95293   2.648   1.319   5.393  0.0250  0.4943  0.2137
27745SOL    HW195294   2.627   1.259   5.471  3.4825 -0.3830  0.5541
27745SOL    HW295295   2.687   1.265   5.319 -1.9269  1.5554 -1.6463
27746SOL     OW95296   4.783   3.387   1.267 -0.1081  0.0141 -0.1169
27746SOL    HW195297   4.857   3.324   1.243 -0.4164  0.1440 -1.4260
27746SOL    HW295298   4.822   3.476   1.292  0.1241  0.5648 -2.3229
27747SOL     OW95299   8.938   7.571   6.490  0.0932  0.7491  0.7030
27747SOL    HW195300   8.861   7.523   6.532 -1.4388  1.0818 -1.6354
27747SOL    HW295301   8.994   7.505   6.439  0.8718  0.6446  1.6914
27748SOL     OW95302   1.078   5.910   8.825  0.2340  0.0614  0.4900
27748SOL    HW195303   1.114   5.861   8.746  1.0491  1.0736  0.2177
27748SOL    HW295304   0.994   5.866   8.856  2.3224 -3.1086  1.8958
27749SOL     OW95305   0.210   2.697   9.642 -0.0865 -0.6223  0.0692
27749SOL    HW195306   0.293   2.675   9.592  0.6690 -1.7614  1.7933
27749SOL    HW295307   0.169   2.613   9.679 -0.3264  0.2154  1.7956
27750SOL     OW95308   0.068   7.144   6.465 -0.0610  0.3258 -0.0200
27750SOL    HW195309   0.074   7.240   6.495  1.9572  0.3986 -0.6428
27750SOL    HW295310   0.085   7.138   6.367 -0.9545 -0.6075 -0.1310
27751SOL     OW95311   8.156   6.955   0.982  0.0361 -0.4089  0.3212
27751SOL    HW195312   8.196   7.030   1.035  0.4823  0.1992 -0.8737
27751SOL    HW295313   8.056   6.961   0.987  0.0603 -0.8493  1.7706
27752SOL     OW95314   4.884   9.271   4.239  0.3460  0.0344 -0.5877
27752SOL    HW195315   4.835   9.233   4.160  0.5675 -1.0527 -0.2190
27752SOL    HW295316   4.821   9.276   4.317  1.0369 -2.3074  0.1692
27753SOL     OW95317   2.812   0.308   1.628 -0.3744  0.1388 -0.6998
27753SOL    HW195318   2.748   0.264   1.564 -0.4065  0.1482 -0.6739
27753SOL    HW295319   2.788   0.281   1.721 -0.3592  0.1670 -0.6879
27754SOL     OW95320   6.533   9.593   8.289 -0.5381  0.7039  0.1715
27754SOL    HW195321   6.482   9.531   8.228  0.3351 -0.1643  0.3162
27754SOL    HW295322   6.483   9.679   8.297 -1.1402  0.4860 -1.0292
27755SOL     OW95323   2.564   7.480   2.992 -0.6237  0.1743 -0.0173
27755SOL    HW195324   2.635   7.528   3.044 -0.5409  1.1940 -1.0444
27755SOL    HW295325   2.605   7.404   2.941 -0.1065  1.2406 -1.2298
27756SOL     OW95326   2.157   1.466   9.996  0.1587 -0.3038  0.2209
27756SOL    HW195327   2.248   1.431   9.973  0.5884  1.2973 -0.6172
27756SOL    HW295328   2.157   1.500  10.090  0.3066 -0.6887  0.3607
27757SOL     OW95329   9.966   9.475   1.827 -0.2158  0.1299 -0.0774
27757SOL    HW195330   9.984   9.455   1.731 -2.5522  0.3273 -0.5805
27757SOL    HW295331  10.052   9.470   1.878  0.7415 -2.0816 -1.7878
27758SOL     OW95332   3.050   2.928   9.353  0.2146 -0.3652  0.1068
27758SOL    HW195333   3.098   3.004   9.396  0.0130 -0.8004  1.1151
27758SOL    HW295334   3.110   2.849   9.348 -0.0782 -0.6091  0.4572
27759SOL     OW95335   3.700   2.732   7.103 -0.3218 -0.1824  0.2517
27759SOL    HW195336   3.685   2.789   7.183  0.3183  1.5909 -0.8590
27759SOL    HW295337   3.790   2.752   7.064 -1.2931  0.2171 -1.8671
27760SOL     OW95338   2.894   8.193   6.005  0.4964 -0.1889 -0.0403
27760SOL    HW195339   2.844   8.267   6.049  1.9479 -0.5868  2.3896
27760SOL    HW295340   2.890   8.204   5.905 -0.4093  2.3858  0.2462
27761SOL     OW95341   2.675   2.909   1.449 -0.0379 -0.0071  0.7488
27761SOL    HW195342   2.618   2.989   1.466 -0.4921  0.4124 -2.4243
27761SOL    HW295343   2.737   2.894   1.526 -0.2695  3.1113  1.5868
27762SOL     OW95344   5.960   1.326   1.855 -0.2254 -0.1158 -0.1781
27762SOL    HW195345   5.863   1.334   1.881 -0.5767 -0.1020 -1.4841
27762SOL    HW295346   6.011   1.400   1.898 -1.2167  1.3373 -1.4333
27763SOL     OW95347   3.145   8.476   1.604  0.0040 -0.2036  0.0727
27763SOL    HW195348   3.209   8.498   1.678 -0.6524  0.8838  0.3333
27763SOL    HW295349   3.113   8.561   1.562 -0.4039 -0.7824 -0.8014
27764SOL     OW95350   6.718   8.120   7.845  0.3901  0.0269 -0.0632
27764SOL    HW195351   6.806   8.079   7.869 -0.4365 -1.6898  0.0877
27764SOL    HW295352   6.684   8.173   7.923  1.0345  0.2865  0.0517
27765SOL     OW95353   0.305   7.007   7.697  0.0299  0.1432 -0.6411
27765SOL    HW195354   0.214   7.038   7.726 -0.8936 -1.3388 -1.8345
27765SOL    HW295355   0.373   7.034   7.765 -1.6734 -0.9066  1.5674
27766SOL     OW95356   9.098   0.620   4.699 -0.5362 -0.3100  0.8063
27766SOL    HW195357   9.186   0.616   4.746  0.1324 -0.2042 -0.4183
27766SOL    HW295358   9.039   0.687   4.744  0.2189  0.0356  1.2880
27767SOL     OW95359   3.537   6.106   8.869  0.9806  0.1626 -0.1535
27767SOL    HW195360   3.613   6.163   8.900 -0.8422  1.3769  2.2656
27767SOL    HW295361   3.516   6.037   8.938 -1.5946  1.3516  0.3433
27768SOL     OW95362   1.676   2.173   7.400  0.1075 -0.7527 -0.1589
27768SOL    HW195363   1.596   2.203   7.347 -0.0644  0.8132  0.9470
27768SOL    HW295364   1.749   2.241   7.392  0.0363 -0.4252  1.6933
27769SOL     OW95365   3.407   9.534   3.627 -0.1444 -0.4570 -0.1981
27769SOL    HW195366   3.450   9.623   3.615  1.0452 -1.0932 -0.8849
27769SOL    HW295367   3.432   9.497   3.716  1.1065 -0.9906 -0.7461
27770SOL     OW95368   7.871   0.551   9.266 -0.5524  0.3159  0.6096
27770SOL    HW195369   7.774   0.530   9.252 -0.1822 -1.1160  0.0653
27770SOL    HW295370   7.919   0.545   9.178  0.1460  0.3663  0.9849
27771SOL     OW95371   1.746   8.062   6.194  0.0338  0.3444  0.2328
27771SOL    HW195372   1.651   8.068   6.163 -0.1906  0.2550  0.8948
27771SOL    HW295373   1.800   8.011   6.127 -0.6391 -0.6211  0.4175
27772SOL     OW95374   8.866   9.189   4.350  0.3386  0.1115 -0.6870
27772SOL    HW195375   8.856   9.113   4.285  2.6220 -1.2166  0.4491
27772SOL    HW295376   8.895   9.152   4.439  0.0666  2.2027  0.2867
27773SOL     OW95377   0.900   4.095   1.832  0.0481  0.1196  0.1512
27773SOL    HW195378   0.884   4.000   1.806  0.6563 -0.5549  2.0969
27773SOL    HW295379   0.975   4.099   1.899  0.2059  1.9926 -0.1125
27774SOL     OW95380   1.164   7.373   3.767  0.0596  0.0417 -0.3910
27774SOL    HW195381   1.241   7.310   3.755 -1.7834 -2.0958 -1.1912
27774SOL    HW295382   1.159   7.433   3.687  0.9571  0.2835 -0.2784
27775SOL     OW95383   8.845   2.505   6.728  0.4035  0.4485 -0.4019
27775SOL    HW195384   8.846   2.539   6.634  1.1391 -0.2150 -0.6420
27775SOL    HW295385   8.775   2.434   6.737  1.5890 -0.8089 -0.9363
27776SOL     OW95386   2.822   4.255   5.469 -0.0681 -0.1907 -0.1189
27776SOL    HW195387   2.810   4.344   5.426  0.4199 -0.3778 -0.6515
27776SOL    HW295388   2.738   4.228   5.516 -0.6628 -0.0561 -1.1021
27777SOL     OW95389   8.990   0.830   1.574 -0.0742  0.1999  0.3634
27777SOL    HW195390   9.016   0.919   1.611  1.0311  0.0195  0.0492
27777SOL    HW295391   8.941   0.777   1.643  2.7924 -0.5105  1.9056
27778SOL     OW95392   7.447   7.298   4.381  0.1704  0.1102  0.0343
27778SOL    HW195393   7.447   7.199   4.367 -1.5804 -0.1318  1.5315
27778SOL    HW295394   7.355   7.334   4.367  0.5553  1.3544  0.5980
27779SOL     OW95395   0.313   0.558   7.647  0.0668  0.4473 -0.8386
27779SOL    HW195396   0.221   0.570   7.682 -0.4412 -5.0139  0.1948
27779SOL    HW295397   0.309   0.526   7.552  0.8571 -0.2265 -0.6526
27780SOL     OW95398   9.322   7.444   2.567  0.1583  0.0141  0.4052
27780SOL    HW195399   9.336   7.543   2.576  2.9751 -0.4109  1.0271
27780SOL    HW295400   9.333   7.418   2.472 -0.0680  0.2178  0.3215
27781SOL     OW95401   3.307   9.799   9.866 -0.7248  0.4868  0.7406
27781SOL    HW195402   3.391   9.777   9.915 -0.2652 -1.7695 -0.9628
27781SOL    HW295403   3.228   9.775   9.922 -0.2108 -0.0023  1.2630
27782SOL     OW95404   2.094   7.230   9.953 -0.6114 -0.6689  0.1763
27782SOL    HW195405   2.056   7.179  10.029 -1.8517  1.7445  1.2321
27782SOL    HW295406   2.194   7.230   9.959 -0.6804 -1.0682  1.3958
27783SOL     OW95407   9.867   1.311   4.030 -0.4145 -0.8656 -0.0423
27783SOL    HW195408   9.771   1.320   4.002 -1.3607 -0.1348  3.1873
27783SOL    HW295409   9.910   1.402   4.029  1.0304 -1.4954 -3.8462
27784SOL     OW95410   8.268   6.991   2.518 -0.7320 -0.1873 -0.0084
27784SOL    HW195411   8.367   6.984   2.531 -0.3426  0.0624 -2.5217
27784SOL    HW295412   8.227   6.901   2.528  0.0682 -0.6941 -1.1952
27785SOL     OW95413   5.131   7.210   2.664 -0.8493 -0.3221  0.2484
27785SOL    HW195414   5.118   7.190   2.761  0.7586 -2.4620  0.0530
27785SOL    HW295415   5.188   7.140   2.623 -0.8585  0.9938 -2.0947
27786SOL     OW95416   4.074   7.458   5.974  0.3131  0.1261 -0.6465
27786SOL    HW195417   4.165   7.423   5.953  0.1888  0.0760 -1.1201
27786SOL    HW295418   4.019   7.386   6.015  0.7050  0.3541  0.2974
27787SOL     OW95419   3.365   5.853   2.803 -0.4229  0.5499  0.0290
27787SOL    HW195420   3.462   5.879   2.800 -0.5032  0.8894  0.2731
27787SOL    HW295421   3.355   5.769   2.856 -0.1798  0.1245 -0.6083
27788SOL     OW95422   0.998   2.438   7.326  0.2127 -0.6444  0.4079
27788SOL    HW195423   0.912   2.423   7.374 -0.5922 -0.7656 -1.0539
27788SOL    HW295424   1.029   2.531   7.341 -1.6597  0.2956 -1.3946
27789SOL     OW95425   3.775   0.815   6.563  0.5842  0.3529 -0.2189
27789SOL    HW195426   3.736   0.906   6.555  0.9546  0.4630 -0.7618
27789SOL    HW295427   3.874   0.822   6.573  0.5258  0.0504  0.6632
27790SOL     OW95428   7.191   8.921   4.330  0.1403 -0.3626  0.3142
27790SOL    HW195429   7.138   9.006   4.330  0.9091  0.1173  0.1218
27790SOL    HW295430   7.282   8.938   4.367  0.2935 -1.1102  0.2882
27791SOL     OW95431   1.513   3.457   8.321  0.1224 -0.5371  0.3420
27791SOL    HW195432   1.514   3.508   8.407  1.3914 -1.7734  1.0998
27791SOL    HW295433   1.578   3.497   8.257 -0.5290  0.1414  0.0999
27792SOL     OW95434   9.784   9.822   5.041  0.2026  0.0214 -0.3363
27792SOL    HW195435   9.852   9.801   4.971  2.5528 -0.7502  2.0764
27792SOL    HW295436   9.749   9.738   5.081 -1.7330  0.4353 -1.1257
27793SOL     OW95437   9.102   4.217   9.671  0.0658  0.0422 -0.3966
27793SOL    HW195438   9.155   4.267   9.740 -0.0963  0.3315 -0.4813
27793SOL    HW295439   9.159   4.200   9.591  0.8355 -1.8960  0.5226
27794SOL     OW95440   9.037   9.623   5.645 -1.1647 -0.2187  0.0125
27794SOL    HW195441   9.011   9.626   5.742 -1.0301 -0.0248  0.0431
27794SOL    HW295442   9.128   9.583   5.637 -1.4033 -0.7417 -0.0791
27795SOL     OW95443   6.727   0.907   3.236  0.4410 -0.0914 -0.0183
27795SOL    HW195444   6.672   0.841   3.287  1.1200 -0.3274  0.4250
27795SOL    HW295445   6.781   0.858   3.167  0.4239  0.0798 -0.1502
27796SOL     OW95446   9.119   5.599   3.302  0.2253  0.2095 -0.1436
27796SOL    HW195447   9.055   5.611   3.377 -1.3301  0.9645 -1.5512
27796SOL    HW295448   9.211   5.626   3.331  0.0204 -1.3800  2.0446
27797SOL     OW95449   6.265   2.743   2.528  0.0976 -0.4502  0.1361
27797SOL    HW195450   6.179   2.693   2.514 -0.5103  0.4529  0.6026
27797SOL    HW295451   6.269   2.776   2.622  0.5337  0.2952 -0.1402
27798SOL     OW95452   4.335   2.064   1.118  0.0902  0.0306  0.0914
27798SOL    HW195453   4.302   1.978   1.157  0.9783 -0.3446  0.0377
27798SOL    HW295454   4.259   2.127   1.106 -0.8801 -1.4062 -1.5297
27799SOL     OW95455   3.402   2.771   8.472  0.0388  0.0426  0.2294
27799SOL    HW195456   3.369   2.736   8.559  2.8426 -1.9581  0.5509
27799SOL    HW295457   3.431   2.866   8.483 -0.2730  0.0161  1.3124
27800SOL     OW95458   9.545   9.792   6.895  0.3651  0.2608 -0.1717
27800SOL    HW195459   9.596   9.765   6.976 -0.5583  0.0055  0.3390
27800SOL    HW295460   9.586   9.749   6.814 -0.1091 -1.4062  0.4438
27801SOL     OW95461   1.209   5.079   2.434 -0.3154 -0.3707  0.4304
27801SOL    HW195462   1.152   5.001   2.409 -0.0409 -0.1735 -0.8632
27801SOL    HW295463   1.222   5.081   2.533 -0.0511 -2.1513  0.4444
27802SOL     OW95464   5.414   0.962   1.588  0.5281  0.5686  0.4475
27802SOL    HW195465   5.339   0.896   1.579  0.7386  0.5921 -1.8667
27802SOL    HW295466   5.376   1.053   1.602  0.1345  0.4194  0.3732
27803SOL     OW95467   4.349   7.426   2.220 -0.6478  0.1155  0.1861
27803SOL    HW195468   4.320   7.399   2.312  0.6441 -3.0792 -0.2719
27803SOL    HW295469   4.359   7.525   2.216 -2.5272  0.4666  2.9471
27804SOL     OW95470   0.497   9.120   8.081 -0.4657  0.0968 -0.2605
27804SOL    HW195471   0.441   9.203   8.074  0.0484  0.5642  1.0432
27804SOL    HW295472   0.489   9.082   8.173  1.5843  0.3175  0.0171
27805SOL     OW95473   9.417   0.321   6.608  0.1124  0.0552  0.0763
27805SOL    HW195474   9.489   0.251   6.611 -1.1397 -1.3434 -1.7196
27805SOL    HW295475   9.356   0.309   6.686 -2.4124 -3.4786 -2.2807
27806SOL     OW95476   8.070   9.534   8.278 -0.1971 -0.0946  0.4067
27806SOL    HW195477   7.989   9.574   8.234 -0.3044 -0.4128  0.3166
27806SOL    HW295478   8.143   9.602   8.280 -1.1965  0.9857  2.5519
27807SOL     OW95479   7.030   8.861   8.272  0.2087  0.0628  0.0653
27807SOL    HW195480   7.126   8.853   8.244 -0.1314  1.7504 -1.7172
27807SOL    HW295481   6.988   8.771   8.274  0.8453 -0.3620 -2.9405
27808SOL     OW95482   2.417   1.075   1.231 -0.2340 -0.8171 -0.2427
27808SOL    HW195483   2.353   1.149   1.252 -0.0943 -0.2298 -1.8749
27808SOL    HW295484   2.485   1.069   1.304 -0.0447  0.8877 -0.2487
27809SOL     OW95485   8.949   2.290   5.567  0.3163 -0.4552  0.0473
27809SOL    HW195486   8.978   2.386   5.569 -2.9607  0.5750  2.0213
27809SOL    HW295487   8.989   2.241   5.643  0.8443 -0.2895 -0.1236
27810SOL     OW95488   3.831   0.630   9.779 -0.5392  0.4399 -0.0993
27810SOL    HW195489   3.866   0.539   9.799 -2.1573 -0.0576  0.5653
27810SOL    HW295490   3.903   0.697   9.794  0.6609 -0.7232 -0.5908
27811SOL     OW95491   0.487   6.887   2.934 -0.0654 -0.4534 -0.3185
27811SOL    HW195492   0.549   6.864   3.009 -0.2880  1.8917  0.6246
27811SOL    HW295493   0.538   6.934   2.862 -0.0695 -1.7400 -1.1881
27812SOL     OW95494   8.025   2.213   8.227 -0.2250  0.8169 -0.1910
27812SOL    HW195495   7.961   2.246   8.296 -1.1532  1.6360 -1.4256
27812SOL    HW295496   8.025   2.276   8.149  2.0508  0.8082 -0.2287
27813SOL     OW95497   9.289   5.659   1.984  0.4178  0.1611 -0.6569
27813SOL    HW195498   9.293   5.655   1.884  1.3917  0.5745 -0.6391
27813SOL    HW295499   9.267   5.568   2.020 -0.7352  0.1834 -1.2732
27814SOL     OW95500   9.970   5.841   6.976  0.7314  0.2614 -0.3270
27814SOL    HW195501  10.068   5.827   6.993  1.0697  0.9748 -1.6189
27814SOL    HW295502   9.956   5.933   6.938 -0.2751 -0.3870 -1.5540
27815SOL     OW95503   9.497   2.686   9.942 -0.3560 -0.0384  0.2240
27815SOL    HW195504   9.499   2.779   9.978  0.4342 -0.0710  0.2877
27815SOL    HW295505   9.556   2.681   9.861 -1.2915 -0.2135 -0.4562
27816SOL     OW95506   9.126   0.744   3.836 -0.1473 -0.4272 -0.2842
27816SOL    HW195507   9.225   0.733   3.847 -0.2687 -0.4757  0.8276
27816SOL    HW295508   9.080   0.659   3.862 -0.4623 -0.5132 -1.1203
27817SOL     OW95509   1.891   5.376   8.646 -0.1267 -0.5756 -0.3657
27817SOL    HW195510   1.953   5.376   8.568 -0.3189 -1.1117 -0.5178
27817SOL    HW295511   1.838   5.460   8.647 -0.6093 -0.8650 -1.1983
27818SOL     OW95512   1.243   6.966   4.997  0.4457 -0.0615  0.1373
27818SOL    HW195513   1.194   7.044   5.036  1.0710 -0.6687  2.1810
27818SOL    HW295514   1.280   6.910   5.071  0.3237 -2.0926 -1.3216
27819SOL     OW95515   8.750   9.453   2.002 -0.2816 -1.1427 -0.0624
27819SOL    HW195516   8.730   9.498   2.089 -1.6831 -3.2494  0.7330
27819SOL    HW295517   8.665   9.437   1.952  0.4351 -0.7031 -1.4625
27820SOL     OW95518   3.859   2.753   4.655  0.9218  0.3688 -0.6093
27820SOL    HW195519   3.887   2.773   4.748  4.1696  3.3830 -2.1335
27820SOL    HW295520   3.926   2.691   4.612 -0.7946 -1.3854 -0.8377
27821SOL     OW95521   4.291   4.914   9.861  0.6764 -0.5297 -0.2696
27821SOL    HW195522   4.263   4.935   9.954  1.1046 -0.7228 -0.0977
27821SOL    HW295523   4.336   4.824   9.859  0.4395 -0.6415 -0.7016
27822SOL     OW95524   1.175   5.056   8.315 -0.0925  0.1389  0.2703
27822SOL    HW195525   1.142   5.116   8.389  1.4326 -0.0662  1.1294
27822SOL    HW295526   1.233   5.109   8.253 -0.9148  0.1731 -0.4765
27823SOL     OW95527   0.839   1.858   1.996 -0.6863 -0.3312 -0.4971
27823SOL    HW195528   0.745   1.824   2.003 -0.8863  0.0723 -1.2115
27823SOL    HW295529   0.838   1.951   1.959 -0.0052 -0.3190 -0.4862
27824SOL     OW95530   0.385   2.607   7.642 -0.4615  0.8169  0.0598
27824SOL    HW195531   0.415   2.554   7.721 -0.9487 -0.7779 -0.7997
27824SOL    HW295532   0.458   2.671   7.615  0.7877 -0.5551  0.1265
27825SOL     OW95533   0.660   3.571   1.798  0.2818 -0.2392 -0.4799
27825SOL    HW195534   0.654   3.508   1.720  1.6101 -0.1824 -0.6450
27825SOL    HW295535   0.741   3.549   1.852 -1.0718 -0.7660  1.3452
27826SOL     OW95536   8.358   8.182   4.223 -0.5692 -0.1793  0.3903
27826SOL    HW195537   8.404   8.126   4.291  0.1328 -0.0344  0.0430
27826SOL    HW295538   8.328   8.125   4.147 -0.2172 -0.1446  0.2262
27827SOL     OW95539   0.586   7.797   4.890  0.1289  0.2321 -0.0731
27827SOL    HW195540   0.502   7.760   4.850 -0.8156  2.4591 -0.2804
27827SOL    HW295541   0.562   7.856   4.967  1.4499  1.3614 -0.5106
27828SOL     OW95542   4.530   3.161   8.637 -0.4666 -0.5807 -0.4341
27828SOL    HW195543   4.432   3.170   8.615 -0.3366 -0.3268 -0.9151
27828SOL    HW295544   4.582   3.226   8.581  0.1422 -1.8450 -1.3508
27829SOL     OW95545   0.172   1.793   5.288  0.3155 -0.7259  0.4646
27829SOL    HW195546   0.138   1.882   5.318 -1.3447 -0.5423 -1.8459
27829SOL    HW295547   0.141   1.723   5.353 -1.1387 -0.0372  0.5400
27830SOL     OW95548   3.512   1.819   2.622  0.3313 -0.0080  0.2791
27830SOL    HW195549   3.428   1.766   2.620 -0.5704  1.3860  0.1851
27830SOL    HW295550   3.521   1.870   2.536  0.8727  0.4558  0.6073
27831SOL     OW95551   0.138   6.651   6.530  0.5059 -0.4789 -0.2148
27831SOL    HW195552   0.234   6.633   6.549  0.3712  1.0644  2.1586
27831SOL    HW295553   0.110   6.736   6.576 -2.1284 -1.1868 -0.4109
27832SOL     OW95554   7.032   7.541   7.847 -0.4872  0.1713  0.9939
27832SOL    HW195555   6.957   7.520   7.909  0.2396  0.3447  1.9463
27832SOL    HW295556   7.107   7.583   7.899 -0.2701  1.2450 -0.1652
27833SOL     OW95557   9.201   6.597   6.949 -0.2794 -0.2466  0.2375
27833SOL    HW195558   9.289   6.560   6.919 -0.5850 -0.6927 -0.1154
27833SOL    HW295559   9.143   6.522   6.981 -1.8208 -0.4211 -2.7622
27834SOL     OW95560   7.821   0.809   8.339 -0.1464  0.1456  0.3002
27834SOL    HW195561   7.731   0.827   8.379 -0.3110 -0.1278  0.0510
27834SOL    HW295562   7.844   0.880   8.273  0.5094  1.0847  1.5258
27835SOL     OW95563   2.378   8.464  10.024 -0.1285  0.2268  0.0858
27835SOL    HW195564   2.444   8.403  10.068 -0.5772 -0.4591 -0.1932
27835SOL    HW295565   2.428   8.531   9.968  0.3387 -0.1736  0.0182
27836SOL     OW95566   6.495   0.949   0.717  0.5289 -0.5692 -0.2365
27836SOL    HW195567   6.468   0.979   0.626 -0.0632  0.6414  0.3280
27836SOL    HW295568   6.522   0.853   0.714  1.2207 -0.3405 -1.8255
27837SOL     OW95569   0.090   1.269   7.102  0.1661  0.6141  0.4776
27837SOL    HW195570   0.106   1.227   7.013 -0.0426 -0.1167  0.7857
27837SOL    HW295571   0.174   1.316   7.132  1.2979 -1.9295  1.3986
27838SOL     OW95572   6.396   4.959   7.956 -0.0884  0.3588 -0.1539
27838SOL    HW195573   6.418   5.052   7.926 -2.2168  0.6343 -0.9477
27838SOL    HW295574   6.354   4.909   7.881 -0.3599 -0.7509  0.7264
27839SOL     OW95575   6.834   2.465   9.304 -0.4567 -0.6758 -0.1794
27839SOL    HW195576   6.823   2.400   9.379 -0.7160 -2.2040 -1.5041
27839SOL    HW295577   6.893   2.540   9.333 -0.3868 -1.3557  1.4844
27840SOL     OW95578   7.609   2.319   8.286  0.1250  0.0410 -0.0973
27840SOL    HW195579   7.563   2.351   8.369 -0.0333  0.9194 -0.5106
27840SOL    HW295580   7.540   2.308   8.213  0.3169 -0.3429 -0.2173
27841SOL     OW95581   8.814   3.058   6.254  0.7937  0.3478  0.4611
27841SOL    HW195582   8.905   3.066   6.215  0.5833  0.7481  0.0501
27841SOL    HW295583   8.822   3.037   6.352  1.3096 -1.1051  0.1170
27842SOL     OW95584   3.987   4.684   8.330 -0.2940  0.2066  0.3620
27842SOL    HW195585   3.943   4.773   8.338 -0.6750  0.0308  0.2329
27842SOL    HW295586   4.034   4.663   8.416  0.9808  1.1471 -0.0899
27843SOL     OW95587   5.457   9.733   8.380 -0.0049 -0.4515 -0.2961
27843SOL    HW195588   5.375   9.749   8.436 -0.0470 -1.8699  0.0704
27843SOL    HW295589   5.501   9.648   8.409  1.2155 -0.0515 -0.9566
27844SOL     OW95590   8.381   8.737   6.297  0.0922  0.0799 -0.0526
27844SOL    HW195591   8.442   8.776   6.228 -0.8296 -0.5012 -1.2317
27844SOL    HW295592   8.292   8.782   6.292 -0.5852 -1.2534 -0.5765
27845SOL     OW95593   8.415   9.865   6.799  0.3705 -0.2758  0.2188
27845SOL    HW195594   8.439   9.895   6.707 -0.6579 -0.3421 -0.0801
27845SOL    HW295595   8.497   9.834   6.847  0.7735 -1.0973 -0.9871
27846SOL     OW95596   9.859   0.141   8.488 -0.4958 -0.0186  0.1743
27846SOL    HW195597   9.932   0.202   8.456  0.6943 -0.4668  2.0004
27846SOL    HW295598   9.864   0.054   8.439  0.8150 -0.4071  0.9811
27847SOL     OW95599   5.382   7.151   5.058 -0.1062 -0.4235  0.2355
27847SOL    HW195600   5.406   7.097   4.977 -1.0311  0.6920 -0.8109
27847SOL    HW295601   5.359   7.090   5.133  0.3029 -1.4810 -0.4841
27848SOL     OW95602   6.837   6.858   5.564 -0.3649  0.6455  0.1826
27848SOL    HW195603   6.788   6.775   5.591  0.2203  0.2955  0.1672
27848SOL    HW295604   6.781   6.910   5.500 -0.6120  0.1211 -0.0280
27849SOL     OW95605   1.381   6.837   9.517 -0.1926 -0.0280  0.2051
27849SOL    HW195606   1.468   6.788   9.527  0.8444  1.6070 -0.5575
27849SOL    HW295607   1.377   6.911   9.583 -1.5231 -0.7930  0.9932
27850SOL     OW95608   9.019   7.800   3.897 -0.3443 -0.8372  0.2094
27850SOL    HW195609   8.938   7.852   3.870 -0.9507 -0.8338  1.9771
27850SOL    HW295610   9.051   7.746   3.819 -0.3598  1.2968 -1.3365
27851SOL     OW95611   9.549   8.139   4.093  0.0256 -0.0777  0.3104
27851SOL    HW195612   9.605   8.219   4.071 -0.0205 -0.5534 -1.6181
27851SOL    HW295613   9.556   8.119   4.191  0.9379  1.5978  0.5951
27852SOL     OW95614   3.613   2.975   5.096 -0.3230  0.1589 -0.0337
27852SOL    HW195615   3.531   3.029   5.072 -0.7811 -1.2447 -1.7185
27852SOL    HW295616   3.694   3.021   5.061 -0.6721  0.0306 -1.0356
27853SOL     OW95617   4.449   0.751   5.491  0.8542 -0.3488 -0.0650
27853SOL    HW195618   4.350   0.739   5.490  0.6330  1.1611  1.6486
27853SOL    HW295619   4.476   0.814   5.417  0.5915 -1.0793 -0.7872
27854SOL     OW95620   4.468   0.977   0.586  0.0076 -0.1568  0.2844
27854SOL    HW195621   4.492   0.968   0.683  1.3984  0.7320  0.0280
27854SOL    HW295622   4.457   0.887   0.545 -0.9345 -0.5408  1.3432
27855SOL     OW95623   1.053   1.536   0.050 -0.1950 -0.3425 -0.3217
27855SOL    HW195624   1.070   1.540  -0.048 -0.0449  0.3966 -0.2679
27855SOL    HW295625   0.992   1.610   0.077 -1.6878 -1.6004 -0.1363
27856SOL     OW95626   4.063   9.948   3.760  0.4808 -0.3098 -0.2697
27856SOL    HW195627   4.097   9.866   3.805 -0.0073 -0.7569 -0.7176
27856SOL    HW295628   3.974   9.973   3.801  2.1675  1.9369  2.2298
27857SOL     OW95629   5.715   0.611   1.770  0.0632  0.1301  0.0809
27857SOL    HW195630   5.634   0.669   1.777  0.9110  1.1624  1.3906
27857SOL    HW295631   5.774   0.645   1.697  0.1771  0.4321  0.3156
27858SOL     OW95632   3.043   4.179   1.262  0.8219  0.0440  0.1748
27858SOL    HW195633   3.012   4.117   1.191  2.1361 -0.6057  0.1473
27858SOL    HW295634   3.049   4.130   1.349  1.1413  0.3191  0.3105
27859SOL     OW95635   3.142   5.510   7.713 -0.0817  0.5312 -0.0434
27859SOL    HW195636   3.061   5.559   7.745 -0.5811 -1.1857  1.3921
27859SOL    HW295637   3.223   5.567   7.724 -0.5583  0.7915  2.2663
27860SOL     OW95638   3.921   2.287   6.099  0.0070  0.4998 -0.0569
27860SOL    HW195639   4.001   2.273   6.158 -0.9480 -0.5098  1.0314
27860SOL    HW295640   3.950   2.284   6.003  1.0796 -1.2462  0.2943
27861SOL     OW95641   6.189   1.219   0.042 -0.3092  0.0869 -0.0898
27861SOL    HW195642   6.134   1.187   0.119 -0.1209 -0.7300 -0.2897
27861SOL    HW295643   6.234   1.141  -0.002  0.3948  0.6617 -0.4001
27862SOL     OW95644   6.977   1.383   7.125  0.0202  0.3009 -0.5820
27862SOL    HW195645   6.997   1.285   7.133  2.4581  0.6206 -2.2109
27862SOL    HW295646   7.044   1.435   7.178  0.1387  1.1787 -1.5786
27863SOL     OW95647   8.316   9.441   4.734 -0.7545 -0.4664  0.6719
27863SOL    HW195648   8.284   9.520   4.786 -1.5879 -0.2948 -0.0863
27863SOL    HW295649   8.406   9.413   4.767 -0.9422  0.1157  1.6790
27864SOL     OW95650   8.032   0.588   2.118 -0.2137 -0.1257 -0.0445
27864SOL    HW195651   7.937   0.585   2.146 -0.1222  0.1429  0.2896
27864SOL    HW295652   8.090   0.550   2.190 -0.0731 -0.3175 -0.2589
27865SOL     OW95653   7.454   7.254   3.736  0.0953  0.7890 -0.1450
27865SOL    HW195654   7.512   7.332   3.757 -0.5146  1.1422  0.2404
27865SOL    HW295655   7.376   7.252   3.799 -0.2329  0.2370 -0.5611
27866SOL     OW95656   1.633   3.745   0.079  0.4573  0.6834  0.0178
27866SOL    HW195657   1.633   3.704   0.170 -0.3382 -0.1223 -0.3325
27866SOL    HW295658   1.597   3.678   0.012  0.9977  1.2736 -0.8716
27867SOL     OW95659   8.545   1.799   6.438 -0.1737  0.6576  0.1926
27867SOL    HW195660   8.536   1.738   6.359  0.5094  0.1097  0.5255
27867SOL    HW295661   8.454   1.821   6.474 -0.3868 -2.3083  1.6661
27868SOL     OW95662   7.542   2.968   5.431 -0.8805  0.1827 -0.1116
27868SOL    HW195663   7.633   3.009   5.435 -0.4032 -0.9514  0.8832
27868SOL    HW295664   7.512   2.942   5.523 -1.9946  0.0810 -0.4909
27869SOL     OW95665   7.582   4.476   8.836 -0.3766  0.2305  0.4321
27869SOL    HW195666   7.659   4.490   8.774  0.0503 -2.8841  0.1420
27869SOL    HW295667   7.609   4.501   8.929  0.5515  0.4636  0.1088
27870SOL     OW95668   4.589   0.559   8.776  0.3618  0.0086  0.5668
27870SOL    HW195669   4.494   0.528   8.774  0.5765 -0.7110  1.4449
27870SOL    HW295670   4.595   0.648   8.821  0.2135 -0.3441  1.2899
27871SOL     OW95671   2.323   6.239   6.885 -0.3949  0.1259 -0.3791
27871SOL    HW195672   2.334   6.254   6.787  1.1620  0.3093 -0.1823
27871SOL    HW295673   2.363   6.152   6.911 -1.1335 -0.0957  0.0507
27872SOL     OW95674   3.134   3.193   3.624 -0.3362 -0.1969  0.5471
27872SOL    HW195675   3.063   3.252   3.664  0.8147  1.2115  0.5614
27872SOL    HW295676   3.176   3.240   3.546  0.5421 -1.0388  0.5073
27873SOL     OW95677   8.948   6.702   4.003  0.2935  0.0655  0.4787
27873SOL    HW195678   9.047   6.705   3.990  0.4603  0.5860  1.8668
27873SOL    HW295679   8.914   6.793   4.025 -0.4953 -0.1295  0.1055
27874SOL     OW95680   0.146   2.758   7.817 -0.6930  0.2039 -0.3179
27874SOL    HW195681   0.209   2.830   7.846 -1.2506  1.1925 -1.5376
27874SOL    HW295682   0.124   2.770   7.720 -1.5387 -1.0492 -0.2881
27875SOL     OW95683   9.305   5.892   2.924 -0.1852 -0.0079  0.4896
27875SOL    HW195684   9.277   5.925   3.014  0.1177  0.0652  0.5542
27875SOL    HW295685   9.244   5.818   2.896 -1.2180  0.9766  0.0983
27876SOL     OW95686   2.911   1.282   2.083 -0.2378 -0.1839  0.6003
27876SOL    HW195687   2.960   1.307   2.000 -1.4912 -0.3519 -0.2020
27876SOL    HW295688   2.974   1.239   2.147  0.9290  0.7464  0.0987
27877SOL     OW95689   2.663   0.436   6.609  0.2069  0.3076 -0.1227
27877SOL    HW195690   2.600   0.421   6.533 -0.4308  3.2396 -0.2074
27877SOL    HW295691   2.688   0.533   6.614  1.8381 -0.1821  2.1688
27878SOL     OW95692   0.138   9.951   5.489 -0.0941 -0.3560 -0.4019
27878SOL    HW195693   0.041   9.927   5.493  0.0515 -1.1395 -1.2440
27878SOL    HW295694   0.174   9.926   5.399  1.0510 -0.7183  0.1547
27879SOL     OW95695   0.573   7.599   7.898  0.2871  0.9761 -0.0070
27879SOL    HW195696   0.559   7.678   7.839 -0.3619  0.0988 -1.0366
27879SOL    HW295697   0.629   7.531   7.851 -0.6661  0.0487  0.1887
27880SOL     OW95698   9.992   9.890   5.229 -0.4393  0.6280 -0.1550
27880SOL    HW195699   9.914   9.935   5.274  0.4735  1.0777  1.0079
27880SOL    HW295700   9.997   9.922   5.134 -1.4248  0.9094 -0.1276
27881SOL     OW95701   1.481   3.205   2.784  0.1828  0.0812  0.0296
27881SOL    HW195702   1.396   3.214   2.732  0.6704 -1.1776 -1.0226
27881SOL    HW295703   1.491   3.283   2.846 -0.9444  1.0606 -0.9943
27882SOL     OW95704   2.435   2.059   3.401  0.1967  0.1870  0.2776
27882SOL    HW195705   2.512   2.118   3.423 -0.6560  1.1007  0.8293
27882SOL    HW295706   2.467   1.981   3.347  1.3669  0.9924 -0.2089
27883SOL     OW95707   2.132   0.181   3.298 -0.3149 -0.0269  0.2453
27883SOL    HW195708   2.034   0.178   3.317 -0.4197  0.3866 -0.2132
27883SOL    HW295709   2.162   0.277   3.294  0.3050 -0.1648  1.3971
27884SOL     OW95710   9.211   1.192   9.197 -0.2974  0.0102 -0.0508
27884SOL    HW195711   9.177   1.264   9.136  0.4618  0.6319  0.2507
27884SOL    HW295712   9.147   1.115   9.197 -1.1629  0.7213 -0.3065
27885SOL     OW95713   7.385   2.392   5.957 -0.6937 -0.1024 -0.3428
27885SOL    HW195714   7.409   2.430   6.046 -1.1405  1.3603 -0.8410
27885SOL    HW295715   7.311   2.444   5.916 -0.9680 -1.1871 -1.2799
27886SOL     OW95716   9.819   5.922   9.835  0.2442  0.0586  0.0812
27886SOL    HW195717   9.761   5.965   9.905  0.9013 -0.7591  1.1489
27886SOL    HW295718   9.864   5.993   9.781  0.9371  0.7343  1.4974
27887SOL     OW95719   0.007   7.990   8.131 -0.1465  0.4260  0.0467
27887SOL    HW195720   0.001   8.054   8.054 -0.6618 -0.4267 -0.6380
27887SOL    HW295721  -0.071   7.928   8.128  0.2962 -0.1678  0.7592
27888SOL     OW95722   4.976   4.355   1.623  0.2147  0.3551  0.0409
27888SOL    HW195723   4.877   4.371   1.627  0.2512  0.1941  2.0165
27888SOL    HW295724   5.006   4.315   1.709  2.1183  1.0126 -0.3084
27889SOL     OW95725   4.369   5.378   8.649  0.0236 -0.2907 -0.7016
27889SOL    HW195726   4.385   5.474   8.625 -0.8751  0.1832  0.5707
27889SOL    HW295727   4.457   5.329   8.648  1.0743  1.3859  2.3251
27890SOL     OW95728   4.099   7.061   3.726 -0.1803 -0.0177  0.1009
27890SOL    HW195729   4.137   7.062   3.818 -1.1117  0.0151  0.4965
27890SOL    HW295730   4.007   7.021   3.729  0.7525 -2.3660 -1.1947
27891SOL     OW95731   4.324   5.606   3.423  0.5188  0.1869 -0.1608
27891SOL    HW195732   4.273   5.579   3.341  0.2187 -0.2070  0.1511
27891SOL    HW295733   4.275   5.573   3.504  0.1370  1.6981  0.2291
27892SOL     OW95734   1.958   9.741   4.660  0.4631 -0.5738 -0.6320
27892SOL    HW195735   2.055   9.717   4.661  0.5090 -0.3750 -0.0895
27892SOL    HW295736   1.906   9.672   4.712  0.5411  0.2557  0.5625
27893SOL     OW95737   0.627   7.773   6.175  0.3420  0.2153 -0.0523
27893SOL    HW195738   0.718   7.745   6.205 -0.1778 -1.3957  0.0570
27893SOL    HW295739   0.575   7.810   6.252  1.5666  3.0218 -0.5011
27894SOL     OW95740   9.341   6.311   6.933 -0.4103 -0.7712  0.1597
27894SOL    HW195741   9.388   6.384   6.882  0.6642 -2.3726 -1.1758
27894SOL    HW295742   9.268   6.273   6.877  0.1604 -1.8886  0.1677
27895SOL     OW95743   1.848   7.940   1.829  0.3244 -0.5711 -0.1482
27895SOL    HW195744   1.869   8.027   1.874 -2.1406  0.5228 -1.0151
27895SOL    HW295745   1.788   7.886   1.887  4.2857 -3.1473  1.7800
27896SOL     OW95746   7.164   7.912   5.041  0.1589  0.6264  0.4806
27896SOL    HW195747   7.111   7.831   5.065  0.9599 -0.2763 -0.7381
27896SOL    HW295748   7.234   7.887   4.974  2.6522  1.6477  2.6650
27897SOL     OW95749   0.974   9.985   8.966  0.0116 -0.7789 -0.5886
27897SOL    HW195750   1.069  10.010   8.985 -0.7374  1.1252  0.6959
27897SOL    HW295751   0.940  10.039   8.889  0.2246 -2.0763 -1.6082
27898SOL     OW95752   2.593   4.870   5.363  0.0302  0.4481  0.2566
27898SOL    HW195753   2.574   4.773   5.350  1.2041 -0.0310  1.8766
27898SOL    HW295754   2.601   4.915   5.275  1.0142 -1.2438 -0.5422
27899SOL     OW95755   4.641   5.076   8.794 -0.0025  0.0736 -0.5132
27899SOL    HW195756   4.559   5.022   8.812 -1.0262  2.1474  1.2024
27899SOL    HW295757   4.720   5.015   8.785 -1.4401 -1.8181 -0.5654
27900SOL     OW95758   9.777   0.788   2.223 -0.6226 -0.1505 -0.5895
27900SOL    HW195759   9.844   0.797   2.297  0.5612 -1.4643 -1.4698
27900SOL    HW295760   9.721   0.870   2.218  0.7444  0.8529  0.3371
27901SOL     OW95761   9.993   8.292   8.823  0.5816  0.2979 -0.3063
27901SOL    HW195762   9.907   8.242   8.829 -0.9390  3.1205  2.9662
27901SOL    HW295763  10.061   8.250   8.882 -0.2002  1.0883  1.1853
27902SOL     OW95764   5.932   5.558   1.390 -0.3397 -0.7173  0.6010
27902SOL    HW195765   5.895   5.576   1.482 -2.3064 -0.0907 -0.2939
27902SOL    HW295766   5.995   5.631   1.364 -0.7334 -0.2536  0.9456
27903SOL     OW95767   2.853   5.799   8.478  0.0124 -0.1997  0.0284
27903SOL    HW195768   2.930   5.830   8.423  1.6670 -2.8309  0.7725
27903SOL    HW295769   2.781   5.765   8.418  0.2306  0.4506 -0.6142
27904SOL     OW95770   8.456   5.134   8.542  0.5524  0.5229 -0.1368
27904SOL    HW195771   8.368   5.125   8.495  0.9739  0.8033 -0.9914
27904SOL    HW295772   8.498   5.044   8.550 -0.9749  0.0128  2.5738
27905SOL     OW95773   9.539   0.626   0.408 -0.2864  0.2142  0.4974
27905SOL    HW195774   9.452   0.665   0.377 -0.6151 -2.2256 -1.8295
27905SOL    HW295775   9.613   0.659   0.350 -0.0933 -0.0208  0.6072
27906SOL     OW95776   8.873   7.219   5.127 -0.7037  0.2647  0.2767
27906SOL    HW195777   8.931   7.243   5.204 -1.8594  0.4574  1.0983
27906SOL    HW295778   8.907   7.134   5.085  0.6670  0.8407  0.1961
27907SOL     OW95779   0.289   0.598   2.157  0.2323 -0.0677 -0.1850
27907SOL    HW195780   0.201   0.585   2.112  0.3400  3.9861 -1.7235
27907SOL    HW295781   0.361   0.559   2.100 -0.1610  0.2399 -0.8899
27908SOL     OW95782   8.416   4.138  10.039  0.4577  0.0357 -0.0828
27908SOL    HW195783   8.368   4.217  10.002  0.5039  0.3860  0.6214
27908SOL    HW295784   8.411   4.063   9.972  0.6615  0.7145 -0.8722
27909SOL     OW95785   1.693   5.480   7.542 -0.3565  0.2423  0.5085
27909SOL    HW195786   1.623   5.531   7.492 -1.1601  1.5057  2.8121
27909SOL    HW295787   1.667   5.384   7.546 -1.4331  0.5150  0.3828
27910SOL     OW95788   8.940   8.154   5.008 -0.3082 -0.5566  0.1394
27910SOL    HW195789   8.970   8.117   5.096 -0.2576 -0.1734  0.2836
27910SOL    HW295790   9.014   8.144   4.941 -1.1110 -2.8316 -0.4402
27911SOL     OW95791   1.764   2.133   5.579  0.2984 -0.2923 -0.1124
27911SOL    HW195792   1.747   2.227   5.608 -0.5340 -0.7032  0.7462
27911SOL    HW295793   1.862   2.116   5.576  0.4539  0.6395 -0.3956
27912SOL     OW95794   2.220   1.153   2.533  0.0807 -0.1283  0.0683
27912SOL    HW195795   2.267   1.098   2.464 -0.7451  0.4217 -0.9528
27912SOL    HW295796   2.250   1.125   2.624  1.3267 -0.7326 -0.5141
27913SOL     OW95797   7.530   9.949   5.637  0.2093  0.1688 -0.3892
27913SOL    HW195798   7.568  10.012   5.569  1.3794  0.0088  0.1040
27913SOL    HW295799   7.560   9.977   5.728 -1.1460  0.2289  0.0408
27914SOL     OW95800   6.216   7.030   4.513  0.3302  0.0336  0.5196
27914SOL    HW195801   6.237   7.051   4.608 -0.6180 -0.5616  0.8590
27914SOL    HW295802   6.271   6.953   4.482  0.9908  0.5349  0.4354
27915SOL     OW95803   8.917   1.595   8.272 -0.3320  0.0969 -0.2331
27915SOL    HW195804   8.960   1.506   8.259 -0.0464  0.3509 -1.0319
27915SOL    HW295805   8.834   1.601   8.217 -0.4272  0.2696 -0.0703
27916SOL     OW95806   8.577   4.899   1.056  0.0856  0.0144 -0.3855
27916SOL    HW195807   8.549   4.815   1.104  0.3287  0.3243  0.2975
27916SOL    HW295808   8.636   4.875   0.979 -0.0668 -0.4606 -0.3575
27917SOL     OW95809   9.305   9.135   4.459  0.0575 -0.1451  0.1847
27917SOL    HW195810   9.293   9.053   4.404  1.5723  0.1045 -0.5548
27917SOL    HW295811   9.395   9.133   4.502  0.3632  1.4198 -0.3535
27918SOL     OW95812   3.760   8.850   3.519 -0.4846 -0.3548  0.1562
27918SOL    HW195813   3.728   8.756   3.536 -1.3185 -0.2464 -0.7832
27918SOL    HW295814   3.706   8.913   3.575 -0.8053 -0.3199 -0.1919
27919SOL     OW95815   2.164   1.510   8.287 -0.2034 -0.2398  0.1552
27919SOL    HW195816   2.182   1.582   8.354 -0.6927 -1.4926  1.6599
27919SOL    HW295817   2.218   1.429   8.310 -0.3484 -0.6693 -0.9911
27920SOL     OW95818   8.913   3.657   6.405 -0.2238 -1.2027  0.5252
27920SOL    HW195819   8.921   3.659   6.306  0.1901  0.8962  0.5721
27920SOL    HW295820   8.816   3.655   6.430 -0.3987  0.8798  0.0768
27921SOL     OW95821   0.808   6.370   5.945  0.5916 -0.1057 -0.0432
27921SOL    HW195822   0.835   6.458   5.984 -0.3941  0.2405 -0.1192
27921SOL    HW295823   0.709   6.360   5.951  0.6909 -1.1986 -0.0692
27922SOL     OW95824   6.016   8.314   7.044  0.1051 -0.5119  0.4416
27922SOL    HW195825   5.993   8.286   6.951 -0.7514 -2.7189  1.2915
27922SOL    HW295826   6.109   8.283   7.066 -0.4266 -1.7502  0.9917
27923SOL     OW95827   5.545   0.783   3.132  0.9098  0.4249  0.6092
27923SOL    HW195828   5.576   0.858   3.074  0.6673  2.2383  2.7476
27923SOL    HW295829   5.623   0.745   3.182  0.8128  0.1433  0.5488
27924SOL     OW95830   0.260   5.857   2.531 -0.6813  0.2413  0.6927
27924SOL    HW195831   0.200   5.789   2.489 -0.2118  1.0250 -1.3173
27924SOL    HW295832   0.212   5.944   2.538 -0.8274  0.0646  2.0238
27925SOL     OW95833   3.530   7.712   0.266 -0.7745  0.5245  0.0031
27925SOL    HW195834   3.484   7.634   0.224 -0.0820 -0.1684  0.5000
27925SOL    HW295835   3.553   7.780   0.196 -2.9165  1.0749 -0.1818
27926SOL     OW95836   4.100   1.432   6.841 -0.0884  0.1930 -0.4546
27926SOL    HW195837   4.064   1.514   6.796  2.3128  2.0973  0.9575
27926SOL    HW295838   4.040   1.408   6.917  0.5921  2.3079  0.8117
27927SOL     OW95839   8.254   4.978   7.401  0.0352 -0.1317  0.0365
27927SOL    HW195840   8.346   4.944   7.416  0.0234 -1.4411 -2.5088
27927SOL    HW295841   8.192   4.901   7.386 -1.4178  0.7481  1.3371
27928SOL     OW95842   8.216   6.402   4.565 -0.2409 -0.1630 -0.4009
27928SOL    HW195843   8.202   6.500   4.573  1.0480  0.0224 -0.4091
27928SOL    HW295844   8.282   6.383   4.492  1.8624 -0.8562  1.6101
27929SOL     OW95845   8.302   9.293   6.031  1.0250  0.9019  0.8235
27929SOL    HW195846   8.308   9.379   5.982  1.1492 -0.1671 -1.0930
27929SOL    HW295847   8.393   9.251   6.036  0.3473 -1.0083 -1.8097
27930SOL     OW95848   4.159   2.893   9.177  0.0860  0.3838  0.4978
27930SOL    HW195849   4.113   2.919   9.262  0.1819  3.2073 -0.2710
27930SOL    HW295850   4.257   2.913   9.184  0.2856 -0.4105  0.0998
27931SOL     OW95851   6.830   7.907   4.752  0.5934  0.5141  0.2486
27931SOL    HW195852   6.879   7.823   4.729  1.1903  1.1528 -0.8587
27931SOL    HW295853   6.747   7.884   4.803  1.1032 -0.6979  0.5380
27932SOL     OW95854   6.227   8.290   5.882 -0.5358 -0.5062 -0.0537
27932SOL    HW195855   6.292   8.263   5.810 -1.7240 -0.0149 -1.3471
27932SOL    HW295856   6.135   8.261   5.856 -0.7706 -1.6602  2.0158
27933SOL     OW95857   4.711   8.773   5.525 -0.2802  0.1653  0.2519
27933SOL    HW195858   4.659   8.832   5.587 -0.1281 -1.9485  2.5001
27933SOL    HW295859   4.680   8.678   5.537  1.9074 -0.6875 -0.6652
27934SOL     OW95860   0.820   1.189   5.685 -0.0784 -0.4756 -0.4534
27934SOL    HW195861   0.853   1.144   5.602  0.1810 -1.4441  0.1590
27934SOL    HW295862   0.853   1.283   5.688  0.1163 -0.5138 -1.3264
27935SOL     OW95863   0.707   8.730   4.135  0.0276 -0.6538  0.6462
27935SOL    HW195864   0.671   8.735   4.042 -1.1511  0.2189  1.1348
27935SOL    HW295865   0.765   8.809   4.153 -0.8394 -0.1090  1.0920
27936SOL     OW95866   1.072   7.939   9.004  0.0777 -0.3845  0.2713
27936SOL    HW195867   1.100   7.927   8.909  2.3727  0.2716  0.8475
27936SOL    HW295868   1.025   8.026   9.014  0.4870 -0.1172 -0.1176
27937SOL     OW95869   8.183   5.292   9.164  0.4396  0.0375  0.0669
27937SOL    HW195870   8.278   5.263   9.167  0.1220 -1.0083  0.2182
27937SOL    HW295871   8.134   5.241   9.094  0.2234  1.2998 -0.7194
27938SOL     OW95872   3.793   7.599   1.977  0.1386 -0.4716  0.7851
27938SOL    HW195873   3.749   7.673   2.027  1.2107 -0.1943  1.3468
27938SOL    HW295874   3.861   7.556   2.036  1.5665 -0.0104 -0.4961
27939SOL     OW95875   1.373   0.410   3.914  0.2555 -0.3209 -0.5272
27939SOL    HW195876   1.451   0.436   3.969 -0.4314 -0.9814  0.7765
27939SOL    HW295877   1.404   0.354   3.837  0.8652 -2.3055  1.1263
27940SOL     OW95878   3.067   6.809   5.821 -0.4614 -0.3475  0.5139
27940SOL    HW195879   3.086   6.766   5.909  1.2077  0.0071  0.3412
27940SOL    HW295880   2.978   6.779   5.788  0.4697 -3.3594  0.5753
27941SOL     OW95881   4.132   9.591   0.959 -0.5037 -0.1448 -0.1637
27941SOL    HW195882   4.052   9.612   1.015  0.0227 -1.8017  1.2716
27941SOL    HW295883   4.212   9.582   1.018  0.3603 -0.4459 -1.3628
27942SOL     OW95884   1.167   7.610   7.672 -0.3064 -0.2456  0.1078
27942SOL    HW195885   1.086   7.665   7.655  0.5814  0.8566 -0.6266
27942SOL    HW295886   1.238   7.667   7.714  0.6562 -0.8003 -0.7544
27943SOL     OW95887   7.426   2.021   1.994 -0.2372  0.1489 -0.0722
27943SOL    HW195888   7.360   1.983   2.059 -1.1157  1.1884 -0.3596
27943SOL    HW295889   7.482   1.946   1.957 -0.7575 -0.6443  0.7194
27944SOL     OW95890   2.391   5.610   8.697  0.0136  0.1241  0.1546
27944SOL    HW195891   2.431   5.654   8.777  1.7435  0.2051 -0.7392
27944SOL    HW295892   2.388   5.675   8.621  1.7145 -0.9916 -0.8994
27945SOL     OW95893   1.209   2.578   5.269  0.7364 -0.3016  0.3006
27945SOL    HW195894   1.289   2.636   5.253 -0.9740  1.5876 -1.6890
27945SOL    HW295895   1.193   2.521   5.188 -1.5383  1.3524 -0.4529
27946SOL     OW95896   0.770   8.730   2.240  0.3988 -0.1432 -0.4974
27946SOL    HW195897   0.856   8.741   2.190 -0.0227  3.4838 -0.5364
27946SOL    HW295898   0.696   8.712   2.175  0.7083 -0.6183 -0.7171
27947SOL     OW95899   8.482   7.814   6.756  0.5190  0.0272  0.4986
27947SOL    HW195900   8.486   7.883   6.828 -1.0007  0.5208  0.1126
27947SOL    HW295901   8.487   7.723   6.797  0.6053  0.3217  1.1544
27948SOL     OW95902   8.922   0.065   4.989  0.0640 -0.4553  0.1218
27948SOL    HW195903   8.862  -0.009   4.959  1.2297 -0.7174 -1.6588
27948SOL    HW295904   8.948   0.121   4.910  2.4744 -0.6199  0.7529
27949SOL     OW95905   2.400   5.985   5.493  0.0267  0.0760 -0.0647
27949SOL    HW195906   2.314   6.022   5.458 -1.1661 -1.6374  1.0205
27949SOL    HW295907   2.441   6.052   5.555 -0.5017  0.9131 -0.5994
27950SOL     OW95908   3.433   6.059   3.037 -0.2933  0.5621  0.2032
27950SOL    HW195909   3.506   5.991   3.046 -0.7835  0.2808  2.2485
27950SOL    HW295910   3.381   6.041   2.953 -0.3074 -1.5214  0.6133
27951SOL     OW95911   8.581   1.766   0.585  0.1440 -0.2950 -0.3008
27951SOL    HW195912   8.488   1.801   0.572 -0.3351 -1.1693  0.7491
27951SOL    HW295913   8.590   1.678   0.540  0.7597  0.2304 -1.2231
27952SOL     OW95914   2.355   6.005  10.054 -0.3413  0.0634 -0.3510
27952SOL    HW195915   2.374   6.096  10.093 -0.6829 -0.2970  0.6789
27952SOL    HW295916   2.350   6.012   9.954  1.9383  0.7553 -0.4544
27953SOL     OW95917   3.828   7.025   9.594  0.4149  0.5359 -0.0898
27953SOL    HW195918   3.782   7.012   9.506  2.0158 -1.3652 -0.6694
27953SOL    HW295919   3.927   7.027   9.580  0.7064 -0.3060  1.7083
27954SOL     OW95920   9.969   5.544   2.146  0.8011  0.1774  0.0388
27954SOL    HW195921   9.894   5.570   2.206  1.3997  0.1351  0.8138
27954SOL    HW295922  10.030   5.623   2.133  1.8562 -0.4185  1.2582
27955SOL     OW95923   8.825   2.989   3.618  0.3108 -0.4007  0.0875
27955SOL    HW195924   8.816   2.935   3.535 -1.8597 -1.1731  0.7966
27955SOL    HW295925   8.826   3.087   3.595 -1.8760 -0.5512 -0.7533
27956SOL     OW95926   8.639   6.163   4.761  0.2633 -0.0697  0.2125
27956SOL    HW195927   8.583   6.112   4.695 -1.7536  2.2764  0.0289
27956SOL    HW295928   8.615   6.134   4.853 -0.0054 -0.3047  0.0710
27957SOL     OW95929   2.952   7.641   6.044  0.3725 -0.4930 -0.1722
27957SOL    HW195930   2.960   7.739   6.063  1.2555 -0.5500 -0.2481
27957SOL    HW295931   2.859   7.611   6.064  0.5133  0.0475  1.3218
27958SOL     OW95932   6.603   1.098   4.258  0.4533 -0.2897 -0.3144
27958SOL    HW195933   6.572   1.012   4.219 -0.8519 -0.3538  0.8118
27958SOL    HW295934   6.666   1.080   4.334  0.2099 -0.2473 -0.1034
27959SOL     OW95935   2.358   3.592   5.448 -0.0441 -0.2715  0.0132
27959SOL    HW195936   2.317   3.677   5.414  0.9765  0.1306 -0.2458
27959SOL    HW295937   2.357   3.593   5.548 -1.6786 -0.7752  0.0095
27960SOL     OW95938   5.661   4.454   9.298  0.3611 -0.5542  0.0774
27960SOL    HW195939   5.600   4.520   9.253  0.9131  0.7758  1.2426
27960SOL    HW295940   5.738   4.433   9.238 -1.0599 -1.9995 -1.2799
27961SOL     OW95941   4.654   7.916   2.031  0.0285  0.0839  0.1273
27961SOL    HW195942   4.582   7.951   1.972  0.5145  0.0917 -0.4714
27961SOL    HW295943   4.626   7.923   2.127 -2.3222 -3.2934 -0.1958
27962SOL     OW95944   8.848   2.539   7.885  0.0867 -0.3228 -0.0320
27962SOL    HW195945   8.928   2.564   7.830 -2.8446  1.4062 -3.6569
27962SOL    HW295946   8.833   2.441   7.879 -0.7764 -0.0443 -3.2310
27963SOL     OW95947   4.190   7.087   3.464  0.0388  0.1414  0.3249
27963SOL    HW195948   4.238   7.017   3.412 -0.1301 -0.1874  0.6158
27963SOL    HW295949   4.169   7.053   3.556  1.5316  1.1951  1.0702
27964SOL     OW95950   3.828   5.197   9.178  0.2862  0.3307  0.2774
27964SOL    HW195951   3.795   5.165   9.089  0.9565  0.8839 -0.1745
27964SOL    HW295952   3.913   5.248   9.165  1.6625 -1.5644  1.4537
27965SOL     OW95953   7.261   6.238   2.142 -0.2512 -0.0754 -0.4501
27965SOL    HW195954   7.316   6.163   2.177  0.0570 -0.6547 -2.1400
27965SOL    HW295955   7.321   6.305   2.097 -0.5845  0.9277  0.5426
27966SOL     OW95956   7.317   4.280   1.633  0.1354 -0.0153  0.5646
27966SOL    HW195957   7.324   4.350   1.704 -1.0172  0.5952  0.0811
27966SOL    HW295958   7.323   4.190   1.675  1.7633  0.3632  1.1740
27967SOL     OW95959   1.483   4.430   3.680  0.2637  0.2260  0.0831
27967SOL    HW195960   1.581   4.427   3.701  0.4064 -0.1865 -0.6228
27967SOL    HW295961   1.444   4.514   3.717  0.1920 -1.1362  3.3280
27968SOL     OW95962   6.509   9.454   8.634 -0.7309 -0.0330 -0.4371
27968SOL    HW195963   6.487   9.511   8.713  0.9565 -0.6151  0.4632
27968SOL    HW295964   6.597   9.482   8.596  0.0085 -1.9039 -0.1138
27969SOL     OW95965   4.397   5.464  10.053 -0.1429  0.4706  0.1060
27969SOL    HW195966   4.495   5.469  10.030  0.2801 -1.6359  1.3050
27969SOL    HW295967   4.351   5.404   9.988 -0.5800  1.1928 -0.2530
27970SOL     OW95968   0.564   2.974   4.708  0.7426  1.0510  0.1827
27970SOL    HW195969   0.539   3.026   4.789  1.1570  2.6727 -0.6999
27970SOL    HW295970   0.624   2.898   4.734 -0.1883  0.7681  1.5437
27971SOL     OW95971   2.435   7.959   8.613  0.0080 -0.0225  0.3835
27971SOL    HW195972   2.507   8.016   8.652  0.4493 -0.5179  0.2985
27971SOL    HW295973   2.475   7.892   8.551 -0.8023  1.4870 -1.8179
27972SOL     OW95974   9.406   0.378   4.688  0.2295 -0.2728 -0.5440
27972SOL    HW195975   9.415   0.428   4.602 -1.8111  1.0028 -0.0373
27972SOL    HW295976   9.345   0.299   4.674  1.6913 -1.3950 -0.7915
27973SOL     OW95977   9.308   6.312   8.060 -0.0765  0.3883  0.4371
27973SOL    HW195978   9.406   6.324   8.076  0.0675 -0.1818  0.0241
27973SOL    HW295979   9.266   6.273   8.142 -0.0345  1.0247  0.7629
27974SOL     OW95980   9.907   1.700   4.746 -0.1524  0.4551  0.2261
27974SOL    HW195981   9.907   1.779   4.808 -0.2715  1.3035 -0.8348
27974SOL    HW295982   9.813   1.677   4.722 -0.0474  1.1037 -0.8433
27975SOL     OW95983   8.245   6.449   7.756  0.7830 -0.1295 -0.1548
27975SOL    HW195984   8.329   6.504   7.754  0.2412  0.7658  0.6207
27975SOL    HW295985   8.173   6.497   7.706  0.6698 -0.7936 -0.6351
27976SOL     OW95986   2.885   6.667   0.974 -0.0525 -0.4850  0.2795
27976SOL    HW195987   2.859   6.706   1.062 -0.9335 -1.2501  0.3699
27976SOL    HW295988   2.904   6.569   0.985  0.5199 -0.4389 -0.2473
27977SOL     OW95989   2.112   5.068   4.794  0.1200  0.0761  0.2942
27977SOL    HW195990   2.131   5.017   4.709  0.2543  1.6983 -0.6644
27977SOL    HW295991   2.038   5.133   4.778  0.8413  1.1112  1.1227
27978SOL     OW95992   3.606   1.428   7.508 -0.2212  0.1136  0.3939
27978SOL    HW195993   3.597   1.395   7.414 -2.6881 -0.3378  0.7660
27978SOL    HW295994   3.591   1.527   7.510  1.9075  0.4774  0.0502
27979SOL     OW95995   9.871   5.778   0.652 -0.5921  0.2927  0.0662
27979SOL    HW195996   9.865   5.722   0.735 -1.7349 -0.1605 -0.3124
27979SOL    HW295997   9.874   5.719   0.572 -0.3676  0.7518 -0.2660
27980SOL     OW95998   1.517   2.951   4.443  1.0006 -0.1843 -0.4257
27980SOL    HW195999   1.490   2.862   4.480  3.4976 -1.0569 -0.5683
27980SOL    HW296000   1.505   3.022   4.514 -0.0092 -0.8000  0.0297
27981SOL     OW96001   2.733   3.102   9.645  0.4066 -0.1596  0.2065
27981SOL    HW196002   2.791   3.041   9.591 -1.5144 -2.2466  0.4464
27981SOL    HW296003   2.638   3.093   9.615 -0.1804  1.2828  1.5736
27982SOL     OW96004   9.452   4.176   0.887 -0.3400  0.6014 -0.2987
27982SOL    HW196005   9.364   4.149   0.926 -0.2631  2.0881  0.9410
27982SOL    HW296006   9.525   4.123   0.931 -0.4002  1.1184  0.4314
27983SOL     OW96007   4.533   0.351   2.319 -0.4683 -1.1822  0.7951
27983SOL    HW196008   4.499   0.317   2.231  0.4319  0.8376 -0.3807
27983SOL    HW296009   4.629   0.326   2.330  0.2826  1.0599 -0.2046
27984SOL     OW96010   2.841   4.672   1.706 -0.4202  0.2004 -0.1362
27984SOL    HW196011   2.866   4.634   1.617  2.6970  0.0284  0.7579
27984SOL    HW296012   2.781   4.751   1.692 -1.1031 -0.6642 -2.3171
27985SOL     OW96013   4.008   9.547   1.338  0.8312 -0.1349  0.6503
27985SOL    HW196014   4.095   9.568   1.293 -0.1071  3.1508  0.2124
27985SOL    HW296015   4.008   9.587   1.430 -1.0228  1.9201 -0.1971
27986SOL     OW96016   3.823   3.381   1.206  0.1665 -0.0926  0.3514
27986SOL    HW196017   3.818   3.294   1.157  0.0927  0.2933 -0.3278
27986SOL    HW296018   3.759   3.378   1.283  0.8974 -1.0106  0.9422
27987SOL     OW96019   0.079   1.955   6.775  0.2084 -0.3586  0.5137
27987SOL    HW196020   0.139   1.893   6.723 -0.2065 -0.2002 -0.1654
27987SOL    HW296021  -0.014   1.918   6.776 -0.0031  0.1661  0.2549
27988SOL     OW96022   9.153   4.052   8.814 -0.4020  0.2441  0.2772
27988SOL    HW196023   9.142   4.031   8.911 -0.3534 -2.3961 -0.2462
27988SOL    HW296024   9.246   4.083   8.796 -0.0861 -0.3330  0.9045
27989SOL     OW96025   2.685   8.033   0.820 -0.3083 -0.3947 -0.7317
27989SOL    HW196026   2.783   8.050   0.807 -0.4106 -0.3294 -1.4391
27989SOL    HW296027   2.633   8.114   0.792 -0.6245 -0.8201 -1.4056
27990SOL     OW96028   5.109   3.216   5.650 -0.1665  0.4158 -0.4284
27990SOL    HW196029   5.166   3.182   5.574  1.1268  1.0441  0.2486
27990SOL    HW296030   5.043   3.282   5.615  1.6960  2.1495 -0.7298
27991SOL     OW96031   7.296   1.207   7.451  0.7484  0.1497 -0.5116
27991SOL    HW196032   7.310   1.248   7.542  3.4062  1.2350 -1.3465
27991SOL    HW296033   7.385   1.178   7.414 -0.2140  0.3824 -3.0873
27992SOL     OW96034   0.678   8.484   0.498  0.2483  0.1651 -0.1956
27992SOL    HW196035   0.680   8.555   0.568 -1.3659  1.1428 -1.1154
27992SOL    HW296036   0.613   8.509   0.427  0.5384 -1.6820 -1.1437
27993SOL     OW96037   8.609   3.468   0.417 -0.0507 -0.1212  0.2461
27993SOL    HW196038   8.642   3.560   0.394  1.8468 -1.1774 -1.5453
27993SOL    HW296039   8.612   3.455   0.516  3.9690  0.2699  0.2577
27994SOL     OW96040   4.108   1.176   4.147  0.0762  0.4781 -0.1022
27994SOL    HW196041   4.158   1.263   4.140  0.0731  0.6064  1.3799
27994SOL    HW296042   4.012   1.195   4.169  0.2750  0.0589  1.1187
27995SOL     OW96043   4.304   8.895   5.362 -0.0339  0.2092  0.9266
27995SOL    HW196044   4.231   8.947   5.406 -0.7154  0.0189  0.0356
27995SOL    HW296045   4.295   8.798   5.386 -0.8440 -0.0048 -0.1934
27996SOL     OW96046   9.370   6.709   7.506  0.4440 -0.1823 -0.1419
27996SOL    HW196047   9.356   6.612   7.489 -0.1230 -0.1851  0.2991
27996SOL    HW296048   9.464   6.726   7.535  0.6380 -0.5499 -0.5749
27997SOL     OW96049   0.493   6.452   2.732  0.0060 -0.1977  0.4641
27997SOL    HW196050   0.503   6.403   2.819  0.0058  0.4035  0.8023
27997SOL    HW296051   0.555   6.413   2.664 -1.0759 -1.6682  0.2984
27998SOL     OW96052   3.771   8.239   6.619  0.4815 -0.3152 -0.4463
27998SOL    HW196053   3.843   8.285   6.671  0.6012  1.4346 -2.0844
27998SOL    HW296054   3.795   8.143   6.606  1.0225 -0.4800  1.6501
27999SOL     OW96055   5.890   5.056   7.644  0.1266  0.3354  0.0049
27999SOL    HW196056   5.906   4.960   7.668  0.1747  0.0513 -1.0932
27999SOL    HW296057   5.793   5.070   7.627  0.2352  0.2663 -0.6942
28000SOL     OW96058   2.572   9.140   6.622  0.0923  0.1422  0.2151
28000SOL    HW196059   2.540   9.177   6.710 -0.6832 -0.0384  0.0184
28000SOL    HW296060   2.582   9.214   6.556  0.2447  0.2220  0.3294
28001SOL     OW96061   3.168   7.161   3.450  0.5474  0.1600 -0.4621
28001SOL    HW196062   3.247   7.148   3.510 -0.2081 -1.1322  0.3002
28001SOL    HW296063   3.169   7.091   3.379 -0.7950 -0.9233  0.5578
28002SOL     OW96064   0.547   0.732   2.628 -0.0655  0.7694  0.5091
28002SOL    HW196065   0.449   0.740   2.647 -0.1348  0.1206  0.4358
28002SOL    HW296066   0.584   0.656   2.681  0.3703  0.9339  0.4349
28003SOL     OW96067   6.803   7.701   5.239 -0.2611  0.3255  0.1234
28003SOL    HW196068   6.868   7.766   5.278 -1.4569  0.5594  1.7793
28003SOL    HW296069   6.792   7.624   5.302  0.6604 -1.2043 -1.5224
28004SOL     OW96070   1.434   7.107   1.382  0.5020  0.1835  0.2527
28004SOL    HW196071   1.505   7.040   1.405  0.2274 -0.2382 -0.1286
28004SOL    HW296072   1.477   7.196   1.370  0.8517  0.1115  0.8991
28005SOL     OW96073   9.193   6.279   1.111 -0.1883  0.4279  0.3446
28005SOL    HW196074   9.144   6.366   1.116 -0.7075  0.1684 -0.2570
28005SOL    HW296075   9.273   6.289   1.052 -1.1165  0.0821 -0.9922
28006SOL     OW96076   6.293   8.890   6.710 -0.1598  0.1397 -0.3756
28006SOL    HW196077   6.392   8.899   6.705 -0.3898  2.2255 -1.6445
28006SOL    HW296078   6.261   8.922   6.799  0.2298  0.1745 -0.2482
28007SOL     OW96079   9.696   7.052   6.302  0.0430 -0.1887 -0.0058
28007SOL    HW196080   9.663   7.142   6.331  0.1759 -0.0723 -0.2099
28007SOL    HW296081   9.752   7.012   6.375 -1.2996 -0.7939  0.7106
28008SOL     OW96082   6.856   0.605   3.826  0.2178 -0.6691 -0.1442
28008SOL    HW196083   6.869   0.638   3.732 -1.4334 -0.5288 -0.3364
28008SOL    HW296084   6.889   0.674   3.890 -0.7786  0.2346 -0.5922
28009SOL     OW96085   8.291   1.739   8.705 -0.7735  0.2825  0.0749
28009SOL    HW196086   8.262   1.738   8.610 -2.1448  0.4392  0.4792
28009SOL    HW296087   8.325   1.649   8.732 -1.8829 -0.1961 -0.1160
28010SOL     OW96088   6.327   7.785   3.795  0.8429  0.3914 -0.5205
28010SOL    HW196089   6.250   7.723   3.805  1.6297 -0.4523  0.4098
28010SOL    HW296090   6.331   7.819   3.701 -0.0566 -0.3408 -0.8278
28011SOL     OW96091   1.003   1.974   2.736  0.3660 -0.2508 -0.1111
28011SOL    HW196092   0.949   1.916   2.797 -0.7080  0.1959 -0.6284
28011SOL    HW296093   0.994   2.070   2.764  0.6347 -0.1414 -0.3944
28012SOL     OW96094   9.183   1.666   5.441 -0.1213  0.6052 -0.2688
28012SOL    HW196095   9.133   1.704   5.363  0.4301  0.5600 -0.6465
28012SOL    HW296096   9.136   1.586   5.476 -1.4438  1.7748  0.6915
28013SOL     OW96097   0.009   3.826   1.283  0.0409 -0.4113  0.0489
28013SOL    HW196098   0.060   3.751   1.241  0.0798  0.9037 -2.3747
28013SOL    HW296099  -0.083   3.795   1.306 -0.5805 -0.7851 -2.6850
28014SOL     OW96100   9.376   1.004   1.026  0.5090  0.0392 -0.1224
28014SOL    HW196101   9.381   1.088   0.972 -1.7011 -0.8140 -1.7362
28014SOL    HW296102   9.296   1.009   1.086  1.9273  0.2078  1.8010
28015SOL     OW96103   4.167   5.219   9.040 -0.2080 -0.1779 -0.0787
28015SOL    HW196104   4.154   5.132   9.086 -0.8969  0.8436  1.7016
28015SOL    HW296105   4.264   5.236   9.026 -0.1031 -1.5561 -1.0899
28016SOL     OW96106   0.816   7.517   0.002  0.0187 -0.0232  0.1489
28016SOL    HW196107   0.880   7.545   0.073 -0.7183  1.4235  0.2789
28016SOL    HW296108   0.816   7.585  -0.071 -0.6715 -0.4949 -0.2962
28017SOL     OW96109   2.266   5.539   5.821  0.2091  0.0790  0.2586
28017SOL    HW196110   2.313   5.456   5.791 -0.3214 -0.3196  0.5201
28017SOL    HW296111   2.289   5.615   5.760 -0.8976 -0.7313 -1.1876
28018SOL     OW96112   3.291   6.183   1.843  0.2665  0.0630  0.0296
28018SOL    HW196113   3.319   6.279   1.839  0.8670 -0.0877  0.4709
28018SOL    HW296114   3.333   6.133   1.768 -3.0524  0.8835 -2.4624
28019SOL     OW96115   8.256   8.458   3.770  0.1296  0.0077  0.0139
28019SOL    HW196116   8.218   8.519   3.839 -0.5980 -0.2955 -0.1053
28019SOL    HW296117   8.213   8.476   3.682  1.5096  0.8220 -0.5083
28020SOL     OW96118   6.256   4.674   2.585 -0.0479 -0.4713  0.0806
28020SOL    HW196119   6.335   4.734   2.570 -0.0560 -0.5044 -0.0917
28020SOL    HW296120   6.173   4.719   2.551 -0.3648  0.2908  1.7834
28021SOL     OW96121   3.203   1.291   0.606  0.4412  0.2324 -0.1637
28021SOL    HW196122   3.207   1.250   0.698  2.2211 -0.2923 -0.4558
28021SOL    HW296123   3.292   1.328   0.583  0.7246 -1.9042 -2.7093
28022SOL     OW96124   9.277   7.866   8.910 -0.4962 -0.0757  0.3851
28022SOL    HW196125   9.259   7.773   8.880 -0.6544 -0.0681  0.4587
28022SOL    HW296126   9.229   7.931   8.850 -0.3266 -0.0383  0.2892
28023SOL     OW96127   0.645   9.219   5.719  0.0451 -0.0970 -0.2154
28023SOL    HW196128   0.639   9.243   5.622  0.3053 -1.9002 -0.6929
28023SOL    HW296129   0.740   9.203   5.745  0.0364  0.9137  0.4862
28024SOL     OW96130   7.260   8.997   6.918  0.2805 -0.2109 -0.5895
28024SOL    HW196131   7.192   8.925   6.930 -0.5941  0.9598  1.8748
28024SOL    HW296132   7.326   8.970   6.848 -0.1456 -3.2835  0.1264
28025SOL     OW96133   0.382   4.847   2.594 -0.2379  0.4234  0.0242
28025SOL    HW196134   0.408   4.789   2.517 -1.1690  1.4767 -1.0831
28025SOL    HW296135   0.352   4.789   2.670  1.2835 -0.6467 -0.1544
28026SOL     OW96136   5.622   8.110   5.110 -0.0781  0.2149  0.0116
28026SOL    HW196137   5.657   8.133   5.019  1.2734  0.4799  0.5844
28026SOL    HW296138   5.529   8.143   5.119  0.2558  1.4077 -0.8134
28027SOL     OW96139   8.713   9.337   0.381 -0.0785 -0.4867 -0.0570
28027SOL    HW196140   8.795   9.386   0.353 -0.2154 -0.2307 -0.0151
28027SOL    HW296141   8.640   9.403   0.400  0.3945 -0.5595  2.1452
28028SOL     OW96142   3.671   2.826   7.582 -0.2851  0.0698 -0.3232
28028SOL    HW196143   3.634   2.875   7.661 -0.2487  0.4569 -0.5465
28028SOL    HW296144   3.607   2.754   7.555  0.1342 -0.6647  0.6323
28029SOL     OW96145   5.028   4.733   8.602  0.3863 -0.1372 -0.5713
28029SOL    HW196146   4.981   4.751   8.515 -0.1390  0.5082 -0.1584
28029SOL    HW296147   5.102   4.799   8.614 -1.6082  1.8840  0.9981
28030SOL     OW96148   9.969   7.589   1.169 -0.3050 -0.0476  0.3035
28030SOL    HW196149   9.970   7.529   1.089  1.8089 -0.2664  0.4644
28030SOL    HW296150  10.014   7.675   1.147 -1.6105  0.7275  0.6426
28031SOL     OW96151   8.891   8.438   3.210  0.2599 -0.2554  0.4647
28031SOL    HW196152   8.821   8.367   3.203  1.8340 -1.8216  0.1262
28031SOL    HW296153   8.920   8.464   3.118 -0.2744  0.7961  0.5916
28032SOL     OW96154   6.285   7.260   6.331  0.1038 -0.3886  0.0967
28032SOL    HW196155   6.341   7.339   6.309 -0.2562  0.0329  0.6815
28032SOL    HW296156   6.344   7.182   6.353  0.4567 -0.2846 -0.4739
28033SOL     OW96157   2.594   0.060   4.892  0.3962 -0.0312  0.0392
28033SOL    HW196158   2.693   0.072   4.881  0.0619  2.1518 -0.7774
28033SOL    HW296159   2.546   0.142   4.859 -1.5588 -0.0841  2.5683
28034SOL     OW96160   9.504   7.843   3.542  0.5397  0.2543  0.2067
28034SOL    HW196161   9.513   7.939   3.514  0.4958  0.4530  0.8733
28034SOL    HW296162   9.591   7.811   3.579  0.9564 -0.3746 -1.2777
28035SOL     OW96163   3.860   0.022   9.302 -0.0306 -0.8515  0.0573
28035SOL    HW196164   3.788   0.088   9.323  0.6085 -0.2522  0.4010
28035SOL    HW296165   3.930   0.067   9.246  1.2025 -0.7892  1.6340
28036SOL     OW96166   1.940   2.037   4.150 -0.1183 -0.3316 -0.3552
28036SOL    HW196167   1.855   2.027   4.201 -1.0606 -0.8448 -1.9925
28036SOL    HW296168   1.919   2.058   4.055  1.6161  0.6532 -0.5419
28037SOL     OW96169   9.444   1.199   8.065  0.3321  0.2619 -0.1434
28037SOL    HW196170   9.373   1.246   8.117  1.2697  0.1775  1.2317
28037SOL    HW296171   9.491   1.265   8.006 -0.5507  0.4084 -0.6963
28038SOL     OW96172   0.096   1.863   1.386 -0.2466 -0.2640  0.2752
28038SOL    HW196173   0.158   1.798   1.429 -0.1052  1.0295  2.0985
28038SOL    HW296174   0.003   1.825   1.383 -0.1277 -0.6298  1.1592
28039SOL     OW96175   2.884   0.694   8.681 -0.4149 -0.2729 -0.1747
28039SOL    HW196176   2.963   0.712   8.740 -1.3307  0.4806  0.8335
28039SOL    HW296177   2.832   0.616   8.717 -0.7162 -0.1075 -0.2512
28040SOL     OW96178   0.585   7.226   8.004 -0.4370 -0.8220 -0.3383
28040SOL    HW196179   0.523   7.257   8.076 -1.0553 -0.8924 -0.8445
28040SOL    HW296180   0.658   7.171   8.045  1.2219  2.0384  0.7028
28041SOL     OW96181   7.497   2.992   3.477  0.3452 -0.8190  0.1260
28041SOL    HW196182   7.425   2.923   3.488 -0.6564  0.1787  0.0112
28041SOL    HW296183   7.476   3.070   3.536  1.3381 -0.5169  0.0785
28042SOL     OW96184   8.577   4.158   9.126  0.0408  0.5071 -0.1911
28042SOL    HW196185   8.657   4.103   9.147  0.8192  1.5894 -0.2627
28042SOL    HW296186   8.532   4.187   9.211 -2.5735 -3.3240 -0.1411
28043SOL     OW96187   6.415   8.031   7.469  0.4271 -0.0195 -0.2924
28043SOL    HW196188   6.484   8.037   7.397  1.0962 -1.3437  0.2196
28043SOL    HW296189   6.451   7.979   7.546 -1.4160 -1.4014 -0.3287
28044SOL     OW96190   4.643   1.303   6.291  0.2356 -0.0348 -0.3181
28044SOL    HW196191   4.610   1.227   6.347 -1.4466  0.3079 -0.7976
28044SOL    HW296192   4.612   1.389   6.332  0.5222  0.3012 -0.8050
28045SOL     OW96193   7.006   6.097   6.317 -0.7653 -0.4095  0.1589
28045SOL    HW196194   7.029   6.115   6.413  3.2821  0.9299 -0.9600
28045SOL    HW296195   7.020   6.000   6.296  0.4475 -0.3056  0.4341
28046SOL     OW96196   4.844   2.032   9.688  0.2217 -0.1927 -0.1233
28046SOL    HW196197   4.834   2.109   9.626  1.3069 -2.0380 -2.6808
28046SOL    HW296198   4.761   2.021   9.742 -0.3150  2.1276 -0.4330
28047SOL     OW96199   1.081   1.376   6.248 -0.3088  0.0904  0.2944
28047SOL    HW196200   1.021   1.436   6.195  0.1884  0.6651  0.3647
28047SOL    HW296201   1.177   1.400   6.229 -0.0718 -1.8402 -0.9962
28048SOL     OW96202   4.083   1.703   0.166  0.2085  0.0875 -0.0790
28048SOL    HW196203   4.073   1.637   0.091  0.3515  0.4626 -0.4326
28048SOL    HW296204   4.045   1.791   0.138  0.7773  0.3856  0.0793
28049SOL     OW96205   7.752   0.769   5.641 -0.2605 -0.2810  0.2014
28049SOL    HW196206   7.817   0.843   5.622  0.0501 -0.1236  1.7946
28049SOL    HW296207   7.660   0.797   5.612  0.0817  0.1787 -0.4609
28050SOL     OW96208   5.602   8.916   9.345  0.4770  0.7311 -0.2772
28050SOL    HW196209   5.542   8.873   9.277  1.0285  1.5813 -1.3098
28050SOL    HW296210   5.673   8.968   9.298  0.3073  2.0935  0.9563
28051SOL     OW96211   3.129   3.531   9.819  0.0671  0.0690  0.2034
28051SOL    HW196212   3.113   3.511   9.916  1.7865  2.0089  0.9267
28051SOL    HW296213   3.134   3.630   9.806 -0.0436 -0.1762 -1.8705
28052SOL     OW96214   9.534   7.470   8.260  0.2835 -0.3162 -0.8725
28052SOL    HW196215   9.590   7.422   8.193  0.5908  1.6499 -2.0587
28052SOL    HW296216   9.482   7.543   8.215 -0.8031 -0.0528  0.7411
28053SOL     OW96217   1.754   3.668   2.605 -0.0715  0.1424  0.5455
28053SOL    HW196218   1.673   3.636   2.654 -0.1126  0.3294  0.6024
28053SOL    HW296219   1.747   3.645   2.508 -0.7494  1.2059  0.3303
28054SOL     OW96220   3.818   3.313   0.303 -0.1204  0.0426 -0.3448
28054SOL    HW196221   3.760   3.232   0.294 -0.4674  0.4334 -1.8233
28054SOL    HW296222   3.913   3.284   0.316 -0.6261 -0.5961  2.0637
28055SOL     OW96223   5.953   3.284   9.942 -0.3324 -0.0235  0.2066
28055SOL    HW196224   6.007   3.204   9.916  0.4436  0.2268  1.0345
28055SOL    HW296225   5.856   3.260   9.941  0.0164 -1.9698  3.7446
28056SOL     OW96226   5.823   9.740   3.928 -0.6962 -0.2003 -0.5728
28056SOL    HW196227   5.896   9.672   3.939 -1.1230 -0.5730  0.0463
28056SOL    HW296228   5.863   9.829   3.906  0.0836  0.0086  1.5405
28057SOL     OW96229   3.489   9.114   2.886 -0.0090 -0.2203 -0.1253
28057SOL    HW196230   3.435   9.148   2.962  0.1534  0.6127 -0.3762
28057SOL    HW296231   3.428   9.074   2.817 -0.3807  1.5346 -0.8196
28058SOL     OW96232   2.513   8.876   8.402  0.5528 -0.4956  0.4762
28058SOL    HW196233   2.500   8.807   8.473  0.0208 -1.0395 -0.1471
28058SOL    HW296234   2.585   8.939   8.430  0.6052 -0.9262  1.3331
28059SOL     OW96235   0.317   0.118   9.220 -0.1725 -0.0415  0.1630
28059SOL    HW196236   0.315   0.018   9.213  0.6831 -0.0403 -0.2472
28059SOL    HW296237   0.224   0.153   9.230 -0.2766 -1.0537  3.1811
28060SOL     OW96238   9.846   3.395   6.355 -0.2423 -0.6437 -0.7142
28060SOL    HW196239   9.813   3.387   6.261  0.5937 -0.0092 -1.0705
28060SOL    HW296240   9.824   3.486   6.390  1.2782 -0.1260 -1.0375
28061SOL     OW96241   7.505   3.392   0.224  0.7110 -0.2198 -0.1158
28061SOL    HW196242   7.562   3.472   0.243  0.2282  0.6228 -2.1332
28061SOL    HW296243   7.451   3.370   0.305  1.6495  0.8173  0.8199
28062SOL     OW96244   3.433   9.660   1.126  0.1992 -0.0976 -0.0212
28062SOL    HW196245   3.350   9.635   1.176 -0.1658  0.2988 -0.4199
28062SOL    HW296246   3.407   9.705   1.040  0.8303  0.2011 -0.0540
28063SOL     OW96247   6.209   0.019   8.089  0.1444 -0.0744 -0.3368
28063SOL    HW196248   6.158   0.020   8.176 -0.8457  0.0507 -0.9079
28063SOL    HW296249   6.271   0.098   8.086  0.2293 -0.1131  0.2821
28064SOL     OW96250   2.074   4.876   9.500  0.7940 -0.2463  0.2546
28064SOL    HW196251   2.104   4.944   9.432 -0.8805 -0.5660 -0.8155
28064SOL    HW296252   2.019   4.806   9.455  0.1705 -0.7955  1.8465
28065SOL     OW96253   0.603   0.769   0.269  0.2802  0.0848 -0.3663
28065SOL    HW196254   0.601   0.670   0.276 -0.7637  0.0427 -1.2294
28065SOL    HW296255   0.558   0.809   0.350  1.9851 -0.0956  0.7025
28066SOL     OW96256   1.924   7.488   1.834 -0.6111  0.2582  0.6136
28066SOL    HW196257   1.948   7.582   1.806 -0.7052  0.1251  0.0657
28066SOL    HW296258   2.006   7.439   1.861  0.0365 -0.7346 -2.8967
28067SOL     OW96259   0.780   9.666   8.144 -1.0224 -0.2443  0.2021
28067SOL    HW196260   0.838   9.587   8.158 -0.3057  0.7430  2.9945
28067SOL    HW296261   0.836   9.744   8.114 -1.0421  0.4198  1.8626
28068SOL     OW96262   5.848   5.045   0.033  0.2181  0.6449  0.1380
28068SOL    HW196263   5.800   5.117  -0.016  0.6380  1.8798  1.4900
28068SOL    HW296264   5.862   5.073   0.129  0.5319 -1.1569  0.6407
28069SOL     OW96265   9.377   7.640   6.203 -0.2944  0.2326 -0.4421
28069SOL    HW196266   9.449   7.579   6.235  1.6918  1.1469 -2.9936
28069SOL    HW296267   9.311   7.589   6.148  0.0370 -0.0502 -0.5731
28070SOL     OW96268   1.471   2.705   1.946  0.0331  0.3807  0.1968
28070SOL    HW196269   1.482   2.648   1.864  0.1969 -0.3621  0.7264
28070SOL    HW296270   1.459   2.646   2.026  1.3034  1.0799  0.9169
28071SOL     OW96271   5.314   6.000   1.792 -0.1973 -0.2199  0.6293
28071SOL    HW196272   5.219   6.012   1.763  0.2231  0.5650 -0.4652
28071SOL    HW296273   5.358   6.090   1.800  0.6551 -0.6179  0.4537
28072SOL     OW96274   1.282   4.275   7.801 -0.9209 -0.4393 -0.2813
28072SOL    HW196275   1.357   4.218   7.834 -1.2176 -1.0613 -0.6701
28072SOL    HW296276   1.306   4.372   7.813  0.1015 -0.6270 -0.7451
28073SOL     OW96277   9.692   8.066   3.521 -0.1315  0.0532  0.0806
28073SOL    HW196278   9.752   8.131   3.474  0.3652 -1.6649 -1.7089
28073SOL    HW296279   9.746   8.011   3.584 -0.3746  0.6403  0.8089
28074SOL     OW96280   6.781   5.282   2.506 -0.1599  0.3790  0.3106
28074SOL    HW196281   6.769   5.368   2.456  3.5866  0.3644 -0.7663
28074SOL    HW296282   6.750   5.206   2.450 -1.0582  0.8198  0.2076
28075SOL     OW96283   5.246   7.132   5.875 -0.1069 -0.1800 -0.0072
28075SOL    HW196284   5.294   7.081   5.803 -1.0312 -2.4634  0.9211
28075SOL    HW296285   5.285   7.223   5.884  2.7010 -1.2680 -0.6503
28076SOL     OW96286   3.739   1.551   3.975  0.1271 -0.0914 -0.0194
28076SOL    HW196287   3.816   1.614   3.979 -0.0171  0.0213  0.9754
28076SOL    HW296288   3.705   1.546   3.881  0.8365  0.4639 -0.3087
28077SOL     OW96289   1.507   0.730   3.322 -0.0608 -0.0158  0.1011
28077SOL    HW196290   1.418   0.766   3.292 -1.5019 -2.8841  0.7484
28077SOL    HW296291   1.514   0.738   3.422  1.5902  2.6720 -0.1841
28078SOL     OW96292   2.279   7.119   2.521  0.5572 -0.1131  0.0580
28078SOL    HW196293   2.234   7.044   2.471  0.8814  0.7185 -1.5129
28078SOL    HW296294   2.237   7.206   2.496  0.0241  0.2298  2.0643
28079SOL     OW96295   1.806   0.737   4.612  1.2141  0.5236 -0.2655
28079SOL    HW196296   1.734   0.804   4.624  1.6772  0.9830 -0.0462
28079SOL    HW296297   1.884   0.780   4.566  1.4030  0.0682 -0.3725
28080SOL     OW96298   1.241   4.606   1.481 -0.4090  0.2947 -0.0007
28080SOL    HW196299   1.310   4.675   1.505  1.5415 -1.9448  1.0517
28080SOL    HW296300   1.220   4.612   1.383  1.9312  0.4504 -0.5142
28081SOL     OW96301   9.323   3.976   6.286 -0.1891  0.7238 -0.0536
28081SOL    HW196302   9.296   4.068   6.314 -1.6642 -0.2970  1.9226
28081SOL    HW296303   9.274   3.908   6.340  0.7706 -1.2529 -1.5944
28082SOL     OW96304   5.188   1.279   5.827  0.0189  0.2770  0.3549
28082SOL    HW196305   5.211   1.322   5.914 -1.5044  2.7056 -0.3950
28082SOL    HW296306   5.092   1.252   5.827 -0.3317  1.4753 -1.0289
28083SOL     OW96307   2.716   3.791   7.394  0.4359  0.2450  0.2380
28083SOL    HW196308   2.635   3.849   7.394 -0.3445 -0.8092 -0.2978
28083SOL    HW296309   2.689   3.697   7.417  1.8624  0.3319  2.4342
28084SOL     OW96310   4.723   6.073   0.454 -0.0820  0.4014 -0.3581
28084SOL    HW196311   4.780   6.089   0.535  1.1519  1.4199 -1.4122
28084SOL    HW296312   4.691   5.978   0.454 -1.0604  0.6748  1.9141
28085SOL     OW96313   5.341   9.778   2.348 -0.2203  0.4589 -0.5239
28085SOL    HW196314   5.436   9.800   2.368 -0.6487  1.5643  0.3569
28085SOL    HW296315   5.284   9.859   2.364 -1.6291 -0.8541  1.3131
28086SOL     OW96316   4.072   8.533   6.124 -0.1096  0.0442  0.3657
28086SOL    HW196317   4.108   8.519   6.217  0.9950 -0.6852 -0.1517
28086SOL    HW296318   4.040   8.627   6.114 -0.1745  0.1442  1.4684
28087SOL     OW96319   5.065   2.500   5.259  0.1266 -0.5177  0.4594
28087SOL    HW196320   5.085   2.416   5.209  2.4440 -0.0086  0.4640
28087SOL    HW296321   5.044   2.573   5.194 -0.4031 -0.7178  0.3995
28088SOL     OW96322   1.415   0.811   1.657 -0.0833 -0.9027  0.1083
28088SOL    HW196323   1.444   0.813   1.561 -1.0102 -0.9340 -0.1743
28088SOL    HW296324   1.475   0.750   1.709  1.4839  0.3992 -0.1003
28089SOL     OW96325   0.777   0.600   1.416  0.4032  0.2021  0.1802
28089SOL    HW196326   0.876   0.585   1.410  0.5360  0.4131  1.6701
28089SOL    HW296327   0.734   0.519   1.455  0.1089  0.5408  0.5550
28090SOL     OW96328   4.570   6.486   3.153  0.0804 -0.3965 -0.2303
28090SOL    HW196329   4.538   6.401   3.112 -0.2657  0.5562 -2.0171
28090SOL    HW296330   4.494   6.551   3.160  0.4613 -0.0327  0.5592
28091SOL     OW96331   2.022   8.613   3.898 -0.5881 -0.0632  0.5976
28091SOL    HW196332   1.923   8.622   3.913  0.0612  2.9499  3.6190
28091SOL    HW296333   2.058   8.699   3.864  1.5217 -0.1448  2.5868
28092SOL     OW96334   9.677   1.615   4.659  0.7073  0.1907  0.4574
28092SOL    HW196335   9.648   1.544   4.723 -1.5999 -0.6399 -1.4316
28092SOL    HW296336   9.709   1.573   4.574 -1.9068  1.3540 -1.1871
28093SOL     OW96337   7.448   6.572   4.418  0.3753 -0.5020 -0.0657
28093SOL    HW196338   7.469   6.484   4.461 -0.2627 -0.7641 -0.2818
28093SOL    HW296339   7.517   6.592   4.348 -0.8071 -2.0126 -1.7189
28094SOL     OW96340   4.031   3.567   6.894 -0.1277  0.2423  0.5384
28094SOL    HW196341   4.041   3.620   6.978 -1.5303  0.1653  0.7609
28094SOL    HW296342   3.991   3.478   6.915  0.9772 -0.3972 -0.0093
28095SOL     OW96343   5.989   0.263   7.008  0.0194 -0.1328  0.5545
28095SOL    HW196344   5.937   0.266   6.923  1.3691  0.4641 -0.2740
28095SOL    HW296345   5.944   0.202   7.073 -0.8757 -0.8095 -0.6850
28096SOL     OW96346   7.232   6.319   0.358  0.5634 -0.0744 -0.5435
28096SOL    HW196347   7.262   6.380   0.285  0.2340 -0.4700 -1.0144
28096SOL    HW296348   7.215   6.372   0.441  1.7947  0.2625 -0.4888
28097SOL     OW96349   9.364   6.359   3.611 -0.5701  0.0582  0.2266
28097SOL    HW196350   9.268   6.369   3.639 -1.0530 -0.1497 -1.3030
28097SOL    HW296351   9.373   6.276   3.556 -0.1599  1.7504 -2.3521
28098SOL     OW96352   1.077   8.580   6.650  0.3001 -1.1282  0.3682
28098SOL    HW196353   1.110   8.674   6.648 -0.1795 -0.9504  0.6562
28098SOL    HW296354   0.977   8.580   6.656  0.1149 -1.6637 -2.1130
28099SOL     OW96355   2.928   1.575   5.776 -0.2087 -0.3493 -0.1300
28099SOL    HW196356   2.882   1.574   5.688 -0.5356  0.0046  0.0303
28099SOL    HW296357   2.863   1.548   5.848 -0.2435  0.3975  0.1297
28100SOL     OW96358   0.151   8.803   8.441  0.3474  0.4025  0.7741
28100SOL    HW196359   0.243   8.827   8.469  0.4447  0.5322  0.3449
28100SOL    HW296360   0.089   8.880   8.456  0.4438  0.5489  0.4160
28101SOL     OW96361   3.110   5.024   1.884 -0.0939  0.1961  0.3266
28101SOL    HW196362   3.059   5.019   1.970  1.9401 -1.2872  1.4667
28101SOL    HW296363   3.061   4.973   1.813 -1.5278  1.0105  0.7097
28102SOL     OW96364   2.920   8.993   2.098  0.1821 -0.0434  0.4916
28102SOL    HW196365   2.838   8.951   2.136 -0.2734 -0.1264 -0.5551
28102SOL    HW296366   2.986   9.011   2.171 -0.4554 -0.6822  1.2286
28103SOL     OW96367   9.317   5.584   7.107  0.3361 -0.0862  0.1758
28103SOL    HW196368   9.379   5.609   7.181  0.9529  2.2238 -1.0757
28103SOL    HW296369   9.341   5.493   7.073  2.6924  0.5189  0.1058
28104SOL     OW96370   3.552   1.705   5.504  0.7727  0.0665 -0.4487
28104SOL    HW196371   3.454   1.712   5.521  0.6058  1.6583 -1.9282
28104SOL    HW296372   3.601   1.706   5.591 -0.3659  2.3420  0.2185
28105SOL     OW96373   1.611   4.375   3.983  0.1092 -0.4263 -0.0155
28105SOL    HW196374   1.594   4.279   3.960 -0.2850 -0.1071 -1.0760
28105SOL    HW296375   1.654   4.421   3.906 -2.1931  0.9114 -0.5500
28106SOL     OW96376   1.075   3.490   8.368  0.2631  0.0640 -0.4204
28106SOL    HW196377   1.155   3.539   8.402  0.1696 -0.1742  0.1596
28106SOL    HW296378   0.992   3.540   8.393  0.1669 -0.3812  0.1753
28107SOL     OW96379   2.059   5.009   6.797  0.2900 -0.4512 -0.3375
28107SOL    HW196380   2.136   4.946   6.784  1.0668  0.0860  1.5567
28107SOL    HW296381   2.005   4.979   6.876  0.3460  0.9551  0.2335
28108SOL     OW96382   9.754   3.998   2.190  0.7223 -0.0482 -0.0724
28108SOL    HW196383   9.784   3.974   2.282 -0.5762 -0.3815  0.2759
28108SOL    HW296384   9.761   3.919   2.130 -0.9279 -0.5594  0.3943
28109SOL     OW96385   7.125   0.154   3.303 -0.1791 -0.1400  0.2387
28109SOL    HW196386   7.172   0.124   3.385  0.5912  1.3547  0.3701
28109SOL    HW296387   7.035   0.112   3.298  0.0360 -0.7589  1.4996
28110SOL     OW96388   4.931   4.054   0.006  0.1827 -0.2437  0.0127
28110SOL    HW196389   4.899   3.986   0.073 -0.5258  1.8995  1.9290
28110SOL    HW296390   4.932   4.144   0.049  0.0558  1.1516 -2.8139
28111SOL     OW96391   1.746   5.279   9.407  0.2926 -0.6116  0.4863
28111SOL    HW196392   1.689   5.354   9.442 -0.1825 -0.4789 -0.5493
28111SOL    HW296393   1.842   5.300   9.423  0.2031  0.5409 -0.3974
28112SOL     OW96394   8.732   3.821   2.462 -0.0485 -0.3356  0.7731
28112SOL    HW196395   8.784   3.899   2.498 -1.6354  1.5140 -0.8510
28112SOL    HW296396   8.779   3.785   2.381  0.4813 -0.8121  1.2930
28113SOL     OW96397   4.317   9.612   3.541  0.3617  0.4097 -0.2324
28113SOL    HW196398   4.260   9.682   3.497 -1.2373 -0.2000  0.8223
28113SOL    HW296399   4.363   9.557   3.471 -0.2509  0.9895 -1.0929
28114SOL     OW96400   7.300   6.882   5.434  0.6914  0.1195 -0.4619
28114SOL    HW196401   7.212   6.920   5.462  1.0778  0.7947 -0.1502
28114SOL    HW296402   7.285   6.802   5.375 -0.1224  0.4854 -0.7562
28115SOL     OW96403   0.484   5.637   4.116  0.1921 -0.1814  0.0166
28115SOL    HW196404   0.526   5.678   4.196 -1.5522  0.0087  0.8675
28115SOL    HW296405   0.397   5.684   4.096 -0.3499 -1.4877 -0.8048
28116SOL     OW96406   9.077   7.794   6.080  0.1035 -0.1700 -0.2668
28116SOL    HW196407   9.165   7.821   6.119  0.0031 -0.0188 -0.1455
28116SOL    HW296408   9.005   7.808   6.148 -0.4706  2.6430 -1.4243
28117SOL     OW96409   1.567   6.171   4.988  0.4534  0.2180 -0.4871
28117SOL    HW196410   1.662   6.201   4.978  0.3461  0.7476  0.0494
28117SOL    HW296411   1.558   6.115   5.070  0.3727 -0.1408 -0.7393
28118SOL     OW96412   5.817   1.522   6.430 -0.2259  0.3177 -0.7145
28118SOL    HW196413   5.806   1.430   6.394  1.0910  0.7018 -2.1623
28118SOL    HW296414   5.874   1.576   6.367  0.1028  1.7257  0.7542
28119SOL     OW96415   8.286   1.526   1.396 -0.1050 -0.4351 -0.0395
28119SOL    HW196416   8.275   1.507   1.493  0.7382 -0.1235  0.1226
28119SOL    HW296417   8.361   1.591   1.383 -0.5727 -0.0460 -0.8545
28120SOL     OW96418   9.970   5.671   4.825  0.0055  0.0419  0.4168
28120SOL    HW196419  10.013   5.590   4.786  0.5071  0.9845 -1.0204
28120SOL    HW296420   9.948   5.736   4.752 -0.6396  1.0882  1.5193
28121SOL     OW96421   4.703   7.775   5.314 -0.1033 -0.1621  0.1276
28121SOL    HW196422   4.661   7.698   5.364  1.1514 -1.9898 -1.5640
28121SOL    HW296423   4.802   7.775   5.331  0.1883 -0.1785 -1.4811
28122SOL     OW96424   7.554   8.586   5.270 -0.6970 -0.2533 -0.0128
28122SOL    HW196425   7.619   8.538   5.212 -0.6335  0.5660 -0.6309
28122SOL    HW296426   7.555   8.683   5.248 -1.9690 -0.2001  0.1233
28123SOL     OW96427   3.564   1.168   1.838 -0.2001 -0.2421  0.2943
28123SOL    HW196428   3.472   1.132   1.826  0.2309 -1.9536  1.9096
28123SOL    HW296429   3.588   1.225   1.759 -1.7166 -1.7368 -1.2834
28124SOL     OW96430   9.409   5.554   2.669 -0.2744 -0.3064 -0.4786
28124SOL    HW196431   9.442   5.471   2.623  2.8071  1.5314 -1.6698
28124SOL    HW296432   9.390   5.625   2.602  1.7305  1.5529  0.8633
28125SOL     OW96433   1.302   3.848   2.830 -0.3163 -0.3615 -0.1851
28125SOL    HW196434   1.355   3.926   2.864 -0.2990 -0.2640 -0.4356
28125SOL    HW296435   1.238   3.879   2.760  1.0317 -0.8619 -1.6744
28126SOL     OW96436   0.711   1.730   7.624 -0.1643 -0.1120 -0.3325
28126SOL    HW196437   0.612   1.738   7.632 -0.1931  0.3699 -1.1700
28126SOL    HW296438   0.741   1.645   7.668 -1.0522 -0.7312 -0.9192
28127SOL     OW96439   3.198   5.255   6.353 -0.1218  0.0141  0.4117
28127SOL    HW196440   3.251   5.239   6.436  0.4564  1.5032  0.3370
28127SOL    HW296441   3.220   5.345   6.315 -1.4531 -0.0411 -0.5547
28128SOL     OW96442   0.733   3.277   5.799 -0.4547 -0.0621 -0.5850
28128SOL    HW196443   0.823   3.295   5.840 -0.2438 -0.4665 -0.8669
28128SOL    HW296444   0.726   3.322   5.710 -1.1640  1.3806  0.1730
28129SOL     OW96445   8.450   6.340   2.363  0.1807 -0.1201 -0.2031
28129SOL    HW196446   8.521   6.291   2.313  1.3397  1.0723  0.2576
28129SOL    HW296447   8.455   6.438   2.341 -2.0649 -0.1554 -1.0697
28130SOL     OW96448   0.856   5.686   8.773  0.4700  0.4234  0.3421
28130SOL    HW196449   0.844   5.650   8.680 -1.7790 -3.2711  1.9366
28130SOL    HW296450   0.767   5.713   8.810  1.0262 -0.2165  2.2132
28131SOL     OW96451   1.656   9.538   7.398  0.0436 -0.6974 -0.1353
28131SOL    HW196452   1.753   9.514   7.403 -0.2882 -1.9991  0.2998
28131SOL    HW296453   1.634   9.603   7.471  0.5080 -0.6899 -0.0027
28132SOL     OW96454   8.628   6.402   3.794 -0.1050 -0.2514  0.2854
28132SOL    HW196455   8.558   6.333   3.812 -3.5312  2.2726 -2.5200
28132SOL    HW296456   8.689   6.368   3.722  0.3898 -1.7292  1.3869
28133SOL     OW96457   5.425   1.400   9.361 -0.4109 -0.1999 -0.1358
28133SOL    HW196458   5.461   1.323   9.412 -1.6176 -1.4587 -1.1483
28133SOL    HW296459   5.492   1.474   9.360  0.0156 -0.4946  2.4363
28134SOL     OW96460   2.207   0.189   6.812 -0.2948  0.3874 -0.0815
28134SOL    HW196461   2.172   0.266   6.864  1.2433  0.5503  0.7598
28134SOL    HW296462   2.185   0.200   6.715 -0.6653  1.5430  0.1400
28135SOL     OW96463   6.187   4.574   1.656  0.2365  0.0303 -0.0179
28135SOL    HW196464   6.145   4.652   1.609  1.8906  0.7929 -0.2809
28135SOL    HW296465   6.148   4.565   1.747 -0.4811  0.7200 -0.2474
28136SOL     OW96466   0.556   8.351   6.841 -0.1267 -0.4841 -0.0248
28136SOL    HW196467   0.649   8.375   6.813 -0.9340 -0.1741 -2.5519
28136SOL    HW296468   0.525   8.272   6.789 -1.1992 -0.7367  0.9764
28137SOL     OW96469   9.201   0.242   8.383  0.1881 -0.1947  0.0861
28137SOL    HW196470   9.239   0.168   8.437  0.2060  0.7877  1.4363
28137SOL    HW296471   9.105   0.222   8.361 -1.0173  1.1451  3.7956
28138SOL     OW96472   1.456   1.524   1.117 -0.3002 -1.0198 -0.4385
28138SOL    HW196473   1.458   1.474   1.203  0.7947  1.4710  1.0335
28138SOL    HW296474   1.546   1.520   1.074 -0.1226 -0.0970 -0.1676
28139SOL     OW96475   2.690   9.994   2.365  0.2289 -0.0233 -0.1936
28139SOL    HW196476   2.701   9.952   2.274  0.0758  0.3015 -0.3607
28139SOL    HW296477   2.740  10.080   2.368 -1.0804  0.7530 -0.4881
28140SOL     OW96478   9.919   8.217   7.091  0.3720 -0.2641 -0.4421
28140SOL    HW196479   9.935   8.315   7.085 -1.9668  0.2784  1.1632
28140SOL    HW296480   9.839   8.200   7.149  0.0763 -3.0674 -1.5730
28141SOL     OW96481   4.814   5.400   7.218  0.0255  0.3781 -0.0921
28141SOL    HW196482   4.858   5.479   7.260 -2.5346  2.2246 -0.7614
28141SOL    HW296483   4.751   5.358   7.283  0.2122 -0.1728 -0.2610
28142SOL     OW96484   3.549   7.833   5.220 -0.0973  0.6903 -0.2687
28142SOL    HW196485   3.570   7.824   5.123 -0.2250  2.1524 -0.4518
28142SOL    HW296486   3.560   7.929   5.248 -3.5511  0.9930  0.2996
28143SOL     OW96487   3.990   7.813   1.856 -0.2895  0.2145  0.2929
28143SOL    HW196488   3.961   7.718   1.862  0.3581 -0.0173 -0.2627
28143SOL    HW296489   3.920   7.866   1.808 -0.7432  0.0648  0.7834
28144SOL     OW96490   8.696   4.544   3.829 -0.5384  0.3960 -0.0145
28144SOL    HW196491   8.668   4.452   3.801 -0.0229  0.2777 -0.1495
28144SOL    HW296492   8.704   4.602   3.748  1.4176 -0.0735 -0.1696
28145SOL     OW96493   8.923   7.408   4.393 -0.0701 -0.0392  0.1663
28145SOL    HW196494   8.947   7.421   4.296 -0.4835 -1.0250 -0.0729
28145SOL    HW296495   8.954   7.317   4.422 -1.2726 -0.3265  0.5534
28146SOL     OW96496   1.101   0.599   0.852 -0.2320  0.1387  0.3751
28146SOL    HW196497   1.182   0.561   0.808  0.2123  0.8419  0.5693
28146SOL    HW296498   1.025   0.601   0.787  0.1417  0.2486 -0.0574
28147SOL     OW96499   6.828   5.683   2.617  0.1486 -0.2878 -0.0905
28147SOL    HW196500   6.908   5.644   2.661 -0.7442  0.1146  1.9357
28147SOL    HW296501   6.806   5.630   2.535  1.2051 -1.6877  0.5164
28148SOL     OW96502   8.858   3.431   1.720  0.1967  0.1765  0.2260
28148SOL    HW196503   8.891   3.382   1.639  0.5253 -0.4125  0.7112
28148SOL    HW296504   8.822   3.520   1.692  3.3028  1.3812 -0.2281
28149SOL     OW96505   2.842   8.437   2.799  0.0559  0.0080  0.0704
28149SOL    HW196506   2.905   8.406   2.727 -0.1004  0.1328 -0.1185
28149SOL    HW296507   2.783   8.361   2.826  0.6784 -0.2737  0.6572
28150SOL     OW96508   7.084   4.801   2.067  0.3815 -0.6288  0.3634
28150SOL    HW196509   7.129   4.887   2.044 -0.2507 -0.0993  1.0972
28150SOL    HW296510   7.084   4.788   2.166 -2.8404  0.3714  0.5470
28151SOL     OW96511   6.459   8.101   5.013 -0.5318 -0.4073 -0.4379
28151SOL    HW196512   6.440   8.061   5.103  0.7568  1.6246  0.7675
28151SOL    HW296513   6.518   8.039   4.961 -0.8791 -1.3585  0.2884
28152SOL     OW96514   8.673   0.493   1.969  0.2772 -0.0245  0.3939
28152SOL    HW196515   8.655   0.483   1.871  0.7385  0.8768  0.2235
28152SOL    HW296516   8.693   0.403   2.008  2.5257 -0.0580 -0.8096
28153SOL     OW96517   7.160   7.701   6.217  0.0667  0.5912  0.5167
28153SOL    HW196518   7.099   7.776   6.242  0.9961  1.7687 -0.7016
28153SOL    HW296519   7.187   7.710   6.122 -0.8616 -2.0583 -0.0244
28154SOL     OW96520   0.588   1.459   2.140 -0.2455  0.1595 -0.9069
28154SOL    HW196521   0.648   1.394   2.186 -1.0273  0.8562  1.1897
28154SOL    HW296522   0.507   1.411   2.106 -2.0541  0.3193  2.8624
28155SOL     OW96523   9.917   6.484   9.388 -0.0883  0.2549 -0.4312
28155SOL    HW196524   9.846   6.546   9.354 -1.1466 -0.5762  0.2471
28155SOL    HW296525   9.937   6.414   9.320 -0.5755 -0.0574 -0.2501
28156SOL     OW96526   2.121   4.626   5.725 -0.2157 -0.1447 -0.0197
28156SOL    HW196527   2.119   4.547   5.785  0.4042  0.6240  1.0137
28156SOL    HW296528   2.107   4.596   5.630  1.6418 -1.6751  0.1682
28157SOL     OW96529   0.640   5.767   6.967 -0.7366 -0.1635  0.5716
28157SOL    HW196530   0.738   5.750   6.980 -0.7563  0.1952  1.2178
28157SOL    HW296531   0.624   5.866   6.961 -1.2251 -0.1489  1.9080
28158SOL     OW96532   8.821   8.784   3.055 -0.1324 -0.3351 -0.0470
28158SOL    HW196533   8.787   8.729   2.979  0.9920 -1.8066  0.5013
28158SOL    HW296534   8.920   8.795   3.046 -0.0049 -0.4321  1.1528
28159SOL     OW96535   0.121   1.927   7.216 -0.2613 -0.2175  0.1125
28159SOL    HW196536   0.098   1.921   7.313 -0.4475  0.6885  0.1316
28159SOL    HW296537   0.039   1.952   7.164  0.1280  0.6242 -0.1111
28160SOL     OW96538   8.865   1.393   8.010  0.4274 -0.0069  0.0220
28160SOL    HW196539   8.938   1.387   7.942 -0.1499  2.7778 -0.9335
28160SOL    HW296540   8.777   1.402   7.964 -0.0417  1.3060  1.1300
28161SOL     OW96541   0.552   8.495   0.897  0.6280 -0.2858  0.0199
28161SOL    HW196542   0.582   8.552   0.973 -0.2185 -1.5247  1.3083
28161SOL    HW296543   0.480   8.543   0.846  2.0407  1.0477 -0.7416
28162SOL     OW96544   8.511   1.983   9.280  0.0285 -0.2875 -0.0639
28162SOL    HW196545   8.477   2.053   9.217 -0.8353  0.0053  0.7121
28162SOL    HW296546   8.591   2.018   9.328  0.5768 -0.4414 -0.8554
28163SOL     OW96547   4.955   8.812   2.349  0.2060  0.5318  0.1580
28163SOL    HW196548   4.909   8.816   2.437 -0.6418 -0.1069 -0.2481
28163SOL    HW296549   4.992   8.720   2.334 -0.6581  0.3041 -0.6455
28164SOL     OW96550   3.014   9.044   6.927  0.1987  0.3478  0.1978
28164SOL    HW196551   2.993   9.132   6.968  1.7610  0.9190 -0.1837
28164SOL    HW296552   2.949   9.024   6.854  2.1241  3.0421 -2.3831
28165SOL     OW96553   1.433   6.151  10.054  0.2669  0.3804  0.2993
28165SOL    HW196554   1.522   6.196  10.049  0.2915  0.6477  2.4303
28165SOL    HW296555   1.379   6.172   9.973  0.8913  2.9633  0.5209
28166SOL     OW96556   6.245   4.212   2.803 -0.4093 -0.2566  0.0139
28166SOL    HW196557   6.276   4.147   2.873  1.1199 -1.9626 -2.1798
28166SOL    HW296558   6.146   4.200   2.789 -0.6270 -0.2868  1.4603
28167SOL     OW96559   7.446   1.055   4.356  0.1798 -0.6309 -0.1818
28167SOL    HW196560   7.534   1.054   4.310 -0.3024  0.1933 -1.1296
28167SOL    HW296561   7.379   1.005   4.301 -0.0323 -0.9691  0.3749
28168SOL     OW96562   8.585   5.599   8.423  0.0436 -0.4621 -0.1436
28168SOL    HW196563   8.500   5.548   8.415  0.5117 -1.0078 -2.0573
28168SOL    HW296564   8.613   5.605   8.519 -2.2952  0.0025  0.5244
28169SOL     OW96565   2.191   9.121   1.548 -0.3487 -0.0185 -0.0132
28169SOL    HW196566   2.197   9.151   1.643  1.5608 -0.1766 -0.0614
28169SOL    HW296567   2.250   9.041   1.534  1.0911  1.3116 -1.8122
28170SOL     OW96568   3.334   1.120   9.875  0.3371  0.4271 -0.1204
28170SOL    HW196569   3.407   1.188   9.874  1.3747 -0.6493  0.1595
28170SOL    HW296570   3.246   1.164   9.857  1.1135  1.6732 -0.9168
28171SOL     OW96571   7.467   1.542   4.481  0.2462 -0.4373  0.1692
28171SOL    HW196572   7.532   1.598   4.532 -0.4857 -0.3667  1.0556
28171SOL    HW296573   7.379   1.542   4.529 -0.5181 -0.2231 -1.2122
28172SOL     OW96574   3.596   1.129   4.135 -0.3990 -0.4970  0.6259
28172SOL    HW196575   3.624   1.107   4.042 -0.9187 -0.3177  0.4217
28172SOL    HW296576   3.503   1.094   4.150 -0.8241  0.6097  0.6458
28173SOL     OW96577   9.362   4.502   3.015 -1.1360  0.0150 -0.0286
28173SOL    HW196578   9.358   4.465   3.108 -0.5199 -1.8343 -0.7241
28173SOL    HW296579   9.433   4.455   2.964 -0.9802  1.5357 -1.2280
28174SOL     OW96580   2.680   7.750   4.185  0.2487  0.3746  0.1229
28174SOL    HW196581   2.697   7.751   4.284  0.0730 -0.2192  0.1598
28174SOL    HW296582   2.721   7.831   4.144  1.6807 -0.1715  0.4552
28175SOL     OW96583   9.242   2.798   2.702  0.1661  0.6240 -0.3341
28175SOL    HW196584   9.184   2.741   2.643 -2.1530  1.6849  0.8584
28175SOL    HW296585   9.330   2.813   2.657  0.4962 -3.0653 -1.1218
28176SOL     OW96586   9.320   1.887   2.617 -0.7991  0.0424  0.4633
28176SOL    HW196587   9.336   1.803   2.670 -1.1898  0.6138  1.4963
28176SOL    HW296588   9.264   1.865   2.537 -1.2857 -0.6118  0.9753
28177SOL     OW96589   2.741   5.325   8.448  0.2505 -0.0721  0.3873
28177SOL    HW196590   2.687   5.347   8.530 -0.1564  0.2501  0.0350
28177SOL    HW296591   2.816   5.391   8.440  0.8133 -0.6396  0.9857
28178SOL     OW96592   7.792   1.279   6.496  0.0858 -0.8180 -0.3488
28178SOL    HW196593   7.804   1.203   6.433 -1.5974 -1.2562 -0.1768
28178SOL    HW296594   7.776   1.244   6.588  0.1735 -0.2439 -0.1148
28179SOL     OW96595   3.257   7.498   6.367 -0.2553  0.4203  0.2727
28179SOL    HW196596   3.192   7.568   6.335 -0.1964  0.7420  0.8442
28179SOL    HW296597   3.348   7.539   6.375 -0.2331  0.2943  0.6660
28180SOL     OW96598   3.433   4.292   8.488  0.1509 -0.6353 -0.0688
28180SOL    HW196599   3.517   4.270   8.536 -0.8280  1.7312  2.8575
28180SOL    HW296600   3.356   4.243   8.530 -0.5677  0.6909  0.2133
28181SOL     OW96601   8.249   6.905   3.093 -0.2256  0.0806  0.7640
28181SOL    HW196602   8.310   6.847   3.146  1.5390  0.3538 -0.9088
28181SOL    HW296603   8.204   6.971   3.154  1.1177 -0.1460  2.0373
28182SOL     OW96604   8.868   5.915   0.177  0.4966  0.1044  0.5527
28182SOL    HW196605   8.873   5.823   0.214 -0.7975 -0.9124 -1.6999
28182SOL    HW296606   8.961   5.950   0.162  1.0003 -1.5989 -0.4031
28183SOL     OW96607   7.497   4.399   1.448  0.3325 -0.5217 -0.2904
28183SOL    HW196608   7.432   4.368   1.517  0.3914 -0.6814 -0.3084
28183SOL    HW296609   7.554   4.472   1.486  0.0861 -0.3224 -0.3007
28184SOL     OW96610   4.240   2.801   1.343 -0.0552 -0.4834 -0.3140
28184SOL    HW196611   4.305   2.840   1.278 -0.4425 -0.8886 -0.9425
28184SOL    HW296612   4.256   2.841   1.433  0.1503  0.4607 -0.7608
28185SOL     OW96613   8.932   0.492   7.365 -0.7725  0.4218  0.2817
28185SOL    HW196614   8.881   0.414   7.330  3.0682 -1.6339 -0.9737
28185SOL    HW296615   8.927   0.567   7.299 -1.5240 -0.0227 -0.1738
28186SOL     OW96616   4.319   4.065   5.468  0.0390  0.1012 -0.2862
28186SOL    HW196617   4.261   4.106   5.398  0.8511  1.6145 -0.0895
28186SOL    HW296618   4.283   3.975   5.493 -2.3040  1.0847 -0.0393
28187SOL     OW96619   2.794   2.860   2.517  0.5261  0.0651  0.3650
28187SOL    HW196620   2.801   2.864   2.616  1.2887  1.2036  0.2855
28187SOL    HW296621   2.738   2.783   2.489  1.2386 -0.9196  1.6433
28188SOL     OW96622   7.418   7.351   8.449 -0.0645 -0.0692 -0.4829
28188SOL    HW196623   7.489   7.285   8.475 -0.3460 -0.1326  0.1453
28188SOL    HW296624   7.328   7.314   8.473 -0.2767  0.2176 -0.8338
28189SOL     OW96625   4.211   2.925   3.780 -0.3906 -0.0297 -0.3686
28189SOL    HW196626   4.151   2.851   3.751  1.1788 -0.5973 -2.3196
28189SOL    HW296627   4.182   3.011   3.738 -0.6808 -0.0217 -0.1534
28190SOL     OW96628   7.423   0.513   6.455 -0.2209 -0.6564  0.4604
28190SOL    HW196629   7.389   0.464   6.536  1.5241 -2.2557  0.2741
28190SOL    HW296630   7.522   0.502   6.449 -0.2891 -0.3222 -1.7473
28191SOL     OW96631   4.076   7.860   7.877 -0.4866  0.3991 -0.2779
28191SOL    HW196632   4.168   7.828   7.857 -0.3993 -0.0193  0.7461
28191SOL    HW296633   4.076   7.910   7.964 -1.1755  0.6049 -0.3874
28192SOL     OW96634   3.509   0.979   8.574 -0.2119  0.3541  0.4493
28192SOL    HW196635   3.415   0.959   8.546 -1.2164  1.0891  3.1092
28192SOL    HW296636   3.561   0.894   8.580 -0.6200 -0.0382 -1.2335
28193SOL     OW96637   2.652   6.078   1.451 -0.3597  0.3524  0.0069
28193SOL    HW196638   2.584   6.008   1.429  0.7739 -0.5605 -0.6712
28193SOL    HW296639   2.698   6.107   1.367 -0.0091  1.0719  0.4440
28194SOL     OW96640   3.192   7.602   1.859  0.2292 -0.4690 -0.1931
28194SOL    HW196641   3.171   7.510   1.826 -0.6461 -0.4648  0.3250
28194SOL    HW296642   3.287   7.605   1.891  0.5443 -0.9345 -1.0756
28195SOL     OW96643   9.684   7.635   5.496  0.5588 -0.2379  0.6539
28195SOL    HW196644   9.699   7.599   5.404 -1.3419 -1.8578  0.9469
28195SOL    HW296645   9.741   7.584   5.561  0.1318 -0.6785  0.6817
28196SOL     OW96646   1.077   5.361   2.507 -0.3803  0.5199  0.3972
28196SOL    HW196647   1.123   5.273   2.495  0.2331  0.7150  1.2442
28196SOL    HW296648   0.995   5.348   2.564 -0.8310  0.3361 -0.2909
28197SOL     OW96649   6.988   2.779   1.098 -0.5227  0.3001  0.0369
28197SOL    HW196650   6.891   2.804   1.093 -1.3306 -2.5889  0.1770
28197SOL    HW296651   7.000   2.710   1.170  1.7240  0.9496  0.3012
28198SOL     OW96652   0.131   7.761   9.264 -0.4700 -0.0529 -0.0758
28198SOL    HW196653   0.093   7.763   9.357 -0.0329 -0.7511  0.1250
28198SOL    HW296654   0.201   7.690   9.259  0.4132  0.8468 -0.5958
28199SOL     OW96655   3.715   1.454   8.457 -0.0647 -0.3746 -0.6896
28199SOL    HW196656   3.756   1.545   8.467 -0.5864 -0.2093 -0.0828
28199SOL    HW296657   3.783   1.392   8.416 -0.5224  0.9087 -3.5028
28200SOL     OW96658   7.300   4.214   8.126  0.0205 -0.0180 -0.0916
28200SOL    HW196659   7.268   4.132   8.173  2.4302 -0.3662  0.9948
28200SOL    HW296660   7.363   4.189   8.054 -1.2301  0.7456 -1.4809
28201SOL     OW96661   2.641   2.929   3.029  0.3709 -0.3121 -0.2711
28201SOL    HW196662   2.657   2.916   3.126 -0.0567 -1.1502 -0.3109
28201SOL    HW296663   2.561   2.876   3.000 -0.8724  1.7084 -0.6275
28202SOL     OW96664   3.325   9.369   1.355  0.2942 -0.2895 -0.4725
28202SOL    HW196665   3.235   9.410   1.370  0.9285  1.1482 -0.4536
28202SOL    HW296666   3.378   9.374   1.440  0.4928 -0.8432 -0.5666
28203SOL     OW96667   3.558   1.034   6.816 -0.5230  0.3253 -0.0888
28203SOL    HW196668   3.653   1.066   6.807 -0.5864  0.5188 -0.0785
28203SOL    HW296669   3.550   0.975   6.896  0.4241 -2.8202 -2.2304
28204SOL     OW96670   7.558   3.541   2.274 -0.2709 -0.7971  0.5762
28204SOL    HW196671   7.619   3.608   2.231 -0.8085  0.9346  2.4678
28204SOL    HW296672   7.611   3.462   2.304  0.7550 -0.0919  0.6278
28205SOL     OW96673   0.833   8.058   2.965 -0.0405  0.1504  0.0892
28205SOL    HW196674   0.769   8.016   3.030  0.1604  0.1208  0.2684
28205SOL    HW296675   0.899   8.113   3.015 -0.6593  1.1573 -0.1999
28206SOL     OW96676   9.069   5.820   8.380 -0.6536  0.0852 -0.1038
28206SOL    HW196677   9.165   5.812   8.409 -0.4101 -0.5955 -1.1006
28206SOL    HW296678   9.042   5.916   8.384 -0.3908  0.1116  1.6337
28207SOL     OW96679   4.081   6.795   0.411 -0.3091  0.0924  0.0666
28207SOL    HW196680   4.107   6.709   0.368 -2.2009 -2.2424  3.3247
28207SOL    HW296681   3.981   6.805   0.411 -0.2419  1.1618  1.6897
28208SOL     OW96682   8.290   5.366   6.336 -0.3317 -0.4863 -0.1604
28208SOL    HW196683   8.221   5.388   6.267 -2.3676  0.1732  1.9653
28208SOL    HW296684   8.256   5.291   6.393 -1.1906  2.4804  3.4440
28209SOL     OW96685   2.753   4.033   0.733 -0.3779  0.3872  0.0634
28209SOL    HW196686   2.714   4.121   0.758  0.9641  0.3835  2.2800
28209SOL    HW296687   2.849   4.028   0.763  0.6412 -0.4956 -3.1719
28210SOL     OW96688   8.000   4.011   5.737  0.1789  0.4088 -0.0138
28210SOL    HW196689   8.085   4.063   5.727 -0.0063  0.4596 -1.5308
28210SOL    HW296690   8.007   3.950   5.816  1.1140  1.3718  0.6670
28211SOL     OW96691   1.103   6.061   5.291  0.2281  0.4021  0.1135
28211SOL    HW196692   1.192   6.028   5.259  0.1320  0.1731  0.0802
28211SOL    HW296693   1.035   6.049   5.219  0.3144  1.2200 -0.1111
28212SOL     OW96694   9.611   5.004   6.152 -0.2555  0.0306 -0.4260
28212SOL    HW196695   9.582   5.003   6.248  0.7824 -0.0733 -0.1108
28212SOL    HW296696   9.709   4.988   6.147 -0.3882 -0.4134 -1.5449
28213SOL     OW96697   5.298   5.008   1.669  0.0337 -0.0236  0.8732
28213SOL    HW196698   5.351   5.083   1.630 -1.0231  0.2655 -0.0254
28213SOL    HW296699   5.215   4.994   1.615 -1.8824  0.9240  3.4801
28214SOL     OW96700   1.574   6.652   7.676  0.4328  0.4439 -0.0118
28214SOL    HW196701   1.542   6.716   7.746 -0.7972  0.4506 -0.5714
28214SOL    HW296702   1.578   6.560   7.715 -0.1683  0.4600  0.0837
28215SOL     OW96703   5.275   0.370   3.407  0.3410  0.7510  0.3117
28215SOL    HW196704   5.307   0.448   3.460  0.8140  1.8039 -1.4608
28215SOL    HW296705   5.339   0.351   3.333 -0.1975 -0.7991  0.2182
28216SOL     OW96706   1.963   2.145   3.530  0.0335  0.3183 -0.6130
28216SOL    HW196707   1.865   2.161   3.527  0.0813  0.4921 -1.5568
28216SOL    HW296708   2.006   2.189   3.451  1.1268  2.0526  0.9133
28217SOL     OW96709   1.842   3.100   9.263 -0.1949 -0.5117  0.2004
28217SOL    HW196710   1.926   3.120   9.214 -1.4600  0.9383 -1.4165
28217SOL    HW296711   1.828   3.001   9.265  0.6782 -0.6696 -0.9766
28218SOL     OW96712   1.896   8.664   5.469  0.2640 -0.4737 -0.5717
28218SOL    HW196713   1.942   8.636   5.552  2.1446 -0.5564 -1.6268
28218SOL    HW296714   1.894   8.764   5.464  1.9456 -0.4642 -1.3850
28219SOL     OW96715   1.217   4.637   2.753  0.7330  0.0315 -0.2969
28219SOL    HW196716   1.290   4.657   2.688 -0.9419 -1.7832 -2.8133
28219SOL    HW296717   1.149   4.711   2.750  0.9423  0.2294 -0.1790
28220SOL     OW96718   8.684   9.363   3.720  0.0582 -0.9256  0.1435
28220SOL    HW196719   8.729   9.323   3.640  2.0021  0.9955  0.1995
28220SOL    HW296720   8.593   9.395   3.695  0.4660 -0.7757 -1.2171
28221SOL     OW96721   2.925   9.979   8.448  0.1175  0.9015 -0.1769
28221SOL    HW196722   2.855   9.961   8.518  0.7794  1.2016  0.5720
28221SOL    HW296723   2.884  10.026   8.371 -1.1704 -1.6682 -1.1349
28222SOL     OW96724   0.119   2.230   2.404  0.4443 -0.2496  0.1945
28222SOL    HW196725   0.192   2.261   2.464  0.7092  0.7878 -0.6548
28222SOL    HW296726   0.152   2.153   2.349 -0.0822 -1.8065  1.9940
28223SOL     OW96727   4.673   2.655   6.786 -0.2562 -0.4935 -0.3007
28223SOL    HW196728   4.584   2.637   6.828  0.3906  0.1335  1.3948
28223SOL    HW296729   4.684   2.753   6.770  0.4748 -0.4610  0.3330
28224SOL     OW96730   3.024   5.669   4.180  0.2636  0.8862  0.0747
28224SOL    HW196731   3.123   5.679   4.173  0.3888 -0.7474 -0.9507
28224SOL    HW296732   3.001   5.573   4.197 -1.2008  0.8184 -1.9572
28225SOL     OW96733   4.310   2.470   9.934  0.4158  0.7081  0.0416
28225SOL    HW196734   4.358   2.545   9.979 -0.5528  0.5849  1.3096
28225SOL    HW296735   4.236   2.506   9.878  0.3269  0.7400  0.1789
28226SOL     OW96736   4.185   7.048   8.066 -0.7190 -0.5352 -0.0447
28226SOL    HW196737   4.258   7.015   8.126  1.2993 -1.8291 -3.0643
28226SOL    HW296738   4.154   7.138   8.097  0.9564 -0.7315  2.3115
28227SOL     OW96739   9.194   7.260   5.380  0.1128 -0.2171 -0.3546
28227SOL    HW196740   9.162   7.317   5.304 -1.6634 -0.1178  0.4334
28227SOL    HW296741   9.260   7.194   5.347 -0.2091  0.2124 -1.8783
28228SOL     OW96742   5.236   1.840   0.545 -0.1851  0.8967 -0.6364
28228SOL    HW196743   5.217   1.742   0.539 -0.1937  0.8224  0.5707
28228SOL    HW296744   5.335   1.854   0.551 -0.2491  0.8708  0.6681
28229SOL     OW96745   8.902   9.864   5.579  0.3866  0.1916 -0.4280
28229SOL    HW196746   8.985   9.904   5.540 -0.5466 -1.3064 -4.1781
28229SOL    HW296747   8.919   9.768   5.602 -0.1661  0.0369 -0.6624
28230SOL     OW96748   6.051   6.122   9.429 -0.2158 -0.1355  0.2443
28230SOL    HW196749   6.052   6.085   9.521  1.0239  2.2686  1.2320
28230SOL    HW296750   6.085   6.053   9.365 -0.8016 -1.7120  1.5971
28231SOL     OW96751   8.089   8.696   9.899  0.3346  0.2222  0.2909
28231SOL    HW196752   8.120   8.785   9.868  0.2227  0.3719  0.6137
28231SOL    HW296753   8.032   8.654   9.828  0.1740  0.5163  0.2463
28232SOL     OW96754   3.757   4.137   5.793 -0.0653  0.5333  0.2513
28232SOL    HW196755   3.739   4.084   5.876  0.6688  1.2278  0.8593
28232SOL    HW296756   3.689   4.114   5.724 -0.1117 -0.7639  0.7068
28233SOL     OW96757   3.282   9.727   4.317  0.3877  0.0652  0.3981
28233SOL    HW196758   3.233   9.674   4.248  1.7779 -0.0721 -0.5130
28233SOL    HW296759   3.334   9.665   4.376  1.7845  0.3918 -0.4839
28234SOL     OW96760   0.964   4.220   7.765 -0.1211  0.2627  0.0787
28234SOL    HW196761   0.969   4.254   7.859  0.6598  0.6449 -0.0976
28234SOL    HW296762   0.978   4.296   7.702 -1.6393  0.1868 -0.3642
28235SOL     OW96763   9.638   0.034   0.280  0.8566  0.1480  0.3545
28235SOL    HW196764   9.611  -0.044   0.337  0.4102 -0.9066 -1.2942
28235SOL    HW296765   9.577   0.112   0.300  0.3029 -0.4043  0.8552
28236SOL     OW96766   6.118   9.212   6.857  0.8976  0.1735 -0.1191
28236SOL    HW196767   6.074   9.290   6.812  0.8207 -0.7743 -1.7179
28236SOL    HW296768   6.183   9.246   6.925  0.2276  1.6252 -0.1703
28237SOL     OW96769   2.610   6.393   4.059  0.0774 -0.1524 -0.7993
28237SOL    HW196770   2.536   6.327   4.065  0.1854 -0.1184  1.0264
28237SOL    HW296771   2.573   6.482   4.032 -0.7939  0.2196  1.4803
28238SOL     OW96772   0.633   3.875   7.854 -0.2439 -0.2737 -0.2935
28238SOL    HW196773   0.677   3.862   7.942  0.4670 -2.0436 -0.8683
28238SOL    HW296774   0.682   3.944   7.801  0.3025 -0.3743  0.0848
28239SOL     OW96775   2.676   9.020   1.811 -0.3457  0.7137 -0.0771
28239SOL    HW196776   2.760   8.971   1.790 -0.4210  0.5105  0.0889
28239SOL    HW296777   2.617   8.962   1.867 -1.4770  0.0872 -1.8758
28240SOL     OW96778   1.925   4.052   9.799  0.6251  0.6499  0.1753
28240SOL    HW196779   1.868   3.981   9.842  0.6201 -0.0399 -0.9592
28240SOL    HW296780   2.018   4.019   9.790  0.6962  0.9146 -0.0657
28241SOL     OW96781   3.736   0.580   2.219  0.4829 -0.2947 -0.4712
28241SOL    HW196782   3.820   0.589   2.273  1.3024  0.8985 -1.9055
28241SOL    HW296783   3.676   0.657   2.238  0.1898 -0.5605 -0.3012
28242SOL     OW96784   9.149   0.795   6.062 -0.3044  0.2243  0.5274
28242SOL    HW196785   9.163   0.708   6.110  0.4889  0.4063  0.6248
28242SOL    HW296786   9.220   0.807   5.994  0.0684  1.1941  1.0844
28243SOL     OW96787   8.636   8.467   8.605 -0.3274 -0.3573 -0.5822
28243SOL    HW196788   8.659   8.406   8.680 -1.9676  1.0132  1.1014
28243SOL    HW296789   8.691   8.551   8.611 -0.0178 -0.5054 -1.2786
28244SOL     OW96790   1.152   4.733   9.828 -0.2622  0.5958  0.5187
28244SOL    HW196791   1.169   4.649   9.880 -1.4511  0.0619  0.0507
28244SOL    HW296792   1.157   4.811   9.890  0.7576  0.1837  0.9770
28245SOL     OW96793   7.446   6.979   8.418  0.2795 -0.2901  0.0118
28245SOL    HW196794   7.518   6.949   8.355 -0.7751  1.1422 -1.9281
28245SOL    HW296795   7.485   7.043   8.485  0.9737 -0.1309 -0.5364
28246SOL     OW96796   4.664   9.222   8.054  0.3175  0.1350 -0.3419
28246SOL    HW196797   4.603   9.172   7.992  0.4769 -0.0226 -0.3726
28246SOL    HW296798   4.624   9.223   8.145  1.1475 -1.5796  0.0601
28247SOL     OW96799   4.855   3.838   0.906  0.1173 -0.1372  0.2841
28247SOL    HW196800   4.944   3.793   0.913 -0.2875 -0.6503  2.6663
28247SOL    HW296801   4.867   3.934   0.882  1.2866 -0.2721  0.3139
28248SOL     OW96802   3.366   5.754   9.292  0.2348 -0.1046  0.3328
28248SOL    HW196803   3.403   5.667   9.259  3.0911  1.8967 -1.9456
28248SOL    HW296804   3.432   5.797   9.354 -1.0939  0.5419  1.3362
28249SOL     OW96805   3.985   1.056   5.492 -0.2777 -0.1679 -0.4090
28249SOL    HW196806   3.902   1.002   5.482  0.9702 -2.2767  0.4655
28249SOL    HW296807   4.003   1.072   5.590 -0.7783  2.1126 -0.6427
28250SOL     OW96808   3.664   3.846   2.881 -0.4707 -0.2737  0.6036
28250SOL    HW196809   3.592   3.859   2.812 -0.5185 -1.2303  0.4667
28250SOL    HW296810   3.672   3.928   2.937  0.7191  1.1586 -1.6084
28251SOL     OW96811   5.590   8.659   8.907 -0.4350  0.1099  0.0838
28251SOL    HW196812   5.621   8.748   8.876 -1.1488  0.5835  0.7159
28251SOL    HW296813   5.519   8.625   8.845  0.0900 -0.1804 -0.3570
28252SOL     OW96814   3.753   9.900   1.117  0.0151  0.1974  0.5190
28252SOL    HW196815   3.662   9.917   1.080  0.0196  0.5546  0.6674
28252SOL    HW296816   3.787   9.812   1.084 -0.6920 -0.2791  1.0604
28253SOL     OW96817   4.431   0.126   5.189 -0.2614  0.1914  0.2970
28253SOL    HW196818   4.357   0.173   5.237 -0.0946  0.5536  0.2024
28253SOL    HW296819   4.394   0.047   5.141 -0.3001 -0.6676  1.6995
28254SOL     OW96820   2.848   8.559   1.160 -0.4854  0.4178 -0.1863
28254SOL    HW196821   2.801   8.495   1.100 -0.9120 -0.5290  1.1213
28254SOL    HW296822   2.785   8.633   1.186 -0.6067  0.2897 -0.1146
28255SOL     OW96823   0.504   5.877   2.063 -0.1074  0.1940  0.1271
28255SOL    HW196824   0.508   5.840   1.970  1.0305 -0.2467  0.3391
28255SOL    HW296825   0.490   5.803   2.128  1.5506  0.1913  0.5014
28256SOL     OW96826   6.416   4.548   8.052  0.2348 -0.3547 -0.7255
28256SOL    HW196827   6.375   4.577   7.966 -0.8454  1.1777  0.2640
28256SOL    HW296828   6.511   4.523   8.038  0.3281  0.7867 -2.2011
28257SOL     OW96829   4.310   1.267   4.416 -0.4819  0.1694 -0.0159
28257SOL    HW196830   4.302   1.335   4.343 -0.1807  0.3621  0.1277
28257SOL    HW296831   4.344   1.181   4.378  1.7276  0.9028  0.2478
28258SOL     OW96832   9.291   2.774   4.232 -0.3066  0.1679 -0.1644
28258SOL    HW196833   9.196   2.749   4.215 -0.1195  0.2189 -1.3282
28258SOL    HW296834   9.351   2.712   4.182  0.2660  0.3510  0.2903
28259SOL     OW96835   8.426   3.479   2.343 -0.6087 -0.1637  0.5881
28259SOL    HW196836   8.390   3.572   2.354  0.9332  0.5820 -0.5843
28259SOL    HW296837   8.520   3.483   2.311 -1.0132 -2.1469 -0.9553
28260SOL     OW96838   2.484   1.852   4.562 -0.3286 -0.1402 -0.5709
28260SOL    HW196839   2.434   1.774   4.524 -2.6441  1.2717 -0.5119
28260SOL    HW296840   2.501   1.919   4.489  2.6170 -1.1163 -0.8701
28261SOL     OW96841   7.765   0.202   3.739  0.0304  0.3388  0.3087
28261SOL    HW196842   7.718   0.178   3.825  0.9871 -0.9624  0.4758
28261SOL    HW296843   7.863   0.188   3.750 -0.1300 -3.3064 -2.0846
28262SOL     OW96844   9.412   9.690   5.170 -0.8674  0.7908 -0.0992
28262SOL    HW196845   9.337   9.653   5.223 -0.2330 -1.9395 -1.0349
28262SOL    HW296846   9.380   9.714   5.079 -0.8313  0.6018 -0.1621
28263SOL     OW96847   8.279   8.244   5.045 -0.2283  0.4706 -0.4079
28263SOL    HW196848   8.370   8.224   5.080 -0.5409  2.5848  1.7683
28263SOL    HW296849   8.251   8.173   4.981  2.9218 -0.2060 -1.0975
28264SOL     OW96850   7.118   2.523   2.457 -0.0915  0.6408 -0.1769
28264SOL    HW196851   7.109   2.587   2.381  0.3357  1.3899  0.3976
28264SOL    HW296852   7.168   2.566   2.532 -0.1190 -0.2408  0.3619
28265SOL     OW96853   9.617   4.388   0.205 -0.0060  1.0073 -0.4429
28265SOL    HW196854   9.609   4.457   0.133  1.2651  0.1457 -1.4312
28265SOL    HW296855   9.667   4.427   0.282 -0.0613  1.4633 -0.6334
28266SOL     OW96856   4.800   5.908   0.974 -0.7131  0.0615 -0.0414
28266SOL    HW196857   4.893   5.890   1.005  0.4871  0.5559 -3.1932
28266SOL    HW296858   4.760   5.824   0.936 -1.6643 -0.2033  1.4840
28267SOL     OW96859   2.868   2.568   9.828  0.3368  0.1259 -0.3402
28267SOL    HW196860   2.865   2.468   9.827  0.1842  0.1310 -0.4552
28267SOL    HW296861   2.875   2.600   9.922  2.0265 -0.0400 -0.3938
28268SOL     OW96862   1.363   2.390   8.491  0.3569  0.1234  0.5438
28268SOL    HW196863   1.298   2.331   8.443  1.5842 -0.6056 -0.2527
28268SOL    HW296864   1.321   2.424   8.575 -0.9564 -0.5437  0.1771
28269SOL     OW96865   8.738   7.391   7.228 -0.4595  0.2231 -0.2522
28269SOL    HW196866   8.804   7.464   7.243 -0.5495  0.2875 -0.1708
28269SOL    HW296867   8.653   7.431   7.193  0.1629 -0.0584 -2.1666
28270SOL     OW96868   0.262   1.505   0.795 -0.2231  0.0170  0.4554
28270SOL    HW196869   0.304   1.420   0.826  1.3299 -0.5058 -2.8488
28270SOL    HW296870   0.164   1.490   0.779 -0.3575 -0.5836  1.7541
28271SOL     OW96871   7.954   8.418   8.708  0.2760 -0.3919 -0.0201
28271SOL    HW196872   8.053   8.416   8.723  0.2660 -0.1913  0.0779
28271SOL    HW296873   7.912   8.339   8.751  0.4480 -0.7247 -0.4636
28272SOL     OW96874   9.052   6.592   2.607 -0.1891  0.3510  0.0036
28272SOL    HW196875   8.990   6.649   2.552  1.9998  0.9073 -1.9781
28272SOL    HW296876   9.078   6.642   2.690 -3.9666 -0.7135  1.9198
28273SOL     OW96877   9.436   5.716   4.850 -1.2524  0.3024 -0.2997
28273SOL    HW196878   9.383   5.738   4.932 -0.0966 -1.3361  0.9422
28273SOL    HW296879   9.530   5.749   4.861 -0.6046 -1.5223 -0.1603
28274SOL     OW96880   1.952   8.176   2.613  0.0233 -0.1046 -0.0445
28274SOL    HW196881   1.874   8.209   2.666 -0.6542  0.8421 -1.6256
28274SOL    HW296882   2.037   8.212   2.653 -0.5363  1.2789 -0.0957
28275SOL     OW96883   9.970   3.375   0.102  0.1654 -0.2703 -0.3813
28275SOL    HW196884   9.908   3.304   0.068  0.8142 -1.1541  0.2672
28275SOL    HW296885   9.919   3.459   0.118 -0.5936 -0.5670 -1.2391
28276SOL     OW96886   2.207   8.237   2.337  0.7802  0.3883 -0.0009
28276SOL    HW196887   2.291   8.200   2.377 -0.7503 -2.9240  0.3635
28276SOL    HW296888   2.210   8.225   2.237  0.3312 -0.6605  0.1068
28277SOL     OW96889   6.360   1.139   5.639  0.6341  0.0046 -0.0769
28277SOL    HW196890   6.327   1.137   5.545 -2.4416  1.5659  0.9052
28277SOL    HW296891   6.379   1.233   5.666  3.6573 -0.6402  0.1973
28278SOL     OW96892   5.748   4.247   2.753  0.2401 -0.0992  0.1183
28278SOL    HW196893   5.682   4.277   2.685  0.9100  0.7006 -0.1910
28278SOL    HW296894   5.738   4.302   2.836 -0.3653 -0.8594  0.5500
28279SOL     OW96895   1.585   2.972   3.999 -0.5276  0.3239  0.5633
28279SOL    HW196896   1.574   2.889   4.054  1.4144 -0.2334  0.1553
28279SOL    HW296897   1.652   3.032   4.043 -0.8282  1.0065  0.0914
28280SOL     OW96898   0.446   5.004   3.305 -0.4230  0.6598  0.0059
28280SOL    HW196899   0.457   4.921   3.360  0.0341  1.1647  0.6859
28280SOL    HW296900   0.376   4.988   3.235 -0.0943 -0.4117 -0.0982
28281SOL     OW96901   7.694   3.346   3.481  0.0455 -0.4791 -0.2234
28281SOL    HW196902   7.620   3.404   3.447  0.2718  1.1883  1.9975
28281SOL    HW296903   7.777   3.401   3.490  0.5684 -1.4151  0.8273
28282SOL     OW96904   2.782   3.295   6.963 -0.2270 -0.8944 -0.4837
28282SOL    HW196905   2.683   3.301   6.954 -0.6050 -3.8366  0.9630
28282SOL    HW296906   2.805   3.268   7.057  1.9765  0.3431 -0.6433
28283SOL     OW96907   1.906   9.093   0.016  0.0650  0.2027  0.1852
28283SOL    HW196908   1.964   9.103   0.097 -0.1928 -0.7422  0.4957
28283SOL    HW296909   1.877   9.183  -0.016  0.1855  0.5812  1.1334
28284SOL     OW96910   0.030   8.572   1.044  0.0128 -0.7218 -0.0191
28284SOL    HW196911   0.126   8.550   1.059  0.2233 -0.4391 -0.9684
28284SOL    HW296912  -0.000   8.535   0.956 -0.0168  1.5004 -0.9754
28285SOL     OW96913   0.566   0.548   2.345  0.1685 -0.0209  0.1043
28285SOL    HW196914   0.588   0.626   2.403  1.2569 -0.7350  0.6780
28285SOL    HW296915   0.468   0.526   2.354 -0.2963  1.7249 -0.6434
28286SOL     OW96916   4.628   3.522   0.347 -0.6107 -0.4634 -0.0232
28286SOL    HW196917   4.726   3.526   0.325 -0.6721 -0.3727 -0.2725
28286SOL    HW296918   4.615   3.555   0.441 -0.6406  1.4782 -0.6928
28287SOL     OW96919   7.840   7.081   1.013 -0.5927  0.3288  0.2730
28287SOL    HW196920   7.904   7.156   1.001  0.6866 -0.5635  1.3736
28287SOL    HW296921   7.801   7.084   1.105  0.8084 -1.3463  0.9509
28288SOL     OW96922   5.820   1.869   0.113 -0.4615  0.8746  0.2319
28288SOL    HW196923   5.879   1.788   0.107  0.2802  1.3940  0.4637
28288SOL    HW296924   5.725   1.842   0.094 -0.2245 -0.0509  0.3175
28289SOL     OW96925   0.253   4.008   0.346 -0.2005  0.5577  0.3342
28289SOL    HW196926   0.277   4.066   0.424  1.6450  0.7464 -0.3450
28289SOL    HW296927   0.181   3.944   0.373 -0.3582  1.3504  1.8715
28290SOL     OW96928   6.372   7.536   7.994 -0.5499  0.3632 -0.2055
28290SOL    HW196929   6.346   7.487   8.077 -1.3917 -1.4682 -1.5188
28290SOL    HW296930   6.294   7.540   7.931  0.7293 -0.2875 -1.8735
28291SOL     OW96931   2.494   2.495   7.485 -0.2474  0.1809 -0.2670
28291SOL    HW196932   2.524   2.574   7.430 -1.1149  1.0135  0.4438
28291SOL    HW296933   2.442   2.433   7.427 -0.7512  0.8223 -0.5106
28292SOL     OW96934   3.055   6.852   1.888 -0.2354 -0.5269  0.2708
28292SOL    HW196935   3.041   6.891   1.979  0.7059 -0.8023  0.5299
28292SOL    HW296936   3.015   6.913   1.819  1.2913  0.9453  0.6625
28293SOL     OW96937   9.090   0.525   7.938 -0.1737 -0.3889  0.9242
28293SOL    HW196938   9.037   0.605   7.909 -2.2093 -2.4144 -1.1489
28293SOL    HW296939   9.086   0.517   8.037 -1.1774  1.2285  1.0419
28294SOL     OW96940   0.008   0.538   5.770  0.0053 -0.1259  0.1993
28294SOL    HW196941   0.035   0.535   5.674 -0.7391 -0.0761 -0.0183
28294SOL    HW296942   0.089   0.550   5.827  0.5977 -1.4748 -0.3379
28295SOL     OW96943   8.468   3.544   8.721  0.2269 -0.3299  0.1904
28295SOL    HW196944   8.436   3.453   8.746 -0.3384 -0.5522 -1.2793
28295SOL    HW296945   8.513   3.587   8.799 -0.5558 -1.4076  1.2392
28296SOL     OW96946   2.773   4.436   5.268  0.3418  0.2040 -0.4565
28296SOL    HW196947   2.794   4.533   5.285  0.1374  0.2968 -0.7326
28296SOL    HW296948   2.843   4.397   5.208 -0.1785  0.4750 -1.2569
28297SOL     OW96949   9.953   4.629   8.464  0.9467  0.1765  0.0921
28297SOL    HW196950  10.004   4.582   8.391  1.4846  0.4962  0.2626
28297SOL    HW296951   9.865   4.584   8.476  1.3324 -0.6137  0.0413
28298SOL     OW96952   4.174   2.386   2.456 -0.4435 -0.9082  0.3622
28298SOL    HW196953   4.176   2.452   2.381 -1.0294 -0.5104  0.6979
28298SOL    HW296954   4.148   2.432   2.541  1.7798 -1.0432  1.1370
28299SOL     OW96955   3.083   6.895   9.738 -0.2364 -0.0879  0.1993
28299SOL    HW196956   3.076   6.806   9.785  0.6985 -0.7762 -0.9391
28299SOL    HW296957   3.108   6.880   9.642 -0.2716  1.4011 -0.0470
28300SOL     OW96958   8.079   8.914   6.714 -0.0565  0.1841 -0.2413
28300SOL    HW196959   8.000   8.855   6.730  0.8732 -1.2276 -0.7433
28300SOL    HW296960   8.076   8.991   6.777 -0.7912 -0.9010  1.0856
28301SOL     OW96961   7.343   5.585   1.829 -0.2279 -0.3423 -0.2130
28301SOL    HW196962   7.333   5.526   1.749 -0.3868  0.7734 -1.0306
28301SOL    HW296963   7.291   5.669   1.815  0.0318  0.0200  0.9209
28302SOL     OW96964   0.530   3.556   5.401 -0.3017  0.0817 -0.2524
28302SOL    HW196965   0.495   3.647   5.424 -2.2301 -0.6081 -0.3488
28302SOL    HW296966   0.499   3.532   5.309 -1.4378 -1.4549  0.5117
28303SOL     OW96967   1.505   3.861   8.703 -0.6770 -0.8593 -0.2685
28303SOL    HW196968   1.465   3.914   8.628  0.7579 -0.1917 -0.5681
28303SOL    HW296969   1.435   3.842   8.771 -1.2091  1.4372 -0.1499
28304SOL     OW96970   2.386   0.892   2.891  0.3525  0.2534  0.3244
28304SOL    HW196971   2.448   0.817   2.868 -1.7880 -1.0921 -1.2683
28304SOL    HW296972   2.310   0.857   2.946  1.0041  1.8884  2.3062
28305SOL     OW96973   6.005   5.476   0.639 -0.3958 -1.5101  0.6038
28305SOL    HW196974   6.104   5.479   0.623 -0.6663 -2.1461 -1.2555
28305SOL    HW296975   5.985   5.409   0.710  0.4449 -1.9729  0.4105
28306SOL     OW96976   8.541   7.139   8.775  0.1355 -0.1243  0.0051
28306SOL    HW196977   8.539   7.210   8.704  2.0314 -0.9272 -0.8948
28306SOL    HW296978   8.601   7.169   8.849  0.4045 -0.4936 -0.0615
28307SOL     OW96979   4.765   0.282   7.794  0.3308  0.4123 -0.1497
28307SOL    HW196980   4.793   0.352   7.860 -1.5547  0.8289  0.2305
28307SOL    HW296981   4.807   0.195   7.819  0.6493  0.8406  0.8636
28308SOL     OW96982   6.316   2.265   2.114 -0.6209  0.0785  0.7606
28308SOL    HW196983   6.265   2.306   2.189  0.3635  0.8872  0.9985
28308SOL    HW296984   6.315   2.166   2.122 -1.3449  0.1321  1.2931
28309SOL     OW96985   3.571   4.902   4.148 -0.3234 -0.3424  0.9273
28309SOL    HW196986   3.615   4.987   4.119  0.2746 -0.9707 -0.0402
28309SOL    HW296987   3.472   4.910   4.134 -0.4136  0.6786  2.1081
28310SOL     OW96988   0.529   2.649   7.038  0.1613  0.1984  0.1385
28310SOL    HW196989   0.450   2.587   7.044 -0.0691  0.3968 -0.7727
28310SOL    HW296990   0.558   2.674   7.130 -0.2393 -0.6406  0.5039
28311SOL     OW96991   8.237   4.804  10.029 -0.0086  0.3617  0.0767
28311SOL    HW196992   8.337   4.806  10.024 -0.0369 -0.0927 -0.7795
28311SOL    HW296993   8.209   4.758  10.113  0.5014 -1.5766 -0.7995
28312SOL     OW96994   2.723   5.888   7.324 -0.3345 -0.5990  0.1337
28312SOL    HW196995   2.726   5.881   7.224  0.0500  0.0453  0.0980
28312SOL    HW296996   2.814   5.911   7.359 -0.5959 -0.2389  0.5857
28313SOL     OW96997   2.019   9.846   1.726 -0.0112  0.3203 -0.3380
28313SOL    HW196998   2.082   9.869   1.652 -1.5505 -0.5592 -1.9676
28313SOL    HW296999   2.066   9.790   1.794  1.6566  1.8808 -0.2011
28314SOL     OW97000   5.141   9.173   8.833  0.2200 -0.4995 -0.6218
28314SOL    HW197001   5.240   9.171   8.818  0.9177  0.9559  3.1849
28314SOL    HW297002   5.110   9.081   8.859  1.1219 -0.3728  1.0071
28315SOL     OW97003   7.784   9.198   7.811 -0.4102 -0.0670 -0.1684
28315SOL    HW197004   7.812   9.122   7.753  2.3426  1.3776 -0.7953
28315SOL    HW297005   7.798   9.173   7.907 -1.9110 -1.2673 -0.2549
28316SOL     OW97006   4.672   4.607   9.924  0.6006  0.0569 -0.2073
28316SOL    HW197007   4.681   4.606   9.825 -1.4984  0.9526 -0.4219
28316SOL    HW297008   4.708   4.693   9.960  2.6909 -0.8638 -0.0336
28317SOL     OW97009   4.742   1.700   4.122  0.1394 -0.1606  0.1755
28317SOL    HW197010   4.711   1.744   4.206  0.0305  0.6120 -0.2652
28317SOL    HW297011   4.805   1.626   4.144 -0.2286 -0.2415  0.9589
28318SOL     OW97012   9.456   7.774   9.494  0.5239  0.2873  0.3052
28318SOL    HW197013   9.380   7.757   9.431 -0.7178  0.8840  1.5880
28318SOL    HW297014   9.514   7.693   9.500  1.1080  0.4853 -2.1641
28319SOL     OW97015   2.140   7.655   0.518 -0.3925  0.3654 -0.0948
28319SOL    HW197016   2.043   7.672   0.538 -0.2341 -0.0280  1.0384
28319SOL    HW297017   2.196   7.707   0.582  0.1346 -0.5225  0.1698
28320SOL     OW97018   8.411   7.227   5.979 -0.0537 -0.0109 -0.0570
28320SOL    HW197019   8.436   7.259   5.887  1.0830  2.9535  1.2194
28320SOL    HW297020   8.492   7.230   6.038 -1.6268  1.9976  2.0762
28321SOL     OW97021   7.836   0.981   6.091  0.0304  0.0046 -0.2427
28321SOL    HW197022   7.796   1.065   6.053  0.4347  0.5960  0.6192
28321SOL    HW297023   7.763   0.918   6.117 -0.3047  0.3943 -0.2242
28322SOL     OW97024   0.885   1.466   5.730 -0.6759  0.4990 -0.2019
28322SOL    HW197025   0.847   1.528   5.799 -0.2202 -1.2406  1.6445
28322SOL    HW297026   0.985   1.474   5.730 -0.5729 -0.7145  0.5192
28323SOL     OW97027   0.532   4.172   8.497  0.1200 -0.3273  0.6487
28323SOL    HW197028   0.560   4.254   8.446 -0.4647  0.4711  1.5987
28323SOL    HW297029   0.481   4.199   8.579  0.6574 -1.6066  1.4284
28324SOL     OW97030   6.233   4.451   9.066 -0.4451 -0.0911 -0.0952
28324SOL    HW197031   6.212   4.411   9.156  0.8808 -1.2513 -0.2949
28324SOL    HW297032   6.190   4.396   8.995 -0.2851 -0.0005 -0.2595
28325SOL     OW97033   1.396   1.955   7.173 -0.3433 -0.0884  0.1826
28325SOL    HW197034   1.417   1.870   7.222  0.1926 -0.0489  0.0279
28325SOL    HW297035   1.325   1.937   7.105  0.5583 -0.6882 -0.6253
28326SOL     OW97036   2.464   9.605   3.063  0.7818  1.0897 -0.3495
28326SOL    HW197037   2.447   9.587   3.160  0.2496  0.8463 -0.4866
28326SOL    HW297038   2.500   9.523   3.019  1.1690  1.2430 -0.3311
28327SOL     OW97039   9.572   6.469   0.695 -0.2224 -0.4831 -0.5452
28327SOL    HW197040   9.484   6.478   0.649  0.3324  0.0957 -1.5126
28327SOL    HW297041   9.602   6.558   0.728  0.3378 -0.5578 -0.8456
28328SOL     OW97042   8.630   1.231   7.617  0.3450 -0.2163 -0.0750
28328SOL    HW197043   8.676   1.144   7.604 -0.5029 -0.4792 -1.3225
28328SOL    HW297044   8.644   1.262   7.711 -0.2312 -2.1872  0.6636
28329SOL     OW97045   6.637   1.084   1.569  0.1941  0.5568  0.2544
28329SOL    HW197046   6.604   1.001   1.523 -0.4139  0.2379  1.2317
28329SOL    HW297047   6.596   1.089   1.660  1.5516  1.0561  0.8431
28330SOL     OW97048   7.520   9.896   9.868 -0.0843 -0.2957  0.1278
28330SOL    HW197049   7.519   9.976   9.928  0.1887 -0.5227  0.4402
28330SOL    HW297050   7.561   9.818   9.916 -1.7397 -1.0490  0.3570
28331SOL     OW97051   6.955   6.073   7.915  0.3069 -0.0684  0.0894
28331SOL    HW197052   7.031   6.016   7.948 -0.0529 -1.2193 -1.0279
28331SOL    HW297053   6.991   6.159   7.880  0.9986 -0.1822  0.4949
28332SOL     OW97054   2.037   3.668   1.829 -0.0701  0.1877  0.7861
28332SOL    HW197055   2.132   3.639   1.815 -0.2141  1.0629 -2.5705
28332SOL    HW297056   2.029   3.765   1.809 -2.0697 -0.3580 -1.3137
28333SOL     OW97057   8.410   9.879   7.814 -0.1338  0.3520  0.3772
28333SOL    HW197058   8.312   9.901   7.813  0.1263  1.5220  0.4116
28333SOL    HW297059   8.421   9.781   7.828 -1.3066  0.2107  0.3945
28334SOL     OW97060   8.597   4.432   7.410 -0.1173  0.7061  0.8476
28334SOL    HW197061   8.574   4.527   7.431  0.1341  0.7026  1.1447
28334SOL    HW297062   8.556   4.407   7.322  1.0216  1.5525  0.0505
28335SOL     OW97063   0.833   1.329   4.117 -0.0439 -0.2967  0.4979
28335SOL    HW197064   0.835   1.369   4.208  2.3347  0.5971  0.0876
28335SOL    HW297065   0.780   1.387   4.056  1.2847  0.9361  0.4991
28336SOL     OW97066   3.295   0.290   3.383 -0.2745  0.4308  0.2566
28336SOL    HW197067   3.266   0.371   3.434 -0.2344  0.1643  0.6975
28336SOL    HW297068   3.370   0.245   3.431  0.4840  0.7845 -0.5811
28337SOL     OW97069   1.532   3.068   5.739  0.0922 -0.0870  0.1516
28337SOL    HW197070   1.487   3.045   5.825  0.6323 -0.6904  0.2765
28337SOL    HW297071   1.602   3.138   5.756  1.0897 -1.1268  0.4417
28338SOL     OW97072   4.976   9.739   7.204  0.2311 -1.0154 -0.4652
28338SOL    HW197073   5.031   9.821   7.215  0.2365 -0.9206 -1.1916
28338SOL    HW297074   4.953   9.726   7.108 -4.5081  1.2058  0.2301
28339SOL     OW97075   7.527   7.131   3.494 -0.5343 -0.0402 -0.1286
28339SOL    HW197076   7.523   7.185   3.578  1.7042  1.7059 -1.1021
28339SOL    HW297077   7.479   7.044   3.509 -0.2768  0.2630  2.9133
28340SOL     OW97078   7.448   5.303   6.106 -0.1430  0.2453 -0.8513
28340SOL    HW197079   7.358   5.320   6.068  0.4428  2.4394 -1.3352
28340SOL    HW297080   7.506   5.383   6.092  2.0702 -1.3505 -1.0923
28341SOL     OW97081   1.701   5.199   5.221  0.3638 -0.5460  0.7606
28341SOL    HW197082   1.657   5.165   5.304 -0.6633 -0.4304  0.2644
28341SOL    HW297083   1.795   5.228   5.242  0.0844 -0.4617  1.8910
28342SOL     OW97084   4.771   9.049   9.445 -0.5648  0.0002  0.4160
28342SOL    HW197085   4.855   9.001   9.469 -1.0188 -1.2424 -0.4424
28342SOL    HW297086   4.791   9.147   9.432  0.5665 -0.1355  1.0917
28343SOL     OW97087   4.950   9.155   6.296  0.3604  0.6960  0.0160
28343SOL    HW197088   4.954   9.076   6.356 -2.0926 -0.2508 -1.0093
28343SOL    HW297089   5.012   9.141   6.218  0.4514  0.0888  0.1953
28344SOL     OW97090   9.742   2.796   4.621 -0.0236  0.1683 -0.1920
28344SOL    HW197091   9.808   2.776   4.549  0.5326 -1.2289  0.6923
28344SOL    HW297092   9.745   2.894   4.643  3.0349 -0.1574  1.0714
28345SOL     OW97093   2.212   0.254   2.150 -0.4288 -0.3564 -0.1500
28345SOL    HW197094   2.230   0.275   2.054 -1.2353  1.1662  0.0109
28345SOL    HW297095   2.235   0.159   2.169  3.2601  0.2824 -1.0042
28346SOL     OW97096   1.740   6.393   6.393  0.4414  0.0729  0.2020
28346SOL    HW197097   1.668   6.404   6.325  0.9353  1.3475 -0.1391
28346SOL    HW297098   1.701   6.358   6.478 -0.2040 -1.4093 -0.6874
28347SOL     OW97099   8.425   2.673   9.481 -0.1714  0.8527 -0.0036
28347SOL    HW197100   8.422   2.749   9.547  0.3512  2.6203 -1.9572
28347SOL    HW297101   8.335   2.661   9.440 -0.1104  0.7793 -0.1148
  10.00000  10.00000  10.06979
