chitosan Film  in water:acetic acid 2% t= 2000.00000 step= 2000000
11118
    1CHTO  H203    1   4.371   6.815  -0.156  0.3160  0.3087  0.5539
    1CHTO   O82    2   4.372   6.871  -0.081  0.2537  0.4717  0.4344
    1CHTO  C123    3   4.450   6.848   0.040 -0.3978 -0.4961 -0.0881
    1CHTO  H227    4   4.408   6.904   0.124 -1.0648 -0.5526 -0.3788
    1CHTO   O77    5   4.419   6.711   0.066  0.3260 -0.3068  0.1633
    1CHTO  C118    6   4.463   6.653   0.192  0.4305  1.0657 -0.4301
    1CHTO  H222    7   4.444   6.704   0.288  0.2549  1.3597 -0.6208
    1CHTO  C125    8   4.396   6.511   0.191 -0.5007 -0.1953 -0.0056
    1CHTO   O84    9   4.263   6.528   0.235  0.7188  0.2711  0.3739
    1CHTO  H205   10   4.242   6.449   0.281 -0.7875  0.2114 -0.3897
    1CHTO  C114   11   4.617   6.650   0.167  0.0013  0.0824 -0.1502
    1CHTO  H218   12   4.638   6.590   0.079  0.4583 -0.2962  0.2131
    1CHTO  C116   13   4.678   6.793   0.145  0.1936 -0.3608 -0.1126
    1CHTO  H220   14   4.679   6.854   0.238 -1.3006  0.9330 -0.9216
    1CHTO   O79   15   4.822   6.785   0.132  0.1019  0.3057  0.2052
    1CHTO  H201   16   4.853   6.727   0.198 -1.5556  1.2499  1.8616
    1CHTO  C120   17   4.606   6.865   0.020 -0.1807 -0.5123  0.2683
    1CHTO  H224   18   4.640   6.809  -0.070 -0.9706  1.1686 -1.1003
    1CHTO   N21   19   4.649   7.005  -0.010  0.0603  0.4102  0.4552
    1CHTO  H211   20   4.679   7.063   0.076  0.5037  1.4881 -0.4146
    1CHTO  H212   21   4.574   7.049  -0.074 -1.0048 -1.9113  0.0686
    1CHTO   O75   22   4.663   6.583   0.287  0.2468  0.4724 -0.6726
    1CHTO  C112   23   4.770   6.474   0.260 -0.4878 -0.4220  0.6286
    1CHTO  H216   24   4.817   6.501   0.165 -1.6689 -0.0339  0.1440
    1CHTO   O73   25   4.701   6.350   0.252 -0.2663 -0.6845 -0.2394
    1CHTO  C113   26   4.779   6.237   0.222  0.6036  0.0323  0.5894
    1CHTO  H217   27   4.827   6.252   0.123  0.8212 -2.1467  0.3296
    1CHTO  C124   28   4.677   6.118   0.209 -0.0526 -1.0171 -0.5307
    1CHTO   O83   29   4.606   6.119   0.086 -0.4119 -0.2002  0.0868
    1CHTO  H204   30   4.595   6.033   0.048 -1.3002  0.6084 -1.5378
    1CHTO  C109   31   4.883   6.222   0.332 -0.6587 -0.5083  0.1064
    1CHTO  H213   32   4.837   6.176   0.421  0.4028 -1.5651  0.1263
    1CHTO  C110   33   4.969   6.352   0.356  0.7746 -0.9178 -0.3878
    1CHTO  H214   34   5.022   6.370   0.262 -0.1644  0.8081 -0.6007
    1CHTO   O78   35   5.056   6.315   0.466 -0.0360  0.1635 -0.0503
    1CHTO  H200   36   5.139   6.357   0.476 -0.0827  0.3901 -0.5717
    1CHTO  C111   37   4.873   6.472   0.377 -1.4392  0.0899 -0.3456
    1CHTO  H215   38   4.817   6.458   0.471 -2.2104  2.6819 -0.3614
    1CHTO   N19   39   4.947   6.603   0.390 -0.3076  0.0615 -0.1402
    1CHTO  H207   40   4.985   6.631   0.292  0.3132 -3.5580 -0.9959
    1CHTO  H208   41   5.040   6.583   0.440 -1.1701 -1.4854  0.8518
    1CHTO   O74   42   4.983   6.125   0.274  0.1036  0.4178 -0.2364
    1CHTO  C115   43   5.011   5.988   0.373 -0.3969 -0.2829  0.4400
    1CHTO  H219   44   4.981   6.008   0.476 -0.5995  1.3774  0.0804
    1CHTO   O76   45   4.932   5.866   0.325 -0.2791  0.6353 -0.5109
    1CHTO  C122   46   4.950   5.826   0.193  0.5003 -0.6548  0.7717
    1CHTO  H226   47   4.873   5.882   0.139  0.4866  0.1953  1.6449
    1CHTO  C126   48   4.918   5.672   0.186 -0.2920 -0.3764  0.1826
    1CHTO   O85   49   4.908   5.625   0.050 -0.2109  0.5789 -0.0513
    1CHTO  H206   50   4.823   5.590   0.031  0.2992 -0.5975 -0.2217
    1CHTO  C121   51   5.096   5.848   0.137 -0.2924  0.5197 -0.0867
    1CHTO  H225   52   5.125   5.769   0.065 -1.6127 -0.2270  0.1788
    1CHTO   O81   53   5.114   5.980   0.082  0.3472 -0.2780 -0.0182
    1CHTO  H202   54   5.112   5.972  -0.012  0.3655  0.4032 -0.0842
    1CHTO  C119   55   5.198   5.847   0.262 -0.9245  0.6526 -0.2196
    1CHTO  H223   56   5.199   5.748   0.307  1.8956  0.7312 -0.0588
    1CHTO  C117   57   5.166   5.957   0.369 -0.3787 -0.4613  0.2907
    1CHTO  H221   58   5.207   6.056   0.348  1.4728 -0.7294  2.4173
    1CHTO   N20   59   5.226   5.922   0.502 -0.4597 -0.4768  0.1860
    1CHTO  H209   60   5.165   5.855   0.561  2.4444 -0.7524  3.0062
    1CHTO  H210   61   5.253   6.014   0.553  0.0246 -1.1163  1.1051
    1CHTO   O80   62   5.336   5.854   0.217 -0.5786  0.0321 -0.0930
    1CHTO  C103   63   5.424   5.726   0.225  0.4420  0.4288  0.2946
    1CHTO  H190   64   5.403   5.673   0.318  1.2290  0.0391  0.2519
    1CHTO  C101   65   5.404   5.621   0.109  0.2054 -0.2409  0.3322
    1CHTO  H188   66   5.394   5.679   0.018  2.5485 -0.9441 -0.3991
    1CHTO   O68   67   5.271   5.553   0.133 -0.0520 -0.0543  0.5916
    1CHTO  H168   68   5.218   5.526   0.061 -0.6386 -1.0488  1.3824
    1CHTO   C99   69   5.529   5.518   0.108 -0.1725 -0.0254  0.0204
    1CHTO  H186   70   5.498   5.435   0.176  0.1257 -1.5809 -1.6832
    1CHTO   N17   71   5.539   5.446  -0.029 -0.1974 -0.1445  0.2281
    1CHTO  H174   72   5.528   5.340  -0.009  1.1603 -0.3325  0.0495
    1CHTO  H175   73   5.642   5.464  -0.058  0.2553  0.5745  2.1879
    1CHTO   C97   74   5.661   5.581   0.169 -0.0384 -0.5764 -0.3057
    1CHTO  H184   75   5.704   5.627   0.079  0.9708 -2.6837 -0.9301
    1CHTO   O64   76   5.652   5.671   0.276 -0.8121 -0.3928  0.0114
    1CHTO  C104   77   5.568   5.780   0.244 -0.5406  0.1412 -0.2562
    1CHTO  H191   78   5.602   5.829   0.153  0.2066  0.1276  0.0148
    1CHTO  C108   79   5.571   5.891   0.353  0.1840  0.1584  0.2279
    1CHTO   O71   80   5.696   5.958   0.346 -0.2565 -0.7083 -0.2718
    1CHTO  H171   81   5.737   5.969   0.430  0.5809 -0.9299 -0.6423
    1CHTO   O62   82   5.748   5.469   0.200  0.3418 -1.0715 -0.0965
    1CHTO   C91   83   5.882   5.466   0.140  0.8183 -0.0084  0.1547
    1CHTO  H178   84   5.887   5.501   0.037  1.5629 -2.1945 -0.5772
    1CHTO   C92   85   5.910   5.312   0.131 -0.4952  0.2115  0.2030
    1CHTO  H179   86   5.882   5.266   0.226  0.6324  1.5534  1.2100
    1CHTO   O66   87   5.819   5.252   0.036  0.1025 -0.4012  0.2147
    1CHTO  H166   88   5.808   5.160   0.050  3.4172 -0.9097 -0.0559
    1CHTO   C93   89   6.064   5.274   0.094 -0.4269 -0.6591  0.2255
    1CHTO  H180   90   6.083   5.299  -0.011  0.2774  1.9116  0.9495
    1CHTO   N16   91   6.089   5.127   0.109  0.0337  0.6162  0.1553
    1CHTO  H172   92   6.072   5.094   0.210  2.2802  1.3869  0.8073
    1CHTO  H173   93   6.047   5.059   0.037 -0.0272  1.2976 -0.4644
    1CHTO   C94   94   6.164   5.355   0.188 -0.0516  0.0889 -0.1834
    1CHTO  H181   95   6.148   5.332   0.294  0.8457  1.2723  0.2172
    1CHTO   O61   96   6.126   5.494   0.185  0.3268  0.0762  0.4090
    1CHTO   C95   97   5.997   5.529   0.228  0.1480  0.4914 -0.2338
    1CHTO  H182   98   5.987   5.494   0.331 -0.3921 -1.0777 -0.8111
    1CHTO  C106   99   5.994   5.687   0.254  0.3106  0.0900 -0.3997
    1CHTO   O69  100   6.011   5.777   0.144  0.4035 -0.0557  0.0878
    1CHTO  H169  101   5.943   5.772   0.079  0.4783 -0.2873  0.0279
    1CHTO   O63  102   6.303   5.327   0.148 -0.5583  0.8048 -0.1008
    1CHTO   C96  103   6.426   5.401   0.215 -0.2757  0.2946 -0.7827
    1CHTO  H183  104   6.383   5.465   0.292  1.5834  0.0478  0.4967
    1CHTO   C98  105   6.505   5.504   0.128 -0.1605 -0.1035 -0.2569
    1CHTO  H185  106   6.436   5.575   0.080 -1.2255 -0.1651  1.1556
    1CHTO   O67  107   6.599   5.584   0.207  0.2420  0.1797 -0.4409
    1CHTO  H167  108   6.568   5.670   0.226 -0.7084 -0.4837  1.0938
    1CHTO  C102  109   6.582   5.423   0.013 -0.4050  0.3216 -0.8291
    1CHTO  H189  110   6.668   5.488  -0.009  0.7285 -0.4734  1.0717
    1CHTO   N18  111   6.507   5.405  -0.115  0.4831 -0.4820  0.0084
    1CHTO  H176  112   6.493   5.492  -0.177 -1.3495 -2.4060 -2.3974
    1CHTO  H177  113   6.413   5.354  -0.099  0.2649  0.0408  0.4345
    1CHTO  C105  114   6.657   5.298   0.073 -0.2312  0.1816 -0.2584
    1CHTO  H192  115   6.622   5.212   0.015 -2.4507  0.2308  0.9360
    1CHTO   O65  116   6.646   5.268   0.214  0.0780 -0.2800 -0.4469
    1CHTO  C100  117   6.518   5.287   0.277 -0.3133  0.5339  0.8829
    1CHTO  H187  118   6.459   5.195   0.267  0.8979 -0.1373 -0.2528
    1CHTO  C107  119   6.540   5.311   0.428 -0.6315 -0.8646  0.3347
    1CHTO   O70  120   6.588   5.203   0.496 -0.0451 -0.1645 -0.0114
    1CHTO  H170  121   6.529   5.131   0.510  0.6639 -1.0270 -1.3987
    1CHTO   O57  122   6.810   5.328   0.042  0.2322 -0.0604  0.3880
    1CHTO   C85  123   6.915   5.238   0.046 -0.0815 -0.1252  0.1447
    1CHTO  H157  124   6.877   5.159  -0.022 -0.5125  2.0497 -2.2228
    1CHTO   C83  125   6.936   5.184   0.189 -0.0641 -0.2715  0.3994
    1CHTO  H155  126   6.843   5.134   0.218 -0.8396  0.0420 -1.4546
    1CHTO   O56  127   6.966   5.294   0.279 -0.1470 -0.2882 -0.7918
    1CHTO  H135  128   6.943   5.263   0.364 -0.4113 -0.0444 -0.7747
    1CHTO   C81  129   7.049   5.077   0.177 -0.3656 -0.3738 -0.3885
    1CHTO  H153  130   7.011   5.011   0.099 -1.4264 -1.2383  0.8548
    1CHTO   N14  131   7.063   4.988   0.292 -0.3379 -0.2580  0.2004
    1CHTO  H141  132   6.970   4.943   0.321 -0.5378 -0.3215 -0.5292
    1CHTO  H142  133   7.135   4.910   0.279 -1.3456 -0.8419 -2.2457
    1CHTO   C79  134   7.185   5.135   0.129  0.1066  0.6249  0.4311
    1CHTO  H151  135   7.246   5.053   0.090  0.3319  0.9093  0.1819
    1CHTO   O52  136   7.160   5.205   0.008 -0.0356  0.1825 -0.5082
    1CHTO   C86  137   7.051   5.297  -0.002  0.1147 -0.1838  0.1245
    1CHTO  H158  138   7.070   5.387   0.060  2.8276 -0.5103 -0.1532
    1CHTO   C90  139   7.044   5.353  -0.149  0.7325  0.1072  0.0993
    1CHTO   O60  140   7.166   5.414  -0.194  0.6408  0.7363 -0.0813
    1CHTO  H138  141   7.233   5.349  -0.185  0.6655  0.9228  1.2242
    1CHTO   O50  142   7.268   5.205   0.224  0.1445 -0.0112 -0.5208
    1CHTO   C73  143   7.403   5.258   0.219 -0.3308  0.7711  0.2486
    1CHTO  H145  144   7.427   5.296   0.118  2.1400 -0.1362  0.4592
    1CHTO   C74  145   7.501   5.142   0.260 -0.2958  0.3944  0.1252
    1CHTO  H146  146   7.481   5.062   0.187  1.0687  0.0237  0.1323
    1CHTO   O54  147   7.639   5.183   0.236 -0.0560  0.1908  0.4544
    1CHTO  H133  148   7.702   5.126   0.275  1.2612  1.3704  0.1094
    1CHTO   C75  149   7.466   5.096   0.409  0.5092 -0.3259 -0.3649
    1CHTO  H147  150   7.376   5.034   0.402  0.7426 -0.8169  0.8679
    1CHTO   N13  151   7.544   4.984   0.457  0.4108  0.8171  0.2293
    1CHTO  H139  152   7.489   4.937   0.536  0.3069 -0.0217 -0.3404
    1CHTO  H140  153   7.642   5.010   0.494  0.9941  0.4743 -1.0412
    1CHTO   C76  154   7.444   5.225   0.505 -0.1567  0.2223  0.8092
    1CHTO  H148  155   7.542   5.263   0.536  0.6591 -1.1735 -0.0248
    1CHTO   O49  156   7.366   5.336   0.448  0.1223 -0.1272 -0.3122
    1CHTO   C77  157   7.417   5.371   0.323  0.1766 -0.6453  0.6013
    1CHTO  H149  158   7.523   5.394   0.337 -0.1120  0.8008  0.4689
    1CHTO   C88  159   7.357   5.507   0.286 -0.0671  0.0746  0.0585
    1CHTO   O58  160   7.398   5.615   0.402  0.1757  0.4434  0.1674
    1CHTO  H136  161   7.365   5.600   0.488 -0.0012  0.3523  0.0840
    1CHTO   O51  162   7.362   5.164   0.649  0.0817  0.4333  0.0491
    1CHTO   C78  163   7.282   5.264   0.730 -0.4580  0.2703 -0.2033
    1CHTO  H150  164   7.239   5.346   0.668 -1.9649  0.3915  0.9701
    1CHTO   C80  165   7.366   5.321   0.845 -0.2934  0.5519 -0.1490
    1CHTO  H152  166   7.400   5.239   0.912 -1.4857  0.4939  0.3822
    1CHTO   O55  167   7.491   5.372   0.797  0.4261 -0.1000 -0.4668
    1CHTO  H134  168   7.559   5.307   0.800 -0.2438 -0.7756  0.4453
    1CHTO   C84  169   7.285   5.424   0.933 -0.4154 -0.1854 -0.4883
    1CHTO  H156  170   7.259   5.504   0.864 -0.6897  0.6791  0.6038
    1CHTO   N15  171   7.363   5.478   1.047  0.4821  0.4926  0.3953
    1CHTO  H143  172   7.438   5.409   1.079 -2.3255 -2.5917  0.5875
    1CHTO  H144  173   7.416   5.567   1.022  2.2802 -0.4967  0.5995
    1CHTO   C87  174   7.156   5.362   0.994  0.1346  0.3670 -0.0502
    1CHTO  H159  175   7.173   5.291   1.075  0.5137 -1.5425 -1.7416
    1CHTO   O53  176   7.082   5.284   0.875  0.2125  0.1750  0.2681
    1CHTO   C82  177   7.161   5.194   0.793 -0.5109 -0.0548 -0.0086
    1CHTO  H154  178   7.200   5.109   0.849 -2.2670 -2.0013 -1.6475
    1CHTO   C89  179   7.063   5.141   0.685 -0.3739 -0.2279  0.4607
    1CHTO   O59  180   7.015   5.228   0.580 -0.0269  0.1305 -0.5399
    1CHTO  H137  181   6.947   5.287   0.606 -1.0038 -0.6019 -1.3741
    1CHTO   O45  182   7.047   5.490   1.047  0.3702 -0.2764 -0.5395
    1CHTO   C67  183   7.048   5.618   0.988  0.2463 -1.1675  0.2369
    1CHTO  H124  184   7.145   5.667   0.979 -1.3051  1.7880 -1.0500
    1CHTO   C65  185   6.988   5.602   0.841  0.1127  0.0021  0.4513
    1CHTO  H122  186   7.047   5.525   0.793  1.2711  1.5681 -0.6840
    1CHTO   O44  187   7.007   5.721   0.773  0.1672 -0.5580  0.3572
    1CHTO  H102  188   7.066   5.718   0.700 -0.2628 -0.1284 -0.0132
    1CHTO   C63  189   6.841   5.546   0.856  0.2365  0.3721  0.1297
    1CHTO  H120  190   6.841   5.461   0.925  0.3502  1.7358  1.8580
    1CHTO   N11  191   6.776   5.491   0.728 -0.3948 -0.1651  0.7974
    1CHTO  H108  192   6.836   5.421   0.674 -0.5833 -0.1761  0.6032
    1CHTO  H109  193   6.685   5.437   0.743 -0.0734 -0.5570  1.3192
    1CHTO   C61  194   6.754   5.654   0.931 -0.1906  0.1312  0.5998
    1CHTO  H118  195   6.661   5.600   0.953 -0.5053  0.4656  0.0860
    1CHTO   O40  196   6.813   5.695   1.062 -0.2759  0.5814 -0.0532
    1CHTO   C68  197   6.958   5.718   1.073 -0.6908  0.3584  0.6532
    1CHTO  H125  198   6.981   5.695   1.179  0.4585 -0.9596  0.1353
    1CHTO   C72  199   6.992   5.866   1.052 -0.1888  0.4690  0.5659
    1CHTO   O48  200   7.129   5.895   1.090  0.6107  0.1108 -0.3484
    1CHTO  H105  201   7.190   5.855   1.031 -1.3227 -3.1671 -0.2771
    1CHTO   O38  202   6.733   5.775   0.848 -0.4341  0.4531 -0.1581
    1CHTO   C55  203   6.624   5.863   0.889  0.8537 -0.4287 -0.5972
    1CHTO  H112  204   6.621   5.865   0.999 -1.2826  0.9087 -0.6463
    1CHTO   C56  205   6.487   5.805   0.828 -0.6410 -0.2125  0.4920
    1CHTO  H113  206   6.510   5.820   0.722 -0.8145 -0.0565  0.4752
    1CHTO   O42  207   6.471   5.663   0.854 -0.2807  0.3739  0.0391
    1CHTO  H100  208   6.420   5.630   0.925  0.5113 -2.3492 -0.5912
    1CHTO   C57  209   6.367   5.893   0.871  0.0613  0.0952 -0.0009
    1CHTO  H114  210   6.356   5.864   0.975 -0.6352  0.1754 -0.0532
    1CHTO   N10  211   6.242   5.847   0.797 -0.4589 -0.1305  0.2548
    1CHTO  H106  212   6.148   5.861   0.849  0.4282 -0.3130  1.9367
    1CHTO  H107  213   6.238   5.894   0.700  0.1836 -1.0229 -0.1982
    1CHTO   C58  214   6.390   6.045   0.859 -0.3723 -0.5102  0.0146
    1CHTO  H115  215   6.374   6.074   0.753  1.8606  0.4839 -0.0797
    1CHTO   O37  216   6.519   6.094   0.895 -0.6658  0.0034  0.0457
    1CHTO   C59  217   6.629   6.017   0.836  0.3567 -0.0983  0.0261
    1CHTO  H116  218   6.626   6.027   0.727  2.6413  0.0447 -0.0605
    1CHTO   C70  219   6.762   6.081   0.874  0.0218  0.2844  0.4420
    1CHTO   O46  220   6.765   6.226   0.873  0.5472 -0.6062 -0.0115
    1CHTO  H103  221   6.693   6.251   0.927  0.0186 -0.1850 -0.9194
    1CHTO   O39  222   6.280   6.115   0.948 -0.4336 -0.0781  0.1183
    1CHTO   C60  223   6.271   6.259   0.936  0.7962  0.2529 -0.2404
    1CHTO  H117  224   6.372   6.299   0.948  1.7574 -2.4810  1.1088
    1CHTO   C62  225   6.220   6.293   0.787  0.8532 -0.1432 -0.4670
    1CHTO  H119  226   6.301   6.255   0.721  0.2527  0.2682 -1.4612
    1CHTO   O43  227   6.081   6.250   0.760  0.1721 -0.5506 -0.1322
    1CHTO  H101  228   6.077   6.213   0.674  2.4557  1.0440 -0.9817
    1CHTO   C66  229   6.241   6.460   0.779 -0.0380 -0.1492  0.4655
    1CHTO  H123  230   6.343   6.484   0.806 -0.2988 -1.4373  2.7345
    1CHTO   N12  231   6.228   6.505   0.638  0.5830 -0.2281 -0.0111
    1CHTO  H110  232   6.318   6.548   0.598  0.4490  0.6698  0.6330
    1CHTO  H111  233   6.177   6.431   0.577  0.0559 -0.0551  0.2094
    1CHTO   C69  234   6.154   6.533   0.884  0.0801  0.1320  0.4373
    1CHTO  H126  235   6.049   6.525   0.847  0.2651 -1.3587  0.1928
    1CHTO   O41  236   6.171   6.471   1.029 -0.0229 -0.0100 -0.3203
    1CHTO   C64  237   6.180   6.326   1.047  0.1317 -0.5506  0.0378
    1CHTO  H121  238   6.078   6.281   1.037 -0.7933  1.4742  0.1984
    1CHTO   C71  239   6.244   6.289   1.183  0.4592 -0.7647 -0.1201
    1CHTO   O47  240   6.159   6.341   1.289  0.0999 -0.6920 -0.3902
    1CHTO  H104  241   6.189   6.304   1.370 -0.3856  0.7170  0.4403
    1CHTO   O34  242   6.195   6.699   0.893  0.0445 -0.3100 -0.4036
    1CHTO   C49  243   6.153   6.841   0.885 -0.0638  0.0900  0.1502
    1CHTO   H91  244   6.054   6.852   0.929  0.0731  0.1572  0.4479
    1CHTO   C47  245   6.143   6.879   0.737  0.3261  0.5442 -0.3295
    1CHTO   H89  246   6.111   6.985   0.738  1.6547  0.9455  1.0770
    1CHTO   O33  247   6.040   6.797   0.679 -0.5375 -0.0543 -0.2839
    1CHTO   H70  248   6.050   6.794   0.585 -0.3445  1.5321 -0.3327
    1CHTO   C45  249   6.289   6.877   0.667  0.6552  0.2407  0.0264
    1CHTO   H87  250   6.325   6.775   0.684  3.0506  1.1277  0.4628
    1CHTO    N8  251   6.301   6.902   0.522 -0.3148 -0.6657  0.2296
    1CHTO   H75  252   6.403   6.891   0.489 -0.3664 -0.4012 -0.0221
    1CHTO   H76  253   6.270   7.005   0.516 -1.8921 -1.2950 -3.8857
    1CHTO   C43  254   6.381   6.975   0.752  0.5464  0.8341  1.1051
    1CHTO   H85  255   6.482   6.956   0.716  1.1266  1.3227  2.4695
    1CHTO   O29  256   6.374   6.954   0.898  0.4305 -0.4715 -0.1326
    1CHTO   C50  257   6.245   6.936   0.961 -0.4113 -0.0280 -0.9105
    1CHTO   H92  258   6.263   6.894   1.061 -0.7640 -1.1259 -1.2951
    1CHTO   C54  259   6.177   7.075   0.980 -0.4892  0.0214 -0.2194
    1CHTO   O36  260   6.042   7.086   1.038  0.7052 -0.9141 -0.0556
    1CHTO   H72  261   5.975   7.112   0.978 -0.4865 -2.4814  0.5500
    1CHTO   O27  262   6.351   7.110   0.726 -0.4411  0.2340  0.5970
    1CHTO   C37  263   6.391   7.248   0.741 -0.5694  0.0184  0.1166
    1CHTO   H79  264   6.381   7.277   0.847  1.0172 -0.2178  0.3523
    1CHTO   C38  265   6.540   7.265   0.704 -0.2095  0.4898  0.1521
    1CHTO   H80  266   6.551   7.220   0.605 -2.2367 -0.3090  0.2649
    1CHTO   O31  267   6.618   7.188   0.794  0.1912 -0.1068 -0.2917
    1CHTO   H68  268   6.591   7.099   0.783 -1.0181  0.4386 -1.8602
    1CHTO   C39  269   6.585   7.420   0.702 -0.5100 -0.3252  0.0395
    1CHTO   H81  270   6.587   7.450   0.807 -0.8519  0.6777 -0.2378
    1CHTO    N7  271   6.725   7.439   0.647 -0.3178 -0.0205  0.1225
    1CHTO   H73  272   6.755   7.542   0.634  1.4411 -0.0716  3.1469
    1CHTO   H74  273   6.800   7.386   0.703  0.0267 -2.0022 -2.1255
    1CHTO   C40  274   6.478   7.516   0.628  0.3661  0.2481 -0.3392
    1CHTO   H82  275   6.496   7.501   0.521  0.1308 -1.3467 -0.1772
    1CHTO   O26  276   6.340   7.484   0.665  0.5093 -0.3488 -0.7391
    1CHTO   C41  277   6.305   7.342   0.653  0.3677 -0.0711 -0.8481
    1CHTO   H83  278   6.317   7.312   0.548  2.9096 -0.5072 -0.4742
    1CHTO   C52  279   6.153   7.329   0.690 -0.2029 -0.2459 -0.6121
    1CHTO   O35  280   6.057   7.426   0.601  0.2851  0.3179  0.3308
    1CHTO   H71  281   6.095   7.512   0.597  2.1196 -0.5267 -1.1956
    1CHTO   O28  282   6.499   7.655   0.663 -0.0982 -0.3440 -0.1786
    1CHTO   C42  283   6.496   7.759   0.563  0.2971  0.2322 -0.0463
    1CHTO   H84  284   6.538   7.710   0.476 -0.1583 -1.8628  0.8975
    1CHTO   C44  285   6.593   7.878   0.596  0.3060  0.2018  0.1555
    1CHTO   H86  286   6.577   7.906   0.700 -0.9625  0.9039 -0.2280
    1CHTO   O32  287   6.728   7.829   0.597  0.1577 -0.3938 -0.4856
    1CHTO   H69  288   6.765   7.811   0.681 -2.8266  1.6467  1.3904
    1CHTO   C48  289   6.577   8.005   0.513 -0.6815  0.4080 -0.8842
    1CHTO   H90  290   6.620   7.982   0.415  2.4791 -0.5350  0.6600
    1CHTO    N9  291   6.673   8.117   0.560  0.9255  0.1813  0.0699
    1CHTO   H77  292   6.771   8.095   0.519  0.3511 -0.9568 -0.7328
    1CHTO   H78  293   6.658   8.218   0.524  0.9889  0.6750  1.3859
    1CHTO   C51  294   6.428   8.044   0.500  0.0269  0.1245 -0.2589
    1CHTO   H93  295   6.394   8.052   0.604  0.2141  1.2503 -0.2712
    1CHTO   O30  296   6.372   7.934   0.431  0.5190 -0.0511  0.3399
    1CHTO   C46  297   6.355   7.821   0.518 -0.2204  0.1642  0.5640
    1CHTO   H88  298   6.295   7.850   0.604  2.8478 -0.0869  2.8891
    1CHTO   C53  299   6.282   7.712   0.440 -0.1729 -0.0723 -0.4910
    1CHTO   O72  300   6.145   7.749   0.433  0.4962  0.2411 -0.0406
    1CHTO  H199  301   6.106   7.766   0.517  1.2166  1.4796  0.0411
    1CHTO   O22  302   6.401   8.172   0.433  0.1769 -0.3913 -0.1577
    1CHTO   C31  303   6.369   8.183   0.287 -1.3976  0.4259  0.0644
    1CHTO   H59  304   6.366   8.293   0.270  1.3921  0.4962 -0.1184
    1CHTO   C29  305   6.482   8.131   0.195  0.1983  0.3564 -0.6446
    1CHTO   H57  306   6.511   8.027   0.219 -0.8084  0.1174 -0.4634
    1CHTO   O21  307   6.598   8.210   0.216  0.1868 -0.2916  0.1405
    1CHTO   H37  308   6.612   8.269   0.144  1.1143 -0.1764  0.4029
    1CHTO   C27  309   6.442   8.125   0.039 -0.3461  0.1437  0.2506
    1CHTO   H55  310   6.428   8.227   0.002 -0.6844  0.6731  1.8266
    1CHTO    N5  311   6.527   8.044  -0.057  0.0697 -0.4888  0.2875
    1CHTO   H43  312   6.545   8.094  -0.151  1.7375 -1.1411  0.2408
    1CHTO   H44  313   6.505   7.938  -0.061 -1.1687 -0.2257 -0.1673
    1CHTO   C25  314   6.298   8.063   0.036  0.2686  0.1464  0.1836
    1CHTO   H53  315   6.296   7.968   0.091 -3.8997 -0.0315 -0.1678
    1CHTO   O17  316   6.208   8.143   0.117 -0.1595  0.1223 -0.1992
    1CHTO   C32  317   6.229   8.135   0.256 -0.4689  0.3781  0.4105
    1CHTO   H60  318   6.226   8.030   0.284 -0.5192  0.4988  0.8614
    1CHTO   C36  319   6.118   8.223   0.316 -0.4659 -0.5102 -1.0324
    1CHTO   O25  320   6.092   8.209   0.451 -0.1974 -0.1279 -0.1473
    1CHTO   H40  321   6.164   8.218   0.511 -1.3091 -0.5724  1.2932
    1CHTO   O15  322   6.227   8.056  -0.103 -0.9211  0.0259  0.2416
    1CHTO   C19  323   6.140   7.983  -0.185  0.1479 -0.0766  0.4147
    1CHTO   H47  324   6.044   7.989  -0.132  0.4160 -3.2359  1.3652
    1CHTO   C20  325   6.114   8.042  -0.327  0.4530  0.5447  0.2407
    1CHTO   H48  326   6.207   8.051  -0.384 -0.3502  3.8244 -0.6470
    1CHTO   O19  327   6.073   8.180  -0.303 -0.1875 -0.8593 -0.0057
    1CHTO   H35  328   6.064   8.223  -0.386  2.6401  3.1355  1.5950
    1CHTO   C21  329   6.012   7.950  -0.408 -0.5275 -0.3370  0.1633
    1CHTO   H49  330   5.917   7.955  -0.355 -0.4785 -3.0767  0.5557
    1CHTO    N4  331   5.991   7.999  -0.549 -0.0898  0.0871 -0.6992
    1CHTO   H41  332   5.916   7.942  -0.602 -0.5867 -2.7038  2.8466
    1CHTO   H42  333   5.959   8.102  -0.542 -0.2767 -0.1587  3.7172
    1CHTO   C22  334   6.052   7.801  -0.403 -0.1207  0.6635  0.0550
    1CHTO   H50  335   6.138   7.784  -0.468 -1.1635 -0.4155 -1.0737
    1CHTO   O14  336   6.070   7.760  -0.264 -0.1616 -0.1873  0.3820
    1CHTO   C23  337   6.175   7.828  -0.189  0.7594  0.4130  0.3365
    1CHTO   H51  338   6.270   7.809  -0.242  1.6216  4.9437  0.0742
    1CHTO   C34  339   6.169   7.761  -0.054 -0.0105 -0.3135 -0.0187
    1CHTO   O23  340   6.185   7.617  -0.051 -0.3086 -0.6521 -0.1623
    1CHTO   H38  341   6.100   7.580  -0.034 -1.1255  1.3948  0.4047
    1CHTO   O16  342   5.954   7.713  -0.459 -0.0359 -0.1573  0.1868
    1CHTO   C24  343   6.002   7.571  -0.477  0.4898  0.4616 -0.0340
    1CHTO   H52  344   6.084   7.548  -0.409 -0.7941  0.0878  1.4175
    1CHTO   C26  345   6.058   7.554  -0.620  0.1887  0.7383 -0.8418
    1CHTO   H54  346   5.977   7.574  -0.692 -0.6214 -0.7346 -0.3609
    1CHTO   O20  347   6.169   7.640  -0.647 -0.4496 -0.0028  0.1952
    1CHTO   H36  348   6.149   7.699  -0.717  0.3074  2.1273  1.7407
    1CHTO   C30  349   6.104   7.407  -0.644  0.1606 -0.2009  0.3219
    1CHTO   H58  350   6.202   7.392  -0.595 -0.2563  0.6452  1.4306
    1CHTO    N6  351   6.135   7.378  -0.790  0.1557  0.1919 -0.5781
    1CHTO   H45  352   6.180   7.464  -0.835 -0.1864  0.6132 -0.1231
    1CHTO   H46  353   6.196   7.291  -0.809  0.7168  0.5032 -0.1990
    1CHTO   C33  354   6.000   7.304  -0.594  0.2859 -0.3231  0.0368
    1CHTO   H61  355   5.907   7.299  -0.653  1.6233 -0.9237 -2.0916
    1CHTO   O18  356   5.966   7.342  -0.459 -0.4189  0.4545 -0.1611
    1CHTO   C28  357   5.888   7.466  -0.446  0.0319 -0.2293  0.4361
    1CHTO   H56  358   5.807   7.479  -0.517 -1.0790 -0.3774  1.6567
    1CHTO   C35  359   5.836   7.496  -0.307  0.0738  0.7579 -0.5804
    1CHTO   O24  360   5.763   7.387  -0.251  0.3737 -0.2029 -0.1067
    1CHTO   H39  361   5.671   7.379  -0.269 -0.1006 -0.6701  2.3694
    1CHTO    O9  362   6.054   7.168  -0.605  0.4810  0.0304  0.5718
    1CHTO   C13  363   5.978   7.053  -0.479  1.0052 -0.0756 -0.6222
    1CHTO   H26  364   5.908   7.115  -0.420  1.3153  1.7551 -2.1433
    1CHTO   C11  365   6.097   6.998  -0.391  0.2590 -0.2394 -0.3814
    1CHTO   H24  366   6.141   7.077  -0.328  1.1601 -1.8351  1.0453
    1CHTO    O8  367   6.210   6.940  -0.463  0.3112 -0.2327  0.3649
    1CHTO    H3  368   6.264   6.887  -0.406  0.0633  0.5562  1.3502
    1CHTO    C9  369   6.029   6.894  -0.298  0.0556 -0.1162  0.1548
    1CHTO   H22  370   5.951   6.950  -0.244 -1.8307 -1.8706 -0.7273
    1CHTO    N2  371   6.118   6.858  -0.180  0.6021 -0.5290  0.9526
    1CHTO   H10  372   6.129   6.953  -0.131  1.8990 -0.2725  0.1874
    1CHTO   H11  373   6.077   6.793  -0.104 -2.1308 -0.6435 -0.5372
    1CHTO    C7  374   5.980   6.770  -0.384  0.2940 -0.5925 -0.0224
    1CHTO   H20  375   5.884   6.740  -0.337  0.2344  1.1129  0.9986
    1CHTO    O4  376   5.949   6.804  -0.526 -0.3706 -0.0066 -0.4993
    1CHTO   C14  377   5.890   6.933  -0.546 -0.2471  0.6208 -0.0856
    1CHTO   H27  378   5.785   6.937  -0.510 -1.5329 -0.6301 -3.4305
    1CHTO   C18  379   5.881   6.950  -0.700 -0.1727  0.1128 -0.4564
    1CHTO   O13  380   5.751   6.966  -0.742  0.2742  0.3421 -0.0718
    1CHTO    H7  381   5.705   6.887  -0.721  1.1637 -0.0768  0.3245
    1CHTO    O2  382   6.096   6.652  -0.384 -0.6573 -0.4161 -0.2593
    1CHTO    C1  383   6.051   6.521  -0.420 -0.2754  0.5312  0.2719
    1CHTO   H14  384   5.984   6.530  -0.509 -1.9046 -2.7220  1.0756
    1CHTO    C2  385   5.972   6.436  -0.308  0.1440  0.6719  0.5246
    1CHTO   H15  386   6.035   6.452  -0.219 -0.1484 -1.0776  1.0533
    1CHTO    O6  387   5.848   6.500  -0.285  0.3783 -0.4956 -0.1210
    1CHTO    H1  388   5.837   6.572  -0.344  1.8019  0.0891  0.3153
    1CHTO    C3  389   5.960   6.287  -0.345  0.9310  0.7960 -0.2317
    1CHTO   H16  390   5.882   6.270  -0.421  0.7686 -0.1221  0.1282
    1CHTO    N1  391   5.901   6.210  -0.224  0.6103  0.3267 -0.4607
    1CHTO    H8  392   5.800   6.232  -0.193  0.3316 -1.6329  0.1209
    1CHTO    H9  393   5.929   6.106  -0.220  1.2227  0.5594  1.6346
    1CHTO    C4  394   6.088   6.224  -0.393  0.1709 -1.0230 -0.7058
    1CHTO   H17  395   6.163   6.227  -0.313  0.0701 -0.0490 -0.6417
    1CHTO    O1  396   6.135   6.297  -0.508 -0.0434 -0.1201  0.6250
    1CHTO    C5  397   6.170   6.433  -0.474 -0.6975  0.5345  0.1324
    1CHTO   H18  398   6.246   6.433  -0.396 -0.7030 -2.7111  0.2152
    1CHTO   C16  399   6.217   6.500  -0.608 -0.5278  0.6605  0.0385
    1CHTO   O11  400   6.279   6.616  -0.558 -0.2433 -0.2467  0.9153
    1CHTO    H5  401   6.328   6.656  -0.628 -0.5555  1.3565  1.5766
    1CHTO    O3  402   6.066   6.088  -0.440 -0.2485  0.5317 -0.0565
    1CHTO    C6  403   6.181   6.010  -0.405  0.3416  0.4660  0.5886
    1CHTO   H19  404   6.273   6.062  -0.378  1.1793 -0.9241  0.4574
    1CHTO    C8  405   6.157   5.929  -0.271 -0.3684  0.1654  0.5708
    1CHTO   H21  406   6.061   5.881  -0.288  0.3877 -0.8257 -0.9912
    1CHTO    O7  407   6.148   6.010  -0.153 -0.3684  0.8770 -0.2139
    1CHTO    H2  408   6.074   6.067  -0.148 -2.2493 -1.5108 -0.2230
    1CHTO   C12  409   6.262   5.810  -0.256  0.4714  0.3717  0.4157
    1CHTO   H25  410   6.364   5.851  -0.240  0.3347 -0.3608  3.5492
    1CHTO    N3  411   6.228   5.720  -0.139 -0.2065 -0.4336 -0.7160
    1CHTO   H12  412   6.315   5.661  -0.116 -1.0613 -0.4953  2.5497
    1CHTO   H13  413   6.146   5.655  -0.167 -0.9414  0.2873 -0.2841
    1CHTO   C15  414   6.257   5.732  -0.396  0.8488  0.1955  0.3634
    1CHTO   H28  415   6.156   5.702  -0.423  0.1062  1.9933  1.0132
    1CHTO   O10  416   6.363   5.616  -0.410 -0.1061  0.3452  0.3957
    1CHTO    H4  417   6.314   5.540  -0.386  0.4390 -0.1389 -0.0431
    1CHTO    O5  418   6.307   5.818  -0.497 -0.4606 -0.0487  0.3815
    1CHTO   C10  419   6.210   5.913  -0.531 -0.9083 -0.7806  0.2711
    1CHTO   H23  420   6.119   5.869  -0.571 -2.3625  2.2080  0.1171
    1CHTO   C17  421   6.266   5.994  -0.649 -0.5492  0.5139 -0.8381
    1CHTO   O12  422   6.306   5.907  -0.761 -0.7298  0.1995 -0.2887
    1CHTO    H6  423   6.251   5.942  -0.828 -0.6795 -1.6514 -1.3136
    2CHTO  H203  424   4.655   3.433   0.718  0.1404 -0.5883 -0.5585
    2CHTO   O82  425   4.597   3.485   0.666  0.1063  0.0692  0.1378
    2CHTO  C123  426   4.634   3.620   0.653  0.0716 -0.5806  0.1783
    2CHTO  H227  427   4.725   3.629   0.715 -1.3746  1.2605  2.0962
    2CHTO   O77  428   4.667   3.652   0.509 -0.5124  0.1454 -0.1303
    2CHTO  C118  429   4.712   3.790   0.496  0.0891 -0.3466  0.3173
    2CHTO  H222  430   4.801   3.811   0.557  1.0860 -0.9767 -0.9131
    2CHTO  C125  431   4.764   3.808   0.350  0.5811 -0.0589 -0.1862
    2CHTO   O84  432   4.884   3.734   0.321 -0.1130  0.1784  0.2879
    2CHTO  H205  433   4.909   3.752   0.232  0.3692  1.8840  0.7583
    2CHTO  C114  434   4.611   3.897   0.539  0.7305  0.1668  0.6184
    2CHTO  H218  435   4.526   3.888   0.471  2.9957  2.0160 -2.6509
    2CHTO  C116  436   4.581   3.870   0.691 -0.0064 -0.3346 -0.0910
    2CHTO  H220  437   4.676   3.878   0.748 -0.2354 -1.0343  0.3937
    2CHTO   O79  438   4.479   3.961   0.735 -0.6595  0.3741  0.3543
    2CHTO  H201  439   4.515   4.045   0.752  1.1074  0.5054 -3.4875
    2CHTO  C120  440   4.531   3.725   0.704 -0.4101  0.8080 -0.3176
    2CHTO  H224  441   4.434   3.728   0.649  0.3228  1.8528 -1.5682
    2CHTO   N21  442   4.493   3.690   0.854 -0.5319 -0.1937 -0.1724
    2CHTO  H211  443   4.549   3.741   0.931  0.3605 -0.6839 -0.4848
    2CHTO  H212  444   4.488   3.583   0.864 -2.0273 -0.0618  0.5395
    2CHTO   O75  445   4.670   4.024   0.516  0.3671 -0.1370 -0.0272
    2CHTO  C112  446   4.586   4.158   0.476  0.6195  0.5045 -0.6482
    2CHTO  H216  447   4.657   4.240   0.489 -0.2418  0.9455  1.3408
    2CHTO   O73  448   4.480   4.169   0.563 -0.2709  0.1123 -0.3673
    2CHTO  C113  449   4.402   4.292   0.560  0.3382 -0.1029 -0.1932
    2CHTO  H217  450   4.458   4.378   0.602  0.4144  0.8314 -2.1854
    2CHTO  C124  451   4.285   4.301   0.662  0.7208  0.1282 -0.5710
    2CHTO   O83  452   4.187   4.199   0.653 -0.2766 -0.7114  0.4085
    2CHTO  H204  453   4.184   4.165   0.740  0.7603 -2.9524 -0.3795
    2CHTO  C109  454   4.342   4.307   0.418 -0.4124 -0.5702  0.1481
    2CHTO  H213  455   4.267   4.228   0.404  0.9304 -1.8361 -0.0107
    2CHTO  C110  456   4.442   4.285   0.303  0.2197  0.5931  0.4135
    2CHTO  H214  457   4.505   4.373   0.290 -0.8157  0.7905 -4.1918
    2CHTO   O78  458   4.367   4.282   0.174  0.1392  0.1456  0.4325
    2CHTO  H200  459   4.426   4.248   0.110 -0.0806  4.4795 -2.2710
    2CHTO  C111  460   4.535   4.152   0.326 -0.2824  0.0126  0.6092
    2CHTO  H215  461   4.473   4.063   0.306  0.2707  0.0640 -1.4531
    2CHTO   N19  462   4.652   4.150   0.232  0.6091 -0.1362 -0.1750
    2CHTO  H207  463   4.709   4.240   0.248  0.4100 -0.0480  0.0394
    2CHTO  H208  464   4.628   4.164   0.128  0.1952  1.8597  0.1730
    2CHTO   O74  465   4.276   4.444   0.410 -0.2021  0.3718  0.2024
    2CHTO  C115  466   4.140   4.441   0.345  0.0881  0.4191  0.1669
    2CHTO  H219  467   4.133   4.360   0.274 -0.7661  0.7171 -0.0865
    2CHTO   O76  468   4.016   4.415   0.457  0.0329 -0.0166  0.6307
    2CHTO  C122  469   4.006   4.537   0.535  0.0302  0.3760  0.3927
    2CHTO  H226  470   4.101   4.550   0.586 -0.9749 -0.2752  2.4828
    2CHTO  C126  471   3.904   4.497   0.646  0.5157  0.3680  0.4544
    2CHTO   O85  472   3.766   4.459   0.607 -0.0775  0.0511  0.2343
    2CHTO  H206  473   3.721   4.541   0.602 -2.6556 -1.2188  1.9313
    2CHTO  C121  474   3.951   4.654   0.444  0.6879 -0.2978  0.9189
    2CHTO  H225  475   3.842   4.663   0.461  0.9731  0.3622  2.4656
    2CHTO   O81  476   4.006   4.779   0.490 -0.0002 -0.1281  0.7360
    2CHTO  H202  477   3.963   4.795   0.572 -1.4915 -1.2740  0.1802
    2CHTO  C119  478   3.987   4.642   0.292  0.6309 -0.0814 -0.5836
    2CHTO  H223  479   3.910   4.575   0.252  0.4244  1.1309 -2.2559
    2CHTO  C117  480   4.133   4.581   0.271  0.7789 -0.0373  0.1944
    2CHTO  H221  481   4.200   4.656   0.312  0.4359  0.0911  0.5263
    2CHTO   N20  482   4.170   4.568   0.123 -0.1903 -0.1512  0.1537
    2CHTO  H209  483   4.169   4.667   0.081  0.3351  0.0786  0.6695
    2CHTO  H210  484   4.095   4.509   0.072 -1.3224  0.8530  0.6432
    2CHTO   O80  485   3.957   4.782   0.202 -0.1738  0.1316 -0.2358
    2CHTO  C103  486   3.793   4.848   0.178 -0.9100  0.1573  0.0901
    2CHTO  H190  487   3.760   4.836   0.075 -0.1504 -0.2714 -0.1051
    2CHTO  C101  488   3.671   4.796   0.269  0.3414  0.6148 -0.1081
    2CHTO  H188  489   3.707   4.806   0.371  1.2393  0.7176 -0.4368
    2CHTO   O68  490   3.631   4.633   0.246  0.4323 -0.0395 -0.3108
    2CHTO  H168  491   3.699   4.599   0.191 -0.0489  0.7276 -1.3972
    2CHTO   C99  492   3.542   4.895   0.258  0.0440  0.3327  0.2493
    2CHTO  H186  493   3.495   4.885   0.158 -3.8904  0.1438  2.0197
    2CHTO   N17  494   3.434   4.862   0.356 -0.0784  0.3734 -0.0624
    2CHTO  H174  495   3.402   4.760   0.342  0.1134  0.1549  1.0261
    2CHTO  H175  496   3.352   4.927   0.332  0.0184  0.6031  0.2281
    2CHTO   C97  497   3.580   5.049   0.270 -0.1907  0.0386  0.9407
    2CHTO  H184  498   3.593   5.080   0.375 -1.6541  1.8346  0.6199
    2CHTO   O64  499   3.693   5.083   0.182  0.9920  0.0232 -0.7655
    2CHTO  C104  500   3.810   5.004   0.200  0.1442  0.5384  0.4301
    2CHTO  H191  501   3.862   5.025   0.293 -1.5606  0.4056  1.4271
    2CHTO  C108  502   3.898   5.064   0.085  0.3708 -0.7187  0.0321
    2CHTO   O71  503   4.038   5.053   0.125 -0.0549 -0.0199  0.2186
    2CHTO  H171  504   4.094   5.085   0.056  0.3380  1.5097  1.2062
    2CHTO   O62  505   3.480   5.137   0.213 -0.2927  0.4003 -0.7243
    2CHTO   C91  506   3.394   5.211   0.306 -0.5224 -0.1119 -0.8123
    2CHTO  H178  507   3.388   5.153   0.399  0.5653  0.9472 -0.0778
    2CHTO   C92  508   3.258   5.208   0.231  0.2486 -0.5041 -0.2223
    2CHTO  H179  509   3.235   5.110   0.187  0.2203 -0.8942  0.6640
    2CHTO   O66  510   3.154   5.223   0.323  0.4035 -0.0220 -0.0480
    2CHTO  H166  511   3.174   5.298   0.375 -0.2764  0.7873 -0.9195
    2CHTO   C93  512   3.244   5.321   0.123  0.8228  0.6679 -0.3762
    2CHTO  H180  513   3.137   5.322   0.096  0.2647 -1.3797  1.5367
    2CHTO   N16  514   3.313   5.280  -0.005  0.0484 -0.2369 -0.3468
    2CHTO  H172  515   3.348   5.180   0.018  0.4180 -0.4595 -1.8350
    2CHTO  H173  516   3.246   5.281  -0.089  1.0535  1.5088 -1.1462
    2CHTO   C94  517   3.290   5.458   0.180 -0.3242 -0.3347  0.5689
    2CHTO  H181  518   3.376   5.497   0.124  0.2191 -3.4544 -0.8804
    2CHTO   O61  519   3.345   5.459   0.320  0.4173 -0.2530 -0.3335
    2CHTO   C95  520   3.440   5.357   0.353 -0.2489 -0.2767 -0.0870
    2CHTO  H182  521   3.539   5.385   0.315  0.6747 -2.5736  0.4929
    2CHTO  C106  522   3.465   5.361   0.506  0.3290  0.4966 -0.0955
    2CHTO   O69  523   3.527   5.483   0.546  0.6466 -0.0264  0.0459
    2CHTO  H169  524   3.608   5.463   0.588  0.9152 -2.2996 -1.4523
    2CHTO   O63  525   3.180   5.558   0.171  0.0269  0.0589  0.1558
    2CHTO   C96  526   3.207   5.712   0.216  0.4909 -0.4767  0.5999
    2CHTO  H183  527   3.308   5.744   0.244  0.2839  1.0082 -0.2687
    2CHTO   C98  528   3.118   5.745   0.338 -0.1185  0.4153 -0.1081
    2CHTO  H185  529   3.014   5.709   0.326  0.5413 -0.7700 -2.5703
    2CHTO   O67  530   3.159   5.665   0.451  0.0818 -0.3635 -0.1232
    2CHTO  H167  531   3.232   5.705   0.494 -1.0526  0.6397  0.9115
    2CHTO  C102  532   3.130   5.913   0.377  0.3560  0.0188 -0.3864
    2CHTO  H189  533   3.232   5.931   0.413  1.7154 -4.2684 -1.8218
    2CHTO   N18  534   3.037   5.954   0.488  0.4676  0.2802 -0.2900
    2CHTO  H176  535   3.007   5.858   0.527  0.8893 -0.3185 -1.4417
    2CHTO  H177  536   3.096   6.005   0.563  0.3332  0.1340 -0.0832
    2CHTO  C105  537   3.102   5.991   0.245  0.2446  0.2031 -0.3508
    2CHTO  H192  538   2.997   5.976   0.221 -0.2656  1.0463  1.2576
    2CHTO   O65  539   3.179   5.941   0.137 -0.1131  0.0476  0.3271
    2CHTO  C100  540   3.162   5.805   0.104 -0.0278 -0.3229  1.0789
    2CHTO  H187  541   3.056   5.783   0.083  0.3317 -2.2326  1.1385
    2CHTO  C107  542   3.247   5.781  -0.027  0.3776 -0.0450  0.8072
    2CHTO   O70  543   3.179   5.835  -0.137  0.1136  0.2208  0.2057
    2CHTO  H170  544   3.242   5.879  -0.190  0.1757 -1.8448 -1.4757
    2CHTO   O57  545   3.138   6.152   0.271  0.0799  0.1756  0.6456
    2CHTO   C85  546   3.061   6.252   0.200 -0.1445  0.0558 -0.2704
    2CHTO  H157  547   2.958   6.221   0.228 -0.7742  1.7968 -0.6543
    2CHTO   C83  548   3.082   6.229   0.044 -0.4967  0.2547  0.5555
    2CHTO  H155  549   3.060   6.129   0.008 -0.2020  0.5041 -0.3178
    2CHTO   O56  550   3.219   6.244   0.009 -0.5358  0.1528 -0.9463
    2CHTO  H135  551   3.276   6.196   0.067  0.1777  1.4712 -0.5465
    2CHTO   C81  552   2.989   6.331  -0.026  0.1881  0.7444  0.4743
    2CHTO  H153  553   2.887   6.322   0.011  0.3326  0.7284  0.8664
    2CHTO   N14  554   2.979   6.297  -0.175  0.5118  0.4244  0.2510
    2CHTO  H141  555   2.878   6.298  -0.210  0.1122 -1.7084  1.2635
    2CHTO  H142  556   3.024   6.202  -0.195 -0.5955 -0.2157  0.7099
    2CHTO   C79  557   3.033   6.482  -0.004  0.6077 -0.2480  1.0058
    2CHTO  H151  558   2.957   6.541  -0.055 -0.5689 -1.9915  0.7073
    2CHTO   O52  559   3.025   6.515   0.139 -0.0150 -0.4114 -0.0332
    2CHTO   C86  560   3.087   6.409   0.224  0.5707 -0.5734  0.5947
    2CHTO  H158  561   3.193   6.440   0.213 -0.3447  2.5816  0.1001
    2CHTO   C90  562   3.061   6.428   0.375 -0.8069  0.0624  0.5880
    2CHTO   O60  563   3.116   6.556   0.410  0.0853 -0.6437  0.2641
    2CHTO  H138  564   3.137   6.568   0.501 -3.1090 -0.8478  1.0920
    2CHTO   O50  565   3.167   6.520  -0.041 -0.0482 -0.5720 -0.0350
    2CHTO   C73  566   3.247   6.635  -0.081  0.0741  0.3603 -0.0190
    2CHTO  H145  567   3.199   6.725  -0.039 -0.2976 -0.6215  1.7325
    2CHTO   C74  568   3.241   6.649  -0.230 -0.3194  0.4092  1.0393
    2CHTO  H146  569   3.134   6.649  -0.253  0.1080  0.0481 -1.0296
    2CHTO   O54  570   3.296   6.776  -0.263 -0.2316 -0.2406  0.7734
    2CHTO  H133  571   3.386   6.772  -0.234 -0.4347 -0.7583  1.3661
    2CHTO   C75  572   3.314   6.522  -0.296  0.2973 -0.0686 -0.2066
    2CHTO  H147  573   3.271   6.432  -0.251 -1.7088  0.6579 -0.6386
    2CHTO   N13  574   3.297   6.514  -0.446  0.1950 -0.2764 -0.2731
    2CHTO  H139  575   3.206   6.456  -0.457 -0.5787  0.5835  1.4348
    2CHTO  H140  576   3.292   6.612  -0.490  2.0605 -0.4950 -1.0128
    2CHTO   C76  577   3.468   6.519  -0.248  0.2918 -0.5821  0.4105
    2CHTO  H148  578   3.507   6.612  -0.291 -2.4786  0.7966  0.7681
    2CHTO   O49  579   3.467   6.531  -0.101 -0.6592 -0.7280  0.0269
    2CHTO   C77  580   3.393   6.628  -0.028  0.1542 -0.3461 -0.0534
    2CHTO  H149  581   3.438   6.725  -0.052  0.6462 -0.6276 -0.2923
    2CHTO   C88  582   3.404   6.611   0.125 -0.1323  0.7362 -0.3070
    2CHTO   O58  583   3.290   6.704   0.203  0.2637 -0.4557  0.2059
    2CHTO  H136  584   3.214   6.725   0.153  0.8678  1.7110  0.1502
    2CHTO   O51  585   3.546   6.391  -0.292  0.1496 -0.2229  0.2825
    2CHTO   C78  586   3.633   6.301  -0.176 -0.0189 -0.2238  0.2732
    2CHTO  H150  587   3.584   6.318  -0.078  0.2467  1.2155  0.1540
    2CHTO   C80  588   3.776   6.352  -0.167 -0.4212  0.0346  0.2616
    2CHTO  H152  589   3.833   6.338  -0.261  0.6992 -0.0691  0.9433
    2CHTO   O55  590   3.768   6.493  -0.146  0.2365  0.3180 -0.3543
    2CHTO  H134  591   3.745   6.540  -0.224  1.6240  0.9365 -0.4139
    2CHTO   C84  592   3.859   6.279  -0.057  0.7541  0.4017  0.4123
    2CHTO  H156  593   3.805   6.294   0.036 -0.3473 -0.6943 -0.0364
    2CHTO   N15  594   4.002   6.311  -0.064 -0.5181  0.1142 -0.3953
    2CHTO  H143  595   4.028   6.404  -0.017  0.2533 -0.5126  0.4363
    2CHTO  H144  596   4.038   6.308  -0.165 -0.2398  0.3496 -0.3050
    2CHTO   C87  597   3.844   6.129  -0.069  0.3616  0.0462 -0.0644
    2CHTO  H159  598   3.906   6.080  -0.144 -1.1147 -0.8667 -0.7288
    2CHTO   O53  599   3.685   6.087  -0.092 -0.2801 -0.2007 -0.1009
    2CHTO   C82  600   3.620   6.155  -0.199  0.3523  0.0183 -0.0190
    2CHTO  H154  601   3.658   6.121  -0.295 -2.4597 -1.3818 -0.6807
    2CHTO   C89  602   3.472   6.110  -0.196  0.7264  0.1990  0.9005
    2CHTO   O59  603   3.402   6.137  -0.317  0.2982 -0.1712  0.6946
    2CHTO  H137  604   3.390   6.229  -0.331  0.7468 -0.0108  1.3525
    2CHTO   O45  605   3.897   6.061   0.089  0.4303 -0.2487  0.1286
    2CHTO   C67  606   3.805   6.064   0.201 -0.0252 -0.2672  0.1695
    2CHTO  H124  607   3.751   6.158   0.187 -0.8590 -0.7884 -0.1581
    2CHTO   C65  608   3.698   5.940   0.210 -0.8194  0.3590 -0.6097
    2CHTO  H122  609   3.732   5.867   0.138 -1.6436 -1.0316  0.3879
    2CHTO   O44  610   3.578   5.991   0.153  0.3750  0.2858 -0.0169
    2CHTO  H102  611   3.521   6.016   0.223  1.1268 -0.6148  0.9271
    2CHTO   C63  612   3.701   5.866   0.348  0.5154  0.3919 -0.0171
    2CHTO  H120  613   3.796   5.813   0.356  0.2536 -0.1192 -0.3101
    2CHTO   N11  614   3.611   5.751   0.358 -0.1815  0.6356  0.2217
    2CHTO  H108  615   3.635   5.679   0.282  1.9865  1.5829 -0.0373
    2CHTO  H109  616   3.625   5.708   0.455  0.9749  1.2773  0.3508
    2CHTO   C61  617   3.691   5.970   0.462 -0.3531 -0.6992  0.1924
    2CHTO  H118  618   3.703   5.923   0.560  1.1166 -1.6462 -0.4334
    2CHTO   O40  619   3.798   6.074   0.456 -0.1437  0.5986 -0.4051
    2CHTO   C68  620   3.883   6.075   0.337  0.4172 -0.1233 -0.6735
    2CHTO  H125  621   3.952   5.989   0.346  1.4134  0.6352 -1.0191
    2CHTO   C72  622   3.971   6.200   0.352  0.4886 -0.6899 -0.6785
    2CHTO   O48  623   4.068   6.204   0.253  0.3585 -0.2260 -0.4148
    2CHTO  H105  624   4.119   6.126   0.263  0.6576  0.2730  2.1876
    2CHTO   O38  625   3.562   6.036   0.464 -0.0882 -0.3764 -0.3308
    2CHTO   C55  626   3.528   6.113   0.585 -0.2793  0.6769  0.5583
    2CHTO  H112  627   3.624   6.144   0.626  0.9219 -0.5829 -1.2215
    2CHTO   C56  628   3.449   6.020   0.694  0.2877 -0.2526 -0.4452
    2CHTO  H113  629   3.359   5.977   0.646 -0.7813  1.1811  0.2335
    2CHTO   O42  630   3.529   5.899   0.722  0.2632  0.9490  0.2652
    2CHTO  H100  631   3.615   5.928   0.745  0.4823  0.2212  0.3567
    2CHTO   C57  632   3.420   6.114   0.811  0.1283 -0.3805  0.9002
    2CHTO  H114  633   3.519   6.151   0.837  0.4988 -1.0055  0.3992
    2CHTO   N10  634   3.361   6.047   0.927  0.1010 -0.2135 -0.1307
    2CHTO  H106  635   3.294   5.969   0.895 -1.1565  0.7904  0.0206
    2CHTO  H107  636   3.431   6.009   1.000  0.2273  0.7398  0.2509
    2CHTO   C58  637   3.326   6.226   0.758  0.6233  0.0091  0.4239
    2CHTO  H115  638   3.242   6.185   0.698  0.6174  1.8798 -0.9013
    2CHTO   O37  639   3.402   6.305   0.665  0.4011  0.1211  0.4673
    2CHTO   C59  640   3.445   6.237   0.547  0.7293  0.2444 -0.1374
    2CHTO  H116  641   3.362   6.211   0.482 -1.1870  1.9418  1.5520
    2CHTO   C70  642   3.531   6.334   0.471 -0.1314 -0.2138  0.4111
    2CHTO   O46  643   3.455   6.442   0.411  0.2090  0.8000 -0.3746
    2CHTO  H103  644   3.453   6.423   0.319  2.3602 -0.0933 -0.2638
    2CHTO   O39  645   3.267   6.328   0.873 -0.0178 -0.2350  0.0731
    2CHTO   C60  646   3.139   6.376   0.853 -0.5330  0.2000  0.1074
    2CHTO  H117  647   3.107   6.366   0.750  0.1372 -0.7915  0.0020
    2CHTO   C62  648   3.042   6.298   0.948 -0.3860 -1.0705 -0.8037
    2CHTO  H119  649   3.036   6.195   0.905 -2.5725 -1.8736  1.3405
    2CHTO   O43  650   3.103   6.304   1.081  0.0927 -0.0161  0.2145
    2CHTO  H101  651   3.172   6.240   1.086 -0.0332 -0.0859  1.0541
    2CHTO   C66  652   2.888   6.349   0.931 -0.2625  0.3753 -0.7117
    2CHTO  H123  653   2.865   6.339   0.824  0.2005  0.1537 -0.7937
    2CHTO   N12  654   2.792   6.270   1.018 -0.1105 -0.3697 -0.4319
    2CHTO  H110  655   2.760   6.193   0.950 -2.7476  0.6673 -0.4089
    2CHTO  H111  656   2.702   6.321   1.049 -1.7983 -2.2787 -2.0235
    2CHTO   C69  657   2.887   6.496   0.973 -0.5334  0.0878  0.9965
    2CHTO  H126  658   2.913   6.522   1.078 -1.6663  0.3360  1.2226
    2CHTO   O41  659   2.994   6.574   0.871  0.6072 -0.0053  0.2096
    2CHTO   C64  660   3.135   6.527   0.888  0.4455 -0.0754 -0.2488
    2CHTO  H121  661   3.179   6.535   0.990  0.0993  0.6981 -0.1505
    2CHTO   C71  662   3.221   6.596   0.782  0.0960 -0.1796  0.0658
    2CHTO   O47  663   3.249   6.732   0.818  0.2616 -0.0442 -0.7292
    2CHTO  H104  664   3.284   6.736   0.905 -0.7656  1.4195 -0.3583
    2CHTO   O34  665   2.740   6.567   0.944  0.6425 -0.2960  0.1219
    2CHTO   C49  666   2.622   6.655   1.016 -0.3678 -0.0047  0.1999
    2CHTO   H91  667   2.586   6.611   1.109 -0.3413  2.7358  1.5458
    2CHTO   C47  668   2.499   6.652   0.919 -0.4530 -0.4341 -0.2464
    2CHTO   H89  669   2.424   6.701   0.985  0.9343 -1.3678  2.0746
    2CHTO   O33  670   2.460   6.518   0.899  0.0361 -0.5201 -0.2564
    2CHTO   H70  671   2.419   6.498   0.817 -1.5955  0.2247  0.3621
    2CHTO   C45  672   2.525   6.736   0.794 -0.5846 -0.2550  0.3054
    2CHTO   H87  673   2.606   6.693   0.734  0.5193  0.9669  0.8991
    2CHTO    N8  674   2.401   6.748   0.710 -0.4919  0.1613 -0.0249
    2CHTO   H75  675   2.324   6.791   0.772 -0.3506 -0.2984  0.4778
    2CHTO   H76  676   2.366   6.648   0.686 -0.8172  0.0531  0.8865
    2CHTO   C43  677   2.581   6.884   0.831  0.1303 -0.3049 -0.5672
    2CHTO   H85  678   2.612   6.931   0.737 -2.3782 -0.7102 -1.6398
    2CHTO   O29  679   2.685   6.875   0.927 -0.5814 -0.4378  0.1563
    2CHTO   C50  680   2.674   6.794   1.046  0.8018  0.1239 -0.5821
    2CHTO   H92  681   2.775   6.776   1.084  0.4326  0.3141  0.4891
    2CHTO   C54  682   2.600   6.866   1.167 -0.0975  0.5890 -0.1805
    2CHTO   O36  683   2.655   6.997   1.181  0.2671  0.0066 -0.3569
    2CHTO   H72  684   2.583   7.056   1.196 -0.4810 -0.7397 -0.9748
    2CHTO   O27  685   2.484   6.974   0.889  0.1895 -0.4724  0.9092
    2CHTO   C37  686   2.410   7.093   0.854 -0.1123 -0.0193 -0.3577
    2CHTO   H79  687   2.326   7.060   0.791  0.3235  0.8374 -1.4080
    2CHTO   C38  688   2.335   7.146   0.987 -0.2321  0.0027 -0.3102
    2CHTO   H80  689   2.408   7.153   1.069 -1.1517 -2.7109  0.8054
    2CHTO   O31  690   2.231   7.055   1.030 -0.1860  0.6989 -0.3128
    2CHTO   H68  691   2.150   7.073   0.987 -1.2232  3.9737  2.8028
    2CHTO   C39  692   2.276   7.294   0.969 -0.3726  0.3312 -0.5758
    2CHTO   H81  693   2.189   7.298   0.903 -0.5419 -0.6880 -0.4241
    2CHTO    N7  694   2.236   7.359   1.101 -0.0424 -0.5860 -0.4852
    2CHTO   H73  695   2.282   7.453   1.127  0.2846 -0.3002 -2.0235
    2CHTO   H74  696   2.133   7.392   1.098  0.0300 -0.3707 -0.6209
    2CHTO   C40  697   2.381   7.385   0.899  0.2209  0.3685 -0.5159
    2CHTO   H82  698   2.464   7.395   0.969 -0.4807 -1.2198  0.5797
    2CHTO   O26  699   2.423   7.331   0.772 -0.5122 -0.0185 -0.0461
    2CHTO   C41  700   2.492   7.201   0.774 -0.0057 -0.3760  0.7714
    2CHTO   H83  701   2.592   7.212   0.819  0.6698 -0.7476 -0.5852
    2CHTO   C52  702   2.517   7.172   0.626  0.1184 -0.3276 -0.5503
    2CHTO   O35  703   2.595   7.252   0.559  0.4826  0.1142 -0.1814
    2CHTO   H71  704   2.685   7.229   0.567  0.2232 -0.2283  1.8532
    2CHTO   O28  705   2.334   7.517   0.860 -0.4323 -0.0705  0.7366
    2CHTO   C42  706   2.408   7.647   0.856 -0.4492  0.4182  0.3517
    2CHTO   H84  707   2.358   7.702   0.776 -0.7099 -0.2988  0.0194
    2CHTO   C44  708   2.558   7.636   0.810  0.4173  0.3568  0.8158
    2CHTO   H86  709   2.607   7.567   0.878  3.1583 -0.6847 -2.0986
    2CHTO   O32  710   2.561   7.582   0.673  0.4908 -0.4177  0.2828
    2CHTO   H69  711   2.514   7.630   0.607 -0.5956 -1.8926 -0.0422
    2CHTO   C48  712   2.638   7.769   0.828  0.0399  0.5575 -0.1639
    2CHTO   H90  713   2.584   7.829   0.755 -4.2235 -1.0002  1.5220
    2CHTO    N9  714   2.785   7.746   0.802 -0.5795  0.1357 -0.3601
    2CHTO   H77  715   2.800   7.730   0.696 -0.6915 -2.4873 -0.0107
    2CHTO   H78  716   2.822   7.660   0.854  0.9857  0.2438 -1.2515
    2CHTO   C51  717   2.605   7.838   0.968  0.3671 -0.0556  0.1848
    2CHTO   H93  718   2.631   7.765   1.045 -0.2298 -2.2419 -1.6390
    2CHTO   O30  719   2.466   7.860   0.962 -0.0766 -0.2135  0.4551
    2CHTO   C46  720   2.403   7.730   0.978 -0.2958 -0.3715 -0.6286
    2CHTO   H88  721   2.460   7.674   1.052 -0.9565  1.9158  1.6843
    2CHTO   C53  722   2.266   7.768   1.030 -0.1705  0.3909 -0.2301
    2CHTO   O72  723   2.294   7.804   1.171  0.1222  0.2882 -0.5833
    2CHTO  H199  724   2.208   7.816   1.205  0.6046  1.9493  0.0724
    2CHTO   O22  725   2.666   7.966   0.987  0.8965  0.2577  0.1544
    2CHTO   C31  726   2.669   8.035   1.121 -0.2037 -0.1881  0.3896
    2CHTO   H59  727   2.717   8.133   1.102 -0.3875 -0.0291  0.7400
    2CHTO   C29  728   2.535   8.062   1.188  0.3605 -0.3184  0.4925
    2CHTO   H57  729   2.484   7.971   1.222  1.5461 -1.7654 -1.5368
    2CHTO   O21  730   2.454   8.121   1.085 -0.4900 -0.2029  0.0638
    2CHTO   H37  731   2.409   8.059   1.031 -1.5360  0.0538  0.6196
    2CHTO   C27  732   2.570   8.154   1.315  0.3213 -0.1348  0.5020
    2CHTO   H55  733   2.620   8.245   1.281 -2.1868  1.4620  0.9613
    2CHTO    N5  734   2.450   8.192   1.403  0.8102 -0.1487  0.8655
    2CHTO   H43  735   2.480   8.240   1.495 -0.5956  1.9234  0.2825
    2CHTO   H44  736   2.367   8.237   1.349  1.1902  0.5853  0.8804
    2CHTO   C25  737   2.680   8.081   1.412 -0.5228 -0.7545 -0.4425
    2CHTO   H53  738   2.637   7.990   1.456  0.8817 -2.2555 -2.0911
    2CHTO   O17  739   2.794   8.045   1.330  0.0042 -0.0172  0.0457
    2CHTO   C32  740   2.761   7.967   1.214  0.6723  0.3008  0.2989
    2CHTO   H60  741   2.709   7.877   1.249  0.7413  0.5238  0.9953
    2CHTO   C36  742   2.901   7.934   1.142  0.3135  1.2902 -0.4332
    2CHTO   O25  743   2.994   7.883   1.237 -0.2628 -0.2325 -0.2741
    2CHTO   H40  744   2.997   7.790   1.230 -1.1963 -0.2257 -0.8419
    2CHTO   O15  745   2.734   8.176   1.520  0.0715  0.2154 -0.4694
    2CHTO   C19  746   2.817   8.130   1.637 -0.3325  0.4443 -0.7620
    2CHTO   H47  747   2.790   8.024   1.647  0.5358  0.3504  0.7633
    2CHTO   C20  748   2.973   8.124   1.628 -0.1092  0.1294  0.4813
    2CHTO   H48  749   3.018   8.218   1.594  1.5208 -1.7518 -2.8868
    2CHTO   O19  750   3.003   8.026   1.524  0.2169 -0.2584 -0.5510
    2CHTO   H35  751   2.982   8.053   1.437  2.3153 -0.4101 -1.1463
    2CHTO   C21  752   3.039   8.080   1.767  0.3695  0.5633  0.2213
    2CHTO   H49  753   3.027   7.972   1.778 -0.8944  0.6944  0.1966
    2CHTO    N4  754   3.191   8.101   1.770  0.3074 -0.3250 -0.0386
    2CHTO   H41  755   3.244   8.035   1.704  2.6032  1.3468  0.0844
    2CHTO   H42  756   3.222   8.083   1.872 -1.2088  0.6236  0.6133
    2CHTO   C22  757   2.969   8.144   1.890 -0.6747  0.3967 -0.4571
    2CHTO   H50  758   2.993   8.250   1.888  0.0421  0.2404 -0.0621
    2CHTO   O14  759   2.826   8.137   1.882 -0.4177 -0.2589 -0.0441
    2CHTO   C23  760   2.768   8.198   1.765  0.3102  0.0267 -0.6696
    2CHTO   H51  761   2.788   8.306   1.766  0.2994  0.0204  1.0462
    2CHTO   C34  762   2.610   8.192   1.779 -0.7646  0.1723  0.0522
    2CHTO   O23  763   2.570   8.054   1.789 -0.1540 -0.3408  0.6512
    2CHTO   H38  764   2.478   8.038   1.785 -0.4690  1.6020 -0.4191
    2CHTO   O16  765   3.011   8.077   2.013 -0.3625 -0.4528  0.1249
    2CHTO   C24  766   3.058   8.173   2.129  0.5515  0.3178  0.9871
    2CHTO   H52  767   3.079   8.274   2.093 -0.7452  0.2606  0.0652
    2CHTO   C26  768   3.192   8.111   2.166 -0.8678 -0.0476 -0.4043
    2CHTO   H54  769   3.173   8.002   2.171  0.2127 -0.1799  1.1977
    2CHTO   O20  770   3.294   8.135   2.067  0.0492 -0.2577 -0.7212
    2CHTO   H36  771   3.369   8.079   2.080  0.0570 -0.0018  0.4012
    2CHTO   C30  772   3.246   8.151   2.305  0.2673 -0.0106 -0.1768
    2CHTO   H58  773   3.282   8.254   2.305  1.4602 -0.4099  1.7388
    2CHTO    N6  774   3.357   8.057   2.346 -0.7426 -0.1364  0.1194
    2CHTO   H45  775   3.327   7.953   2.338 -2.6362  0.4388 -0.6029
    2CHTO   H46  776   3.386   8.077   2.448 -0.8242 -0.4250  0.2005
    2CHTO   C33  777   3.130   8.163   2.413  0.3165  0.3833  0.4890
    2CHTO   H61  778   3.088   8.065   2.436  1.7941 -0.2825  0.3939
    2CHTO   O18  779   3.024   8.244   2.361 -0.1004 -0.6389  0.1243
    2CHTO   C28  780   2.957   8.178   2.252  0.2186 -0.6146 -0.0184
    2CHTO   H56  781   2.939   8.074   2.281 -2.2358 -0.4877 -0.9707
    2CHTO   C35  782   2.819   8.249   2.218  0.3196 -0.1696  0.0501
    2CHTO   O24  783   2.830   8.377   2.153 -0.0699  0.2465  0.0273
    2CHTO   H39  784   2.750   8.397   2.108 -0.4995 -0.5707  0.4257
    2CHTO    O9  785   3.187   8.213   2.535 -0.2467 -0.0538  0.1687
    2CHTO   C13  786   3.172   8.109   2.673  0.0898 -0.2335  0.6586
    2CHTO   H26  787   3.209   8.009   2.641  2.0385  0.3306  1.1111
    2CHTO   C11  788   3.015   8.110   2.695 -0.4370  0.3455 -0.2322
    2CHTO   H24  789   2.968   8.057   2.611 -0.9412  0.3630  0.0404
    2CHTO    O8  790   2.959   8.249   2.697 -0.1330 -0.3785  0.2013
    2CHTO    H3  791   3.012   8.305   2.644  0.2188 -0.1749  0.7562
    2CHTO    C9  792   2.987   8.037   2.824  0.4308 -0.1390  0.7962
    2CHTO   H22  793   3.030   7.938   2.801 -1.3719 -0.9007  0.5425
    2CHTO    N2  794   2.843   8.019   2.860 -0.3007 -0.2378  0.1572
    2CHTO   H10  795   2.813   7.915   2.868 -2.4777  0.4597  1.4355
    2CHTO   H11  796   2.774   8.068   2.792  0.1482 -1.6890 -1.3837
    2CHTO    C7  797   3.060   8.100   2.947  0.6243 -0.3722  0.2087
    2CHTO   H20  798   3.050   8.025   3.028  0.9150 -1.0168 -0.3483
    2CHTO    O4  799   3.198   8.121   2.925  0.3577  0.4367  0.1388
    2CHTO   C14  800   3.253   8.163   2.798  0.0133 -0.3090 -0.1276
    2CHTO   H27  801   3.354   8.117   2.801  0.4536  0.5355 -1.4719
    2CHTO   C18  802   3.276   8.319   2.800 -0.2468  0.5280 -0.2480
    2CHTO   O13  803   3.399   8.342   2.860  0.1522 -0.5961 -0.2961
    2CHTO    H7  804   3.394   8.312   2.949  2.3658  2.3406  0.9321
    2CHTO    O2  805   2.994   8.242   2.992 -0.0084 -0.3733 -0.1740
    2CHTO    C1  806   2.979   8.265   3.131  0.0625  0.1420 -0.8813
    2CHTO   H14  807   3.074   8.248   3.185 -0.3204 -0.1620 -0.2939
    2CHTO    C2  808   2.857   8.186   3.199 -1.0861 -0.4402 -0.1154
    2CHTO   H15  809   2.763   8.207   3.147 -0.6042  0.6837 -0.5443
    2CHTO    O6  810   2.872   8.044   3.202 -0.3453  1.0056  0.2400
    2CHTO    H1  811   2.795   7.997   3.229 -0.6113  0.2480 -1.7851
    2CHTO    C3  812   2.837   8.238   3.354 -0.0450  0.0220  0.4871
    2CHTO   H16  813   2.929   8.225   3.415 -0.8626  3.2262  2.5735
    2CHTO    N1  814   2.720   8.175   3.424  0.0493  0.2471  0.3016
    2CHTO    H8  815   2.722   8.202   3.529 -0.0512 -0.4488  0.4813
    2CHTO    H9  816   2.719   8.069   3.407 -0.6230  0.4461 -1.0004
    2CHTO    C4  817   2.818   8.396   3.356  0.5282  0.0050 -0.1148
    2CHTO   H17  818   2.722   8.426   3.314  0.4913 -0.1531 -0.1453
    2CHTO    O1  819   2.924   8.457   3.284 -0.0017  0.6626  0.3596
    2CHTO    C5  820   2.956   8.411   3.153 -0.1927 -0.2665  0.7373
    2CHTO   H18  821   2.875   8.434   3.085 -0.8951  0.0111  1.6596
    2CHTO   C16  822   3.074   8.498   3.120 -0.0394  0.0012  0.0520
    2CHTO   O11  823   3.048   8.642   3.110  0.6828 -0.8543  0.2846
    2CHTO    H5  824   3.122   8.691   3.137 -0.7105  0.0918  2.5517
    2CHTO    O3  825   2.835   8.447   3.483 -0.1425 -0.6985 -0.4404
    2CHTO    C6  826   2.766   8.574   3.504 -0.1753  1.2477  0.2506
    2CHTO   H19  827   2.724   8.624   3.416 -0.3684 -0.8522 -0.8801
    2CHTO    C8  828   2.643   8.559   3.592  0.2289  0.0189 -0.0155
    2CHTO   H21  829   2.670   8.486   3.668 -0.5048 -1.1187 -0.8326
    2CHTO    O7  830   2.543   8.494   3.506  0.1866  0.1597  0.8148
    2CHTO    H2  831   2.468   8.463   3.553 -0.6263 -1.0647 -1.2325
    2CHTO   C12  832   2.593   8.695   3.651  0.2277 -0.1017  0.2772
    2CHTO   H25  833   2.540   8.748   3.568  2.0613 -2.0760 -2.2553
    2CHTO    N3  834   2.491   8.660   3.754 -0.5201  0.1687  0.1421
    2CHTO   H12  835   2.525   8.665   3.857 -2.8617 -0.5173  0.9706
    2CHTO   H13  836   2.400   8.716   3.742 -1.4084 -1.6659 -2.1308
    2CHTO   C15  837   2.701   8.790   3.705 -0.5255  0.4103 -0.5093
    2CHTO   H28  838   2.738   8.754   3.801 -3.2637 -0.6264  0.2329
    2CHTO   O10  839   2.654   8.918   3.723 -0.1210  0.0970 -0.1730
    2CHTO    H4  840   2.725   8.978   3.738 -1.0073  0.7934  1.3781
    2CHTO    O5  841   2.811   8.799   3.611 -0.5488 -0.4111 -0.7899
    2CHTO   C10  842   2.873   8.675   3.567 -0.4476 -0.2979  0.5606
    2CHTO   H23  843   2.916   8.631   3.657 -2.8369  1.0538  2.4355
    2CHTO   C17  844   2.984   8.707   3.468 -0.3978  0.1065  0.5552
    2CHTO   O12  845   2.935   8.767   3.343  0.2948 -0.3736 -0.1439
    2CHTO    H6  846   2.879   8.841   3.360 -1.5661 -1.9954  1.0885
    3CHTO  H203  847   7.874   2.201   2.277  1.3201 -1.8000 -1.1293
    3CHTO   O82  848   7.788   2.189   2.242  0.1272  0.9651  0.6398
    3CHTO  C123  849   7.750   2.056   2.282 -0.2825 -0.3598 -0.2639
    3CHTO  H227  850   7.805   2.022   2.371  0.4322  0.2085 -0.4780
    3CHTO   O77  851   7.609   2.076   2.317  0.1336 -0.5077 -0.6758
    3CHTO  C118  852   7.551   1.960   2.381  0.0193  0.1541  0.5248
    3CHTO  H222  853   7.598   1.908   2.465 -1.0758 -2.5183 -0.4617
    3CHTO  C125  854   7.414   2.009   2.426  0.1796 -0.1643  0.7823
    3CHTO   O84  855   7.422   2.090   2.543 -0.0056  0.6652 -0.1754
    3CHTO  H205  856   7.480   2.057   2.608 -0.6070 -0.7920 -0.3533
    3CHTO  C114  857   7.529   1.858   2.266 -0.0340  0.5113 -0.2048
    3CHTO  H218  858   7.458   1.901   2.194 -0.4714 -1.2396 -0.8404
    3CHTO  C116  859   7.661   1.823   2.186 -0.2757  0.1567 -0.8752
    3CHTO  H220  860   7.715   1.742   2.240 -1.9914 -0.7517 -0.4860
    3CHTO   O79  861   7.628   1.753   2.067 -0.5693  0.7098 -0.5821
    3CHTO  H201  862   7.638   1.804   1.989  1.7047  0.6581 -0.3548
    3CHTO  C120  863   7.752   1.957   2.158 -0.6956  0.1274 -0.8456
    3CHTO  H224  864   7.703   2.008   2.073  0.9384  1.0982 -1.2066
    3CHTO   N21  865   7.893   1.917   2.120  1.0788  0.0568  0.7594
    3CHTO  H211  866   7.954   1.901   2.207  2.6782 -0.9004 -0.5158
    3CHTO  H212  867   7.939   1.995   2.062 -0.7444  0.7427  0.1912
    3CHTO   O75  868   7.476   1.743   2.326  0.2550 -0.7964 -0.1295
    3CHTO  C112  869   7.384   1.637   2.211 -0.3254  0.6574  0.2228
    3CHTO  H216  870   7.444   1.621   2.120 -2.0590 -3.5279 -0.2874
    3CHTO   O73  871   7.263   1.705   2.177 -0.6942 -0.3454 -0.7800
    3CHTO  C113  872   7.195   1.629   2.074 -0.5327  0.0690 -0.7238
    3CHTO  H217  873   7.246   1.635   1.976 -0.5577 -0.4630 -0.7686
    3CHTO  C124  874   7.077   1.719   2.041  0.5771  0.0072  0.0023
    3CHTO   O83  875   6.986   1.715   2.154 -0.0829  0.3158  0.2579
    3CHTO  H204  876   6.909   1.664   2.134  1.2277 -2.0288  1.0127
    3CHTO  C109  877   7.159   1.480   2.113  0.3336 -0.7419  0.3983
    3CHTO  H213  878   7.078   1.486   2.187 -0.1617  0.5983 -0.2289
    3CHTO  C110  879   7.285   1.407   2.166  0.5014 -0.3459 -0.3361
    3CHTO  H214  880   7.352   1.391   2.081 -2.1670 -1.0172 -2.3871
    3CHTO   O78  881   7.247   1.280   2.217 -0.2430  0.3583  0.0183
    3CHTO  H200  882   7.282   1.211   2.164  0.2369  1.2261 -0.8294
    3CHTO  C111  883   7.344   1.493   2.274 -0.5177 -0.2344 -0.3327
    3CHTO  H215  884   7.269   1.503   2.354 -0.9516 -1.8116 -0.5251
    3CHTO   N19  885   7.465   1.446   2.336 -0.1412 -0.1929 -0.2203
    3CHTO  H207  886   7.480   1.341   2.314  2.0872 -0.2743  1.4289
    3CHTO  H208  887   7.448   1.459   2.442  1.7388 -0.9566  0.1970
    3CHTO   O74  888   7.112   1.407   2.000  0.7513  0.1346 -0.5212
    3CHTO  C115  889   6.937   1.392   1.991 -0.9440  0.4893  0.0531
    3CHTO  H219  890   6.885   1.422   2.082 -1.0203  1.2682 -0.2370
    3CHTO   O76  891   6.874   1.494   1.862 -0.1668  0.5704 -0.2503
    3CHTO  C122  892   6.747   1.459   1.809 -0.6086  0.3087 -0.0467
    3CHTO  H226  893   6.743   1.505   1.710 -1.3234 -0.2827 -0.2926
    3CHTO  C126  894   6.644   1.538   1.896  0.8836 -0.1088 -0.2225
    3CHTO   O85  895   6.507   1.537   1.856 -0.2250  0.5436  0.3077
    3CHTO  H206  896   6.493   1.620   1.814  1.1588  0.4285 -0.4001
    3CHTO  C121  897   6.707   1.308   1.802 -0.1328 -0.5173  0.4003
    3CHTO  H225  898   6.596   1.306   1.797 -0.2060  2.0792  0.1436
    3CHTO   O81  899   6.746   1.248   1.680  0.0937  0.1174  0.8029
    3CHTO  H202  900   6.728   1.156   1.684  1.9434 -0.3252 -0.6319
    3CHTO  C119  901   6.748   1.236   1.932 -0.0080 -0.4481 -0.0136
    3CHTO  H223  902   6.696   1.286   2.014  0.3348 -1.1212  0.6214
    3CHTO  C117  903   6.892   1.239   1.964  0.2681  0.2075  0.1095
    3CHTO  H221  904   6.958   1.218   1.880  1.5948  1.1839  0.8751
    3CHTO   N20  905   6.932   1.145   2.071 -0.3374  0.0803 -0.3114
    3CHTO  H209  906   6.865   1.147   2.155 -1.1894 -0.0942 -0.9814
    3CHTO  H210  907   7.030   1.166   2.112 -0.9791 -0.0786  1.3222
    3CHTO   O80  908   6.667   1.086   1.933 -0.2300 -0.3706 -0.2333
    3CHTO  C103  909   6.498   1.076   2.000 -0.4887  0.7678 -0.2011
    3CHTO  H190  910   6.486   1.117   2.100 -0.8026  1.6575 -0.6016
    3CHTO  C101  911   6.376   1.136   1.911 -0.4009 -0.2228 -0.5042
    3CHTO  H188  912   6.405   1.128   1.806 -0.0549  1.5270 -0.5589
    3CHTO   O68  913   6.354   1.281   1.950  0.3516 -0.1046  0.2104
    3CHTO  H168  914   6.388   1.341   1.886  0.0991  2.0597  2.0750
    3CHTO   C99  915   6.238   1.051   1.915 -0.1140  0.4235  0.0620
    3CHTO  H186  916   6.187   1.080   2.009 -2.2192 -0.7217 -0.7004
    3CHTO   N17  917   6.145   1.088   1.803 -0.6346 -0.2282 -0.6425
    3CHTO  H174  918   6.187   1.051   1.711 -0.0403  0.9428 -0.8435
    3CHTO  H175  919   6.106   1.188   1.811  1.2647  0.3497  1.7694
    3CHTO   C97  920   6.266   0.899   1.931 -0.1395 -0.3522  0.2461
    3CHTO  H184  921   6.301   0.859   1.835  0.0519  4.5287 -1.8487
    3CHTO   O64  922   6.358   0.877   2.035 -0.4643  0.0585  0.4627
    3CHTO  C104  923   6.490   0.919   2.003 -0.4582 -0.0137  0.2566
    3CHTO  H191  924   6.511   0.882   1.903  1.0969 -4.0277  2.0016
    3CHTO  C108  925   6.587   0.837   2.091 -0.6286  0.4301 -0.4129
    3CHTO   O71  926   6.562   0.696   2.077 -0.2248 -0.0203 -0.6924
    3CHTO  H171  927   6.547   0.653   2.159 -1.6526  1.8556  0.0609
    3CHTO   O62  928   6.148   0.829   1.985  0.2315  0.2515 -0.0892
    3CHTO   C91  929   6.121   0.698   1.926  0.5711  0.0826 -0.5168
    3CHTO  H178  930   6.157   0.707   1.823  0.0685 -2.3804 -0.9494
    3CHTO   C92  931   5.964   0.684   1.900 -0.4351  0.3927  0.7782
    3CHTO  H179  932   5.908   0.720   1.988 -0.1377  0.8913  0.7702
    3CHTO   O66  933   5.934   0.762   1.783  0.0187  0.3518 -0.4681
    3CHTO  H166  934   5.942   0.854   1.795 -1.7858  0.3850  0.5945
    3CHTO   C93  935   5.909   0.537   1.875  0.3006  0.7787 -0.5096
    3CHTO  H180  936   5.941   0.511   1.773  0.0604 -0.3329 -0.3042
    3CHTO   N16  937   5.767   0.534   1.874 -0.6147 -0.2877 -0.0802
    3CHTO  H172  938   5.731   0.481   1.961 -0.6954 -2.9327 -1.6845
    3CHTO  H173  939   5.726   0.494   1.783 -1.1479  0.0461  0.0086
    3CHTO   C94  940   5.976   0.431   1.972 -0.1505 -0.1761  0.2308
    3CHTO  H181  941   5.908   0.398   2.051 -0.1303 -0.0434  0.3029
    3CHTO   O61  942   6.081   0.483   2.055 -0.7130  0.3762  0.4531
    3CHTO   C95  943   6.182   0.576   2.004 -0.0889 -0.2195  0.0962
    3CHTO  H182  944   6.234   0.622   2.087  2.4022 -0.7650 -1.1192
    3CHTO  C106  945   6.302   0.501   1.917 -0.0292 -0.0987 -0.0190
    3CHTO   O69  946   6.364   0.400   2.000  0.2742 -0.5183  0.3864
    3CHTO  H169  947   6.329   0.317   1.974  2.3069 -1.7228  1.3742
    3CHTO   O63  948   6.038   0.313   1.893 -0.4729  0.0491  0.0633
    3CHTO   C96  949   5.967   0.175   1.903 -0.7108 -0.6209  0.1186
    3CHTO  H183  950   6.027   0.090   1.870  1.7353  1.1522 -0.1158
    3CHTO   C98  951   5.833   0.174   1.821  1.2618  0.5348 -0.3620
    3CHTO  H185  952   5.774   0.266   1.838 -2.4917 -1.9704  0.9842
    3CHTO   O67  953   5.860   0.174   1.679  1.0295  0.2010  0.1191
    3CHTO  H167  954   5.927   0.232   1.648  1.2311  0.9179  1.8493
    3CHTO  C102  955   5.732   0.052   1.853 -0.5433  0.2754 -0.1630
    3CHTO  H189  956   5.774  -0.028   1.790 -2.5085  0.0471 -1.2241
    3CHTO   N18  957   5.592   0.069   1.808 -0.0438 -0.2728  0.7541
    3CHTO  H176  958   5.587   0.084   1.701 -4.2172 -2.2705  0.5858
    3CHTO  H177  959   5.540  -0.025   1.818 -1.9553  0.4933 -1.4307
    3CHTO  C105  960   5.742   0.013   2.003  0.2823 -0.2222  0.1558
    3CHTO  H192  961   5.676   0.077   2.061  1.8750 -0.5477  2.4011
    3CHTO   O65  962   5.878   0.008   2.056  0.5923 -0.1286 -0.0652
    3CHTO  C100  963   5.941   0.134   2.055 -0.3227 -0.5483  0.0310
    3CHTO  H187  964   5.875   0.205   2.107 -4.0716 -2.6886 -1.5242
    3CHTO  C107  965   6.054   0.136   2.148  0.2625  0.7640  0.3115
    3CHTO   O70  966   6.138   0.020   2.151 -0.7667 -0.4207  0.0470
    3CHTO  H170  967   6.091  -0.061   2.154  1.9279 -2.0218  0.2193
    3CHTO   O57  968   5.693  -0.148   2.007 -0.1624 -0.0759 -0.5313
    3CHTO   C85  969   5.654  -0.229   2.123 -0.2318 -0.3564 -0.0154
    3CHTO  H157  970   5.650  -0.333   2.087  3.1152 -0.7364  0.5434
    3CHTO   C83  971   5.510  -0.182   2.161  0.1926 -0.1881 -0.1878
    3CHTO  H155  972   5.439  -0.170   2.079 -0.9293  3.1591  1.1767
    3CHTO   O56  973   5.506  -0.042   2.208  0.5281  0.5328 -0.6036
    3CHTO  H135  974   5.470  -0.033   2.294  1.7378  2.3441 -0.2560
    3CHTO   C81  975   5.452  -0.283   2.266 -0.2311  0.2409  0.6024
    3CHTO  H153  976   5.458  -0.385   2.228  2.2715  0.9957 -1.1809
    3CHTO   N14  977   5.305  -0.266   2.297 -0.4712 -0.3445  0.3468
    3CHTO  H141  978   5.292  -0.293   2.400 -1.0970 -0.7621  0.1651
    3CHTO  H142  979   5.244  -0.331   2.237 -1.8076 -0.0832  1.3989
    3CHTO   C79  980   5.544  -0.267   2.394  0.9722 -0.6641  0.1088
    3CHTO  H151  981   5.514  -0.342   2.467 -2.8382  1.1083  0.4720
    3CHTO   O52  982   5.686  -0.287   2.361  0.1015  0.3769  0.0559
    3CHTO   C86  983   5.744  -0.217   2.248  0.7168 -0.0530 -0.2616
    3CHTO  H158  984   5.745  -0.111   2.280 -0.9792  0.2252 -1.0364
    3CHTO   C90  985   5.890  -0.250   2.217  0.6364 -0.0381 -0.8448
    3CHTO   O60  986   5.970  -0.170   2.306  0.6460 -0.3153 -0.0075
    3CHTO  H138  987   5.946  -0.080   2.312 -1.0159 -0.9017  3.2176
    3CHTO   O50  988   5.529  -0.138   2.463 -0.1110 -0.4508  0.0335
    3CHTO   C73  989   5.532  -0.072   2.592  0.4240  0.6892  0.3555
    3CHTO  H145  990   5.612  -0.126   2.645  0.7611  0.0916 -0.7640
    3CHTO   C74  991   5.383  -0.071   2.665  0.6034 -0.0575 -0.1730
    3CHTO  H146  992   5.358  -0.178   2.662  0.2907 -0.0194  0.7347
    3CHTO   O54  993   5.391  -0.029   2.801 -0.2064  0.0183  0.4372
    3CHTO  H133  994   5.400  -0.106   2.854  2.4797 -0.1696 -0.2087
    3CHTO   C75  995   5.283   0.010   2.570 -0.3598 -0.1255 -0.0338
    3CHTO  H147  996   5.276  -0.050   2.478 -1.2691  0.1131 -0.1338
    3CHTO   N13  997   5.145   0.016   2.627 -0.4404  0.2605  0.3583
    3CHTO  H139  998   5.076  -0.046   2.571  0.0438  1.4477 -1.6024
    3CHTO  H140  999   5.106   0.115   2.609  1.0545  0.6660 -0.8184
    3CHTO   C76 1000   5.355   0.149   2.525  0.7170 -0.4846  0.2137
    3CHTO  H148 1001   5.370   0.212   2.613  0.1290 -1.2443  0.8644
    3CHTO   O49 1002   5.490   0.126   2.473  0.0155  0.0381  0.1124
    3CHTO   C77 1003   5.578   0.071   2.568 -0.0066  0.3946  0.0819
    3CHTO  H149 1004   5.575   0.126   2.662 -1.7447  1.3082 -0.4819
    3CHTO   C88 1005   5.716   0.095   2.508 -0.5677  0.3032  0.1892
    3CHTO   O58 1006   5.830   0.004   2.597 -0.2609  0.0712 -0.1843
    3CHTO  H136 1007   5.916   0.036   2.580 -1.2613  3.3837  0.5731
    3CHTO   O51 1008   5.291   0.206   2.397  0.2748  0.6628 -0.1973
    3CHTO   C78 1009   5.319   0.360   2.381 -0.0849 -0.6646  0.3567
    3CHTO  H150 1010   5.422   0.380   2.417  0.1377  0.6624 -0.9755
    3CHTO   C80 1011   5.212   0.450   2.446 -0.4815 -0.9034 -0.0189
    3CHTO  H152 1012   5.111   0.409   2.421 -0.4326 -1.6295  0.9327
    3CHTO   O55 1013   5.225   0.427   2.585  0.6237  0.1052  0.2512
    3CHTO  H134 1014   5.283   0.490   2.623 -1.2645  1.2509  1.2974
    3CHTO   C84 1015   5.226   0.604   2.414  0.6877  0.0012 -0.7472
    3CHTO  H156 1016   5.304   0.646   2.477  0.1546 -0.4786  0.2484
    3CHTO   N15 1017   5.099   0.680   2.447 -0.5081 -0.0608 -0.1686
    3CHTO  H143 1018   5.064   0.635   2.538  0.1051 -0.1706  0.0166
    3CHTO  H144 1019   5.122   0.784   2.457 -0.2058  0.0537 -1.9183
    3CHTO   C87 1020   5.259   0.629   2.265 -0.3270 -0.6459  0.3415
    3CHTO  H159 1021   5.172   0.618   2.201 -0.3106 -0.2535  0.2530
    3CHTO   O53 1022   5.364   0.535   2.221 -0.5464  0.5714  0.2696
    3CHTO   C82 1023   5.330   0.394   2.228  0.4016 -0.3573  0.8561
    3CHTO  H154 1024   5.235   0.364   2.182 -0.0662 -0.0628  1.6237
    3CHTO   C89 1025   5.441   0.316   2.158  0.0945 -0.1915 -0.4151
    3CHTO   O59 1026   5.461   0.363   2.026 -0.1508  0.1154  0.1964
    3CHTO  H137 1027   5.456   0.291   1.966 -1.5446  0.9886 -0.7735
    3CHTO   O45 1028   5.314   0.786   2.240  0.3399 -0.7624  0.6302
    3CHTO   C67 1029   5.459   0.805   2.244 -0.1351 -0.0221 -0.8887
    3CHTO  H124 1030   5.508   0.711   2.270 -0.6315  0.9071  3.7355
    3CHTO   C65 1031   5.506   0.851   2.104  0.6890  0.1212  0.1219
    3CHTO  H122 1032   5.424   0.918   2.076  0.7542  0.9424  1.8137
    3CHTO   O44 1033   5.495   0.734   2.019 -0.1729 -0.2507 -0.7867
    3CHTO  H102 1034   5.566   0.741   1.958 -0.2440  0.2830 -0.8138
    3CHTO   C63 1035   5.648   0.933   2.105 -0.0882  0.3961  0.4565
    3CHTO  H120 1036   5.625   1.037   2.129  2.0848  1.1854 -0.7287
    3CHTO   N11 1037   5.723   0.951   1.976  0.5639  0.6288  0.2770
    3CHTO  H108 1038   5.779   0.866   1.942  1.0845  1.8236 -1.9270
    3CHTO  H109 1039   5.646   0.967   1.903  0.3466  1.1368  0.6184
    3CHTO   C61 1040   5.738   0.897   2.229  0.0852  0.3198  0.0645
    3CHTO  H118 1041   5.821   0.968   2.238  0.7508 -0.5077  0.6305
    3CHTO   O40 1042   5.659   0.910   2.351  0.0826 -0.3660 -0.3913
    3CHTO   C68 1043   5.522   0.903   2.348  0.0640 -0.2699 -0.1634
    3CHTO  H125 1044   5.492   1.009   2.334  0.1782 -0.4978 -2.2871
    3CHTO   C72 1045   5.490   0.868   2.489  0.2263 -0.2289 -0.1873
    3CHTO   O48 1046   5.506   0.980   2.584  0.7312  0.7786 -0.2039
    3CHTO  H105 1047   5.582   0.965   2.637 -0.6856 -2.1794  1.1262
    3CHTO   O38 1048   5.791   0.758   2.220 -0.1860 -0.1696  0.2179
    3CHTO   C55 1049   5.878   0.710   2.327 -0.4789  0.2196  0.1455
    3CHTO  H112 1050   5.836   0.722   2.427  0.1639  0.5019  0.3824
    3CHTO   C56 1051   6.026   0.763   2.317 -0.3690  0.2444 -0.2806
    3CHTO  H113 1052   6.063   0.738   2.217 -0.3101 -2.7433  0.4558
    3CHTO   O42 1053   6.030   0.909   2.337 -0.1818  0.1041  1.4582
    3CHTO  H100 1054   5.964   0.956   2.291 -0.5482  0.1529  2.0228
    3CHTO   C57 1055   6.115   0.694   2.425  0.3905 -0.3516  0.1509
    3CHTO  H114 1056   6.081   0.738   2.519 -1.6493  1.7741 -1.4826
    3CHTO   N10 1057   6.266   0.720   2.419  0.6956 -0.1387  0.0763
    3CHTO  H106 1058   6.338   0.644   2.445  0.9585  0.1376  0.1545
    3CHTO  H107 1059   6.287   0.751   2.318 -3.1480 -1.0963 -1.1255
    3CHTO   C58 1060   6.091   0.539   2.434 -0.0712 -0.8746 -0.2443
    3CHTO  H115 1061   6.152   0.485   2.359  0.9041 -0.6620  0.3712
    3CHTO   O37 1062   5.956   0.498   2.429  0.3074 -0.5077 -0.1625
    3CHTO   C59 1063   5.876   0.552   2.320  0.3533  0.2162 -0.3018
    3CHTO  H116 1064   5.914   0.522   2.222 -1.5720  1.4962 -1.4729
    3CHTO   C70 1065   5.739   0.486   2.333  0.0847  0.0234 -0.0535
    3CHTO   O46 1066   5.730   0.347   2.307 -0.2212  0.3256 -0.3051
    3CHTO  H103 1067   5.647   0.302   2.310  0.8614 -1.7829 -0.9376
    3CHTO   O39 1068   6.140   0.485   2.587  0.0010 -0.0602 -0.4523
    3CHTO   C60 1069   6.139   0.343   2.613 -0.6354  0.2886  0.5367
    3CHTO  H117 1070   6.059   0.305   2.549 -2.8589  3.4907  1.2681
    3CHTO   C62 1071   6.273   0.284   2.557  0.0356 -0.3171 -0.0963
    3CHTO  H119 1072   6.288   0.317   2.453  1.1366 -0.6296 -0.0466
    3CHTO   O43 1073   6.385   0.349   2.620  0.0854 -0.2027 -0.5658
    3CHTO  H101 1074   6.368   0.339   2.712  0.5510  1.4762 -0.2724
    3CHTO   C66 1075   6.286   0.130   2.586 -0.1054  0.2408  0.1221
    3CHTO  H123 1076   6.202   0.077   2.541  0.6323 -1.0328  0.2369
    3CHTO   N12 1077   6.408   0.071   2.520 -0.0460  0.4752  0.9591
    3CHTO  H110 1078   6.476   0.145   2.482  2.9764 -1.2691  2.7696
    3CHTO  H111 1079   6.373   0.006   2.441  2.1500  0.2946  0.1095
    3CHTO   C69 1080   6.268   0.104   2.733 -0.2187 -0.1211  0.1896
    3CHTO  H126 1081   6.343   0.162   2.791  1.8928 -0.7562 -1.8332
    3CHTO   O41 1082   6.115   0.175   2.777 -0.1435  0.7718  0.0322
    3CHTO   C64 1083   6.105   0.302   2.761 -0.0383 -0.2014  0.4301
    3CHTO  H121 1084   6.173   0.361   2.826  0.0965  0.3215 -0.1911
    3CHTO   C71 1085   5.959   0.342   2.798  0.1997  0.0738  0.0860
    3CHTO   O47 1086   5.863   0.289   2.704 -0.5529  0.4662  0.0292
    3CHTO  H104 1087   5.898   0.234   2.637 -3.0615 -1.6663  0.3677
    3CHTO   O34 1088   6.270  -0.047   2.774  0.1662  0.2137 -0.0235
    3CHTO   C49 1089   6.266  -0.213   2.720 -0.4374  0.3697 -0.0721
    3CHTO   H91 1090   6.339  -0.200   2.640  1.0755  0.9636  1.3866
    3CHTO   C47 1091   6.128  -0.266   2.678 -0.1162 -0.6627 -0.2929
    3CHTO   H89 1092   6.114  -0.230   2.574  1.3854  1.2356  0.1219
    3CHTO   O33 1093   6.028  -0.201   2.763  0.1723  0.4125 -0.2053
    3CHTO   H70 1094   5.941  -0.200   2.727 -0.0482 -0.0447  0.2963
    3CHTO   C45 1095   6.122  -0.429   2.690  0.0173  0.7193 -0.4296
    3CHTO   H87 1096   6.089  -0.455   2.792 -1.1666 -0.2127 -1.0364
    3CHTO    N8 1097   6.027  -0.487   2.599 -0.4295 -0.2085  0.1101
    3CHTO   H75 1098   6.060  -0.485   2.497  1.3490  2.7244  0.6971
    3CHTO   H76 1099   5.989  -0.584   2.627 -2.2333  0.2099 -0.8022
    3CHTO   C43 1100   6.270  -0.490   2.672  0.3094 -2.3894  0.0828
    3CHTO   H85 1101   6.267  -0.599   2.663  1.0754 -2.2311 -3.0117
    3CHTO   O29 1102   6.340  -0.446   2.792  0.4802 -0.0198 -0.3304
    3CHTO   C50 1103   6.333  -0.307   2.827  0.4836  0.3523 -0.7729
    3CHTO   H92 1104   6.278  -0.300   2.922  0.2919  2.0489 -1.0009
    3CHTO   C54 1105   6.470  -0.259   2.878 -0.1498 -0.7356 -0.0435
    3CHTO   O36 1106   6.569  -0.252   2.779 -0.4690  0.4832  0.0170
    3CHTO   H72 1107   6.653  -0.245   2.821 -0.6994  1.6212  0.3124
    3CHTO   O27 1108   6.333  -0.447   2.549 -0.3627 -0.4823 -0.2197
    3CHTO   C37 1109   6.391  -0.434   2.421 -0.0218 -0.1768 -0.0947
    3CHTO   H79 1110   6.434  -0.524   2.376 -1.0821 -0.5414 -0.3971
    3CHTO   C38 1111   6.286  -0.372   2.312 -0.3729  0.0858 -0.1810
    3CHTO   H80 1112   6.240  -0.285   2.361  4.6048  1.2312  2.7832
    3CHTO   O31 1113   6.184  -0.474   2.292 -0.4805  1.1625 -0.5428
    3CHTO   H68 1114   6.222  -0.560   2.286  0.7710  1.6063  0.8075
    3CHTO   C39 1115   6.357  -0.342   2.178 -0.5129 -0.7780  0.5266
    3CHTO   H81 1116   6.387  -0.441   2.144  0.5029  0.1452 -1.3249
    3CHTO    N7 1117   6.262  -0.291   2.070  0.0537  0.1044 -0.4638
    3CHTO   H73 1118   6.169  -0.263   2.117  1.2528  1.2705  1.2298
    3CHTO   H74 1119   6.251  -0.345   1.976 -0.4172 -0.7750  0.0816
    3CHTO   C40 1120   6.480  -0.247   2.203  0.7900 -0.9113  0.9170
    3CHTO   H82 1121   6.429  -0.155   2.230 -0.6903 -1.8278  1.3397
    3CHTO   O26 1122   6.569  -0.288   2.310 -0.4308 -0.4117  0.0872
    3CHTO   C41 1123   6.515  -0.332   2.435 -0.4441  0.0719  0.2355
    3CHTO   H83 1124   6.483  -0.241   2.486  2.0836  0.8923  0.4481
    3CHTO   C52 1125   6.616  -0.415   2.524 -0.2730  0.8256 -0.6197
    3CHTO   O35 1126   6.672  -0.527   2.454  0.6074  0.6202 -0.1008
    3CHTO   H71 1127   6.728  -0.485   2.392  0.4805 -1.1535 -1.4313
    3CHTO   O28 1128   6.555  -0.238   2.084 -0.3732  0.3573  0.0064
    3CHTO   C42 1129   6.653  -0.132   2.049 -0.6887 -0.7345 -0.3236
    3CHTO   H84 1130   6.711  -0.160   1.961  0.5552 -2.4401  0.9925
    3CHTO   C44 1131   6.757  -0.104   2.163 -0.1454  0.3309  0.8631
    3CHTO   H86 1132   6.705  -0.075   2.254 -0.3401 -0.4851  1.0126
    3CHTO   O32 1133   6.828  -0.231   2.177 -0.1050 -0.5017  0.0968
    3CHTO   H69 1134   6.757  -0.293   2.177  0.4920 -1.2078 -1.7107
    3CHTO   C48 1135   6.869   0.010   2.113  0.2320 -0.2573 -0.8921
    3CHTO   H90 1136   6.938  -0.035   2.043 -2.6985 -2.6162 -2.3808
    3CHTO    N9 1137   6.959   0.061   2.224  0.3383  0.0300 -0.2451
    3CHTO   H77 1138   7.066   0.050   2.222  0.3641  0.4723 -2.0389
    3CHTO   H78 1139   6.916   0.152   2.264 -1.5382  0.4648 -3.0981
    3CHTO   C51 1140   6.792   0.136   2.053  0.8521  0.1784  0.3374
    3CHTO   H93 1141   6.751   0.194   2.135  1.5953 -1.4495  1.8798
    3CHTO   O30 1142   6.690   0.094   1.958 -0.8177  0.0278  0.9446
    3CHTO   C46 1143   6.583   0.007   2.010  0.4923  0.0084  0.6118
    3CHTO   H88 1144   6.533   0.059   2.092 -0.8971  3.9903 -2.5930
    3CHTO   C53 1145   6.473  -0.011   1.905  1.2532 -0.3056  0.2220
    3CHTO   O72 1146   6.420   0.100   1.834  0.0898  0.2022 -0.0228
    3CHTO  H199 1147   6.346   0.063   1.791 -1.1353  1.0954  1.2717
    3CHTO   O22 1148   6.885   0.222   1.978  0.0972  0.2739 -0.5999
    3CHTO   C31 1149   6.842   0.364   1.943  0.1099  1.0248 -1.1468
    3CHTO   H59 1150   6.746   0.387   1.993  0.5260  1.3191 -0.4748
    3CHTO   C29 1151   6.942   0.462   2.004  0.1446 -0.5281 -0.3360
    3CHTO   H57 1152   7.039   0.450   1.954 -0.5781 -1.0537 -1.6441
    3CHTO   O21 1153   6.950   0.420   2.147  0.6651  0.5379 -0.5174
    3CHTO   H37 1154   6.871   0.431   2.197 -1.0641 -1.3067 -2.7615
    3CHTO   C27 1155   6.893   0.609   1.977 -0.5094 -0.2004 -0.4591
    3CHTO   H55 1156   6.795   0.623   2.025 -1.9824 -3.1042 -2.4473
    3CHTO    N5 1157   6.998   0.698   2.037  0.2958 -1.0376 -0.0466
    3CHTO   H43 1158   7.104   0.684   2.018  0.5849  1.3724 -0.4425
    3CHTO   H44 1159   6.968   0.802   2.039 -1.6518 -1.5631 -1.3731
    3CHTO   C25 1160   6.880   0.634   1.823  0.2625 -1.1350 -1.0770
    3CHTO   H53 1161   6.979   0.611   1.780  0.0215 -0.0112 -2.2626
    3CHTO   O17 1162   6.783   0.533   1.775 -0.2681  0.2335  0.2690
    3CHTO   C32 1163   6.823   0.395   1.792 -0.3383 -0.2452 -0.2325
    3CHTO   H60 1164   6.915   0.368   1.739 -1.2197 -1.7306 -1.0274
    3CHTO   C36 1165   6.711   0.307   1.736  0.1534 -0.8557 -0.4563
    3CHTO   O25 1166   6.582   0.313   1.795  0.5398 -0.8746 -0.4221
    3CHTO   H40 1167   6.549   0.395   1.761 -0.9080 -1.3686 -0.2374
    3CHTO   O15 1168   6.826   0.778   1.788 -0.2527  0.5374  0.0202
    3CHTO   C19 1169   6.774   0.803   1.662  0.4554  0.7362  0.1672
    3CHTO   H47 1170   6.795   0.714   1.600 -2.0315 -0.0695  0.4596
    3CHTO   C20 1171   6.623   0.817   1.659  1.2463 -0.0573 -0.0615
    3CHTO   H48 1172   6.589   0.907   1.712 -1.8465 -0.2008 -1.6508
    3CHTO   O19 1173   6.556   0.697   1.712  0.1413 -0.2497  0.1241
    3CHTO   H35 1174   6.482   0.708   1.769 -0.4589 -0.2176 -0.6499
    3CHTO   C21 1175   6.582   0.835   1.500 -0.4579 -0.0156 -0.6268
    3CHTO   H49 1176   6.587   0.737   1.453  1.8034 -0.2090 -0.0463
    3CHTO    N4 1177   6.444   0.872   1.488 -0.9639  0.0800  0.9467
    3CHTO   H41 1178   6.429   0.875   1.381  0.6129 -0.1638  0.7059
    3CHTO   H42 1179   6.425   0.972   1.526 -1.9374  0.9039 -1.5582
    3CHTO   C22 1180   6.684   0.929   1.425 -0.2300 -0.5557 -0.0199
    3CHTO   H50 1181   6.657   1.031   1.453 -2.2160 -0.6913 -1.4245
    3CHTO   O14 1182   6.823   0.915   1.458  0.6892 -0.0518  0.1919
    3CHTO   C23 1183   6.849   0.919   1.598  0.4319 -0.3238 -0.1409
    3CHTO   H51 1184   6.811   1.015   1.637 -0.2028 -0.5635 -0.1734
    3CHTO   C34 1185   6.999   0.927   1.614 -0.6611 -0.3232 -0.4852
    3CHTO   O23 1186   7.034   0.965   1.743  0.1377 -0.3317  0.1045
    3CHTO   H38 1187   7.014   0.894   1.800  1.4352 -2.5823 -2.1548
    3CHTO   O16 1188   6.678   0.910   1.281  0.3671 -0.1680 -0.2536
    3CHTO   C24 1189   6.732   1.040   1.213 -0.2389  0.0810  0.6592
    3CHTO   H52 1190   6.780   1.107   1.285  1.3309  1.0087 -1.2139
    3CHTO   C26 1191   6.618   1.097   1.133 -0.3805  0.1428  0.1786
    3CHTO   H54 1192   6.588   1.023   1.056  1.9074  0.9366 -1.5359
    3CHTO   O20 1193   6.500   1.122   1.217  0.3802  0.5807  0.0725
    3CHTO   H36 1194   6.422   1.148   1.172  0.8951  1.0497 -0.5526
    3CHTO   C30 1195   6.672   1.227   1.059  0.2333 -0.8075  0.8518
    3CHTO   H58 1196   6.707   1.301   1.133 -0.5059  1.4611 -0.9903
    3CHTO    N6 1197   6.569   1.300   0.974 -0.7939 -0.2222 -0.7368
    3CHTO   H45 1198   6.491   1.306   1.049  0.9752  3.2072  0.9952
    3CHTO   H46 1199   6.541   1.238   0.890  0.0880 -1.6346 -0.0096
    3CHTO   C33 1200   6.799   1.200   0.972 -0.3694 -0.3354 -0.0732
    3CHTO   H61 1201   6.776   1.141   0.881 -3.8934  0.5266  0.1962
    3CHTO   O18 1202   6.896   1.127   1.056 -0.1249  0.4301  0.2958
    3CHTO   C28 1203   6.848   1.003   1.110  0.0277 -0.7854  0.4119
    3CHTO   H56 1204   6.802   0.939   1.034  1.9942 -2.1941  0.3713
    3CHTO   C35 1205   6.963   0.910   1.163  0.0568 -0.0901 -0.1941
    3CHTO   O24 1206   7.061   0.896   1.071  0.0546 -0.2018 -0.2479
    3CHTO   H39 1207   7.103   0.979   1.056 -1.0262 -0.2825 -4.2075
    3CHTO    O9 1208   6.849   1.325   0.927  0.1358  0.0611 -0.5698
    3CHTO   C13 1209   6.931   1.404   1.027  0.0410 -0.6976 -0.3214
    3CHTO   H26 1210   6.932   1.355   1.126 -1.6210 -0.9036 -0.3927
    3CHTO   C11 1211   6.867   1.552   1.033  0.4694  0.7012  0.5083
    3CHTO   H24 1212   6.776   1.539   1.094 -0.0403  1.8525  0.0146
    3CHTO    O8 1213   6.823   1.594   0.899 -0.5342  0.0152 -0.5756
    3CHTO    H3 1214   6.765   1.524   0.877 -1.2974 -0.1911  1.9525
    3CHTO    C9 1215   6.970   1.649   1.104 -0.3350 -0.0158 -1.1337
    3CHTO   H22 1216   6.988   1.604   1.203 -0.1579 -0.3833 -1.3309
    3CHTO    N2 1217   6.914   1.779   1.141  0.1708  0.0019 -0.2710
    3CHTO   H10 1218   6.979   1.854   1.098  1.4676 -1.9266 -1.8094
    3CHTO   H11 1219   6.904   1.785   1.248  0.8591  0.1444 -0.2133
    3CHTO    C7 1220   7.098   1.646   1.024 -0.7196 -0.3547 -0.5681
    3CHTO   H20 1221   7.173   1.702   1.084  1.9617 -2.5392 -1.7326
    3CHTO    O4 1222   7.151   1.518   1.011  0.1253 -0.1465  0.0058
    3CHTO   C14 1223   7.081   1.405   0.979 -0.8536  0.2787  0.1889
    3CHTO   H27 1224   7.141   1.326   1.030  0.7930 -0.4209 -2.7498
    3CHTO   C18 1225   7.091   1.373   0.829 -0.1802  0.1196  0.4945
    3CHTO   O13 1226   7.219   1.320   0.783  0.6459  0.5715 -0.3321
    3CHTO    H7 1227   7.256   1.262   0.847  0.2514 -1.0984 -1.5807
    3CHTO    O2 1228   7.072   1.713   0.883 -0.0311 -0.1100 -0.3001
    3CHTO    C1 1229   7.181   1.789   0.833  0.4226 -0.1236 -0.4743
    3CHTO   H14 1230   7.160   1.821   0.729  0.0321  1.3505  0.0463
    3CHTO    C2 1231   7.319   1.705   0.826  0.3180  0.2441 -0.6065
    3CHTO   H15 1232   7.326   1.650   0.921 -0.1916  0.1137 -0.6448
    3CHTO    O6 1233   7.303   1.616   0.717 -0.0512 -0.5082 -0.1016
    3CHTO    H1 1234   7.274   1.659   0.639 -2.7296  0.0116  1.1410
    3CHTO    C3 1235   7.448   1.804   0.810  0.0634 -0.4146  0.5179
    3CHTO   H16 1236   7.452   1.842   0.707  0.4989 -1.3661  0.1770
    3CHTO    N1 1237   7.578   1.727   0.839  0.3423  0.1617  0.8020
    3CHTO    H8 1238   7.636   1.721   0.747 -1.2702 -0.9722 -0.1759
    3CHTO    H9 1239   7.647   1.755   0.917  2.4347  0.7097 -1.1524
    3CHTO    C4 1240   7.438   1.931   0.904 -0.2427  0.1172  0.0032
    3CHTO   H17 1241   7.448   1.897   1.007  1.2468  0.4138 -0.0340
    3CHTO    O1 1242   7.315   1.997   0.882  0.0704 -0.4959  0.3454
    3CHTO    C5 1243   7.199   1.922   0.921 -0.2703  0.5489 -0.4999
    3CHTO   H18 1244   7.212   1.892   1.025 -0.2987 -0.1416 -0.6916
    3CHTO   C16 1245   7.076   2.016   0.907 -0.9730  0.1442 -0.1875
    3CHTO   O11 1246   7.062   2.079   0.780  0.0848 -0.3235  0.3132
    3CHTO    H5 1247   7.128   2.142   0.760  0.8555 -1.4208 -0.6930
    3CHTO    O3 1248   7.539   2.025   0.869  0.6008 -0.2283 -0.0427
    3CHTO    C6 1249   7.564   2.104   0.993 -0.1892 -0.6429 -0.2123
    3CHTO   H19 1250   7.479   2.122   1.058  2.2789  1.9478  2.4686
    3CHTO    C8 1251   7.678   2.046   1.087 -0.1342  0.2355  0.1400
    3CHTO   H21 1252   7.765   2.020   1.027 -0.3035  2.3783 -1.1026
    3CHTO    O7 1253   7.625   1.936   1.165 -0.5822  0.1146 -0.2544
    3CHTO    H2 1254   7.532   1.942   1.161 -0.5852  1.0249  0.7088
    3CHTO   C12 1255   7.734   2.152   1.185 -0.1785  0.2249 -0.0939
    3CHTO   H25 1256   7.656   2.159   1.264 -1.0510  1.7774 -1.0842
    3CHTO    N3 1257   7.859   2.101   1.257  1.3092  0.0940  0.2389
    3CHTO   H12 1258   7.904   2.023   1.197 -0.9657 -1.0549 -0.0462
    3CHTO   H13 1259   7.830   2.059   1.352 -1.5357 -0.1855 -0.6977
    3CHTO   C15 1260   7.757   2.289   1.118 -0.3005 -1.2140 -0.8082
    3CHTO   H28 1261   7.841   2.283   1.050  0.7423 -1.8056  0.5171
    3CHTO   O10 1262   7.779   2.420   1.222 -0.0848  0.1122  0.2922
    3CHTO    H4 1263   7.792   2.506   1.187  1.4153 -0.3937 -0.4586
    3CHTO    O5 1264   7.639   2.336   1.049  0.0662  0.4181  0.2028
    3CHTO   C10 1265   7.607   2.247   0.943  0.0452  0.5643 -0.0966
    3CHTO   H23 1266   7.694   2.231   0.879  0.3011 -0.7125  0.5542
    3CHTO   C17 1267   7.503   2.320   0.861  0.0334 -0.2367  0.0086
    3CHTO   O12 1268   7.553   2.441   0.804 -0.3480  0.2286 -0.0258
    3CHTO    H6 1269   7.591   2.490   0.875 -1.9071 -0.0321  1.0097
    4CHTO  H203 1270   5.193   7.039   2.707 -0.8480  0.2306  1.6103
    4CHTO   O82 1271   5.275   7.072   2.740 -0.1107  0.0033  0.0669
    4CHTO  C123 1272   5.278   7.215   2.739 -0.4909  0.3070 -0.7373
    4CHTO  H227 1273   5.225   7.253   2.827 -0.4581  1.1434 -1.0759
    4CHTO   O77 1274   5.414   7.254   2.751 -0.2149 -0.6247  0.3573
    4CHTO  C118 1275   5.431   7.388   2.795 -0.1161 -0.2811  0.3446
    4CHTO  H222 1276   5.382   7.413   2.890  1.7201  0.6711  1.0636
    4CHTO  C125 1277   5.584   7.420   2.816 -0.1294 -0.4157 -0.0185
    4CHTO   O84 1278   5.609   7.527   2.917  0.2503 -0.1147  0.1175
    4CHTO  H205 1279   5.700   7.548   2.912  0.6012 -1.9315 -2.1000
    4CHTO  C114 1280   5.377   7.478   2.681  0.2276  0.5268  0.1328
    4CHTO  H218 1281   5.447   7.478   2.598  1.6461 -3.7896  1.2140
    4CHTO  C116 1282   5.242   7.437   2.641 -0.3788 -0.2325  0.2469
    4CHTO  H220 1283   5.177   7.439   2.731  0.6857 -2.1571  1.0945
    4CHTO   O79 1284   5.196   7.525   2.535 -0.2825  0.2754 -0.1933
    4CHTO  H201 1285   5.106   7.512   2.514 -0.6579 -1.8799  2.4244
    4CHTO  C120 1286   5.233   7.281   2.605  0.3230 -0.0718  0.4538
    4CHTO  H224 1287   5.303   7.254   2.523 -1.2266  1.5714 -1.4624
    4CHTO   N21 1288   5.101   7.238   2.559 -0.2099  0.0534 -1.1224
    4CHTO  H211 1289   5.043   7.220   2.648  1.3734 -0.1452 -0.1021
    4CHTO  H212 1290   5.104   7.152   2.495  0.1564 -1.6398  1.1017
    4CHTO   O75 1291   5.368   7.609   2.741  0.2721 -0.1658 -0.7448
    4CHTO  C112 1292   5.417   7.741   2.658 -0.2095  0.3572  0.1157
    4CHTO  H216 1293   5.403   7.717   2.552 -0.2859 -2.4517  0.7134
    4CHTO   O73 1294   5.557   7.766   2.688 -0.3925 -0.5974  0.3475
    4CHTO  C113 1295   5.611   7.879   2.619  0.2493 -0.6555 -0.5198
    4CHTO  H217 1296   5.592   7.857   2.512  0.9759 -1.5700 -0.4661
    4CHTO  C124 1297   5.765   7.883   2.630  0.4073 -0.0784 -0.3741
    4CHTO   O83 1298   5.801   7.895   2.769  0.7416  0.2673  0.3806
    4CHTO  H204 1299   5.797   7.986   2.791  0.1468  0.4735 -0.5676
    4CHTO  C109 1300   5.541   8.007   2.677 -0.5540  0.4615 -0.4675
    4CHTO  H213 1301   5.570   8.011   2.783 -0.3778 -1.5480 -0.4192
    4CHTO  C110 1302   5.387   8.000   2.649 -0.1748 -0.1950 -0.2914
    4CHTO  H214 1303   5.371   8.016   2.542 -1.3040  0.0197 -0.0908
    4CHTO   O78 1304   5.325   8.111   2.712  0.0947  0.0740  0.2506
    4CHTO  H200 1305   5.367   8.139   2.791 -0.8363  1.6252  0.2117
    4CHTO  C111 1306   5.323   7.867   2.692 -0.2515  0.4755 -0.5175
    4CHTO  H215 1307   5.312   7.862   2.801 -2.5533 -0.4240 -0.7700
    4CHTO   N19 1308   5.188   7.844   2.635  0.0749 -0.0919 -0.5038
    4CHTO  H207 1309   5.126   7.931   2.648 -0.1469 -0.2290 -0.6270
    4CHTO  H208 1310   5.141   7.751   2.666 -0.7041  1.0522  1.8316
    4CHTO   O74 1311   5.606   8.128   2.621 -0.1566  0.4749 -0.8202
    4CHTO  C115 1312   5.578   8.272   2.648 -0.6248 -0.2753 -0.2829
    4CHTO  H219 1313   5.476   8.298   2.618 -0.7617 -3.4643 -2.7841
    4CHTO   O76 1314   5.583   8.300   2.793  0.1692 -0.5809 -0.7088
    4CHTO  C122 1315   5.712   8.278   2.853 -0.2440  1.0246  0.1915
    4CHTO  H226 1316   5.711   8.171   2.872 -1.4967  0.3729 -3.2508
    4CHTO  C126 1317   5.707   8.349   2.991 -0.3203  0.4288 -0.1026
    4CHTO   O85 1318   5.802   8.309   3.091  0.2247 -0.0730 -0.1837
    4CHTO  H206 1319   5.865   8.247   3.060 -0.8272 -0.4346 -1.6626
    4CHTO  C121 1320   5.844   8.330   2.769  0.2503  0.9370  0.5988
    4CHTO  H225 1321   5.907   8.390   2.838  3.4356  1.6039 -2.6827
    4CHTO   O81 1322   5.928   8.222   2.732 -0.2640  0.4232  0.2659
    4CHTO  H202 1323   5.935   8.158   2.800 -0.7426  0.0930  0.0025
    4CHTO  C119 1324   5.798   8.420   2.651  0.5607  0.2289 -0.0479
    4CHTO  H223 1325   5.747   8.501   2.704  2.7623  0.2220  2.1514
    4CHTO  C117 1326   5.686   8.354   2.560  0.1068  0.4828  0.2539
    4CHTO  H221 1327   5.728   8.286   2.487  1.4910  0.0055  1.4705
    4CHTO   N20 1328   5.613   8.458   2.484  0.0791  0.0013  0.0986
    4CHTO  H209 1329   5.538   8.416   2.419  1.3102 -1.2321 -0.5764
    4CHTO  H210 1330   5.570   8.521   2.560  0.9477  1.0161 -0.2246
    4CHTO   O80 1331   5.907   8.493   2.571 -0.3276  0.4783  0.2283
    4CHTO  C103 1332   6.024   8.572   2.635  0.1983 -0.6217  0.3484
    4CHTO  H190 1333   5.984   8.594   2.734  0.8158 -0.9745  0.6740
    4CHTO  C101 1334   6.155   8.492   2.640 -0.1740  0.2824  0.3557
    4CHTO  H188 1335   6.142   8.420   2.558 -0.7317 -0.1517  0.8201
    4CHTO   O68 1336   6.164   8.431   2.772  0.7733  0.1508  0.3800
    4CHTO  H168 1337   6.084   8.433   2.820  2.0397  0.2651  2.5512
    4CHTO   C99 1338   6.290   8.572   2.603  0.3994 -0.5424  0.4271
    4CHTO  H186 1339   6.337   8.601   2.699  1.0985  2.1389 -0.6949
    4CHTO   N17 1340   6.390   8.499   2.519  0.0680 -0.1478  0.3461
    4CHTO  H174 1341   6.365   8.402   2.480  0.8670  0.6160 -2.2332
    4CHTO  H175 1342   6.492   8.516   2.553  0.7411 -0.2025 -1.5575
    4CHTO   C97 1343   6.256   8.707   2.528 -0.0358 -0.5221  0.5941
    4CHTO  H184 1344   6.235   8.691   2.421  0.7115  1.4186  0.1252
    4CHTO   O64 1345   6.149   8.776   2.592 -0.5717  0.1323 -0.6732
    4CHTO  C104 1346   6.034   8.708   2.560 -0.3049 -0.3112 -0.2985
    4CHTO  H191 1347   6.022   8.686   2.454  1.7537 -2.1007 -0.1944
    4CHTO  C108 1348   5.918   8.798   2.599 -0.0126  0.9274 -0.0698
    4CHTO   O71 1349   5.927   8.921   2.529  0.5822  0.8538  0.4811
    4CHTO  H171 1350   5.841   8.948   2.503  0.3252 -1.0066 -0.7123
    4CHTO   O62 1351   6.365   8.797   2.532 -0.5028 -1.2586 -0.6371
    4CHTO   C91 1352   6.405   8.863   2.409 -0.2257  0.2308  0.8302
    4CHTO  H178 1353   6.380   8.804   2.320  0.0998  0.6626  0.4512
    4CHTO   C92 1354   6.553   8.875   2.402 -0.0194 -0.3777 -0.0654
    4CHTO  H179 1355   6.587   8.944   2.480  1.3205 -0.8531 -0.2227
    4CHTO   O66 1356   6.626   8.753   2.421  0.0749 -0.5731  0.2872
    4CHTO  H166 1357   6.640   8.704   2.342 -2.5800  0.9422 -1.1981
    4CHTO   C93 1358   6.596   8.943   2.263  0.6461 -0.0769  0.1959
    4CHTO  H180 1359   6.592   8.862   2.189 -1.2519 -0.0074  0.1945
    4CHTO   N16 1360   6.740   8.973   2.249 -0.3816  0.0491 -0.0391
    4CHTO  H172 1361   6.770   9.031   2.163 -0.0708 -1.8733 -1.2602
    4CHTO  H173 1362   6.809   8.893   2.274  0.0744  0.8581  1.4090
    4CHTO   C94 1363   6.499   9.053   2.218  0.7729 -0.1107  0.2506
    4CHTO  H181 1364   6.549   9.143   2.182 -0.4142  0.2843 -0.4590
    4CHTO   O61 1365   6.412   9.099   2.322 -0.4790  0.0490 -0.4875
    4CHTO   C95 1366   6.339   9.001   2.396  0.8503 -0.7313  0.2443
    4CHTO  H182 1367   6.324   9.042   2.496 -0.5599  0.8450 -0.5951
    4CHTO  C106 1368   6.196   8.992   2.333  0.1713  0.0932  0.3140
    4CHTO   O69 1369   6.116   9.111   2.353  0.3437  0.1984  0.3946
    4CHTO  H169 1370   6.099   9.129   2.444  0.9838  0.5945  0.4462
    4CHTO   O63 1371   6.421   9.003   2.099  0.5507 -0.6125  0.6079
    4CHTO   C96 1372   6.516   9.006   1.957 -0.3756 -0.1039 -0.2848
    4CHTO  H183 1373   6.617   8.968   1.972 -0.2332 -0.2938 -1.7115
    4CHTO   C98 1374   6.556   9.142   1.890 -0.0202  0.2382 -0.4330
    4CHTO  H185 1375   6.458   9.190   1.874 -1.4727 -2.0604  1.2396
    4CHTO   O67 1376   6.623   9.227   1.982  0.1897 -0.2296  0.1824
    4CHTO  H167 1377   6.710   9.193   1.994  0.4180 -0.1564 -1.1253
    4CHTO  C102 1378   6.637   9.115   1.756  0.0077  0.8693 -0.8383
    4CHTO  H189 1379   6.736   9.077   1.783 -0.2244  2.4649  2.4483
    4CHTO   N18 1380   6.662   9.234   1.669 -0.3689 -0.5480  0.1062
    4CHTO  H176 1381   6.631   9.320   1.726 -1.0978 -1.5492  1.2523
    4CHTO  H177 1382   6.766   9.242   1.639 -0.4529 -1.6361 -0.4754
    4CHTO  C105 1383   6.563   9.008   1.671 -0.0310  0.0351  0.1176
    4CHTO  H192 1384   6.470   9.049   1.632 -0.0769  2.0523  2.2303
    4CHTO   O65 1385   6.539   8.890   1.742 -0.1215 -0.2612 -0.5872
    4CHTO  C100 1386   6.449   8.910   1.853 -0.0850 -0.2933 -0.1652
    4CHTO  H187 1387   6.356   8.951   1.812 -0.4477  0.8516  1.7649
    4CHTO  C107 1388   6.403   8.768   1.911  0.1695  0.2277  0.0983
    4CHTO   O70 1389   6.516   8.686   1.943 -0.2100  0.0812  0.4326
    4CHTO  H170 1390   6.592   8.724   1.903  0.1285 -0.5601  0.4675
    4CHTO   O57 1391   6.668   8.972   1.560 -0.2110  0.4793  0.0572
    4CHTO   C85 1392   6.625   8.916   1.434 -0.3478 -0.3107  0.3093
    4CHTO  H157 1393   6.536   8.974   1.402  2.0827  3.4943  0.1978
    4CHTO   C83 1394   6.575   8.764   1.469  0.2901 -0.3394  0.0902
    4CHTO  H155 1395   6.488   8.769   1.535  1.9733  2.3342  2.1934
    4CHTO   O56 1396   6.671   8.689   1.543  0.2710 -0.0542 -0.7190
    4CHTO  H135 1397   6.647   8.695   1.634  0.1309  2.5922 -0.8778
    4CHTO   C81 1398   6.525   8.710   1.338  0.2245  1.0827  0.4200
    4CHTO  H153 1399   6.449   8.780   1.303 -0.9773  0.7391  2.2896
    4CHTO   N14 1400   6.443   8.588   1.348  0.2484 -0.3020 -0.6868
    4CHTO  H141 1401   6.342   8.606   1.319  0.3962  0.2811 -0.8683
    4CHTO  H142 1402   6.450   8.554   1.449 -2.2931  0.9128 -0.0530
    4CHTO   C79 1403   6.638   8.691   1.234 -0.4122  0.8375  0.1644
    4CHTO  H151 1404   6.598   8.660   1.138  0.5922 -1.1754  0.3842
    4CHTO   O52 1405   6.707   8.811   1.206 -0.4178  0.2075  0.1291
    4CHTO   C86 1406   6.735   8.905   1.314  0.4876 -0.0101  0.2307
    4CHTO  H158 1407   6.833   8.871   1.354  0.5523 -1.8822 -1.4443
    4CHTO   C90 1408   6.762   9.041   1.246 -0.0338 -0.4790 -0.1649
    4CHTO   O60 1409   6.640   9.105   1.215  0.1582 -0.0940  0.1493
    4CHTO  H138 1410   6.583   9.047   1.167  0.0951 -0.0258  0.1400
    4CHTO   O50 1411   6.738   8.587   1.255  0.2347  0.5137  0.5652
    4CHTO   C73 1412   6.876   8.572   1.225  0.2284  0.8178 -0.9013
    4CHTO  H145 1413   6.927   8.669   1.232 -0.6413  1.1557  0.8239
    4CHTO   C74 1414   6.896   8.524   1.088 -0.1046 -0.1123  0.7710
    4CHTO  H146 1415   6.849   8.599   1.022 -1.5682 -2.9068 -1.4950
    4CHTO   O54 1416   7.036   8.527   1.061  0.3243 -0.0162 -0.1010
    4CHTO  H133 1417   7.059   8.484   0.981 -0.7285 -0.2607 -0.2828
    4CHTO   C75 1418   6.823   8.382   1.075 -0.3701 -0.4063  0.1031
    4CHTO  H147 1419   6.721   8.387   1.115 -0.2179 -1.5249  0.6622
    4CHTO   N13 1420   6.822   8.328   0.939  0.9663 -0.0629  0.1584
    4CHTO  H139 1421   6.776   8.231   0.934  0.5363  0.1325  0.2908
    4CHTO  H140 1422   6.923   8.316   0.904  1.6745  0.3282  2.0170
    4CHTO   C76 1423   6.885   8.273   1.171  0.0625  0.4716 -0.6582
    4CHTO  H148 1424   6.980   8.237   1.129  1.5874  1.6483  1.6634
    4CHTO   O49 1425   6.909   8.329   1.298  0.5025 -0.0783 -0.4473
    4CHTO   C77 1426   6.947   8.465   1.317 -0.2391 -1.3253 -0.3298
    4CHTO  H149 1427   7.055   8.463   1.301 -0.1607 -2.9342  0.2602
    4CHTO   C88 1428   6.928   8.492   1.464  0.1841 -0.3975  0.0798
    4CHTO   O58 1429   7.045   8.452   1.548  0.0507  0.0200 -0.6105
    4CHTO  H136 1430   7.062   8.360   1.539 -1.8123 -0.5257  0.9290
    4CHTO   O51 1431   6.762   8.144   1.202 -0.1938  0.4596  0.1099
    4CHTO   C78 1432   6.828   7.990   1.216 -0.4273 -0.8739  0.0024
    4CHTO  H150 1433   6.936   7.988   1.242 -0.2215 -1.2450 -0.8894
    4CHTO   C80 1434   6.805   7.934   1.078 -0.1750 -0.0907 -0.2937
    4CHTO  H152 1435   6.697   7.947   1.053 -0.5668  2.3283  2.3792
    4CHTO   O55 1436   6.897   8.019   1.000 -0.2556 -0.0003 -0.3417
    4CHTO  H134 1437   6.856   8.010   0.916 -1.8660 -0.4656  0.4620
    4CHTO   C84 1438   6.843   7.781   1.061  0.3437  0.4669  0.0863
    4CHTO  H156 1439   6.951   7.785   1.075  0.2639 -0.7697  1.1641
    4CHTO   N15 1440   6.833   7.717   0.922 -0.1144 -0.3142 -0.1126
    4CHTO  H143 1441   6.736   7.736   0.881 -0.7159 -1.5434  0.6774
    4CHTO  H144 1442   6.848   7.611   0.923  0.9063 -0.1870 -1.8985
    4CHTO   C87 1443   6.766   7.693   1.165  0.3823 -0.4827  0.5150
    4CHTO  H159 1444   6.661   7.676   1.143 -0.5724  1.9543  2.9124
    4CHTO   O53 1445   6.786   7.767   1.319  0.2984 -0.4245  0.3151
    4CHTO   C82 1446   6.749   7.910   1.316 -0.9819  0.2905 -0.2796
    4CHTO  H154 1447   6.643   7.925   1.300 -0.7847  0.3504 -1.6275
    4CHTO   C89 1448   6.782   7.959   1.455 -0.4712 -0.2897 -0.6437
    4CHTO   O59 1449   6.727   8.083   1.486  0.8535  0.2689  0.3807
    4CHTO  H137 1450   6.786   8.137   1.534  0.7057  0.9145 -0.1575
    4CHTO   O45 1451   6.826   7.544   1.187 -0.6667 -1.0251 -0.0710
    4CHTO   C67 1452   6.749   7.432   1.140  0.2207 -0.0283 -0.6104
    4CHTO  H124 1453   6.708   7.448   1.040 -2.0616  0.5442  0.3804
    4CHTO   C65 1454   6.842   7.309   1.142  0.1601 -0.7083 -0.2615
    4CHTO  H122 1455   6.933   7.338   1.091  0.5035  0.0578  0.7593
    4CHTO   O44 1456   6.791   7.199   1.066  0.5025 -0.2950  0.1688
    4CHTO  H102 1457   6.857   7.155   1.016  0.6214 -0.0605  0.1158
    4CHTO   C63 1458   6.880   7.285   1.293 -0.3234  0.0708 -0.7424
    4CHTO  H120 1459   6.918   7.379   1.334  2.2567 -0.7898 -1.0773
    4CHTO   N11 1460   7.004   7.202   1.305  0.9309 -0.2760  0.3100
    4CHTO  H108 1461   7.023   7.190   1.410 -0.8043  0.9316  0.7815
    4CHTO  H109 1462   6.986   7.099   1.282  1.0419 -0.8578  2.7198
    4CHTO   C61 1463   6.756   7.235   1.373 -0.0509 -0.3800  1.1992
    4CHTO  H118 1464   6.775   7.258   1.479 -0.1492 -2.2019  1.6254
    4CHTO   O40 1465   6.636   7.313   1.335 -0.1436 -0.1443 -0.2683
    4CHTO   C68 1466   6.616   7.408   1.227 -0.4597  0.2732 -0.0239
    4CHTO  H125 1467   6.594   7.506   1.273 -4.0438 -1.3039  1.7916
    4CHTO   C72 1468   6.485   7.364   1.150  0.3436  0.0163 -0.3798
    4CHTO   O48 1469   6.487   7.238   1.087  0.1320  1.0084 -0.5220
    4CHTO  H105 1470   6.421   7.185   1.127  0.0162  1.7812  0.3254
    4CHTO   O38 1471   6.726   7.095   1.346 -0.3431  0.1222  0.3101
    4CHTO   C55 1472   6.676   7.013   1.453 -0.1151  0.1562 -0.0197
    4CHTO  H112 1473   6.604   7.073   1.509  1.1260  0.5848  1.1552
    4CHTO   C56 1474   6.792   6.960   1.545  0.5879 -0.0303 -0.5772
    4CHTO  H113 1475   6.865   6.907   1.481 -1.5088 -2.1354 -1.2947
    4CHTO   O42 1476   6.870   7.061   1.610  0.4729  0.5669  0.0815
    4CHTO  H100 1477   6.914   7.116   1.548 -0.3450  3.1395  1.7319
    4CHTO   C57 1478   6.735   6.864   1.655 -0.1110 -0.5822 -0.6289
    4CHTO  H114 1479   6.689   6.929   1.729  1.2947 -0.4363  0.1323
    4CHTO   N10 1480   6.838   6.778   1.717  0.7847 -0.0494  0.3398
    4CHTO  H106 1481   6.906   6.748   1.639  0.1049 -1.7917  0.3944
    4CHTO  H107 1482   6.790   6.689   1.756 -0.0442 -0.1211 -0.8026
    4CHTO   C58 1483   6.621   6.770   1.596 -0.2481 -0.1952 -0.4928
    4CHTO  H115 1484   6.668   6.698   1.526  1.1873 -0.7845  1.0310
    4CHTO   O37 1485   6.523   6.846   1.522 -0.0989  0.0240  0.2399
    4CHTO   C59 1486   6.581   6.901   1.407 -0.1342  0.1814 -0.4307
    4CHTO  H116 1487   6.628   6.822   1.349 -1.8183 -1.3553  0.2648
    4CHTO   C70 1488   6.465   6.960   1.324 -0.0474 -0.2722 -0.3875
    4CHTO   O46 1489   6.506   6.971   1.190 -0.3423 -0.1224  0.4980
    4CHTO  H103 1490   6.569   6.904   1.170  0.2286  0.3310  0.7708
    4CHTO   O39 1491   6.542   6.694   1.729 -0.1623  0.2731  0.5276
    4CHTO   C60 1492   6.451   6.589   1.691 -0.2180 -0.1538  0.8835
    4CHTO  H117 1493   6.423   6.617   1.589 -0.2217 -0.4461  0.8053
    4CHTO   C62 1494   6.509   6.445   1.704  0.3780 -0.5230 -0.6267
    4CHTO  H119 1495   6.588   6.442   1.627  0.3042 -1.8555 -0.6702
    4CHTO   O43 1496   6.575   6.415   1.835 -0.0366  0.1207  0.1640
    4CHTO  H101 1497   6.663   6.443   1.816 -0.5856  1.7285 -0.0709
    4CHTO   C66 1498   6.391   6.330   1.677  0.3646  0.3054 -0.6263
    4CHTO  H123 1499   6.360   6.339   1.573 -0.8355  3.1160 -0.0606
    4CHTO   N12 1500   6.459   6.196   1.676  0.1647  0.1035 -0.3427
    4CHTO  H110 1501   6.536   6.214   1.602 -0.4259  0.2476 -0.9317
    4CHTO  H111 1502   6.391   6.119   1.643 -1.5034  1.6596 -0.6010
    4CHTO   C69 1503   6.272   6.359   1.772 -0.4107  0.4602 -0.1308
    4CHTO  H126 1504   6.290   6.360   1.882  1.0895 -0.3612 -0.3586
    4CHTO   O41 1505   6.218   6.477   1.736 -0.1943  0.3415  0.1215
    4CHTO   C64 1506   6.315   6.600   1.771  0.1605 -0.7070 -0.2781
    4CHTO  H121 1507   6.344   6.604   1.878  1.8611  0.4719 -0.7593
    4CHTO   C71 1508   6.237   6.736   1.747  0.1970 -0.7287  1.1933
    4CHTO   O47 1509   6.129   6.766   1.834 -0.3183  0.7545 -0.0298
    4CHTO  H104 1510   6.159   6.797   1.917 -3.5074 -0.9125  1.8144
    4CHTO   O34 1511   6.154   6.240   1.757 -0.4755  0.1932 -0.1666
    4CHTO   C49 1512   6.011   6.284   1.725 -0.2987  0.0505 -0.0476
    4CHTO   H91 1513   5.989   6.377   1.778 -0.9694 -0.3352  0.3551
    4CHTO   C47 1514   5.915   6.180   1.774  0.4066 -0.7729  0.7422
    4CHTO   H89 1515   5.815   6.225   1.760 -0.5475 -3.4785 -1.5808
    4CHTO   O33 1516   5.930   6.143   1.911 -0.7753  0.2148 -0.2030
    4CHTO   H70 1517   6.016   6.163   1.944  0.6883 -1.5240 -2.8059
    4CHTO   C45 1518   5.934   6.042   1.695  0.3952  0.3292 -0.2192
    4CHTO   H87 1519   6.000   5.968   1.742 -0.4454  1.5696  3.0468
    4CHTO    N8 1520   5.798   5.975   1.692 -0.8702 -0.5394 -0.1714
    4CHTO   H75 1521   5.797   5.876   1.737 -0.6565 -0.2754  0.4280
    4CHTO   H76 1522   5.724   6.038   1.739 -0.6817  0.3154 -1.0185
    4CHTO   C43 1523   5.997   6.073   1.543 -0.7128 -0.2576 -0.1204
    4CHTO   H85 1524   6.105   6.081   1.555 -0.4707 -2.0993 -0.8852
    4CHTO   O29 1525   5.937   6.200   1.498 -0.4350  0.1967  0.2798
    4CHTO   C50 1526   5.971   6.315   1.579  0.3216 -0.1969  0.3199
    4CHTO   H92 1527   6.057   6.363   1.530 -0.1571 -0.1984 -0.5337
    4CHTO   C54 1528   5.856   6.417   1.561 -0.3824  0.3891 -0.0612
    4CHTO   O36 1529   5.878   6.546   1.609 -0.1838  0.3619 -0.1629
    4CHTO   H72 1530   5.953   6.588   1.571 -0.9980  0.1356 -2.0500
    4CHTO   O27 1531   5.979   5.963   1.446 -1.4716  0.1324  0.1574
    4CHTO   C37 1532   6.074   5.875   1.388 -0.1183  0.1342  0.1740
    4CHTO   H79 1533   6.031   5.802   1.318 -0.7231  0.0366  0.6503
    4CHTO   C38 1534   6.189   5.943   1.298  0.1314  0.4393 -0.0666
    4CHTO   H80 1535   6.195   6.048   1.331 -3.1314  0.7156 -0.2071
    4CHTO   O31 1536   6.139   5.952   1.162 -0.4238  0.0046 -0.4203
    4CHTO   H68 1537   6.056   5.994   1.151  0.3439  2.6648  3.2031
    4CHTO   C39 1538   6.333   5.872   1.292  0.5309  0.1486 -0.1888
    4CHTO   H81 1539   6.310   5.785   1.230  0.1319  0.7443 -0.8824
    4CHTO    N7 1540   6.446   5.959   1.239  0.5442  0.4247  0.4206
    4CHTO   H73 1541   6.522   5.984   1.311  1.7781 -1.5572 -0.1284
    4CHTO   H74 1542   6.483   5.933   1.140 -0.9029  0.2631 -0.0823
    4CHTO   C40 1543   6.371   5.821   1.436 -0.7229 -0.1509 -0.2151
    4CHTO   H82 1544   6.382   5.904   1.506 -2.8871 -0.3264  0.3763
    4CHTO   O26 1545   6.277   5.732   1.484  0.8065 -0.4449  0.2020
    4CHTO   C41 1546   6.147   5.798   1.510 -0.4245  0.0403  0.2567
    4CHTO   H83 1547   6.164   5.867   1.594 -2.1339 -0.8167  1.3256
    4CHTO   C52 1548   6.051   5.694   1.564  0.1450  0.3196  0.1008
    4CHTO   O35 1549   6.112   5.605   1.676  0.5968  0.3426  0.5951
    4CHTO   H71 1550   6.047   5.600   1.744  2.8092  2.4629  2.9746
    4CHTO   O28 1551   6.487   5.742   1.437  0.1196  0.2814  0.0468
    4CHTO   C42 1552   6.563   5.698   1.552 -0.0884 -0.6071 -0.0620
    4CHTO   H84 1553   6.628   5.631   1.496  0.8787  0.0511  0.2605
    4CHTO   C44 1554   6.483   5.620   1.664  0.0304 -1.1814  0.1039
    4CHTO   H86 1555   6.394   5.675   1.696  1.8929  1.1891  1.3600
    4CHTO   O32 1556   6.428   5.505   1.597 -0.9157 -0.1750  0.4721
    4CHTO   H69 1557   6.402   5.442   1.662  1.2591 -1.7148 -0.0805
    4CHTO   C48 1558   6.570   5.589   1.791 -0.2676  0.2176  0.4466
    4CHTO   H90 1559   6.656   5.529   1.760  0.4211  2.8745 -3.1117
    4CHTO    N9 1560   6.490   5.516   1.891  0.6466 -0.1260 -0.4788
    4CHTO   H77 1561   6.544   5.467   1.971 -0.5394  1.2769  1.2115
    4CHTO   H78 1562   6.412   5.575   1.937 -0.4579 -0.8257 -1.4324
    4CHTO   C51 1563   6.639   5.728   1.844  0.4970 -0.3315  0.2943
    4CHTO   H93 1564   6.552   5.794   1.850 -1.0346 -2.1045 -1.5457
    4CHTO   O30 1565   6.730   5.763   1.735 -0.3152  0.0771 -0.1183
    4CHTO   C46 1566   6.657   5.812   1.609  0.1588  0.2214 -0.6796
    4CHTO   H88 1567   6.605   5.904   1.632  0.1501  0.3832 -1.3331
    4CHTO   C53 1568   6.759   5.855   1.500 -0.7821 -0.5329 -0.5856
    4CHTO   O72 1569   6.840   5.966   1.544 -0.0940  1.0368 -0.1402
    4CHTO  H199 1570   6.804   6.052   1.529  2.4474  2.4977  1.7544
    4CHTO   O22 1571   6.727   5.726   1.963 -0.4582  0.4094 -0.1168
    4CHTO   C31 1572   6.682   5.776   2.101  0.4166  0.3482  0.1767
    4CHTO   H59 1573   6.571   5.775   2.102  0.4290  0.3271  1.7506
    4CHTO   C29 1574   6.731   5.688   2.216  0.3016  0.2012 -0.9467
    4CHTO   H57 1575   6.837   5.665   2.195  0.0721  0.2244 -2.1425
    4CHTO   O21 1576   6.665   5.562   2.205 -0.2903 -0.2423 -0.0193
    4CHTO   H37 1577   6.582   5.560   2.248 -0.3114 -0.0845 -0.0531
    4CHTO   C27 1578   6.716   5.751   2.361  0.0198 -0.8019 -0.1121
    4CHTO   H55 1579   6.609   5.750   2.386  0.0601 -2.6526  0.0570
    4CHTO    N5 1580   6.791   5.675   2.461 -0.0340 -0.4499  0.7839
    4CHTO   H43 1581   6.898   5.678   2.447 -0.3274  0.4576 -1.4785
    4CHTO   H44 1582   6.781   5.716   2.561 -2.7016  0.1369  0.3096
    4CHTO   C25 1583   6.764   5.899   2.371 -0.5882 -0.1140  0.0272
    4CHTO   H53 1584   6.873   5.907   2.370 -0.5652 -0.4450 -0.7215
    4CHTO   O17 1585   6.698   5.975   2.266 -0.3971  0.0509 -0.1480
    4CHTO   C32 1586   6.715   5.926   2.134  0.0229  0.2483  0.1989
    4CHTO   H60 1587   6.821   5.946   2.118  0.6708 -1.6690  1.8318
    4CHTO   C36 1588   6.625   6.017   2.055 -0.0372 -0.8877  0.0959
    4CHTO   O25 1589   6.654   6.153   2.071 -0.1469 -0.2011 -0.3426
    4CHTO   H40 1590   6.669   6.206   1.995 -0.0815  1.0412  0.5256
    4CHTO   O15 1591   6.716   5.955   2.506 -0.7916  0.3257 -0.6535
    4CHTO   C19 1592   6.733   6.070   2.589  0.7042 -0.3644 -0.1473
    4CHTO   H47 1593   6.779   6.022   2.676  1.5023  1.5398  0.5197
    4CHTO   C20 1594   6.826   6.188   2.532  0.2438  0.5209  0.9097
    4CHTO   H48 1595   6.802   6.209   2.427 -2.1710 -1.8409  0.9310
    4CHTO   O19 1596   6.968   6.145   2.536 -0.1607 -0.4150  0.2281
    4CHTO   H35 1597   6.996   6.132   2.447  1.9979  0.7436  0.7133
    4CHTO   C21 1598   6.811   6.323   2.617 -0.0030  0.0641  0.2492
    4CHTO   H49 1599   6.862   6.305   2.711  2.3482  1.1211 -0.7684
    4CHTO    N4 1600   6.883   6.434   2.554  0.2611  0.4331 -0.3024
    4CHTO   H41 1601   6.898   6.523   2.613 -2.1359  1.2332 -0.8295
    4CHTO   H42 1602   6.834   6.466   2.463  1.0400 -1.3311 -1.3545
    4CHTO   C22 1603   6.665   6.353   2.644  0.2877 -0.2904  0.2905
    4CHTO   H50 1604   6.606   6.361   2.552 -0.3821 -4.0908  0.3225
    4CHTO   O14 1605   6.605   6.240   2.716 -0.3384 -0.2558 -0.4087
    4CHTO   C23 1606   6.592   6.120   2.635 -0.3370  0.4310  0.0988
    4CHTO   H51 1607   6.524   6.139   2.552 -1.8677  2.2924  1.7360
    4CHTO   C34 1608   6.529   6.011   2.733 -0.2529  0.3317 -0.2393
    4CHTO   O23 1609   6.404   6.060   2.786  0.9311  0.2515 -0.5816
    4CHTO   H38 1610   6.339   6.054   2.718 -0.2040 -1.1855  0.6130
    4CHTO   O16 1611   6.642   6.464   2.737  0.5515 -0.0693 -0.6265
    4CHTO   C24 1612   6.503   6.554   2.700 -0.7635  0.3721  1.1320
    4CHTO   H52 1613   6.422   6.492   2.660 -0.8611 -0.8049  3.0619
    4CHTO   C26 1614   6.553   6.655   2.593  0.2979  0.2031 -0.0738
    4CHTO   H54 1615   6.626   6.602   2.529  3.3629  0.9119  2.7023
    4CHTO   O20 1616   6.450   6.694   2.506 -0.8900  0.3277  0.1134
    4CHTO   H36 1617   6.368   6.714   2.547 -2.3792 -0.3380 -2.4437
    4CHTO   C30 1618   6.614   6.782   2.661 -1.2802  0.2057 -0.4123
    4CHTO   H58 1619   6.548   6.869   2.664  0.3243  1.4633 -0.9696
    4CHTO    N6 1620   6.716   6.848   2.576 -0.5072 -0.1034  0.1363
    4CHTO   H45 1621   6.768   6.928   2.628 -0.5411 -0.1062  0.1748
    4CHTO   H46 1622   6.668   6.896   2.493 -0.7451  0.7807  0.7685
    4CHTO   C33 1623   6.655   6.756   2.810  0.0406 -0.1854  0.8396
    4CHTO   H61 1624   6.715   6.665   2.815 -0.1582 -0.4642 -1.1717
    4CHTO   O18 1625   6.524   6.732   2.870 -0.2854  0.2303  0.1749
    4CHTO   C28 1626   6.449   6.612   2.831  0.1660  0.3409  0.5675
    4CHTO   H56 1627   6.463   6.541   2.912 -1.6961 -0.0668  0.5483
    4CHTO   C35 1628   6.302   6.648   2.816  0.4750 -0.3031 -0.1414
    4CHTO   O24 1629   6.221   6.707   2.919  0.1857  0.2828 -0.2568
    4CHTO   H39 1630   6.248   6.690   3.007 -2.3720  0.6155  0.6501
    4CHTO    O9 1631   6.727   6.856   2.876  0.3326  0.8661  0.0611
    4CHTO   C13 1632   6.851   6.817   2.980 -0.8801 -0.3276  1.0438
    4CHTO   H26 1633   6.928   6.795   2.903 -0.3907  0.4998  1.2939
    4CHTO   C11 1634   6.821   6.689   3.072 -0.6814 -0.4595  0.3025
    4CHTO   H24 1635   6.823   6.595   3.014  2.0587  0.1835 -0.7051
    4CHTO    O8 1636   6.689   6.697   3.127 -0.2976  0.2302 -0.1219
    4CHTO    H3 1637   6.624   6.674   3.063 -0.2931  0.6778 -0.2895
    4CHTO    C9 1638   6.934   6.682   3.181 -0.3576  0.4076 -0.5328
    4CHTO   H22 1639   7.032   6.688   3.131  0.6265  0.1324  1.3210
    4CHTO    N2 1640   6.942   6.566   3.267  0.5248  0.3758  0.0629
    4CHTO   H10 1641   7.012   6.576   3.349  0.8281 -0.0711 -0.1384
    4CHTO   H11 1642   6.966   6.482   3.203 -1.2047 -0.1081 -0.0012
    4CHTO    C7 1643   6.932   6.812   3.264  0.5249 -0.5693 -0.6157
    4CHTO   H20 1644   7.022   6.791   3.326 -0.0685 -1.7755 -0.1298
    4CHTO    O4 1645   6.953   6.928   3.182  0.2764 -0.0195 -0.3296
    4CHTO   C14 1646   6.879   6.946   3.060  0.3520  0.8665 -0.4343
    4CHTO   H27 1647   6.947   7.009   2.998  0.1866  1.0384 -0.4410
    4CHTO   C18 1648   6.753   7.034   3.096  0.1726 -0.1143 -0.6308
    4CHTO   O13 1649   6.727   7.111   2.978  0.4405  0.1874  0.1380
    4CHTO    H7 1650   6.637   7.138   2.978  0.1795 -0.6340  1.5632
    4CHTO    O2 1651   6.774   6.834   3.352  0.2882  0.6899 -0.0730
    4CHTO    C1 1652   6.767   6.833   3.499  0.7525  0.0606  0.4304
    4CHTO   H14 1653   6.695   6.909   3.535  1.7587  0.7763  0.9691
    4CHTO    C2 1654   6.903   6.874   3.562  0.0124 -0.2815  0.4736
    4CHTO   H15 1655   6.973   6.804   3.514  0.0034  1.2713 -1.8716
    4CHTO    O6 1656   6.943   7.008   3.527 -1.0640  0.5576 -0.3644
    4CHTO    H1 1657   6.983   7.011   3.442  0.3716 -3.1381  0.0997
    4CHTO    C3 1658   6.906   6.850   3.719 -0.2088  0.1945  0.3397
    4CHTO   H16 1659   6.827   6.912   3.764 -2.2711 -1.2774 -1.1779
    4CHTO    N1 1660   7.030   6.881   3.796  0.2592  0.7090  0.4006
    4CHTO    H8 1661   7.052   6.986   3.781  3.9813 -0.3081 -1.9353
    4CHTO    H9 1662   7.120   6.827   3.769  0.1702  0.1010  1.3167
    4CHTO    C4 1663   6.849   6.707   3.749  0.2161 -0.1291  0.8849
    4CHTO   H17 1664   6.922   6.634   3.715 -1.3194 -1.1062 -0.3720
    4CHTO    O1 1665   6.721   6.695   3.695  0.0991 -0.2461  0.6672
    4CHTO    C5 1666   6.721   6.692   3.552 -0.1102 -1.1766  0.6286
    4CHTO   H18 1667   6.786   6.612   3.517 -2.2273 -2.8387  0.3417
    4CHTO   C16 1668   6.581   6.653   3.513 -0.5322 -0.3302 -0.6871
    4CHTO   O11 1669   6.561   6.617   3.376 -0.4003  0.6465 -0.9084
    4CHTO    H5 1670   6.528   6.530   3.363  1.4315  0.0433 -1.6926
    4CHTO    O3 1671   6.827   6.680   3.886  0.3412 -0.2162  0.8507
    4CHTO    C6 1672   6.823   6.538   3.928 -0.3809  0.2658  0.2202
    4CHTO   H19 1673   6.825   6.466   3.846 -2.2964  1.0370 -0.5362
    4CHTO    C8 1674   6.944   6.513   4.024  0.3891 -0.6064 -0.1091
    4CHTO   H21 1675   6.930   6.586   4.104  1.0707 -1.0194  0.3924
    4CHTO    O7 1676   7.063   6.535   3.945 -0.1842  0.8108 -0.4127
    4CHTO    H2 1677   7.072   6.619   3.906  0.5047  0.3822 -1.1908
    4CHTO   C12 1678   6.933   6.364   4.086 -0.2331  0.1255 -0.9106
    4CHTO   H25 1679   6.942   6.288   4.006 -2.2297  0.6005 -1.6181
    4CHTO    N3 1680   7.046   6.344   4.181 -0.1223 -0.2456 -0.3468
    4CHTO   H12 1681   7.052   6.250   4.233  1.5337  0.2188  0.3496
    4CHTO   H13 1682   7.045   6.416   4.262 -0.5979 -1.1891  0.4909
    4CHTO   C15 1683   6.793   6.355   4.158  0.9474  0.3809 -0.0144
    4CHTO   H28 1684   6.785   6.427   4.239 -2.4661  0.0493  0.0247
    4CHTO   O10 1685   6.749   6.215   4.209  0.9230  0.8563 -0.1938
    4CHTO    H4 1686   6.736   6.160   4.134 -0.7821 -0.8818  1.3265
    4CHTO    O5 1687   6.689   6.383   4.063 -0.1932 -0.2902  0.2998
    4CHTO   C10 1688   6.689   6.513   4.007  0.2422  0.2320 -0.5805
    4CHTO   H23 1689   6.684   6.600   4.072 -0.7160 -0.4035  0.2194
    4CHTO   C17 1690   6.560   6.529   3.923  0.1119 -0.0072 -0.1939
    4CHTO   O12 1691   6.548   6.423   3.827 -0.2814 -0.0768 -0.5113
    4CHTO    H6 1692   6.597   6.449   3.751 -1.8787 -0.5438 -1.7493
    5CHTO  H203 1693   7.913   3.635   1.868 -0.1087 -0.5853  0.1452
    5CHTO   O82 1694   7.826   3.643   1.833  0.0524  0.0485 -0.1241
    5CHTO  C123 1695   7.738   3.557   1.904  0.5040 -0.1329  0.5946
    5CHTO  H227 1696   7.778   3.455   1.904  1.3257  0.1573  2.6003
    5CHTO   O77 1697   7.735   3.621   2.035  0.1544 -0.2706  0.0889
    5CHTO  C118 1698   7.658   3.561   2.136  0.4912  0.4256 -0.0248
    5CHTO  H222 1699   7.693   3.457   2.145  0.8795  0.2451 -3.0786
    5CHTO  C125 1700   7.675   3.632   2.274  0.3815  0.0516 -0.0822
    5CHTO   O84 1701   7.811   3.684   2.284  0.5118 -0.2135 -0.1863
    5CHTO  H205 1702   7.840   3.696   2.372  0.8214 -3.9589  0.3312
    5CHTO  C114 1703   7.515   3.547   2.086 -0.3024 -0.2201  0.4213
    5CHTO  H218 1704   7.467   3.645   2.089 -1.2188 -0.6918  2.2129
    5CHTO  C116 1705   7.491   3.491   1.943  0.1971  0.3343  0.4306
    5CHTO  H220 1706   7.504   3.381   1.942 -0.4791  0.2639 -1.5881
    5CHTO   O79 1707   7.356   3.514   1.906 -0.6231 -0.9478  0.0112
    5CHTO  H201 1708   7.332   3.604   1.897 -1.9292 -1.2608  0.2507
    5CHTO  C120 1709   7.592   3.556   1.844  0.9066  1.0137  0.4170
    5CHTO  H224 1710   7.556   3.661   1.839  0.5579  0.9714  1.7538
    5CHTO   N21 1711   7.588   3.490   1.710 -0.0855 -0.6272  0.4053
    5CHTO  H211 1712   7.531   3.550   1.641  0.0783 -0.0241  0.7864
    5CHTO  H212 1713   7.555   3.387   1.712 -0.3124 -0.5705 -0.2564
    5CHTO   O75 1714   7.460   3.474   2.200  0.4829  0.1276 -0.0913
    5CHTO  C112 1715   7.304   3.486   2.239 -0.8803 -0.2907  0.2950
    5CHTO  H216 1716   7.263   3.443   2.147  2.9371 -1.1653 -1.0863
    5CHTO   O73 1717   7.277   3.630   2.252 -0.0736  0.2346  0.3114
    5CHTO  C113 1718   7.134   3.648   2.276 -0.1336  0.3447  0.3889
    5CHTO  H217 1719   7.075   3.587   2.204 -2.3747  2.4165  0.4104
    5CHTO  C124 1720   7.085   3.796   2.251 -0.6436 -0.2035  0.3792
    5CHTO   O83 1721   7.151   3.891   2.340 -0.8564 -0.1365 -0.3466
    5CHTO  H204 1722   7.114   3.977   2.327 -1.1227 -0.2282 -0.1980
    5CHTO  C109 1723   7.095   3.595   2.414  0.4215 -0.1959  0.1129
    5CHTO  H213 1724   7.160   3.651   2.483  1.1137 -0.0041 -0.6857
    5CHTO  C110 1725   7.129   3.437   2.411  0.5264 -0.2038 -0.1551
    5CHTO  H214 1726   7.054   3.386   2.351  0.8398 -2.7978  1.5696
    5CHTO   O78 1727   7.085   3.384   2.542  0.5642 -0.3676 -0.7215
    5CHTO  H200 1728   7.077   3.453   2.605  1.3368  1.2500 -2.3269
    5CHTO  C111 1729   7.273   3.406   2.372 -0.1148  0.3349  0.1406
    5CHTO  H215 1730   7.338   3.433   2.457 -1.2469  0.6580  0.9301
    5CHTO   N19 1731   7.296   3.261   2.358  0.4027 -0.4110  0.0779
    5CHTO  H207 1732   7.398   3.240   2.329 -0.0782 -0.0264 -2.0229
    5CHTO  H208 1733   7.282   3.208   2.450  0.9800 -2.6783 -1.1053
    5CHTO   O74 1734   6.960   3.618   2.444  0.3711 -0.1368 -0.0317
    5CHTO  C115 1735   6.929   3.644   2.600 -0.1300 -0.9513  0.2188
    5CHTO  H219 1736   7.012   3.611   2.664  0.2041  2.0675  1.4631
    5CHTO   O76 1737   6.919   3.801   2.634 -0.2054  0.1086 -0.5849
    5CHTO  C122 1738   6.826   3.871   2.556 -0.1542  0.1145  0.6505
    5CHTO  H226 1739   6.867   3.913   2.464 -0.6180  1.4554  1.0473
    5CHTO  C126 1740   6.786   3.998   2.638 -0.5942  0.0990 -0.8138
    5CHTO   O85 1741   6.897   4.085   2.669  0.2991  0.3176  0.0141
    5CHTO  H206 1742   6.968   4.033   2.701  0.1902  0.7706  1.0412
    5CHTO  C121 1743   6.694   3.793   2.524  0.1478 -0.0854  0.1776
    5CHTO  H225 1744   6.607   3.861   2.538 -0.3755 -0.4160 -1.3680
    5CHTO   O81 1745   6.691   3.760   2.383  0.6884 -0.4126  0.4602
    5CHTO  H202 1746   6.611   3.789   2.346  0.9851 -1.4547 -1.0594
    5CHTO  C119 1747   6.676   3.668   2.627  0.5986  0.8359 -0.2135
    5CHTO  H223 1748   6.657   3.716   2.723 -2.0947 -0.3547 -0.1132
    5CHTO  C117 1749   6.794   3.568   2.640  0.4488 -0.7527  0.2512
    5CHTO  H221 1750   6.787   3.488   2.566  0.9688  0.2600 -0.9132
    5CHTO   N20 1751   6.801   3.499   2.773  0.2978 -0.5011  0.3022
    5CHTO  H209 1752   6.708   3.448   2.797  0.6294 -0.4281  1.7996
    5CHTO  H210 1753   6.876   3.422   2.769  0.7753 -0.0391  0.3227
    5CHTO   O80 1754   6.536   3.580   2.615  0.0905 -0.8171  0.3770
    5CHTO  C103 1755   6.477   3.532   2.467  0.1421  0.2204  0.1599
    5CHTO  H190 1756   6.470   3.619   2.400 -4.8466 -0.7955 -0.8290
    5CHTO  C101 1757   6.551   3.407   2.396 -0.1980 -0.2511 -0.7567
    5CHTO  H188 1758   6.579   3.323   2.461  0.2213 -0.5878 -1.3702
    5CHTO   O68 1759   6.688   3.459   2.329  0.1225 -0.1687  0.2151
    5CHTO  H168 1760   6.762   3.442   2.384  0.2276  1.2163  0.5387
    5CHTO   C99 1761   6.461   3.345   2.279  0.4942 -0.7132  0.2567
    5CHTO  H186 1762   6.430   3.420   2.203  0.6259 -1.4176 -0.5008
    5CHTO   N17 1763   6.534   3.241   2.202  0.9817 -0.1512 -0.9312
    5CHTO  H174 1764   6.467   3.201   2.127 -2.3040 -0.2123  1.9044
    5CHTO  H175 1765   6.569   3.156   2.258 -3.0897 -2.3649 -1.5081
    5CHTO   C97 1766   6.332   3.292   2.342 -0.1992  0.2261 -0.1503
    5CHTO  H184 1767   6.364   3.224   2.422  2.2824 -0.5654 -1.7518
    5CHTO   O64 1768   6.261   3.405   2.394  0.2319  0.3087 -0.1717
    5CHTO  C104 1769   6.326   3.482   2.501  0.6062  0.4512 -0.4444
    5CHTO  H191 1770   6.332   3.420   2.591 -0.1316 -0.4314 -0.9950
    5CHTO  C108 1771   6.236   3.601   2.545  0.3160 -0.0548  0.4222
    5CHTO   O71 1772   6.123   3.548   2.611  0.3465 -0.2104 -0.4716
    5CHTO  H171 1773   6.054   3.523   2.553 -0.9853  1.5209  0.3072
    5CHTO   O62 1774   6.230   3.226   2.256 -0.1569  0.4940 -0.1582
    5CHTO   C91 1775   6.118   3.167   2.328 -0.0460 -0.0163  0.0476
    5CHTO  H178 1776   6.117   3.206   2.429 -0.6705  1.1515 -0.4034
    5CHTO   C92 1777   6.150   3.011   2.329 -0.0405 -0.6636 -0.9000
    5CHTO  H179 1778   6.185   2.968   2.234  0.2558 -4.6078  0.9068
    5CHTO   O66 1779   6.257   3.003   2.425  0.1850  0.1549 -0.2422
    5CHTO  H166 1780   6.223   3.030   2.508 -1.8994 -0.3344 -0.8981
    5CHTO   C93 1781   6.031   2.919   2.378  0.3085  0.2685  0.3514
    5CHTO  H180 1782   6.015   2.918   2.487 -2.0355 -1.1163  0.0528
    5CHTO   N16 1783   6.058   2.776   2.348  0.3309  0.1812 -0.5943
    5CHTO  H172 1784   6.065   2.750   2.243  0.8946  0.5757 -0.6598
    5CHTO  H173 1785   5.985   2.715   2.398  1.4158  0.5028  1.4291
    5CHTO   C94 1786   5.898   2.974   2.311  0.8049 -0.0582 -0.3715
    5CHTO  H181 1787   5.903   2.967   2.203  1.1095  0.0289 -0.3635
    5CHTO   O61 1788   5.878   3.115   2.338 -0.1957 -0.0562 -0.0643
    5CHTO   C95 1789   5.978   3.196   2.277  0.7432 -0.2636 -0.0720
    5CHTO  H182 1790   5.977   3.168   2.172 -1.4229  1.8527 -0.6518
    5CHTO  C106 1791   5.930   3.349   2.281 -0.9068  0.4654  0.2734
    5CHTO   O69 1792   5.902   3.398   2.410  0.0377  0.2949 -0.2813
    5CHTO  H169 1793   5.979   3.441   2.441 -0.1115  0.4723 -0.1521
    5CHTO   O63 1794   5.774   2.885   2.354 -0.0765  0.4853  0.2205
    5CHTO   C96 1795   5.675   2.861   2.213 -0.5925  0.3303  0.4491
    5CHTO  H183 1796   5.746   2.847   2.132  0.8502 -0.1724  1.7977
    5CHTO   C98 1797   5.581   2.980   2.172 -0.7556  0.3950 -0.3203
    5CHTO  H185 1798   5.502   3.002   2.245  0.3882  1.2106  0.6883
    5CHTO   O67 1799   5.653   3.101   2.150 -0.6206  0.1306 -0.2368
    5CHTO  H167 1800   5.726   3.104   2.208 -2.3039  0.2236  1.9674
    5CHTO  C102 1801   5.501   2.941   2.034  0.2571  0.7104 -0.3287
    5CHTO  H189 1802   5.585   2.939   1.962  0.4108  1.1673 -0.1604
    5CHTO   N18 1803   5.395   3.031   1.980  0.2010  0.0480  0.3540
    5CHTO  H176 1804   5.365   2.982   1.889 -0.9645 -0.4985  1.0231
    5CHTO  H177 1805   5.439   3.124   1.946 -1.5532  0.4999 -0.7289
    5CHTO  C105 1806   5.460   2.790   2.031  0.0771  0.1583 -0.2917
    5CHTO  H192 1807   5.370   2.780   2.093  0.8178 -0.6073  0.6709
    5CHTO   O65 1808   5.558   2.699   2.087 -0.3261  0.0228  0.1046
    5CHTO  C100 1809   5.580   2.733   2.224 -0.4961  0.1841  0.6745
    5CHTO  H187 1810   5.489   2.767   2.276 -1.7202  2.9481 -3.0237
    5CHTO  C107 1811   5.644   2.620   2.302 -0.5087 -0.2334  0.2521
    5CHTO   O70 1812   5.771   2.564   2.258 -0.5456 -0.0395 -0.2776
    5CHTO  H170 1813   5.789   2.585   2.169 -1.7597  2.0772 -0.0752
    5CHTO   O57 1814   5.419   2.758   1.865  0.0392 -0.0538 -0.6093
    5CHTO   C85 1815   5.337   2.652   1.819  0.1214  0.1127 -0.6060
    5CHTO  H157 1816   5.231   2.674   1.843  0.3891  0.6963  0.0807
    5CHTO   C83 1817   5.360   2.521   1.905 -0.3068 -0.2716 -0.3865
    5CHTO  H155 1818   5.324   2.535   2.007 -0.2916  0.9024 -0.5381
    5CHTO   O56 1819   5.505   2.494   1.912  0.1266 -0.0561  0.6951
    5CHTO  H135 1820   5.528   2.431   1.847 -2.7180 -0.8016  0.3698
    5CHTO   C81 1821   5.287   2.402   1.836 -0.0219  0.0572  0.3406
    5CHTO  H153 1822   5.181   2.425   1.828 -0.5486 -2.4569 -0.4059
    5CHTO   N14 1823   5.295   2.268   1.902 -0.0478  0.4787 -0.6520
    5CHTO  H141 1824   5.207   2.206   1.899  1.0778 -1.2316  0.2392
    5CHTO  H142 1825   5.377   2.216   1.857  0.7250 -0.2968  1.5780
    5CHTO   C79 1826   5.334   2.388   1.688 -0.2608  0.2193 -0.1540
    5CHTO  H151 1827   5.274   2.309   1.643 -0.8401  0.0803  0.8588
    5CHTO   O52 1828   5.296   2.512   1.619 -0.4261 -0.6098 -0.1361
    5CHTO   C86 1829   5.355   2.631   1.671  0.1764 -0.8008  0.4925
    5CHTO  H158 1830   5.463   2.619   1.647  1.2911  2.0620  3.6718
    5CHTO   C90 1831   5.301   2.755   1.589 -0.0565  0.3291 -0.0037
    5CHTO   O60 1832   5.356   2.768   1.462 -0.0153  0.1541  0.6531
    5CHTO  H138 1833   5.342   2.849   1.417 -2.5330 -0.8352 -0.4242
    5CHTO   O50 1834   5.476   2.361   1.665 -0.2271  0.7154 -0.4817
    5CHTO   C73 1835   5.545   2.280   1.565 -0.4091 -0.4873 -0.0163
    5CHTO  H145 1836   5.478   2.264   1.479 -2.1057 -3.2833  1.7123
    5CHTO   C74 1837   5.597   2.144   1.619  0.7607  0.6078  0.9993
    5CHTO  H146 1838   5.509   2.086   1.652  0.2737  1.3355  0.9928
    5CHTO   O54 1839   5.634   2.074   1.500  1.1429 -0.3622  0.4616
    5CHTO  H133 1840   5.559   2.051   1.449  2.1541 -2.2173 -0.2649
    5CHTO   C75 1841   5.701   2.160   1.731 -0.1606  0.7060 -0.3294
    5CHTO  H147 1842   5.662   2.224   1.811  0.9420 -0.9160  1.5689
    5CHTO   N13 1843   5.737   2.033   1.797 -0.9741  0.5406 -0.2963
    5CHTO  H139 1844   5.732   2.041   1.905  0.6988  1.2210 -0.2642
    5CHTO  H140 1845   5.834   2.002   1.763  0.0366  3.6834 -0.4234
    5CHTO   C76 1846   5.831   2.241   1.666 -0.1749 -0.9206  0.0081
    5CHTO  H148 1847   5.882   2.181   1.591  0.5846 -0.7774  0.4076
    5CHTO   O49 1848   5.770   2.368   1.615 -0.1964 -0.4159 -0.5925
    5CHTO   C77 1849   5.674   2.353   1.509 -0.1804  0.4340 -0.1124
    5CHTO  H149 1850   5.718   2.288   1.433 -1.0441 -1.3790  0.8873
    5CHTO   C88 1851   5.645   2.491   1.458  0.5356 -0.5835  0.5174
    5CHTO   O58 1852   5.542   2.498   1.337 -0.0203  0.6997  0.0488
    5CHTO  H136 1853   5.569   2.559   1.272  1.5363  0.1463  0.1469
    5CHTO   O51 1854   5.942   2.285   1.812 -0.1375  0.1433 -0.4641
    5CHTO   C78 1855   6.063   2.381   1.783  0.6620 -0.2219  0.7147
    5CHTO  H150 1856   6.061   2.436   1.687  3.1196  0.8633  1.2372
    5CHTO   C80 1857   6.188   2.295   1.787 -0.2905 -0.0726  0.1299
    5CHTO  H152 1858   6.178   2.233   1.879 -2.1639 -0.6129 -0.4201
    5CHTO   O55 1859   6.173   2.208   1.671 -0.2559  0.3486 -0.5370
    5CHTO  H134 1860   6.189   2.265   1.599 -1.5692 -0.2186 -1.2945
    5CHTO   C84 1861   6.329   2.374   1.777  0.0926 -0.3915 -0.0498
    5CHTO  H156 1862   6.324   2.431   1.684 -0.4749  0.6013  0.5793
    5CHTO   N15 1863   6.453   2.296   1.778  0.7271  0.4423  0.5150
    5CHTO  H143 1864   6.451   2.220   1.853  1.4634  0.4950  0.5936
    5CHTO  H144 1865   6.454   2.249   1.682 -1.8132  0.7394  0.2976
    5CHTO   C87 1866   6.315   2.482   1.894 -0.7690  0.3816  0.0682
    5CHTO  H159 1867   6.306   2.437   1.993  0.2377 -0.3862 -0.1783
    5CHTO   O53 1868   6.179   2.568   1.872  0.0003  0.3727  0.8179
    5CHTO   C82 1869   6.063   2.486   1.893  0.9726  0.9409  0.7024
    5CHTO  H154 1870   6.070   2.447   1.995  1.2404 -0.6368  0.0943
    5CHTO   C89 1871   5.928   2.570   1.885  1.0356 -0.4059 -0.1430
    5CHTO   O59 1872   5.822   2.527   1.970 -0.3011 -0.0178  0.2420
    5CHTO  H137 1873   5.761   2.596   1.988 -0.7638 -0.9696  2.6397
    5CHTO   O45 1874   6.452   2.583   1.896 -0.6693  0.5656 -0.2527
    5CHTO   C67 1875   6.497   2.640   2.022 -0.6431  0.1615 -0.2711
    5CHTO  H124 1876   6.414   2.622   2.091 -1.2794 -1.0751 -1.3222
    5CHTO   C65 1877   6.631   2.570   2.071  0.2139  0.2943 -0.0624
    5CHTO  H122 1878   6.676   2.514   1.989 -1.3968 -0.4833 -0.4253
    5CHTO   O44 1879   6.601   2.483   2.180  0.2244  0.2844  0.2739
    5CHTO  H102 1880   6.675   2.432   2.206 -1.3604 -1.3026  1.8098
    5CHTO   C63 1881   6.739   2.678   2.097 -0.5230 -0.0333 -0.0533
    5CHTO  H120 1882   6.754   2.735   2.005  1.0187 -2.1917 -1.1889
    5CHTO   N11 1883   6.871   2.627   2.135 -0.4161 -0.1678  0.6179
    5CHTO  H108 1884   6.949   2.636   2.061 -1.6644 -2.4515 -1.0395
    5CHTO  H109 1885   6.869   2.526   2.171 -0.5827 -0.3596  0.0779
    5CHTO   C61 1886   6.682   2.780   2.198  0.0490 -0.7354 -0.7885
    5CHTO  H118 1887   6.754   2.863   2.200  0.8891 -1.4823  3.4305
    5CHTO   O40 1888   6.550   2.834   2.154  0.4419 -0.2087  0.0351
    5CHTO   C68 1889   6.506   2.799   2.022  0.5003  0.2294 -0.7141
    5CHTO  H125 1890   6.586   2.830   1.951 -0.2251  3.3852 -0.2092
    5CHTO   C72 1891   6.375   2.872   1.984 -0.3690  0.3275 -0.1753
    5CHTO   O48 1892   6.401   3.011   1.996  0.6846  0.2141 -0.2646
    5CHTO  H105 1893   6.321   3.054   1.972  0.8779  1.5664  1.4611
    5CHTO   O38 1894   6.659   2.727   2.331  0.0731  0.0921  0.7331
    5CHTO   C55 1895   6.575   2.806   2.420  0.0062 -0.5768  0.1658
    5CHTO  H112 1896   6.497   2.855   2.361  0.3602 -0.1279  0.0692
    5CHTO   C56 1897   6.667   2.911   2.495 -0.0691  0.7028 -0.7379
    5CHTO  H113 1898   6.746   2.860   2.553  0.2068 -0.2679 -1.9500
    5CHTO   O42 1899   6.741   2.998   2.402 -0.1271 -0.5432 -0.5925
    5CHTO  H100 1900   6.682   3.053   2.354  0.0307  0.2950  0.1613
    5CHTO   C57 1901   6.587   2.998   2.593 -0.1389 -0.5532 -0.1695
    5CHTO  H114 1902   6.511   3.048   2.533  1.9534  1.9819 -0.8230
    5CHTO   N10 1903   6.664   3.105   2.659 -0.0123 -0.3193 -0.3444
    5CHTO  H106 1904   6.710   3.068   2.749 -2.0651 -0.1138  0.7995
    5CHTO  H107 1905   6.615   3.199   2.680  1.8308  0.1715  1.9527
    5CHTO   C58 1906   6.528   2.904   2.697 -0.3322 -0.1162 -0.4814
    5CHTO  H115 1907   6.610   2.849   2.748 -1.0064 -0.5719  0.1082
    5CHTO   O37 1908   6.436   2.808   2.634 -0.4258 -0.1683 -0.0322
    5CHTO   C59 1909   6.509   2.723   2.536 -0.6928 -0.1392 -0.2393
    5CHTO  H116 1910   6.578   2.657   2.589 -0.4904 -1.6635 -2.3295
    5CHTO   C70 1911   6.411   2.629   2.467  0.1296 -0.4833 -0.5891
    5CHTO   O46 1912   6.417   2.494   2.522  0.5025 -0.0719  0.5493
    5CHTO  H103 1913   6.402   2.435   2.451 -1.6553  0.4529  0.5364
    5CHTO   O39 1914   6.436   2.993   2.818  0.4426 -0.0515 -0.5239
    5CHTO   C60 1915   6.300   3.022   2.797 -0.3587  0.4111 -0.4534
    5CHTO  H117 1916   6.267   3.051   2.697 -1.3793 -1.7960 -0.8030
    5CHTO   C62 1917   6.206   2.904   2.839 -0.6933  0.5549 -0.6558
    5CHTO  H119 1918   6.232   2.824   2.767 -0.1148 -0.3157  0.5217
    5CHTO   O43 1919   6.234   2.858   2.975  0.0265  0.6144 -0.1395
    5CHTO  H101 1920   6.233   2.764   2.978 -2.2274  0.6409  1.4245
    5CHTO   C66 1921   6.054   2.942   2.812 -0.2778  0.2600 -0.2167
    5CHTO  H123 1922   6.046   2.977   2.709 -0.5134  0.2720 -0.1965
    5CHTO   N12 1923   5.963   2.821   2.832  0.1480  0.8322  0.5592
    5CHTO  H110 1924   6.010   2.730   2.797  1.0095  1.0995  0.9948
    5CHTO  H111 1925   5.874   2.828   2.772 -0.8323 -1.2356  1.7298
    5CHTO   C69 1926   6.022   3.066   2.903 -0.0922  0.3942 -0.6872
    5CHTO  H126 1927   6.025   3.037   3.010 -1.0282  2.1257 -0.1669
    5CHTO   O41 1928   6.120   3.187   2.867 -0.5293  0.8014  0.5799
    5CHTO   C64 1929   6.270   3.146   2.884 -0.7075  0.0351  0.1219
    5CHTO  H121 1930   6.305   3.128   2.988  0.4084  0.2944 -0.2022
    5CHTO   C71 1931   6.358   3.270   2.844  0.0700  0.5955  0.3631
    5CHTO   O47 1932   6.291   3.392   2.824 -0.1743 -0.5757  0.0081
    5CHTO  H104 1933   6.347   3.466   2.841  0.9140 -1.0579 -1.4287
    5CHTO   O34 1934   5.887   3.115   2.889  0.0898  0.3242 -0.2017
    5CHTO   C49 1935   5.792   3.213   2.813 -0.0107 -0.2161  0.2594
    5CHTO   H91 1936   5.719   3.229   2.892  0.6746 -0.3251  0.9159
    5CHTO   C47 1937   5.727   3.134   2.701  0.2128  0.0732 -0.0502
    5CHTO   H89 1938   5.666   3.061   2.757 -2.4630  2.4601  0.2619
    5CHTO   O33 1939   5.830   3.064   2.623 -0.3217 -0.4078  0.6494
    5CHTO   H70 1940   5.802   2.981   2.588  0.5573 -0.3481 -0.2126
    5CHTO   C45 1941   5.637   3.233   2.605  0.2188  0.0198  0.6368
    5CHTO   H87 1942   5.700   3.247   2.516 -1.5681 -0.7887 -0.7993
    5CHTO    N8 1943   5.523   3.152   2.556 -0.5120  0.4104 -0.3377
    5CHTO   H75 1944   5.542   3.048   2.578 -3.2038 -0.6288 -2.6814
    5CHTO   H76 1945   5.433   3.179   2.608 -0.1153 -0.4806  0.8373
    5CHTO   C43 1946   5.617   3.374   2.663 -0.0056  0.4751  0.1211
    5CHTO   H85 1947   5.563   3.432   2.589 -0.1496 -0.2533 -0.3567
    5CHTO   O29 1948   5.744   3.425   2.695 -0.3560 -0.3343  0.1197
    5CHTO   C50 1949   5.840   3.346   2.761  0.3466 -0.5210  0.6114
    5CHTO   H92 1950   5.918   3.330   2.685 -0.1822 -1.9637  0.3566
    5CHTO   C54 1951   5.895   3.438   2.870 -0.5924  0.2601  0.4733
    5CHTO   O36 1952   5.805   3.511   2.953 -0.2950  0.1272  0.1539
    5CHTO   H72 1953   5.848   3.523   3.036  1.2272  0.8046 -0.7123
    5CHTO   O27 1954   5.538   3.379   2.782 -0.2539 -0.3514 -0.0249
    5CHTO   C37 1955   5.421   3.441   2.843 -0.2913  0.4281  0.0890
    5CHTO   H79 1956   5.430   3.549   2.861  0.9652  0.1305  1.3687
    5CHTO   C38 1957   5.304   3.436   2.743  0.3707  0.3522  0.9384
    5CHTO   H80 1958   5.302   3.338   2.693  1.3175  1.0131 -0.4040
    5CHTO   O31 1959   5.337   3.530   2.640  0.3869 -0.0035 -0.0509
    5CHTO   H68 1960   5.395   3.490   2.577 -1.3352 -2.3030 -0.2630
    5CHTO   C39 1961   5.164   3.466   2.807 -0.9045  0.3885 -0.2202
    5CHTO   H81 1962   5.181   3.568   2.842  1.0862 -0.9063  2.7636
    5CHTO    N7 1963   5.047   3.471   2.710 -0.3954  0.1726  0.2090
    5CHTO   H73 1964   5.028   3.577   2.699 -1.1732  0.0711  0.5732
    5CHTO   H74 1965   5.089   3.430   2.619 -0.9152 -2.2169  1.0136
    5CHTO   C40 1966   5.144   3.382   2.937 -0.8807  0.0084  0.7490
    5CHTO   H82 1967   5.139   3.277   2.910 -0.5841  0.4663 -1.2122
    5CHTO   O26 1968   5.254   3.413   3.023 -0.1603 -0.0703 -0.3490
    5CHTO   C41 1969   5.385   3.371   2.976 -0.1694  0.0363  0.1028
    5CHTO   H83 1970   5.392   3.262   2.960  1.2101  0.2509 -0.9009
    5CHTO   C52 1971   5.486   3.412   3.085 -0.5000  0.4724 -0.2785
    5CHTO   O35 1972   5.442   3.378   3.237 -0.2013  0.0993 -0.3147
    5CHTO   H71 1973   5.434   3.285   3.246 -2.7626  0.2379 -0.9123
    5CHTO   O28 1974   5.025   3.423   3.008  0.0686  0.1868 -0.6977
    5CHTO   C42 1975   4.990   3.372   3.139 -1.1797 -0.2863  0.3261
    5CHTO   H84 1976   4.883   3.394   3.141 -0.9092  1.0683  0.4199
    5CHTO   C44 1977   5.045   3.452   3.261  0.0512 -0.5492  0.3895
    5CHTO   H86 1978   5.145   3.487   3.238  0.0627 -0.3114  0.8010
    5CHTO   O32 1979   4.978   3.581   3.262  0.7709 -0.6091  0.0965
    5CHTO   H69 1980   4.886   3.563   3.271  0.5046 -0.1049 -1.5025
    5CHTO   C48 1981   5.027   3.389   3.402 -0.4971  0.2042  0.1428
    5CHTO   H90 1982   4.921   3.394   3.425 -0.2975  2.5188  0.7230
    5CHTO    N9 1983   5.108   3.463   3.510  0.0236 -0.0624 -0.3107
    5CHTO   H77 1984   5.211   3.474   3.478 -0.3256 -0.2568 -1.5219
    5CHTO   H78 1985   5.058   3.558   3.525 -1.1263 -0.7240  0.1227
    5CHTO   C51 1986   5.059   3.236   3.393 -0.2335 -0.5265  0.1371
    5CHTO   H93 1987   5.162   3.224   3.360 -0.5942  0.8538 -1.5841
    5CHTO   O30 1988   4.970   3.180   3.297 -0.8445  0.2615 -0.5717
    5CHTO   C46 1989   5.013   3.222   3.158  0.5738  0.4946  0.6168
    5CHTO   H88 1990   5.117   3.196   3.135  0.0162  0.1782 -1.6351
    5CHTO   C53 1991   4.931   3.134   3.056  1.0218  0.7080 -0.0269
    5CHTO   O72 1992   4.961   2.993   3.073 -0.1290 -0.2013  0.0006
    5CHTO  H199 1993   4.907   2.935   3.022  1.6763 -1.1584 -0.8420
    5CHTO   O22 1994   5.039   3.174   3.519 -0.2875 -0.0517 -0.0945
    5CHTO   C31 1995   5.111   3.047   3.551  0.3522  0.2482  0.9138
    5CHTO   H59 1996   5.068   3.016   3.649  1.3801  2.2057  2.0124
    5CHTO   C29 1997   5.090   2.934   3.448 -0.0810  0.9229 -0.2571
    5CHTO   H57 1998   5.098   2.972   3.345  0.5119  1.3347 -0.0594
    5CHTO   O21 1999   4.947   2.905   3.451  0.2866  0.4282 -0.4017
    5CHTO   H37 2000   4.916   2.853   3.380 -0.8597  0.3322  0.1605
    5CHTO   C27 2001   5.181   2.809   3.464 -0.0085 -0.2539 -0.4662
    5CHTO   H55 2002   5.164   2.756   3.559 -0.6583 -1.9566 -1.4946
    5CHTO    N5 2003   5.155   2.713   3.351  0.5928  0.1987 -0.3119
    5CHTO   H43 2004   5.200   2.617   3.368 -4.1484 -1.9739  0.7999
    5CHTO   H44 2005   5.051   2.689   3.332  0.4651 -0.3618  1.0323
    5CHTO   C25 2006   5.328   2.867   3.468  0.2723  0.1042  0.2095
    5CHTO   H53 2007   5.348   2.902   3.366 -2.8225 -0.0211 -0.5107
    5CHTO   O17 2008   5.337   2.961   3.583 -0.3067 -0.2092  0.0613
    5CHTO   C32 2009   5.256   3.080   3.581  0.2336  0.0617 -0.7580
    5CHTO   H60 2010   5.296   3.135   3.495 -0.2298  0.6305 -0.6126
    5CHTO   C36 2011   5.260   3.142   3.720 -0.0098  0.6340 -0.4701
    5CHTO   O25 2012   5.384   3.189   3.772 -0.1268  0.3348  0.4721
    5CHTO   H40 2013   5.454   3.128   3.765 -0.7936 -0.7255  2.6802
    5CHTO   O15 2014   5.432   2.760   3.484 -0.3503 -0.3629  0.2793
    5CHTO   C19 2015   5.569   2.713   3.489 -0.1742 -1.0054  1.0582
    5CHTO   H47 2016   5.622   2.786   3.552  0.9498  1.4963 -2.5766
    5CHTO   C20 2017   5.568   2.566   3.536 -0.2132 -0.4958 -0.0751
    5CHTO   H48 2018   5.504   2.503   3.472 -1.1770  0.9397 -0.5622
    5CHTO   O19 2019   5.517   2.538   3.668  0.2388 -0.0562  0.0906
    5CHTO   H35 2020   5.464   2.460   3.676  0.5289 -0.1143  1.6092
    5CHTO   C21 2021   5.712   2.506   3.522  0.0033 -0.4074 -0.4389
    5CHTO   H49 2022   5.771   2.541   3.607 -1.1371  1.4148 -0.3642
    5CHTO    N4 2023   5.707   2.354   3.525 -0.1605 -0.8433  0.4814
    5CHTO   H41 2024   5.730   2.318   3.625  1.7026  1.0110  0.7465
    5CHTO   H42 2025   5.612   2.311   3.497 -0.0791  0.9183 -2.6612
    5CHTO   C22 2026   5.794   2.555   3.404  0.4211  0.3783 -0.1178
    5CHTO   H50 2027   5.776   2.489   3.319 -1.5354 -0.6837  1.0974
    5CHTO   O14 2028   5.784   2.692   3.374  0.3109  0.0964  0.2827
    5CHTO   C23 2029   5.645   2.729   3.348  0.4892 -0.1564  0.7397
    5CHTO   H51 2030   5.596   2.672   3.268  0.2854  1.8854 -0.6106
    5CHTO   C34 2031   5.654   2.879   3.309 -0.1291 -0.0392  0.2375
    5CHTO   O23 2032   5.719   2.921   3.188 -0.2484 -0.3697  0.0584
    5CHTO   H38 2033   5.694   2.876   3.110  2.9442 -1.4166 -0.4184
    5CHTO   O16 2034   5.934   2.556   3.451 -0.2805  0.1835  0.0999
    5CHTO   C24 2035   6.029   2.515   3.340 -0.1301 -0.1665  0.4790
    5CHTO   H52 2036   5.977   2.510   3.245 -0.7732  1.4490  0.7323
    5CHTO   C26 2037   6.085   2.375   3.370 -0.5872 -0.3849  0.2111
    5CHTO   H54 2038   6.111   2.374   3.478 -1.8609 -0.1779  0.5259
    5CHTO   O20 2039   5.985   2.280   3.338  0.1505  0.8629  0.2110
    5CHTO   H36 2040   6.026   2.196   3.335 -2.0875 -0.2440 -1.5482
    5CHTO   C30 2041   6.213   2.339   3.285 -0.1228  0.0356  0.6875
    5CHTO   H58 2042   6.178   2.320   3.182  1.0443  3.3645 -0.3784
    5CHTO    N6 2043   6.274   2.210   3.327  0.5286  0.5983 -0.2877
    5CHTO   H45 2044   6.347   2.179   3.254 -0.9242  0.9784 -1.9379
    5CHTO   H46 2045   6.319   2.202   3.425  1.1426  2.2015 -0.4269
    5CHTO   C33 2046   6.314   2.459   3.292 -0.3787  0.2490 -0.4016
    5CHTO   H61 2047   6.339   2.468   3.399 -2.4713  1.0315  0.0516
    5CHTO   O18 2048   6.250   2.577   3.248  0.3281  0.3661  0.0788
    5CHTO   C28 2049   6.138   2.622   3.330  0.5916  0.2799 -0.0377
    5CHTO   H56 2050   6.183   2.630   3.429 -0.2518  0.3612  0.3431
    5CHTO   C35 2051   6.083   2.753   3.263 -0.0238  0.6110  0.8436
    5CHTO   O24 2052   6.179   2.860   3.268  0.4785 -0.4963  0.2935
    5CHTO   H39 2053   6.258   2.818   3.241 -0.7268 -1.5050 -1.8484
    5CHTO    O9 2054   6.442   2.439   3.223  0.3424  0.3873  0.0548
    5CHTO   C13 2055   6.448   2.428   3.075 -0.7660 -0.3611 -0.1399
    5CHTO   H26 2056   6.353   2.376   3.047 -0.3111 -1.9529  1.1842
    5CHTO   C11 2057   6.576   2.344   3.036 -0.3002  0.2554  0.8110
    5CHTO   H24 2058   6.569   2.238   3.062  0.6262 -0.5225 -1.9186
    5CHTO    O8 2059   6.702   2.398   3.087  0.1132  0.4062  0.1758
    5CHTO    H3 2060   6.780   2.348   3.069  1.3642  1.8408  1.4349
    5CHTO    C9 2061   6.572   2.336   2.880  0.2750  0.3334 -0.7324
    5CHTO   H22 2062   6.470   2.301   2.859 -1.0476  1.8928  2.7410
    5CHTO    N2 2063   6.665   2.235   2.818  0.1425  0.0711 -0.1112
    5CHTO   H10 2064   6.675   2.146   2.879  1.0411  1.4503  1.7758
    5CHTO   H11 2065   6.620   2.206   2.724 -0.4306 -2.5210  0.9249
    5CHTO    C7 2066   6.591   2.478   2.824 -0.5408  0.0969 -0.2237
    5CHTO   H20 2067   6.584   2.466   2.714 -0.8957 -2.4798  0.0418
    5CHTO    O4 2068   6.501   2.578   2.870 -0.0063  0.2309  0.0323
    5CHTO   C14 2069   6.451   2.569   3.008 -0.0533 -0.2235  0.4831
    5CHTO   H27 2070   6.347   2.608   3.013  0.8192  1.9923  1.7865
    5CHTO   C18 2071   6.528   2.662   3.097  0.5147 -0.0717 -0.2444
    5CHTO   O13 2072   6.506   2.794   3.048 -0.3830 -0.1199 -0.5061
    5CHTO    H7 2073   6.575   2.850   3.080  0.1396  0.3958 -2.4754
    5CHTO    O2 2074   6.725   2.526   2.850 -0.2901 -0.4259  0.1019
    5CHTO    C1 2075   6.801   2.606   2.762 -0.3251 -0.5912 -0.1011
    5CHTO   H14 2076   6.728   2.667   2.705 -0.4475 -1.3589 -0.7588
    5CHTO    C2 2077   6.883   2.514   2.659 -0.2978  0.6353 -0.0880
    5CHTO   H15 2078   6.928   2.438   2.725  0.9082  0.6950 -0.8351
    5CHTO    O6 2079   6.800   2.443   2.562 -0.6911  0.3902 -0.4545
    5CHTO    H1 2080   6.784   2.356   2.591  1.5290  0.7987  2.2405
    5CHTO    C3 2081   6.992   2.597   2.573  0.3197  0.4509  0.4929
    5CHTO   H16 2082   6.929   2.654   2.503 -0.4303 -0.2858  0.5606
    5CHTO    N1 2083   7.088   2.504   2.499  0.8624 -0.4985  0.0155
    5CHTO    H8 2084   7.084   2.535   2.396 -0.1191 -0.4966  0.0481
    5CHTO    H9 2085   7.051   2.403   2.497  1.7109 -0.7990 -1.6353
    5CHTO    C4 2086   7.071   2.700   2.662 -0.2584  0.0202 -0.3961
    5CHTO   H17 2087   7.126   2.642   2.736 -0.4053  0.1100 -0.2156
    5CHTO    O1 2088   6.974   2.780   2.736 -0.3784  0.7732  0.7740
    5CHTO    C5 2089   6.902   2.704   2.828 -0.4020  0.2116 -0.2701
    5CHTO   H18 2090   6.983   2.649   2.877  1.0640  2.7794  0.2736
    5CHTO   C16 2091   6.842   2.805   2.929 -0.0600 -0.1971 -0.4627
    5CHTO   O11 2092   6.929   2.836   3.044  0.2436 -0.1079  0.5777
    5CHTO    H5 2093   7.007   2.872   3.007  0.7923 -4.1771 -2.6340
    5CHTO    O3 2094   7.161   2.782   2.579 -0.2293 -0.2725  0.2684
    5CHTO    C6 2095   7.275   2.832   2.648 -0.2243  0.0911 -0.3596
    5CHTO   H19 2096   7.268   2.834   2.756  1.2534 -0.1967 -0.2475
    5CHTO    C8 2097   7.402   2.743   2.618 -0.6246  0.2230 -0.1221
    5CHTO   H21 2098   7.415   2.727   2.511 -0.4330  1.1726 -0.2488
    5CHTO    O7 2099   7.382   2.613   2.683 -0.0077 -0.3741 -0.2104
    5CHTO    H2 2100   7.325   2.559   2.632 -1.0381  0.5658 -0.0701
    5CHTO   C12 2101   7.524   2.812   2.680 -0.5507  0.2820 -0.1830
    5CHTO   H25 2102   7.511   2.809   2.790  1.6022 -1.4196  0.0625
    5CHTO    N3 2103   7.661   2.737   2.665  0.4815  0.4724 -0.2798
    5CHTO   H12 2104   7.645   2.635   2.633 -0.2384  0.5611 -0.2294
    5CHTO   H13 2105   7.716   2.733   2.758  3.3302  0.4003 -1.9402
    5CHTO   C15 2106   7.530   2.962   2.627 -0.3147  0.1965 -0.0284
    5CHTO   H28 2107   7.549   2.968   2.520 -1.0634 -1.9202 -0.2987
    5CHTO   O10 2108   7.620   3.045   2.684 -0.4281 -0.1302  0.2861
    5CHTO    H4 2109   7.630   3.122   2.632 -1.2968 -0.3816 -0.2578
    5CHTO    O5 2110   7.404   3.032   2.657  0.3533  1.2614 -0.2771
    5CHTO   C10 2111   7.288   2.978   2.599 -0.2366 -0.6045  0.4085
    5CHTO   H23 2112   7.301   3.001   2.494 -1.2868  0.0249  0.4113
    5CHTO   C17 2113   7.166   3.057   2.637  0.2857 -0.6275  0.4563
    5CHTO   O12 2114   7.048   3.025   2.564 -0.3762 -0.0541  0.4397
    5CHTO    H6 2115   7.054   3.081   2.489  2.6582 -2.5685 -1.3463
    6CHTO  H203 2116   5.392   4.159   0.443  0.8055  0.1709 -0.0353
    6CHTO   O82 2117   5.340   4.232   0.416  0.4718  0.0217  0.1969
    6CHTO  C123 2118   5.384   4.363   0.462  0.4278  0.3099 -1.0333
    6CHTO  H227 2119   5.450   4.409   0.387 -0.2405 -1.5516 -2.8384
    6CHTO   O77 2120   5.260   4.438   0.456  0.1348 -0.2170 -0.0451
    6CHTO  C118 2121   5.267   4.572   0.491  0.1277 -0.8776  0.2620
    6CHTO  H222 2122   5.333   4.627   0.421 -0.8631 -0.4213 -0.3207
    6CHTO  C125 2123   5.130   4.632   0.476 -0.0518  0.2668 -0.3481
    6CHTO   O84 2124   5.058   4.596   0.362 -0.1042  0.5689 -0.1798
    6CHTO  H205 2125   4.991   4.532   0.379  0.5597 -0.3858 -1.1781
    6CHTO  C114 2126   5.327   4.595   0.631  0.2254 -0.1729 -0.2065
    6CHTO  H218 2127   5.259   4.551   0.704  1.5623 -1.4406  0.2987
    6CHTO  C116 2128   5.461   4.515   0.648  0.0618  0.3180 -0.0783
    6CHTO  H220 2129   5.542   4.567   0.592 -1.0655  2.6267  0.3952
    6CHTO   O79 2130   5.487   4.511   0.793 -0.0977 -0.0841  0.0677
    6CHTO  H201 2131   5.561   4.567   0.809 -1.8735  2.4618 -0.2597
    6CHTO  C120 2132   5.453   4.362   0.600 -0.6541 -0.3100 -0.2744
    6CHTO  H224 2133   5.383   4.318   0.674 -0.8587  0.0743 -0.2397
    6CHTO   N21 2134   5.584   4.288   0.611 -0.6912  0.0626 -0.0956
    6CHTO  H211 2135   5.663   4.357   0.583  2.3508 -3.5993 -1.1130
    6CHTO  H212 2136   5.588   4.264   0.716 -0.7693  0.3819 -0.0207
    6CHTO   O75 2137   5.330   4.738   0.637 -0.6144 -0.6420 -0.6308
    6CHTO  C112 2138   5.359   4.797   0.808  0.4316  0.1866  0.1521
    6CHTO  H216 2139   5.460   4.776   0.847 -0.3555 -0.9581  1.5677
    6CHTO   O73 2140   5.255   4.734   0.888 -0.1686  0.5955  0.2327
    6CHTO  C113 2141   5.276   4.776   1.023  0.0190  1.0637 -0.6028
    6CHTO  H217 2142   5.383   4.770   1.053 -0.2605  3.0595  0.9588
    6CHTO  C124 2143   5.195   4.683   1.119  0.0133  0.3663 -0.2812
    6CHTO   O83 2144   5.051   4.684   1.081  0.1328  0.6546  0.0706
    6CHTO  H204 2145   5.029   4.689   0.990  0.0279  0.2549  0.0724
    6CHTO  C109 2146   5.236   4.929   1.037  0.0793 -0.1659 -0.3308
    6CHTO  H213 2147   5.132   4.938   1.003  0.6073  0.4066 -1.8385
    6CHTO  C110 2148   5.335   5.016   0.953  0.9547  0.4117  0.0456
    6CHTO  H214 2149   5.432   5.008   1.001  0.2679 -0.4073  1.3113
    6CHTO   O78 2150   5.281   5.149   0.950  0.4425  0.0497  1.0428
    6CHTO  H200 2151   5.346   5.211   0.921  0.1789 -0.5310 -0.8749
    6CHTO  C111 2152   5.342   4.956   0.810 -0.7129 -0.4199  0.6221
    6CHTO  H215 2153   5.248   4.975   0.757 -1.4501 -2.0905  1.2753
    6CHTO   N19 2154   5.443   5.024   0.725 -0.0321 -0.1137  0.0479
    6CHTO  H207 2155   5.524   5.052   0.790 -1.3039 -0.1872  1.6941
    6CHTO  H208 2156   5.400   5.103   0.665 -2.4680 -0.8418  0.7601
    6CHTO   O74 2157   5.246   4.976   1.174 -0.2738  0.4367 -0.7031
    6CHTO  C115 2158   5.149   5.108   1.223 -0.7416  0.1491  0.2828
    6CHTO  H219 2159   5.189   5.202   1.184  0.5545 -0.4054  0.2651
    6CHTO   O76 2160   5.002   5.098   1.170  0.8325 -0.1473 -0.0323
    6CHTO  C122 2161   4.936   4.981   1.228  0.0317  0.1935  0.3080
    6CHTO  H226 2162   4.987   4.891   1.192 -0.1774 -0.3635  1.3651
    6CHTO  C126 2163   4.794   4.958   1.176  0.4945 -0.2024  0.5087
    6CHTO   O85 2164   4.743   4.834   1.228 -0.4861 -0.0074  0.7663
    6CHTO  H206 2165   4.652   4.833   1.203  0.2608 -2.5777 -2.2181
    6CHTO  C121 2166   4.932   4.978   1.386 -0.1794  0.0955 -1.5056
    6CHTO  H225 2167   4.826   4.974   1.420  0.5700 -3.2678  0.6337
    6CHTO   O81 2168   4.986   4.854   1.424 -0.0222 -0.0310 -0.1160
    6CHTO  H202 2169   5.073   4.842   1.390 -1.2594 -1.0258 -3.1210
    6CHTO  C119 2170   5.009   5.104   1.440  0.0475 -0.0025 -0.5041
    6CHTO  H223 2171   4.953   5.193   1.414  1.4156  0.8535 -0.5552
    6CHTO  C117 2172   5.160   5.112   1.385 -0.3555  0.0554  0.0619
    6CHTO  H221 2173   5.224   5.032   1.422  0.0997 -0.4384 -1.7356
    6CHTO   N20 2174   5.221   5.237   1.431 -0.5105  0.4333  0.7248
    6CHTO  H209 2175   5.156   5.322   1.414 -1.5951 -0.7633 -1.3822
    6CHTO  H210 2176   5.318   5.253   1.388 -2.1323  0.6177 -2.9950
    6CHTO   O80 2177   5.010   5.112   1.599 -0.2105 -0.6536  0.6467
    6CHTO  C103 2178   4.877   5.119   1.682  0.4040  0.6707 -0.1083
    6CHTO  H190 2179   4.897   5.170   1.776 -2.0042  1.4362  0.0175
    6CHTO  C101 2180   4.749   5.186   1.632  0.2051  0.0303 -0.1566
    6CHTO  H188 2181   4.735   5.149   1.530 -4.4470 -0.9104  0.7364
    6CHTO   O68 2182   4.767   5.339   1.628  0.4946  0.1557 -0.4386
    6CHTO  H168 2183   4.790   5.371   1.714  2.1896  1.2845 -1.2794
    6CHTO   C99 2184   4.626   5.147   1.718  0.4008  0.2129 -0.4126
    6CHTO  H186 2185   4.633   5.190   1.820  1.8032  0.3093 -0.5497
    6CHTO   N17 2186   4.503   5.205   1.656 -0.8097  0.2210 -0.4450
    6CHTO  H174 2187   4.420   5.137   1.665 -1.6144  1.0072 -1.7169
    6CHTO  H175 2188   4.482   5.299   1.704  0.8654  0.3219  0.1259
    6CHTO   C97 2189   4.617   4.996   1.736 -0.2305 -0.2612 -0.1168
    6CHTO  H184 2190   4.599   4.939   1.644  1.5103  0.4026 -0.8966
    6CHTO   O64 2191   4.738   4.956   1.798  0.3639  0.1717 -0.1555
    6CHTO  C104 2192   4.856   4.969   1.716 -0.5321  0.1101  0.2027
    6CHTO  H191 2193   4.838   4.917   1.621 -0.0116  2.0005 -0.9605
    6CHTO  C108 2194   4.987   4.911   1.788 -0.6878  0.1817  0.2107
    6CHTO   O71 2195   4.989   4.773   1.822  0.1150  0.4504 -0.0785
    6CHTO  H171 2196   4.910   4.752   1.869 -0.3186  1.2395 -0.4308
    6CHTO   O62 2197   4.533   4.961   1.847  0.2343 -0.0081  0.7051
    6CHTO   C91 2198   4.477   4.828   1.849 -0.2274  0.4256  0.2686
    6CHTO  H178 2199   4.434   4.815   1.948  0.5022 -0.1082  0.5177
    6CHTO   C92 2200   4.576   4.708   1.839  0.9259  0.3784  0.5892
    6CHTO  H179 2201   4.624   4.706   1.741 -1.7830  0.3933 -0.7902
    6CHTO   O66 2202   4.683   4.718   1.936  0.0258  0.2306 -0.0036
    6CHTO  H166 2203   4.649   4.734   2.022 -0.5997 -1.8654  0.1816
    6CHTO   C93 2204   4.496   4.566   1.858 -0.2106  0.3490 -0.2560
    6CHTO  H180 2205   4.470   4.562   1.965  0.9376  1.4182  0.0814
    6CHTO   N16 2206   4.584   4.448   1.823 -0.5261 -0.6731 -0.5736
    6CHTO  H172 2207   4.526   4.360   1.846 -0.9558 -0.3198 -0.3000
    6CHTO  H173 2208   4.608   4.445   1.718 -0.9220 -0.0858 -0.6810
    6CHTO   C94 2209   4.367   4.558   1.764  0.3090  0.5388 -0.4511
    6CHTO  H181 2210   4.394   4.562   1.659 -1.3197 -1.5496 -1.0007
    6CHTO   O61 2211   4.278   4.675   1.780 -0.0276  0.0118 -0.3317
    6CHTO   C95 2212   4.355   4.799   1.745 -0.6631 -0.0727  0.2511
    6CHTO  H182 2213   4.403   4.779   1.650  0.4591  0.7152  0.6472
    6CHTO  C106 2214   4.265   4.924   1.738 -0.6543 -0.3944  0.2126
    6CHTO   O69 2215   4.208   4.971   1.861 -0.0626  0.7777 -0.3969
    6CHTO  H169 2216   4.142   5.034   1.837  2.1430  2.6421 -1.8487
    6CHTO   O63 2217   4.264   4.407   1.788  1.1071 -0.1381 -0.2190
    6CHTO   C96 2218   4.167   4.360   1.656 -0.1982  0.2147 -0.6644
    6CHTO  H183 2219   4.232   4.366   1.569  1.1779  0.3605  0.3676
    6CHTO   C98 2220   4.044   4.456   1.627 -0.3138  0.3384  0.1329
    6CHTO  H185 2221   3.997   4.481   1.723  1.0011 -1.4550  1.2723
    6CHTO   O67 2222   4.085   4.580   1.574 -0.1677  0.1326  0.1941
    6CHTO  H167 2223   4.041   4.651   1.616  1.7974 -0.0015  2.5683
    6CHTO  C102 2224   3.927   4.386   1.532  0.5431 -0.3986 -0.3897
    6CHTO  H189 2225   3.907   4.461   1.454  2.8795  0.2066 -0.4336
    6CHTO   N18 2226   3.798   4.359   1.595  0.1861 -0.0630 -0.9485
    6CHTO  H176 2227   3.806   4.375   1.701  2.8307 -1.8094 -0.8236
    6CHTO  H177 2228   3.709   4.402   1.551 -0.9823 -0.3717  1.0680
    6CHTO  C105 2229   3.982   4.257   1.462 -0.1587 -0.0477 -0.3333
    6CHTO  H192 2230   3.899   4.197   1.426  0.5046  0.1398 -2.2182
    6CHTO   O65 2231   4.066   4.171   1.542 -0.1130 -0.2035  0.2500
    6CHTO  C100 2232   4.124   4.215   1.663  0.3949  0.0903 -0.3055
    6CHTO  H187 2233   4.041   4.192   1.731  1.1232  0.1732  0.6190
    6CHTO  C107 2234   4.252   4.128   1.694 -0.0084  0.5082  0.1851
    6CHTO   O70 2235   4.214   3.989   1.703 -0.3775  0.4764 -0.8302
    6CHTO  H170 2236   4.286   3.932   1.682 -0.7827 -0.3806  0.0258
    6CHTO   O57 2237   4.050   4.308   1.342  0.4578 -0.0997 -0.5010
    6CHTO   C85 2238   4.081   4.229   1.220  0.4436 -0.4134  0.2516
    6CHTO  H157 2239   4.002   4.159   1.186 -0.1532 -0.0784  0.9149
    6CHTO   C83 2240   4.197   4.124   1.259  0.1211 -0.1826 -0.3740
    6CHTO  H155 2241   4.154   4.046   1.322 -1.4792  0.3558 -0.7881
    6CHTO   O56 2242   4.304   4.188   1.334 -0.4850  0.1749  0.4998
    6CHTO  H135 2243   4.378   4.132   1.348  0.2197  1.0421  0.3337
    6CHTO   C81 2244   4.252   4.066   1.125 -0.8406  0.3682 -0.1170
    6CHTO  H153 2245   4.169   4.021   1.071 -1.2531  1.2056 -0.1909
    6CHTO   N14 2246   4.342   3.946   1.151  0.0451 -0.0344 -0.2425
    6CHTO  H141 2247   4.393   3.959   1.244 -1.0366 -3.8419  0.9629
    6CHTO  H142 2248   4.283   3.858   1.160  0.4669 -0.4894 -1.7373
    6CHTO   C79 2249   4.309   4.178   1.026  0.1583  0.3891 -0.2928
    6CHTO  H151 2250   4.337   4.127   0.933 -0.1964 -1.2212  0.4556
    6CHTO   O52 2251   4.205   4.271   0.986  0.4945 -0.1058  0.4530
    6CHTO   C86 2252   4.133   4.323   1.103  1.1423 -0.0802 -0.2344
    6CHTO  H158 2253   4.207   4.392   1.147  2.5372 -0.6538 -1.6276
    6CHTO   C90 2254   4.020   4.410   1.045 -0.7148  0.6110 -0.3577
    6CHTO   O60 2255   3.939   4.466   1.144  0.6138  0.5798 -0.5535
    6CHTO  H138 2256   3.990   4.468   1.222 -1.2509  2.0241  0.6699
    6CHTO   O50 2257   4.428   4.242   1.080 -0.3120  0.4545  0.2213
    6CHTO   C73 2258   4.507   4.340   1.010 -0.5184  0.5333 -0.1379
    6CHTO  H145 2259   4.451   4.412   0.949  0.5693  0.1228 -1.6750
    6CHTO   C74 2260   4.600   4.264   0.914  0.5082  0.4913 -0.1888
    6CHTO  H146 2261   4.533   4.205   0.850 -1.7769  1.5192  1.2012
    6CHTO   O54 2262   4.670   4.352   0.825  0.1027  0.4227  0.4596
    6CHTO  H133 2263   4.723   4.300   0.768  0.1082 -1.1550  1.8746
    6CHTO   C75 2264   4.692   4.166   1.001 -0.5266 -0.3583 -0.6460
    6CHTO  H147 2265   4.631   4.104   1.069  0.9799 -0.1127  0.9571
    6CHTO   N13 2266   4.779   4.072   0.931 -0.1889  0.2056 -0.2164
    6CHTO  H139 2267   4.866   4.118   0.886 -1.3999  2.5496 -0.2092
    6CHTO  H140 2268   4.720   4.013   0.863 -0.7840 -0.8948  1.2338
    6CHTO   C76 2269   4.779   4.258   1.098  0.3716  0.2302 -0.0997
    6CHTO  H148 2270   4.840   4.327   1.040  1.6007  0.3856  1.3468
    6CHTO   O49 2271   4.689   4.340   1.188  0.2585  0.4250  0.2175
    6CHTO   C77 2272   4.586   4.411   1.120 -0.0594 -0.2214  0.2959
    6CHTO  H149 2273   4.642   4.492   1.074  2.6545 -2.4476 -0.4469
    6CHTO   C88 2274   4.494   4.476   1.225  0.1155  0.2576  0.3761
    6CHTO   O58 2275   4.406   4.569   1.172  0.3201 -0.0328 -0.5512
    6CHTO  H136 2276   4.383   4.635   1.234 -2.1358 -1.2121 -0.1440
    6CHTO   O51 2277   4.876   4.174   1.200  0.0170  0.0073  0.7325
    6CHTO   C78 2278   4.971   4.260   1.324 -0.0939  0.3724  0.7349
    6CHTO  H150 2279   5.023   4.184   1.386  0.6921  1.1548  1.0440
    6CHTO   C80 2280   4.881   4.344   1.415 -0.3237 -0.1375 -0.1064
    6CHTO  H152 2281   4.819   4.413   1.353 -1.2742  0.1793  1.1791
    6CHTO   O55 2282   4.798   4.245   1.479  0.5018  0.3773  0.2453
    6CHTO  H134 2283   4.718   4.289   1.501  0.3823 -0.4922  1.6508
    6CHTO   C84 2284   4.968   4.424   1.515 -0.1846 -0.6821  0.0698
    6CHTO  H156 2285   5.015   4.357   1.586 -0.9352 -0.5861  0.6521
    6CHTO   N15 2286   4.883   4.517   1.598 -0.1179  0.0160 -0.2161
    6CHTO  H143 2287   4.814   4.565   1.532 -0.0534  1.7820  0.9905
    6CHTO  H144 2288   4.940   4.590   1.651  1.5320 -0.8181 -0.7982
    6CHTO   C87 2289   5.081   4.501   1.436 -0.1340  0.0344 -0.6727
    6CHTO  H159 2290   5.049   4.581   1.369  2.1791 -0.5203 -2.4896
    6CHTO   O53 2291   5.171   4.397   1.354 -0.9386  0.5186 -0.3069
    6CHTO   C82 2292   5.082   4.340   1.259 -0.8205 -0.9427  0.3011
    6CHTO  H154 2293   5.049   4.425   1.199 -0.9516  0.2623  2.0356
    6CHTO   C89 2294   5.175   4.251   1.172 -0.1521 -0.3810 -0.1009
    6CHTO   O59 2295   5.281   4.331   1.115 -0.6701  0.3928  0.4328
    6CHTO  H137 2296   5.264   4.378   1.036  2.2023  1.6316  0.4657
    6CHTO   O45 2297   5.186   4.582   1.539  0.1074 -0.2599 -0.0344
    6CHTO   C67 2298   5.303   4.636   1.474 -0.5747 -0.0204 -0.0167
    6CHTO  H124 2299   5.291   4.628   1.366 -0.7692 -1.1802  0.0811
    6CHTO   C65 2300   5.331   4.782   1.509  0.2934 -0.0408 -0.9588
    6CHTO  H122 2301   5.234   4.830   1.500  0.1543 -0.1855 -0.2607
    6CHTO   O44 2302   5.417   4.843   1.412  0.1869 -0.3245 -0.0355
    6CHTO  H102 2303   5.483   4.790   1.372 -0.1388 -0.4751 -0.3671
    6CHTO   C63 2304   5.375   4.787   1.660  0.1386  0.0614 -0.3261
    6CHTO  H120 2305   5.305   4.725   1.716 -1.8428  1.2090 -1.4336
    6CHTO   N11 2306   5.364   4.918   1.730  1.2490 -0.2286 -0.5938
    6CHTO  H108 2307   5.274   4.919   1.786 -0.2641  1.1671 -2.9657
    6CHTO  H109 2308   5.380   5.004   1.668 -2.1091  0.1348 -1.0097
    6CHTO   C61 2309   5.513   4.712   1.683 -0.0469  0.7806  0.3042
    6CHTO  H118 2310   5.529   4.709   1.792 -0.3809  2.0665  0.4026
    6CHTO   O40 2311   5.505   4.564   1.636  0.1447  0.6170  0.3603
    6CHTO   C68 2312   5.429   4.541   1.509 -0.0777  0.5062  0.3452
    6CHTO  H125 2313   5.389   4.438   1.523  0.8684 -0.1732 -1.7205
    6CHTO   C72 2314   5.526   4.540   1.389  0.9389  0.1711 -0.3615
    6CHTO   O48 2315   5.468   4.483   1.269  0.0079 -0.1029  0.4150
    6CHTO  H105 2316   5.521   4.511   1.198  0.1097  2.1294  1.3290
    6CHTO   O38 2317   5.636   4.766   1.625  0.2069  0.1236 -0.0772
    6CHTO   C55 2318   5.714   4.855   1.707  0.1225 -0.1452 -0.0559
    6CHTO  H112 2319   5.676   4.875   1.808  0.1148 -2.1783  0.3546
    6CHTO   C56 2320   5.743   4.994   1.622 -0.0076  0.0613 -0.0281
    6CHTO  H113 2321   5.775   4.972   1.519  2.0575 -0.8438  0.7917
    6CHTO   O42 2322   5.628   5.069   1.608 -0.3344  0.2142 -0.2828
    6CHTO  H100 2323   5.594   5.092   1.692  1.9413  1.5831  0.3069
    6CHTO   C57 2324   5.855   5.082   1.692  0.8495  0.4145  0.3086
    6CHTO  H114 2325   5.808   5.128   1.779 -0.9434 -0.1909 -0.3313
    6CHTO   N10 2326   5.908   5.186   1.609  0.1921 -0.1032  0.3525
    6CHTO  H106 2327   5.940   5.168   1.507  1.3497  1.5434  0.4089
    6CHTO  H107 2328   5.829   5.260   1.608 -0.6543 -0.9930 -0.0817
    6CHTO   C58 2329   5.973   4.982   1.736  0.0207  0.5457  0.5034
    6CHTO  H115 2330   6.027   4.955   1.642 -0.0194 -0.3955  0.7429
    6CHTO   O37 2331   5.939   4.863   1.808  0.6384  0.5989  0.2212
    6CHTO   C59 2332   5.849   4.788   1.724 -0.3469  0.2712 -0.3439
    6CHTO  H116 2333   5.885   4.772   1.623  2.7501  1.0136  0.5915
    6CHTO   C70 2334   5.841   4.645   1.788  0.4375 -0.4598 -0.4794
    6CHTO   O46 2335   5.754   4.638   1.903 -0.3766  0.0450 -0.1135
    6CHTO  H103 2336   5.670   4.651   1.864 -1.2735  0.3547  1.8872
    6CHTO   O39 2337   6.083   5.046   1.829  0.8990  0.1731  0.1757
    6CHTO   C60 2338   6.220   5.029   1.790 -0.2930  0.1937 -0.8657
    6CHTO  H117 2339   6.236   4.925   1.763  1.2277  0.1848  0.0361
    6CHTO   C62 2340   6.263   5.129   1.674  0.1525 -0.1096 -0.5998
    6CHTO  H119 2341   6.199   5.089   1.593 -1.8869  1.3885  0.2241
    6CHTO   O43 2342   6.226   5.259   1.709  0.7695 -0.2444  0.0623
    6CHTO  H101 2343   6.282   5.300   1.773 -0.2087 -2.3832  2.3969
    6CHTO   C66 2344   6.412   5.103   1.635  0.0629 -0.6159  0.7403
    6CHTO  H123 2345   6.420   4.998   1.607  0.3208 -0.2623 -0.5361
    6CHTO   N12 2346   6.459   5.178   1.514 -0.5328  0.3089 -0.1447
    6CHTO  H110 2347   6.566   5.192   1.514 -0.5980  0.9048  0.9885
    6CHTO  H111 2348   6.437   5.139   1.416  1.0859  0.4996 -0.6046
    6CHTO   C69 2349   6.502   5.126   1.757 -0.1407  0.0633  0.0740
    6CHTO  H126 2350   6.508   5.235   1.778 -2.0386  0.0932  0.5210
    6CHTO   O41 2351   6.446   5.039   1.886 -0.0376  0.5571  0.7881
    6CHTO   C64 2352   6.309   5.057   1.912 -0.4594 -0.1355 -0.8213
    6CHTO  H121 2353   6.292   5.162   1.942 -1.6676 -0.8619  1.1668
    6CHTO   C71 2354   6.266   4.977   2.029  0.2735  0.3277  0.2808
    6CHTO   O47 2355   6.294   5.041   2.151 -0.7804  0.1879 -0.0105
    6CHTO  H104 2356   6.385   5.054   2.169 -0.4820  0.0546 -1.3770
    6CHTO   O34 2357   6.665   5.075   1.725  0.3908 -0.1229  0.1998
    6CHTO   C49 2358   6.807   5.086   1.765  1.4163  0.6605  0.2382
    6CHTO   H91 2359   6.860   5.007   1.712  1.0047  2.9665 -3.7955
    6CHTO   C47 2360   6.805   5.065   1.925 -0.5356  0.3028  0.1126
    6CHTO   H89 2361   6.913   5.062   1.950 -0.2173  1.7148 -1.0410
    6CHTO   O33 2362   6.742   4.937   1.962 -0.7433 -0.1726  0.3326
    6CHTO   H70 2363   6.649   4.941   1.952 -0.7967  0.4267  1.0724
    6CHTO   C45 2364   6.741   5.191   1.992 -0.2128 -0.8715 -0.3688
    6CHTO   H87 2365   6.637   5.204   1.957  0.3421 -2.0496 -2.6090
    6CHTO    N8 2366   6.742   5.168   2.138  0.2284 -0.8049 -0.8096
    6CHTO   H75 2367   6.714   5.065   2.155  0.1100 -0.4888  1.0163
    6CHTO   H76 2368   6.671   5.230   2.192  1.1927  0.0887 -0.5595
    6CHTO   C43 2369   6.814   5.328   1.937 -0.7968  0.2688 -0.8694
    6CHTO   H85 2370   6.748   5.407   1.973 -0.5023 -0.2874  0.9675
    6CHTO   O29 2371   6.835   5.333   1.799  0.3900  0.1874 -0.0266
    6CHTO   C50 2372   6.883   5.219   1.723 -0.3714  0.3971  0.8332
    6CHTO   H92 2373   6.853   5.246   1.620  1.3960 -1.6544 -0.2473
    6CHTO   C54 2374   7.032   5.208   1.711  0.1206  0.2961 -0.7060
    6CHTO   O36 2375   7.099   5.303   1.629  0.0709  0.3073 -0.5879
    6CHTO   H72 2376   7.098   5.385   1.674 -0.8925 -1.4309  2.6583
    6CHTO   O27 2377   6.942   5.347   2.003 -0.4386 -0.7046 -0.6485
    6CHTO   C37 2378   7.054   5.438   2.007  0.0040  0.7627  0.3225
    6CHTO   H79 2379   7.135   5.406   1.939  1.1640  0.5397  1.7739
    6CHTO   C38 2380   7.014   5.574   1.946 -0.2090 -0.1157 -0.0390
    6CHTO   H80 2381   6.919   5.604   1.992 -0.1289  3.5170 -2.0692
    6CHTO   O31 2382   7.001   5.559   1.803  0.6618 -0.1521  0.1363
    6CHTO   H68 2383   6.929   5.500   1.789  0.9486 -0.8569  1.4883
    6CHTO   C39 2384   7.114   5.692   1.978 -0.0961  0.3911  0.3726
    6CHTO   H81 2385   7.201   5.674   1.914  1.0060 -1.7849  2.4039
    6CHTO    N7 2386   7.058   5.828   1.935  0.5850 -0.3043 -0.5192
    6CHTO   H73 2387   7.087   5.911   1.997 -0.7408 -1.6690  1.9830
    6CHTO   H74 2388   7.094   5.847   1.835  1.8471 -2.1079 -0.4417
    6CHTO   C40 2389   7.161   5.693   2.134  0.1739  0.1041 -0.4807
    6CHTO   H82 2390   7.070   5.723   2.187 -1.3816 -1.3665 -2.2464
    6CHTO   O26 2391   7.207   5.561   2.174  0.3055 -0.4101  0.1342
    6CHTO   C41 2392   7.106   5.448   2.157 -0.5453  0.1972 -0.1058
    6CHTO   H83 2393   7.026   5.473   2.229  1.0134 -0.7395  1.9991
    6CHTO   C52 2394   7.174   5.308   2.185  0.5800 -0.2912  0.1047
    6CHTO   O35 2395   7.313   5.245   2.095 -0.2664  0.0085 -0.1769
    6CHTO   H71 2396   7.390   5.273   2.140 -0.9747 -1.1616  1.7934
    6CHTO   O28 2397   7.263   5.787   2.166  0.7206  0.4610 -0.1211
    6CHTO   C42 2398   7.282   5.832   2.306 -0.2787  0.1140 -0.0189
    6CHTO   H84 2399   7.352   5.912   2.283  1.9579 -1.6874  0.3458
    6CHTO   C44 2400   7.357   5.736   2.397 -0.3004  0.7336  0.1928
    6CHTO   H86 2401   7.306   5.640   2.395  0.5833  0.2376  0.9484
    6CHTO   O32 2402   7.492   5.712   2.340  1.0707 -0.3770 -0.4025
    6CHTO   H69 2403   7.528   5.642   2.391  0.8691 -0.5493 -0.5005
    6CHTO   C48 2404   7.371   5.789   2.548  0.5337  0.2880 -0.8512
    6CHTO   H90 2405   7.430   5.880   2.547  2.5818 -0.9313  2.9316
    6CHTO    N9 2406   7.443   5.689   2.635 -0.0197  0.3174 -0.3954
    6CHTO   H77 2407   7.376   5.621   2.685 -0.1572  0.9451  0.2822
    6CHTO   H78 2408   7.505   5.627   2.573 -0.1824 -0.7875  0.5417
    6CHTO   C51 2409   7.227   5.837   2.602  0.1584  0.7151  0.4799
    6CHTO   H93 2410   7.157   5.753   2.590 -0.4611  1.0759  1.4978
    6CHTO   O30 2411   7.194   5.947   2.518 -0.4400 -0.1694 -0.7406
    6CHTO   C46 2412   7.158   5.899   2.380  0.0110  0.4660 -0.8548
    6CHTO   H88 2413   7.074   5.830   2.389 -0.1074  0.8014  0.6232
    6CHTO   C53 2414   7.097   6.016   2.304  0.3386  0.3002  0.1693
    6CHTO   O72 2415   7.197   6.114   2.273 -0.5586  0.3755  0.3249
    6CHTO  H199 2416   7.172   6.192   2.319  0.2572  0.5787  0.4288
    6CHTO   O22 2417   7.212   5.880   2.740  0.5160 -0.1816 -0.5477
    6CHTO   C31 2418   7.080   5.879   2.807  0.1269  0.1393  0.3885
    6CHTO   H59 2419   7.004   5.902   2.729  0.1735 -0.9119  0.0326
    6CHTO   C29 2420   7.043   5.738   2.870  0.0049 -0.0290 -0.0245
    6CHTO   H57 2421   7.123   5.718   2.943 -0.5500 -0.1982  0.5354
    6CHTO   O21 2422   7.055   5.633   2.768 -0.3555 -0.0051  0.5742
    6CHTO   H37 2423   6.973   5.590   2.757  1.7433 -3.8041 -1.3330
    6CHTO   C27 2424   6.910   5.739   2.960  0.0426  0.3213  0.3962
    6CHTO   H55 2425   6.823   5.745   2.893 -0.0807  0.2109  0.5460
    6CHTO    N5 2426   6.901   5.618   3.046  0.5788 -0.8843  0.2462
    6CHTO   H43 2427   6.977   5.620   3.123  0.1472 -1.1005  0.6800
    6CHTO   H44 2428   6.929   5.536   2.982  0.3454  0.2045 -1.2892
    6CHTO   C25 2429   6.892   5.868   3.039 -1.0437 -0.0715 -0.7293
    6CHTO   H53 2430   6.958   5.865   3.127 -2.0909 -2.1657  0.0322
    6CHTO   O17 2431   6.936   5.991   2.974 -0.3310  0.0146  1.0285
    6CHTO   C32 2432   7.067   5.993   2.917 -0.0221  0.0430 -0.0687
    6CHTO   H60 2433   7.143   5.975   2.993 -1.4200 -1.6483  0.9551
    6CHTO   C36 2434   7.090   6.141   2.875  0.2414  0.4132 -0.0710
    6CHTO   O25 2435   7.227   6.157   2.840 -0.5108 -0.2276 -0.0266
    6CHTO   H40 2436   7.270   6.078   2.812  1.1075 -1.1698  4.6302
    6CHTO   O15 2437   6.760   5.873   3.098 -0.0225  0.1636 -0.4808
    6CHTO   C19 2438   6.652   5.960   3.149 -0.3233  0.2516 -0.0507
    6CHTO   H47 2439   6.667   5.952   3.258 -3.8209 -0.3779  0.4355
    6CHTO   C20 2440   6.665   6.115   3.104  0.4336  0.1227  0.1711
    6CHTO   H48 2441   6.680   6.124   2.996  1.6927 -3.5670 -0.0557
    6CHTO   O19 2442   6.789   6.164   3.157 -0.1873  0.0598  0.6435
    6CHTO   H35 2443   6.792   6.138   3.247  0.6479 -0.5768  0.4388
    6CHTO   C21 2444   6.541   6.200   3.147  0.2248 -0.0103  0.5189
    6CHTO   H49 2445   6.541   6.213   3.255 -0.6319  0.7303  0.4399
    6CHTO    N4 2446   6.541   6.339   3.102  0.1620 -0.1719  0.0720
    6CHTO   H41 2447   6.451   6.392   3.129  0.7180  1.6214 -1.4767
    6CHTO   H42 2448   6.543   6.348   2.994 -3.0773 -1.4343 -0.1494
    6CHTO   C22 2449   6.411   6.127   3.110 -0.3538  0.1869 -0.2644
    6CHTO   H50 2450   6.418   6.116   3.002  2.1694 -0.9803 -0.0205
    6CHTO   O14 2451   6.416   6.000   3.177  0.2944  0.5953  0.5657
    6CHTO   C23 2452   6.507   5.911   3.123 -0.0891 -0.0266  0.0237
    6CHTO   H51 2453   6.485   5.908   3.016 -0.9998  0.0792  0.2060
    6CHTO   C34 2454   6.478   5.768   3.166  0.6439  0.4036  0.2154
    6CHTO   O23 2455   6.342   5.718   3.143  0.2032 -0.1623 -0.5320
    6CHTO   H38 2456   6.277   5.750   3.202  2.2279 -0.1431  1.7549
    6CHTO   O16 2457   6.290   6.199   3.159 -0.2048  0.1102  0.0721
    6CHTO   C24 2458   6.155   6.172   3.057  0.1990 -0.0540  0.0076
    6CHTO   H52 2459   6.163   6.081   2.998  2.2117 -1.1046  1.7939
    6CHTO   C26 2460   6.135   6.295   2.961 -0.5729 -0.1762  0.1991
    6CHTO   H54 2461   6.149   6.388   3.021  1.6988 -0.0861 -0.4450
    6CHTO   O20 2462   6.246   6.294   2.869 -0.1118 -0.0322  0.5908
    6CHTO   H36 2463   6.218   6.247   2.793  0.7919  1.5594 -0.7599
    6CHTO   C30 2464   5.998   6.290   2.886 -0.6306 -0.6970 -0.0906
    6CHTO   H58 2465   6.007   6.207   2.814  0.4705 -0.8657  0.2297
    6CHTO    N6 2466   5.977   6.418   2.811  0.1529 -0.2970  0.8459
    6CHTO   H45 2467   5.880   6.427   2.764 -0.1157  0.5178  1.5369
    6CHTO   H46 2468   5.991   6.495   2.885 -1.3914  2.4516 -1.6539
    6CHTO   C33 2469   5.873   6.249   2.977  0.8759  0.7274 -0.6966
    6CHTO   H61 2470   5.839   6.326   3.048 -1.1025 -1.1017  0.3971
    6CHTO   O18 2471   5.918   6.137   3.058  0.5014  0.2463  0.0324
    6CHTO   C28 2472   6.029   6.160   3.144 -0.1345  0.5754 -0.6117
    6CHTO   H56 2473   6.020   6.248   3.208  0.6989 -0.9539  1.6603
    6CHTO   C35 2474   6.051   6.043   3.238  0.3962 -0.2843  0.3774
    6CHTO   O24 2475   5.952   6.046   3.337  0.3820 -0.2897 -0.1716
    6CHTO   H39 2476   5.992   6.024   3.419  1.1494  0.4335 -0.3398
    6CHTO    O9 2477   5.749   6.215   2.910  0.0831 -0.3368 -0.5098
    6CHTO   C13 2478   5.651   6.356   2.905  0.9670  0.2320 -0.0994
    6CHTO   H26 2479   5.718   6.445   2.901  1.8672 -0.4462 -0.1911
    6CHTO   C11 2480   5.547   6.360   3.025  0.0890  0.2053 -0.2803
    6CHTO   H24 2481   5.605   6.367   3.119 -1.1141 -0.9730  0.5634
    6CHTO    O8 2482   5.472   6.236   3.027  0.7075  0.2021  0.5982
    6CHTO    H3 2483   5.424   6.224   3.107 -0.6690 -3.1076 -0.6186
    6CHTO    C9 2484   5.462   6.493   3.017  0.6510  0.3512 -0.1142
    6CHTO   H22 2485   5.534   6.575   3.023  0.6992  0.1997  1.5677
    6CHTO    N2 2486   5.366   6.524   3.130 -0.0358  0.5048  0.0170
    6CHTO   H10 2487   5.337   6.627   3.134  1.3540  1.0073 -2.0444
    6CHTO   H11 2488   5.408   6.486   3.222 -0.6917 -0.1061  0.0705
    6CHTO    C7 2489   5.389   6.507   2.869 -0.1108  0.2352 -0.3293
    6CHTO   H20 2490   5.429   6.599   2.822 -1.6116  0.6949 -0.7231
    6CHTO    O4 2491   5.428   6.399   2.784 -0.3513  0.7132 -0.6566
    6CHTO   C14 2492   5.568   6.370   2.770 -0.5732  0.0518  0.1772
    6CHTO   H27 2493   5.624   6.446   2.711 -0.1490  0.4237  1.0447
    6CHTO   C18 2494   5.578   6.240   2.683 -0.3326  0.4545 -1.3669
    6CHTO   O13 2495   5.502   6.127   2.727 -0.0823  0.2588  0.5341
    6CHTO    H7 2496   5.416   6.134   2.690  0.4472  1.8302 -0.4346
    6CHTO    O2 2497   5.209   6.518   2.860  0.2229 -0.4894  0.3870
    6CHTO    C1 2498   5.156   6.552   2.730  0.0859  0.4819 -0.7698
    6CHTO   H14 2499   5.239   6.528   2.659  0.3537 -4.1673  0.9219
    6CHTO    C2 2500   5.104   6.697   2.722 -0.0081  0.4226  0.0745
    6CHTO   H15 2501   5.027   6.712   2.799 -1.0585 -1.5171 -0.5769
    6CHTO    O6 2502   5.218   6.785   2.746 -0.0300 -0.2836 -0.1961
    6CHTO    H1 2503   5.286   6.753   2.690  0.1061  2.5330 -1.7123
    6CHTO    C3 2504   5.035   6.730   2.578 -0.0159  0.2457  0.0618
    6CHTO   H16 2505   5.113   6.704   2.505  1.6874  0.8934  1.6143
    6CHTO    N1 2506   4.992   6.874   2.561 -0.3129  0.4174 -0.2370
    6CHTO    H8 2507   4.942   6.923   2.644  0.3901  0.5330  0.1195
    6CHTO    H9 2508   5.067   6.937   2.516 -0.4477 -0.5905 -1.8732
    6CHTO    C4 2509   4.924   6.626   2.557  0.7120 -0.0265 -0.5195
    6CHTO   H17 2510   4.850   6.647   2.635  0.4774  2.8046 -1.4710
    6CHTO    O1 2511   4.987   6.497   2.565  0.2232 -0.2291 -0.1540
    6CHTO    C5 2512   5.041   6.460   2.694  0.3732  0.7589  0.1171
    6CHTO   H18 2513   4.967   6.472   2.773  0.4493  1.3145  0.1057
    6CHTO   C16 2514   5.074   6.310   2.674 -0.0483 -0.0786  0.5176
    6CHTO   O11 2515   5.120   6.250   2.791  0.6751 -0.0348  0.2897
    6CHTO    H5 2516   5.139   6.161   2.770  1.8996  0.3873 -0.4675
    6CHTO    O3 2517   4.863   6.628   2.428  0.2188 -0.2706  0.0605
    6CHTO    C6 2518   4.728   6.564   2.391  0.0805 -0.1270 -0.4159
    6CHTO   H19 2519   4.739   6.494   2.309 -3.1470 -0.4016 -0.6850
    6CHTO    C8 2520   4.650   6.499   2.506 -0.2532  0.6927  0.6354
    6CHTO   H21 2521   4.630   6.577   2.580 -0.4434  1.0725  0.1833
    6CHTO    O7 2522   4.738   6.394   2.557 -0.0387 -0.3051  0.6729
    6CHTO    H2 2523   4.696   6.346   2.626  0.5111 -0.4374  0.9145
    6CHTO   C12 2524   4.512   6.441   2.460 -0.0830  0.1695  0.0247
    6CHTO   H25 2525   4.535   6.382   2.370  2.6998  0.4246  0.5336
    6CHTO    N3 2526   4.437   6.353   2.555  0.7493  0.0961  0.2226
    6CHTO   H12 2527   4.333   6.381   2.548  0.4865 -0.6663  0.8955
    6CHTO   H13 2528   4.473   6.365   2.656  0.2275 -1.5602  0.6244
    6CHTO   C15 2529   4.430   6.562   2.411 -0.1336 -0.2582  0.1976
    6CHTO   H28 2530   4.408   6.636   2.488 -1.6900 -0.8063  0.2872
    6CHTO   O10 2531   4.285   6.525   2.354  0.5013 -0.2525  0.1876
    6CHTO    H4 2532   4.291   6.476   2.274  0.0837 -0.6146  0.3809
    6CHTO    O5 2533   4.504   6.629   2.305  0.0279 -0.5557  0.1471
    6CHTO   C10 2534   4.636   6.677   2.338  0.4012 -0.6588 -0.3486
    6CHTO   H23 2535   4.633   6.735   2.430  0.2949  1.8917 -1.9165
    6CHTO   C17 2536   4.689   6.775   2.232  0.4260 -0.3508 -0.6810
    6CHTO   O12 2537   4.687   6.712   2.106  0.2085  0.2900  0.2262
    6CHTO    H6 2538   4.622   6.755   2.054 -1.0874 -0.9706  0.7774
    7CHTO  H203 2539   4.844   1.738  -0.173  1.6450  1.3164  0.8826
    7CHTO   O82 2540   4.866   1.785  -0.251  0.2689 -0.3655 -0.5609
    7CHTO  C123 2541   4.936   1.907  -0.221  0.0957 -0.9432  0.5600
    7CHTO  H227 2542   4.866   1.988  -0.196 -0.2577 -1.1658  0.2904
    7CHTO   O77 2543   5.017   1.873  -0.102 -0.7413 -0.0147 -0.1610
    7CHTO  C118 2544   5.080   1.990  -0.043  0.4812 -0.4859 -0.3960
    7CHTO  H222 2545   5.011   2.075  -0.037  1.4374  0.2622  0.2961
    7CHTO  C125 2546   5.130   1.950   0.110 -0.3066  0.2459  0.2350
    7CHTO   O84 2547   5.250   1.868   0.087 -0.0937  0.3371  0.1965
    7CHTO  H205 2548   5.284   1.832   0.166 -0.8056 -0.6034  0.0839
    7CHTO  C114 2549   5.197   2.019  -0.145  0.4641 -0.5363  0.3556
    7CHTO  H218 2550   5.258   1.930  -0.158 -0.7816 -1.2825 -0.4821
    7CHTO  C116 2551   5.125   2.072  -0.278  0.8098 -0.3611  0.1266
    7CHTO  H220 2552   5.070   2.166  -0.256  1.2183  0.0840 -0.7372
    7CHTO   O79 2553   5.225   2.120  -0.374  0.1195 -0.3109 -0.3784
    7CHTO  H201 2554   5.183   2.133  -0.457  1.2443  1.5565 -0.6731
    7CHTO  C120 2555   5.035   1.959  -0.335 -0.5452  0.4337 -0.2036
    7CHTO  H224 2556   5.111   1.885  -0.369 -0.8693  1.0935 -2.4182
    7CHTO   N21 2557   4.952   2.002  -0.448 -0.4216  0.2013 -0.4437
    7CHTO  H211 2558   5.005   1.979  -0.539  0.6315 -1.0222  0.4604
    7CHTO  H212 2559   4.908   2.101  -0.441  1.9022  1.1885  1.1136
    7CHTO   O75 2560   5.268   2.132  -0.089  0.1708  0.4862 -0.1679
    7CHTO  C112 2561   5.429   2.143  -0.107  0.5200 -0.3980 -0.3292
    7CHTO  H216 2562   5.458   2.115  -0.209  1.1351 -0.4422 -0.1437
    7CHTO   O73 2563   5.489   2.056  -0.012  0.4268 -0.1348  0.4575
    7CHTO  C113 2564   5.629   2.056  -0.027  0.2055 -0.1877  0.3338
    7CHTO  H217 2565   5.651   2.029  -0.132 -1.0935  2.4456 -0.6531
    7CHTO  C124 2566   5.701   1.946   0.054 -0.1280  0.5038  0.8231
    7CHTO   O83 2567   5.670   1.953   0.194  0.2201  0.2678 -0.5825
    7CHTO  H204 2568   5.735   2.008   0.232  1.4821 -1.1448 -0.6441
    7CHTO  C109 2569   5.683   2.193   0.024 -0.3013 -0.5359  0.6391
    7CHTO  H213 2570   5.653   2.193   0.130 -3.2249  0.9956 -0.1397
    7CHTO  C110 2571   5.625   2.299  -0.074 -0.6362 -0.1611 -0.9518
    7CHTO  H214 2572   5.682   2.283  -0.165  0.3264 -1.6255 -0.1201
    7CHTO   O78 2573   5.667   2.428  -0.026 -0.3887 -0.1302  0.9747
    7CHTO  H200 2574   5.705   2.476  -0.097 -0.8696 -0.9352  0.1576
    7CHTO  C111 2575   5.470   2.293  -0.089  0.6165  0.1576 -0.0878
    7CHTO  H215 2576   5.426   2.326   0.006 -0.9048 -1.8175 -0.0789
    7CHTO   N19 2577   5.415   2.381  -0.194 -0.1935  0.1877  0.1019
    7CHTO  H207 2578   5.375   2.466  -0.142  0.2767  0.5437 -0.1140
    7CHTO  H208 2579   5.340   2.334  -0.257 -0.2696  1.6920 -0.9679
    7CHTO   O74 2580   5.828   2.191   0.018 -0.4339 -0.3879  0.0691
    7CHTO  C115 2581   5.895   2.277   0.133 -0.2898  0.3807  0.3637
    7CHTO  H219 2582   5.839   2.368   0.155 -1.2967 -0.0349 -0.4666
    7CHTO   O76 2583   5.906   2.188   0.273  0.3504  0.2069 -0.0182
    7CHTO  C122 2584   6.003   2.083   0.259  0.7011 -0.1448  0.1349
    7CHTO  H226 2585   5.961   2.023   0.178  3.2423 -3.1196  0.9204
    7CHTO  C126 2586   5.990   1.996   0.382  0.1071 -0.0128  0.0567
    7CHTO   O85 2587   5.863   1.934   0.383 -0.2721  0.0128  0.6013
    7CHTO  H206 2588   5.805   1.974   0.445 -0.8046 -1.1773  0.8898
    7CHTO  C121 2589   6.146   2.132   0.223  0.3597  0.3350  0.1552
    7CHTO  H225 2590   6.171   2.213   0.296 -2.2259  2.2454 -1.0153
    7CHTO   O81 2591   6.241   2.024   0.218  0.5010  0.1211  0.2605
    7CHTO  H202 2592   6.218   1.944   0.262  2.5205 -0.2366  0.7397
    7CHTO  C119 2593   6.132   2.200   0.084  0.3342  0.2244 -0.3762
    7CHTO  H223 2594   6.231   2.226   0.046  0.4401  1.4555  0.7181
    7CHTO  C117 2595   6.041   2.324   0.079 -0.2120 -0.1341 -0.6068
    7CHTO  H221 2596   6.014   2.360  -0.021 -1.8158  0.4242  0.0162
    7CHTO   N20 2597   6.090   2.448   0.151  0.3691 -0.0426 -0.3005
    7CHTO  H209 2598   6.083   2.433   0.258  1.1173 -1.9517 -0.4922
    7CHTO  H210 2599   6.043   2.540   0.120  1.7850  1.1721  1.0828
    7CHTO   O80 2600   6.092   2.090  -0.025 -0.0182  0.4498 -0.5226
    7CHTO  C103 2601   6.204   2.008  -0.116 -0.5096 -0.2067 -0.3446
    7CHTO  H190 2602   6.188   2.023  -0.222 -2.4769 -2.3634 -0.3920
    7CHTO  C101 2603   6.362   2.023  -0.085 -0.0195  0.5494 -0.0338
    7CHTO  H188 2604   6.389   2.009   0.020  3.0821  0.5662 -0.7858
    7CHTO   O68 2605   6.403   2.168  -0.117 -0.5037 -0.2648  0.6655
    7CHTO  H168 2606   6.344   2.220  -0.065  0.2984  1.5526 -0.1845
    7CHTO   C99 2607   6.439   1.911  -0.170  0.5185 -0.1712 -0.7496
    7CHTO  H186 2608   6.430   1.931  -0.279 -1.5975  0.5766 -0.4558
    7CHTO   N17 2609   6.585   1.913  -0.142  0.1487  0.2856  0.0678
    7CHTO  H174 2610   6.610   2.007  -0.096 -0.7721  0.5471  0.0372
    7CHTO  H175 2611   6.599   1.835  -0.069  1.2398 -2.0095 -2.4804
    7CHTO   C97 2612   6.376   1.768  -0.145  0.9018  0.0895  0.3279
    7CHTO  H184 2613   6.397   1.738  -0.041  0.1540  0.7068  0.6636
    7CHTO   O64 2614   6.236   1.766  -0.168  0.2330 -0.4648  0.0404
    7CHTO  C104 2615   6.168   1.857  -0.083  0.3011 -0.7201 -0.0146
    7CHTO  H191 2616   6.189   1.836   0.022 -2.0910  1.2348  0.8849
    7CHTO  C108 2617   6.016   1.819  -0.101  0.0791  0.5180  0.1913
    7CHTO   O71 2618   5.994   1.685  -0.074 -0.5907  0.0583 -0.2030
    7CHTO  H171 2619   5.992   1.632  -0.151 -0.8945  0.7137 -0.6546
    7CHTO   O62 2620   6.432   1.672  -0.243  0.0255 -0.3098 -0.3479
    7CHTO   C91 2621   6.392   1.538  -0.257  0.0526  0.5975 -0.7966
    7CHTO  H178 2622   6.480   1.475  -0.273 -1.2438 -2.0315  2.0234
    7CHTO   C92 2623   6.307   1.538  -0.380  0.1555  0.2296  0.7202
    7CHTO  H179 2624   6.245   1.629  -0.373 -0.7220 -0.2573 -0.5543
    7CHTO   O66 2625   6.387   1.559  -0.498 -0.3453  0.3265  0.2369
    7CHTO  H166 2626   6.461   1.501  -0.490 -1.4400 -1.2284 -0.6833
    7CHTO   C93 2627   6.216   1.410  -0.401 -0.8037  0.0920 -0.4347
    7CHTO  H180 2628   6.278   1.327  -0.437 -0.2211  1.0767 -1.7772
    7CHTO   N16 2629   6.114   1.430  -0.508 -0.8232  0.2211  0.4402
    7CHTO  H172 2630   6.039   1.504  -0.486  0.8986  2.8014 -2.0240
    7CHTO  H173 2631   6.069   1.332  -0.517  2.0922 -1.1175 -0.4429
    7CHTO   C94 2632   6.147   1.372  -0.270 -0.1469  0.9571 -0.1669
    7CHTO  H181 2633   6.084   1.450  -0.228  0.7171  1.0800  0.9156
    7CHTO   O61 2634   6.252   1.347  -0.172 -0.0812 -0.4799 -0.5037
    7CHTO   C95 2635   6.324   1.466  -0.140  0.2386  0.3705  0.5199
    7CHTO  H182 2636   6.258   1.532  -0.084  1.0964  2.9793 -1.4612
    7CHTO  C106 2637   6.437   1.422  -0.028 -0.0385  0.1761  0.2583
    7CHTO   O69 2638   6.384   1.449   0.105 -0.5522  0.0730  0.2695
    7CHTO  H169 2639   6.315   1.513   0.094 -0.2423  0.7650  2.1610
    7CHTO   O63 2640   6.056   1.250  -0.274  0.2474 -0.0626 -0.3369
    7CHTO   C96 2641   5.935   1.257  -0.159  0.3784  0.3948  0.5747
    7CHTO  H183 2642   5.882   1.352  -0.150 -0.1079  0.1586  0.2397
    7CHTO   C98 2643   5.977   1.222  -0.014 -0.4450 -0.1098  0.0529
    7CHTO  H185 2644   6.074   1.270   0.005 -0.6187  0.5541 -0.7429
    7CHTO   O67 2645   5.888   1.281   0.086  0.4721  0.5862  0.3476
    7CHTO  H167 2646   5.800   1.251   0.074  0.7576 -0.2244  0.1990
    7CHTO  C102 2647   5.988   1.069   0.021  0.1349  0.0746  0.4410
    7CHTO  H189 2648   6.006   1.067   0.129  1.0685 -0.6676  0.2898
    7CHTO   N18 2649   6.108   1.003  -0.035 -0.4047  0.1795 -0.2840
    7CHTO  H176 2650   6.179   1.064  -0.089  0.0765 -0.8150 -0.7878
    7CHTO  H177 2651   6.161   0.964   0.051  2.4963  2.8438 -0.7694
    7CHTO  C105 2652   5.858   0.996  -0.023 -0.1205 -1.1347 -0.6697
    7CHTO  H192 2653   5.875   0.914  -0.092 -0.7298 -0.7335 -1.3115
    7CHTO   O65 2654   5.766   1.085  -0.089  0.1787 -0.0033  0.1151
    7CHTO  C100 2655   5.818   1.160  -0.202 -0.2986 -0.1376  0.1152
    7CHTO  H187 2656   5.855   1.082  -0.269 -2.9373 -0.5036 -0.9674
    7CHTO  C107 2657   5.708   1.235  -0.279 -0.2098  0.8507  0.3569
    7CHTO   O70 2658   5.753   1.293  -0.406 -0.2672  0.6557 -0.1920
    7CHTO  H170 2659   5.799   1.373  -0.392 -0.4684  0.9322 -1.0916
    7CHTO   O57 2660   5.804   0.938   0.100  0.0503  0.2619  0.3436
    7CHTO   C85 2661   5.796   0.793   0.124 -0.2555  0.1372  0.5262
    7CHTO  H157 2662   5.874   0.759   0.053 -1.1532 -2.4514  0.7531
    7CHTO   C83 2663   5.663   0.723   0.068  0.3404  0.2777  0.4364
    7CHTO  H155 2664   5.656   0.746  -0.038 -0.5613  2.5768  0.9751
    7CHTO   O56 2665   5.545   0.773   0.136  0.2177 -0.1705 -0.2747
    7CHTO  H135 2666   5.550   0.769   0.229  2.1524  1.7092 -0.2585
    7CHTO   C81 2667   5.686   0.571   0.084  0.7552 -0.6407 -0.3643
    7CHTO  H153 2668   5.774   0.549   0.023  1.2288  0.7910 -0.2288
    7CHTO   N14 2669   5.577   0.498   0.014  0.0157  0.6086 -0.0411
    7CHTO  H141 2670   5.492   0.557  -0.013  0.7608  1.8000  0.1626
    7CHTO  H142 2671   5.604   0.441  -0.073 -2.7172 -0.6388 -0.1219
    7CHTO   C79 2672   5.720   0.532   0.235 -0.0276  0.4636  0.2296
    7CHTO  H151 2673   5.752   0.428   0.230  0.7358  0.7348 -0.8593
    7CHTO   O52 2674   5.840   0.602   0.276 -0.0415  0.2619 -0.6555
    7CHTO   C86 2675   5.828   0.748   0.269 -0.0487  0.2253 -0.4857
    7CHTO  H158 2676   5.744   0.775   0.336  0.4667  0.4073  0.0851
    7CHTO   C90 2677   5.946   0.822   0.321 -0.5418 -0.2050  0.0712
    7CHTO   O60 2678   5.976   0.789   0.458  0.2232 -0.3476  0.0204
    7CHTO  H138 2679   6.043   0.848   0.486 -0.2351  0.6563 -0.9948
    7CHTO   O50 2680   5.619   0.551   0.327  0.2732  0.2536 -0.1785
    7CHTO   C73 2681   5.573   0.439   0.405  0.7105  0.8679 -0.2788
    7CHTO  H145 2682   5.657   0.379   0.442  0.7281  1.2806  0.3609
    7CHTO   C74 2683   5.465   0.354   0.334 -0.2553 -0.1878  0.4793
    7CHTO  H146 2684   5.515   0.340   0.237 -1.6997 -0.2278 -0.2716
    7CHTO   O54 2685   5.455   0.234   0.408 -0.1101 -0.3973  0.4823
    7CHTO  H133 2686   5.442   0.166   0.345  2.4536  0.8402 -1.4374
    7CHTO   C75 2687   5.331   0.438   0.322 -0.2832  0.2886  1.2893
    7CHTO  H147 2688   5.357   0.531   0.270  2.6171 -2.5736 -2.7382
    7CHTO   N13 2689   5.228   0.373   0.241  0.2538 -0.4213 -0.0828
    7CHTO  H139 2690   5.224   0.266   0.253 -1.4134 -0.2621  0.9140
    7CHTO  H140 2691   5.237   0.396   0.136  1.9179  1.0197  0.3498
    7CHTO   C76 2692   5.281   0.478   0.466 -0.5780 -0.4970 -1.0760
    7CHTO  H148 2693   5.268   0.388   0.526 -2.1609  1.0995  1.0777
    7CHTO   O49 2694   5.388   0.574   0.518  0.9016 -0.4998  0.3796
    7CHTO   C77 2695   5.512   0.500   0.539 -0.1558 -0.2584  0.7881
    7CHTO  H149 2696   5.505   0.421   0.613 -2.5157 -1.6337 -0.8511
    7CHTO   C88 2697   5.617   0.598   0.598 -0.0836  0.0884  0.4688
    7CHTO   O58 2698   5.604   0.639   0.719 -0.0651  0.4466 -0.2185
    7CHTO  H136 2699   5.541   0.709   0.716 -0.8663 -0.2699 -0.2257
    7CHTO   O51 2700   5.149   0.571   0.485  0.4236 -0.5934 -0.4901
    7CHTO   C78 2701   5.111   0.573   0.648 -0.2201 -0.1656 -0.2316
    7CHTO  H150 2702   5.197   0.534   0.706  0.0099  0.9983  0.2359
    7CHTO   C80 2703   4.983   0.489   0.661  0.8472 -0.0380  0.7134
    7CHTO  H152 2704   4.905   0.534   0.596  0.5464 -0.0585  1.0559
    7CHTO   O55 2705   5.027   0.357   0.612 -0.2134 -0.4153  0.3240
    7CHTO  H134 2706   4.970   0.323   0.545  2.9685  1.0886 -3.2909
    7CHTO   C84 2707   4.923   0.497   0.810 -0.5387 -0.2414  0.4235
    7CHTO  H156 2708   4.999   0.438   0.862  0.1850 -0.4849 -0.9080
    7CHTO   N15 2709   4.796   0.421   0.829  0.3508 -0.6609  0.4715
    7CHTO  H143 2710   4.823   0.319   0.812  1.6965 -0.2855  0.3252
    7CHTO  H144 2711   4.730   0.455   0.752 -0.6314 -0.2711  1.4718
    7CHTO   C87 2712   4.915   0.638   0.869 -0.2551 -0.6775  0.7804
    7CHTO  H159 2713   4.828   0.693   0.834  0.5291 -0.1391 -0.3440
    7CHTO   O53 2714   5.042   0.719   0.827 -0.4501  0.5206 -0.0828
    7CHTO   C82 2715   5.086   0.719   0.695  0.4498 -0.6032 -0.1097
    7CHTO  H154 2716   5.015   0.768   0.628 -2.1045  1.6188  3.9451
    7CHTO   C89 2717   5.216   0.803   0.695 -0.3746 -0.7441 -0.2766
    7CHTO   O59 2718   5.268   0.832   0.567 -0.0385  0.4511 -0.1455
    7CHTO  H137 2719   5.360   0.812   0.561 -0.5119 -2.7887  2.4834
    7CHTO   O45 2720   4.906   0.633   1.036  0.4528 -0.5868 -0.0924
    7CHTO   C67 2721   4.973   0.739   1.107  0.4020  0.0815 -0.5116
    7CHTO  H124 2722   5.075   0.752   1.070  0.3572  0.2835 -0.5612
    7CHTO   C65 2723   4.892   0.875   1.100  0.5462  0.5988  0.0484
    7CHTO  H122 2724   4.786   0.850   1.101  0.7705 -0.4077 -0.6186
    7CHTO   O44 2725   4.940   0.937   0.979  0.1669 -0.7518  0.3396
    7CHTO  H102 2726   5.025   0.975   0.982 -0.9196  1.7553  0.1616
    7CHTO   C63 2727   4.905   0.960   1.230  0.6308 -0.5938 -0.0825
    7CHTO  H120 2728   4.830   0.923   1.300 -0.1996 -2.0311 -1.6736
    7CHTO   N11 2729   4.868   1.106   1.224  0.3910  0.3312 -0.0028
    7CHTO  H108 2730   4.905   1.149   1.132 -1.6744 -0.9516 -1.4695
    7CHTO  H109 2731   4.915   1.151   1.309  2.1900  3.4047 -2.4946
    7CHTO   C61 2732   5.048   0.933   1.292 -0.2885 -0.3485  0.5599
    7CHTO  H118 2733   5.049   0.982   1.391 -0.9086 -0.2238  0.5040
    7CHTO   O40 2734   5.079   0.783   1.319  1.1596 -0.4409  0.2659
    7CHTO   C68 2735   4.987   0.691   1.258 -0.1964 -0.5247 -0.6354
    7CHTO  H125 2736   4.889   0.703   1.307  0.9160  1.6578  1.1218
    7CHTO   C72 2737   5.043   0.547   1.290 -0.0055  0.1822  0.7197
    7CHTO   O48 2738   5.172   0.500   1.238 -0.1317 -0.2166  0.3963
    7CHTO  H105 2739   5.200   0.413   1.257  0.0531  0.0445  1.3329
    7CHTO   O38 2740   5.155   0.980   1.209 -0.1277 -0.4208 -0.0012
    7CHTO   C55 2741   5.282   0.992   1.268 -0.0501 -0.5696 -0.1360
    7CHTO  H112 2742   5.293   0.925   1.355 -0.9285 -2.9939 -1.8253
    7CHTO   C56 2743   5.311   1.143   1.299  0.1405  0.3414  1.0752
    7CHTO  H113 2744   5.276   1.200   1.212  0.7325  0.5877  1.0015
    7CHTO   O42 2745   5.216   1.172   1.398 -0.8342  0.0157  0.0903
    7CHTO  H100 2746   5.211   1.265   1.409 -1.0037  0.1404 -0.9676
    7CHTO   C57 2747   5.457   1.176   1.334  0.1865 -0.0671 -0.1101
    7CHTO  H114 2748   5.478   1.122   1.427  0.2886  2.1357  1.1754
    7CHTO   N10 2749   5.481   1.318   1.346  0.3670  0.3960 -0.2893
    7CHTO  H106 2750   5.557   1.343   1.418 -0.3195  0.0670  0.5561
    7CHTO  H107 2751   5.502   1.364   1.251 -3.1493 -0.3210 -1.4989
    7CHTO   C58 2752   5.544   1.113   1.223 -0.1098  0.0824 -0.1256
    7CHTO  H115 2753   5.516   1.151   1.123 -1.5262 -1.0927 -0.1770
    7CHTO   O37 2754   5.519   0.970   1.219  0.4111  0.3202  0.4313
    7CHTO   C59 2755   5.388   0.938   1.168  0.2250  0.2985 -0.5311
    7CHTO  H116 2756   5.368   0.982   1.070  0.4006  1.2715 -0.1359
    7CHTO   C70 2757   5.367   0.789   1.148  0.1091 -0.6365 -0.0096
    7CHTO   O46 2758   5.465   0.725   1.070  0.3554 -0.4307  0.0742
    7CHTO  H103 2759   5.479   0.761   0.985  1.2528 -2.0010 -0.4631
    7CHTO   O39 2760   5.696   1.134   1.260  0.2854  0.1107  0.1057
    7CHTO   C60 2761   5.809   1.073   1.184 -0.3150  0.0550  0.0304
    7CHTO  H117 2762   5.843   0.978   1.225  1.2158  0.4198 -0.3643
    7CHTO   C62 2763   5.777   1.062   1.036 -0.2655 -0.1394  0.2262
    7CHTO  H119 2764   5.690   0.992   1.035 -0.3325 -0.0511 -0.3928
    7CHTO   O43 2765   5.732   1.187   0.979  0.5176  0.4871 -0.2743
    7CHTO  H101 2766   5.655   1.177   0.927 -0.1131  0.1877  0.6911
    7CHTO   C66 2767   5.902   0.998   0.950 -0.1865 -0.2798 -0.2371
    7CHTO  H123 2768   5.946   0.916   1.006  3.0077  1.8291  0.4656
    7CHTO   N12 2769   5.857   0.961   0.816  0.3179  0.2273  0.3408
    7CHTO  H110 2770   5.918   0.884   0.770  1.4201  2.6628 -2.3649
    7CHTO  H111 2771   5.751   0.936   0.815  0.2835  0.1625  2.3103
    7CHTO   C69 2772   6.012   1.105   0.955  0.5552 -0.5015 -0.1510
    7CHTO  H126 2773   5.964   1.195   0.910 -1.3534 -1.3652  0.1045
    7CHTO   O41 2774   6.048   1.127   1.113  0.3670 -0.4354 -0.1547
    7CHTO   C64 2775   5.924   1.171   1.201  0.1020 -0.3814  0.2501
    7CHTO  H121 2776   5.887   1.272   1.176 -0.2868 -0.4073  0.7006
    7CHTO   C71 2777   5.965   1.172   1.351 -0.2650  0.1247 -0.1295
    7CHTO   O47 2778   6.019   1.043   1.394 -0.8501  0.2994  0.2012
    7CHTO  H104 2779   6.067   1.051   1.474  0.2794  0.5417 -0.4867
    7CHTO   O34 2780   6.125   1.069   0.887  0.6482  0.3754 -0.7519
    7CHTO   C49 2781   6.257   0.996   0.923  0.2403 -0.8311  0.2463
    7CHTO   H91 2782   6.316   1.071   0.976 -1.2045 -0.6056  1.5873
    7CHTO   C47 2783   6.330   0.954   0.795 -0.0508  0.3780 -0.6636
    7CHTO   H89 2784   6.430   0.920   0.830 -0.3327 -0.6777 -0.8561
    7CHTO   O33 2785   6.350   1.068   0.713 -0.3583  0.4512  0.2258
    7CHTO   H70 2786   6.289   1.139   0.720  0.8245  1.6417 -1.1844
    7CHTO   C45 2787   6.244   0.838   0.711 -0.3243 -0.3845 -0.3039
    7CHTO   H87 2788   6.146   0.887   0.699 -0.0686  0.5018  1.0860
    7CHTO    N8 2789   6.298   0.810   0.578  0.1066  0.1968  0.1354
    7CHTO   H75 2790   6.390   0.756   0.592  0.0105 -0.1581 -0.6028
    7CHTO   H76 2791   6.224   0.759   0.519  1.1089 -1.8484  0.5899
    7CHTO   C43 2792   6.219   0.717   0.810  0.3601 -0.1190 -0.1525
    7CHTO   H85 2793   6.149   0.651   0.758 -0.1926 -0.3465  0.8847
    7CHTO   O29 2794   6.168   0.758   0.941 -0.0244 -0.1615  0.3230
    7CHTO   C50 2795   6.224   0.873   1.009  0.7451  0.1084 -0.3337
    7CHTO   H92 2796   6.137   0.899   1.070  0.3482  1.6882 -1.5303
    7CHTO   C54 2797   6.336   0.840   1.103 -0.1865  0.3029 -0.5839
    7CHTO   O36 2798   6.305   0.747   1.208  0.4787 -0.1888 -0.4296
    7CHTO   H72 2799   6.224   0.770   1.250  0.1002 -2.8364  0.3975
    7CHTO   O27 2800   6.341   0.651   0.832  0.5721  0.5603 -0.1442
    7CHTO   C37 2801   6.378   0.530   0.910  0.0809 -0.2051  0.0699
    7CHTO   H79 2802   6.365   0.546   1.018  0.4349 -0.4467  0.1492
    7CHTO   C38 2803   6.289   0.408   0.881  0.8015  0.4077 -0.3348
    7CHTO   H80 2804   6.269   0.407   0.773  0.3343  1.2618 -0.2573
    7CHTO   O31 2805   6.159   0.434   0.958  0.2251  0.3430  0.1434
    7CHTO   H68 2806   6.173   0.433   1.050 -0.5935  1.9354  0.3061
    7CHTO   C39 2807   6.344   0.265   0.931  0.1595  0.1001 -0.3521
    7CHTO   H81 2808   6.336   0.266   1.040 -1.4391 -0.7727 -0.4456
    7CHTO    N7 2809   6.262   0.150   0.881 -0.2619  0.2411 -0.6204
    7CHTO   H73 2810   6.207   0.179   0.793  1.4217  0.4094 -1.6321
    7CHTO   H74 2811   6.328   0.073   0.846  0.1044  0.1358  0.2826
    7CHTO   C40 2812   6.494   0.263   0.876 -1.3154  0.4680  0.0786
    7CHTO   H82 2813   6.497   0.262   0.767  2.3954  1.2457  0.1201
    7CHTO   O26 2814   6.566   0.366   0.930  0.0837  0.0476 -0.6099
    7CHTO   C41 2815   6.525   0.499   0.878 -0.2401  0.3995 -0.0157
    7CHTO   H83 2816   6.541   0.499   0.770  0.2440 -1.0622  0.0500
    7CHTO   C52 2817   6.629   0.604   0.937  0.6653 -0.0748  0.8045
    7CHTO   O35 2818   6.637   0.605   1.087 -0.5507  0.2763  0.7331
    7CHTO   H71 2819   6.638   0.690   1.127 -1.2580  0.1748  0.9665
    7CHTO   O28 2820   6.569   0.152   0.926 -0.4977  0.5071 -0.2844
    7CHTO   C42 2821   6.691   0.106   0.857 -0.1277  0.0798 -0.1138
    7CHTO   H84 2822   6.722   0.022   0.920 -1.9751 -0.9537 -0.5539
    7CHTO   C44 2823   6.812   0.202   0.849 -0.0855  0.1754  0.0717
    7CHTO   H86 2824   6.777   0.291   0.796  2.5784  0.4601 -1.2714
    7CHTO   O32 2825   6.836   0.239   0.984 -0.2551 -0.4525  0.1673
    7CHTO   H69 2826   6.890   0.315   0.983  0.0977 -0.7145 -1.5710
    7CHTO   C48 2827   6.934   0.148   0.770  0.1478 -0.1341 -0.3119
    7CHTO   H90 2828   6.974   0.070   0.836 -0.8578  0.3984  0.9480
    7CHTO    N9 2829   7.044   0.248   0.762  0.7152  0.3519  0.3425
    7CHTO   H77 2830   7.006   0.330   0.702 -2.2468 -1.5736 -0.4953
    7CHTO   H78 2831   7.123   0.197   0.710  0.6626 -1.2662  1.8134
    7CHTO   C51 2832   6.885   0.091   0.631  0.1795 -0.3818  0.1471
    7CHTO   H93 2833   6.843   0.178   0.582  0.5820 -0.4305 -0.2916
    7CHTO   O30 2834   6.789  -0.010   0.663  0.4618  0.1792  0.2620
    7CHTO   C46 2835   6.673   0.039   0.714  0.6941  0.1271  0.3287
    7CHTO   H88 2836   6.637   0.117   0.647  3.0403  1.1353  0.1946
    7CHTO   C53 2837   6.578  -0.083   0.714  0.0470 -0.3101  0.3038
    7CHTO   O72 2838   6.552  -0.119   0.574 -0.2856  0.0287  0.6601
    7CHTO  H199 2839   6.478  -0.178   0.572  0.1117 -0.4952  1.1512
    7CHTO   O22 2840   6.977   0.023   0.538 -0.2326  0.0250 -0.8183
    7CHTO   C31 2841   6.967   0.050   0.393 -0.1117  0.0150 -0.1911
    7CHTO   H59 2842   7.034  -0.025   0.346 -0.5508 -1.7539  1.9290
    7CHTO   C29 2843   6.821   0.033   0.335 -0.7980  0.0464  0.6422
    7CHTO   H57 2844   6.752   0.092   0.397 -0.4168  0.5156  0.6233
    7CHTO   O21 2845   6.781  -0.103   0.356  0.2050 -0.3298 -0.2617
    7CHTO   H37 2846   6.804  -0.137   0.440 -2.9006 -0.3673  0.6124
    7CHTO   C27 2847   6.806   0.080   0.183 -0.2787  0.3167 -0.3253
    7CHTO   H55 2848   6.860   0.006   0.122  2.5094  1.1112  1.0575
    7CHTO    N5 2849   6.660   0.078   0.146  0.5781 -0.0173  0.4259
    7CHTO   H43 2850   6.619   0.172   0.114 -1.2082 -0.0714  2.3494
    7CHTO   H44 2851   6.647   0.030   0.050  0.9255  2.1948 -0.7593
    7CHTO   C25 2852   6.874   0.223   0.160  0.0855 -0.3103  0.4724
    7CHTO   H53 2853   6.818   0.301   0.214 -0.6597 -1.8200  1.9281
    7CHTO   O17 2854   7.004   0.215   0.211 -0.3710 -0.0071  0.3231
    7CHTO   C32 2855   7.022   0.192   0.350  0.6829  0.4028 -0.1286
    7CHTO   H60 2856   6.963   0.267   0.403  2.1270 -0.9249  3.5632
    7CHTO   C36 2857   7.174   0.204   0.380 -0.1498  0.4175 -0.1551
    7CHTO   O25 2858   7.228   0.340   0.369  0.3892  0.3981  0.0116
    7CHTO   H40 2859   7.305   0.337   0.424 -0.3957 -0.6065  1.0790
    7CHTO   O15 2860   6.887   0.261   0.016 -0.1494  1.2455 -0.1535
    7CHTO   C19 2861   6.876   0.361  -0.093  0.0022  0.4581 -0.1646
    7CHTO   H47 2862   6.955   0.331  -0.162 -0.6799 -0.0057 -0.7534
    7CHTO   C20 2863   6.741   0.361  -0.174  0.3558  0.0086  0.4945
    7CHTO   H48 2864   6.653   0.389  -0.114 -1.0577  1.4730 -2.1574
    7CHTO   O19 2865   6.723   0.228  -0.225 -0.1558  0.5711 -0.7004
    7CHTO   H35 2866   6.712   0.168  -0.154  1.2502 -2.0173 -2.5743
    7CHTO   C21 2867   6.739   0.465  -0.291  0.6368 -0.4786  1.2365
    7CHTO   H49 2868   6.828   0.453  -0.352 -0.4026  1.5943 -0.7799
    7CHTO    N4 2869   6.610   0.460  -0.374 -0.4052 -0.3621 -0.4629
    7CHTO   H41 2870   6.530   0.452  -0.302  0.3926 -0.8742  0.3752
    7CHTO   H42 2871   6.594   0.547  -0.435  0.5668  0.6953  0.7486
    7CHTO   C22 2872   6.768   0.601  -0.225  0.0873  0.2144 -0.4954
    7CHTO   H50 2873   6.688   0.627  -0.155  0.9483 -0.7171  0.8656
    7CHTO   O14 2874   6.898   0.601  -0.158 -0.0661 -0.0243  0.3447
    7CHTO   C23 2875   6.908   0.507  -0.050  0.4742  0.9175 -0.1574
    7CHTO   H51 2876   6.841   0.541   0.031  1.0634  1.1002  0.2575
    7CHTO   C34 2877   7.038   0.519   0.025 -0.1861  0.1145  0.3784
    7CHTO   O23 2878   7.155   0.507  -0.061 -0.3896  0.1840  0.4720
    7CHTO   H38 2879   7.217   0.569  -0.029 -0.7268  0.6577  0.1993
    7CHTO   O16 2880   6.777   0.703  -0.321 -0.4490  0.1912 -0.6147
    7CHTO   C24 2881   6.775   0.864  -0.243  0.1257  0.4123  0.4480
    7CHTO   H52 2882   6.800   0.858  -0.137  1.3506  0.3195  0.1604
    7CHTO   C26 2883   6.629   0.919  -0.263  0.8846 -0.0914  0.4962
    7CHTO   H54 2884   6.593   0.901  -0.367  1.7681 -2.4734  0.5662
    7CHTO   O20 2885   6.544   0.851  -0.171 -0.0250  0.0148 -0.1174
    7CHTO   H36 2886   6.538   0.761  -0.197  1.1162 -0.2625  0.5035
    7CHTO   C30 2887   6.604   1.070  -0.240 -0.2540 -0.3353 -0.3453
    7CHTO   H58 2888   6.587   1.083  -0.132  1.4835 -1.4524  0.0770
    7CHTO    N6 2889   6.480   1.121  -0.288 -0.8417 -0.5572  0.1981
    7CHTO   H45 2890   6.403   1.096  -0.216 -0.8479  1.9747  1.1373
    7CHTO   H46 2891   6.455   1.082  -0.385 -1.3367 -1.0500  0.5220
    7CHTO   C33 2892   6.727   1.152  -0.295  0.4013  0.4189 -0.2932
    7CHTO   H61 2893   6.719   1.159  -0.404 -0.5237 -0.0962 -0.2632
    7CHTO   O18 2894   6.854   1.088  -0.262 -0.2737 -0.2584 -0.9230
    7CHTO   C28 2895   6.876   0.950  -0.308  0.6853 -0.5775 -0.9087
    7CHTO   H56 2896   6.849   0.950  -0.413 -1.6340 -0.7789 -0.3365
    7CHTO   C35 2897   7.022   0.907  -0.278 -0.2469 -0.0664 -0.3512
    7CHTO   O24 2898   7.107   1.001  -0.346 -0.0493  0.2629  0.3817
    7CHTO   H39 2899   7.162   0.955  -0.407  0.2453 -0.2285  1.0158
    7CHTO    O9 2900   6.729   1.293  -0.252 -0.2894  0.4061  0.2960
    7CHTO   C13 2901   6.880   1.359  -0.267  0.4011  0.1138 -0.5318
    7CHTO   H26 2902   6.939   1.300  -0.340 -0.0498 -1.1013  0.0696
    7CHTO   C11 2903   6.939   1.352  -0.126  0.4735 -0.2967  0.6214
    7CHTO   H24 2904   6.944   1.245  -0.098 -1.2472 -0.2293  1.2722
    7CHTO    O8 2905   6.860   1.404  -0.020 -0.0149  0.0266 -0.2148
    7CHTO    H3 2906   6.866   1.498  -0.021  0.4473  0.0001 -0.0479
    7CHTO    C9 2907   7.082   1.420  -0.133  0.1414  0.1721  0.1680
    7CHTO   H22 2908   7.137   1.375  -0.217 -0.2642  0.8625 -0.4763
    7CHTO    N2 2909   7.161   1.402  -0.013 -0.3811 -0.0732 -0.0800
    7CHTO   H10 2910   7.259   1.373  -0.046 -0.5932 -1.0351  0.1100
    7CHTO   H11 2911   7.114   1.334   0.057  0.2250  0.1661  0.5591
    7CHTO    C7 2912   7.059   1.574  -0.172 -0.1713 -0.4113 -0.3851
    7CHTO   H20 2913   7.161   1.618  -0.175 -0.8224  1.3085  1.3083
    7CHTO    O4 2914   6.998   1.575  -0.300  0.1146  0.3515 -0.2781
    7CHTO   C14 2915   6.872   1.506  -0.325  0.6034  0.1271  0.3181
    7CHTO   H27 2916   6.862   1.502  -0.435  0.0233 -0.2523  0.3818
    7CHTO   C18 2917   6.752   1.596  -0.279  0.4682 -0.3369 -1.0331
    7CHTO   O13 2918   6.736   1.703  -0.373  0.4263  0.8552  0.0981
    7CHTO    H7 2919   6.816   1.712  -0.420 -0.0767  0.5832 -0.8055
    7CHTO    O2 2920   6.970   1.660  -0.059  0.3854  0.2086 -0.5835
    7CHTO    C1 2921   7.043   1.748   0.027  0.0970 -0.2497 -0.0088
    7CHTO   H14 2922   7.153   1.736   0.014  0.2651  1.1976  0.0453
    7CHTO    C2 2923   7.011   1.735   0.180  0.8657 -0.5016 -0.7256
    7CHTO   H15 2924   6.902   1.746   0.190  0.9331 -0.4831  0.0367
    7CHTO    O6 2925   7.036   1.604   0.230 -0.5811  0.0938 -0.3585
    7CHTO    H1 2926   7.049   1.610   0.323 -0.4259  0.2853 -0.3905
    7CHTO    C3 2927   7.082   1.851   0.266 -0.4513  0.1963 -0.0216
    7CHTO   H16 2928   7.191   1.841   0.272 -0.4682  0.8680  1.7722
    7CHTO    N1 2929   7.030   1.858   0.411  0.6023 -0.1032  0.0386
    7CHTO    H8 2930   7.073   1.777   0.468 -1.7491  0.2813  2.4803
    7CHTO    H9 2931   7.053   1.953   0.457  1.6584 -0.2789 -0.1170
    7CHTO    C4 2932   7.056   1.989   0.195 -0.7157  0.1499 -0.4733
    7CHTO   H17 2933   6.956   2.024   0.217 -1.0331 -0.8804 -0.2465
    7CHTO    O1 2934   7.093   1.986   0.054 -0.2477 -0.1613  0.5151
    7CHTO    C5 2935   7.005   1.898  -0.014  0.1581 -0.3885 -0.0193
    7CHTO   H18 2936   6.902   1.920   0.013  0.8222  1.5158  1.0460
    7CHTO   C16 2937   7.026   1.935  -0.174  0.0675  0.4569  0.4901
    7CHTO   O11 2938   6.980   2.067  -0.203 -0.0021  0.4002  0.0147
    7CHTO    H5 2939   6.907   2.079  -0.146  0.6689  1.1261  0.7214
    7CHTO    O3 2940   7.145   2.085   0.256  0.2276  0.4681 -0.0411
    7CHTO    C6 2941   7.104   2.224   0.256 -0.3532  0.3424 -0.3299
    7CHTO   H19 2942   7.018   2.239   0.190 -0.9333 -1.5758 -0.0474
    7CHTO    C8 2943   7.087   2.262   0.404  0.1979  0.2716 -0.5042
    7CHTO   H21 2944   7.170   2.231   0.468 -1.2580 -0.1793  1.1753
    7CHTO    O7 2945   6.961   2.196   0.446 -0.5826  0.6060 -0.2546
    7CHTO    H2 2946   6.932   2.212   0.533 -1.9301 -0.4087 -0.5028
    7CHTO   C12 2947   7.075   2.419   0.423 -0.4836  0.3892 -0.3585
    7CHTO   H25 2948   6.980   2.458   0.382 -0.2409  0.4745 -0.8394
    7CHTO    N3 2949   7.078   2.458   0.568 -0.3892 -0.4959  1.0083
    7CHTO   H12 2950   7.002   2.530   0.592 -0.0943  1.0848 -2.5147
    7CHTO   H13 2951   7.171   2.497   0.607 -0.5835 -1.1340  2.1352
    7CHTO   C15 2952   7.190   2.501   0.348 -0.4231  0.9729 -0.4561
    7CHTO   H28 2953   7.281   2.491   0.408 -2.1734  0.3602  2.2126
    7CHTO   O10 2954   7.157   2.642   0.313 -0.8693  0.3812 -0.0170
    7CHTO    H4 2955   7.167   2.689   0.393  4.1318 -0.5284  0.0680
    7CHTO    O5 2956   7.203   2.451   0.217  0.2759  0.0601  0.4787
    7CHTO   C10 2957   7.221   2.309   0.197 -0.3776 -1.4323 -0.6612
    7CHTO   H23 2958   7.309   2.271   0.248 -0.1181  0.4922  0.3966
    7CHTO   C17 2959   7.234   2.304   0.043 -0.1716  0.5801  0.1754
    7CHTO   O12 2960   7.377   2.306   0.011 -0.5393  0.2664 -0.1639
    7CHTO    H6 2961   7.383   2.341  -0.075  2.0073  3.8617  1.3645
    8CHTO  H203 2962   6.941   7.900   2.026  0.7826  0.4665  0.2561
    8CHTO   O82 2963   6.879   7.936   2.087  0.5074  0.0104  0.2496
    8CHTO  C123 2964   6.776   8.005   2.023  0.2803 -0.4755 -0.4221
    8CHTO  H227 2965   6.737   7.943   1.941 -1.2327 -0.6312  0.3922
    8CHTO   O77 2966   6.674   8.003   2.124  0.1673  0.0494 -0.1650
    8CHTO  C118 2967   6.547   8.029   2.060  0.3221  0.1873  0.0201
    8CHTO  H222 2968   6.536   7.964   1.973 -0.6180 -0.4091  0.5817
    8CHTO  C125 2969   6.439   7.993   2.162  0.2898  0.7164 -0.3043
    8CHTO   O84 2970   6.436   7.846   2.180 -0.0488  0.3841 -0.0184
    8CHTO  H205 2971   6.351   7.813   2.160 -0.3849  1.2855 -0.0733
    8CHTO  C114 2972   6.537   8.176   2.020  0.0192  0.4517 -0.1753
    8CHTO  H218 2973   6.523   8.240   2.108  0.8820  0.4621 -0.0444
    8CHTO  C116 2974   6.666   8.229   1.947  0.2342 -0.4126  0.4466
    8CHTO  H220 2975   6.652   8.238   1.837  0.1900 -1.4495  0.3637
    8CHTO   O79 2976   6.681   8.369   1.979  0.4153  0.0684 -0.2758
    8CHTO  H201 2977   6.610   8.402   2.030  0.4015  0.1732 -0.3605
    8CHTO  C120 2978   6.802   8.156   1.982  0.5687 -0.4063  0.0767
    8CHTO  H224 2979   6.846   8.214   2.066  2.5161 -3.2186  1.0589
    8CHTO   N21 2980   6.901   8.156   1.871  0.7785 -0.5334  0.4700
    8CHTO  H211 2981   6.854   8.109   1.786 -0.1301  2.8962 -1.0480
    8CHTO  H212 2982   6.917   8.257   1.836  1.1785  0.7332  4.1159
    8CHTO   O75 2983   6.412   8.184   1.950 -0.7811 -0.8919 -0.1822
    8CHTO  C112 2984   6.348   8.334   1.944 -0.1289  0.4082 -0.3609
    8CHTO  H216 2985   6.427   8.408   1.960  0.0715 -0.0509  0.8833
    8CHTO   O73 2986   6.252   8.334   2.057  0.0451  0.0097  0.1050
    8CHTO  C113 2987   6.165   8.449   2.073 -0.0178  0.2863  0.7963
    8CHTO  H217 2988   6.231   8.538   2.084  1.8970 -0.8307 -1.1914
    8CHTO  C124 2989   6.089   8.428   2.209  0.3113 -0.2904 -0.3809
    8CHTO   O83 2990   5.987   8.527   2.237  0.2666 -0.2497 -0.1647
    8CHTO  H204 2991   5.905   8.487   2.254 -0.7140  1.6544 -0.2544
    8CHTO  C109 2992   6.082   8.464   1.939 -0.2733 -0.0312 -0.1205
    8CHTO  H213 2993   6.010   8.380   1.933 -0.7070  0.1845  1.7470
    8CHTO  C110 2994   6.174   8.469   1.814  0.1688  0.1832 -0.1312
    8CHTO  H214 2995   6.230   8.562   1.822  2.1068 -0.9800  0.1989
    8CHTO   O78 2996   6.098   8.483   1.691 -0.0867 -1.0549 -0.1108
    8CHTO  H200 2997   6.015   8.439   1.697  0.1352 -1.1543  3.3953
    8CHTO  C111 2998   6.272   8.354   1.803 -0.4485  0.5375 -0.5389
    8CHTO  H215 2999   6.214   8.264   1.778  3.4148 -1.5247 -2.4182
    8CHTO   N19 3000   6.382   8.366   1.700 -0.6257  0.3763  0.1630
    8CHTO  H207 3001   6.351   8.354   1.597 -0.3379 -1.8505  0.3178
    8CHTO  H208 3002   6.472   8.311   1.726 -1.9430 -2.4597 -1.0475
    8CHTO   O74 3003   6.007   8.586   1.950 -0.3379 -0.7923  0.6155
    8CHTO  C115 3004   5.848   8.571   1.944  0.2842  0.2281 -0.0349
    8CHTO  H219 3005   5.815   8.468   1.953 -0.2468  0.5280  1.7591
    8CHTO   O76 3006   5.779   8.644   2.061 -0.3248  0.7038  0.0799
    8CHTO  C122 3007   5.803   8.787   2.068  0.2146  0.3709 -0.1439
    8CHTO  H226 3008   5.912   8.796   2.074  0.2012 -0.5149  1.5905
    8CHTO  C126 3009   5.751   8.845   2.205  0.1392  0.0550  0.2116
    8CHTO   O85 3010   5.799   8.977   2.219 -0.2758  0.1607 -0.6042
    8CHTO  H206 3011   5.781   9.026   2.141  1.0206 -0.5084 -1.3341
    8CHTO  C121 3012   5.731   8.844   1.940 -0.3164 -0.0924  0.1952
    8CHTO  H225 3013   5.626   8.807   1.932 -0.9597  1.8805 -0.9096
    8CHTO   O81 3014   5.715   8.984   1.941 -0.0548  0.2272  0.2537
    8CHTO  H202 3015   5.632   9.014   1.974 -0.2617 -1.7097  1.5692
    8CHTO  C119 3016   5.813   8.788   1.813 -0.2527  0.5192  0.2226
    8CHTO  H223 3017   5.763   8.830   1.726  0.2031 -0.8891 -0.7360
    8CHTO  C117 3018   5.800   8.631   1.807 -0.5676 -0.4535 -0.1449
    8CHTO  H221 3019   5.865   8.578   1.737  1.2443  2.3485 -0.6569
    8CHTO   N20 3020   5.660   8.592   1.765  0.0011  0.6200  0.3888
    8CHTO  H209 3021   5.647   8.628   1.664  0.9313  2.6432  0.9710
    8CHTO  H210 3022   5.655   8.485   1.772  1.5384  0.5482  0.6926
    8CHTO   O80 3023   5.966   8.854   1.807  0.4770  0.6389 -0.2877
    8CHTO  C103 3024   5.978   9.000   1.777  0.4242 -0.3834  0.1239
    8CHTO  H190 3025   5.885   9.051   1.756  0.5632 -0.6362 -1.1657
    8CHTO  C101 3026   6.057   9.083   1.884  0.4603 -0.0130  0.3196
    8CHTO  H188 3027   6.149   9.033   1.916  1.5563  2.4213  1.0793
    8CHTO   O68 3028   5.977   9.096   2.013 -0.0013  0.3141  0.2542
    8CHTO  H168 3029   5.998   9.173   2.062 -0.7418  2.3638 -2.4980
    8CHTO   C99 3030   6.098   9.228   1.818  0.0548 -1.2615  0.0042
    8CHTO  H186 3031   6.003   9.281   1.794  0.4997  0.0735  1.1636
    8CHTO   N17 3032   6.179   9.318   1.905  0.0602 -0.1386  0.1808
    8CHTO  H174 3033   6.266   9.265   1.943  0.7250  0.3436 -0.6382
    8CHTO  H175 3034   6.211   9.401   1.843  0.3550  0.1893  0.7685
    8CHTO   C97 3035   6.169   9.203   1.683  0.4873 -0.5938  0.2412
    8CHTO  H184 3036   6.262   9.151   1.712  0.5393 -1.1803 -0.9536
    8CHTO   O64 3037   6.089   9.126   1.595 -0.0635 -0.1142 -0.3190
    8CHTO  C104 3038   6.061   8.996   1.644  0.1381 -0.0870 -0.3059
    8CHTO  H191 3039   6.158   8.950   1.665 -0.0223 -0.1506  0.3018
    8CHTO  C108 3040   6.001   8.913   1.532 -0.2630 -0.1829  0.8624
    8CHTO   O71 3041   5.880   8.968   1.483  0.4018  0.1433  0.1410
    8CHTO  H171 3042   5.813   8.955   1.548  0.0553 -0.7286 -0.3738
    8CHTO   O62 3043   6.202   9.323   1.616  0.3895  0.1468 -0.0397
    8CHTO   C91 3044   6.296   9.303   1.505  0.0685 -0.2197  0.0169
    8CHTO  H178 3045   6.352   9.210   1.520 -1.0661 -0.7668  0.9553
    8CHTO   C92 3046   6.408   9.416   1.508 -0.3137  0.2956  0.8553
    8CHTO  H179 3047   6.454   9.426   1.607  0.0602 -1.5363  0.8769
    8CHTO   O66 3048   6.513   9.379   1.416 -0.6539  0.3573 -0.2370
    8CHTO  H166 3049   6.512   9.439   1.344 -1.4828 -1.3689 -1.6819
    8CHTO   C93 3050   6.356   9.565   1.473  0.0060  0.7258  0.7234
    8CHTO  H180 3051   6.440   9.620   1.427 -0.3216 -0.7316 -1.7089
    8CHTO   N16 3052   6.318   9.651   1.587 -0.4643 -0.5356 -0.2288
    8CHTO  H172 3053   6.374   9.620   1.674 -2.8427  0.5624  1.7589
    8CHTO  H173 3054   6.339   9.752   1.556  1.4963 -1.3971 -1.8305
    8CHTO   C94 3055   6.238   9.557   1.368  1.0283  0.9924 -0.7005
    8CHTO  H181 3056   6.141   9.557   1.419  2.1765  0.1376  1.5334
    8CHTO   O61 3057   6.250   9.433   1.291 -0.0886  0.1680  0.4229
    8CHTO   C95 3058   6.227   9.308   1.360 -0.1470 -0.5335 -0.3079
    8CHTO  H182 3059   6.119   9.292   1.366 -0.3270  1.2341  1.7397
    8CHTO  C106 3060   6.274   9.193   1.267  0.5347 -0.6156  0.1962
    8CHTO   O69 3061   6.246   9.070   1.326  0.2129 -0.5190  0.2383
    8CHTO  H169 3062   6.321   9.034   1.370 -0.3492  0.4679  2.0434
    8CHTO   O63 3063   6.243   9.687   1.280 -0.1654 -0.2205  0.4212
    8CHTO   C96 3064   6.146   9.700   1.161 -0.5275 -0.1972  0.0857
    8CHTO  H183 3065   6.076   9.616   1.158  1.0041 -1.5595  1.3234
    8CHTO   C98 3066   6.212   9.689   1.021  0.2654  0.1100  0.2771
    8CHTO  H185 3067   6.297   9.759   1.012 -0.9904  1.4583 -1.4902
    8CHTO   O67 3068   6.257   9.555   1.010  0.0028  0.1567  0.2435
    8CHTO  H167 3069   6.350   9.546   1.004 -0.1283 -0.1529 -1.3845
    8CHTO  C102 3070   6.106   9.732   0.906 -0.2472  0.1096  0.7705
    8CHTO  H189 3071   6.036   9.649   0.892  1.5984 -1.3169 -0.1896
    8CHTO   N18 3072   6.180   9.757   0.777  0.6363 -0.2001 -0.4693
    8CHTO  H176 3073   6.155   9.698   0.690  0.8927  2.7026 -2.6051
    8CHTO  H177 3074   6.187   9.860   0.744 -1.5949 -0.3786 -1.5957
    8CHTO  C105 3075   6.022   9.856   0.944  0.3103  0.6930 -1.1749
    8CHTO  H192 3076   6.085   9.945   0.945  0.1792  0.8516 -3.4642
    8CHTO   O65 3077   5.971   9.850   1.076 -0.2427  0.0120 -0.3102
    8CHTO  C100 3078   6.060   9.830   1.188 -0.4149 -0.4342 -0.5047
    8CHTO  H187 3079   6.126   9.918   1.182  0.5052 -1.0644  0.2536
    8CHTO  C107 3080   5.976   9.821   1.322 -0.9862 -0.3338 -0.2677
    8CHTO   O70 3081   5.904   9.692   1.332 -0.3233 -0.0495 -0.5124
    8CHTO  H170 3082   5.826   9.696   1.384 -1.2312 -0.3126 -1.8296
    8CHTO   O57 3083   5.916   9.864   0.863 -0.1193  0.5443 -0.2447
    8CHTO   C85 3084   5.891   9.990   0.789  0.0670 -0.2800  0.6015
    8CHTO  H157 3085   5.984  10.014   0.733  0.0976  2.7719  1.8570
    8CHTO   C83 3086   5.870  10.115   0.881  0.4762  0.4593  0.2136
    8CHTO  H155 3087   5.959  10.127   0.943  1.1782 -1.0244 -0.4911
    8CHTO   O56 3088   5.767  10.100   0.982 -0.1706 -0.1213 -0.2773
    8CHTO  H135 3089   5.771  10.022   1.034 -0.9833 -0.2988 -0.4804
    8CHTO   C81 3090   5.846  10.240   0.793  0.5313 -0.4822 -0.1167
    8CHTO  H153 3091   5.928  10.249   0.722  0.5465  1.1591  0.1014
    8CHTO   N14 3092   5.840  10.369   0.866 -0.0280 -0.2587 -0.0889
    8CHTO  H141 3093   5.935  10.415   0.856 -0.0375 -0.6783 -2.2795
    8CHTO  H142 3094   5.815  10.356   0.970  1.0872  0.9310  0.3401
    8CHTO   C79 3095   5.713  10.220   0.708  0.1570 -0.4520 -0.1570
    8CHTO  H151 3096   5.704  10.307   0.643 -0.3105 -2.2327 -2.5190
    8CHTO   O52 3097   5.737  10.101   0.628  0.0798  0.5165  0.1978
    8CHTO   C86 3098   5.774   9.973   0.697  0.1309  0.0935  0.0726
    8CHTO  H158 3099   5.686   9.944   0.758  2.0732  0.5057  3.1819
    8CHTO   C90 3100   5.806   9.859   0.601 -0.5306 -0.0144 -0.0059
    8CHTO   O60 3101   5.676   9.838   0.534 -0.0907  0.1653 -0.1057
    8CHTO  H138 3102   5.673   9.885   0.453 -0.7159 -0.1932 -0.2958
    8CHTO   O50 3103   5.594  10.206   0.777  0.3709  0.5322  0.2239
    8CHTO   C73 3104   5.448  10.223   0.791  0.2411 -0.5216 -0.1511
    8CHTO  H145 3105   5.406  10.248   0.692  0.6463  0.3831 -0.1057
    8CHTO   C74 3106   5.431  10.336   0.896  0.2360  0.0960  0.2405
    8CHTO  H146 3107   5.485  10.423   0.855  0.9853  0.2876  1.6110
    8CHTO   O54 3108   5.294  10.372   0.901  0.3644 -0.0725  0.3995
    8CHTO  H133 3109   5.258  10.387   0.816 -0.9607  0.6867  1.0739
    8CHTO   C75 3110   5.494  10.289   1.031  0.1556  0.1186  0.0064
    8CHTO  H147 3111   5.600  10.265   1.016  0.4469  0.5914  1.2955
    8CHTO   N13 3112   5.496  10.402   1.126  0.1629 -0.3771  0.0215
    8CHTO  H139 3113   5.398  10.421   1.166 -0.5401 -2.6670 -0.5697
    8CHTO  H140 3114   5.532  10.490   1.075  0.3037  0.6221  1.8088
    8CHTO   C76 3115   5.422  10.160   1.083  0.0694 -0.7350  0.2960
    8CHTO  H148 3116   5.317  10.178   1.107  0.0866 -0.5020  0.2002
    8CHTO   O49 3117   5.427  10.058   0.975  0.1013  0.4490  0.3649
    8CHTO   C77 3118   5.382  10.088   0.842  0.4094 -0.8076 -0.3837
    8CHTO  H149 3119   5.273  10.095   0.834  0.4330 -1.1558 -1.0555
    8CHTO   C88 3120   5.426   9.978   0.753  0.5303  0.4062  0.2004
    8CHTO   O58 3121   5.423  10.018   0.585  0.2392 -0.2618 -0.3949
    8CHTO  H136 3122   5.342   9.986   0.549 -0.5367 -0.1763  1.2194
    8CHTO   O51 3123   5.507  10.105   1.206  0.0576 -0.3142  0.4358
    8CHTO   C78 3124   5.455   9.974   1.252  0.4851 -0.0787 -0.4056
    8CHTO  H150 3125   5.381   9.932   1.180 -0.8564  0.3208  0.7222
    8CHTO   C80 3126   5.388   9.985   1.390 -0.8270 -0.1354  0.0850
    8CHTO  H152 3127   5.458  10.031   1.464 -0.7766 -1.6757  1.0056
    8CHTO   O55 3128   5.279  10.071   1.364  0.9674 -0.1780 -0.4782
    8CHTO  H134 3129   5.251  10.125   1.435 -5.7869 -1.2900 -2.0052
    8CHTO   C84 3130   5.349   9.845   1.440 -0.0490  0.3149 -0.0213
    8CHTO  H156 3131   5.292   9.795   1.362 -3.2841  2.6778  0.6810
    8CHTO   N15 3132   5.263   9.843   1.560 -0.3556  0.1585  0.0278
    8CHTO  H143 3133   5.229   9.746   1.589 -0.9423 -0.2435 -1.9410
    8CHTO  H144 3134   5.317   9.888   1.641  1.6198 -0.0415 -1.1426
    8CHTO   C87 3135   5.484   9.763   1.461  0.8600 -0.5717  0.3761
    8CHTO  H159 3136   5.552   9.823   1.522  1.0684  0.4165 -0.8094
    8CHTO   O53 3137   5.531   9.750   1.310  0.1432  0.3251 -0.2946
    8CHTO   C82 3138   5.569   9.877   1.257 -0.4230 -0.1734  0.2317
    8CHTO  H154 3139   5.648   9.921   1.319 -0.6287 -1.4428  1.4135
    8CHTO   C89 3140   5.642   9.847   1.119 -0.2140 -0.1509 -0.2988
    8CHTO   O59 3141   5.578   9.757   1.027  0.7825 -0.0759 -0.5241
    8CHTO  H137 3142   5.577   9.672   1.067  2.1064  0.8588  1.5780
    8CHTO   O45 3143   5.473   9.609   1.522 -0.0173  0.0287  0.3174
    8CHTO   C67 3144   5.557   9.569   1.633  0.2024  0.3767 -0.1010
    8CHTO  H124 3145   5.533   9.464   1.651  1.4199  0.1403  0.2045
    8CHTO   C65 3146   5.714   9.578   1.603 -0.1967  0.0852 -0.1547
    8CHTO  H122 3147   5.724   9.659   1.530 -3.9881 -1.0799 -2.0835
    8CHTO   O44 3148   5.770   9.454   1.558 -0.5006  0.0496  0.3909
    8CHTO  H102 3149   5.750   9.440   1.467  2.8623  1.1598 -0.6047
    8CHTO   C63 3150   5.787   9.626   1.730 -0.2225  0.1465 -0.3345
    8CHTO  H120 3151   5.761   9.730   1.751  1.2753  0.4972 -0.1408
    8CHTO   N11 3152   5.941   9.627   1.727  0.6918  0.1600 -0.1666
    8CHTO  H108 3153   5.976   9.561   1.650  1.3140  2.3250 -1.7869
    8CHTO  H109 3154   5.973   9.724   1.697 -0.0143  0.1212 -1.0589
    8CHTO   C61 3155   5.724   9.549   1.856 -0.6000  0.4613  0.3218
    8CHTO  H118 3156   5.779   9.588   1.943  0.8622 -2.0741  0.5507
    8CHTO   O40 3157   5.589   9.588   1.869  0.3331 -0.1103  0.0840
    8CHTO   C68 3158   5.510   9.637   1.763 -0.1779 -0.9335 -0.0485
    8CHTO  H125 3159   5.512   9.748   1.755  0.0761 -0.9918 -0.8034
    8CHTO   C72 3160   5.370   9.601   1.812 -0.6453 -0.0252  0.2353
    8CHTO   O48 3161   5.333   9.670   1.935 -0.3879 -0.4901  1.0968
    8CHTO  H105 3162   5.398   9.677   2.002  0.1152 -0.3266  0.6016
    8CHTO   O38 3163   5.740   9.407   1.852 -0.3610 -0.0362 -0.5587
    8CHTO   C55 3164   5.666   9.316   1.940 -0.0235  0.0378  0.5140
    8CHTO  H112 3165   5.735   9.233   1.964  0.8564  0.5458 -0.2402
    8CHTO   C56 3166   5.538   9.263   1.866 -0.1182  0.0766 -0.2605
    8CHTO  H113 3167   5.485   9.341   1.809 -2.6736 -1.4336 -0.0328
    8CHTO   O42 3168   5.589   9.164   1.771 -0.4743  0.5384 -0.2199
    8CHTO  H100 3169   5.586   9.213   1.691 -2.2819  0.7846 -0.0360
    8CHTO   C57 3170   5.426   9.193   1.957 -0.0580 -0.5430 -0.0367
    8CHTO  H114 3171   5.441   9.085   1.969  0.3547 -0.2614  2.1893
    8CHTO   N10 3172   5.294   9.191   1.886  0.3678 -0.0724 -0.0697
    8CHTO  H106 3173   5.215   9.157   1.951 -1.0157  4.4559  0.8137
    8CHTO  H107 3174   5.261   9.281   1.836  0.8893 -0.3237 -0.8734
    8CHTO   C58 3175   5.420   9.264   2.100  1.0872  0.4691 -0.2753
    8CHTO  H115 3176   5.388   9.368   2.082  0.7695  0.4011 -0.1038
    8CHTO   O37 3177   5.555   9.272   2.150 -0.1432 -0.3341  0.0297
    8CHTO   C59 3178   5.635   9.373   2.085 -0.5965 -0.5575 -0.0399
    8CHTO  H116 3179   5.584   9.469   2.078 -0.5040 -0.5273 -0.2965
    8CHTO   C70 3180   5.760   9.387   2.170  0.7159 -0.1870  0.0188
    8CHTO   O46 3181   5.735   9.415   2.310 -0.1528  0.4094  0.4337
    8CHTO  H103 3182   5.719   9.507   2.319  2.9676  1.1068 -0.6349
    8CHTO   O39 3183   5.306   9.202   2.209  0.3543 -0.2446 -0.4938
    8CHTO   C60 3184   5.193   9.283   2.239  0.3457  0.0798  0.1490
    8CHTO  H117 3185   5.198   9.379   2.187  0.5401 -0.8339 -1.5617
    8CHTO   C62 3186   5.056   9.218   2.189  0.1864  0.4900 -0.2767
    8CHTO  H119 3187   5.079   9.202   2.082 -1.5508  0.2589 -0.6252
    8CHTO   O43 3188   5.031   9.095   2.254 -0.5554  0.1280 -0.2889
    8CHTO  H101 3189   4.939   9.079   2.250 -0.3640 -0.6597 -2.5977
    8CHTO   C66 3190   4.940   9.324   2.207  0.7935  0.5690 -0.7847
    8CHTO  H123 3191   4.961   9.406   2.139 -0.7528  1.8816  0.3046
    8CHTO   N12 3192   4.813   9.268   2.155 -0.2883 -0.2466 -0.5052
    8CHTO  H110 3193   4.740   9.249   2.232  0.0022 -0.3031 -0.2430
    8CHTO  H111 3194   4.767   9.337   2.085 -0.5489  0.0287 -0.0615
    8CHTO   C69 3195   4.928   9.372   2.352  0.0897 -0.3168 -0.1833
    8CHTO  H126 3196   4.902   9.278   2.405 -1.9701  0.4487  0.1696
    8CHTO   O41 3197   5.057   9.425   2.402  0.0017 -0.0007 -0.1331
    8CHTO   C64 3198   5.180   9.320   2.384 -0.1370  0.2919 -0.1085
    8CHTO  H121 3199   5.178   9.226   2.443  2.3724 -0.8300 -1.6942
    8CHTO   C71 3200   5.310   9.387   2.426  0.0781 -0.1486  0.3437
    8CHTO   O47 3201   5.301   9.426   2.566 -0.1583  0.6590  0.0738
    8CHTO  H104 3202   5.288   9.353   2.624 -1.0031  1.0393  0.3688
    8CHTO   O34 3203   4.812   9.482   2.371  0.3623 -0.4182 -0.1946
    8CHTO   C49 3204   4.790   9.632   2.351  0.4770 -0.1849  0.4944
    8CHTO   H91 3205   4.811   9.684   2.444 -0.5493  1.4398 -0.1684
    8CHTO   C47 3206   4.634   9.638   2.326 -0.2499 -0.6767 -0.3356
    8CHTO   H89 3207   4.608   9.745   2.338 -0.9835 -0.9043  0.1993
    8CHTO   O33 3208   4.565   9.565   2.423 -0.3721 -1.0925 -0.2649
    8CHTO   H70 3209   4.536   9.618   2.494 -0.4757 -1.3771 -0.0988
    8CHTO   C45 3210   4.593   9.589   2.180 -0.1190  0.3035 -0.9718
    8CHTO   H87 3211   4.622   9.484   2.171 -0.2361  0.3780 -2.2552
    8CHTO    N8 3212   4.447   9.600   2.151  0.1261  0.7032  0.4049
    8CHTO   H75 3213   4.425   9.537   2.066 -0.7441  0.4921  0.7823
    8CHTO   H76 3214   4.386   9.572   2.236  0.3427 -0.5669  0.1579
    8CHTO   C43 3215   4.677   9.666   2.070  0.1552  0.5969 -0.1072
    8CHTO   H85 3216   4.649   9.619   1.976 -1.2206  0.2162  0.4675
    8CHTO   O29 3217   4.821   9.658   2.100  0.1953  0.4795  0.4332
    8CHTO   C50 3218   4.871   9.691   2.233 -0.1866  0.2617 -0.4024
    8CHTO   H92 3219   4.976   9.659   2.244  0.0296  0.5943 -1.4144
    8CHTO   C54 3220   4.878   9.840   2.257 -0.3273 -0.1293 -0.0825
    8CHTO   O36 3221   4.963   9.915   2.168 -0.3495  0.5297 -0.0626
    8CHTO   H72 3222   5.006   9.850   2.116 -0.0972  2.6147 -2.5945
    8CHTO   O27 3223   4.655   9.807   2.053  0.0298 -0.5978  0.1656
    8CHTO   C37 3224   4.626   9.904   1.949  0.9052  0.5322 -0.1601
    8CHTO   H79 3225   4.590   9.837   1.869  2.5098 -1.4824  0.7656
    8CHTO   C38 3226   4.508   9.997   1.985 -0.3673  0.5031 -0.3401
    8CHTO   H80 3227   4.522  10.040   2.085  1.0526 -1.3694  0.2903
    8CHTO   O31 3228   4.394   9.919   2.006  0.4545 -0.1780 -0.0883
    8CHTO   H68 3229   4.382   9.886   2.093 -0.4910 -2.7350 -1.1341
    8CHTO   C39 3230   4.485  10.115   1.878 -0.2233 -0.0744 -0.2184
    8CHTO   H81 3231   4.443  10.069   1.788  2.3263 -2.1661 -0.4124
    8CHTO    N7 3232   4.389  10.217   1.919  0.5319 -0.0398 -0.0527
    8CHTO   H73 3233   4.380  10.295   1.845  1.7632  0.4530  0.2908
    8CHTO   H74 3234   4.409  10.256   2.018 -1.6122  0.4577  0.2179
    8CHTO   C40 3235   4.628  10.180   1.841  0.3999 -0.2584 -0.0611
    8CHTO   H82 3236   4.662  10.246   1.921  0.9314  1.0113 -1.3080
    8CHTO   O26 3237   4.729  10.083   1.803 -0.6695  0.3045 -0.4650
    8CHTO   C41 3238   4.755   9.987   1.907  0.4327  0.9701 -0.7037
    8CHTO   H83 3239   4.792  10.044   1.994 -2.1659  0.1081  1.0157
    8CHTO   C52 3240   4.866   9.902   1.858 -0.8814  0.4016 -0.4906
    8CHTO   O35 3241   4.998   9.980   1.842 -0.4744  0.7387 -0.3356
    8CHTO   H71 3242   5.015  10.003   1.753  2.6172  0.0009 -0.0119
    8CHTO   O28 3243   4.619  10.277   1.733 -0.1995  0.2546 -0.0396
    8CHTO   C42 3244   4.623  10.262   1.582  0.3116 -0.0902  0.2466
    8CHTO   H84 3245   4.615  10.368   1.554 -0.1927  0.2781  1.7142
    8CHTO   C44 3246   4.504  10.189   1.517  0.4912 -0.3557  0.2160
    8CHTO   H86 3247   4.499  10.089   1.559 -0.9926 -0.2106  0.3970
    8CHTO   O32 3248   4.386  10.246   1.561  0.4999 -0.7629 -0.3447
    8CHTO   H69 3249   4.327  10.180   1.592  1.3086 -1.5439 -0.4537
    8CHTO   C48 3250   4.510  10.181   1.351 -0.3323  0.4787 -0.5992
    8CHTO   H90 3251   4.501  10.283   1.311 -0.0582  0.5428 -0.4964
    8CHTO    N9 3252   4.399  10.096   1.298  0.5521  0.6502  0.0136
    8CHTO   H77 3253   4.331  10.158   1.241 -2.1569 -1.6526  0.6075
    8CHTO   H78 3254   4.345  10.047   1.377  1.6645 -1.2555 -0.3955
    8CHTO   C51 3255   4.660  10.144   1.303  0.2351 -0.3012  0.4980
    8CHTO   H93 3256   4.675  10.037   1.316  0.3418 -0.2787  0.5583
    8CHTO   O30 3257   4.761  10.217   1.365 -0.3983 -0.2349 -0.1366
    8CHTO   C46 3258   4.757  10.209   1.522 -0.6965  0.0290 -0.6371
    8CHTO   H88 3259   4.764  10.103   1.548 -1.0255  0.4067  1.0754
    8CHTO   C53 3260   4.883  10.277   1.581  0.3082  0.6109  0.6867
    8CHTO   O72 3261   4.875  10.412   1.539 -0.2174 -0.3224  0.0214
    8CHTO  H199 3262   4.833  10.459   1.608  0.0449  1.4892 -1.0071
    8CHTO   O22 3263   4.679  10.177   1.164  0.3868 -0.0690  1.2556
    8CHTO   C31 3264   4.757  10.091   1.075  0.4014 -0.7756  0.5299
    8CHTO   H59 3265   4.764  10.148   0.980  0.9026  1.1433  1.6976
    8CHTO   C29 3266   4.903  10.063   1.124  0.6837 -0.0640  0.1534
    8CHTO   H57 3267   4.878  10.015   1.219 -2.3782  0.8161 -0.1741
    8CHTO   O21 3268   4.973  10.188   1.144 -0.5284 -0.3409  0.2566
    8CHTO   H37 3269   4.919  10.255   1.181  0.9365  1.6646 -1.1628
    8CHTO   C27 3270   4.986   9.969   1.027  0.8804  0.0528  0.2164
    8CHTO   H55 3271   5.010  10.024   0.935  1.6337 -1.7000 -0.6637
    8CHTO    N5 3272   5.111   9.917   1.086  0.5711 -0.2962 -0.4324
    8CHTO   H43 3273   5.197   9.975   1.055  2.3102 -1.7210  1.5268
    8CHTO   H44 3274   5.104   9.901   1.193  2.6624  1.5258  0.0175
    8CHTO   C25 3275   4.896   9.846   0.986 -0.4513 -0.2108  0.0712
    8CHTO   H53 3276   4.883   9.773   1.067 -1.1702  0.4884  0.6005
    8CHTO   O17 3277   4.759   9.879   0.944 -0.5406 -0.0398 -0.2264
    8CHTO   C32 3278   4.686   9.951   1.042  0.2488 -0.6339 -0.7222
    8CHTO   H60 3279   4.668   9.898   1.135 -3.4435  0.3689 -0.7664
    8CHTO   C36 3280   4.544   9.968   0.977  0.4028  0.0200  0.1585
    8CHTO   O25 3281   4.514  10.107   0.954  0.1201  0.9708 -0.0326
    8CHTO   H40 3282   4.472  10.116   0.871  0.0244 -1.5382 -0.3008
    8CHTO   O15 3283   4.967   9.776   0.861 -0.5502  0.1467  0.0617
    8CHTO   C19 3284   4.995   9.761   0.720  0.0285 -0.3755  0.4677
    8CHTO   H47 3285   4.904   9.715   0.680  0.5262 -2.0671  1.2689
    8CHTO   C20 3286   5.026   9.889   0.637 -0.6011  0.1645 -0.0785
    8CHTO   H48 3287   5.102   9.948   0.690 -2.8035  1.2720  1.8723
    8CHTO   O19 3288   4.909   9.968   0.631 -0.2707  0.0729 -0.3709
    8CHTO   H35 3289   4.874   9.970   0.718  0.0755 -2.0855 -0.1387
    8CHTO   C21 3290   5.071   9.850   0.488 -0.1175 -0.1178  0.4827
    8CHTO   H49 3291   4.981   9.813   0.437 -0.1099  1.4650 -0.7177
    8CHTO    N4 3292   5.132   9.970   0.423  0.1679 -0.6205 -0.9665
    8CHTO   H41 3293   5.212  10.003   0.488 -0.7949  2.3648 -1.2063
    8CHTO   H42 3294   5.063  10.053   0.409 -0.9462 -1.3301  0.2320
    8CHTO   C22 3295   5.164   9.736   0.477 -0.5253 -0.3380  0.6930
    8CHTO   H50 3296   5.259   9.762   0.524 -0.4655  0.6156  0.0511
    8CHTO   O14 3297   5.096   9.632   0.554 -0.0603 -0.0319 -0.0803
    8CHTO   C23 3298   5.104   9.657   0.695  1.2178  0.0642 -0.0109
    8CHTO   H51 3299   5.204   9.693   0.722  2.1819 -1.7107 -1.1455
    8CHTO   C34 3300   5.098   9.517   0.773 -0.1983 -0.4719  0.0213
    8CHTO   O23 3301   4.977   9.445   0.747  0.1268  0.1509  0.3897
    8CHTO   H38 3302   4.982   9.367   0.799 -0.6842 -0.0552  0.1572
    8CHTO   O16 3303   5.179   9.671   0.347 -0.4778  0.3344  0.0754
    8CHTO   C24 3304   5.315   9.571   0.352  0.0845 -0.2806 -0.0542
    8CHTO   H52 3305   5.351   9.553   0.454  1.0307  1.1444 -0.1245
    8CHTO   C26 3306   5.421   9.645   0.267  0.2010 -0.8932 -0.0949
    8CHTO   H54 3307   5.369   9.685   0.177  0.3675 -1.4071 -0.4246
    8CHTO   O20 3308   5.457   9.767   0.329 -0.1450  0.1054 -0.5385
    8CHTO   H36 3309   5.416   9.843   0.292 -2.4160 -0.5008  0.6755
    8CHTO   C30 3310   5.544   9.557   0.233 -0.6298  0.6544 -0.5525
    8CHTO   H58 3311   5.609   9.540   0.321  0.1623 -1.5279 -1.5394
    8CHTO    N6 3312   5.633   9.617   0.128 -0.2885 -0.0057  0.7374
    8CHTO   H45 3313   5.585   9.627   0.032 -0.8693  0.9459  1.1230
    8CHTO   H46 3314   5.668   9.712   0.165  3.2506 -1.0222  0.2112
    8CHTO   C33 3315   5.500   9.414   0.198 -0.3131 -0.4254 -0.0512
    8CHTO   H61 3316   5.453   9.411   0.099 -0.9250 -1.4900  0.2659
    8CHTO   O18 3317   5.404   9.364   0.294 -0.4362  0.1941 -0.2479
    8CHTO   C28 3318   5.278   9.435   0.290  0.1423  0.1161  0.3577
    8CHTO   H56 3319   5.244   9.443   0.186 -0.4139 -2.8137  0.2916
    8CHTO   C35 3320   5.174   9.353   0.369  0.4685 -0.0035  0.0690
    8CHTO   O24 3321   5.214   9.330   0.503 -0.4341 -0.6614 -0.3837
    8CHTO   H39 3322   5.145   9.277   0.537 -1.8207  0.5856 -1.1909
    8CHTO    O9 3323   5.612   9.322   0.180  0.1138  0.7417 -0.3492
    8CHTO   C13 3324   5.576   9.175   0.120  0.1608 -0.6585 -0.2516
    8CHTO   H26 3325   5.490   9.167   0.050  0.5028 -0.9628 -0.6365
    8CHTO   C11 3326   5.565   9.069   0.241 -0.9825 -0.4905 -0.3996
    8CHTO   H24 3327   5.459   9.062   0.269 -1.4016  1.1870 -1.5042
    8CHTO    O8 3328   5.646   9.112   0.352 -0.3408  0.0204 -0.8847
    8CHTO    H3 3329   5.602   9.108   0.435 -1.5356 -2.4041 -1.5713
    8CHTO    C9 3330   5.620   8.927   0.197  0.2340 -0.4104 -0.5529
    8CHTO   H22 3331   5.556   8.905   0.110  1.7624 -0.5977 -1.6506
    8CHTO    N2 3332   5.580   8.815   0.286 -0.3266 -0.2676 -0.5296
    8CHTO   H10 3333   5.638   8.819   0.377 -2.2898  2.9283  0.6640
    8CHTO   H11 3334   5.586   8.716   0.243 -1.0429 -0.5708  0.0735
    8CHTO    C7 3335   5.769   8.937   0.161  0.2258  0.2229 -0.1859
    8CHTO   H20 3336   5.790   8.846   0.101  0.2035  0.2602 -0.2487
    8CHTO    O4 3337   5.801   9.060   0.088 -0.4619 -1.0090 -0.1892
    8CHTO   C14 3338   5.694   9.133   0.028 -0.0884  0.0124  0.6305
    8CHTO   H27 3339   5.653   9.064  -0.049 -2.2242 -0.6609  2.3227
    8CHTO   C18 3340   5.760   9.252  -0.041  0.1596  0.4531 -0.1877
    8CHTO   O13 3341   5.846   9.213  -0.151 -0.3408  0.1484 -0.3337
    8CHTO    H7 3342   5.860   9.287  -0.207  0.9557 -0.6036 -1.0365
    8CHTO    O2 3343   5.852   8.937   0.288  0.6781  0.1098  0.1742
    8CHTO    C1 3344   5.991   8.917   0.292  0.4413 -0.5009  0.3053
    8CHTO   H14 3345   6.027   8.932   0.396 -1.0711 -0.3291  0.8151
    8CHTO    C2 3346   6.077   9.014   0.200  0.3928  0.1777  0.0638
    8CHTO   H15 3347   6.041   8.990   0.099  0.6198 -1.3096  0.3224
    8CHTO    O6 3348   6.051   9.153   0.235 -0.3380  0.1928  0.3338
    8CHTO    H1 3349   6.056   9.161   0.329 -0.6073 -1.8438  0.5443
    8CHTO    C3 3350   6.232   8.980   0.200  0.2592 -0.7587  0.2146
    8CHTO   H16 3351   6.254   9.012   0.303 -0.5479  4.5038 -1.0750
    8CHTO    N1 3352   6.308   9.075   0.098 -0.3278 -0.6824 -0.0153
    8CHTO    H8 3353   6.407   9.034   0.084  0.5684  1.1250  0.9134
    8CHTO    H9 3354   6.318   9.177   0.131  1.1974 -0.9073  0.2705
    8CHTO    C4 3355   6.260   8.829   0.186 -0.1024 -0.5055 -0.1315
    8CHTO   H17 3356   6.262   8.803   0.080 -1.7493  1.4980 -0.6960
    8CHTO    O1 3357   6.165   8.747   0.251 -0.1536 -0.4820 -0.9416
    8CHTO    C5 3358   6.027   8.778   0.248  0.0316  0.2752 -0.3018
    8CHTO   H18 3359   5.982   8.759   0.151 -1.4419  3.0538 -0.2206
    8CHTO   C16 3360   5.967   8.675   0.341  0.4676  0.3721  0.0587
    8CHTO   O11 3361   5.963   8.541   0.287 -0.6922 -0.5012 -0.7184
    8CHTO    H5 3362   6.042   8.519   0.241 -0.8600 -0.7170 -0.9061
    8CHTO    O3 3363   6.387   8.799   0.246  0.6337 -0.3016  0.0636
    8CHTO    C6 3364   6.467   8.674   0.229  0.2686  0.7270  0.4787
    8CHTO   H19 3365   6.417   8.601   0.165 -1.2643  2.8211 -0.7780
    8CHTO    C8 3366   6.607   8.707   0.156  0.4639  0.0702  0.4379
    8CHTO   H21 3367   6.657   8.786   0.212  0.8367  0.5008 -0.4961
    8CHTO    O7 3368   6.575   8.766   0.025 -0.6493  0.1610 -0.5292
    8CHTO    H2 3369   6.514   8.835   0.040 -0.6579  0.5571 -2.2953
    8CHTO   C12 3370   6.702   8.582   0.154  0.4183 -0.0645  0.1364
    8CHTO   H25 3371   6.662   8.503   0.087 -0.5552 -0.7613  1.5211
    8CHTO    N3 3372   6.841   8.624   0.104  0.3403 -0.5872  0.7833
    8CHTO   H12 3373   6.869   8.721   0.144 -1.4178 -0.0119  0.6546
    8CHTO   H13 3374   6.922   8.553   0.112  1.8709  1.0309  0.2991
    8CHTO   C15 3375   6.714   8.516   0.298 -0.2397 -0.5687 -0.2475
    8CHTO   H28 3376   6.767   8.575   0.373 -1.4298  1.2006 -0.7530
    8CHTO   O10 3377   6.769   8.395   0.301 -0.3359 -0.0667  0.1406
    8CHTO    H4 3378   6.847   8.395   0.248 -1.2447 -0.0488 -1.2030
    8CHTO    O5 3379   6.579   8.482   0.341 -0.0056  0.1586  0.2522
    8CHTO   C10 3380   6.494   8.600   0.361 -0.2721 -0.3709 -0.2261
    8CHTO   H23 3381   6.552   8.650   0.438 -0.2056 -0.9496  0.1019
    8CHTO   C17 3382   6.360   8.553   0.421 -0.3302 -0.4143 -0.1155
    8CHTO   O12 3383   6.379   8.464   0.533 -0.5408  0.2481 -0.2614
    8CHTO    H6 3384   6.440   8.396   0.511  0.5007  1.0482  0.1238
    9CHTO  H203 3385   7.581   3.078   0.264 -0.0240  0.0969 -0.0325
    9CHTO   O82 3386   7.565   3.154   0.316  0.0416  0.1930 -0.1527
    9CHTO  C123 3387   7.652   3.251   0.257 -0.2796  0.5148  0.0054
    9CHTO  H227 3388   7.750   3.209   0.233 -0.0323  1.9880 -1.7140
    9CHTO   O77 3389   7.573   3.289   0.132 -0.1330  0.1589  0.1237
    9CHTO  C118 3390   7.661   3.376   0.055 -0.4859  0.2355  0.1403
    9CHTO  H222 3391   7.743   3.308   0.029 -0.1460  0.9457 -0.6186
    9CHTO  C125 3392   7.567   3.408  -0.071  0.2977 -0.0984  1.0318
    9CHTO   O84 3393   7.431   3.412  -0.033  0.5675  0.0415 -0.5416
    9CHTO  H205 3394   7.416   3.499  -0.002 -4.5313 -0.9117  0.0219
    9CHTO  C114 3395   7.699   3.514   0.126 -0.1043 -0.3563  0.4333
    9CHTO  H218 3396   7.613   3.581   0.126  1.0626  1.1656  0.6234
    9CHTO  C116 3397   7.747   3.490   0.275  0.7250  0.3427  0.4939
    9CHTO  H220 3398   7.852   3.455   0.264  0.7386 -0.0628  1.8223
    9CHTO   O79 3399   7.744   3.611   0.351  0.1187  0.7070 -0.0725
    9CHTO  H201 3400   7.813   3.670   0.326  0.5421  0.5332  0.6509
    9CHTO  C120 3401   7.663   3.378   0.350  0.0570  0.3404 -0.5766
    9CHTO  H224 3402   7.562   3.422   0.365 -0.7918 -1.9064  0.5315
    9CHTO   N21 3403   7.724   3.350   0.480 -0.1199  0.2743  0.8242
    9CHTO  H211 3404   7.828   3.321   0.469 -0.6966 -1.5400 -0.1963
    9CHTO  H212 3405   7.700   3.421   0.557 -0.8326  1.9348 -0.8834
    9CHTO   O75 3406   7.804   3.566   0.044 -0.1572  1.2576  0.4897
    9CHTO  C112 3407   7.770   3.725  -0.007  0.0276 -0.6284 -0.4419
    9CHTO  H216 3408   7.765   3.792   0.080 -0.6153  1.9825 -2.4180
    9CHTO   O73 3409   7.646   3.725  -0.086 -0.6807 -0.1674  0.4249
    9CHTO  C113 3410   7.607   3.862  -0.115  0.3961 -0.2047  0.1934
    9CHTO  H217 3411   7.578   3.908  -0.018  0.9967 -0.5322  0.5298
    9CHTO  C124 3412   7.475   3.869  -0.198  0.3495  0.5703  0.8205
    9CHTO   O83 3413   7.373   3.768  -0.172  0.2806  0.1881  0.1094
    9CHTO  H204 3414   7.364   3.716  -0.250 -0.2228  0.8950 -0.3132
    9CHTO  C109 3415   7.709   3.949  -0.185 -0.7566  0.5599 -0.0462
    9CHTO  H213 3416   7.713   3.922  -0.292  2.5629  0.5367  0.0356
    9CHTO  C110 3417   7.855   3.930  -0.121 -0.2083 -0.8695  0.7305
    9CHTO  H214 3418   7.855   3.992  -0.032 -0.5471 -0.2656  0.3173
    9CHTO   O78 3419   7.948   3.990  -0.207  0.2944 -0.1989  0.1107
    9CHTO  H200 3420   7.979   3.932  -0.274  1.3708 -0.1329  0.5263
    9CHTO  C111 3421   7.880   3.780  -0.099 -0.3384 -0.5056 -0.1806
    9CHTO  H215 3422   7.878   3.728  -0.195  1.8949 -1.0041  0.0066
    9CHTO   N19 3423   8.015   3.751  -0.038  0.0642 -0.5398  0.2681
    9CHTO  H207 3424   8.032   3.644  -0.043  0.8209 -0.4326  0.4990
    9CHTO  H208 3425   8.079   3.804  -0.107 -2.7820  1.7981 -0.6975
    9CHTO   O74 3426   7.673   4.087  -0.176  0.1286  0.2354  0.1953
    9CHTO  C115 3427   7.721   4.188  -0.288 -0.0762 -0.1413  0.4021
    9CHTO  H219 3428   7.828   4.206  -0.285  0.0174  0.1288 -2.7592
    9CHTO   O76 3429   7.703   4.117  -0.447  0.2371  0.3317 -0.8059
    9CHTO  C122 3430   7.578   4.129  -0.514  0.4508 -0.7986 -0.0302
    9CHTO  H226 3431   7.516   4.048  -0.476 -1.4699 -0.1232 -1.5953
    9CHTO  C126 3432   7.613   4.093  -0.663  0.4979  0.6355 -0.0296
    9CHTO   O85 3433   7.715   4.171  -0.722  0.2591 -0.0799  0.4338
    9CHTO  H206 3434   7.679   4.212  -0.798 -0.3194 -0.4608  0.4933
    9CHTO  C121 3435   7.513   4.276  -0.503  0.0892 -0.3134 -0.3737
    9CHTO  H225 3436   7.580   4.351  -0.550 -0.2121  1.1417  1.5054
    9CHTO   O81 3437   7.382   4.285  -0.566  0.0953 -0.7883  0.0945
    9CHTO  H202 3438   7.344   4.370  -0.580  0.1737 -0.6929  0.4661
    9CHTO  C119 3439   7.495   4.306  -0.360 -0.3073 -0.4932 -0.3729
    9CHTO  H223 3440   7.448   4.404  -0.355 -0.0212 -0.2508 -2.2733
    9CHTO  C117 3441   7.637   4.323  -0.283  0.0236 -0.3053 -0.6378
    9CHTO  H221 3442   7.630   4.341  -0.175 -0.4050  0.9104 -0.8608
    9CHTO   N20 3443   7.722   4.433  -0.334 -0.2620 -0.3002  0.4294
    9CHTO  H209 3444   7.707   4.520  -0.273  3.5697  1.4545 -1.0057
    9CHTO  H210 3445   7.697   4.458  -0.436 -0.5913  0.7104  0.7521
    9CHTO   O80 3446   7.379   4.204  -0.281  0.1835 -0.1002 -0.3249
    9CHTO  C103 3447   7.298   4.256  -0.161 -0.1270 -0.2401  0.4937
    9CHTO  H190 3448   7.264   4.169  -0.105 -1.3105  0.0831  0.2911
    9CHTO  C101 3449   7.364   4.357  -0.062 -0.2936 -0.7038 -0.3701
    9CHTO  H188 3450   7.381   4.446  -0.122 -0.5548 -1.6580 -1.8932
    9CHTO   O68 3451   7.491   4.303   0.009 -0.4559  0.7076 -0.2807
    9CHTO  H168 3452   7.488   4.215   0.042  1.9898  0.7344  0.0635
    9CHTO   C99 3453   7.254   4.410   0.044 -0.3460 -0.0258 -0.4393
    9CHTO  H186 3454   7.229   4.327   0.113  0.7840 -0.5508 -0.6502
    9CHTO   N17 3455   7.313   4.518   0.128 -0.3509  0.2705 -0.4873
    9CHTO  H174 3456   7.236   4.542   0.200 -0.3014  0.7284 -0.5842
    9CHTO  H175 3457   7.392   4.474   0.187 -1.5283 -2.4491 -0.8899
    9CHTO   C97 3458   7.125   4.461  -0.032 -0.4398 -0.0656  0.3723
    9CHTO  H184 3459   7.151   4.553  -0.086  1.4970 -1.0283 -0.4052
    9CHTO   O64 3460   7.073   4.365  -0.124  0.1496 -0.1607 -0.3990
    9CHTO  C104 3461   7.162   4.322  -0.229  0.2283  0.1547  0.7561
    9CHTO  H191 3462   7.192   4.406  -0.291  0.2201  1.0197  1.8935
    9CHTO  C108 3463   7.088   4.229  -0.324 -0.4287  1.0104 -0.2253
    9CHTO   O71 3464   6.950   4.259  -0.328 -0.0891  0.0825 -0.3217
    9CHTO  H171 3465   6.911   4.226  -0.406 -3.0948 -1.8906  1.8744
    9CHTO   O62 3466   7.016   4.481   0.062  1.3791 -0.5854 -0.0938
    9CHTO   C91 3467   6.911   4.558  -0.000  0.2542 -0.4946 -0.1083
    9CHTO  H178 3468   6.945   4.584  -0.100 -1.8813  2.0368 -0.2200
    9CHTO   C92 3469   6.908   4.695   0.076 -0.2457 -0.8873  0.6232
    9CHTO  H179 3470   7.012   4.728   0.093  0.5257 -1.4678 -2.6186
    9CHTO   O66 3471   6.860   4.794  -0.007 -0.1646  0.2862  0.2984
    9CHTO  H166 3472   6.779   4.772  -0.047  0.8391  0.1972 -1.7464
    9CHTO   C93 3473   6.818   4.681   0.212 -0.3475 -0.5941  1.1159
    9CHTO  H180 3474   6.811   4.783   0.253 -1.1790 -1.0205  2.0650
    9CHTO   N16 3475   6.866   4.609   0.330 -0.0852  0.2119 -0.1164
    9CHTO  H172 3476   6.972   4.590   0.336 -0.5842 -2.8949 -0.0339
    9CHTO  H173 3477   6.810   4.517   0.343 -0.6120  0.3441 -1.4501
    9CHTO   C94 3478   6.672   4.636   0.173  0.0993  0.2630  0.3416
    9CHTO  H181 3479   6.628   4.558   0.235 -2.7373  1.4276 -0.1242
    9CHTO   O61 3480   6.666   4.583   0.039 -0.1885  0.2486  0.1257
    9CHTO   C95 3481   6.769   4.492  -0.000 -0.3575  0.4838  0.2315
    9CHTO  H182 3482   6.770   4.404   0.064  0.3426  0.7243  0.5552
    9CHTO  C106 3483   6.730   4.439  -0.136  0.4766 -0.2246 -0.3540
    9CHTO   O69 3484   6.627   4.341  -0.124 -0.4864 -0.2519  0.2291
    9CHTO  H169 3485   6.609   4.304  -0.208 -0.3826  0.8989 -0.3069
    9CHTO   O63 3486   6.585   4.774   0.172 -0.1572 -0.5350  0.3470
    9CHTO   C96 3487   6.470   4.777   0.287  0.1967  0.0077 -0.2165
    9CHTO  H183 3488   6.476   4.687   0.347 -1.0750 -1.6598 -2.5231
    9CHTO   C98 3489   6.324   4.773   0.230  0.1130  0.5834 -1.0499
    9CHTO  H185 3490   6.312   4.853   0.155 -1.9181  1.8111  0.5254
    9CHTO   O67 3491   6.309   4.647   0.165 -0.4125  0.4213  0.1713
    9CHTO  H167 3492   6.322   4.565   0.210  1.1040  0.4125 -0.2571
    9CHTO  C102 3493   6.216   4.800   0.346 -0.1867 -0.6822  0.1593
    9CHTO  H189 3494   6.228   4.711   0.410  0.7393  0.2249  1.2887
    9CHTO   N18 3495   6.069   4.807   0.305 -0.5220  0.7136  0.0285
    9CHTO  H176 3496   6.015   4.834   0.394 -0.5922  0.5002  0.0499
    9CHTO  H177 3497   6.068   4.888   0.233  2.0314  1.5807  0.9129
    9CHTO  C105 3498   6.263   4.930   0.419 -0.6643  0.1678 -0.3229
    9CHTO  H192 3499   6.255   5.013   0.349 -2.5265  0.1939 -0.0983
    9CHTO   O65 3500   6.399   4.929   0.467  0.3198  0.1700  0.1186
    9CHTO  C100 3501   6.504   4.904   0.371  0.2393  0.6313  0.2592
    9CHTO  H187 3502   6.516   4.976   0.289  0.1774 -0.1196 -0.4112
    9CHTO  C107 3503   6.631   4.894   0.435  0.0577  0.7734 -0.2296
    9CHTO   O70 3504   6.630   4.794   0.542 -0.4568 -0.2432 -0.1225
    9CHTO  H170 3505   6.608   4.711   0.503  0.1896 -0.3965 -0.1601
    9CHTO   O57 3506   6.162   4.958   0.557 -0.0756  0.0627 -0.1074
    9CHTO   C85 3507   6.123   5.093   0.584 -0.3253  0.5173  0.4237
    9CHTO  H157 3508   6.084   5.122   0.484  0.9341  0.8310  0.0219
    9CHTO   C83 3509   6.250   5.176   0.607  0.2048 -0.1519  0.7634
    9CHTO  H155 3510   6.306   5.193   0.515  0.5291  0.6222  1.0983
    9CHTO   O56 3511   6.332   5.103   0.702  0.0264 -0.3711 -0.1381
    9CHTO  H135 3512   6.378   5.040   0.652 -0.0340  0.5410 -1.3633
    9CHTO   C81 3513   6.208   5.314   0.665  0.1246 -0.3797 -0.1605
    9CHTO  H153 3514   6.142   5.361   0.592  1.1841 -1.2474 -1.7042
    9CHTO   N14 3515   6.312   5.420   0.686  0.0998  0.1844  0.3702
    9CHTO  H141 3516   6.259   5.502   0.729 -0.3849 -0.1141  0.3466
    9CHTO  H142 3517   6.362   5.455   0.598  0.0128  0.0228  0.2569
    9CHTO   C79 3518   6.129   5.296   0.807 -0.4435 -0.0458 -1.2045
    9CHTO  H151 3519   6.101   5.395   0.842  0.2985  0.6805 -2.5951
    9CHTO   O52 3520   6.003   5.237   0.768  0.7964  0.0966  0.1675
    9CHTO   C86 3521   6.005   5.107   0.695 -0.1316 -0.5739 -0.3056
    9CHTO  H158 3522   6.023   5.028   0.772 -0.1546 -2.0091 -1.7443
    9CHTO   C90 3523   5.860   5.077   0.646  0.4751 -0.4977 -0.6285
    9CHTO   O60 3524   5.827   4.935   0.643  0.7861  0.2200 -0.2984
    9CHTO  H138 3525   5.744   4.948   0.601  0.3575 -0.0472  0.4403
    9CHTO   O50 3526   6.201   5.221   0.902 -0.1431 -0.5788  0.2654
    9CHTO   C73 3527   6.200   5.196   1.044 -0.1435 -0.5640 -0.7627
    9CHTO  H145 3528   6.096   5.180   1.077 -0.5516  2.3407 -0.5183
    9CHTO   C74 3529   6.247   5.317   1.130 -0.7141 -0.8085  0.1315
    9CHTO  H146 3530   6.181   5.400   1.102  0.4637 -0.1516 -0.7141
    9CHTO   O54 3531   6.227   5.273   1.267 -0.5036 -0.0520 -0.0770
    9CHTO  H133 3532   6.203   5.346   1.320  1.2609  1.1772 -0.9173
    9CHTO   C75 3533   6.393   5.351   1.104  0.7839 -0.0462  0.1214
    9CHTO  H147 3534   6.407   5.409   1.012  1.6939  3.1387  2.1776
    9CHTO   N13 3535   6.454   5.447   1.192  0.2117 -0.3859  0.4160
    9CHTO  H139 3536   6.544   5.492   1.151 -2.4946  2.0922 -3.0951
    9CHTO  H140 3537   6.393   5.536   1.206 -1.8433 -1.7038  0.0401
    9CHTO   C76 3538   6.485   5.215   1.101  0.7882  0.4502  0.1884
    9CHTO  H148 3539   6.503   5.169   1.198 -0.4384  0.1275  0.2706
    9CHTO   O49 3540   6.416   5.102   1.023 -0.2798  0.5517 -0.2060
    9CHTO   C77 3541   6.293   5.076   1.068 -0.3614 -0.1425 -0.4756
    9CHTO  H149 3542   6.292   5.053   1.175  1.4140 -0.1869 -0.4627
    9CHTO   C88 3543   6.259   4.946   0.999 -0.4781 -0.3486  0.0039
    9CHTO   O58 3544   6.355   4.822   1.068 -0.0397 -0.3186 -0.2068
    9CHTO  H136 3545   6.435   4.866   1.088 -0.8855 -0.0157  2.6715
    9CHTO   O51 3546   6.606   5.231   1.028  0.5528  0.0113 -0.0011
    9CHTO   C78 3547   6.725   5.115   1.063  0.1378  0.2424 -0.0775
    9CHTO  H150 3548   6.675   5.025   1.105  1.3685 -0.6136 -0.4248
    9CHTO   C80 3549   6.827   5.166   1.167  0.1034 -0.6130  0.7449
    9CHTO  H152 3550   6.866   5.262   1.128  1.9979 -2.0047 -0.8254
    9CHTO   O55 3551   6.747   5.178   1.282  0.0303  0.0916  0.1518
    9CHTO  H134 3552   6.775   5.231   1.355  2.5423 -0.6324 -0.2398
    9CHTO   C84 3553   6.944   5.066   1.194 -0.1128 -0.3293 -0.3039
    9CHTO  H156 3554   6.897   4.986   1.250  0.5332  0.7052  1.7842
    9CHTO   N15 3555   7.055   5.111   1.287  0.3439  0.2669 -0.4938
    9CHTO  H143 3556   7.100   5.030   1.340 -0.4600  0.1647  0.0413
    9CHTO  H144 3557   7.029   5.194   1.349  0.4594  1.5113 -2.0757
    9CHTO   C87 3558   7.007   5.014   1.065  0.3769 -0.0689  0.1672
    9CHTO  H159 3559   7.068   5.091   1.019 -1.1998  0.2411 -1.4999
    9CHTO   O53 3560   6.898   4.979   0.957  0.2503 -0.4390 -1.0831
    9CHTO   C82 3561   6.801   5.081   0.931 -0.5536  0.2362  0.4427
    9CHTO  H154 3562   6.849   5.170   0.891 -1.3352  0.4102 -0.1104
    9CHTO   C89 3563   6.696   5.032   0.816 -0.1123  0.0536  0.1929
    9CHTO   O59 3564   6.630   4.907   0.845 -0.2295 -0.0054  0.2253
    9CHTO  H137 3565   6.692   4.846   0.880 -0.5467 -0.4294  0.0564
    9CHTO   O45 3566   7.077   4.864   1.098  0.4363  0.0929  0.4278
    9CHTO   C67 3567   7.208   4.860   1.038 -0.9499 -0.1006 -0.1392
    9CHTO  H124 3568   7.255   4.956   1.017 -0.1289  0.5397  4.2795
    9CHTO   C65 3569   7.298   4.783   1.132  0.2370  0.3674 -0.2486
    9CHTO  H122 3570   7.274   4.829   1.227  0.3797 -1.9605  0.9544
    9CHTO   O44 3571   7.438   4.816   1.100 -0.2784 -1.2840 -0.1302
    9CHTO  H102 3572   7.467   4.783   1.018 -0.2030  0.4461 -0.8208
    9CHTO   C63 3573   7.252   4.628   1.148 -0.3133  0.1074 -0.1505
    9CHTO  H120 3574   7.147   4.619   1.178 -0.9886  3.2343 -1.3667
    9CHTO   N11 3575   7.323   4.554   1.260 -0.1268 -0.2714  0.7487
    9CHTO  H108 3576   7.339   4.454   1.227 -0.2169 -0.8204  2.3379
    9CHTO  H109 3577   7.266   4.562   1.350  1.6538 -0.3484  1.9034
    9CHTO   C61 3578   7.257   4.558   1.006  0.7486  0.6984  0.0188
    9CHTO  H118 3579   7.200   4.464   1.008  1.9275 -0.0656 -1.6681
    9CHTO   O40 3580   7.187   4.648   0.910  0.5269  0.2407 -0.2752
    9CHTO   C68 3581   7.202   4.787   0.901  0.2039  0.1495 -0.2799
    9CHTO  H125 3582   7.115   4.820   0.841 -0.4628  1.5838  1.4581
    9CHTO   C72 3583   7.326   4.812   0.814 -0.3820  0.1617  0.3535
    9CHTO   O48 3584   7.318   4.782   0.676 -0.2179 -0.0474  0.7421
    9CHTO  H105 3585   7.407   4.765   0.651 -0.0496 -0.1070  1.3648
    9CHTO   O38 3586   7.391   4.520   0.951 -0.6964 -0.2176  0.3502
    9CHTO   C55 3587   7.412   4.400   0.870  0.4652 -0.4722  0.4662
    9CHTO  H112 3588   7.331   4.398   0.796  0.7230  1.6426  0.1161
    9CHTO   C56 3589   7.413   4.265   0.954  0.1767 -0.0271  0.3489
    9CHTO  H113 3590   7.480   4.287   1.038 -0.7945  2.7667  0.4486
    9CHTO   O42 3591   7.284   4.238   1.010 -0.6476 -0.0610 -0.4774
    9CHTO  H100 3592   7.293   4.177   1.081 -0.3868  0.4320 -0.0806
    9CHTO   C57 3593   7.478   4.137   0.884  0.5126 -0.0627 -0.5815
    9CHTO  H114 3594   7.411   4.102   0.806  1.7821  0.8514 -2.0954
    9CHTO   N10 3595   7.499   4.024   0.977 -0.1298 -0.5225  0.6128
    9CHTO  H106 3596   7.565   3.948   0.939 -1.4303 -1.7719  0.7807
    9CHTO  H107 3597   7.407   3.976   1.009 -0.6015 -0.1363 -0.1315
    9CHTO   C58 3598   7.606   4.178   0.817  0.2644 -0.0413  0.5368
    9CHTO  H115 3599   7.675   4.217   0.894  0.8961  0.4052 -0.2555
    9CHTO   O37 3600   7.571   4.275   0.721  0.2356 -0.3701  0.0861
    9CHTO   C59 3601   7.536   4.407   0.769 -0.0410  0.0711 -0.0383
    9CHTO  H116 3602   7.621   4.457   0.816  0.6684  0.8565 -2.0816
    9CHTO   C70 3603   7.479   4.496   0.658 -0.3144 -0.6229  1.0261
    9CHTO   O46 3604   7.583   4.516   0.564  0.3013 -0.0605  0.3942
    9CHTO  H103 3605   7.560   4.548   0.479  1.1084 -0.7074 -0.0623
    9CHTO   O39 3606   7.689   4.049   0.719 -0.4098  0.1611 -0.2304
    9CHTO   C60 3607   7.596   3.995   0.620  0.7697 -0.3635  0.0912
    9CHTO  H117 3608   7.493   4.002   0.654  0.6327  2.1761 -0.7533
    9CHTO   C62 3609   7.617   4.066   0.485  0.3411  0.4040  0.0897
    9CHTO  H119 3610   7.600   4.173   0.505 -0.4301 -0.0664  2.0651
    9CHTO   O43 3611   7.753   4.053   0.448 -0.6072  0.1488 -0.4206
    9CHTO  H101 3612   7.789   4.128   0.404  1.2983 -0.2504  0.4152
    9CHTO   C66 3613   7.510   4.004   0.377  0.5133  0.0816 -0.1091
    9CHTO  H123 3614   7.409   4.029   0.408  0.3779 -0.1909 -0.3372
    9CHTO   N12 3615   7.524   4.059   0.241 -0.1736 -0.4148 -0.4114
    9CHTO  H110 3616   7.505   4.165   0.253 -1.4562 -0.7644  0.8292
    9CHTO  H111 3617   7.624   4.038   0.206  0.1429  1.8196 -0.9258
    9CHTO   C69 3618   7.512   3.847   0.360  0.1119  0.7063 -0.9451
    9CHTO  H126 3619   7.603   3.813   0.307  0.8889 -1.0032  1.3935
    9CHTO   O41 3620   7.516   3.773   0.480 -0.3696  0.0353  0.1445
    9CHTO   C64 3621   7.624   3.842   0.602  0.0795  0.3549  0.0962
    9CHTO  H121 3622   7.730   3.840   0.567  0.1066  0.4872  0.1714
    9CHTO   C71 3623   7.605   3.762   0.729  0.9063  0.3151 -1.0872
    9CHTO   O47 3624   7.610   3.616   0.715  0.3985 -0.4668 -0.6995
    9CHTO  H104 3625   7.693   3.602   0.671  0.6287 -1.2887 -0.0134
    9CHTO   O34 3626   7.398   3.799   0.272 -0.3815 -0.6579  0.3383
    9CHTO   C49 3627   7.306   3.704   0.226  0.4005 -0.0066  0.6408
    9CHTO   H91 3628   7.348   3.657   0.137 -1.8415 -1.5566  0.3664
    9CHTO   C47 3629   7.169   3.763   0.184 -0.8807  0.3422 -0.2482
    9CHTO   H89 3630   7.103   3.681   0.147  0.6246 -0.7967 -0.4765
    9CHTO   O33 3631   7.175   3.863   0.084  0.6469  0.0991  0.1767
    9CHTO   H70 3632   7.087   3.885   0.060  0.0445 -1.7134  0.7070
    9CHTO   C45 3633   7.108   3.829   0.316 -0.5779  0.0275  0.2737
    9CHTO   H87 3634   7.155   3.928   0.327 -0.1730 -0.3307  1.8479
    9CHTO    N8 3635   6.958   3.843   0.294 -0.0609  0.0984  0.1524
    9CHTO   H75 3636   6.910   3.754   0.257  0.6999 -0.4035  0.3419
    9CHTO   H76 3637   6.902   3.901   0.366 -0.5200 -0.1066 -0.0415
    9CHTO   C43 3638   7.148   3.742   0.453  0.2146  0.1933  0.4671
    9CHTO   H85 3639   7.237   3.792   0.492 -1.4569  3.4993  0.2653
    9CHTO   O29 3640   7.173   3.606   0.416  0.3678  0.4359 -0.0605
    9CHTO   C50 3641   7.281   3.592   0.321 -0.0245 -0.0481 -0.6716
    9CHTO   H92 3642   7.368   3.575   0.385 -0.0842  0.8304 -0.3609
    9CHTO   C54 3643   7.263   3.461   0.246 -0.1953 -0.2780  0.3828
    9CHTO   O36 3644   7.258   3.347   0.338  0.1111 -0.9246 -0.4748
    9CHTO   H72 3645   7.185   3.295   0.310  0.3836 -2.8439  2.2249
    9CHTO   O27 3646   7.057   3.746   0.570 -0.5066 -0.1207 -0.2614
    9CHTO   C37 3647   7.078   3.724   0.707  0.8997 -0.2365  0.4165
    9CHTO   H79 3648   6.978   3.702   0.746  0.4759  3.2469  1.4908
    9CHTO   C38 3649   7.160   3.599   0.736  0.4365  0.0458 -0.5161
    9CHTO   H80 3650   7.259   3.603   0.689 -0.3288  1.6037 -2.0266
    9CHTO   O31 3651   7.090   3.484   0.683  0.4347  0.1808  0.3304
    9CHTO   H68 3652   7.126   3.406   0.719  0.3460  0.9598  2.1498
    9CHTO   C39 3653   7.182   3.575   0.891  0.0877  0.0199  0.5362
    9CHTO   H81 3654   7.084   3.548   0.930 -0.7063  0.6199 -0.9994
    9CHTO    N7 3655   7.282   3.458   0.914 -0.8543 -0.1497 -0.3765
    9CHTO   H73 3656   7.283   3.430   1.018  1.2926 -0.6356 -0.4971
    9CHTO   H74 3657   7.377   3.493   0.875 -0.6402  0.4330  0.6779
    9CHTO   C40 3658   7.221   3.714   0.957 -0.0644  0.0897  0.2326
    9CHTO   H82 3659   7.323   3.734   0.924 -0.5632  3.5761  0.5771
    9CHTO   O26 3660   7.136   3.820   0.915  0.0368  0.6086 -0.6032
    9CHTO   C41 3661   7.139   3.841   0.771  0.1667 -0.2624 -0.0636
    9CHTO   H83 3662   7.244   3.850   0.740  1.3615 -1.9389  3.2204
    9CHTO   C52 3663   7.073   3.975   0.736  1.0202  0.0080 -0.2328
    9CHTO   O35 3664   7.158   4.096   0.748 -0.1425  0.4313  0.0581
    9CHTO   H71 3665   7.104   4.172   0.754 -2.3871 -0.8823 -2.0882
    9CHTO   O28 3666   7.223   3.705   1.100  0.8814  0.3740  0.0267
    9CHTO   C42 3667   7.118   3.740   1.198 -0.0071 -0.7283 -0.7504
    9CHTO   H84 3668   7.155   3.707   1.296  0.0377 -2.5243 -1.3601
    9CHTO   C44 3669   6.975   3.678   1.187  0.1140  0.1742 -0.2981
    9CHTO   H86 3670   6.933   3.694   1.088 -1.7500  0.3221  0.5025
    9CHTO   O32 3671   7.008   3.540   1.220 -1.0991 -0.3919 -0.0032
    9CHTO   H69 3672   6.973   3.491   1.148 -0.2953  0.4700 -1.0015
    9CHTO   C48 3673   6.872   3.740   1.290 -0.1546 -0.1182 -0.0517
    9CHTO   H90 3674   6.913   3.704   1.385 -0.2775  1.1463  0.4830
    9CHTO    N9 3675   6.734   3.682   1.267 -1.0525  0.4048  0.1360
    9CHTO   H77 3676   6.702   3.704   1.166 -0.4691 -0.2288 -0.1894
    9CHTO   H78 3677   6.748   3.577   1.284 -0.6698  0.3623 -0.4239
    9CHTO   C51 3678   6.874   3.895   1.290 -0.2140  0.0383  0.7893
    9CHTO   H93 3679   6.846   3.924   1.188  1.5020  0.3395  0.3931
    9CHTO   O30 3680   7.006   3.936   1.325  0.0716  0.0020 -0.2361
    9CHTO   C46 3681   7.108   3.894   1.209 -0.2218  0.2182  0.0442
    9CHTO   H88 3682   7.076   3.938   1.114 -0.1467 -1.4064 -0.7583
    9CHTO   C53 3683   7.243   3.958   1.256 -0.2634  0.3681 -0.3533
    9CHTO   O72 3684   7.213   4.098   1.271  0.0445  0.0751 -1.0257
    9CHTO  H199 3685   7.210   4.138   1.186 -2.4546  2.0086 -0.0916
    9CHTO   O22 3686   6.784   3.957   1.388  0.0998 -0.2195  0.8707
    9CHTO   C31 3687   6.751   4.102   1.395 -0.3534  0.0067 -0.1168
    9CHTO   H59 3688   6.701   4.115   1.493 -2.0656  1.1941 -1.1160
    9CHTO   C29 3689   6.875   4.196   1.387 -0.3525  0.3845  0.1861
    9CHTO   H57 3690   6.940   4.170   1.302 -2.6520 -1.2473 -1.1098
    9CHTO   O21 3691   6.965   4.159   1.499 -0.1104  0.1766 -0.0514
    9CHTO   H37 3692   6.917   4.178   1.577 -0.5655  1.1924 -0.5697
    9CHTO   C27 3693   6.841   4.346   1.375 -0.5027 -0.6094  0.6689
    9CHTO   H55 3694   6.804   4.381   1.473  1.3091  1.2950  0.7000
    9CHTO    N5 3695   6.966   4.428   1.348 -0.2525  0.8407 -0.0911
    9CHTO   H43 3696   6.947   4.532   1.328 -2.7194  0.8480  1.9870
    9CHTO   H44 3697   7.032   4.385   1.274 -0.1684 -0.9509  1.0022
    9CHTO   C25 3698   6.731   4.374   1.267  0.3486  0.3437 -0.1904
    9CHTO   H53 3699   6.760   4.329   1.170 -0.5373 -0.7715  0.0543
    9CHTO   O17 3700   6.616   4.291   1.296 -0.0579  0.3277 -0.4049
    9CHTO   C32 3701   6.646   4.148   1.285 -0.0533 -0.1733 -0.9648
    9CHTO   H60 3702   6.684   4.127   1.185  0.3480 -1.1662 -0.6081
    9CHTO   C36 3703   6.505   4.092   1.298  0.2731 -0.0214 -0.1292
    9CHTO   O25 3704   6.498   3.949   1.308  0.0859 -0.1359 -0.7462
    9CHTO   H40 3705   6.541   3.911   1.234  3.2951  0.9319  0.4973
    9CHTO   O15 3706   6.686   4.520   1.235  0.3372 -0.2565 -0.5705
    9CHTO   C19 3707   6.667   4.554   1.104  0.1694  0.7787  0.3454
    9CHTO   H47 3708   6.632   4.658   1.106  0.1443  0.7887 -0.7455
    9CHTO   C20 3709   6.800   4.560   1.026 -0.3304  0.0722  0.0709
    9CHTO   H48 3710   6.858   4.467   1.034  0.2713  0.5271  1.1287
    9CHTO   O19 3711   6.878   4.665   1.086 -0.1661  0.3679 -0.3126
    9CHTO   H35 3712   6.913   4.631   1.166  0.3291 -2.5849 -1.7397
    9CHTO   C21 3713   6.769   4.592   0.873 -0.0065  0.5554  0.1559
    9CHTO   H49 3714   6.713   4.686   0.872  0.5693  0.8971 -1.1221
    9CHTO    N4 3715   6.887   4.616   0.784  0.3613 -0.4682 -0.3036
    9CHTO   H41 3716   6.846   4.670   0.700  0.5994  0.5170  0.2074
    9CHTO   H42 3717   6.929   4.524   0.747  0.1841 -0.4035 -0.6682
    9CHTO   C22 3718   6.679   4.486   0.815 -1.0892  0.1765 -0.2970
    9CHTO   H50 3719   6.737   4.393   0.818  1.0791  1.5066 -0.3289
    9CHTO   O14 3720   6.555   4.473   0.887  0.5341 -0.7354 -0.2597
    9CHTO   C23 3721   6.558   4.462   1.033  0.4414 -0.7543  0.4543
    9CHTO   H51 3722   6.577   4.354   1.037 -3.5354 -1.8360 -4.5575
    9CHTO   C34 3723   6.412   4.501   1.078 -0.6495  0.3995 -0.4482
    9CHTO   O23 3724   6.361   4.457   1.204 -0.6282  0.1934  0.1391
    9CHTO   H38 3725   6.308   4.381   1.195  1.2986 -1.1749  0.0507
    9CHTO   O16 3726   6.634   4.515   0.682 -0.2113 -0.2054  0.5475
    9CHTO   C24 3727   6.588   4.390   0.605  0.0178 -0.1406  0.1816
    9CHTO   H52 3728   6.543   4.314   0.670 -0.6282 -0.1953 -0.3193
    9CHTO   C26 3729   6.701   4.318   0.529 -0.0402  0.3104 -0.1959
    9CHTO   H54 3730   6.756   4.400   0.479  1.0920  0.1950  0.8482
    9CHTO   O20 3731   6.797   4.251   0.608 -0.6752  0.7692 -0.0356
    9CHTO   H36 3732   6.829   4.315   0.669  1.2811  0.2390 -0.4951
    9CHTO   C30 3733   6.651   4.217   0.422 -0.1640  0.8060  0.2159
    9CHTO   H58 3734   6.633   4.117   0.464  0.2730 -0.1805 -1.8887
    9CHTO    N6 3735   6.763   4.191   0.327  0.2647 -0.2960 -0.4082
    9CHTO   H45 3736   6.812   4.285   0.305 -1.6078  0.1310 -2.8783
    9CHTO   H46 3737   6.837   4.130   0.377  3.1400  1.2069 -2.6580
    9CHTO   C33 3738   6.529   4.261   0.333  0.3507 -0.0313 -0.7809
    9CHTO   H61 3739   6.564   4.336   0.261  0.7150  1.4667  0.9291
    9CHTO   O18 3740   6.441   4.326   0.425 -0.2697 -0.0146  0.0498
    9CHTO   C28 3741   6.479   4.440   0.507 -0.5372 -0.1490 -0.5801
    9CHTO   H56 3742   6.526   4.509   0.437 -1.6468 -0.1075 -1.2961
    9CHTO   C35 3743   6.349   4.479   0.587  0.1507 -0.1656  0.2844
    9CHTO   O24 3744   6.362   4.584   0.687 -0.1216  0.3714 -0.0469
    9CHTO   H39 3745   6.418   4.554   0.756 -0.2692  1.2424  0.4562
    9CHTO    O9 3746   6.459   4.160   0.259 -0.0567  0.1929 -0.5588
    9CHTO   C13 3747   6.436   4.183   0.096 -0.1447  0.1046  0.0947
    9CHTO   H26 3748   6.534   4.199   0.047 -1.1208  0.5178 -1.7567
    9CHTO   C11 3749   6.335   4.313   0.079  0.0149 -0.2555  0.1979
    9CHTO   H24 3750   6.404   4.398   0.091 -0.6389  0.2793  0.1989
    9CHTO    O8 3751   6.235   4.323   0.181  0.3624  0.6905 -0.6909
    9CHTO    H3 3752   6.166   4.269   0.149  0.2793  0.5812 -0.3326
    9CHTO    C9 3753   6.276   4.312  -0.068 -0.9453  0.1051 -0.2788
    9CHTO   H22 3754   6.359   4.294  -0.137 -2.3453 -1.0769 -1.6909
    9CHTO    N2 3755   6.218   4.441  -0.118 -0.0886 -0.7701  0.0460
    9CHTO   H10 3756   6.173   4.498  -0.038  0.3481 -0.1307 -0.1650
    9CHTO   H11 3757   6.146   4.427  -0.197 -2.0990  2.6646  1.1408
    9CHTO    C7 3758   6.202   4.179  -0.093 -0.3319  0.0527  0.0116
    9CHTO   H20 3759   6.225   4.154  -0.199  1.2298  0.7488  0.1695
    9CHTO    O4 3760   6.230   4.074   0.002  0.0967  0.4141  0.0651
    9CHTO   C14 3761   6.368   4.050   0.039  0.3889  0.1070  0.1194
    9CHTO   H27 3762   6.415   4.013  -0.054  1.5577  2.9855 -0.4643
    9CHTO   C18 3763   6.390   3.932   0.143  0.9131  0.2165 -0.0889
    9CHTO   O13 3764   6.526   3.915   0.155  0.4239 -0.1264  0.0550
    9CHTO    H7 3765   6.554   3.981   0.216 -0.7504  0.2035  0.2487
    9CHTO    O2 3766   6.032   4.186  -0.120 -0.2995  0.5712 -0.7889
    9CHTO    C1 3767   5.953   4.080  -0.058  0.1489 -0.1364 -0.3568
    9CHTO   H14 3768   5.993   4.053   0.042 -1.8719  0.6948  0.7123
    9CHTO    C2 3769   5.938   3.948  -0.151  0.6608  0.0070 -0.1152
    9CHTO   H15 3770   5.908   3.988  -0.249 -0.5053  0.5285  0.4512
    9CHTO    O6 3771   6.071   3.887  -0.154  0.8789  0.0379  0.1598
    9CHTO    H1 3772   6.126   3.958  -0.182  2.1425 -1.3083 -0.8344
    9CHTO    C3 3773   5.829   3.851  -0.080 -0.7900  0.1020  0.6848
    9CHTO   H16 3774   5.872   3.816   0.015  2.6663 -0.9372 -1.1736
    9CHTO    N1 3775   5.803   3.731  -0.167 -0.2840  0.1438 -0.2143
    9CHTO    H8 3776   5.766   3.772  -0.260 -3.9220 -0.6992  0.7613
    9CHTO    H9 3777   5.896   3.678  -0.181  0.1614  1.1386 -0.9984
    9CHTO    C4 3778   5.693   3.921  -0.051  0.2041 -0.2623  0.8455
    9CHTO   H17 3779   5.647   3.952  -0.145 -0.5143 -0.0317  1.2601
    9CHTO    O1 3780   5.724   4.032   0.030  0.4112  0.0092 -0.6059
    9CHTO    C5 3781   5.807   4.139  -0.020  0.0840  0.2900  0.1834
    9CHTO   H18 3782   5.759   4.172  -0.112  0.9145 -0.2792 -0.4622
    9CHTO   C16 3783   5.819   4.254   0.076  0.2771  0.1227  0.2824
    9CHTO   O11 3784   5.866   4.379   0.021 -0.2304 -0.3610  0.1867
    9CHTO    H5 3785   5.797   4.442   0.026  0.1407  0.1607 -1.0928
    9CHTO    O3 3786   5.595   3.843   0.033  0.2046 -0.5604  0.3259
    9CHTO    C6 3787   5.475   3.917   0.063  0.3229  0.0910  0.2703
    9CHTO   H19 3788   5.486   4.022   0.039  1.9700  0.8542  3.9684
    9CHTO    C8 3789   5.355   3.865  -0.028 -0.5189  0.0387 -0.4870
    9CHTO   H21 3790   5.348   3.757  -0.015 -1.6847 -0.2507 -3.1863
    9CHTO    O7 3791   5.385   3.893  -0.167  0.6221  0.4864  0.5784
    9CHTO    H2 3792   5.374   3.983  -0.189 -0.6375  0.0216 -0.7728
    9CHTO   C12 3793   5.232   3.937   0.026 -0.3600  0.1080  0.2692
    9CHTO   H25 3794   5.228   4.045   0.002  1.6499 -0.0849 -1.0805
    9CHTO    N3 3795   5.107   3.890  -0.047 -0.7337 -0.0916 -0.0530
    9CHTO   H12 3796   5.124   3.821  -0.128 -0.5377  0.5443 -0.5482
    9CHTO   H13 3797   5.024   3.854   0.013  0.3086 -1.6316  0.4975
    9CHTO   C15 3798   5.212   3.924   0.184  0.8027 -0.1592  0.5370
    9CHTO   H28 3799   5.192   3.823   0.220  2.9986 -1.1805 -0.9836
    9CHTO   O10 3800   5.107   4.002   0.249 -0.4309 -0.0275 -0.1649
    9CHTO    H4 3801   5.116   4.094   0.229  3.5420 -0.3216 -0.0748
    9CHTO    O5 3802   5.325   3.980   0.257 -0.8152  0.4360 -0.0936
    9CHTO   C10 3803   5.442   3.906   0.217  0.4997 -0.4823  0.2667
    9CHTO   H23 3804   5.434   3.801   0.247  1.8558  0.4478  4.0696
    9CHTO   C17 3805   5.549   3.964   0.303 -0.3507  0.5252 -0.0739
    9CHTO   O12 3806   5.671   3.894   0.307 -1.0232 -0.4929 -0.3501
    9CHTO    H6 3807   5.719   3.913   0.386 -1.4505 -1.2823  0.1099
   10CHTO  H203 3808   4.180   6.762   0.032 -0.9397 -0.9391  1.8130
   10CHTO   O82 3809   4.098   6.728   0.003 -0.3558 -0.2744 -0.7468
   10CHTO  C123 3810   4.000   6.835   0.011  0.4654  0.3442  0.0433
   10CHTO  H227 3811   4.035   6.919  -0.051  1.0519  0.5827  0.6918
   10CHTO   O77 3812   3.878   6.780  -0.037  0.1419 -0.1968  0.0770
   10CHTO  C118 3813   3.777   6.875  -0.052  0.1460 -0.4749 -0.0878
   10CHTO  H222 3814   3.818   6.966  -0.098  0.0763  0.4388  1.6312
   10CHTO  C125 3815   3.670   6.822  -0.140 -0.2380  0.6238 -0.0464
   10CHTO   O84 3816   3.711   6.791  -0.267 -0.2928 -0.7208  0.4516
   10CHTO  H205 3817   3.654   6.834  -0.329 -1.8231 -0.3354  2.1046
   10CHTO  C114 3818   3.725   6.906   0.091  0.1551  0.3886 -0.8602
   10CHTO  H218 3819   3.686   6.813   0.134  0.9720 -0.5013 -2.0121
   10CHTO  C116 3820   3.838   6.957   0.182 -0.0496 -0.1176 -0.0979
   10CHTO  H220 3821   3.851   7.065   0.157 -1.4657  1.0110  3.6572
   10CHTO   O79 3822   3.799   6.959   0.319  0.3255 -0.8325 -0.0030
   10CHTO  H201 3823   3.825   7.041   0.357  0.1502 -1.3638  1.2867
   10CHTO  C120 3824   3.977   6.881   0.164  0.7421  0.7159  0.5154
   10CHTO  H224 3825   3.969   6.790   0.226 -1.3011 -0.1506 -0.9756
   10CHTO   N21 3826   4.099   6.944   0.224 -0.0708  0.3229 -0.6708
   10CHTO  H211 3827   4.126   6.918   0.325 -0.2421  2.1383 -0.1410
   10CHTO  H212 3828   4.102   7.051   0.205  1.1515  0.2043 -1.2024
   10CHTO   O75 3829   3.620   6.996   0.071  0.2837 -0.5655  1.2190
   10CHTO  C112 3830   3.543   7.052   0.191  0.0352  0.2403 -0.4023
   10CHTO  H216 3831   3.610   7.124   0.239  1.8846 -2.8155  1.7601
   10CHTO   O73 3832   3.512   6.945   0.281  0.0742 -0.4301 -0.3896
   10CHTO  C113 3833   3.471   6.999   0.410  0.3201  1.0648 -0.1261
   10CHTO  H217 3834   3.562   7.054   0.440 -0.7984  1.9508  1.6890
   10CHTO  C124 3835   3.447   6.885   0.512 -0.3978  0.0142 -0.0221
   10CHTO   O83 3836   3.567   6.810   0.521  0.2629  0.3401 -0.2222
   10CHTO  H204 3837   3.555   6.735   0.576 -1.9155 -0.5316 -1.8206
   10CHTO  C109 3838   3.338   7.085   0.398 -0.5042 -0.2896 -0.1728
   10CHTO  H213 3839   3.257   7.011   0.396  0.1620 -1.0239  0.0986
   10CHTO  C110 3840   3.331   7.183   0.276 -0.2889 -0.0304  0.3549
   10CHTO  H214 3841   3.379   7.277   0.302  2.5113 -0.9419 -1.3336
   10CHTO   O78 3842   3.198   7.226   0.241 -0.0661  0.1615 -0.0039
   10CHTO  H200 3843   3.140   7.154   0.233  1.0602 -0.8420  0.7867
   10CHTO  C111 3844   3.404   7.119   0.148  0.7243  0.2079 -0.2979
   10CHTO  H215 3845   3.343   7.038   0.106  0.5862  0.3832 -0.4388
   10CHTO   N19 3846   3.425   7.224   0.042 -0.0516 -0.9148  0.3012
   10CHTO  H207 3847   3.504   7.295   0.061  0.7723 -1.8706  0.4707
   10CHTO  H208 3848   3.338   7.288   0.049 -1.0627 -2.2015 -0.3853
   10CHTO   O74 3849   3.319   7.162   0.522 -0.1124 -0.0303  0.0429
   10CHTO  C115 3850   3.181   7.211   0.562 -0.1462 -0.4655 -0.0509
   10CHTO  H219 3851   3.138   7.272   0.483 -0.8253 -2.3041 -1.1244
   10CHTO   O76 3852   3.077   7.098   0.582 -0.6680  0.2155  0.3028
   10CHTO  C122 3853   3.096   7.010   0.692 -0.5795  0.1745 -0.4467
   10CHTO  H226 3854   3.166   6.929   0.669  1.6820  1.8357  0.3902
   10CHTO  C126 3855   2.954   6.930   0.720  0.0914 -0.1007 -0.2561
   10CHTO   O85 3856   2.957   6.845   0.833  0.2270  0.0159  0.3477
   10CHTO  H206 3857   2.877   6.843   0.881 -0.1867 -0.2676 -0.3399
   10CHTO  C121 3858   3.135   7.093   0.827 -0.4277  0.2579  0.2389
   10CHTO  H225 3859   3.070   7.057   0.911  0.5477  1.2896  1.4485
   10CHTO   O81 3860   3.265   7.054   0.869 -0.5278 -0.4061  0.3934
   10CHTO  H202 3861   3.318   7.042   0.792  1.3099 -2.6931  1.9503
   10CHTO  C119 3862   3.112   7.244   0.816 -0.1275 -0.2540 -0.2420
   10CHTO  H223 3863   3.008   7.261   0.789 -0.8024  0.1086  2.4610
   10CHTO  C117 3864   3.198   7.290   0.700 -0.4201 -0.1313  0.8452
   10CHTO  H221 3865   3.305   7.291   0.722 -0.3902 -1.0891  0.7937
   10CHTO   N20 3866   3.161   7.435   0.673 -0.6062  1.1041  0.3606
   10CHTO  H209 3867   3.147   7.494   0.763 -2.6011  1.1743  0.0138
   10CHTO  H210 3868   3.234   7.481   0.608  0.2614  0.8242  1.1185
   10CHTO   O80 3869   3.120   7.322   0.959  0.0548 -0.3556  0.6132
   10CHTO  C103 3870   3.003   7.385   1.000  0.1121  0.0222 -0.3491
   10CHTO  H190 3871   2.957   7.441   0.918 -0.0827  0.9561  0.3931
   10CHTO  C101 3872   2.880   7.302   1.061 -0.6657  0.2342 -0.3520
   10CHTO  H188 3873   2.912   7.230   1.137 -2.1699 -0.8870 -0.7666
   10CHTO   O68 3874   2.828   7.203   0.928 -0.1990 -0.3313 -0.0362
   10CHTO  H168 3875   2.850   7.117   0.959 -0.1504 -0.8287 -1.4230
   10CHTO   C99 3876   2.781   7.396   1.125 -0.4645  0.2405 -0.2021
   10CHTO  H186 3877   2.748   7.458   1.039 -2.0024  1.4123  1.1974
   10CHTO   N17 3878   2.668   7.325   1.193 -0.6688 -0.0279  0.2063
   10CHTO  H174 3879   2.633   7.380   1.279  1.9575  0.0561  1.2690
   10CHTO  H175 3880   2.587   7.316   1.123 -0.7384  2.0736 -0.0339
   10CHTO   C97 3881   2.837   7.500   1.225  0.8752  0.0378  0.0330
   10CHTO  H184 3882   2.868   7.441   1.312 -1.1230 -1.9959 -0.5836
   10CHTO   O64 3883   2.947   7.571   1.156 -0.2138 -0.1387  0.6775
   10CHTO  C104 3884   3.056   7.488   1.113 -0.7760 -0.8150  0.3387
   10CHTO  H191 3885   3.109   7.429   1.188  1.6832 -0.6055 -1.1795
   10CHTO  C108 3886   3.163   7.584   1.067  0.0619 -0.2026 -0.1112
   10CHTO   O71 3887   3.229   7.646   1.175 -0.2212 -0.1499  0.4012
   10CHTO  H171 3888   3.170   7.709   1.212  1.0678  1.9456 -1.0305
   10CHTO   O62 3889   2.745   7.604   1.257  0.1643 -0.3953 -0.1863
   10CHTO   C91 3890   2.700   7.613   1.394 -0.6160  0.1291  0.7283
   10CHTO  H178 3891   2.697   7.509   1.428 -1.5237 -0.8640 -2.2699
   10CHTO   C92 3892   2.557   7.664   1.402 -0.4508 -1.0472  0.2701
   10CHTO  H179 3893   2.549   7.760   1.348 -1.0817 -0.3838  1.5181
   10CHTO   O66 3894   2.473   7.581   1.329  0.1002  0.1245 -0.0400
   10CHTO  H166 3895   2.473   7.495   1.367 -0.8494 -1.0458 -2.5619
   10CHTO   C93 3896   2.500   7.679   1.551 -0.8616 -0.2457  0.2200
   10CHTO  H180 3897   2.478   7.575   1.581  0.1951 -0.5420 -0.0021
   10CHTO   N16 3898   2.367   7.745   1.563  0.2710  0.4783  0.1451
   10CHTO  H172 3899   2.346   7.750   1.669  1.3596  0.0076  0.3934
   10CHTO  H173 3900   2.371   7.845   1.521 -2.0194 -0.1864 -1.7194
   10CHTO   C94 3901   2.607   7.747   1.650  0.7700 -0.1417  0.6261
   10CHTO  H181 3902   2.612   7.855   1.633 -1.7296 -0.4427 -2.6308
   10CHTO   O61 3903   2.736   7.697   1.631 -0.1380 -0.4945  0.0265
   10CHTO   C95 3904   2.794   7.695   1.498 -0.2828  0.5385  0.1585
   10CHTO  H182 3905   2.814   7.798   1.468  2.1622  0.4038  1.2339
   10CHTO  C106 3906   2.934   7.633   1.505  0.1946  0.4645  0.2542
   10CHTO   O69 3907   3.028   7.714   1.582 -0.6648  0.3111 -0.2762
   10CHTO  H169 3908   3.005   7.805   1.575  0.1431  0.7045  1.6641
   10CHTO   O63 3909   2.563   7.719   1.805 -0.0290  0.1508  0.3174
   10CHTO   C96 3910   2.616   7.607   1.886 -0.2209 -0.3095 -0.1775
   10CHTO  H183 3911   2.718   7.586   1.855 -0.0758  1.9118 -1.2972
   10CHTO   C98 3912   2.529   7.480   1.882  0.4523  1.1890 -0.0658
   10CHTO  H185 3913   2.421   7.498   1.872  0.1665 -0.7184 -0.4741
   10CHTO   O67 3914   2.564   7.428   1.754 -0.0249  0.2751 -0.6469
   10CHTO  H167 3915   2.573   7.336   1.768  1.2524  0.4121 -0.4403
   10CHTO  C102 3916   2.549   7.378   2.003  0.1887  0.2827 -0.1717
   10CHTO  H189 3917   2.641   7.323   1.978  1.7085  2.4941  0.4183
   10CHTO   N18 3918   2.435   7.275   2.010 -0.1689  0.2387  0.7968
   10CHTO  H176 3919   2.458   7.200   2.085  2.2572 -0.9957 -1.0917
   10CHTO  H177 3920   2.402   7.228   1.919  0.4880 -0.9921  1.1734
   10CHTO  C105 3921   2.560   7.456   2.134 -0.5950 -0.2116 -0.5522
   10CHTO  H192 3922   2.466   7.510   2.150  0.2173  1.5685 -1.7114
   10CHTO   O65 3923   2.663   7.554   2.120 -0.2216  0.4637  0.3368
   10CHTO  C100 3924   2.638   7.664   2.030  0.0859  1.0313 -0.6448
   10CHTO  H187 3925   2.545   7.714   2.062 -0.8558 -1.5385  0.7616
   10CHTO  C107 3926   2.753   7.764   2.065  0.4212  0.0660 -0.8113
   10CHTO   O70 3927   2.716   7.907   2.063 -0.1854 -0.0355 -0.4097
   10CHTO  H170 3928   2.763   7.964   2.005  2.4312 -1.0956  0.6345
   10CHTO   O57 3929   2.580   7.337   2.255  0.1761 -0.5318  0.0672
   10CHTO   C85 3930   2.539   7.370   2.395 -1.0214 -0.0284  0.1407
   10CHTO  H157 3931   2.447   7.432   2.389  0.3614  2.2257  1.4071
   10CHTO   C83 3932   2.649   7.467   2.455  0.5397  0.1106  0.5926
   10CHTO  H155 3933   2.652   7.554   2.389 -0.9535 -0.0438  0.2991
   10CHTO   O56 3934   2.785   7.415   2.456  0.3151  0.3421 -0.7892
   10CHTO  H135 3935   2.790   7.346   2.518  2.4002 -0.8189 -2.1834
   10CHTO   C81 3936   2.591   7.519   2.591 -0.4749 -0.2927  0.5164
   10CHTO  H153 3937   2.498   7.570   2.566  0.8958  2.2516  0.4002
   10CHTO   N14 3938   2.682   7.628   2.652 -0.0045 -0.2311  0.2166
   10CHTO  H141 3939   2.653   7.635   2.754 -3.7867 -1.7524 -0.6884
   10CHTO  H142 3940   2.667   7.721   2.601 -0.3872 -0.5352 -0.2242
   10CHTO   C79 3941   2.559   7.401   2.686 -0.5679 -0.2316 -1.3194
   10CHTO  H151 3942   2.509   7.443   2.774 -1.0900  1.6746 -2.4857
   10CHTO   O52 3943   2.467   7.306   2.621 -0.2046 -0.1265 -0.5273
   10CHTO   C86 3944   2.525   7.258   2.499  0.4823  0.3222 -0.4497
   10CHTO  H158 3945   2.624   7.217   2.526  0.2493  0.1790  0.2158
   10CHTO   C90 3946   2.447   7.143   2.442 -0.2885  0.2724  0.1746
   10CHTO   O60 3947   2.453   7.027   2.528 -0.7786 -0.3779 -1.1560
   10CHTO  H138 3948   2.409   6.951   2.495 -1.0092 -0.9351  0.3931
   10CHTO   O50 3949   2.681   7.334   2.733 -0.3934  0.1175  0.4386
   10CHTO   C73 3950   2.739   7.244   2.831  0.1947 -0.3875  0.7399
   10CHTO  H145 3951   2.697   7.143   2.829  0.3588 -0.4851  1.8728
   10CHTO   C74 3952   2.730   7.309   2.968 -0.1985  0.0770 -0.1839
   10CHTO  H146 3953   2.625   7.322   2.997  0.1452  1.7882  0.3805
   10CHTO   O54 3954   2.792   7.203   3.048 -0.3027 -0.3215 -0.9227
   10CHTO  H133 3955   2.736   7.129   3.059  0.3051 -0.9428 -1.9075
   10CHTO   C75 3956   2.810   7.447   2.979 -0.3499 -0.6996  0.0876
   10CHTO  H147 3957   2.751   7.521   2.922 -0.1015 -1.2383 -0.8861
   10CHTO   N13 3958   2.814   7.504   3.116  0.0070 -0.4420 -0.4672
   10CHTO  H139 3959   2.844   7.607   3.123 -0.4758 -0.4149  1.4706
   10CHTO  H140 3960   2.712   7.512   3.150  0.0908  2.0692 -0.7236
   10CHTO   C76 3961   2.956   7.433   2.918 -0.2193  0.3086  0.1233
   10CHTO  H148 3962   3.026   7.386   2.986  0.4416  1.1549  0.0381
   10CHTO   O49 3963   2.946   7.363   2.790 -0.2553 -0.2924  0.6380
   10CHTO   C77 3964   2.882   7.233   2.788 -0.4160 -0.3090 -0.3500
   10CHTO  H149 3965   2.930   7.158   2.850  1.1177 -0.0234 -1.1671
   10CHTO   C88 3966   2.904   7.187   2.646 -0.2415 -0.4279 -0.2436
   10CHTO   O58 3967   3.064   7.190   2.604  0.5101  0.1989  0.1663
   10CHTO  H136 3968   3.065   7.200   2.511 -1.5403  0.5644  0.1738
   10CHTO   O51 3969   3.007   7.565   2.886  0.1425  1.1273  0.1525
   10CHTO   C78 3970   3.159   7.577   2.842  0.2281  0.6758  0.5569
   10CHTO  H150 3971   3.196   7.482   2.798  1.5832  0.9316  1.1139
   10CHTO   C80 3972   3.243   7.621   2.958  0.3439  0.0553  0.8069
   10CHTO  H152 3973   3.197   7.712   3.001 -1.6807 -1.4798  1.9857
   10CHTO   O55 3974   3.235   7.510   3.053  0.0345 -0.7574 -0.2409
   10CHTO  H134 3975   3.151   7.507   3.094 -0.3173 -4.3853 -1.0084
   10CHTO   C84 3976   3.394   7.639   2.914 -0.4928 -0.2409 -0.6620
   10CHTO  H156 3977   3.432   7.540   2.888  0.4451  0.3619 -1.6307
   10CHTO   N15 3978   3.486   7.691   3.018  0.4802 -0.9609 -0.8155
   10CHTO  H143 3979   3.576   7.634   3.022  0.6806 -0.6268 -0.5661
   10CHTO  H144 3980   3.513   7.794   3.005  1.8747 -0.9324  2.0064
   10CHTO   C87 3981   3.403   7.728   2.786  0.4599  0.3778  0.0601
   10CHTO  H159 3982   3.389   7.833   2.813  0.0446  0.0624  1.1254
   10CHTO   O53 3983   3.288   7.703   2.678 -0.2856  0.1452 -0.0626
   10CHTO   C82 3984   3.154   7.681   2.730  0.2765  0.8850 -0.3340
   10CHTO  H154 3985   3.119   7.776   2.769 -1.8442 -1.0908  2.7973
   10CHTO   C89 3986   3.067   7.639   2.611  0.5422 -0.5656 -0.5321
   10CHTO   O59 3987   3.074   7.741   2.514 -0.5117 -0.3227  0.2640
   10CHTO  H137 3988   3.036   7.711   2.433 -1.5506 -1.8040  1.2681
   10CHTO   O45 3989   3.546   7.728   2.715 -0.4864 -0.1895 -0.0558
   10CHTO   C67 3990   3.572   7.845   2.644  0.3047 -0.8377  0.5119
   10CHTO  H124 3991   3.489   7.872   2.579 -0.4790 -1.9962  1.0144
   10CHTO   C65 3992   3.608   7.963   2.741 -0.0791  0.3315 -0.5016
   10CHTO  H122 3993   3.527   7.964   2.813  0.8188 -0.6556  0.5178
   10CHTO   O44 3994   3.601   8.088   2.671 -0.3000 -0.7631 -0.0521
   10CHTO  H102 3995   3.684   8.128   2.651 -2.3121  2.9401 -1.4668
   10CHTO   C63 3996   3.736   7.921   2.823 -0.7761  0.3750  0.6139
   10CHTO  H120 3997   3.718   7.825   2.872  1.9529 -0.7718 -0.5051
   10CHTO   N11 3998   3.751   8.009   2.941  0.2550 -0.0648 -0.7834
   10CHTO  H108 3999   3.712   7.968   3.031 -1.6209 -1.4987 -2.2190
   10CHTO  H109 4000   3.852   8.026   2.974 -0.7275  1.8783  1.2894
   10CHTO   C61 4001   3.855   7.897   2.720  0.1841 -0.2922 -0.5541
   10CHTO  H118 4002   3.934   7.850   2.781  1.3796 -1.0200 -2.6298
   10CHTO   O40 4003   3.824   7.801   2.619 -0.0497 -1.1566  0.3614
   10CHTO   C68 4004   3.695   7.813   2.547  0.0337 -0.3105 -0.4104
   10CHTO  H125 4005   3.682   7.711   2.504  0.2418 -1.1307  1.4308
   10CHTO   C72 4006   3.707   7.916   2.430  0.5268  0.0317  0.1669
   10CHTO   O48 4007   3.820   7.879   2.356  0.3902 -0.0967  0.5324
   10CHTO  H105 4008   3.821   7.788   2.333 -0.9045  0.1147 -0.3994
   10CHTO   O38 4009   3.898   8.025   2.670  0.0568  0.9735  0.1713
   10CHTO   C55 4010   4.033   8.072   2.679  0.7818  0.4858 -0.1243
   10CHTO  H112 4011   4.091   7.993   2.630  0.3231  0.3706 -0.4893
   10CHTO   C56 4012   4.086   8.110   2.822 -0.2142 -0.5637 -0.1033
   10CHTO  H113 4013   4.003   8.164   2.871 -0.6586 -0.8103 -0.5776
   10CHTO   O42 4014   4.114   7.996   2.905  0.0183 -0.9605  0.5750
   10CHTO  H100 4015   4.200   7.964   2.882  0.2476 -0.3774  0.6270
   10CHTO   C57 4016   4.214   8.197   2.834 -0.1837  0.2489  0.1383
   10CHTO  H114 4017   4.298   8.132   2.810  0.3541  0.4833  1.3187
   10CHTO   N10 4018   4.239   8.257   2.972 -0.6583 -0.6786 -0.8872
   10CHTO  H106 4019   4.143   8.261   3.021 -0.8707 -0.4942 -1.3102
   10CHTO  H107 4020   4.298   8.187   3.029 -0.0441  0.1195 -0.5374
   10CHTO   C58 4021   4.202   8.313   2.727  0.3010 -0.3647  0.6259
   10CHTO  H115 4022   4.123   8.384   2.762 -0.4068  0.1669 -1.9375
   10CHTO   O37 4023   4.174   8.258   2.590 -0.4013 -0.0777 -0.2049
   10CHTO   C59 4024   4.044   8.198   2.585 -0.2255 -0.4290 -0.4958
   10CHTO  H116 4025   3.974   8.279   2.607  1.8286  1.1763  0.4226
   10CHTO   C70 4026   4.004   8.162   2.443  0.2263 -0.0859 -0.1199
   10CHTO   O46 4027   4.070   8.052   2.376  0.3182 -1.0668  0.8036
   10CHTO  H103 4028   4.012   8.033   2.305 -1.7970 -0.8386  2.3960
   10CHTO   O39 4029   4.353   8.396   2.704 -0.3640 -0.2969 -0.6375
   10CHTO   C60 4030   4.350   8.537   2.679 -0.1664  0.2703  0.1864
   10CHTO  H117 4031   4.248   8.570   2.659 -0.2488  0.0408  0.2336
   10CHTO   C62 4032   4.405   8.618   2.799  0.0517 -0.4476  0.2450
   10CHTO  H119 4033   4.354   8.584   2.891  2.2480 -0.9284  1.3193
   10CHTO   O43 4034   4.546   8.580   2.819 -0.4690 -0.3030 -0.1049
   10CHTO  H101 4035   4.586   8.618   2.895  3.7818 -1.1431 -1.7650
   10CHTO   C66 4036   4.375   8.775   2.770 -0.3578 -0.4569 -0.3294
   10CHTO  H123 4037   4.273   8.787   2.735  0.2772  0.5470 -1.9142
   10CHTO   N12 4038   4.404   8.860   2.889 -0.3427  0.2085  0.5082
   10CHTO  H110 4039   4.345   8.821   2.970 -1.0194  0.9802  0.3863
   10CHTO  H111 4040   4.366   8.959   2.867  1.9444  0.6085 -1.9574
   10CHTO   C69 4041   4.460   8.822   2.643 -0.8144 -0.2362 -0.3224
   10CHTO  H126 4042   4.569   8.820   2.664 -1.3510  1.2439  2.9300
   10CHTO   O41 4043   4.431   8.725   2.516  0.1162  0.3880  0.9667
   10CHTO   C64 4044   4.429   8.570   2.549 -0.5098  0.3121 -0.8366
   10CHTO  H121 4045   4.534   8.534   2.555 -0.6045 -0.8401 -4.7802
   10CHTO   C71 4046   4.377   8.502   2.423 -0.0829 -0.0842  0.7614
   10CHTO   O47 4047   4.233   8.499   2.430  0.5011  0.2667  0.5706
   10CHTO  H104 4048   4.197   8.475   2.347  1.9635 -0.0771  0.0042
   10CHTO   O34 4049   4.425   8.990   2.612 -0.2569  0.3521  0.1954
   10CHTO   C49 4050   4.294   9.081   2.548  0.2192  0.2125  0.4392
   10CHTO   H91 4051   4.283   9.176   2.601 -1.6763  0.0693  0.3361
   10CHTO   C47 4052   4.161   9.004   2.560 -0.4187  0.4589 -0.2524
   10CHTO   H89 4053   4.150   8.982   2.668 -1.5911  0.6768 -0.3159
   10CHTO   O33 4054   4.165   8.879   2.492  0.2918  0.4678 -0.5343
   10CHTO   H70 4055   4.090   8.828   2.517 -1.1453  1.1792 -3.2355
   10CHTO   C45 4056   4.045   9.097   2.496  0.2017  0.2630 -0.2107
   10CHTO   H87 4057   3.998   9.036   2.417 -0.2058  0.4388 -0.1089
   10CHTO    N8 4058   3.933   9.122   2.585  0.1418  0.2899  0.5324
   10CHTO   H75 4059   3.846   9.155   2.531  0.0836 -0.5366  0.1171
   10CHTO   H76 4060   3.964   9.194   2.660 -0.5592  0.7769  0.3551
   10CHTO   C43 4061   4.099   9.225   2.418 -0.3328 -0.0796  0.0144
   10CHTO   H85 4062   4.014   9.255   2.357  0.1173  0.7258 -0.2135
   10CHTO   O29 4063   4.216   9.188   2.339 -0.0180  0.3733 -0.0975
   10CHTO   C50 4064   4.314   9.108   2.397 -0.2507 -0.1123 -0.4221
   10CHTO   H92 4065   4.310   9.015   2.339  3.3925  0.2309 -1.3580
   10CHTO   C54 4066   4.452   9.176   2.377 -0.2472 -0.5794 -0.3147
   10CHTO   O36 4067   4.479   9.216   2.245  0.6686  0.0607  0.0969
   10CHTO   H72 4068   4.542   9.286   2.240 -0.7078  1.3827  1.0011
   10CHTO   O27 4069   4.138   9.334   2.508 -0.1544  0.1382 -0.2520
   10CHTO   C37 4070   4.191   9.455   2.453 -0.1657  0.6097  0.2240
   10CHTO   H79 4071   4.289   9.436   2.407  0.2697  2.0178  0.5460
   10CHTO   C38 4072   4.092   9.522   2.350  0.2424 -0.0770  0.3647
   10CHTO   H80 4073   3.989   9.507   2.387 -0.5518  0.9038 -1.3651
   10CHTO   O31 4074   4.090   9.446   2.227  0.3627  0.0334  0.1542
   10CHTO   H68 4075   4.172   9.437   2.183  1.1556  0.6918  1.4952
   10CHTO   C39 4076   4.123   9.665   2.315 -0.0542  0.7170 -0.3277
   10CHTO   H81 4077   4.206   9.655   2.245  0.5125 -2.2428  0.7082
   10CHTO    N7 4078   4.012   9.743   2.247 -0.4205  0.1453 -0.1079
   10CHTO   H73 4079   3.916   9.740   2.298  0.5331  2.7971  1.9411
   10CHTO   H74 4080   4.010   9.712   2.144 -2.1522  0.5932 -0.2226
   10CHTO   C40 4081   4.179   9.750   2.434  0.7725  0.1666 -0.3940
   10CHTO   H82 4082   4.099   9.794   2.493 -0.1471  0.2258 -1.6539
   10CHTO   O26 4083   4.276   9.681   2.515  0.2094  0.4254 -0.2910
   10CHTO   C41 4084   4.212   9.555   2.568 -0.0151 -0.3426 -0.6574
   10CHTO   H83 4085   4.113   9.571   2.614  1.4544 -0.5299  2.6269
   10CHTO   C52 4086   4.309   9.498   2.675 -0.4153 -0.3101 -0.1134
   10CHTO   O35 4087   4.302   9.582   2.812 -0.2440  0.1777 -0.2095
   10CHTO   H71 4088   4.375   9.642   2.812  0.7825 -1.0496 -1.1257
   10CHTO   O28 4089   4.263   9.849   2.363 -0.0108  0.5055 -0.6828
   10CHTO   C42 4090   4.282   9.992   2.400  0.7424 -0.6445  0.1400
   10CHTO   H84 4091   4.230  10.009   2.495 -2.1406 -1.4066 -1.2513
   10CHTO   C44 4092   4.222  10.086   2.290 -0.6565  0.1505 -0.3504
   10CHTO   H86 4093   4.254  10.052   2.191 -0.6169  2.2593 -1.0960
   10CHTO   O32 4094   4.080  10.074   2.294 -0.7374 -0.3542  0.1000
   10CHTO   H69 4095   4.057   9.991   2.258  0.4904 -1.0941  0.9908
   10CHTO   C48 4096   4.255  10.238   2.306  0.8691 -0.2415 -0.0337
   10CHTO   H90 4097   4.209  10.275   2.398  1.5865 -3.4185  1.6947
   10CHTO    N9 4098   4.190  10.333   2.210 -0.0480 -0.1484  0.5598
   10CHTO   H77 4099   4.128  10.409   2.255  0.7303  1.2300 -0.6345
   10CHTO   H78 4100   4.133  10.276   2.139 -0.5277  0.3410  0.5525
   10CHTO   C51 4101   4.412  10.251   2.320 -0.5428 -0.5192 -0.1748
   10CHTO   H93 4102   4.461  10.216   2.229 -1.4042 -2.2415  0.0083
   10CHTO   O30 4103   4.452  10.173   2.431  0.4914  0.0078  0.2899
   10CHTO   C46 4104   4.428  10.024   2.421 -0.5673 -0.2582  0.0585
   10CHTO   H88 4105   4.485   9.995   2.333  2.4157  1.6063  1.2890
   10CHTO   C53 4106   4.485   9.951   2.540 -0.1988  0.0345  0.1398
   10CHTO   O72 4107   4.628   9.965   2.545  0.4672  0.0163  0.1358
   10CHTO  H199 4108   4.652   9.989   2.632 -0.0167 -1.2918  0.6469
   10CHTO   O22 4109   4.459  10.385   2.347  0.0293  0.3004 -0.3924
   10CHTO   C31 4110   4.601  10.423   2.305 -0.0117 -0.2172  0.0023
   10CHTO   H59 4111   4.632  10.507   2.371 -0.3487  0.0151 -0.1296
   10CHTO   C29 4112   4.704  10.311   2.324  0.3479  0.2349  0.3963
   10CHTO   H57 4113   4.668  10.222   2.271 -1.1486  1.1491 -0.1544
   10CHTO   O21 4114   4.707  10.281   2.466  0.6839 -0.6444 -0.5585
   10CHTO   H37 4115   4.773  10.219   2.489  1.3247  0.5195  0.8090
   10CHTO   C27 4116   4.848  10.343   2.266  0.8255 -0.6531 -0.2921
   10CHTO   H55 4117   4.886  10.426   2.327 -0.1400  0.6510 -1.4332
   10CHTO    N5 4118   4.947  10.236   2.282  0.1909  0.2747  0.1662
   10CHTO   H43 4119   4.902  10.151   2.331 -0.7857 -0.1986 -1.4974
   10CHTO   H44 4120   5.027  10.271   2.345 -0.3947  0.0277  1.0489
   10CHTO   C25 4121   4.834  10.397   2.124  0.2848 -0.1116  0.4318
   10CHTO   H53 4122   4.802  10.318   2.054 -0.1839  1.9322 -1.7779
   10CHTO   O17 4123   4.730  10.503   2.117  0.2812  0.4858 -0.5241
   10CHTO   C32 4124   4.596  10.469   2.159 -0.0101  0.3123 -0.1810
   10CHTO   H60 4125   4.566  10.388   2.093 -1.0065  0.1111  0.5052
   10CHTO   C36 4126   4.502  10.598   2.143 -0.2469  0.5792  1.0389
   10CHTO   O25 4127   4.495  10.618   2.003 -0.3472 -0.0714  1.1484
   10CHTO   H40 4128   4.415  10.660   1.980 -0.1006  0.4530  1.2321
   10CHTO   O15 4129   4.962  10.467   2.079  0.2459  0.7009 -0.1860
   10CHTO   C19 4130   5.000  10.510   1.951 -0.5891 -0.1988  0.6141
   10CHTO   H47 4131   4.927  10.460   1.886 -0.0461 -0.9670  0.5847
   10CHTO   C20 4132   4.987  10.663   1.932 -0.8186 -0.4959 -0.0983
   10CHTO   H48 4133   5.036  10.720   2.013  0.0293 -1.0787 -0.1999
   10CHTO   O19 4134   4.846  10.686   1.955 -0.1640 -0.1395 -0.2048
   10CHTO   H35 4135   4.818  10.709   2.042  2.4915  1.0419  0.4075
   10CHTO   C21 4136   5.046  10.707   1.792  0.1351  0.2766 -0.2901
   10CHTO   H49 4137   4.977  10.669   1.716 -2.6305  1.5463  1.4914
   10CHTO    N4 4138   5.048  10.857   1.770  0.2267 -0.0408  0.3120
   10CHTO   H41 4139   5.086  10.869   1.670 -2.8291 -1.9335 -1.1719
   10CHTO   H42 4140   4.945  10.891   1.774  0.5380  1.0107 -0.6560
   10CHTO   C22 4141   5.189  10.640   1.772  0.8406 -0.0856 -0.0687
   10CHTO   H50 4142   5.261  10.661   1.851 -0.5479 -1.9161  1.7229
   10CHTO   O14 4143   5.170  10.499   1.778  0.0011  0.0282  0.6382
   10CHTO   C23 4144   5.135  10.448   1.904  0.0818 -0.0760 -0.1940
   10CHTO   H51 4145   5.218  10.463   1.975  1.5350  0.3324 -1.9265
   10CHTO   C34 4146   5.127  10.287   1.891 -0.0710 -0.3335  0.3629
   10CHTO   O23 4147   5.158  10.222   2.018  0.3027 -0.2486  0.3392
   10CHTO   H38 4148   5.250  10.219   2.037  0.2924  0.8115  0.5790
   10CHTO   O16 4149   5.249  10.671   1.643  0.0094 -0.0128 -0.2565
   10CHTO   C24 4150   5.405  10.663   1.643 -0.0068  0.1351  0.7274
   10CHTO   H52 4151   5.442  10.629   1.740 -0.1553  3.6271  2.1069
   10CHTO   C26 4152   5.461  10.807   1.622  0.1444  0.4730  0.3792
   10CHTO   H54 4153   5.408  10.866   1.544  0.6222  1.4145  0.7653
   10CHTO   O20 4154   5.433  10.883   1.739  0.1097  0.0959  0.1815
   10CHTO   H36 4155   5.341  10.903   1.746  0.4292  1.6422  0.1335
   10CHTO   C30 4156   5.619  10.813   1.599  0.3232  0.5598 -0.3661
   10CHTO   H58 4157   5.667  10.793   1.695  0.3895  1.3976 -0.2235
   10CHTO    N6 4158   5.677  10.940   1.561  0.4440  0.1234 -0.4781
   10CHTO   H45 4159   5.781  10.926   1.536  0.5115 -1.4906  0.6284
   10CHTO   H46 4160   5.666  11.006   1.646  2.2811 -3.0070  2.3663
   10CHTO   C33 4161   5.658  10.701   1.498 -0.2122  0.2972  0.3540
   10CHTO   H61 4162   5.615  10.721   1.398 -0.6084 -1.0198  0.2567
   10CHTO   O18 4163   5.602  10.579   1.547  0.0576  0.3942  0.0256
   10CHTO   C28 4164   5.458  10.567   1.534  0.1066 -0.6839 -0.2834
   10CHTO   H56 4165   5.405  10.593   1.443  1.0309 -0.1010 -0.6596
   10CHTO   C35 4166   5.433  10.415   1.563 -0.6134  0.5138 -0.2100
   10CHTO   O24 4167   5.492  10.335   1.465 -0.2143 -0.0787  0.6030
   10CHTO   H39 4168   5.498  10.248   1.500 -2.0759 -0.1210  0.8521
   10CHTO    O9 4169   5.805  10.691   1.475 -0.1530 -0.3035 -0.2666
   10CHTO   C13 4170   5.851  10.600   1.357 -0.1158  0.0667 -0.0393
   10CHTO   H26 4171   5.798  10.632   1.265 -1.9500  1.6633  1.5268
   10CHTO   C11 4172   5.818  10.453   1.396  0.1014  0.2155  0.3225
   10CHTO   H24 4173   5.710  10.432   1.397 -0.3076  2.0873 -1.3003
   10CHTO    O8 4174   5.850  10.431   1.537  0.0323  0.0385  0.2582
   10CHTO    H3 4175   5.842  10.340   1.557 -0.6857 -0.3208 -1.6159
   10CHTO    C9 4176   5.890  10.351   1.300  0.9178 -0.7064  0.3914
   10CHTO   H22 4177   5.852  10.371   1.199  0.1173 -0.2179  0.7782
   10CHTO    N2 4178   5.849  10.210   1.331 -0.0810  0.8757 -0.0078
   10CHTO   H10 4179   5.883  10.167   1.424 -1.7252  1.0277  0.6997
   10CHTO   H11 4180   5.874  10.141   1.252 -0.8994  0.1590  0.3443
   10CHTO    C7 4181   6.042  10.376   1.314 -0.4637  0.0835 -0.2378
   10CHTO   H20 4182   6.096  10.311   1.243  0.7583 -1.9550  2.4667
   10CHTO    O4 4183   6.073  10.512   1.271 -0.4759  0.4442  0.3732
   10CHTO   C14 4184   6.003  10.627   1.324 -0.2484  0.1020 -0.4087
   10CHTO   H27 4185   6.001  10.687   1.230 -1.0495  0.6322 -0.0521
   10CHTO   C18 4186   6.081  10.707   1.432 -0.4633 -0.4790  0.2276
   10CHTO   O13 4187   6.111  10.638   1.553 -0.1368 -0.1934  0.0475
   10CHTO    H7 4188   6.161  10.688   1.613  3.2092 -2.2953 -0.8598
   10CHTO    O2 4189   6.108  10.339   1.467  0.1737 -0.0158 -0.5490
   10CHTO    C1 4190   6.242  10.285   1.474  0.0290  0.3030  0.5370
   10CHTO   H14 4191   6.284  10.307   1.574 -0.4944 -1.3590  1.1386
   10CHTO    C2 4192   6.349  10.329   1.365  0.0545  0.2396  0.8670
   10CHTO   H15 4193   6.292  10.318   1.272 -1.0834 -0.8923  1.6725
   10CHTO    O6 4194   6.373  10.471   1.395 -0.2435 -0.6177 -0.1685
   10CHTO    H1 4195   6.350  10.527   1.323  1.0456  1.8105  1.2259
   10CHTO    C3 4196   6.490  10.242   1.368 -0.3867 -0.2405 -0.4171
   10CHTO   H16 4197   6.548  10.271   1.457 -1.5453 -1.0448  0.6299
   10CHTO    N1 4198   6.571  10.285   1.248  0.9250  0.4290  0.6147
   10CHTO    H8 4199   6.623  10.202   1.204  0.4981  0.1882  0.5671
   10CHTO    H9 4200   6.512  10.336   1.173  0.6026  1.8911  1.8315
   10CHTO    C4 4201   6.463  10.086   1.387 -0.3541 -0.3037  0.2384
   10CHTO   H17 4202   6.425  10.048   1.293 -1.6152  0.4813  0.4115
   10CHTO    O1 4203   6.369  10.067   1.491 -0.5558  0.2492 -0.4696
   10CHTO    C5 4204   6.234  10.125   1.479  0.2165 -0.1122 -0.0552
   10CHTO   H18 4205   6.198  10.081   1.385  1.9155 -3.6669  0.8743
   10CHTO   C16 4206   6.149  10.083   1.596  0.1783 -0.1960  0.5200
   10CHTO   O11 4207   6.135   9.936   1.604 -0.4274 -0.5603  0.7752
   10CHTO    H5 4208   6.212   9.892   1.633  0.7602  0.9546 -0.0199
   10CHTO    O3 4209   6.586  10.019   1.425 -0.1281  0.1644  0.4166
   10CHTO    C6 4210   6.588   9.871   1.394 -0.3833 -0.2742 -1.2192
   10CHTO   H19 4211   6.494   9.822   1.419 -2.3207  3.6379 -0.3444
   10CHTO    C8 4212   6.625   9.831   1.245  0.4073 -0.3196  0.4417
   10CHTO   H21 4213   6.704   9.900   1.216  1.0450 -1.2643 -0.1143
   10CHTO    O7 4214   6.508   9.864   1.174 -0.3397 -0.0130  0.0723
   10CHTO    H2 4215   6.518   9.947   1.132 -1.1253  0.5165  0.8933
   10CHTO   C12 4216   6.667   9.683   1.230 -0.0156  0.3104  0.1328
   10CHTO   H25 4217   6.580   9.623   1.265 -0.8604  0.1471 -2.1794
   10CHTO    N3 4218   6.698   9.651   1.086  0.3252  0.5215  0.3320
   10CHTO   H12 4219   6.790   9.688   1.044  0.5096 -0.7103 -0.3699
   10CHTO   H13 4220   6.611   9.662   1.023 -0.0936  1.9026  1.1455
   10CHTO   C15 4221   6.782   9.660   1.330 -0.3867 -0.3411  0.1070
   10CHTO   H28 4222   6.862   9.732   1.313  0.9161 -1.8455 -0.3093
   10CHTO   O10 4223   6.861   9.518   1.333  0.1170  0.3017  0.1114
   10CHTO    H4 4224   6.952   9.515   1.354  0.1995 -1.2296 -0.4102
   10CHTO    O5 4225   6.731   9.679   1.467  0.0410  0.6126  0.3569
   10CHTO   C10 4226   6.696   9.819   1.501 -0.2239 -0.4030 -0.6544
   10CHTO   H23 4227   6.783   9.885   1.493 -0.8338  0.4061 -0.6176
   10CHTO   C17 4228   6.648   9.824   1.648 -0.2367  0.1344  0.3804
   10CHTO   O12 4229   6.752   9.758   1.723 -0.1962  0.6999  0.2212
   10CHTO    H6 4230   6.724   9.748   1.813  0.0540 -3.5792 -0.0804
   11CHTO  H203 4231   5.848   4.918   0.980  1.0508 -0.0164  1.0436
   11CHTO   O82 4232   5.851   5.011   0.967  0.2245 -0.0872  0.2294
   11CHTO  C123 4233   5.831   5.062   1.100 -0.0675 -0.2852 -0.2118
   11CHTO  H227 4234   5.914   5.025   1.162 -0.6492  0.8971  1.3153
   11CHTO   O77 4235   5.845   5.201   1.086 -0.0102 -0.7174 -0.3568
   11CHTO  C118 4236   5.829   5.282   1.209  0.4477 -0.2226 -0.2648
   11CHTO  H222 4237   5.898   5.250   1.288  0.0552 -0.1645  0.1044
   11CHTO  C125 4238   5.860   5.435   1.167 -0.1816  0.7844 -0.2188
   11CHTO   O84 4239   5.884   5.514   1.288 -0.2327  0.6422 -0.4658
   11CHTO  H205 4240   5.808   5.565   1.307 -1.7155 -0.8986 -2.0614
   11CHTO  C114 4241   5.684   5.266   1.260 -0.2480 -0.1488  0.7071
   11CHTO  H218 4242   5.616   5.284   1.176  1.1268 -3.2769 -1.2238
   11CHTO  C116 4243   5.655   5.115   1.282  0.5512  0.1917  0.1054
   11CHTO  H220 4244   5.724   5.076   1.359 -1.3063 -0.5734  1.4294
   11CHTO   O79 4245   5.513   5.093   1.320 -0.1733  0.0210  0.5156
   11CHTO  H201 4246   5.461   5.166   1.292  1.3447  0.4432 -1.3196
   11CHTO  C120 4247   5.688   5.033   1.150  0.3561 -0.0593 -0.0523
   11CHTO  H224 4248   5.622   5.073   1.070 -0.3842  1.6204  1.3506
   11CHTO   N21 4249   5.663   4.885   1.162  0.4709  0.1743  0.0873
   11CHTO  H211 4250   5.736   4.827   1.108 -1.8602 -0.5961 -2.3290
   11CHTO  H212 4251   5.566   4.871   1.117  0.4891  3.7644 -1.2116
   11CHTO   O75 4252   5.676   5.346   1.370  0.8561  0.2877  0.4425
   11CHTO  C112 4253   5.563   5.437   1.410 -0.6311 -0.1492 -0.5669
   11CHTO  H216 4254   5.505   5.391   1.492 -0.6991  0.1691 -0.4341
   11CHTO   O73 4255   5.484   5.464   1.292 -0.1629  0.3890  0.1088
   11CHTO  C113 4256   5.384   5.566   1.307 -0.1484 -0.1038 -0.3571
   11CHTO  H217 4257   5.314   5.530   1.385 -0.6909  0.9643 -0.3517
   11CHTO  C124 4258   5.299   5.582   1.180  0.6270  0.2837 -0.8713
   11CHTO   O83 4259   5.218   5.467   1.144  0.0837 -0.1836  0.3040
   11CHTO  H204 4260   5.212   5.475   1.051 -0.9671 -0.8410  0.3091
   11CHTO  C109 4261   5.446   5.701   1.359  0.7642 -0.1553  0.1560
   11CHTO  H213 4262   5.509   5.736   1.276 -0.8794 -0.8847 -1.4439
   11CHTO  C110 4263   5.526   5.674   1.489 -0.7294  0.2090  0.0658
   11CHTO  H214 4264   5.452   5.657   1.567  0.8428  1.1493  1.7821
   11CHTO   O78 4265   5.580   5.790   1.550  0.3975  0.2363 -0.0554
   11CHTO  H200 4266   5.505   5.844   1.567  1.0638  1.5060 -0.9841
   11CHTO  C111 4267   5.628   5.564   1.475 -0.6687  0.5975 -0.1101
   11CHTO  H215 4268   5.715   5.603   1.421 -1.1148  1.5144 -0.1681
   11CHTO   N19 4269   5.681   5.523   1.608 -0.6296 -0.1675 -0.1031
   11CHTO  H207 4270   5.766   5.582   1.640  0.0408 -1.5642  0.7681
   11CHTO  H208 4271   5.601   5.488   1.672 -0.6308 -2.6154 -1.3474
   11CHTO   O74 4272   5.342   5.794   1.386 -0.3222 -0.3662  0.2030
   11CHTO  C115 4273   5.347   5.934   1.315 -0.1850 -0.2224 -0.2292
   11CHTO  H219 4274   5.417   5.931   1.231  0.7997 -1.5232  0.6046
   11CHTO   O76 4275   5.187   5.967   1.244 -0.6821 -0.0219  0.3449
   11CHTO  C122 4276   5.092   5.995   1.353 -0.1823  0.3919  0.8036
   11CHTO  H226 4277   5.067   5.897   1.393 -1.4559  0.8807  1.2464
   11CHTO  C126 4278   4.957   6.039   1.279 -0.3374  0.1590  0.1117
   11CHTO   O85 4279   4.847   6.034   1.369  0.5340  0.1832  0.0677
   11CHTO  H206 4280   4.864   6.087   1.444 -0.4044  1.8407 -0.8783
   11CHTO  C121 4281   5.133   6.101   1.460  0.9881 -0.0458  0.4259
   11CHTO  H225 4282   5.054   6.178   1.450  0.2373 -0.9493 -0.7377
   11CHTO   O81 4283   5.124   6.044   1.592 -0.8520  0.0196  0.8467
   11CHTO  H202 4284   5.147   5.953   1.597  1.9671  0.7042  1.3956
   11CHTO  C119 4285   5.272   6.151   1.423  0.1630  0.2280  0.0204
   11CHTO  H223 4286   5.253   6.183   1.320 -0.2483  0.1428  0.0659
   11CHTO  C117 4287   5.384   6.044   1.423 -0.6204  0.2081  0.1634
   11CHTO  H221 4288   5.401   5.997   1.519 -0.0967 -1.4314 -0.7007
   11CHTO   N20 4289   5.518   6.107   1.382 -0.0230  0.0590 -0.5062
   11CHTO  H209 4290   5.509   6.196   1.322 -2.0017  0.4482  0.3376
   11CHTO  H210 4291   5.579   6.110   1.471 -0.9742 -3.8116  0.3683
   11CHTO   O80 4292   5.295   6.287   1.497  0.2233  0.0176 -0.4360
   11CHTO  C103 4293   5.318   6.292   1.659  0.2575  0.2823  0.3587
   11CHTO  H190 4294   5.287   6.197   1.702  1.6533  0.0293  0.8365
   11CHTO  C101 4295   5.470   6.326   1.699 -0.1467 -0.5018 -0.1141
   11CHTO  H188 4296   5.503   6.402   1.628 -0.9783  1.4249  1.5070
   11CHTO   O68 4297   5.553   6.193   1.702 -0.1114 -0.3468  0.3205
   11CHTO  H168 4298   5.644   6.216   1.702 -0.7919  2.6930 -2.2626
   11CHTO   C99 4299   5.484   6.388   1.844 -0.2488 -0.4359  0.3949
   11CHTO  H186 4300   5.460   6.309   1.919  0.8796 -1.2765 -0.1041
   11CHTO   N17 4301   5.620   6.435   1.872 -0.8298 -0.3843 -0.1227
   11CHTO  H174 4302   5.626   6.453   1.978 -0.4737 -0.4384 -0.1316
   11CHTO  H175 4303   5.643   6.517   1.805  2.4374 -3.4336 -2.9789
   11CHTO   C97 4304   5.378   6.501   1.876  0.2492  0.1323  0.0776
   11CHTO  H184 4305   5.394   6.590   1.813  0.7394  1.3349  1.8678
   11CHTO   O64 4306   5.247   6.447   1.855 -0.0405  0.0097  0.2168
   11CHTO  C104 4307   5.217   6.403   1.720 -0.1002 -0.7873  0.0946
   11CHTO  H191 4308   5.218   6.489   1.654  0.6781 -2.0349 -1.5607
   11CHTO  C108 4309   5.072   6.348   1.701  1.1021 -0.2541 -0.4992
   11CHTO   O71 4310   5.037   6.239   1.784 -0.2221 -0.3335 -0.2266
   11CHTO  H171 4311   5.004   6.272   1.865 -0.2016  0.8073 -0.6689
   11CHTO   O62 4312   5.367   6.540   2.015  0.0902  0.0432 -0.3637
   11CHTO   C91 4313   5.316   6.670   2.039  0.2668 -0.1037 -0.2358
   11CHTO  H178 4314   5.257   6.703   1.953  1.1611  2.1845 -0.0086
   11CHTO   C92 4315   5.439   6.768   2.044 -0.3612 -0.8377  0.3225
   11CHTO  H179 4316   5.518   6.738   1.973  0.4428 -0.3263  0.9833
   11CHTO   O66 4317   5.402   6.899   2.002 -0.0595  0.0576  0.2607
   11CHTO  H166 4318   5.394   6.908   1.909  1.5718 -0.3244  0.0659
   11CHTO   C93 4319   5.510   6.774   2.185 -0.1281 -0.0716 -0.6929
   11CHTO  H180 4320   5.570   6.865   2.199 -0.4138  0.1116 -0.6393
   11CHTO   N16 4321   5.607   6.664   2.211 -0.5683  0.0587 -0.0167
   11CHTO  H172 4322   5.670   6.692   2.294  0.3185  3.0941 -1.6413
   11CHTO  H173 4323   5.664   6.647   2.121 -1.0443  1.7030 -0.6502
   11CHTO   C94 4324   5.402   6.776   2.306  0.0415 -0.2841 -0.0727
   11CHTO  H181 4325   5.397   6.678   2.355  1.8602 -0.5383 -0.3528
   11CHTO   O61 4326   5.267   6.792   2.255 -0.1270  0.2101 -0.2375
   11CHTO   C95 4327   5.227   6.684   2.170  0.1241  0.1471 -0.7193
   11CHTO  H182 4328   5.240   6.588   2.221 -1.1528  0.0269 -0.6050
   11CHTO  C106 4329   5.077   6.704   2.131  0.0994  0.3151 -0.3803
   11CHTO   O69 4330   5.031   6.581   2.067 -0.1036  0.0654  0.1011
   11CHTO  H169 4331   4.987   6.532   2.134 -0.2729 -3.1491 -2.2608
   11CHTO   O63 4332   5.442   6.892   2.416  0.2420  0.0204  0.0630
   11CHTO   C96 4333   5.581   6.894   2.488 -0.5585 -0.2605 -0.2087
   11CHTO  H183 4334   5.655   6.867   2.412  0.1764 -1.7790  1.0167
   11CHTO   C98 4335   5.579   6.800   2.613 -0.9168 -0.5464  0.5638
   11CHTO  H185 4336   5.492   6.831   2.673 -0.2999  0.3869  0.9893
   11CHTO   O67 4337   5.550   6.669   2.572 -0.1775 -0.0227 -0.4273
   11CHTO  H167 4338   5.506   6.614   2.634 -0.8976  0.0296 -0.8774
   11CHTO  C102 4339   5.709   6.817   2.698 -0.0956  0.8066  0.7397
   11CHTO  H189 4340   5.794   6.790   2.633  0.3283 -1.3615  2.1260
   11CHTO   N18 4341   5.723   6.726   2.810 -0.1061 -0.1326 -0.4397
   11CHTO  H176 4342   5.826   6.698   2.825 -0.6571 -1.3354  1.2389
   11CHTO  H177 4343   5.688   6.772   2.901 -1.8567  0.9811 -1.6389
   11CHTO  C105 4344   5.727   6.973   2.723 -0.5525 -0.0967  0.1579
   11CHTO  H192 4345   5.652   7.000   2.798  0.1474 -0.5548  1.0379
   11CHTO   O65 4346   5.722   7.050   2.603 -0.3227 -0.8730 -0.1463
   11CHTO  C100 4347   5.602   7.039   2.535  0.4558 -0.1777 -0.2586
   11CHTO  H187 4348   5.520   7.061   2.606 -0.1969 -2.4525 -0.2564
   11CHTO  C107 4349   5.603   7.145   2.424 -0.3681  0.1502 -0.7835
   11CHTO   O70 4350   5.485   7.156   2.354 -0.0031 -0.0435  0.5193
   11CHTO  H170 4351   5.404   7.126   2.391  0.3368 -1.6884  0.0023
   11CHTO   O57 4352   5.874   6.982   2.787  0.5544  0.3766 -0.1612
   11CHTO   C85 4353   5.892   7.092   2.874  0.0001 -0.0255 -0.3725
   11CHTO  H157 4354   5.794   7.111   2.923 -0.1825 -0.9127 -0.3944
   11CHTO   C83 4355   5.927   7.219   2.793  0.2769  0.3743  0.1884
   11CHTO  H155 4356   5.852   7.238   2.716  0.6121 -1.3584 -0.5833
   11CHTO   O56 4357   6.042   7.197   2.713 -0.1307  0.2041  0.3208
   11CHTO  H135 4358   6.069   7.271   2.662 -0.7437  0.1476 -0.0968
   11CHTO   C81 4359   5.942   7.343   2.888  0.4779  1.2463  0.5229
   11CHTO  H153 4360   5.854   7.345   2.953  1.0126 -1.9358  1.4301
   11CHTO   N14 4361   5.938   7.473   2.823  0.1344  0.2141  0.1809
   11CHTO  H141 4362   6.017   7.483   2.753  1.2236 -0.5887  1.2740
   11CHTO  H142 4363   5.843   7.493   2.778  0.6525  0.9214 -0.6186
   11CHTO   C79 4364   6.067   7.314   2.980 -0.4346  0.2774  0.2808
   11CHTO  H151 4365   6.073   7.396   3.051  0.1593 -1.4031  2.2067
   11CHTO   O52 4366   6.046   7.185   3.055 -0.5824 -0.1519  0.3437
   11CHTO   C86 4367   6.004   7.066   2.980 -0.3561 -0.4240 -0.0261
   11CHTO  H158 4368   6.095   7.040   2.921  1.7394  0.2900  2.7767
   11CHTO   C90 4369   5.978   6.957   3.078 -0.5893 -0.1167  0.1529
   11CHTO   O60 4370   5.974   6.826   3.024  0.4225 -0.1055  0.3574
   11CHTO  H138 4371   5.998   6.769   3.095  0.9889 -0.5242 -0.1693
   11CHTO   O50 4372   6.187   7.297   2.902 -0.1636 -0.1693 -0.4387
   11CHTO   C73 4373   6.321   7.260   2.938  0.3632  0.3163  0.2619
   11CHTO  H145 4374   6.314   7.182   3.014 -0.7111  0.2823  0.1294
   11CHTO   C74 4375   6.404   7.383   2.998 -0.1483  0.0324  0.3565
   11CHTO  H146 4376   6.346   7.419   3.084 -1.5669  1.1523 -1.0358
   11CHTO   O54 4377   6.525   7.332   3.050  0.0790 -0.0396 -0.0072
   11CHTO  H133 4378   6.542   7.242   3.028 -1.1702 -0.5728  1.0926
   11CHTO   C75 4379   6.424   7.499   2.889 -0.3816  0.5448  0.1104
   11CHTO  H147 4380   6.325   7.539   2.861 -0.9618 -1.6513 -1.1118
   11CHTO   N13 4381   6.517   7.608   2.928 -0.0822  0.8691 -0.2728
   11CHTO  H139 4382   6.618   7.574   2.942 -1.0276 -1.3392  1.5151
   11CHTO  H140 4383   6.491   7.667   3.015 -0.1728  1.0485 -0.4189
   11CHTO   C76 4384   6.468   7.431   2.759  0.0007  0.0824  0.0802
   11CHTO  H148 4385   6.573   7.402   2.765 -0.1550 -0.5676 -0.3647
   11CHTO   O49 4386   6.396   7.319   2.724  0.4058 -0.3062 -0.2093
   11CHTO   C77 4387   6.401   7.213   2.820  0.6235  0.0915 -0.1780
   11CHTO  H149 4388   6.504   7.196   2.848 -0.1401  1.7097  3.8839
   11CHTO   C88 4389   6.339   7.085   2.758 -0.0326 -0.1738 -0.3213
   11CHTO   O58 4390   6.344   6.973   2.865  0.0403  0.1341 -0.3570
   11CHTO  H136 4391   6.331   6.886   2.832 -1.5178  0.2100 -0.0151
   11CHTO   O51 4392   6.445   7.531   2.640 -0.0328 -0.8062 -0.1346
   11CHTO   C78 4393   6.534   7.511   2.542  0.0735 -0.0233  1.0167
   11CHTO  H150 4394   6.591   7.417   2.552 -1.4114 -1.3437 -2.4964
   11CHTO   C80 4395   6.637   7.628   2.532  0.4944  0.0772 -0.4323
   11CHTO  H152 4396   6.583   7.725   2.525 -1.4168 -0.7803  1.7363
   11CHTO   O55 4397   6.705   7.626   2.665  0.3601  0.7540 -0.4214
   11CHTO  H134 4398   6.745   7.707   2.691  3.4868 -0.0114 -2.5248
   11CHTO   C84 4399   6.738   7.610   2.404 -0.3058 -0.0298 -0.2349
   11CHTO  H156 4400   6.813   7.533   2.423  1.8521  1.3548 -2.7866
   11CHTO   N15 4401   6.820   7.733   2.391 -0.1974 -0.2199  0.3332
   11CHTO  H143 4402   6.757   7.819   2.401  1.7782  1.3427 -0.3703
   11CHTO  H144 4403   6.886   7.729   2.475 -1.1788 -0.5294  1.1036
   11CHTO   C87 4404   6.650   7.586   2.281 -0.5101 -0.1467 -1.0153
   11CHTO  H159 4405   6.595   7.679   2.265  0.3356  0.5747  0.1705
   11CHTO   O53 4406   6.559   7.464   2.310  0.1898 -0.0851  0.3932
   11CHTO   C82 4407   6.459   7.496   2.408  0.3369 -0.0992 -0.4995
   11CHTO  H154 4408   6.401   7.587   2.390 -0.3798 -0.2148  1.0999
   11CHTO   C89 4409   6.351   7.379   2.415  0.2673 -0.3104  0.1442
   11CHTO   O59 4410   6.237   7.410   2.502 -0.1075 -0.5172  0.5978
   11CHTO  H137 4411   6.252   7.414   2.595  1.0445 -1.8699  0.4862
   11CHTO   O45 4412   6.748   7.554   2.146  0.5906 -0.1901 -0.6152
   11CHTO   C67 4413   6.673   7.492   2.037 -0.1639 -0.6797 -0.4849
   11CHTO  H124 4414   6.611   7.413   2.081 -0.9814 -0.5255 -1.3390
   11CHTO   C65 4415   6.581   7.601   1.964 -0.5989 -0.3555  0.4089
   11CHTO  H122 4416   6.620   7.696   1.998  1.3440 -1.4786  1.3603
   11CHTO   O44 4417   6.445   7.590   2.004  0.1791 -0.2033 -0.1369
   11CHTO  H102 4418   6.442   7.601   2.097  0.6596 -1.2199  0.0062
   11CHTO   C63 4419   6.616   7.599   1.809 -0.0435 -0.6222  0.1246
   11CHTO  H120 4420   6.716   7.640   1.797  0.4314 -2.2297 -1.7255
   11CHTO   N11 4421   6.538   7.696   1.723 -0.3802 -0.4163  0.0294
   11CHTO  H108 4422   6.466   7.748   1.782 -0.5297 -0.4172 -0.1507
   11CHTO  H109 4423   6.607   7.774   1.697 -1.1931 -0.0817 -1.1671
   11CHTO   C61 4424   6.625   7.459   1.753 -0.3570  0.9544  0.3081
   11CHTO  H118 4425   6.658   7.458   1.648  0.8946 -1.9585  0.7041
   11CHTO   O40 4426   6.704   7.365   1.826 -0.0155 -0.0147  0.0511
   11CHTO   C68 4427   6.772   7.418   1.940  0.0196 -0.1260 -0.1357
   11CHTO  H125 4428   6.857   7.480   1.904 -0.2245 -0.1946 -0.8274
   11CHTO   C72 4429   6.832   7.300   2.014  0.5988  0.1973 -0.4705
   11CHTO   O48 4430   6.941   7.237   1.940 -0.9926 -0.3276  0.5532
   11CHTO  H105 4431   6.947   7.146   1.964 -0.5608 -0.0749  1.4226
   11CHTO   O38 4432   6.491   7.399   1.751 -0.1326  0.5383  0.1562
   11CHTO   C55 4433   6.450   7.304   1.648  0.1432  0.1272 -0.0448
   11CHTO  H112 4434   6.533   7.258   1.592  0.8162  1.2376  0.0323
   11CHTO   C56 4435   6.348   7.375   1.549 -0.6766 -0.3024  0.0943
   11CHTO  H113 4436   6.268   7.422   1.608  0.9313  3.7442 -0.7251
   11CHTO   O42 4437   6.427   7.476   1.478 -0.7109  0.2062 -0.1803
   11CHTO  H100 4438   6.517   7.453   1.466 -0.7366 -0.4609  0.8780
   11CHTO   C57 4439   6.271   7.282   1.455  0.2290  0.8442  0.2345
   11CHTO  H114 4440   6.336   7.239   1.379 -0.4504 -1.3264  0.8271
   11CHTO   N10 4441   6.163   7.345   1.368  0.1174 -0.1847 -1.2707
   11CHTO  H106 4442   6.062   7.347   1.408  0.8403 -0.0891  0.5826
   11CHTO  H107 4443   6.192   7.442   1.330  1.2105 -0.5431 -1.3575
   11CHTO   C58 4444   6.214   7.162   1.537  0.1829  0.1791  0.1529
   11CHTO  H115 4445   6.131   7.197   1.602 -0.4773  1.0238 -1.1217
   11CHTO   O37 4446   6.325   7.105   1.610 -0.1095 -0.4102 -0.2520
   11CHTO   C59 4447   6.374   7.183   1.716 -0.1550  0.4041 -0.0009
   11CHTO  H116 4448   6.298   7.213   1.788  1.0445  1.7786  0.7205
   11CHTO   C70 4449   6.474   7.103   1.804 -0.3435 -0.4836 -0.4454
   11CHTO   O46 4450   6.420   7.020   1.912  0.6877 -0.1595 -0.1297
   11CHTO  H103 4451   6.495   6.991   1.960  0.0820 -0.2688  0.7792
   11CHTO   O39 4452   6.138   7.031   1.425 -0.4107 -0.0717  0.8114
   11CHTO   C60 4453   6.013   6.978   1.477 -0.2067  0.2721 -0.2032
   11CHTO  H117 4454   6.021   6.955   1.584  0.4616 -2.2447 -0.7642
   11CHTO   C62 4455   5.906   7.084   1.463  0.3729 -0.2191 -0.7456
   11CHTO  H119 4456   5.937   7.176   1.516 -1.8407 -0.9807  2.0111
   11CHTO   O43 4457   5.881   7.125   1.325  0.0160 -0.2181 -0.6002
   11CHTO  H101 4458   5.877   7.050   1.268  1.4681  0.2402 -1.3388
   11CHTO   C66 4459   5.771   7.040   1.545  0.0199  0.1878 -0.1791
   11CHTO  H123 4460   5.797   7.008   1.646 -1.3243 -0.7053 -0.1123
   11CHTO   N12 4461   5.662   7.144   1.552 -0.1746  0.9379 -0.0377
   11CHTO  H110 4462   5.630   7.160   1.450  1.8448 -0.7581 -0.9712
   11CHTO  H111 4463   5.690   7.239   1.596  0.2107  0.4283  0.8170
   11CHTO   C69 4464   5.723   6.905   1.493  0.3385  0.4062  0.2250
   11CHTO  H126 4465   5.693   6.923   1.388 -0.3796 -0.3838  0.2895
   11CHTO   O41 4466   5.843   6.801   1.495  0.2067 -0.4994 -0.4335
   11CHTO   C64 4467   5.974   6.855   1.405 -0.0468  0.4214 -1.1043
   11CHTO  H121 4468   5.946   6.878   1.300 -0.8145 -1.3060 -1.2866
   11CHTO   C71 4469   6.076   6.743   1.417  0.2822 -0.1077 -0.4039
   11CHTO   O47 4470   6.030   6.636   1.337 -0.5822  0.2690  0.2416
   11CHTO  H104 4471   6.016   6.560   1.390 -3.2733 -0.7410 -1.8022
   11CHTO   O34 4472   5.597   6.849   1.568 -0.6350  0.6136  0.1571
   11CHTO   C49 4473   5.469   6.796   1.579  0.2676  0.5859 -0.0114
   11CHTO   H91 4474   5.476   6.766   1.684  1.7010  0.9929  0.0281
   11CHTO   C47 4475   5.470   6.671   1.493  0.5262 -0.4321  0.2709
   11CHTO   H89 4476   5.378   6.612   1.515  0.9779 -1.5475 -0.7344
   11CHTO   O33 4477   5.587   6.591   1.521 -0.4890 -0.2663 -0.4855
   11CHTO   H70 4478   5.609   6.609   1.611 -0.8919  0.9693 -0.6299
   11CHTO   C45 4479   5.466   6.711   1.335  0.0320 -0.1566  0.3552
   11CHTO   H87 4480   5.552   6.774   1.310 -1.4651  2.1466  0.8176
   11CHTO    N8 4481   5.474   6.590   1.247  0.2204  0.4328  0.6619
   11CHTO   H75 4482   5.388   6.526   1.258  0.7269 -0.9987 -2.8991
   11CHTO   H76 4483   5.497   6.609   1.143 -0.4475 -2.3597 -0.0476
   11CHTO   C43 4484   5.335   6.803   1.306  0.3112 -0.6240  0.5273
   11CHTO   H85 4485   5.339   6.840   1.204 -0.9903 -1.5301  0.1265
   11CHTO   O29 4486   5.329   6.906   1.402 -0.1980 -0.6460  0.0915
   11CHTO   C50 4487   5.351   6.884   1.541 -1.2657  0.1039 -0.3700
   11CHTO   H92 4488   5.369   6.986   1.578  0.9363 -0.1652 -0.6399
   11CHTO   C54 4489   5.223   6.850   1.610  0.1112  0.8117 -0.0502
   11CHTO   O36 4490   5.234   6.851   1.751 -0.0656 -0.2136 -0.0246
   11CHTO   H72 4491   5.167   6.906   1.785  0.7421  0.5781  0.3297
   11CHTO   O27 4492   5.217   6.722   1.310  0.0731  0.1355 -0.4758
   11CHTO   C37 4493   5.069   6.708   1.323 -0.3609 -0.1782 -0.1504
   11CHTO   H79 4494   5.032   6.712   1.427  1.1093  1.5415  0.3400
   11CHTO   C38 4495   4.995   6.827   1.256  0.1005  0.4315 -0.2774
   11CHTO   H80 4496   5.028   6.835   1.151  3.3286 -0.7326  0.5989
   11CHTO   O31 4497   5.043   6.951   1.316 -0.1857 -0.2379 -1.0638
   11CHTO   H68 4498   5.116   6.986   1.268 -0.5388  2.9131  0.6374
   11CHTO   C39 4499   4.843   6.819   1.264  0.5627  0.1108  0.2764
   11CHTO   H81 4500   4.828   6.816   1.371  1.1259 -5.6282  0.3744
   11CHTO    N7 4501   4.761   6.933   1.201  0.5630  0.0898 -0.3831
   11CHTO   H73 4502   4.662   6.926   1.245  0.5796 -0.0624 -0.3696
   11CHTO   H74 4503   4.810   7.027   1.223 -1.7170  1.2398 -0.1072
   11CHTO   C40 4504   4.794   6.671   1.210  0.2492 -0.1441 -0.1033
   11CHTO   H82 4505   4.794   6.671   1.101 -0.1893  1.2291 -0.1076
   11CHTO   O26 4506   4.873   6.570   1.268 -0.2791 -0.5782 -0.1632
   11CHTO   C41 4507   5.021   6.585   1.253 -0.2623  0.1987 -1.0147
   11CHTO   H83 4508   5.050   6.587   1.147  1.1596 -0.6694 -0.6531
   11CHTO   C52 4509   5.095   6.464   1.307 -0.6067  0.2931  0.6103
   11CHTO   O35 4510   5.043   6.360   1.249 -0.7443  0.2929  0.2931
   11CHTO   H71 4511   5.100   6.323   1.185 -0.4827 -0.0303  0.7094
   11CHTO   O28 4512   4.658   6.648   1.265 -0.4883 -0.0855  0.2898
   11CHTO   C42 4513   4.565   6.537   1.227 -0.0258 -0.0017 -0.2294
   11CHTO   H84 4514   4.623   6.471   1.163 -0.8170 -2.1399  1.1942
   11CHTO   C44 4515   4.436   6.565   1.150 -0.3826  0.0041 -0.5522
   11CHTO   H86 4516   4.367   6.616   1.217  1.8749  0.0498  1.7948
   11CHTO   O32 4517   4.473   6.658   1.044 -0.3778 -0.4240  0.0539
   11CHTO   H69 4518   4.412   6.729   1.036 -0.2742 -0.1307  1.7402
   11CHTO   C48 4519   4.353   6.438   1.092 -0.6946 -0.7057 -0.0463
   11CHTO   H90 4520   4.412   6.393   1.011 -1.1409  0.7034 -1.1874
   11CHTO    N9 4521   4.223   6.469   1.021  0.0545 -0.4631 -0.0940
   11CHTO   H77 4522   4.170   6.561   1.042  0.8661 -0.2959  1.2577
   11CHTO   H78 4523   4.227   6.441   0.917 -1.7853 -0.2784 -0.2296
   11CHTO   C51 4524   4.337   6.329   1.202 -0.0935  0.5863 -0.2370
   11CHTO   H93 4525   4.248   6.347   1.262 -0.8566 -1.5494 -0.6713
   11CHTO   O30 4526   4.455   6.313   1.283  0.1290 -0.2497  0.1680
   11CHTO   C46 4527   4.522   6.452   1.342 -0.5680  0.0870  0.1705
   11CHTO   H88 4528   4.452   6.509   1.403 -2.9658 -0.7143 -1.7616
   11CHTO   C53 4529   4.639   6.403   1.422  0.3241  0.0331  0.3138
   11CHTO   O72 4530   4.691   6.514   1.502 -0.0195  0.1383  0.3332
   11CHTO  H199 4531   4.742   6.571   1.447 -0.3781  0.7665  0.6397
   11CHTO   O22 4532   4.324   6.201   1.145  0.0829 -0.5005  0.2966
   11CHTO   C31 4533   4.298   6.093   1.233  0.0687  0.9563 -0.2586
   11CHTO   H59 4534   4.347   6.116   1.330  0.3253  0.1500 -0.1882
   11CHTO   C29 4535   4.149   6.070   1.262 -0.1517  0.2861 -0.3528
   11CHTO   H57 4536   4.092   6.077   1.168 -0.3321 -0.9003 -0.3405
   11CHTO   O21 4537   4.097   6.182   1.331 -0.5721  0.2100 -0.3282
   11CHTO   H37 4538   4.021   6.220   1.291  0.1078  1.6216 -0.3166
   11CHTO   C27 4539   4.111   5.935   1.334  0.0089  0.4078  0.6861
   11CHTO   H55 4540   4.140   5.942   1.440 -0.1819 -1.0627  0.8466
   11CHTO    N5 4541   3.962   5.912   1.328 -0.2936 -0.2603 -0.1609
   11CHTO   H43 4542   3.950   5.816   1.280 -0.5949  0.3107 -1.2536
   11CHTO   H44 4543   3.924   5.896   1.427  1.0897  1.7106  0.7358
   11CHTO   C25 4544   4.201   5.814   1.291 -0.6473  0.4020  0.5385
   11CHTO   H53 4545   4.186   5.775   1.189  1.6056  2.3010 -0.5816
   11CHTO   O17 4546   4.342   5.857   1.280  0.9099  0.2060 -0.3984
   11CHTO   C32 4547   4.365   5.961   1.184 -0.8700 -0.7551  0.0238
   11CHTO   H60 4548   4.333   5.941   1.081  1.4979  2.5176 -1.4562
   11CHTO   C36 4549   4.510   5.994   1.180 -0.3164 -0.1900  0.9027
   11CHTO   O25 4550   4.586   5.876   1.156 -0.2479 -0.6599 -0.1310
   11CHTO   H40 4551   4.677   5.887   1.141 -0.5710 -0.0043 -1.7078
   11CHTO   O15 4552   4.181   5.697   1.386 -0.1254 -0.3923  0.9946
   11CHTO   C19 4553   4.202   5.569   1.454  0.3007 -0.4034  0.0344
   11CHTO   H47 4554   4.275   5.603   1.529 -2.2571  4.5827  0.4475
   11CHTO   C20 4555   4.073   5.519   1.525  1.3098  0.3609  0.0567
   11CHTO   H48 4556   3.986   5.523   1.457  0.6612 -1.2581  0.7652
   11CHTO   O19 4557   4.054   5.624   1.622 -0.1191 -0.3206 -0.0010
   11CHTO   H35 4558   4.094   5.596   1.702 -1.2799 -4.9131 -0.9054
   11CHTO   C21 4559   4.087   5.371   1.586  0.2004  0.3694 -1.1554
   11CHTO   H49 4560   4.166   5.377   1.661  0.0159  2.3704 -1.0751
   11CHTO    N4 4561   3.960   5.324   1.644  0.0773  0.1648  0.2696
   11CHTO   H41 4562   3.975   5.226   1.687 -0.9098 -0.9929 -1.9333
   11CHTO   H42 4563   3.882   5.319   1.569  1.9942 -2.6795 -1.6525
   11CHTO   C22 4564   4.139   5.290   1.465  0.4856  0.1649  0.1352
   11CHTO   H50 4565   4.069   5.291   1.381 -0.3617 -1.0224  0.8146
   11CHTO   O14 4566   4.268   5.338   1.428  0.6683 -0.3623 -0.3810
   11CHTO   C23 4567   4.274   5.467   1.361  0.4220  0.7765 -0.5165
   11CHTO   H51 4568   4.228   5.469   1.261  0.2259  0.5584 -0.4280
   11CHTO   C34 4569   4.419   5.517   1.332  0.3047  0.5497 -0.2395
   11CHTO   O23 4570   4.506   5.504   1.444  0.4267  0.0620 -0.0480
   11CHTO   H38 4571   4.511   5.583   1.496 -1.2616 -1.2955  2.2536
   11CHTO   O16 4572   4.172   5.153   1.496  0.4191 -0.0876 -0.3895
   11CHTO   C24 4573   4.112   5.054   1.370  0.5302  0.6402  0.1387
   11CHTO   H52 4574   4.089   5.112   1.281  0.7583  1.0187  0.3234
   11CHTO   C26 4575   3.990   4.971   1.412 -0.4543 -0.0636 -0.7767
   11CHTO   H54 4576   4.017   4.909   1.500  3.5041  0.9719 -1.1712
   11CHTO   O20 4577   3.887   5.061   1.459 -0.5644  0.2762  0.0682
   11CHTO   H36 4578   3.846   5.026   1.535  1.0867  1.2777  1.4862
   11CHTO   C30 4579   3.940   4.876   1.301  0.3428 -0.0820 -0.4963
   11CHTO   H58 4580   3.899   4.939   1.220 -0.8910 -2.1907 -1.5666
   11CHTO    N6 4581   3.821   4.798   1.345 -0.0678 -0.1728  0.4251
   11CHTO   H45 4582   3.799   4.831   1.446  0.3370  0.2192  0.3873
   11CHTO   H46 4583   3.852   4.695   1.355  0.3201 -0.1134 -0.1811
   11CHTO   C33 4584   4.053   4.793   1.234 -0.0401  0.3495  0.1448
   11CHTO   H61 4585   4.077   4.703   1.292 -1.4594 -0.1530 -0.0348
   11CHTO   O18 4586   4.179   4.865   1.219  0.4234 -0.0685  0.4984
   11CHTO   C28 4587   4.220   4.947   1.328  0.5135 -0.1176  0.2374
   11CHTO   H56 4588   4.236   4.880   1.413 -0.3505 -0.8310 -0.1529
   11CHTO   C35 4589   4.353   5.024   1.292  0.4838 -0.2730 -0.3043
   11CHTO   O24 4590   4.470   4.943   1.290 -0.0304 -0.3610  0.2016
   11CHTO   H39 4591   4.541   4.997   1.259 -0.1765 -1.0839 -1.3957
   11CHTO    O9 4592   4.010   4.747   1.103  0.4512  0.2689 -0.1539
   11CHTO   C13 4593   3.999   4.859   1.002 -0.6571 -0.0954  1.1269
   11CHTO   H26 4594   4.006   4.957   1.052 -0.7518 -0.7324  2.3982
   11CHTO   C11 4595   3.864   4.844   0.919 -0.7172 -0.3496  0.0090
   11CHTO   H24 4596   3.779   4.846   0.989  0.7073 -0.3989  1.8154
   11CHTO    O8 4597   3.861   4.717   0.860  0.1196  0.0467 -0.1351
   11CHTO    H3 4598   3.943   4.704   0.815  1.1749  0.8549  1.5031
   11CHTO    C9 4599   3.843   4.969   0.826 -0.6587 -0.4590  0.4773
   11CHTO   H22 4600   3.818   5.056   0.889  0.5068  1.0460 -1.0919
   11CHTO    N2 4601   3.730   4.943   0.734  0.2983  0.0215  0.0833
   11CHTO   H10 4602   3.654   5.020   0.735 -0.7275 -0.9646 -0.6714
   11CHTO   H11 4603   3.766   4.933   0.633  0.4705  0.6779  0.0797
   11CHTO    C7 4604   3.987   5.005   0.764  0.4179  0.0210 -0.0900
   11CHTO   H20 4605   4.024   5.086   0.829 -0.4574  2.3507 -2.3862
   11CHTO    O4 4606   4.082   4.896   0.770 -0.0417  0.1058  0.8626
   11CHTO   C14 4607   4.124   4.859   0.903  0.3602  0.2967 -0.0211
   11CHTO   H27 4608   4.191   4.943   0.929  1.1867  0.3092 -2.1128
   11CHTO   C18 4609   4.210   4.733   0.901 -0.2348  0.2659  0.2828
   11CHTO   O13 4610   4.345   4.748   0.853 -0.3167  0.2988  0.1248
   11CHTO    H7 4611   4.338   4.774   0.763 -0.1318  0.6459  0.2093
   11CHTO    O2 4612   3.986   5.072   0.596  0.0894  0.0338  0.5260
   11CHTO    C1 4613   4.044   5.201   0.578 -0.2376 -0.2345 -0.6290
   11CHTO   H14 4614   4.126   5.211   0.652 -0.5944 -2.1142  0.0688
   11CHTO    C2 4615   3.947   5.313   0.596 -0.7905  0.3052 -0.1531
   11CHTO   H15 4616   3.874   5.307   0.514 -1.7644  0.9770  0.6413
   11CHTO    O6 4617   3.883   5.298   0.726  0.6150 -0.0311 -0.0605
   11CHTO    H1 4618   3.935   5.332   0.797  1.3133 -0.6774 -0.2570
   11CHTO    C3 4619   4.019   5.450   0.576 -0.0762  0.5831  1.4591
   11CHTO   H16 4620   4.082   5.458   0.665  0.6602  1.2721  0.8835
   11CHTO    N1 4621   3.918   5.563   0.567  0.1468 -0.4744 -0.0808
   11CHTO    H8 4622   3.936   5.642   0.639  0.1351 -0.4619 -0.0922
   11CHTO    H9 4623   3.907   5.619   0.475  1.4872  0.8770  0.5596
   11CHTO    C4 4624   4.118   5.441   0.449 -0.4781  0.1396 -0.6017
   11CHTO   H17 4625   4.061   5.465   0.359 -0.8936  1.7773  0.0880
   11CHTO    O1 4626   4.192   5.317   0.439  0.8788 -0.5939  0.1224
   11CHTO    C5 4627   4.114   5.196   0.443  0.3071 -0.0654 -0.2684
   11CHTO   H18 4628   4.039   5.195   0.364  0.8094 -2.6398 -0.7695
   11CHTO   C16 4629   4.206   5.070   0.422 -0.3815  1.0826 -0.2987
   11CHTO   O11 4630   4.307   5.066   0.518  0.1041 -0.2321  0.9824
   11CHTO    H5 4631   4.316   4.979   0.552 -1.8908 -0.7915  0.1497
   11CHTO    O3 4632   4.216   5.545   0.465  0.1925 -0.3938  0.3920
   11CHTO    C6 4633   4.285   5.591   0.338 -0.9332  0.5025 -0.0973
   11CHTO   H19 4634   4.262   5.524   0.256  0.2636  0.2281 -0.2268
   11CHTO    C8 4635   4.241   5.736   0.295  0.4691 -0.2103 -0.0948
   11CHTO   H21 4636   4.265   5.810   0.371 -0.3673 -0.8342  0.7861
   11CHTO    O7 4637   4.098   5.732   0.275  0.2385 -0.1894 -0.1012
   11CHTO    H2 4638   4.068   5.810   0.232 -1.4921 -2.1533 -2.6583
   11CHTO   C12 4639   4.329   5.774   0.167  0.7399 -0.8213 -0.1036
   11CHTO   H25 4640   4.297   5.710   0.082  1.6097  0.6770 -1.5899
   11CHTO    N3 4641   4.292   5.918   0.129 -0.3549 -0.0599  0.5189
   11CHTO   H12 4642   4.186   5.920   0.109 -0.1355 -0.2900 -0.7421
   11CHTO   H13 4643   4.341   5.955   0.039 -1.0972 -0.2719  0.0267
   11CHTO   C15 4644   4.483   5.743   0.199  0.1025  0.5806  0.1159
   11CHTO   H28 4645   4.517   5.806   0.281  1.5840 -0.7303  0.5360
   11CHTO   O10 4646   4.571   5.771   0.071  0.4602  0.1996  0.4208
   11CHTO    H4 4647   4.554   5.855   0.034 -2.4957 -1.0280 -1.2504
   11CHTO    O5 4648   4.506   5.608   0.238  0.3862  0.1622 -0.6897
   11CHTO   C10 4649   4.438   5.580   0.365  0.6232  0.1853 -0.2133
   11CHTO   H23 4650   4.467   5.648   0.445  0.9817 -0.7333  0.4522
   11CHTO   C17 4651   4.481   5.443   0.420 -0.1387 -0.4699  0.0256
   11CHTO   O12 4652   4.625   5.438   0.427 -0.1072  0.5215 -0.5124
   11CHTO    H6 4653   4.665   5.438   0.342  0.9822 -2.7992 -0.0502
   12CHTO  H203 4654   5.496  11.676  -0.213  2.6071 -0.3886  1.3987
   12CHTO   O82 4655   5.464  11.717  -0.134 -0.7159  0.0002 -0.0566
   12CHTO  C123 4656   5.452  11.631  -0.021  1.1778  0.0301 -0.2827
   12CHTO  H227 4657   5.465  11.686   0.073  2.3618 -3.8144  1.9194
   12CHTO   O77 4658   5.314  11.593  -0.040 -0.4603  0.3193 -0.3267
   12CHTO  C118 4659   5.258  11.503   0.055 -0.5484 -0.1806  0.1314
   12CHTO  H222 4660   5.281  11.539   0.156  1.1801  0.2883 -0.3999
   12CHTO  C125 4661   5.104  11.510   0.036  0.7817 -0.1767  0.3144
   12CHTO   O84 4662   5.055  11.455  -0.084 -0.4046  0.2568  0.0714
   12CHTO  H205 4663   5.111  11.465  -0.158  1.4633 -1.7467  1.1448
   12CHTO  C114 4664   5.328  11.369   0.048 -0.8858 -0.4408 -0.5514
   12CHTO  H218 4665   5.325  11.340  -0.057 -1.6177 -1.4635 -0.2538
   12CHTO  C116 4666   5.482  11.390   0.070  0.1903  0.0089 -0.6767
   12CHTO  H220 4667   5.506  11.404   0.177  2.2233 -0.4717 -1.0312
   12CHTO   O79 4668   5.551  11.266   0.052  0.5734  0.2762 -0.0537
   12CHTO  H201 4669   5.511  11.221  -0.020 -2.3010  0.2667  1.4656
   12CHTO  C120 4670   5.541  11.502  -0.026  0.0502  0.0713  0.1589
   12CHTO  H224 4671   5.537  11.445  -0.121 -0.2511  0.0665  0.1760
   12CHTO   N21 4672   5.678  11.540   0.003  0.5837  0.1834  0.2275
   12CHTO  H211 4673   5.704  11.645   0.011 -0.9775  0.5646  0.3443
   12CHTO  H212 4674   5.749  11.489  -0.061 -1.2931 -2.4161  0.1434
   12CHTO   O75 4675   5.258  11.283   0.134 -0.4985 -0.2427 -0.3485
   12CHTO  C112 4676   5.207  11.137   0.074 -0.1598 -0.3188  0.0180
   12CHTO  H216 4677   5.286  11.102   0.007  0.6684  1.7669 -0.1341
   12CHTO   O73 4678   5.078  11.160   0.007  0.2500  0.0562 -0.1737
   12CHTO  C113 4679   5.042  11.033  -0.051 -0.6617 -0.1038  0.3988
   12CHTO  H217 4680   5.124  11.013  -0.124 -0.4731 -0.9363  0.8355
   12CHTO  C124 4681   4.912  11.038  -0.131  0.2510 -0.1640 -0.0640
   12CHTO   O83 4682   4.885  11.161  -0.192  0.2724  0.6561  0.3381
   12CHTO  H204 4683   4.922  11.234  -0.145  1.1529  1.2085 -1.1778
   12CHTO  C109 4684   5.009  10.930   0.062 -0.6543 -0.2539  0.1591
   12CHTO  H213 4685   4.936  10.983   0.127 -3.5844  0.2747 -3.4070
   12CHTO  C110 4686   5.132  10.902   0.149 -0.5825  0.1580 -0.5463
   12CHTO  H214 4687   5.211  10.853   0.091  1.2404  1.3596  0.8564
   12CHTO   O78 4688   5.094  10.821   0.264 -0.0619  0.1924  0.4681
   12CHTO  H200 4689   5.008  10.848   0.291 -0.3301  0.4529 -0.6023
   12CHTO  C111 4690   5.195  11.038   0.200  0.2088 -0.4669  0.8010
   12CHTO  H215 4691   5.129  11.089   0.272 -1.2126 -2.5459  1.0287
   12CHTO   N19 4692   5.328  11.011   0.263 -0.1889  0.0069 -0.4095
   12CHTO  H207 4693   5.330  11.073   0.352  0.5468 -0.4937 -0.0765
   12CHTO  H208 4694   5.340  10.908   0.293 -2.9323 -0.4346 -0.6826
   12CHTO   O74 4695   4.952  10.801   0.023  0.2281 -0.0674  0.0400
   12CHTO  C115 4696   4.816  10.769   0.101  0.8755  0.1885  0.4846
   12CHTO  H219 4697   4.809  10.827   0.193  0.3270  1.0627 -0.0953
   12CHTO   O76 4698   4.691  10.809   0.015  0.2536 -0.0573 -0.4542
   12CHTO  C122 4699   4.682  10.736  -0.106 -0.7499 -0.3682  0.6055
   12CHTO  H226 4700   4.765  10.760  -0.173 -0.9099 -0.7815  0.2520
   12CHTO  C126 4701   4.555  10.781  -0.187  0.1052  0.5941 -0.8226
   12CHTO   O85 4702   4.557  10.799  -0.326  0.1166  0.0240  0.2291
   12CHTO  H206 4703   4.517  10.883  -0.342  0.0924  0.0462  0.3999
   12CHTO  C121 4704   4.689  10.580  -0.088 -0.1241  0.6481  0.2681
   12CHTO  H225 4705   4.596  10.541  -0.134  1.3212 -0.3040 -1.9523
   12CHTO   O81 4706   4.801  10.521  -0.155  0.0276  0.2629  0.1008
   12CHTO  H202 4707   4.789  10.435  -0.191  2.2396  0.3783 -1.0180
   12CHTO  C119 4708   4.699  10.542   0.068 -0.0800  0.4052 -0.0357
   12CHTO  H223 4709   4.607  10.580   0.113  0.7496  0.9389  1.2322
   12CHTO  C117 4710   4.820  10.612   0.139 -0.6219 -0.4268  0.1506
   12CHTO  H221 4711   4.922  10.579   0.119 -0.9130 -0.4619 -1.3484
   12CHTO   N20 4712   4.799  10.597   0.285 -0.1516 -0.9820 -0.5016
   12CHTO  H209 4713   4.818  10.689   0.338  0.9185 -1.3422 -0.2565
   12CHTO  H210 4714   4.847  10.515   0.335  0.0745  0.4261  1.6400
   12CHTO   O80 4715   4.684  10.389   0.079  0.0987  0.3720  0.2694
   12CHTO  C103 4716   4.552  10.326   0.140  0.4390  0.0487  0.2559
   12CHTO  H190 4717   4.497  10.402   0.196 -0.3138  0.5668 -1.1650
   12CHTO  C101 4718   4.446  10.252   0.044 -0.0829 -0.0434  0.2271
   12CHTO  H188 4719   4.491  10.157   0.014 -1.1800 -0.7031  0.6436
   12CHTO   O68 4720   4.416  10.356  -0.076 -0.0057 -0.8977  0.8270
   12CHTO  H168 4721   4.334  10.339  -0.119  0.3350 -0.0817 -0.1831
   12CHTO   C99 4722   4.321  10.209   0.135 -0.1262  0.1191  0.3223
   12CHTO  H186 4723   4.286  10.297   0.194 -1.5239 -1.0697  1.3045
   12CHTO   N17 4724   4.211  10.152   0.053 -0.1527  0.8921 -0.0774
   12CHTO  H174 4725   4.185  10.218  -0.029 -0.0705  1.4620  0.3506
   12CHTO  H175 4726   4.130  10.113   0.113 -0.3678  1.1662 -0.1907
   12CHTO   C97 4727   4.376  10.110   0.241  0.0616 -0.7339  0.1134
   12CHTO  H184 4728   4.401  10.016   0.189 -0.9458  0.0302 -1.8341
   12CHTO   O64 4729   4.490  10.162   0.318 -0.0588 -0.0014  0.1651
   12CHTO  C104 4730   4.601  10.215   0.242  0.2992 -0.4100 -0.3820
   12CHTO  H191 4731   4.643  10.132   0.187  3.1811 -0.6349  2.0298
   12CHTO  C108 4732   4.705  10.253   0.340  0.0560 -0.1082  0.1261
   12CHTO   O71 4733   4.670  10.356   0.432 -0.3739  0.1832 -0.1603
   12CHTO  H171 4734   4.592  10.334   0.479  0.5729  0.2730  1.4754
   12CHTO   O62 4735   4.287  10.077   0.346  0.1368  0.2937 -0.0643
   12CHTO   C91 4736   4.314   9.951   0.414  0.3432 -0.0235  0.0797
   12CHTO  H178 4737   4.417   9.922   0.391 -0.1684  0.0863 -2.5067
   12CHTO   C92 4738   4.220   9.839   0.364  0.3442  0.5405 -0.0748
   12CHTO  H179 4739   4.121   9.885   0.374 -1.0421 -2.2893 -0.4362
   12CHTO   O66 4740   4.237   9.811   0.220 -0.7175 -0.4014 -0.0025
   12CHTO  H166 4741   4.159   9.816   0.169 -1.4037  1.5451  1.2257
   12CHTO   C93 4742   4.235   9.700   0.443 -0.3481 -0.2507 -0.1946
   12CHTO  H180 4743   4.330   9.655   0.409  0.7338  0.3871  1.8950
   12CHTO   N16 4744   4.123   9.614   0.410  0.2226 -0.3109  0.1183
   12CHTO  H172 4745   4.151   9.511   0.391 -0.3368 -0.4526  0.0681
   12CHTO  H173 4746   4.039   9.618   0.477  0.2897  1.2582  0.1168
   12CHTO   C94 4747   4.250   9.724   0.599 -0.3146 -0.4590 -0.1287
   12CHTO  H181 4748   4.154   9.736   0.648 -0.6652  1.0622 -1.1628
   12CHTO   O61 4749   4.336   9.833   0.631 -0.0488 -0.1712 -0.3588
   12CHTO   C95 4750   4.288   9.946   0.570  0.0602 -0.3262 -0.4141
   12CHTO  H182 4751   4.181   9.950   0.589 -0.0757 -1.0495 -1.0042
   12CHTO  C106 4752   4.356  10.065   0.649  0.2690  0.2461  0.3659
   12CHTO   O69 4753   4.299  10.194   0.625  0.1542  0.3175  0.3969
   12CHTO  H169 4754   4.335  10.229   0.546  2.0701  0.9930  1.5298
   12CHTO   O63 4755   4.336   9.583   0.652  0.3669 -0.0617 -0.7938
   12CHTO   C96 4756   4.388   9.584   0.793  0.2137 -0.0428 -0.4071
   12CHTO  H183 4757   4.378   9.681   0.842  3.2971 -0.5615  1.3195
   12CHTO   C98 4758   4.541   9.545   0.817  0.1850 -0.2550 -0.4721
   12CHTO  H185 4759   4.558   9.453   0.759 -2.9208 -1.4872  0.4511
   12CHTO   O67 4760   4.629   9.642   0.762  0.0750  0.0089 -0.3242
   12CHTO  H167 4761   4.708   9.600   0.735  0.9012  0.6727  0.9883
   12CHTO  C102 4762   4.592   9.531   0.965 -0.5678  0.9208 -0.7585
   12CHTO  H189 4763   4.621   9.633   0.994  0.8644  0.5879 -0.9889
   12CHTO   N18 4764   4.716   9.446   0.977  1.2357 -0.7919 -0.0327
   12CHTO  H176 4765   4.741   9.435   1.082  0.5549  0.7498  0.3072
   12CHTO  H177 4766   4.694   9.349   0.936  0.7311 -1.1654  1.1050
   12CHTO  C105 4767   4.472   9.480   1.056  0.1738  0.2069  0.1800
   12CHTO  H192 4768   4.506   9.413   1.135 -0.1457  0.0933  0.2229
   12CHTO   O65 4769   4.361   9.421   0.992 -0.4018  0.1798  0.4990
   12CHTO  C100 4770   4.297   9.479   0.878  0.3795 -1.1331 -0.4827
   12CHTO  H187 4771   4.283   9.393   0.811  0.1512 -2.2167  0.9245
   12CHTO  C107 4772   4.158   9.537   0.909 -0.1222  0.1862 -0.3903
   12CHTO   O70 4773   4.162   9.657   0.991 -0.0950  0.0268  0.4451
   12CHTO  H170 4774   4.205   9.629   1.069  2.1251  1.5711 -0.1866
   12CHTO   O57 4775   4.434   9.622   1.142  0.1279  0.4461  0.4653
   12CHTO   C85 4776   4.432   9.636   1.284  0.3371  0.0248 -0.8935
   12CHTO  H157 4777   4.369   9.725   1.308  2.5605  1.3720  0.1388
   12CHTO   C83 4778   4.571   9.689   1.332 -0.5821 -0.1646  0.6558
   12CHTO  H155 4779   4.581   9.784   1.279  0.8556 -1.2102 -1.0226
   12CHTO   O56 4780   4.669   9.595   1.285  0.0793  0.4256  0.2873
   12CHTO  H135 4781   4.757   9.618   1.308  1.0238 -0.0085 -2.6055
   12CHTO   C81 4782   4.566   9.708   1.488  0.1050 -0.2910  0.0990
   12CHTO  H153 4783   4.479   9.768   1.515  0.6876  0.6445 -0.0678
   12CHTO   N14 4784   4.674   9.781   1.550 -0.4491  0.3275  0.2648
   12CHTO  H141 4785   4.713   9.724   1.631 -0.9721 -0.3202  0.0692
   12CHTO  H142 4786   4.751   9.819   1.486  0.8534 -1.9830  0.4214
   12CHTO   C79 4787   4.549   9.562   1.548  0.5440  0.5328  0.3869
   12CHTO  H151 4788   4.547   9.571   1.657 -2.1490  1.1192  0.3235
   12CHTO   O52 4789   4.414   9.507   1.514 -0.0807 -0.6042  0.0704
   12CHTO   C86 4790   4.390   9.502   1.375  0.0573  0.2256 -0.0910
   12CHTO  H158 4791   4.439   9.407   1.347  0.9906  0.5289  0.4565
   12CHTO   C90 4792   4.242   9.486   1.353 -0.5524  0.3631 -0.0060
   12CHTO   O60 4793   4.205   9.352   1.373  0.0781  0.0195  0.6036
   12CHTO  H138 4794   4.172   9.346   1.461  0.7401  2.0200  1.0213
   12CHTO   O50 4795   4.657   9.471   1.521 -0.1185  0.0123  0.1810
   12CHTO   C73 4796   4.692   9.366   1.609  0.4641 -0.3688 -0.1606
   12CHTO  H145 4797   4.606   9.317   1.659  0.2999 -0.0628 -0.1398
   12CHTO   C74 4798   4.786   9.430   1.721 -0.6547 -0.0378 -0.3693
   12CHTO  H146 4799   4.738   9.504   1.787  1.5370 -0.5002  1.8043
   12CHTO   O54 4800   4.818   9.321   1.808  0.0253 -0.1557  0.1569
   12CHTO  H133 4801   4.760   9.298   1.879  0.5754 -1.4141  0.2076
   12CHTO   C75 4802   4.918   9.491   1.651  0.3275  0.1370 -0.0003
   12CHTO  H147 4803   4.887   9.572   1.583  1.1632  1.4458  1.1560
   12CHTO   N13 4804   5.013   9.553   1.742  0.0025 -0.6141 -0.5616
   12CHTO  H139 4805   5.108   9.576   1.695  0.1024 -0.1321 -0.1191
   12CHTO  H140 4806   4.976   9.645   1.783  0.0899 -0.1230 -1.5597
   12CHTO   C76 4807   4.982   9.381   1.554  0.6376  0.2119  0.7243
   12CHTO  H148 4808   5.021   9.305   1.621 -0.4548 -0.3839  0.6900
   12CHTO   O49 4809   4.884   9.323   1.457 -0.3084 -0.5797  0.1376
   12CHTO   C77 4810   4.774   9.260   1.529  0.1651  0.6339  0.3840
   12CHTO  H149 4811   4.816   9.185   1.596 -0.3465  0.7612  0.8447
   12CHTO   C88 4812   4.680   9.178   1.435 -0.4012  0.8905  0.1546
   12CHTO   O58 4813   4.745   9.084   1.373  0.0691  0.2929  0.3027
   12CHTO  H136 4814   4.826   9.117   1.337  0.9476  0.8023  2.6645
   12CHTO   O51 4815   5.091   9.449   1.454 -0.6355 -0.4963 -0.9206
   12CHTO   C78 4816   5.196   9.344   1.361 -0.4237  0.5954 -0.0678
   12CHTO  H150 4817   5.140   9.255   1.325  1.0126  0.0444 -0.9675
   12CHTO   C80 4818   5.315   9.296   1.453 -1.0345 -0.6028  1.0368
   12CHTO  H152 4819   5.367   9.382   1.501 -2.9380  0.9739  0.3419
   12CHTO   O55 4820   5.261   9.212   1.558  0.6374  0.4557  0.1477
   12CHTO  H134 4821   5.325   9.206   1.626  0.0742 -0.0703  0.6376
   12CHTO   C84 4822   5.415   9.228   1.361 -0.2053  0.1255  0.1556
   12CHTO  H156 4823   5.369   9.137   1.322 -0.4142  0.5752 -0.6473
   12CHTO   N15 4824   5.534   9.167   1.430 -0.4842  0.0625 -0.3916
   12CHTO  H143 4825   5.629   9.162   1.381 -0.0613  0.5521  0.3629
   12CHTO  H144 4826   5.511   9.068   1.462 -3.3243  0.9626  0.4680
   12CHTO   C87 4827   5.469   9.318   1.247 -0.0315  0.4180  0.4087
   12CHTO  H159 4828   5.515   9.407   1.290 -2.6864  1.0873  1.9755
   12CHTO   O53 4829   5.352   9.356   1.166  0.2422  0.6535 -0.0024
   12CHTO   C82 4830   5.253   9.430   1.243  0.1785 -0.0512  0.4459
   12CHTO  H154 4831   5.290   9.524   1.285 -0.9856  1.1941 -1.2153
   12CHTO   C89 4832   5.144   9.478   1.136 -0.1716 -0.3828  0.2377
   12CHTO   O59 4833   5.032   9.546   1.187  0.6666 -0.0481 -0.7281
   12CHTO  H137 4834   4.960   9.486   1.181 -0.7212  1.7298 -2.3269
   12CHTO   O45 4835   5.577   9.230   1.126 -0.5348 -1.1252 -0.5679
   12CHTO   C67 4836   5.658   9.293   1.022 -0.2929  0.0817 -0.3072
   12CHTO  H124 4837   5.733   9.219   0.996 -0.1579  0.5614 -1.3057
   12CHTO   C65 4838   5.568   9.313   0.893  0.2684 -0.8165 -0.8488
   12CHTO  H122 4839   5.471   9.328   0.940 -0.2783 -0.2614 -2.1284
   12CHTO   O44 4840   5.565   9.190   0.814  0.1925  0.0458 -0.4805
   12CHTO  H102 4841   5.506   9.206   0.743 -0.2037  1.7716  0.2178
   12CHTO   C63 4842   5.610   9.449   0.817 -0.1865 -0.3291  1.6527
   12CHTO  H120 4843   5.558   9.530   0.867 -0.0767  1.5941 -1.1966
   12CHTO   N11 4844   5.552   9.466   0.677  0.3218 -0.1033 -0.2362
   12CHTO  H108 4845   5.446   9.449   0.674  0.1377  0.8277  0.8095
   12CHTO  H109 4846   5.581   9.380   0.620 -0.3235 -0.6120  0.1907
   12CHTO   C61 4847   5.770   9.463   0.825 -0.1376 -0.3282 -0.5113
   12CHTO  H118 4848   5.784   9.560   0.774  1.4761 -0.2256  0.0898
   12CHTO   O40 4849   5.826   9.480   0.962 -0.2066 -0.1404 -0.5800
   12CHTO   C68 4850   5.739   9.427   1.064 -0.4716  0.3970  0.1625
   12CHTO  H125 4851   5.664   9.504   1.091  1.2034  2.6364 -1.4756
   12CHTO   C72 4852   5.824   9.400   1.190  0.2569  0.4664 -0.0087
   12CHTO   O48 4853   5.919   9.300   1.184 -0.2676 -0.1595 -0.2315
   12CHTO  H105 4854   5.924   9.266   1.271  0.9007 -0.0939 -0.2722
   12CHTO   O38 4855   5.844   9.359   0.758 -0.1446 -0.2667 -0.2711
   12CHTO   C55 4856   5.980   9.391   0.700  0.0210 -0.0575  0.2298
   12CHTO  H112 4857   6.015   9.484   0.747 -0.1051  0.2730 -0.3360
   12CHTO   C56 4858   5.970   9.408   0.544 -0.0025  0.4786  0.0164
   12CHTO  H113 4859   5.926   9.319   0.496  1.4130  0.0586 -0.5541
   12CHTO   O42 4860   5.873   9.514   0.520  0.5382 -0.4135 -0.2910
   12CHTO  H100 4861   5.853   9.520   0.429  1.5241 -0.6642 -0.5323
   12CHTO   C57 4862   6.119   9.431   0.490 -0.2579 -0.6062  0.6091
   12CHTO  H114 4863   6.140   9.530   0.529  0.4063 -1.0751  1.4628
   12CHTO   N10 4864   6.125   9.439   0.341 -0.3486  0.3119  0.2609
   12CHTO  H106 4865   6.057   9.367   0.298  0.8763  0.8618 -2.7731
   12CHTO  H107 4866   6.107   9.540   0.308  1.2603  0.7667  0.6839
   12CHTO   C58 4867   6.228   9.336   0.547  0.5958  0.1645  0.4893
   12CHTO  H115 4868   6.227   9.238   0.496 -1.7999  0.1382  0.5205
   12CHTO   O37 4869   6.211   9.315   0.687  0.3055 -0.3748 -0.0153
   12CHTO   C59 4870   6.082   9.272   0.732  0.1628  0.1359 -1.1305
   12CHTO  H116 4871   6.038   9.188   0.678  0.6948  0.8238 -2.6726
   12CHTO   C70 4872   6.095   9.241   0.883 -0.0071 -0.0223 -0.0810
   12CHTO   O46 4873   5.996   9.155   0.934 -0.1617  0.2850 -0.4142
   12CHTO  H103 4874   6.034   9.114   1.010  0.3822  2.3804  0.5048
   12CHTO   O39 4875   6.377   9.407   0.531 -0.1694  0.1845 -0.0761
   12CHTO   C60 4876   6.476   9.310   0.558  0.3461 -0.3886  0.1383
   12CHTO  H117 4877   6.427   9.234   0.619 -1.7713  0.3260 -0.6127
   12CHTO   C62 4878   6.517   9.237   0.435  0.0857 -0.0927  0.0912
   12CHTO  H119 4879   6.423   9.195   0.394 -1.0606  0.8788  1.6610
   12CHTO   O43 4880   6.579   9.336   0.348  0.2019  0.1554 -0.5714
   12CHTO  H101 4881   6.653   9.300   0.302 -0.1791 -1.8534  0.3787
   12CHTO   C66 4882   6.622   9.118   0.462 -0.1095 -0.4982 -0.0175
   12CHTO  H123 4883   6.578   9.045   0.530  1.2577 -2.6352 -1.3622
   12CHTO   N12 4884   6.645   9.035   0.344 -0.0906  0.5081 -0.4254
   12CHTO  H110 4885   6.567   8.959   0.341 -2.1562  2.5767 -0.3284
   12CHTO  H111 4886   6.655   9.100   0.258 -0.7685  0.4246 -0.5718
   12CHTO   C69 4887   6.749   9.167   0.533  0.8376 -0.2528 -0.1360
   12CHTO  H126 4888   6.810   9.224   0.460 -1.2743  1.1558 -0.8565
   12CHTO   O41 4889   6.707   9.255   0.659  0.1288  0.1699  0.1835
   12CHTO   C64 4890   6.600   9.366   0.635  0.0747  0.2163 -0.1303
   12CHTO  H121 4891   6.641   9.450   0.576  1.0613 -0.9056 -1.0401
   12CHTO   C71 4892   6.557   9.408   0.783  0.4725 -0.3329 -0.1472
   12CHTO   O47 4893   6.479   9.529   0.787 -0.0611  0.0289  0.5093
   12CHTO  H104 4894   6.403   9.532   0.732 -0.8419 -1.4524  1.5026
   12CHTO   O34 4895   6.822   9.023   0.590  0.0305 -0.4641 -0.1877
   12CHTO   C49 4896   6.887   8.942   0.694  0.3167 -0.5047 -0.3152
   12CHTO   H91 4897   6.990   8.976   0.683 -0.0352 -0.0143 -2.4608
   12CHTO   C47 4898   6.874   8.793   0.643 -0.7716  0.5490  0.7364
   12CHTO   H89 4899   6.939   8.729   0.707  1.7235 -0.7355 -2.9058
   12CHTO   O33 4900   6.920   8.779   0.504 -0.2844  0.2560 -0.3180
   12CHTO   H70 4901   6.969   8.854   0.474 -1.1047  0.2180 -1.8064
   12CHTO   C45 4902   6.716   8.745   0.657  0.0572  0.0616 -0.8134
   12CHTO   H87 4903   6.674   8.753   0.555 -0.7592 -1.5046 -0.6211
   12CHTO    N8 4904   6.720   8.598   0.695  0.0581 -0.0826 -0.3535
   12CHTO   H75 4905   6.657   8.567   0.778  0.8185 -0.0452  0.2418
   12CHTO   H76 4906   6.710   8.541   0.604 -1.2418 -0.1956 -0.1498
   12CHTO   C43 4907   6.642   8.839   0.760 -0.2966 -0.0538  0.9733
   12CHTO   H85 4908   6.619   8.924   0.696 -0.3122  0.3296  1.4869
   12CHTO   O29 4909   6.721   8.877   0.874  0.0358  0.0968 -0.1848
   12CHTO   C50 4910   6.833   8.956   0.840  0.4409  0.3974  0.3869
   12CHTO   H92 4911   6.815   9.060   0.873 -1.1055  0.3694 -0.3056
   12CHTO   C54 4912   6.949   8.918   0.940  0.0987  0.2559 -0.0700
   12CHTO   O36 4913   7.052   9.016   0.946  0.4609 -0.0173  0.0311
   12CHTO   H72 4914   7.107   8.994   1.019 -1.4825 -0.6451  1.3369
   12CHTO   O27 4915   6.514   8.786   0.798  0.3991  0.5270 -0.7271
   12CHTO   C37 4916   6.381   8.732   0.779  0.7427 -0.3838  0.4329
   12CHTO   H79 4917   6.371   8.664   0.693 -4.0262  0.0644  0.5034
   12CHTO   C38 4918   6.341   8.642   0.900 -0.2890  0.0589  0.1191
   12CHTO   H80 4919   6.359   8.703   0.990 -0.6701  1.2751 -0.6296
   12CHTO   O31 4920   6.429   8.529   0.914 -0.1325  0.1315  0.8665
   12CHTO   H68 4921   6.403   8.484   0.992  1.0070  1.4599  2.0390
   12CHTO   C39 4922   6.187   8.615   0.899  0.6877  0.0391  0.2249
   12CHTO   H81 4923   6.159   8.566   0.806 -0.6350  1.3283 -0.0700
   12CHTO    N7 4924   6.137   8.531   1.017  0.2070 -0.1456 -0.1231
   12CHTO   H73 4925   6.100   8.594   1.096  1.6574 -2.1664  2.2639
   12CHTO   H74 4926   6.053   8.466   0.997  0.3804 -0.0513 -1.1652
   12CHTO   C40 4927   6.108   8.752   0.892 -0.9308  0.4431 -0.5356
   12CHTO   H82 4928   6.125   8.816   0.979 -1.2216 -0.7652  0.4203
   12CHTO   O26 4929   6.147   8.817   0.769  0.0431 -0.1721 -0.3954
   12CHTO   C41 4930   6.279   8.854   0.763 -0.8262 -0.5323  0.1697
   12CHTO   H83 4931   6.294   8.923   0.848 -2.1362  1.9241 -1.5166
   12CHTO   C52 4932   6.311   8.940   0.635 -0.6740 -0.2331 -0.6708
   12CHTO   O35 4933   6.276   8.865   0.524  0.2932 -0.2323  0.6512
   12CHTO   H71 4934   6.335   8.793   0.515  0.4263 -0.1789  1.0967
   12CHTO   O28 4935   5.970   8.716   0.865  0.3894  0.9898 -1.2484
   12CHTO   C42 4936   5.874   8.812   0.896  0.0289  0.0565 -0.4848
   12CHTO   H84 4937   5.917   8.909   0.872  0.3673 -0.6245 -2.7904
   12CHTO   C44 4938   5.828   8.812   1.039 -0.4230  0.2406 -0.3776
   12CHTO   H86 4939   5.796   8.710   1.062 -0.6314 -0.2024 -2.4813
   12CHTO   O32 4940   5.935   8.850   1.124  0.3753  0.3169  0.1382
   12CHTO   H69 4941   5.930   8.799   1.202  2.7053 -1.5476 -0.8553
   12CHTO   C48 4942   5.697   8.899   1.071  0.4738  0.6096 -0.2572
   12CHTO   H90 4943   5.713   9.007   1.070 -1.2408  0.8668 -2.0248
   12CHTO    N9 4944   5.643   8.872   1.206 -1.0048 -0.3972  0.1015
   12CHTO   H77 4945   5.638   8.765   1.224 -0.5627 -0.2005  1.5153
   12CHTO   H78 4946   5.700   8.915   1.287 -0.7932 -1.1910  0.3859
   12CHTO   C51 4947   5.587   8.878   0.957 -0.3985  0.6274 -0.8944
   12CHTO   H93 4948   5.536   8.783   0.973  3.8769 -1.9428 -1.9499
   12CHTO   O30 4949   5.645   8.886   0.829 -0.7340 -0.1548  0.5299
   12CHTO   C46 4950   5.756   8.790   0.793 -0.8610 -0.3305  0.1266
   12CHTO   H88 4951   5.704   8.694   0.800 -1.7373  0.2601  2.0350
   12CHTO   C53 4952   5.805   8.814   0.652  0.5429  0.0208 -0.9302
   12CHTO   O72 4953   5.870   8.934   0.627 -0.0654 -0.2744  0.3533
   12CHTO  H199 4954   5.810   9.004   0.638 -0.6613 -0.6191 -0.6439
   12CHTO   O22 4955   5.489   8.975   0.971  0.1476  0.1684 -0.2735
   12CHTO   C31 4956   5.339   8.958   0.957 -0.7795  0.2436  0.1578
   12CHTO   H59 4957   5.320   8.849   0.947 -0.6354  0.2333  0.0263
   12CHTO   C29 4958   5.257   9.007   1.080 -0.2071 -0.0425  0.4602
   12CHTO   H57 4959   5.284   9.113   1.094  1.4354 -0.5413  1.1468
   12CHTO   O21 4960   5.300   8.939   1.197 -0.4959 -0.4316  0.8182
   12CHTO   H37 4961   5.283   8.990   1.273  3.6651  1.1566  0.8193
   12CHTO   C27 4962   5.103   8.988   1.057  0.7596 -0.2742  0.6876
   12CHTO   H55 4963   5.075   8.882   1.052 -1.0630  0.2770 -1.1895
   12CHTO    N5 4964   5.025   9.060   1.159 -0.2142 -0.6169 -0.6840
   12CHTO   H43 4965   4.936   9.005   1.185 -1.0170  0.9022 -0.1693
   12CHTO   H44 4966   5.017   9.166   1.136  1.9012 -0.1207  0.7950
   12CHTO   C25 4967   5.062   9.047   0.917  0.2011  0.3404 -0.6719
   12CHTO   H53 4968   5.067   9.156   0.910 -0.9873  0.3755 -1.1284
   12CHTO   O17 4969   5.134   8.990   0.801  0.5093 -0.4434  0.5206
   12CHTO   C32 4970   5.271   9.025   0.824 -0.3994 -0.6629 -0.0809
   12CHTO   H60 4971   5.275   9.134   0.831 -0.6693 -0.6791  0.3545
   12CHTO   C36 4972   5.359   8.989   0.699  0.6285 -0.1201 -0.1968
   12CHTO   O25 4973   5.336   9.074   0.592 -0.0473 -0.7795 -0.0090
   12CHTO   H40 4974   5.339   9.031   0.509 -0.4289  0.8845 -0.9210
   12CHTO   O15 4975   4.913   9.025   0.876 -0.0712  0.5082 -0.0909
   12CHTO   C19 4976   4.804   9.107   0.814  0.4911 -0.1713 -0.0341
   12CHTO   H47 4977   4.815   9.208   0.855  2.7078  0.4227 -2.0087
   12CHTO   C20 4978   4.826   9.122   0.659  0.2800 -0.3636 -0.1137
   12CHTO   H48 4979   4.808   9.027   0.607 -0.5510 -0.9111  1.1390
   12CHTO   O19 4980   4.953   9.170   0.633 -0.2486 -0.0027 -0.4210
   12CHTO   H35 4981   4.973   9.201   0.547  0.3779  2.1673  0.4648
   12CHTO   C21 4982   4.709   9.223   0.601  0.7453  0.0624 -0.3531
   12CHTO   H49 4983   4.726   9.319   0.650  2.8707  0.1024 -1.0946
   12CHTO    N4 4984   4.723   9.245   0.457 -0.2235 -0.2571 -0.6126
   12CHTO   H41 4985   4.643   9.279   0.392 -0.8288 -1.9142 -0.7428
   12CHTO   H42 4986   4.779   9.167   0.409  2.0664  0.3470  0.9576
   12CHTO   C22 4987   4.567   9.163   0.646 -0.0014 -0.1887 -0.5556
   12CHTO   H50 4988   4.557   9.064   0.602  1.0301  0.9039 -3.3532
   12CHTO   O14 4989   4.561   9.155   0.792  0.4462 -0.0986  0.0794
   12CHTO   C23 4990   4.653   9.063   0.846 -0.2809  0.2052  0.2916
   12CHTO   H51 4991   4.628   8.966   0.802  3.2559 -1.1831  1.1563
   12CHTO   C34 4992   4.632   9.027   0.994  0.3083  0.4362  0.8393
   12CHTO   O23 4993   4.659   9.141   1.074 -0.3656 -0.0612 -0.0228
   12CHTO   H38 4994   4.624   9.121   1.159 -0.1467 -0.0282  0.0755
   12CHTO   O16 4995   4.462   9.255   0.612 -0.1764 -0.2431  0.0134
   12CHTO   C24 4996   4.341   9.170   0.524  0.0247 -0.0497 -1.1218
   12CHTO   H52 4997   4.375   9.070   0.498 -0.2073 -0.7343  1.1146
   12CHTO   C26 4998   4.298   9.256   0.402  0.2562 -0.1944 -0.3206
   12CHTO   H54 4999   4.238   9.344   0.431 -0.2724 -0.4029 -0.7758
   12CHTO   O20 5000   4.423   9.300   0.341 -0.8765 -0.2635 -0.0020
   12CHTO   H36 5001   4.421   9.277   0.250  2.2561 -0.1755 -0.1598
   12CHTO   C30 5002   4.204   9.170   0.313  0.6849  0.3060  0.1502
   12CHTO   H58 5003   4.260   9.080   0.284  0.3272  0.0355  0.2935
   12CHTO    N6 5004   4.165   9.245   0.194  0.0989 -0.0895  0.2409
   12CHTO   H45 5005   4.123   9.174   0.124 -0.1863  0.1722  0.1440
   12CHTO   H46 5006   4.243   9.300   0.144 -1.1714 -0.2781 -2.0350
   12CHTO   C33 5007   4.082   9.125   0.405 -0.3891  0.7607 -0.0819
   12CHTO   H61 5008   4.026   9.220   0.415 -3.4869 -0.9627 -0.3052
   12CHTO   O18 5009   4.124   9.072   0.532 -0.2685  0.6095 -0.2779
   12CHTO   C28 5010   4.219   9.144   0.613  0.1243  0.4430 -0.1097
   12CHTO   H56 5011   4.173   9.238   0.645 -0.0764  1.1731 -2.4435
   12CHTO   C35 5012   4.245   9.053   0.741  0.4489 -0.1948  0.0240
   12CHTO   O24 5013   4.135   9.025   0.831 -0.4827  0.4269 -0.3039
   12CHTO   H39 5014   4.102   8.943   0.798 -1.9474  0.7500  0.3299
   12CHTO    O9 5015   3.995   9.035   0.328 -0.0679 -0.1991 -0.0925
   12CHTO   C13 5016   4.030   8.887   0.314 -0.2522  0.5654  0.3418
   12CHTO   H26 5017   4.139   8.872   0.298 -0.5794  0.1923 -1.6260
   12CHTO   C11 5018   3.944   8.831   0.193  0.8042  0.7479 -0.1400
   12CHTO   H24 5019   3.992   8.875   0.104  3.2027  1.6393  1.5421
   12CHTO    O8 5020   3.806   8.864   0.188  0.1528 -0.3007  0.4379
   12CHTO    H3 5021   3.764   8.838   0.108 -0.5521 -0.7694  0.9497
   12CHTO    C9 5022   3.970   8.677   0.185  0.2308  0.3519 -0.8859
   12CHTO   H22 5023   4.080   8.671   0.179  0.4659  1.3672  1.8335
   12CHTO    N2 5024   3.912   8.614   0.066 -0.1310  0.0666 -0.7135
   12CHTO   H10 5025   3.991   8.586  -0.002  0.7495 -0.4847  0.5229
   12CHTO   H11 5026   3.824   8.658   0.021 -2.0126 -3.3492 -0.5334
   12CHTO    C7 5027   3.937   8.603   0.322  0.5331  0.2181  0.2628
   12CHTO   H20 5028   3.992   8.508   0.307 -2.3868 -1.4716 -0.1903
   12CHTO    O4 5029   3.994   8.665   0.431  0.2572 -0.1106  0.3570
   12CHTO   C14 5030   3.996   8.804   0.447  0.3120  0.2865  0.1953
   12CHTO   H27 5031   4.080   8.828   0.515 -1.3494 -0.4753  2.5665
   12CHTO   C18 5032   3.865   8.855   0.516  0.0073 -0.3036  0.2046
   12CHTO   O13 5033   3.856   8.799   0.644 -0.2753 -0.5852 -0.2190
   12CHTO    H7 5034   3.776   8.834   0.678 -0.5506 -1.1887 -0.2597
   12CHTO    O2 5035   3.768   8.571   0.352 -0.2152  0.2819 -0.2115
   12CHTO    C1 5036   3.730   8.496   0.471 -0.2633  0.1826  0.5272
   12CHTO   H14 5037   3.766   8.551   0.561 -0.3530 -0.1486  0.7688
   12CHTO    C2 5038   3.786   8.349   0.473  0.0119  0.4220  0.3519
   12CHTO   H15 5039   3.757   8.310   0.375  0.7709  1.0903 -0.1376
   12CHTO    O6 5040   3.929   8.346   0.474  0.2443  0.1006 -0.2073
   12CHTO    H1 5041   3.973   8.363   0.393  2.4529 -0.0465  0.9100
   12CHTO    C3 5042   3.723   8.273   0.596 -0.4618  0.5480  0.5227
   12CHTO   H16 5043   3.753   8.317   0.693 -0.5961  0.4577  0.6062
   12CHTO    N1 5044   3.765   8.128   0.594 -0.9583  1.0045  0.3324
   12CHTO    H8 5045   3.761   8.084   0.693  2.3824 -2.0435 -0.7752
   12CHTO    H9 5046   3.862   8.121   0.548  0.2206  4.6038  2.0324
   12CHTO    C4 5047   3.564   8.285   0.589 -0.1306  0.0702 -0.7910
   12CHTO   H17 5048   3.527   8.231   0.502 -0.4387 -0.1375 -0.5346
   12CHTO    O1 5049   3.519   8.425   0.578 -0.0802 -0.0441 -0.7048
   12CHTO    C5 5050   3.576   8.515   0.479  0.7477 -0.0539 -0.7051
   12CHTO   H18 5051   3.534   8.472   0.388  1.2073  1.1234 -1.4849
   12CHTO   C16 5052   3.525   8.662   0.494 -0.4571  0.6531  0.2133
   12CHTO   O11 5053   3.382   8.685   0.483 -0.7654  0.0815  0.0928
   12CHTO    H5 5054   3.359   8.776   0.494 -1.1547 -0.2000  1.6122
   12CHTO    O3 5055   3.494   8.242   0.702  0.0020  0.4819 -0.0758
   12CHTO    C6 5056   3.350   8.218   0.675 -0.6265  0.7961 -0.1165
   12CHTO   H19 5057   3.307   8.274   0.592  1.4766  2.8606  0.1594
   12CHTO    C8 5058   3.324   8.065   0.636 -1.0639 -0.3703 -0.4519
   12CHTO   H21 5059   3.396   8.005   0.692 -0.3071  1.3723  0.4761
   12CHTO    O7 5060   3.362   8.062   0.495 -0.7456  0.0015  0.5421
   12CHTO    H2 5061   3.382   7.973   0.470  0.7740  0.3193  0.5602
   12CHTO   C12 5062   3.179   8.010   0.675 -0.5028 -0.4252 -0.2099
   12CHTO   H25 5063   3.104   8.055   0.606  0.3901  2.0799  0.4051
   12CHTO    N3 5064   3.192   7.863   0.662 -0.1542 -0.2417  0.2326
   12CHTO   H12 5065   3.111   7.811   0.710 -0.9080  1.0411  0.3678
   12CHTO   H13 5066   3.180   7.840   0.557 -2.3334  0.9597  0.1806
   12CHTO   C15 5067   3.141   8.061   0.815  0.3577  0.2340 -0.3056
   12CHTO   H28 5068   3.211   8.028   0.892  2.5147  1.1958 -1.8225
   12CHTO   O10 5069   3.003   8.026   0.853 -0.0849  0.2963  0.8846
   12CHTO    H4 5070   2.988   7.934   0.860 -1.9429  0.3112 -1.8276
   12CHTO    O5 5071   3.138   8.201   0.804  0.3392  0.0296 -0.3292
   12CHTO   C10 5072   3.268   8.263   0.803  0.3588  0.2638 -0.0318
   12CHTO   H23 5073   3.327   8.234   0.890 -0.2558 -2.2929 -0.4255
   12CHTO   C17 5074   3.264   8.415   0.792 -0.0379  0.6756 -0.3092
   12CHTO   O12 5075   3.212   8.482   0.910 -0.7277  0.1216 -0.1687
   12CHTO    H6 5076   3.207   8.574   0.893 -2.4062 -0.1524 -1.2947
   13CHTO  H203 5077   7.352   4.681  -0.509 -0.8906  1.7707 -0.9933
   13CHTO   O82 5078   7.273   4.635  -0.491 -0.0812  0.6454 -0.2489
   13CHTO  C123 5079   7.154   4.726  -0.493 -0.3348  0.2403  0.0342
   13CHTO  H227 5080   7.158   4.796  -0.578 -1.5762  1.9124  1.3060
   13CHTO   O77 5081   7.036   4.638  -0.507  0.2346  0.1489 -0.3614
   13CHTO  C118 5082   6.916   4.718  -0.528  0.6227 -0.0576 -0.0254
   13CHTO  H222 5083   6.944   4.791  -0.605  2.9682 -0.9368 -0.0465
   13CHTO  C125 5084   6.806   4.620  -0.580 -0.1136  0.9722  0.9408
   13CHTO   O84 5085   6.700   4.687  -0.655  0.1374  0.0890  0.1001
   13CHTO  H205 5086   6.697   4.651  -0.741  3.0269 -0.2606  0.0879
   13CHTO  C114 5087   6.875   4.775  -0.392  0.2407 -0.0084 -0.1206
   13CHTO  H218 5088   6.853   4.695  -0.321  0.1200 -1.2713 -1.5286
   13CHTO  C116 5089   6.986   4.875  -0.348 -0.8793  0.3616 -0.3375
   13CHTO  H220 5090   6.990   4.966  -0.411 -2.6559 -0.0524 -1.0718
   13CHTO   O79 5091   6.956   4.919  -0.214 -0.3674 -0.2748 -0.4392
   13CHTO  H201 5092   6.953   5.012  -0.227  2.1886 -0.0185  0.5493
   13CHTO  C120 5093   7.130   4.799  -0.357 -0.0406  0.6101  0.0921
   13CHTO  H224 5094   7.120   4.729  -0.271 -0.2191  0.6631  0.1150
   13CHTO   N21 5095   7.244   4.899  -0.345  0.0343  0.2557  0.3527
   13CHTO  H211 5096   7.335   4.865  -0.299  1.0938 -0.2287 -2.0453
   13CHTO  H212 5097   7.272   4.950  -0.435  1.5594  0.5392  0.9798
   13CHTO   O75 5098   6.752   4.834  -0.421  0.0481 -0.0170  0.2731
   13CHTO  C112 5099   6.626   4.783  -0.331  0.7757 -1.0056  0.1313
   13CHTO  H216 5100   6.664   4.727  -0.245  0.5442 -0.8981  0.3069
   13CHTO   O73 5101   6.545   4.703  -0.415  0.5596 -0.0840 -0.3726
   13CHTO  C113 5102   6.417   4.661  -0.361  0.2610 -0.2662 -0.2110
   13CHTO  H217 5103   6.436   4.604  -0.268 -0.7203  0.5416  0.4918
   13CHTO  C124 5104   6.361   4.562  -0.465  0.4102  0.1239  0.3165
   13CHTO   O83 5105   6.445   4.445  -0.481 -0.3564  0.1079 -0.0476
   13CHTO  H204 5106   6.536   4.460  -0.500 -0.2839  2.5749  1.9851
   13CHTO  C109 5107   6.331   4.779  -0.330 -0.5461  0.4704  0.1201
   13CHTO  H213 5108   6.306   4.828  -0.426 -0.2435 -1.1831 -0.8262
   13CHTO  C110 5109   6.404   4.861  -0.225 -0.2401  0.7752 -0.7456
   13CHTO  H214 5110   6.409   4.797  -0.137  0.6391  1.5257 -0.2402
   13CHTO   O78 5111   6.317   4.974  -0.200 -0.3002  0.0099  0.2800
   13CHTO  H200 5112   6.285   4.965  -0.112  1.3031  2.9992  1.2150
   13CHTO  C111 5113   6.544   4.909  -0.271 -0.5056  0.4451  0.5182
   13CHTO  H215 5114   6.525   4.980  -0.353 -0.3082 -1.3553 -1.1154
   13CHTO   N19 5115   6.633   4.979  -0.171 -0.6235  0.6008 -0.4024
   13CHTO  H207 5116   6.715   5.031  -0.218 -0.6045  0.3199 -0.6847
   13CHTO  H208 5117   6.676   4.915  -0.095  3.2833  2.9687 -0.4745
   13CHTO   O74 5118   6.202   4.727  -0.276  0.2548 -0.4130  0.4631
   13CHTO  C115 5119   6.067   4.806  -0.327 -0.2285  0.2002 -0.1029
   13CHTO  H219 5120   6.076   4.912  -0.302 -0.3740  0.3545 -0.7052
   13CHTO   O76 5121   6.052   4.798  -0.489 -0.0512  0.3367 -0.2701
   13CHTO  C122 5122   5.930   4.826  -0.547  0.5836  0.1559 -0.2505
   13CHTO  H226 5123   5.931   4.796  -0.651  0.4389  0.6050 -0.3828
   13CHTO  C126 5124   5.896   4.984  -0.547  0.0781  0.3408  0.3742
   13CHTO   O85 5125   5.811   5.027  -0.656  0.1381  0.2703  0.3012
   13CHTO  H206 5126   5.842   4.999  -0.740 -0.4328  2.9038 -0.8281
   13CHTO  C121 5127   5.805   4.749  -0.473  0.2468 -0.4004 -0.0533
   13CHTO  H225 5128   5.708   4.781  -0.517  0.8299  1.6696  0.0918
   13CHTO   O81 5129   5.815   4.610  -0.509  0.5302 -0.0070  0.1259
   13CHTO  H202 5130   5.896   4.578  -0.475  0.0609 -1.4999 -0.1416
   13CHTO  C119 5131   5.803   4.778  -0.326 -0.1290 -0.4319 -0.1439
   13CHTO  H223 5132   5.791   4.886  -0.320 -0.1291 -0.4771  0.6059
   13CHTO  C117 5133   5.942   4.742  -0.255  0.1380 -0.4436 -0.5714
   13CHTO  H221 5134   5.966   4.636  -0.255  0.6804 -0.3234 -0.3565
   13CHTO   N20 5135   5.940   4.777  -0.110 -0.1269  0.4875  0.1273
   13CHTO  H209 5136   5.931   4.885  -0.107  0.1062  0.5412 -0.9114
   13CHTO  H210 5137   6.027   4.752  -0.050  1.7010  0.1601 -2.5631
   13CHTO   O80 5138   5.675   4.723  -0.232 -0.1555 -0.0924  0.1167
   13CHTO  C103 5139   5.539   4.809  -0.224 -0.7583  0.2180 -0.7070
   13CHTO  H190 5140   5.490   4.795  -0.128  0.7909 -1.3034 -0.1232
   13CHTO  C101 5141   5.549   4.961  -0.249 -0.0223 -0.9852  0.1233
   13CHTO  H188 5142   5.602   4.987  -0.341  0.8675  1.6003  1.3192
   13CHTO   O68 5143   5.639   5.027  -0.130 -0.1402  0.0897  0.5928
   13CHTO  H168 5144   5.728   5.023  -0.159 -0.1420  0.6094  0.5121
   13CHTO   C99 5145   5.407   5.031  -0.254  0.4567  0.5522 -0.1850
   13CHTO  H186 5146   5.364   5.011  -0.154  2.1416 -0.6431  0.3244
   13CHTO   N17 5147   5.402   5.181  -0.270 -0.2348 -0.3149  0.4292
   13CHTO  H174 5148   5.438   5.232  -0.181  1.2418 -1.0532  0.2699
   13CHTO  H175 5149   5.458   5.215  -0.355 -0.2596 -0.5808  0.3078
   13CHTO   C97 5150   5.317   4.952  -0.353 -0.0370  0.1058 -0.1984
   13CHTO  H184 5151   5.363   4.970  -0.451 -1.2130 -1.8280 -1.1359
   13CHTO   O64 5152   5.309   4.809  -0.326  0.0033 -0.5190 -0.0162
   13CHTO  C104 5153   5.442   4.747  -0.332  0.4052  0.2199 -0.1026
   13CHTO  H191 5154   5.480   4.769  -0.432 -0.1740  1.7454  0.0062
   13CHTO  C108 5155   5.430   4.594  -0.315 -0.5670  0.1464 -0.1139
   13CHTO   O71 5156   5.332   4.535  -0.409  0.2875 -0.0205 -0.1131
   13CHTO  H171 5157   5.249   4.547  -0.367  1.2361 -0.6059  1.9953
   13CHTO   O62 5158   5.176   4.982  -0.352 -0.1563 -0.3999  0.1237
   13CHTO   C91 5159   5.112   4.974  -0.482  0.0522  0.4781 -0.5791
   13CHTO  H178 5160   5.163   4.894  -0.537  0.3410 -0.0805  0.4796
   13CHTO   C92 5161   5.120   5.111  -0.548 -0.5353  0.5674 -0.4396
   13CHTO  H179 5162   5.133   5.190  -0.472 -0.2544 -0.2767  0.3942
   13CHTO   O66 5163   5.247   5.123  -0.618 -0.0792  0.1329  0.0663
   13CHTO  H166 5164   5.261   5.057  -0.682 -0.3636 -1.2630  1.3977
   13CHTO   C93 5165   4.999   5.148  -0.643 -0.1676 -0.2955 -0.1613
   13CHTO  H180 5166   5.012   5.081  -0.729 -0.1512 -0.0186 -0.3761
   13CHTO   N16 5167   4.991   5.286  -0.690 -0.3378 -0.1334 -0.0438
   13CHTO  H172 5168   4.993   5.281  -0.798 -2.5629 -1.0037 -0.0787
   13CHTO  H173 5169   5.078   5.335  -0.648 -1.8894  2.1325  0.5855
   13CHTO   C94 5170   4.867   5.100  -0.584  0.8329  0.3447  0.8102
   13CHTO  H181 5171   4.849   5.142  -0.485 -0.6703 -0.0324  0.7010
   13CHTO   O61 5172   4.881   4.960  -0.578 -0.1238 -0.4598 -0.0635
   13CHTO   C95 5173   4.967   4.920  -0.469 -0.3826 -0.5385  0.3011
   13CHTO  H182 5174   4.918   4.955  -0.379 -0.8676  2.2265 -0.9766
   13CHTO  C106 5175   4.970   4.755  -0.456  0.1598 -0.5069  0.1143
   13CHTO   O69 5176   4.842   4.700  -0.489  0.3494  0.2758  0.0632
   13CHTO  H169 5177   4.781   4.731  -0.424 -0.2399 -0.7650  0.0087
   13CHTO   O63 5178   4.730   5.135  -0.695  0.4222 -0.0341  0.2926
   13CHTO   C96 5179   4.599   5.209  -0.642  0.7273  0.6338 -0.5678
   13CHTO  H183 5180   4.524   5.186  -0.717  1.5391  1.8041 -1.7486
   13CHTO   C98 5181   4.603   5.355  -0.632  0.5470  0.9244  0.4860
   13CHTO  H185 5182   4.687   5.385  -0.567  1.3151 -2.4057  1.1272
   13CHTO   O67 5183   4.625   5.411  -0.761  0.3360 -0.3341  0.2843
   13CHTO  H167 5184   4.593   5.359  -0.833  1.7222 -0.5366 -0.2024
   13CHTO  C102 5185   4.460   5.410  -0.575 -0.0864  0.0588  0.1120
   13CHTO  H189 5186   4.387   5.401  -0.657  0.6328 -0.3086 -0.5024
   13CHTO   N18 5187   4.454   5.559  -0.542  0.3389 -0.2164 -0.4208
   13CHTO  H176 5188   4.354   5.601  -0.540 -0.4480 -2.0321 -0.7315
   13CHTO  H177 5189   4.492   5.574  -0.442  2.8151 -2.9385 -0.8947
   13CHTO  C105 5190   4.409   5.318  -0.462 -0.3794 -0.3422 -0.0003
   13CHTO  H192 5191   4.476   5.336  -0.379  2.9829  0.4597 -2.7559
   13CHTO   O65 5192   4.417   5.180  -0.481  0.0885  0.3986 -0.3069
   13CHTO  C100 5193   4.548   5.129  -0.515  0.2439 -0.6820 -0.5401
   13CHTO  H187 5194   4.620   5.160  -0.437 -1.0380 -1.7543  1.0935
   13CHTO  C107 5195   4.545   4.976  -0.541 -0.4271  0.2987 -0.1805
   13CHTO   O70 5196   4.511   4.906  -0.424  0.1447  0.4977  0.4819
   13CHTO  H170 5197   4.422   4.877  -0.418  0.2574  0.5501  2.8233
   13CHTO   O57 5198   4.243   5.375  -0.441 -0.0179  0.0212 -0.0270
   13CHTO   C85 5199   4.134   5.318  -0.510 -1.0318 -0.7041  0.3199
   13CHTO  H157 5200   4.179   5.261  -0.593 -0.8687 -1.9829  1.2694
   13CHTO   C83 5201   4.054   5.434  -0.579  0.2682 -0.1926  0.0172
   13CHTO  H155 5202   4.120   5.478  -0.654 -0.6541 -0.6528 -1.0630
   13CHTO   O56 5203   4.018   5.528  -0.480  0.2733  0.6998 -0.2119
   13CHTO  H135 5204   4.066   5.518  -0.400 -0.1919 -1.0720 -0.1315
   13CHTO   C81 5205   3.936   5.374  -0.659 -0.6095  0.5578  1.2291
   13CHTO  H153 5206   3.973   5.302  -0.732 -3.0094  2.7482 -2.3159
   13CHTO   N14 5207   3.862   5.479  -0.741 -0.8505 -0.4120  0.0444
   13CHTO  H141 5208   3.934   5.513  -0.812 -0.2267  1.3273  1.4655
   13CHTO  H142 5209   3.790   5.419  -0.794 -0.2382  0.5821 -1.9549
   13CHTO   C79 5210   3.831   5.301  -0.568 -0.1122 -0.1113  0.4023
   13CHTO  H151 5211   3.760   5.252  -0.635  0.6203  0.6568 -0.9537
   13CHTO   O52 5212   3.918   5.192  -0.521 -0.0000  0.3679  0.4413
   13CHTO   C86 5213   4.025   5.231  -0.431  0.1731 -0.6898  0.7314
   13CHTO  H158 5214   3.975   5.283  -0.346 -1.0723  1.9987 -1.5724
   13CHTO   C90 5215   4.090   5.108  -0.384 -0.7207 -0.3336  0.2598
   13CHTO   O60 5216   4.174   5.126  -0.271 -0.2979  0.0615  0.4670
   13CHTO  H138 5217   4.218   5.050  -0.238  2.5558  1.8105  0.9314
   13CHTO   O50 5218   3.765   5.372  -0.459 -0.0303  0.7445  0.1007
   13CHTO   C73 5219   3.637   5.358  -0.400  0.2603  0.9498  0.0870
   13CHTO  H145 5220   3.573   5.291  -0.459  1.3377  0.0665 -0.1083
   13CHTO   C74 5221   3.557   5.497  -0.395 -0.2323 -0.9357 -0.4911
   13CHTO  H146 5222   3.553   5.542  -0.495 -2.5728  1.2821  0.5519
   13CHTO   O54 5223   3.412   5.470  -0.367 -0.5849 -0.9254  0.4950
   13CHTO  H133 5224   3.376   5.557  -0.369 -0.6965 -0.8821  2.9685
   13CHTO   C75 5225   3.630   5.593  -0.291  0.6142 -0.4237 -0.0534
   13CHTO  H147 5226   3.728   5.616  -0.336  1.0179 -1.1525  0.4323
   13CHTO   N13 5227   3.572   5.723  -0.263 -0.0607  0.1848  0.1832
   13CHTO  H139 5228   3.465   5.713  -0.263  0.0309 -0.9787  0.0342
   13CHTO  H140 5229   3.602   5.783  -0.348  0.1965 -1.0145 -0.6066
   13CHTO   C76 5230   3.656   5.513  -0.150 -0.0765 -0.1477  0.1760
   13CHTO  H148 5231   3.561   5.475  -0.112 -0.2445  1.0283  0.9434
   13CHTO   O49 5232   3.734   5.389  -0.173 -0.1772 -0.0516  0.1710
   13CHTO   C77 5233   3.658   5.299  -0.261  0.1756  0.4811  0.7010
   13CHTO  H149 5234   3.561   5.274  -0.217 -0.4145 -0.3257 -1.0129
   13CHTO   C88 5235   3.726   5.163  -0.275  0.2659 -0.5515  0.0776
   13CHTO   O58 5236   3.631   5.071  -0.352 -0.8290  0.3001 -0.3831
   13CHTO  H136 5237   3.686   5.019  -0.408 -1.3057 -0.6270 -0.0020
   13CHTO   O51 5238   3.733   5.610  -0.042 -0.0322  0.0105 -0.1480
   13CHTO   C78 5239   3.901   5.572   0.004  0.8482  0.2540  0.2935
   13CHTO  H150 5240   3.945   5.654   0.065  1.3836 -0.2966  0.6639
   13CHTO   C80 5241   3.982   5.568  -0.125 -0.3136  0.8036  0.0332
   13CHTO  H152 5242   3.959   5.471  -0.173  1.7680 -0.7021  1.9772
   13CHTO   O55 5243   3.956   5.685  -0.202  0.7404  0.8725  0.1330
   13CHTO  H134 5244   3.973   5.766  -0.157  1.6425  0.2638  0.9174
   13CHTO   C84 5245   4.129   5.552  -0.084  0.3309  0.9801 -0.0878
   13CHTO  H156 5246   4.149   5.619  -0.001 -0.9055  1.0160  0.1930
   13CHTO   N15 5247   4.231   5.575  -0.195 -0.1307 -0.2042  0.0093
   13CHTO  H143 5248   4.303   5.497  -0.183  1.2183  1.3739  2.6010
   13CHTO  H144 5249   4.281   5.669  -0.182  1.0540 -0.6671 -1.0039
   13CHTO   C87 5250   4.157   5.413  -0.016  0.6821 -0.7888 -0.3251
   13CHTO  H159 5251   4.153   5.329  -0.086  0.2319 -1.5452  0.6102
   13CHTO   O53 5252   4.042   5.391   0.110 -0.1748  0.0003 -0.3948
   13CHTO   C82 5253   3.909   5.434   0.079  0.2952  0.4566  0.3317
   13CHTO  H154 5254   3.858   5.361   0.017  0.7129 -0.2295  0.7941
   13CHTO   C89 5255   3.827   5.449   0.209 -0.3781  0.0150  0.4595
   13CHTO   O59 5256   3.780   5.340   0.289 -0.2545 -0.2177  0.2113
   13CHTO  H137 5257   3.736   5.389   0.356  1.5684  0.1698  1.1751
   13CHTO   O45 5258   4.316   5.401   0.055 -0.2912 -0.2163  0.0402
   13CHTO   C67 5259   4.375   5.273   0.022  0.1744 -0.0261 -0.1798
   13CHTO  H124 5260   4.301   5.200  -0.011 -1.5563  1.2241  0.8989
   13CHTO   C65 5261   4.471   5.305  -0.095 -0.0379 -0.1965  0.0445
   13CHTO  H122 5262   4.421   5.368  -0.169  0.4283 -0.2798 -0.3482
   13CHTO   O44 5263   4.511   5.184  -0.164 -0.0753 -0.2369 -0.3287
   13CHTO  H102 5264   4.442   5.148  -0.216 -0.6587  0.4467 -0.0213
   13CHTO   C63 5265   4.589   5.393  -0.043 -0.0858 -0.1802 -0.1565
   13CHTO  H120 5266   4.549   5.485  -0.001  1.4287  0.6683 -0.5569
   13CHTO   N11 5267   4.683   5.439  -0.146  0.1873  0.2029 -0.2394
   13CHTO  H108 5268   4.714   5.360  -0.211 -0.5983  0.4446 -0.9118
   13CHTO  H109 5269   4.641   5.513  -0.211  0.0075  0.5804  0.3068
   13CHTO   C61 5270   4.666   5.310   0.068  0.3771  0.0077  0.1231
   13CHTO  H118 5271   4.736   5.387   0.103  0.3536  0.0883 -0.0014
   13CHTO   O40 5272   4.584   5.269   0.180 -0.4176  0.0039  0.0769
   13CHTO   C68 5273   4.449   5.206   0.150  0.2052 -0.1421  0.8177
   13CHTO  H125 5274   4.383   5.226   0.236  1.9304  0.3858  2.0499
   13CHTO   C72 5275   4.447   5.052   0.131 -0.1418  0.5193  0.1197
   13CHTO   O48 5276   4.322   4.990   0.100 -0.1064 -0.2337 -0.5958
   13CHTO  H105 5277   4.324   4.963   0.010  2.1103  2.9964 -1.5768
   13CHTO   O38 5278   4.732   5.192   0.028 -0.1146 -0.2085  0.5604
   13CHTO   C55 5279   4.861   5.158   0.087  0.1164  0.0152  0.9129
   13CHTO  H112 5280   4.913   5.091   0.018  1.1141  1.9995 -0.2892
   13CHTO   C56 5281   4.846   5.094   0.234 -0.5804 -1.0978 -0.2393
   13CHTO  H113 5282   4.782   5.159   0.295  1.6802 -0.6707  1.7740
   13CHTO   O42 5283   4.786   4.966   0.225 -0.2994 -0.4773  0.2892
   13CHTO  H100 5284   4.847   4.900   0.198 -0.2688 -0.1129 -0.5488
   13CHTO   C57 5285   4.985   5.069   0.311  0.1553  0.2639 -0.1150
   13CHTO  H114 5286   5.030   4.979   0.270 -1.1607  0.5404 -2.2398
   13CHTO   N10 5287   4.970   5.039   0.457  0.6844  0.0047 -0.5234
   13CHTO  H106 5288   4.871   4.999   0.473  1.6288 -2.0808  0.2910
   13CHTO  H107 5289   5.040   4.966   0.493 -2.6146 -2.2446  1.5929
   13CHTO   C58 5290   5.077   5.195   0.292 -0.8346  0.0053 -0.4557
   13CHTO  H115 5291   5.032   5.278   0.350  0.4038 -0.8950  1.8649
   13CHTO   O37 5292   5.086   5.218   0.150 -0.0699  0.0148  0.2231
   13CHTO   C59 5293   4.965   5.271   0.098 -0.0904  0.9192 -0.3522
   13CHTO  H116 5294   4.943   5.360   0.158 -2.1558  0.0375  0.2463
   13CHTO   C70 5295   5.000   5.304  -0.048  0.2194  0.6635 -0.6218
   13CHTO   O46 5296   5.094   5.411  -0.042 -0.8221  0.3010 -0.3444
   13CHTO  H103 5297   5.068   5.480   0.016  0.2935 -0.5439  1.1803
   13CHTO   O39 5298   5.236   5.166   0.345 -0.2667 -0.9731 -0.0551
   13CHTO   C60 5299   5.308   5.284   0.385 -0.3715  0.2366 -0.0864
   13CHTO  H117 5300   5.310   5.363   0.310  2.1523  1.7550  1.5127
   13CHTO   C62 5301   5.243   5.343   0.519 -0.0395 -0.1092  0.6968
   13CHTO  H119 5302   5.134   5.355   0.507 -0.3909 -0.1325  3.5704
   13CHTO   O43 5303   5.251   5.258   0.631  0.2582  0.7620  0.4235
   13CHTO  H101 5304   5.219   5.171   0.617 -3.8186  2.1493  0.2291
   13CHTO   C66 5305   5.308   5.480   0.559 -0.2028  0.3067 -0.2704
   13CHTO  H123 5306   5.307   5.549   0.475 -2.1044 -0.2551 -0.7293
   13CHTO   N12 5307   5.239   5.555   0.673 -0.1940 -0.2974  1.3940
   13CHTO  H110 5308   5.284   5.653   0.680 -1.4971  0.4758 -0.6374
   13CHTO  H111 5309   5.237   5.497   0.764 -0.3811 -0.7366  1.1149
   13CHTO   C69 5310   5.459   5.456   0.589 -0.3766 -0.1204 -0.6118
   13CHTO  H126 5311   5.466   5.396   0.681  1.0096 -0.1305 -0.7141
   13CHTO   O41 5312   5.522   5.387   0.453  0.5684  0.4058 -0.0762
   13CHTO   C64 5313   5.457   5.246   0.422  0.2061 -0.3397  0.2542
   13CHTO  H121 5314   5.465   5.194   0.519 -0.8581 -1.3470 -0.1806
   13CHTO   C71 5315   5.533   5.161   0.319  0.3367  0.0910  0.3049
   13CHTO   O47 5316   5.658   5.117   0.378 -0.5316  0.6501 -0.5081
   13CHTO  H104 5317   5.704   5.191   0.413 -1.5305  1.3704 -0.7150
   13CHTO   O34 5318   5.545   5.593   0.631  0.3194  0.0687  0.4269
   13CHTO   C49 5319   5.691   5.577   0.701 -0.1760 -0.2529  0.0295
   13CHTO   H91 5320   5.729   5.478   0.679 -0.8709 -0.6662  0.6643
   13CHTO   C47 5321   5.666   5.585   0.848  0.3706  0.9242 -0.2734
   13CHTO   H89 5322   5.765   5.564   0.893 -0.3931  1.1256  1.5357
   13CHTO   O33 5323   5.572   5.488   0.891 -0.2435  0.8989  0.1313
   13CHTO   H70 5324   5.619   5.418   0.933  0.6044  0.8906 -0.8104
   13CHTO   C45 5325   5.610   5.732   0.884 -0.9791  0.3760  0.4552
   13CHTO   H87 5326   5.504   5.735   0.856 -0.9881 -1.9260  0.1555
   13CHTO    N8 5327   5.618   5.757   1.029  0.4844  0.5034 -0.0002
   13CHTO   H75 5328   5.576   5.852   1.057  0.8394  0.7361 -0.2633
   13CHTO   H76 5329   5.724   5.765   1.048  0.2015  2.3265  0.9138
   13CHTO   C43 5330   5.678   5.843   0.787  0.0662  0.1555  0.2060
   13CHTO   H85 5331   5.615   5.871   0.703 -3.0219 -0.7825  2.1289
   13CHTO   O29 5332   5.806   5.790   0.749  0.4045 -0.0201 -0.8016
   13CHTO   C50 5333   5.799   5.682   0.656 -0.6261  0.6150 -0.4023
   13CHTO   H92 5334   5.784   5.716   0.553 -0.1145 -2.2311 -1.4497
   13CHTO   C54 5335   5.938   5.624   0.640  0.1989 -0.2994  0.2225
   13CHTO   O36 5336   6.031   5.715   0.579  0.3105 -0.2537  0.0665
   13CHTO   H72 5337   6.065   5.774   0.644  1.5944 -2.0570  1.0649
   13CHTO   O27 5338   5.695   5.976   0.845  0.1288 -0.8782 -0.6364
   13CHTO   C37 5339   5.669   6.113   0.874 -0.0312  0.1985 -0.8703
   13CHTO   H79 5340   5.572   6.134   0.922 -0.5133  1.7890 -2.4817
   13CHTO   C38 5341   5.777   6.174   0.975  0.3580  0.6723  0.2166
   13CHTO   H80 5342   5.879   6.173   0.934  1.3887 -1.5673  2.6513
   13CHTO   O31 5343   5.775   6.097   1.089  0.2866  0.2450 -0.1883
   13CHTO   H68 5344   5.855   6.112   1.135  0.6514 -1.3163 -0.2804
   13CHTO   C39 5345   5.745   6.324   1.009  0.7666 -0.9890  0.0195
   13CHTO   H81 5346   5.641   6.330   1.039  1.3889 -0.0203  2.1102
   13CHTO    N7 5347   5.832   6.381   1.118 -0.0342  0.0045 -0.1305
   13CHTO   H73 5348   5.881   6.306   1.178  0.4604 -0.3432 -0.9559
   13CHTO   H74 5349   5.915   6.442   1.084  2.4382 -2.1333  1.8420
   13CHTO   C40 5350   5.751   6.400   0.874 -0.5420 -0.1888  0.4109
   13CHTO   H82 5351   5.853   6.408   0.835 -0.2824 -0.6157  0.9775
   13CHTO   O26 5352   5.660   6.344   0.776 -0.1921  0.3070  0.0303
   13CHTO   C41 5353   5.686   6.203   0.747 -0.0887  0.2572  0.2773
   13CHTO   H83 5354   5.787   6.190   0.707  0.1980  2.5308  0.2231
   13CHTO   C52 5355   5.586   6.162   0.632  0.2928 -0.3779  0.2090
   13CHTO   O35 5356   5.451   6.200   0.662 -0.0596 -0.2270  0.0410
   13CHTO   H71 5357   5.449   6.294   0.670 -0.9073 -0.2615  0.3167
   13CHTO   O28 5358   5.704   6.537   0.887 -0.1839 -0.2870 -0.1602
   13CHTO   C42 5359   5.770   6.658   0.830  0.1337  0.7592  0.8486
   13CHTO   H84 5360   5.877   6.638   0.823 -0.1588 -1.7921  2.9201
   13CHTO   C44 5361   5.760   6.779   0.930  0.0513  0.7356 -0.1669
   13CHTO   H86 5362   5.670   6.763   0.989 -0.3463 -1.1103 -1.2387
   13CHTO   O32 5363   5.866   6.766   1.024 -0.5073 -0.1948 -0.0240
   13CHTO   H69 5364   5.861   6.680   1.060 -0.4570  0.2965  1.1661
   13CHTO   C48 5365   5.759   6.926   0.870  0.5651  0.3179 -0.0243
   13CHTO   H90 5366   5.865   6.951   0.860  0.5007  0.4640 -0.3462
   13CHTO    N9 5367   5.699   7.030   0.966  0.1116  0.6507 -0.0777
   13CHTO   H77 5368   5.623   6.985   1.028 -0.1914 -1.2176 -1.7340
   13CHTO   H78 5369   5.661   7.125   0.930  2.2913  1.4058 -0.4585
   13CHTO   C51 5370   5.690   6.925   0.731 -0.1093 -0.0573  0.3890
   13CHTO   H93 5371   5.585   6.897   0.739 -0.1535 -0.7840 -2.1631
   13CHTO   O30 5372   5.765   6.829   0.650 -0.0642  0.4679  0.1583
   13CHTO   C46 5373   5.719   6.692   0.687 -0.3667  0.2910  0.3648
   13CHTO   H88 5374   5.610   6.687   0.692 -0.2231 -1.9182  2.3802
   13CHTO   C53 5375   5.779   6.599   0.580  0.2911  0.8575 -0.2812
   13CHTO   O72 5376   5.755   6.639   0.444 -0.0632 -0.2141 -0.3517
   13CHTO  H199 5377   5.666   6.624   0.418 -0.0044 -1.4123  0.1068
   13CHTO   O22 5378   5.714   7.044   0.659  0.0140  0.4696 -0.0173
   13CHTO   C31 5379   5.616   7.091   0.554  0.7460  0.6288 -0.0802
   13CHTO   H59 5380   5.672   7.165   0.493  1.8368  0.3054  0.5052
   13CHTO   C29 5381   5.566   6.980   0.457  0.2591  0.9634  0.4014
   13CHTO   H57 5382   5.531   6.892   0.513 -1.7354  2.4532  1.5435
   13CHTO   O21 5383   5.683   6.939   0.381 -0.3191 -0.0639  0.1160
   13CHTO   H37 5384   5.694   6.846   0.382  0.3473  0.0111  0.7128
   13CHTO   C27 5385   5.453   7.019   0.355 -0.3166  0.1433 -0.3486
   13CHTO   H55 5386   5.494   7.088   0.280  0.6012 -0.3826 -0.3323
   13CHTO    N5 5387   5.398   6.901   0.282 -0.1564 -0.2359  0.2318
   13CHTO   H43 5388   5.468   6.854   0.215  0.9956 -0.6946  1.7372
   13CHTO   H44 5389   5.302   6.921   0.236 -1.6003 -1.6429  2.5521
   13CHTO   C25 5390   5.343   7.094   0.438 -0.2622 -0.6190  0.0487
   13CHTO   H53 5391   5.306   7.021   0.511 -0.8563 -0.8517 -0.4854
   13CHTO   O17 5392   5.403   7.210   0.506 -0.2696  0.3859  0.2928
   13CHTO   C32 5393   5.493   7.172   0.619 -0.6553  0.0649  0.1353
   13CHTO   H60 5394   5.443   7.114   0.696  0.8694  0.3622  1.3759
   13CHTO   C36 5395   5.545   7.297   0.684  0.2309  0.3486 -0.7228
   13CHTO   O25 5396   5.438   7.382   0.717 -0.3226 -0.0199  0.6990
   13CHTO   H40 5397   5.461   7.473   0.707 -0.2963 -0.1837 -0.9254
   13CHTO   O15 5398   5.219   7.149   0.355 -0.3683 -0.0830  0.0109
   13CHTO   C19 5399   5.096   7.234   0.382  0.1167  0.1558  0.1679
   13CHTO   H47 5400   5.079   7.217   0.490 -1.2107  0.9620  0.0999
   13CHTO   C20 5401   5.117   7.389   0.362  0.4378  0.0996  0.2081
   13CHTO   H48 5402   5.140   7.416   0.258 -1.3250  1.9411  0.2753
   13CHTO   O19 5403   5.239   7.418   0.442 -0.1756 -0.2082 -0.0494
   13CHTO   H35 5404   5.263   7.508   0.427  1.1713 -0.0985  2.5317
   13CHTO   C21 5405   4.982   7.462   0.414 -0.0648 -0.0653 -0.6103
   13CHTO   H49 5406   4.970   7.441   0.520 -2.0666 -1.1460 -1.0253
   13CHTO    N4 5407   4.981   7.608   0.391 -0.0537 -0.2838 -0.0389
   13CHTO   H41 5408   5.068   7.656   0.434  1.4685 -0.3861 -2.8987
   13CHTO   H42 5409   4.967   7.635   0.288 -0.3287  0.9131  0.3063
   13CHTO   C22 5410   4.854   7.398   0.346  0.4152  0.4098 -0.0955
   13CHTO   H50 5411   4.843   7.428   0.242  1.7700  0.6682 -0.1720
   13CHTO   O14 5412   4.852   7.256   0.371  0.0790  0.0400 -0.1028
   13CHTO   C23 5413   4.967   7.191   0.309  0.0106  0.2498  0.0893
   13CHTO   H51 5414   4.967   7.222   0.204 -0.7656  3.3093  0.9501
   13CHTO   C34 5415   4.951   7.037   0.319 -0.0264  0.1896  0.5240
   13CHTO   O23 5416   4.959   6.988   0.452 -0.0314  0.9567 -0.1115
   13CHTO   H38 5417   4.881   6.990   0.504  0.6996 -1.1734  1.1528
   13CHTO   O16 5418   4.734   7.438   0.410 -0.1520 -0.7072  0.5449
   13CHTO   C24 5419   4.604   7.486   0.316  0.5266 -0.6019  0.2223
   13CHTO   H52 5420   4.625   7.484   0.209  0.2508  1.8979  0.1056
   13CHTO   C26 5421   4.563   7.629   0.357 -0.1550  0.6569 -0.4720
   13CHTO   H54 5422   4.533   7.623   0.463 -1.1928 -0.6107 -0.8179
   13CHTO   O20 5423   4.671   7.721   0.350 -0.1560  0.5407 -0.1256
   13CHTO   H36 5424   4.647   7.800   0.394  0.3105  0.8356 -0.4022
   13CHTO   C30 5425   4.434   7.685   0.285 -0.6113 -0.0833 -0.3323
   13CHTO   H58 5426   4.441   7.678   0.175 -1.7258 -0.3493 -0.3940
   13CHTO    N6 5427   4.391   7.826   0.312 -0.2325 -0.1412  0.3099
   13CHTO   H45 5428   4.451   7.879   0.384 -1.6296  1.3273  0.4085
   13CHTO   H46 5429   4.286   7.839   0.330  0.1064  1.1846  1.3666
   13CHTO   C33 5430   4.316   7.584   0.321 -0.0376  0.0769  0.0565
   13CHTO   H61 5431   4.305   7.584   0.430 -0.8001  0.8311 -0.0207
   13CHTO   O18 5432   4.362   7.453   0.282  0.2366 -0.6043  0.0343
   13CHTO   C28 5433   4.479   7.398   0.341 -0.2686  0.3220  0.0645
   13CHTO   H56 5434   4.470   7.384   0.448 -1.9242  1.7832  0.1393
   13CHTO   C35 5435   4.498   7.262   0.270 -0.0092 -0.3423 -0.0714
   13CHTO   O24 5436   4.397   7.164   0.305 -0.6075 -0.0272  0.5283
   13CHTO   H39 5437   4.394   7.169   0.399 -0.8216 -1.4572  0.6049
   13CHTO    O9 5438   4.187   7.620   0.268 -0.7199 -0.0389 -0.4919
   13CHTO   C13 5439   4.069   7.519   0.331 -0.4247  0.0446  0.3677
   13CHTO   H26 5440   4.122   7.425   0.356  1.2273  1.2117  1.3427
   13CHTO   C11 5441   3.945   7.490   0.230 -0.0922 -0.0407 -0.0156
   13CHTO   H24 5442   3.976   7.438   0.138  2.0371  1.4639 -0.1937
   13CHTO    O8 5443   3.888   7.616   0.195  0.1209  0.1049  0.0117
   13CHTO    H3 5444   3.844   7.620   0.112  0.5124 -0.6161 -0.2334
   13CHTO    C9 5445   3.843   7.394   0.304 -0.0357  0.0017  0.4937
   13CHTO   H22 5446   3.893   7.296   0.306 -0.0912 -0.1180 -2.1940
   13CHTO    N2 5447   3.721   7.375   0.214 -1.0497 -0.1595 -0.7772
   13CHTO   H10 5448   3.711   7.447   0.134 -0.5124  0.2507 -0.4795
   13CHTO   H11 5449   3.639   7.370   0.285 -0.4802  0.2724 -0.0778
   13CHTO    C7 5450   3.826   7.444   0.451 -0.0472 -0.0383 -0.3961
   13CHTO   H20 5451   3.895   7.384   0.513  0.3369  0.9959  0.1871
   13CHTO    O4 5452   3.872   7.574   0.472  0.3578 -0.0111  0.6316
   13CHTO   C14 5453   4.014   7.578   0.464 -0.3618 -0.1555  0.1924
   13CHTO   H27 5454   4.078   7.522   0.534  0.5342 -0.1363 -0.6057
   13CHTO   C18 5455   4.044   7.726   0.486 -0.9044 -0.5688  0.4369
   13CHTO   O13 5456   3.990   7.761   0.613  0.4688 -0.0265 -0.3350
   13CHTO    H7 5457   3.900   7.740   0.629  0.3579 -0.3107 -1.2921
   13CHTO    O2 5458   3.683   7.425   0.508 -0.2830  0.3765 -0.6357
   13CHTO    C1 5459   3.686   7.389   0.649 -0.2840  0.5028 -0.1605
   13CHTO   H14 5460   3.783   7.412   0.698  0.0467 -0.3113 -0.4341
   13CHTO    C2 5461   3.664   7.233   0.668 -0.0344 -0.6623 -0.2262
   13CHTO   H15 5462   3.568   7.206   0.621 -1.2423  1.3389  1.0423
   13CHTO    O6 5463   3.770   7.166   0.596 -0.4946  0.2374 -0.5829
   13CHTO    H1 5464   3.746   7.080   0.566  1.2463 -0.7345  0.7018
   13CHTO    C3 5465   3.668   7.190   0.823 -0.4575 -0.1944  0.0171
   13CHTO   H16 5466   3.771   7.206   0.858 -0.6627  1.5890 -0.1456
   13CHTO    N1 5467   3.624   7.047   0.847 -0.4615  0.1628  0.2862
   13CHTO    H8 5468   3.662   6.982   0.769 -1.6476  0.6051 -0.6572
   13CHTO    H9 5469   3.668   7.014   0.941  0.8428  0.5883 -0.1617
   13CHTO    C4 5470   3.569   7.290   0.899 -0.1500 -0.5743 -0.0080
   13CHTO   H17 5471   3.465   7.261   0.881 -0.3712 -0.5580  1.2050
   13CHTO    O1 5472   3.581   7.429   0.858 -0.7075 -0.1096  0.0567
   13CHTO    C5 5473   3.578   7.466   0.720 -0.4312  0.0619  0.0766
   13CHTO   H18 5474   3.485   7.433   0.674 -1.4221  2.4330  0.2959
   13CHTO   C16 5475   3.588   7.617   0.705  0.1392  0.1573  0.2394
   13CHTO   O11 5476   3.718   7.659   0.748  0.0320  0.0731 -0.3163
   13CHTO    H5 5477   3.709   7.709   0.827  0.6181 -1.5268  0.7893
   13CHTO    O3 5478   3.602   7.288   1.035 -0.3108  0.3779 -0.4559
   13CHTO    C6 5479   3.489   7.319   1.129 -0.5238  0.2466  0.6126
   13CHTO   H19 5480   3.405   7.370   1.082 -0.5957 -1.0536 -0.6883
   13CHTO    C8 5481   3.429   7.196   1.197 -0.4277  0.0284  0.1188
   13CHTO   H21 5482   3.504   7.140   1.252 -1.9614 -2.0765  0.1681
   13CHTO    O7 5483   3.374   7.106   1.094  0.7429 -0.2828 -0.2388
   13CHTO    H2 5484   3.436   7.095   1.025 -2.4867 -1.0744 -3.1774
   13CHTO   C12 5485   3.322   7.233   1.308 -0.3673 -0.6125  0.0038
   13CHTO   H25 5486   3.230   7.275   1.264 -0.5833  0.0169  1.0377
   13CHTO    N3 5487   3.283   7.112   1.396  0.3805 -0.1576  0.3386
   13CHTO   H12 5488   3.248   7.032   1.333 -1.7240  0.9532  0.0601
   13CHTO   H13 5489   3.368   7.080   1.454  0.0971 -0.1630  0.7534
   13CHTO   C15 5490   3.376   7.343   1.400 -0.5822 -0.0021 -0.0375
   13CHTO   H28 5491   3.463   7.314   1.460  0.3480 -3.1072 -2.7231
   13CHTO   O10 5492   3.278   7.409   1.497  0.1607 -0.1585 -0.7321
   13CHTO    H4 5493   3.335   7.454   1.556 -0.8508  1.4412 -0.9308
   13CHTO    O5 5494   3.425   7.452   1.316 -0.3780  0.6256  0.1733
   13CHTO   C10 5495   3.543   7.419   1.236  0.6408  0.3516  0.1511
   13CHTO   H23 5496   3.617   7.369   1.299 -1.4680 -0.8374  1.7773
   13CHTO   C17 5497   3.603   7.542   1.166 -0.3643 -0.8814  0.6762
   13CHTO   O12 5498   3.593   7.659   1.254 -0.5700  0.0616  0.3350
   13CHTO    H6 5499   3.503   7.683   1.266 -0.9659 -0.1956 -2.0061
   14CHTO  H203 5500   5.801   4.443   2.999 -0.2405 -0.5347  0.2194
   14CHTO   O82 5501   5.767   4.515   3.048 -0.1147 -0.6507  0.4812
   14CHTO  C123 5502   5.673   4.586   2.964  0.4198  0.5512 -0.3366
   14CHTO  H227 5503   5.730   4.636   2.883  2.5674  0.4888  1.0888
   14CHTO   O77 5504   5.587   4.489   2.896 -0.4018  0.1116 -0.4376
   14CHTO  C118 5505   5.479   4.529   2.807 -0.1862  0.2850  0.2673
   14CHTO  H222 5506   5.533   4.571   2.721  0.2124  0.6629  0.6998
   14CHTO  C125 5507   5.403   4.401   2.760 -0.0026  0.0593 -0.0981
   14CHTO   O84 5508   5.346   4.329   2.874 -0.0873  0.0134  0.1818
   14CHTO  H205 5509   5.319   4.243   2.848  1.4106 -0.4726  0.2375
   14CHTO  C114 5510   5.396   4.641   2.866 -1.0974 -1.0147  0.2837
   14CHTO  H218 5511   5.327   4.604   2.942 -3.2612  1.6864 -0.3055
   14CHTO  C116 5512   5.486   4.755   2.929 -0.3870  0.5399  0.6597
   14CHTO  H220 5513   5.537   4.807   2.845 -2.2833  3.3175  1.1557
   14CHTO   O79 5514   5.389   4.844   2.994  0.0546 -0.0747 -0.1417
   14CHTO  H201 5515   5.381   4.918   2.938  1.5856  0.9650  0.9771
   14CHTO  C120 5516   5.585   4.690   3.032  0.4801 -0.1265 -0.5319
   14CHTO  H224 5517   5.527   4.638   3.111 -1.0259  0.6467 -1.1083
   14CHTO   N21 5518   5.676   4.784   3.105  0.1652 -0.1984  0.4844
   14CHTO  H211 5519   5.623   4.876   3.125 -0.3744  0.0865 -2.0553
   14CHTO  H212 5520   5.712   4.737   3.195  0.8300  0.3795  0.5214
   14CHTO   O75 5521   5.316   4.689   2.754 -0.5227  0.1774 -0.4616
   14CHTO  C112 5522   5.152   4.682   2.770  0.4400  0.9096 -0.8623
   14CHTO  H216 5523   5.129   4.718   2.871  1.3439  0.6139 -0.5379
   14CHTO   O73 5524   5.114   4.546   2.748 -0.2095 -0.3290  0.6491
   14CHTO  C113 5525   4.972   4.536   2.767 -0.3224  0.0272 -0.2334
   14CHTO  H217 5526   4.946   4.569   2.870 -3.0465 -1.4606 -0.4080
   14CHTO  C124 5527   4.937   4.383   2.757  0.3708 -1.0772 -0.7217
   14CHTO   O83 5528   4.996   4.317   2.872 -0.1696  0.2035 -0.4712
   14CHTO  H204 5529   4.932   4.266   2.918  0.5882 -0.1574  0.1791
   14CHTO  C109 5530   4.891   4.617   2.657  0.1497 -0.3957 -0.6731
   14CHTO  H213 5531   4.915   4.566   2.563 -2.4347 -3.0895  0.0464
   14CHTO  C110 5532   4.931   4.762   2.663 -0.1280 -0.3307 -0.1052
   14CHTO  H214 5533   4.892   4.814   2.751  0.5813  1.1198 -0.6436
   14CHTO   O78 5534   4.876   4.829   2.544  0.2994 -0.6016 -0.7192
   14CHTO  H200 5535   4.909   4.917   2.538  0.8294 -0.5059  2.5400
   14CHTO  C111 5536   5.083   4.780   2.664  0.3011  0.1454  0.0184
   14CHTO  H215 5537   5.119   4.765   2.561 -0.7984  0.5373 -0.4212
   14CHTO   N19 5538   5.125   4.921   2.698 -0.0923 -0.1421  0.0612
   14CHTO  H207 5539   5.099   4.984   2.614  0.4455 -1.6869 -1.2914
   14CHTO  H208 5540   5.082   4.956   2.791 -1.8752 -2.6266  0.2256
   14CHTO   O74 5541   4.751   4.598   2.693 -0.1229 -0.1502 -0.8546
   14CHTO  C115 5542   4.656   4.551   2.557 -0.4634 -0.2347 -0.4983
   14CHTO  H219 5543   4.693   4.597   2.466  2.0868  0.9229  1.0902
   14CHTO   O76 5544   4.662   4.386   2.535  1.0525 -0.0564 -0.4058
   14CHTO  C122 5545   4.586   4.329   2.435 -0.2187 -0.1717  0.1453
   14CHTO  H226 5546   4.594   4.221   2.451 -1.6761 -0.1415  1.2038
   14CHTO  C126 5547   4.646   4.359   2.288  0.6894 -0.1982 -0.4806
   14CHTO   O85 5548   4.579   4.278   2.187  0.1128  0.9082 -0.7998
   14CHTO  H206 5549   4.488   4.260   2.206  0.0878  0.3677 -1.4371
   14CHTO  C121 5550   4.436   4.370   2.453  0.2654 -0.2475 -0.2957
   14CHTO  H225 5551   4.375   4.333   2.368 -2.1707 -0.2750  1.3925
   14CHTO   O81 5552   4.380   4.292   2.563  0.4890  0.0177 -0.4017
   14CHTO  H202 5553   4.290   4.317   2.575  0.5048 -1.1473  2.4831
   14CHTO  C119 5554   4.417   4.522   2.469  0.2195 -0.7666  0.8818
   14CHTO  H223 5555   4.443   4.568   2.374 -1.8738 -0.0674  0.6345
   14CHTO  C117 5556   4.505   4.589   2.578 -0.0026  0.1431  0.5411
   14CHTO  H221 5557   4.483   4.546   2.676 -0.6854 -0.7559  0.0052
   14CHTO   N20 5558   4.488   4.737   2.581  0.0347 -0.0400 -0.1368
   14CHTO  H209 5559   4.392   4.770   2.543  0.2257  1.1720  0.4244
   14CHTO  H210 5560   4.512   4.773   2.679 -0.0116  0.7548 -0.4163
   14CHTO   O80 5561   4.252   4.558   2.483 -0.0916  0.3153 -0.6280
   14CHTO  C103 5562   4.189   4.632   2.374  0.3359  0.1301 -0.6864
   14CHTO  H190 5563   4.250   4.720   2.352 -0.5896  0.6432 -1.2283
   14CHTO  C101 5564   4.177   4.546   2.246 -0.3026  0.4508 -0.1269
   14CHTO  H188 5565   4.142   4.445   2.268  0.4223 -0.3700 -2.6120
   14CHTO   O68 5566   4.325   4.536   2.174 -0.1985 -0.1797  0.3868
   14CHTO  H168 5567   4.340   4.461   2.120  2.0966  2.2297 -2.4814
   14CHTO   C99 5568   4.081   4.611   2.133 -0.1756 -0.6820 -0.5571
   14CHTO  H186 5569   4.122   4.702   2.086  0.4591 -0.8792 -0.3869
   14CHTO   N17 5570   4.062   4.515   2.017 -0.2221 -0.6128 -0.5786
   14CHTO  H174 5571   4.035   4.417   2.054  0.4192 -0.6056 -0.0827
   14CHTO  H175 5572   4.007   4.555   1.933  1.1679  0.7555 -0.8657
   14CHTO   C97 5573   3.944   4.653   2.205  0.1500 -0.4777 -0.4322
   14CHTO  H184 5574   3.881   4.568   2.236 -1.1272  0.4153 -0.5501
   14CHTO   O64 5575   3.977   4.740   2.316 -0.0880  0.2888 -0.6412
   14CHTO  C104 5576   4.054   4.679   2.426  0.4953  0.4760  0.6143
   14CHTO  H191 5577   4.001   4.589   2.458  0.3799  0.1410 -0.4973
   14CHTO  C108 5578   4.053   4.769   2.549  0.3980  0.0663  0.2911
   14CHTO   O71 5579   3.929   4.789   2.608  0.4418  0.3999 -0.4019
   14CHTO  H171 5580   3.928   4.843   2.684  0.4503  1.8408 -1.4177
   14CHTO   O62 5581   3.866   4.738   2.116  0.1464 -0.2622  1.0534
   14CHTO   C91 5582   3.741   4.688   2.065 -0.1292 -0.5971  0.1928
   14CHTO  H178 5583   3.749   4.579   2.065  2.1001 -0.4578 -1.1302
   14CHTO   C92 5584   3.741   4.723   1.917  0.1313 -0.1859  0.2481
   14CHTO  H179 5585   3.828   4.675   1.871  1.3894  0.9429  1.3995
   14CHTO   O66 5586   3.637   4.645   1.854 -0.4174 -0.3416 -0.4299
   14CHTO  H166 5587   3.649   4.554   1.875 -0.1493 -0.2040  0.0110
   14CHTO   C93 5588   3.721   4.879   1.880  0.0638  0.0470  0.3115
   14CHTO  H180 5589   3.686   4.889   1.776 -0.5766 -0.5902  0.4600
   14CHTO   N16 5590   3.854   4.940   1.880 -0.6681 -0.6772  0.4176
   14CHTO  H172 5591   3.901   4.934   1.977 -0.0625  0.3059  0.1914
   14CHTO  H173 5592   3.916   4.887   1.809  0.0078 -0.0155  0.5073
   14CHTO   C94 5593   3.613   4.947   1.978 -0.1863  0.0183 -0.0950
   14CHTO  H181 5594   3.662   5.006   2.056  1.9915  0.3400 -1.6543
   14CHTO   O61 5595   3.540   4.839   2.042  0.2153 -0.7500 -0.2496
   14CHTO   C95 5596   3.609   4.750   2.134  0.8341  0.1743  0.0188
   14CHTO  H182 5597   3.629   4.794   2.231 -0.3920 -0.0136  0.3648
   14CHTO  C106 5598   3.507   4.643   2.186  0.6092 -0.2697  0.6772
   14CHTO   O69 5599   3.382   4.696   2.234  0.5058 -0.4223 -0.1036
   14CHTO  H169 5600   3.378   4.790   2.235 -1.1412 -0.4784  1.0813
   14CHTO   O63 5601   3.513   5.044   1.869  0.0005 -0.1678  0.4079
   14CHTO   C96 5602   3.469   5.169   1.939 -0.7262  0.0334  1.1864
   14CHTO  H183 5603   3.544   5.205   2.008  0.0977 -0.9145  0.7904
   14CHTO   C98 5604   3.343   5.141   2.027  0.3826 -0.1183  0.5829
   14CHTO  H185 5605   3.273   5.079   1.970  1.1364 -1.9957  1.6485
   14CHTO   O67 5606   3.383   5.064   2.140 -0.3952 -0.3702  0.9365
   14CHTO  H167 5607   3.467   5.090   2.174  0.7783 -1.3344 -1.1049
   14CHTO  C102 5608   3.279   5.276   2.084  0.0884 -0.3195 -0.3126
   14CHTO  H189 5609   3.351   5.315   2.157  0.7955  0.6629 -1.5254
   14CHTO   N18 5610   3.152   5.269   2.154  0.5900 -0.0147  0.0061
   14CHTO  H176 5611   3.071   5.239   2.090  0.4352  0.6384 -0.1094
   14CHTO  H177 5612   3.165   5.197   2.234 -1.8842  1.4218  1.7688
   14CHTO  C105 5613   3.278   5.393   1.983 -0.4084  0.2172  0.6347
   14CHTO  H192 5614   3.197   5.374   1.912  0.1672 -3.2689  0.8001
   14CHTO   O65 5615   3.402   5.405   1.903 -0.2470  0.2736 -0.1153
   14CHTO  C100 5616   3.451   5.280   1.842 -0.2875 -0.8577 -0.1386
   14CHTO  H187 5617   3.384   5.249   1.761 -1.4640 -0.2729  0.5994
   14CHTO  C107 5618   3.592   5.306   1.783  0.2891 -0.1597 -0.0502
   14CHTO   O70 5619   3.576   5.415   1.688 -0.3076 -0.2912 -0.1747
   14CHTO  H170 5620   3.525   5.382   1.617 -0.9558 -0.2258  0.2631
   14CHTO   O57 5621   3.263   5.537   2.076  0.5079 -0.3820 -0.4397
   14CHTO   C85 5622   3.210   5.647   2.005 -0.0363 -0.3727 -0.4945
   14CHTO  H157 5623   3.114   5.617   1.960  0.7904 -1.6038 -1.4653
   14CHTO   C83 5624   3.302   5.682   1.885 -0.4036  0.3446 -0.0046
   14CHTO  H155 5625   3.307   5.605   1.809  2.1794  0.5334 -0.0927
   14CHTO   O56 5626   3.438   5.691   1.931 -0.1604  0.1659  0.4286
   14CHTO  H135 5627   3.504   5.653   1.877 -0.2483 -0.0433  0.4686
   14CHTO   C81 5628   3.261   5.811   1.820 -0.3084 -0.4584  1.5028
   14CHTO  H153 5629   3.159   5.795   1.784 -0.0593  0.2002  0.4909
   14CHTO   N14 5630   3.346   5.833   1.700  0.1416  0.2696  0.0096
   14CHTO  H141 5631   3.443   5.873   1.720 -0.5825  1.7259  0.6227
   14CHTO  H142 5632   3.358   5.751   1.632 -2.0978 -0.2594  0.1897
   14CHTO   C79 5633   3.257   5.941   1.915 -0.2316 -0.1716 -0.0331
   14CHTO  H151 5634   3.201   6.018   1.862 -0.3392  0.6439  1.2253
   14CHTO   O52 5635   3.175   5.905   2.035 -0.1040  0.0443 -0.2095
   14CHTO   C86 5636   3.201   5.776   2.098 -0.1565 -0.5615  0.2113
   14CHTO  H158 5637   3.298   5.784   2.150 -0.6787  0.0283  1.1143
   14CHTO   C90 5638   3.087   5.758   2.204 -0.1974  0.5109 -0.0642
   14CHTO   O60 5639   3.092   5.858   2.304 -0.1174 -0.3627  0.2050
   14CHTO  H138 5640   3.007   5.895   2.317 -0.3813  0.6175 -3.5778
   14CHTO   O50 5641   3.388   5.981   1.965 -0.1599  0.3252 -0.6514
   14CHTO   C73 5642   3.465   6.063   2.056 -0.3496 -0.0330  0.0206
   14CHTO  H145 5643   3.424   6.060   2.159 -0.0755  3.4720  0.2957
   14CHTO   C74 5644   3.448   6.211   2.012 -0.0918  0.3440 -0.4265
   14CHTO  H146 5645   3.342   6.240   2.007 -0.4617 -0.9397 -0.1695
   14CHTO   O54 5646   3.509   6.278   2.120  0.1724 -0.1184 -0.0709
   14CHTO  H133 5647   3.461   6.356   2.142 -0.7653 -0.5369 -0.6209
   14CHTO   C75 5648   3.525   6.243   1.882  0.1406  0.4516 -0.5443
   14CHTO  H147 5649   3.480   6.188   1.799  0.2114 -2.1138  1.0795
   14CHTO   N13 5650   3.533   6.384   1.838 -0.2555 -0.4420  0.2706
   14CHTO  H139 5651   3.519   6.462   1.912  1.6241 -2.7069  3.1000
   14CHTO  H140 5652   3.629   6.406   1.794 -1.3602  1.8093 -1.0894
   14CHTO   C76 5653   3.674   6.176   1.884 -0.0674 -0.1274 -0.4334
   14CHTO  H148 5654   3.729   6.247   1.947 -1.8679  2.1872 -1.4129
   14CHTO   O49 5655   3.677   6.036   1.931 -0.0249 -0.6432  0.2929
   14CHTO   C77 5656   3.615   6.025   2.061  0.5865 -0.1120  0.0889
   14CHTO  H149 5657   3.666   6.100   2.121  0.2478  2.6556 -2.9072
   14CHTO   C88 5658   3.628   5.884   2.116  0.1260 -0.0760  0.2355
   14CHTO   O58 5659   3.758   5.839   2.157  0.3292 -0.3088  0.0114
   14CHTO  H136 5660   3.809   5.814   2.082  1.0070 -0.6877  0.5907
   14CHTO   O51 5661   3.732   6.167   1.731 -0.1202 -0.5833 -0.1295
   14CHTO   C78 5662   3.897   6.140   1.766  0.2001 -0.2548  0.3812
   14CHTO  H150 5663   3.919   6.115   1.872  4.7114 -4.7843 -1.3931
   14CHTO   C80 5664   3.976   6.270   1.725  0.7202 -0.3894 -0.2185
   14CHTO  H152 5665   3.940   6.299   1.624 -1.0814 -1.5629  0.0562
   14CHTO   O55 5666   3.931   6.368   1.822 -0.0246  0.3967  0.1006
   14CHTO  H134 5667   3.946   6.341   1.910  1.5605 -0.9641 -0.5626
   14CHTO   C84 5668   4.125   6.243   1.730 -0.0911 -0.3895 -0.7658
   14CHTO  H156 5669   4.143   6.233   1.837  1.3747  1.1404 -0.8524
   14CHTO   N15 5670   4.210   6.344   1.664 -0.3942  0.4546  0.3510
   14CHTO  H143 5671   4.169   6.443   1.668 -2.2353 -0.2210 -0.9879
   14CHTO  H144 5672   4.299   6.342   1.724  0.8930 -0.2077 -1.5539
   14CHTO   C87 5673   4.166   6.100   1.686 -0.2171 -0.4482  0.0122
   14CHTO  H159 5674   4.189   6.100   1.579  3.0498 -0.8890  0.6812
   14CHTO   O53 5675   4.088   6.004   1.720  0.0351 -0.4196  0.5771
   14CHTO   C82 5676   3.949   6.020   1.684  0.1319 -1.1548 -0.2865
   14CHTO  H154 5677   3.926   6.043   1.580  1.1167  0.5271 -0.1621
   14CHTO   C89 5678   3.874   5.892   1.713 -0.4067 -0.0253  0.5801
   14CHTO   O59 5679   3.763   5.872   1.627  0.1896 -0.1248  0.1819
   14CHTO  H137 5680   3.706   5.820   1.680 -0.2258  0.3375  0.1972
   14CHTO   O45 5681   4.311   6.066   1.754 -0.0274 -0.1774  0.2370
   14CHTO   C67 5682   4.364   5.940   1.716 -0.3388 -0.7887  0.1230
   14CHTO  H124 5683   4.297   5.887   1.648 -0.5705 -0.0435 -0.2227
   14CHTO   C65 5684   4.496   5.973   1.641 -0.0965 -1.1115 -0.9400
   14CHTO  H122 5685   4.467   6.066   1.592  2.0676 -0.3874 -0.8959
   14CHTO   O44 5686   4.523   5.866   1.551  0.0484  0.2045 -0.3397
   14CHTO  H102 5687   4.609   5.833   1.567 -0.3204 -1.2718 -1.3014
   14CHTO   C63 5688   4.607   6.016   1.747 -0.0454  1.2103 -0.3703
   14CHTO  H120 5689   4.574   6.097   1.811 -0.8998 -0.9149  1.9478
   14CHTO   N11 5690   4.730   6.076   1.676 -0.4309 -0.1117  0.2575
   14CHTO  H108 5691   4.700   6.142   1.597 -0.0586 -1.7655 -1.3111
   14CHTO  H109 5692   4.800   6.000   1.645 -0.5566 -0.8380  1.7425
   14CHTO   C61 5693   4.646   5.902   1.849  0.2514 -0.2638  0.1950
   14CHTO  H118 5694   4.708   5.945   1.929  1.2381  0.6278 -1.0364
   14CHTO   O40 5695   4.520   5.851   1.910  0.3383  0.2790 -0.1202
   14CHTO   C68 5696   4.398   5.837   1.837 -0.7576  0.5849 -0.0797
   14CHTO  H125 5697   4.315   5.848   1.909 -0.3021  0.5533  0.4492
   14CHTO   C72 5698   4.394   5.688   1.791 -0.0856 -0.1418  0.1774
   14CHTO   O48 5699   4.357   5.582   1.876  0.0796 -0.0893  0.2347
   14CHTO  H105 5700   4.276   5.601   1.921 -0.4002 -2.2723  0.3709
   14CHTO   O38 5701   4.697   5.784   1.793 -0.0125  0.0636 -0.3785
   14CHTO   C55 5702   4.838   5.757   1.773  0.0358  0.3104  0.2788
   14CHTO  H112 5703   4.884   5.857   1.768 -0.7607  0.5955 -1.7382
   14CHTO   C56 5704   4.863   5.676   1.642 -0.2078  0.4218  0.3776
   14CHTO  H113 5705   4.794   5.590   1.649 -3.1766  2.5977 -1.2836
   14CHTO   O42 5706   4.822   5.755   1.532  0.0474  0.5400 -0.5947
   14CHTO  H100 5707   4.877   5.826   1.506  1.6942 -1.1119 -1.7818
   14CHTO   C57 5708   5.015   5.642   1.628  0.6908  0.6155  0.7431
   14CHTO  H114 5709   5.071   5.734   1.610 -0.5241  1.6815  2.3203
   14CHTO   N10 5710   5.043   5.551   1.512  0.3053 -0.5158  0.3041
   14CHTO  H106 5711   4.973   5.588   1.439 -2.2112 -2.0715  1.8556
   14CHTO  H107 5712   5.017   5.450   1.540 -0.8496 -1.0631 -2.5522
   14CHTO   C58 5713   5.072   5.576   1.760  0.3503 -0.1765 -0.0977
   14CHTO  H115 5714   5.024   5.477   1.779  0.1378  0.2475  1.6050
   14CHTO   O37 5715   5.044   5.673   1.862  0.4138  0.4675 -0.5619
   14CHTO   C59 5716   4.901   5.676   1.898  0.3326  0.1537 -0.3432
   14CHTO  H116 5717   4.862   5.575   1.912  0.7447  0.0103 -0.1928
   14CHTO   C70 5718   4.885   5.766   2.018 -0.2493 -0.1303 -0.6492
   14CHTO   O46 5719   4.938   5.708   2.139  0.6820 -0.5032 -0.4347
   14CHTO  H103 5720   4.893   5.628   2.158 -4.0616  1.9300 -0.7078
   14CHTO   O39 5721   5.225   5.552   1.750  0.6891  0.2782  0.4365
   14CHTO   C60 5722   5.304   5.504   1.861  0.2154 -0.5527 -0.5373
   14CHTO  H117 5723   5.232   5.505   1.943 -0.3682 -2.4996 -0.9999
   14CHTO   C62 5724   5.355   5.356   1.856  0.1681  0.4207  0.2273
   14CHTO  H119 5725   5.273   5.281   1.859  1.6756 -1.2734  0.2835
   14CHTO   O43 5726   5.418   5.351   1.723 -0.1475 -0.3210 -0.0544
   14CHTO  H101 5727   5.471   5.426   1.705  1.8622 -1.3982  1.1947
   14CHTO   C66 5728   5.456   5.329   1.975 -0.6682  0.0212 -1.2811
   14CHTO  H123 5729   5.404   5.338   2.070 -0.9807  0.0701 -1.4568
   14CHTO   N12 5730   5.518   5.195   1.980  0.2678  0.4587 -0.1699
   14CHTO  H110 5731   5.522   5.148   1.882  0.2638 -1.8892  0.9067
   14CHTO  H111 5732   5.483   5.140   2.067  1.3846  2.0193  1.2844
   14CHTO   C69 5733   5.562   5.442   1.980 -0.7241  0.0584 -0.0065
   14CHTO  H126 5734   5.636   5.427   1.898 -0.4356 -0.7063  0.3886
   14CHTO   O41 5735   5.491   5.572   1.992 -0.2542  0.2255 -0.5768
   14CHTO   C64 5736   5.419   5.611   1.888 -0.6644  0.3802  0.3668
   14CHTO  H121 5737   5.484   5.620   1.799 -1.0709  1.2327  0.1502
   14CHTO   C71 5738   5.370   5.755   1.916  0.0114 -0.0772  0.5160
   14CHTO   O47 5739   5.470   5.849   1.874 -0.2567 -0.0535  0.0278
   14CHTO  H104 5740   5.452   5.883   1.789 -2.3623  1.6459  1.0969
   14CHTO   O34 5741   5.629   5.426   2.108  0.6007 -0.6172  0.4298
   14CHTO   C49 5742   5.782   5.375   2.125  0.1478 -0.0931 -0.6132
   14CHTO   H91 5743   5.791   5.287   2.061 -1.2844 -0.6225 -0.1083
   14CHTO   C47 5744   5.810   5.354   2.273  0.1121  0.3634 -0.0195
   14CHTO   H89 5745   5.910   5.306   2.279 -0.9174 -1.6449  1.5299
   14CHTO   O33 5746   5.708   5.262   2.328 -0.2458  0.2637 -0.4711
   14CHTO   H70 5747   5.641   5.313   2.368  0.3736  1.3791 -0.8194
   14CHTO   C45 5748   5.813   5.492   2.349  0.4470 -1.0098 -0.1612
   14CHTO   H87 5749   5.712   5.503   2.391  1.7299  0.2798  2.6965
   14CHTO    N8 5750   5.916   5.486   2.459 -0.1159 -0.1582  0.0862
   14CHTO   H75 5751   6.016   5.482   2.420  0.4180  0.1244  1.3874
   14CHTO   H76 5752   5.914   5.580   2.512 -1.5956 -0.8926  1.3674
   14CHTO   C43 5753   5.844   5.616   2.245  1.1504  0.3600  0.3698
   14CHTO   H85 5754   5.749   5.639   2.197  0.7120 -2.3222 -0.1030
   14CHTO   O29 5755   5.937   5.575   2.148 -0.2794  0.5363  0.4810
   14CHTO   C50 5756   5.878   5.476   2.062  0.4807  0.2600 -0.4084
   14CHTO   H92 5757   5.823   5.528   1.982  1.0619 -0.2449 -1.1424
   14CHTO   C54 5758   5.995   5.415   1.979 -0.0794  0.2373 -0.5563
   14CHTO   O36 5759   6.068   5.308   2.043  0.0316  0.2774  0.3685
   14CHTO   H72 5760   6.156   5.333   2.066  0.7847 -2.8066  1.1452
   14CHTO   O27 5761   5.882   5.740   2.309 -0.1657 -0.3830 -0.1338
   14CHTO   C37 5762   5.809   5.866   2.327 -0.5188  0.1828  0.2907
   14CHTO   H79 5763   5.881   5.943   2.358  1.0513 -0.7592 -0.9443
   14CHTO   C38 5764   5.746   5.919   2.191 -0.2700 -0.2195  0.1919
   14CHTO   H80 5765   5.692   5.836   2.145  0.0699 -0.0803 -0.4635
   14CHTO   O31 5766   5.859   5.952   2.102 -0.4513 -0.1533 -0.1919
   14CHTO   H68 5767   5.914   5.882   2.074 -0.0274 -0.5219  1.4993
   14CHTO   C39 5768   5.655   6.046   2.220 -0.1511  0.9590 -0.2696
   14CHTO   H81 5769   5.708   6.132   2.258 -0.4465  0.1152  2.0978
   14CHTO    N7 5770   5.587   6.089   2.097  0.7119 -0.0330 -0.4233
   14CHTO   H73 5771   5.668   6.132   2.040  1.3841 -0.7036  0.0088
   14CHTO   H74 5772   5.551   6.003   2.044  3.6264 -2.2971  1.1218
   14CHTO   C40 5773   5.548   6.007   2.329 -1.2275  0.1613  0.3263
   14CHTO   H82 5774   5.480   5.926   2.302 -0.2491 -0.0152 -1.6448
   14CHTO   O26 5775   5.622   5.973   2.444  1.0230  0.0078 -0.5306
   14CHTO   C41 5776   5.704   5.846   2.437  0.2707 -0.5112 -0.2362
   14CHTO   H83 5777   5.636   5.765   2.406  0.8044 -0.4558 -1.5639
   14CHTO   C52 5778   5.755   5.810   2.572  0.1510  0.1593  0.3237
   14CHTO   O35 5779   5.836   5.886   2.622 -0.3675  0.1891  0.1275
   14CHTO   H71 5780   5.808   5.882   2.712 -0.2312  0.4978  0.1834
   14CHTO   O28 5781   5.473   6.116   2.385  0.3564  0.4561  0.0320
   14CHTO   C42 5782   5.330   6.113   2.392 -0.5616  0.0123 -0.3005
   14CHTO   H84 5783   5.316   6.173   2.483  2.3044  1.3419 -0.6691
   14CHTO   C44 5784   5.270   5.969   2.418 -0.6408  0.0395  0.2960
   14CHTO   H86 5785   5.268   5.916   2.323 -2.8988  0.4539  0.0861
   14CHTO   O32 5786   5.336   5.910   2.538  0.1938  0.0097 -0.1054
   14CHTO   H69 5787   5.422   5.886   2.509 -0.1146  1.1726 -2.1024
   14CHTO   C48 5788   5.116   5.978   2.444  0.3105  0.1633 -0.0174
   14CHTO   H90 5789   5.118   6.017   2.546  0.7063  1.1806 -0.4068
   14CHTO    N9 5790   5.049   5.839   2.450  0.5411  0.5157  0.4123
   14CHTO   H77 5791   5.040   5.787   2.356 -3.5104 -1.8104  1.9859
   14CHTO   H78 5792   4.950   5.849   2.491  0.3700 -0.9503  0.3811
   14CHTO   C51 5793   5.050   6.073   2.339 -0.3838 -0.2800  0.6242
   14CHTO   H93 5794   5.050   6.020   2.244  0.5197  1.9272 -0.6594
   14CHTO   O30 5795   5.121   6.196   2.327  0.1006 -0.0860 -0.2095
   14CHTO   C46 5796   5.260   6.191   2.279  0.8122  0.0067 -0.6449
   14CHTO   H88 5797   5.262   6.136   2.185 -0.4911 -1.2057  0.0265
   14CHTO   C53 5798   5.320   6.333   2.274  0.1552 -0.5697  0.1411
   14CHTO   O72 5799   5.317   6.391   2.404 -0.1037 -0.8010 -0.3421
   14CHTO  H199 5800   5.404   6.373   2.431 -0.4154  1.4505  2.4783
   14CHTO   O22 5801   4.918   6.120   2.382  0.2342 -0.9088  0.5471
   14CHTO   C31 5802   4.798   6.063   2.319  0.1178  0.0419  0.0226
   14CHTO   H59 5803   4.833   5.972   2.267 -0.7743  0.7291 -1.8271
   14CHTO   C29 5804   4.686   6.020   2.413  0.3409 -0.0675  0.8807
   14CHTO   H57 5805   4.656   6.113   2.464  1.5872 -0.3065  2.0576
   14CHTO   O21 5806   4.749   5.934   2.510  0.1744  0.0169  0.2683
   14CHTO   H37 5807   4.685   5.916   2.576  0.5145  0.6761  0.7838
   14CHTO   C27 5808   4.561   5.964   2.334 -0.4227 -0.5182 -0.7012
   14CHTO   H55 5809   4.588   5.872   2.280  2.2075  0.1357 -0.5837
   14CHTO    N5 5810   4.441   5.928   2.422  0.5375  0.6562 -0.2861
   14CHTO   H43 5811   4.419   5.822   2.424 -0.7163  0.9362  1.5938
   14CHTO   H44 5812   4.432   5.985   2.513  0.4525 -0.3820  0.3614
   14CHTO   C25 5813   4.524   6.074   2.221 -0.3242  0.5072  0.6088
   14CHTO   H53 5814   4.506   6.171   2.269 -0.6234  0.1123  1.3054
   14CHTO   O17 5815   4.643   6.091   2.134  0.3686 -0.5066 -0.4445
   14CHTO   C32 5816   4.743   6.159   2.205  0.5847 -0.2400 -0.6255
   14CHTO   H60 5817   4.694   6.246   2.247  1.9362  0.1084  0.2568
   14CHTO   C36 5818   4.851   6.195   2.102  0.1996 -0.6223  0.5885
   14CHTO   O25 5819   4.801   6.278   1.992  0.3024 -0.4986 -0.3178
   14CHTO   H40 5820   4.855   6.355   1.992 -0.1473 -0.1739  1.8071
   14CHTO   O15 5821   4.399   6.017   2.132  0.7481 -0.1341  1.0363
   14CHTO   C19 5822   4.285   6.094   2.095 -0.0238 -0.1019  0.7851
   14CHTO   H47 5823   4.264   6.065   1.991  2.2243 -0.4321  0.4145
   14CHTO   C20 5824   4.164   6.057   2.187 -0.0467  0.0623 -0.6930
   14CHTO   H48 5825   4.188   6.065   2.294  1.3815 -0.7123 -0.9408
   14CHTO   O19 5826   4.122   5.923   2.155  0.6226 -0.6792 -0.3928
   14CHTO   H35 5827   4.087   5.878   2.230 -1.3906 -1.0371 -1.5024
   14CHTO   C21 5828   4.043   6.157   2.164  0.0904  0.0970 -0.5386
   14CHTO   H49 5829   4.000   6.142   2.065  0.0654 -0.5091 -0.4345
   14CHTO    N4 5830   3.933   6.140   2.265 -0.0688 -0.1555  0.9035
   14CHTO   H41 5831   3.930   6.218   2.339 -1.5013  0.3759  0.2843
   14CHTO   H42 5832   3.840   6.141   2.210  0.7823 -0.9870 -0.6072
   14CHTO   C22 5833   4.085   6.304   2.148  0.0998  1.2174  0.4441
   14CHTO   H50 5834   4.109   6.337   2.249 -0.5041  1.4279  0.5208
   14CHTO   O14 5835   4.187   6.311   2.057 -0.1295 -0.3147 -0.1351
   14CHTO   C23 5836   4.311   6.248   2.096 -0.2047 -0.1430  0.4919
   14CHTO   H51 5837   4.335   6.287   2.196  1.0107 -1.5116  0.7427
   14CHTO   C34 5838   4.418   6.308   2.000  0.0482 -0.2114  0.4025
   14CHTO   O23 5839   4.471   6.420   2.061 -0.2823 -0.3228 -0.3599
   14CHTO   H38 5840   4.562   6.418   2.037  0.1067 -1.2569  1.1238
   14CHTO   O16 5841   3.982   6.386   2.091 -0.0855  0.8926 -0.6976
   14CHTO   C24 5842   3.984   6.550   2.093 -0.0414  0.0226 -0.2665
   14CHTO   H52 5843   3.913   6.594   2.023  0.8366  3.1485  0.6881
   14CHTO   C26 5844   4.123   6.602   2.065 -0.2806 -0.0424 -0.1467
   14CHTO   H54 5845   4.202   6.545   2.118  0.4456  0.8567 -0.2486
   14CHTO   O20 5846   4.156   6.569   1.929 -0.0087  0.0010  0.1790
   14CHTO   H36 5847   4.247   6.547   1.920 -0.5774 -1.6726 -2.0530
   14CHTO   C30 5848   4.141   6.757   2.091  0.4459  0.5223  0.4572
   14CHTO   H58 5849   4.076   6.808   2.019  1.3280  2.3151  0.8920
   14CHTO    N6 5850   4.287   6.797   2.086  0.0937  0.4694  0.3556
   14CHTO   H45 5851   4.307   6.902   2.096 -2.5054  1.0693 -0.4449
   14CHTO   H46 5852   4.343   6.742   2.161 -0.1424 -1.1439 -0.6343
   14CHTO   C33 5853   4.087   6.797   2.230  0.4378 -0.0380 -0.4879
   14CHTO   H61 5854   4.144   6.749   2.311 -0.7894 -1.5352 -0.4861
   14CHTO   O18 5855   3.950   6.751   2.242  0.3006  0.3270  0.6267
   14CHTO   C28 5856   3.940   6.608   2.229 -0.6915 -0.7735  0.1418
   14CHTO   H56 5857   3.997   6.559   2.308  0.2563  2.4675  1.5585
   14CHTO   C35 5858   3.790   6.555   2.240 -0.0969 -1.3366  0.0796
   14CHTO   O24 5859   3.705   6.656   2.182  0.3903 -0.1724  0.3647
   14CHTO   H39 5860   3.705   6.660   2.088  0.3879 -0.0729  0.3688
   14CHTO    O9 5861   4.093   6.937   2.256 -0.4633 -0.5811 -0.6339
   14CHTO   C13 5862   4.169   6.985   2.404 -0.1435  0.1140 -0.3223
   14CHTO   H26 5863   4.171   6.900   2.475 -2.7754 -0.3148 -0.7166
   14CHTO   C11 5864   4.088   7.101   2.464 -0.2024 -0.7021  0.1198
   14CHTO   H24 5865   3.987   7.067   2.492 -1.2428  1.3072 -1.0987
   14CHTO    O8 5866   4.058   7.199   2.361 -0.4469  0.0270  0.1448
   14CHTO    H3 5867   4.103   7.278   2.380  1.2960 -1.1223  0.8786
   14CHTO    C9 5868   4.151   7.158   2.591  0.2595 -0.4581  0.0751
   14CHTO   H22 5869   4.160   7.074   2.661  0.0726  0.7568  1.5754
   14CHTO    N2 5870   4.069   7.255   2.670  0.8882 -0.6206  0.3106
   14CHTO   H10 5871   3.966   7.228   2.691  0.6265  0.7325  0.8448
   14CHTO   H11 5872   4.087   7.354   2.632 -0.9835  0.7271  2.8001
   14CHTO    C7 5873   4.293   7.218   2.551 -0.5110 -0.0011 -0.4168
   14CHTO   H20 5874   4.337   7.249   2.647  1.0551 -1.0124 -0.7931
   14CHTO    O4 5875   4.373   7.113   2.487 -0.1590 -0.1472  0.6820
   14CHTO   C14 5876   4.318   7.035   2.382 -0.6672  0.1210  0.2702
   14CHTO   H27 5877   4.382   6.945   2.379 -0.4323  0.2788  0.5583
   14CHTO   C18 5878   4.335   7.106   2.247  0.1649  0.4943 -0.0866
   14CHTO   O13 5879   4.468   7.096   2.197 -0.0784  0.7336 -0.3939
   14CHTO    H7 5880   4.464   7.129   2.109 -0.2661  0.7688 -0.3720
   14CHTO    O2 5881   4.298   7.351   2.465 -0.1762 -0.0997  0.2387
   14CHTO    C1 5882   4.389   7.455   2.497  0.3750 -0.1753  0.6875
   14CHTO   H14 5883   4.399   7.518   2.407 -1.2568  0.8239  1.1831
   14CHTO    C2 5884   4.539   7.421   2.545  0.0429  1.3326  0.2387
   14CHTO   H15 5885   4.526   7.381   2.647  0.1125 -1.4915 -0.8297
   14CHTO    O6 5886   4.599   7.324   2.456  0.0221  0.5593  0.1728
   14CHTO    H1 5887   4.565   7.237   2.467 -0.1218  0.3698 -1.5067
   14CHTO    C3 5888   4.624   7.553   2.556  0.1148 -0.1053  0.4212
   14CHTO   H16 5889   4.635   7.589   2.452 -1.9716  1.0245  0.5737
   14CHTO    N1 5890   4.766   7.532   2.607 -0.1505  0.1939 -0.3919
   14CHTO    H8 5891   4.778   7.530   2.714  0.3049 -1.8379 -0.4692
   14CHTO    H9 5892   4.826   7.457   2.558  0.9718  0.4705  0.5371
   14CHTO    C4 5893   4.557   7.672   2.635  0.2877 -0.4552 -0.1236
   14CHTO   H17 5894   4.574   7.668   2.743  1.0627  1.3982 -0.1609
   14CHTO    O1 5895   4.412   7.682   2.615  0.4554  0.2481 -0.5585
   14CHTO    C5 5896   4.332   7.557   2.608 -0.0968  0.1920  0.3390
   14CHTO   H18 5897   4.338   7.505   2.703 -0.7860  2.3816  1.6073
   14CHTO   C16 5898   4.187   7.594   2.571  0.4126  0.2271 -0.1043
   14CHTO   O11 5899   4.132   7.650   2.690 -0.1562  0.0123  0.3752
   14CHTO    H5 5900   4.072   7.717   2.665  1.1724  0.3833 -1.8701
   14CHTO    O3 5901   4.604   7.798   2.591 -0.2870 -0.6268 -0.4440
   14CHTO    C6 5902   4.599   7.915   2.676 -0.1569 -0.4892 -0.5030
   14CHTO   H19 5903   4.531   7.905   2.761 -1.1066 -0.3610 -1.2406
   14CHTO    C8 5904   4.747   7.959   2.724  0.3001 -0.5813 -0.0269
   14CHTO   H21 5905   4.813   7.965   2.637  0.1631  0.2720 -0.0770
   14CHTO    O7 5906   4.793   7.850   2.808  0.4336 -0.4991 -0.0902
   14CHTO    H2 5907   4.859   7.799   2.765  1.0559 -0.2737  0.5983
   14CHTO   C12 5908   4.725   8.087   2.821 -0.4929 -0.4147  0.4958
   14CHTO   H25 5909   4.653   8.061   2.902 -0.2981  0.3025  0.9019
   14CHTO    N3 5910   4.851   8.130   2.891 -0.5213 -0.3207 -0.0199
   14CHTO   H12 5911   4.825   8.215   2.952 -1.0819 -1.8001  1.8470
   14CHTO   H13 5912   4.890   8.053   2.956 -0.0927 -0.2356 -0.1771
   14CHTO   C15 5913   4.659   8.201   2.735  0.4349 -1.0105 -0.7704
   14CHTO   H28 5914   4.735   8.235   2.665  2.0064 -2.0562  0.4033
   14CHTO   O10 5915   4.604   8.306   2.825 -0.2331 -0.2787  0.1400
   14CHTO    H4 5916   4.681   8.345   2.862 -0.5157  1.1675 -0.7439
   14CHTO    O5 5917   4.537   8.153   2.673  0.8686 -0.1206  0.9245
   14CHTO   C10 5918   4.546   8.037   2.591  0.1636  0.3908  0.1474
   14CHTO   H23 5919   4.620   8.058   2.515  2.1652 -0.4275  1.8065
   14CHTO   C17 5920   4.412   8.003   2.516  0.1770  0.0520 -1.0882
   14CHTO   O12 5921   4.381   8.099   2.410 -0.2483  0.0322  0.6096
   14CHTO    H6 5922   4.428   8.076   2.332  1.0805  1.2684  1.0226
   15CHTO  H203 5923   5.106   4.441   2.323 -1.6462  0.4270 -0.9113
   15CHTO   O82 5924   5.052   4.366   2.309 -0.7536 -0.3742 -0.1067
   15CHTO  C123 5925   5.033   4.358   2.168  0.2953  0.0480  0.1778
   15CHTO  H227 5926   4.928   4.387   2.154  0.1933  0.5479  1.9167
   15CHTO   O77 5927   5.120   4.463   2.101 -0.2551  0.0898  0.1119
   15CHTO  C118 5928   5.169   4.450   1.964  0.2228 -0.0439  0.2672
   15CHTO  H222 5929   5.109   4.519   1.903  0.5458  0.3410  0.3834
   15CHTO  C125 5930   5.319   4.509   1.966 -0.0510  0.6791 -0.0780
   15CHTO   O84 5931   5.328   4.651   1.988 -0.1017 -0.0402  0.2629
   15CHTO  H205 5932   5.288   4.691   1.913 -1.4407 -1.6309  0.1172
   15CHTO  C114 5933   5.171   4.301   1.910 -0.6074  0.5440 -0.3884
   15CHTO  H218 5934   5.251   4.252   1.965 -0.9262  0.8535  0.3585
   15CHTO  C116 5935   5.045   4.220   1.943 -0.2353  0.1180 -0.6854
   15CHTO  H220 5936   4.950   4.271   1.917  0.3246  1.4650 -0.1039
   15CHTO   O79 5937   5.060   4.096   1.880 -0.1898  0.0754  0.4370
   15CHTO  H201 5938   4.990   4.073   1.823  0.5894 -1.2320 -0.0095
   15CHTO  C120 5939   5.051   4.213   2.103  0.2895 -0.1674 -1.0779
   15CHTO  H224 5940   5.143   4.161   2.137 -2.1517 -2.3190  2.6127
   15CHTO   N21 5941   4.948   4.118   2.150  0.1784 -0.5216  0.2417
   15CHTO  H211 5942   4.896   4.144   2.242 -1.2150 -0.8481 -0.4343
   15CHTO  H212 5943   4.873   4.110   2.072  0.3938  1.4165 -0.1961
   15CHTO   O75 5944   5.208   4.324   1.775  0.0238  0.0115 -0.0146
   15CHTO  C112 5945   5.324   4.220   1.731 -0.5985 -0.4224  0.1758
   15CHTO  H216 5946   5.320   4.132   1.797 -0.2244 -0.6175 -0.0594
   15CHTO   O73 5947   5.449   4.294   1.743  0.6200  0.0215  0.0140
   15CHTO  C113 5948   5.559   4.204   1.733  0.9896 -0.1337 -0.0726
   15CHTO  H217 5949   5.547   4.124   1.809 -1.0069  1.1154  0.9896
   15CHTO  C124 5950   5.685   4.285   1.770  0.0662  0.0379 -0.2526
   15CHTO   O83 5951   5.683   4.331   1.906  0.1993  0.2929 -0.1569
   15CHTO  H204 5952   5.719   4.418   1.906  1.5801 -0.2552 -0.8550
   15CHTO  C109 5953   5.569   4.138   1.599 -0.1575 -0.2229  0.3844
   15CHTO  H213 5954   5.615   4.209   1.529  0.0593  0.0845  0.8381
   15CHTO  C110 5955   5.436   4.077   1.542  0.1918  0.5899 -0.0060
   15CHTO  H214 5956   5.420   3.979   1.587  0.4957  0.0562 -1.0422
   15CHTO   O78 5957   5.446   4.062   1.401 -0.2998 -0.1095 -0.0043
   15CHTO  H200 5958   5.521   4.014   1.371  0.0482  0.7154 -0.4679
   15CHTO  C111 5959   5.311   4.166   1.583 -0.3503  0.5229 -0.4300
   15CHTO  H215 5960   5.310   4.257   1.521 -0.2784  0.9392  0.1720
   15CHTO   N19 5961   5.186   4.096   1.560 -0.2943  0.0389 -0.3739
   15CHTO  H207 5962   5.178   4.089   1.453  2.0578  0.5552 -0.6159
   15CHTO  H208 5963   5.190   3.992   1.588 -0.5205 -0.1644 -1.1088
   15CHTO   O74 5964   5.657   4.038   1.620  0.4859 -0.4329  0.4863
   15CHTO  C115 5965   5.699   3.935   1.496  0.3989  0.3099 -0.1230
   15CHTO  H219 5966   5.648   3.962   1.404 -0.3997  0.1075  0.2526
   15CHTO   O76 5967   5.849   3.952   1.456 -0.8700  0.2932 -0.0138
   15CHTO  C122 5968   5.938   3.897   1.555 -0.1066  0.3240 -0.0554
   15CHTO  H226 5969   5.917   3.945   1.650 -1.6799  0.6261 -0.5412
   15CHTO  C126 5970   6.087   3.931   1.504  0.5985 -0.0132 -0.5036
   15CHTO   O85 5971   6.194   3.900   1.593  0.2326 -0.2239  0.7538
   15CHTO  H206 5972   6.178   3.821   1.643 -0.2717  0.4343  1.6478
   15CHTO  C121 5973   5.906   3.743   1.579 -0.0332 -0.0238  0.6159
   15CHTO  H225 5974   5.996   3.689   1.545  0.2319 -0.4807  1.9873
   15CHTO   O81 5975   5.898   3.726   1.727 -0.1658  0.0683  0.6383
   15CHTO  H202 5976   5.842   3.792   1.762 -0.1655  0.0275  0.7159
   15CHTO  C119 5977   5.780   3.690   1.511 -0.7600 -0.3792  0.1434
   15CHTO  H223 5978   5.802   3.695   1.405 -1.5315  1.8982  0.0542
   15CHTO  C117 5979   5.663   3.788   1.538 -0.3960  0.4340 -0.4497
   15CHTO  H221 5980   5.642   3.782   1.645 -1.5050 -1.5367 -0.7527
   15CHTO   N20 5981   5.541   3.737   1.470  0.2917  0.0252 -0.3207
   15CHTO  H209 5982   5.517   3.744   1.365  0.1144  0.1535 -0.2708
   15CHTO  H210 5983   5.497   3.648   1.513 -0.3202  1.0341  1.1575
   15CHTO   O80 5984   5.740   3.526   1.538  0.1106 -0.0742 -0.5031
   15CHTO  C103 5985   5.766   3.414   1.422 -0.4420  0.7755  0.0020
   15CHTO  H190 5986   5.736   3.318   1.463  0.2642 -0.0242 -1.3079
   15CHTO  C101 5987   5.698   3.434   1.293  0.1744 -0.4271 -0.0135
   15CHTO  H188 5988   5.722   3.533   1.254 -1.6386  0.8678  2.0095
   15CHTO   O68 5989   5.533   3.455   1.310 -0.0164  0.1077 -0.5091
   15CHTO  H168 5990   5.482   3.376   1.312  0.6183 -0.3352 -1.2310
   15CHTO   C99 5991   5.730   3.326   1.185  0.6017  0.2491 -0.4568
   15CHTO  H186 5992   5.686   3.233   1.228 -0.0490  0.3615 -0.8700
   15CHTO   N17 5993   5.680   3.346   1.050  1.1362 -0.2487  0.1420
   15CHTO  H174 5994   5.583   3.299   1.047  2.0684 -2.2545  0.7137
   15CHTO  H175 5995   5.679   3.451   1.025 -2.1818 -0.2596 -0.0051
   15CHTO   C97 5996   5.883   3.297   1.185  0.2200 -0.3265  0.0707
   15CHTO  H184 5997   5.931   3.370   1.119  0.0262 -0.6240 -0.4114
   15CHTO   O64 5998   5.946   3.292   1.312  0.0155  0.8352 -0.2824
   15CHTO  C104 5999   5.921   3.409   1.401 -0.3927  0.5111  0.6881
   15CHTO  H191 6000   5.951   3.508   1.368 -0.1376  0.5375  0.9923
   15CHTO  C108 6001   5.983   3.391   1.540  0.8991  0.4987 -0.4432
   15CHTO   O71 6002   6.126   3.398   1.524  0.0760  0.0103 -0.1308
   15CHTO  H171 6003   6.148   3.486   1.547  0.1913 -0.1885  0.5615
   15CHTO   O62 6004   5.901   3.160   1.145 -0.4068  0.1275  0.4976
   15CHTO   C91 6005   5.960   3.134   1.015  0.2544  1.0163  0.5332
   15CHTO  H178 6006   5.957   3.229   0.961  0.2982  0.6282 -0.1631
   15CHTO   C92 6007   5.854   3.037   0.951 -0.0411  0.1100  0.1150
   15CHTO  H179 6008   5.752   3.078   0.948 -0.4177 -0.8394 -0.1622
   15CHTO   O66 6009   5.889   3.034   0.811 -0.6501 -0.8589 -0.7238
   15CHTO  H166 6010   5.979   3.014   0.798  0.3889  0.6537  3.5245
   15CHTO   C93 6011   5.852   2.890   1.001 -0.3118  0.1477  0.0254
   15CHTO  H180 6012   5.819   2.828   0.917  1.9787 -1.0481 -0.0344
   15CHTO   N16 6013   5.747   2.862   1.106 -0.1861  0.2690 -0.0787
   15CHTO  H172 6014   5.749   2.758   1.132 -2.7881  0.4621  1.0266
   15CHTO  H173 6015   5.760   2.923   1.194 -0.6390 -0.7592  0.7079
   15CHTO   C94 6016   6.002   2.842   1.043  1.0534  0.0885  0.1906
   15CHTO  H181 6017   6.016   2.845   1.151  0.4782  1.1507  0.2469
   15CHTO   O61 6018   6.097   2.928   0.984  0.5435 -0.4459  0.1687
   15CHTO   C95 6019   6.100   3.065   1.020  0.6993  0.1454 -0.5106
   15CHTO  H182 6020   6.126   3.075   1.125 -2.9052  1.5701  0.3200
   15CHTO  C106 6021   6.197   3.133   0.926  0.2979 -0.0001  0.2143
   15CHTO   O69 6022   6.338   3.121   0.955 -0.3722  1.1786 -0.2863
   15CHTO  H169 6023   6.384   3.180   0.898 -0.9899  1.3504 -0.6104
   15CHTO   O63 6024   6.020   2.695   0.984  0.6729  0.1728  0.0118
   15CHTO   C96 6025   6.091   2.604   1.049 -0.1013 -0.0301 -0.2108
   15CHTO  H183 6026   6.119   2.653   1.142  0.9443  0.3894 -0.7412
   15CHTO   C98 6027   6.236   2.565   0.988  0.4207  0.6875 -0.0304
   15CHTO  H185 6028   6.231   2.547   0.879  2.0686 -4.5507  0.6545
   15CHTO   O67 6029   6.330   2.673   1.002  0.4565  0.4464 -0.5165
   15CHTO  H167 6030   6.325   2.746   0.943  3.5066  0.5948 -0.7067
   15CHTO  C102 6031   6.295   2.435   1.053 -0.2460  0.5621  0.2169
   15CHTO  H189 6032   6.339   2.464   1.150 -0.6543  0.4703  0.4322
   15CHTO   N18 6033   6.414   2.393   0.972 -0.3326 -0.0196  0.0821
   15CHTO  H176 6034   6.381   2.303   0.922 -2.3829  0.5504  0.3640
   15CHTO  H177 6035   6.494   2.363   1.038  0.7335 -2.6637 -2.3243
   15CHTO  C105 6036   6.191   2.320   1.074  0.6234  0.1688 -0.1632
   15CHTO  H192 6037   6.160   2.286   0.975  0.6319 -0.3367  0.0103
   15CHTO   O65 6038   6.077   2.373   1.150  0.2573 -0.4670  0.0900
   15CHTO  C100 6039   6.005   2.477   1.074 -0.3350 -0.4302  0.4796
   15CHTO  H187 6040   5.976   2.433   0.978 -1.1207 -1.2011  1.0667
   15CHTO  C107 6041   5.881   2.499   1.155  0.2844 -0.0650  0.1402
   15CHTO   O70 6042   5.802   2.380   1.160  0.3702  0.3460 -0.0034
   15CHTO  H170 6043   5.738   2.380   1.092  2.9716  0.5092 -2.5710
   15CHTO   O57 6044   6.253   2.200   1.142  0.1274  0.2878  0.1144
   15CHTO   C85 6045   6.178   2.094   1.200  0.1170 -0.0066  0.5155
   15CHTO  H157 6046   6.078   2.129   1.234 -0.5607  0.0864 -1.5119
   15CHTO   C83 6047   6.246   2.061   1.334 -0.5639 -0.3239  0.3349
   15CHTO  H155 6048   6.247   2.148   1.399  1.0134 -1.3280  1.6884
   15CHTO   O56 6049   6.387   2.036   1.318  0.6480  0.1049 -0.4365
   15CHTO  H135 6050   6.389   1.945   1.293 -0.3974 -1.2226  3.9200
   15CHTO   C81 6051   6.169   1.939   1.402 -0.1720  0.6158  0.1990
   15CHTO  H153 6052   6.065   1.969   1.411 -0.6103 -0.6686 -0.5397
   15CHTO   N14 6053   6.210   1.924   1.541  0.1740 -0.4403 -0.0278
   15CHTO  H141 6054   6.188   2.009   1.602 -3.1161 -1.2863  0.0838
   15CHTO  H142 6055   6.166   1.835   1.581  0.9001 -0.8072 -0.0291
   15CHTO   C79 6056   6.170   1.815   1.307  0.0318 -0.4228  0.3185
   15CHTO  H151 6057   6.107   1.738   1.352  0.4119 -0.8032  0.2083
   15CHTO   O52 6058   6.104   1.846   1.180 -0.1836 -0.1579 -0.0225
   15CHTO   C86 6059   6.162   1.964   1.112  0.4506  1.3461  0.3819
   15CHTO  H158 6060   6.267   1.947   1.080 -0.0804 -1.4475  0.0346
   15CHTO   C90 6061   6.090   1.999   0.977  0.0412 -0.0738  0.2414
   15CHTO   O60 6062   6.118   1.918   0.864  0.4817  0.2891 -0.2188
   15CHTO  H138 6063   6.105   1.832   0.900  3.7274  0.0061  0.4305
   15CHTO   O50 6064   6.299   1.769   1.282 -0.7217  0.1331  0.6029
   15CHTO   C73 6065   6.332   1.641   1.219 -0.7964 -0.0130  0.4350
   15CHTO  H145 6066   6.275   1.632   1.125 -1.5848 -0.3178  0.9404
   15CHTO   C74 6067   6.295   1.517   1.302 -0.5122 -0.8375  0.1816
   15CHTO  H146 6068   6.191   1.529   1.337 -1.3461 -2.6641 -1.5760
   15CHTO   O54 6069   6.299   1.400   1.214  0.1492  0.2409  0.5297
   15CHTO  H133 6070   6.234   1.405   1.146  1.6659 -1.3944 -1.0705
   15CHTO   C75 6071   6.399   1.513   1.427 -0.3375 -0.8510 -0.2919
   15CHTO  H147 6072   6.381   1.600   1.491 -0.4172 -1.3339  0.3495
   15CHTO   N13 6073   6.379   1.390   1.510  0.8624 -0.3970  0.4706
   15CHTO  H139 6074   6.314   1.403   1.596 -1.7284  0.9515 -1.5967
   15CHTO  H140 6075   6.338   1.308   1.454 -2.0455  0.3169  1.4231
   15CHTO   C76 6076   6.548   1.525   1.375 -0.6096  0.0185  0.1040
   15CHTO  H148 6077   6.576   1.443   1.309 -0.3352  0.4598 -0.3328
   15CHTO   O49 6078   6.570   1.644   1.298 -0.4898 -0.1793 -0.2679
   15CHTO   C77 6079   6.484   1.647   1.179 -0.3814 -0.0752 -0.1914
   15CHTO  H149 6080   6.507   1.559   1.119 -2.1699 -0.3246 -0.5575
   15CHTO   C88 6081   6.521   1.771   1.094 -0.4259  0.0183 -0.5552
   15CHTO   O58 6082   6.472   1.751   0.956 -0.4001  0.1370 -0.3401
   15CHTO  H136 6083   6.394   1.802   0.947 -1.8692 -1.6390  1.8624
   15CHTO   O51 6084   6.647   1.536   1.492  0.0993  0.5451 -0.0811
   15CHTO   C78 6085   6.805   1.562   1.445  0.4541 -0.4726 -0.1501
   15CHTO  H150 6086   6.800   1.596   1.340 -1.5613  1.1937  0.4394
   15CHTO   C80 6087   6.893   1.435   1.464  0.5237 -0.0832 -0.7735
   15CHTO  H152 6088   6.863   1.394   1.563 -0.0611  3.6205  0.6777
   15CHTO   O55 6089   6.853   1.334   1.368 -0.0838 -0.6454 -0.3942
   15CHTO  H134 6090   6.878   1.251   1.402 -0.2487 -0.9570 -1.0221
   15CHTO   C84 6091   7.047   1.464   1.467 -0.6705  1.1399 -0.1481
   15CHTO  H156 6092   7.080   1.479   1.364 -0.6843 -2.2458 -0.7051
   15CHTO   N15 6093   7.127   1.342   1.518 -0.6628  0.4148  0.2770
   15CHTO  H143 6094   7.212   1.394   1.559  1.3212  1.3082 -4.5822
   15CHTO  H144 6095   7.157   1.287   1.432 -3.7605 -0.9751  0.0182
   15CHTO   C87 6096   7.077   1.591   1.545 -0.1462 -0.1580  0.4755
   15CHTO  H159 6097   7.054   1.573   1.650 -2.1490 -0.1695  0.0501
   15CHTO   O53 6098   6.992   1.715   1.489 -1.1437  0.1755  0.5123
   15CHTO   C82 6099   6.854   1.692   1.517  0.5820  0.1902 -0.3386
   15CHTO  H154 6100   6.833   1.693   1.624  1.6880  1.6155 -0.1192
   15CHTO   C89 6101   6.792   1.821   1.457 -0.7921 -0.3236 -0.4442
   15CHTO   O59 6102   6.660   1.865   1.490 -0.3622  0.5631 -0.3200
   15CHTO  H137 6103   6.671   1.919   1.566 -1.6684  0.7366 -0.2357
   15CHTO   O45 6104   7.227   1.619   1.512 -0.1875  0.4438  0.0354
   15CHTO   C67 6105   7.287   1.739   1.532 -0.6323 -0.0587 -0.2064
   15CHTO  H124 6106   7.243   1.819   1.474 -0.0611  0.5010  0.1284
   15CHTO   C65 6107   7.287   1.782   1.681  0.4197  0.0941  0.2991
   15CHTO  H122 6108   7.287   1.687   1.733  1.3207  0.1118  0.3449
   15CHTO   O44 6109   7.161   1.845   1.699  1.0697 -0.3439 -0.4044
   15CHTO  H102 6110   7.158   1.932   1.665  0.0181 -0.5585 -0.8922
   15CHTO   C63 6111   7.416   1.867   1.734  0.2128  0.3710 -0.0950
   15CHTO  H120 6112   7.493   1.800   1.771 -1.0145 -0.4989  0.9231
   15CHTO   N11 6113   7.400   1.953   1.859 -0.1490  0.8196 -0.1066
   15CHTO  H108 6114   7.376   1.893   1.944  2.4829  1.0408  0.8433
   15CHTO  H109 6115   7.316   2.018   1.853 -0.9840 -0.2558 -0.2097
   15CHTO   C61 6116   7.477   1.942   1.609 -0.1205 -0.0847 -0.3998
   15CHTO  H118 6117   7.571   1.986   1.645 -0.8951  0.6965  0.7164
   15CHTO   O40 6118   7.509   1.852   1.501  0.0309 -0.2396 -0.2971
   15CHTO   C68 6119   7.434   1.730   1.482 -0.1559  0.9112 -0.0692
   15CHTO  H125 6120   7.497   1.656   1.537  0.0763  1.7671  0.8224
   15CHTO   C72 6121   7.460   1.706   1.332  0.2061 -0.8184 -0.7317
   15CHTO   O48 6122   7.427   1.583   1.272 -0.2702 -0.7469 -0.0400
   15CHTO  H105 6123   7.484   1.518   1.309  0.4013 -0.7521 -1.0637
   15CHTO   O38 6124   7.381   2.041   1.569 -0.2394 -0.4224  0.2292
   15CHTO   C55 6125   7.410   2.116   1.452  0.2817 -0.0694  0.6194
   15CHTO  H112 6126   7.483   2.070   1.385 -0.9400  0.1777 -0.9120
   15CHTO   C56 6127   7.461   2.260   1.496  0.6062 -0.5138  0.9275
   15CHTO  H113 6128   7.395   2.297   1.576  0.8723  1.2425  0.3555
   15CHTO   O42 6129   7.590   2.243   1.555 -0.7129  0.1089 -0.1541
   15CHTO  H100 6130   7.599   2.175   1.620 -0.1825  2.3015  2.1493
   15CHTO   C57 6131   7.463   2.359   1.384  0.6202  0.9002  0.4082
   15CHTO  H114 6132   7.549   2.331   1.324 -0.9339 -1.1185 -0.9264
   15CHTO   N10 6133   7.502   2.493   1.425  0.2833  0.3004  0.0129
   15CHTO  H106 6134   7.421   2.546   1.472 -0.0113 -0.7399  0.6796
   15CHTO  H107 6135   7.541   2.547   1.340  3.2929 -1.5295  0.1645
   15CHTO   C58 6136   7.333   2.358   1.300  1.5606 -0.5183  0.0628
   15CHTO  H115 6137   7.248   2.394   1.361  1.4627  0.7437 -0.7936
   15CHTO   O37 6138   7.302   2.225   1.248 -0.5401  0.5569 -0.1071
   15CHTO   C59 6139   7.283   2.131   1.355  0.4906 -0.3022 -0.2160
   15CHTO  H116 6140   7.199   2.168   1.414  1.2838  0.6303  0.3467
   15CHTO   C70 6141   7.245   1.997   1.290  0.1074  0.1612 -0.2184
   15CHTO   O46 6142   7.106   1.988   1.265  0.0994  0.3485 -0.1147
   15CHTO  H103 6143   7.096   1.939   1.186  2.2632 -0.8926  0.3272
   15CHTO   O39 6144   7.340   2.479   1.167 -0.4373  0.0795  0.2718
   15CHTO   C60 6145   7.227   2.511   1.090 -0.4956  0.2198  0.4448
   15CHTO  H117 6146   7.250   2.494   0.985 -2.3821  2.0674 -0.2951
   15CHTO   C62 6147   7.095   2.428   1.126 -0.1413 -0.2397 -0.0505
   15CHTO  H119 6148   7.108   2.317   1.132 -3.1819 -0.5648  1.5684
   15CHTO   O43 6149   7.057   2.464   1.259  0.3019  0.0637 -0.1016
   15CHTO  H101 6150   7.052   2.386   1.312  2.3331 -0.7122 -1.0160
   15CHTO   C66 6151   6.974   2.471   1.029  0.3520  0.4800  0.3971
   15CHTO  H123 6152   7.016   2.465   0.928  0.7999 -1.0866  0.6796
   15CHTO   N12 6153   6.850   2.391   1.035 -0.4605 -0.3255  0.0649
   15CHTO  H110 6154   6.837   2.332   1.125 -2.4691  0.1371  0.1035
   15CHTO  H111 6155   6.822   2.338   0.946 -1.6493  0.2028  0.1168
   15CHTO   C69 6156   6.946   2.620   1.056 -0.2394  0.0096 -0.5387
   15CHTO  H126 6157   6.911   2.628   1.162  0.1467 -0.0271 -0.4063
   15CHTO   O41 6158   7.071   2.710   1.043 -0.1384 -0.2070 -0.2218
   15CHTO   C64 6159   7.209   2.665   1.109  0.7795  0.0769 -0.0303
   15CHTO  H121 6160   7.201   2.700   1.214  0.2467 -0.2908  0.0529
   15CHTO   C71 6161   7.322   2.738   1.033  0.3082 -0.5218 -0.0580
   15CHTO   O47 6162   7.312   2.709   0.893  0.3331  0.2406  0.2707
   15CHTO  H104 6163   7.306   2.787   0.842  0.2811  0.3619  0.4608
   15CHTO   O34 6164   6.836   2.676   0.951 -0.2324  0.1476 -0.6490
   15CHTO   C49 6165   6.778   2.716   0.813  0.8804 -0.3441 -0.3065
   15CHTO   H91 6166   6.752   2.620   0.769 -1.7033 -1.2017  2.9627
   15CHTO   C47 6167   6.883   2.791   0.733 -0.2801 -0.0665  0.3827
   15CHTO   H89 6168   6.851   2.792   0.627 -1.0499 -0.4994  0.6109
   15CHTO   O33 6169   7.012   2.725   0.743  0.4058 -0.0852  0.2960
   15CHTO   H70 6170   7.027   2.697   0.831  1.3945 -2.7043 -0.6559
   15CHTO   C45 6171   6.904   2.941   0.800  0.3900  0.2925 -0.6361
   15CHTO   H87 6172   6.923   2.934   0.908  0.3123  0.9870 -0.5768
   15CHTO    N8 6173   7.012   3.020   0.739 -0.8028 -0.4853  0.1268
   15CHTO   H75 6174   7.005   3.026   0.631  0.1073 -0.8071  0.0428
   15CHTO   H76 6175   7.105   2.970   0.761 -0.7506 -0.3783  0.1505
   15CHTO   C43 6176   6.758   3.008   0.777  0.9716 -0.6554 -0.1491
   15CHTO   H85 6177   6.767   3.112   0.810  2.0310 -0.0942 -2.1302
   15CHTO   O29 6178   6.650   2.935   0.847 -0.1263 -0.4692 -0.0989
   15CHTO   C50 6179   6.649   2.793   0.834 -0.4026  0.1345 -0.3105
   15CHTO   H92 6180   6.604   2.755   0.927 -0.8799  1.7373  0.1160
   15CHTO   C54 6181   6.554   2.743   0.721  0.0110 -0.7616  0.1867
   15CHTO   O36 6182   6.418   2.787   0.730  0.3465 -0.1575  0.4746
   15CHTO   H72 6183   6.389   2.826   0.650 -0.9625  0.6466  1.3188
   15CHTO   O27 6184   6.722   3.019   0.637 -0.0351 -0.3336 -0.1822
   15CHTO   C37 6185   6.650   3.096   0.541  0.3496 -1.2347 -0.4908
   15CHTO   H79 6186   6.623   3.045   0.448 -0.6817  0.8231 -1.3593
   15CHTO   C38 6187   6.507   3.153   0.601  0.1809 -0.5167 -0.2507
   15CHTO   H80 6188   6.520   3.187   0.705 -1.2232 -0.4739 -0.0674
   15CHTO   O31 6189   6.418   3.035   0.610 -0.4248 -0.3155  0.3991
   15CHTO   H68 6190   6.338   3.073   0.641 -1.0851 -0.9437 -0.5218
   15CHTO   C39 6191   6.437   3.252   0.499 -0.0725 -0.5771  0.8572
   15CHTO   H81 6192   6.421   3.211   0.399 -2.3800  2.6720 -0.2008
   15CHTO    N7 6193   6.302   3.296   0.540  0.1897  0.2988 -0.1362
   15CHTO   H73 6194   6.259   3.241   0.623 -0.8610  1.7307  0.2990
   15CHTO   H74 6195   6.234   3.282   0.456 -2.3658  0.5255  1.8271
   15CHTO   C40 6196   6.541   3.371   0.479  0.4952  0.3281 -0.3931
   15CHTO   H82 6197   6.562   3.427   0.570  2.5358  0.1949 -0.7496
   15CHTO   O26 6198   6.659   3.320   0.419  0.2633  0.4509 -0.4724
   15CHTO   C41 6199   6.733   3.224   0.507  0.0842  0.1180 -0.2255
   15CHTO   H83 6200   6.763   3.273   0.601  0.9482 -1.8741  0.5526
   15CHTO   C52 6201   6.864   3.195   0.430 -0.5907  0.6867 -0.5321
   15CHTO   O35 6202   6.947   3.321   0.400 -0.8007  0.3584 -0.0835
   15CHTO   H71 6203   7.017   3.297   0.343 -0.1083 -1.4348  1.4737
   15CHTO   O28 6204   6.501   3.473   0.389 -0.3732 -0.1312  0.4826
   15CHTO   C42 6205   6.509   3.615   0.412 -0.4708 -0.2634  0.1342
   15CHTO   H84 6206   6.527   3.655   0.312  0.6503  1.6767  1.0933
   15CHTO   C44 6207   6.626   3.673   0.495  0.3597 -0.3682 -0.4459
   15CHTO   H86 6208   6.634   3.628   0.594  0.4083 -0.2492 -0.3959
   15CHTO   O32 6209   6.755   3.630   0.427 -0.1262 -0.4946  0.1792
   15CHTO   H69 6210   6.824   3.685   0.459 -0.2729  0.0522 -0.4370
   15CHTO   C48 6211   6.610   3.828   0.511 -0.2300 -0.2030  0.2860
   15CHTO   H90 6212   6.627   3.881   0.417  0.5790  0.9115  1.0521
   15CHTO    N9 6213   6.718   3.882   0.602  0.3054 -0.1208  0.4514
   15CHTO   H77 6214   6.739   3.988   0.600  0.2331 -0.1283 -1.2803
   15CHTO   H78 6215   6.808   3.821   0.602  1.1419  1.0523  1.9391
   15CHTO   C51 6216   6.467   3.859   0.570  0.8095 -0.5496 -0.0658
   15CHTO   H93 6217   6.457   3.820   0.671 -1.3878 -2.6896 -1.0622
   15CHTO   O30 6218   6.366   3.806   0.492 -0.0231  0.8826  0.6172
   15CHTO   C46 6219   6.367   3.667   0.464 -0.3828 -0.0206 -0.1547
   15CHTO   H88 6220   6.346   3.625   0.562  0.1099  0.1823  0.0423
   15CHTO   C53 6221   6.254   3.632   0.367 -0.4973  0.9413 -0.5522
   15CHTO   O72 6222   6.129   3.617   0.438  0.0574 -0.2111  0.5411
   15CHTO  H199 6223   6.152   3.562   0.510  0.5233 -1.3875 -0.5036
   15CHTO   O22 6224   6.442   4.002   0.581  0.1308 -0.5606 -0.1882
   15CHTO   C31 6225   6.321   4.076   0.623  0.3306  0.8014  0.0778
   15CHTO   H59 6226   6.348   4.183   0.613 -0.5467  1.3296  2.7296
   15CHTO   C29 6227   6.197   4.051   0.539  0.5393  0.7100 -0.4133
   15CHTO   H57 6228   6.165   3.945   0.533 -0.0293  0.7238  1.7957
   15CHTO   O21 6229   6.230   4.083   0.402 -0.1246  0.2639  0.6981
   15CHTO   H37 6230   6.300   4.024   0.384 -2.9422 -2.9354 -0.3811
   15CHTO   C27 6231   6.078   4.134   0.594  0.0769  0.4977 -0.5049
   15CHTO   H55 6232   6.108   4.238   0.577  1.2131  0.3246  0.3823
   15CHTO    N5 6233   5.946   4.111   0.523  0.2258 -0.0083  0.3292
   15CHTO   H43 6234   5.891   4.051   0.593  0.0771  0.5815  0.7201
   15CHTO   H44 6235   5.893   4.204   0.508 -2.6394 -1.3561  1.7392
   15CHTO   C25 6236   6.065   4.101   0.744  0.3260 -0.3013 -0.8885
   15CHTO   H53 6237   6.045   3.996   0.769 -1.6792 -0.0587 -1.3916
   15CHTO   O17 6238   6.191   4.145   0.810 -0.0926  0.0925  0.3426
   15CHTO   C32 6239   6.296   4.059   0.769 -0.7668  0.2276  0.0383
   15CHTO   H60 6240   6.264   3.956   0.783 -0.3627 -0.0209 -0.8558
   15CHTO   C36 6241   6.422   4.097   0.851  0.0882  0.1562 -0.6407
   15CHTO   O25 6242   6.397   4.043   0.982 -0.1059  0.0879 -0.2176
   15CHTO   H40 6243   6.452   4.078   1.050 -2.1475  0.9030  1.0673
   15CHTO   O15 6244   5.949   4.185   0.820  0.1667 -0.7716 -0.7508
   15CHTO   C19 6245   5.956   4.287   0.925 -0.3912  0.2789 -0.1299
   15CHTO   H47 6246   6.055   4.277   0.972 -0.1827 -1.3792 -0.8947
   15CHTO   C20 6247   5.941   4.431   0.880  0.2644 -0.5138 -0.2941
   15CHTO   H48 6248   5.846   4.453   0.829 -0.6131  0.6475  1.7679
   15CHTO   O19 6249   6.041   4.453   0.788  0.2158  0.7171  0.4342
   15CHTO   H35 6250   6.069   4.541   0.772  2.9127 -0.4561 -1.6741
   15CHTO   C21 6251   5.951   4.527   1.003 -0.4690 -0.0871  0.7534
   15CHTO   H49 6252   6.047   4.517   1.052 -0.6687  1.7935  1.5580
   15CHTO    N4 6253   5.927   4.670   0.961 -0.0581 -0.1663 -0.3018
   15CHTO   H41 6254   5.969   4.703   0.867  0.6156  0.2254  0.1355
   15CHTO   H42 6255   5.823   4.696   0.970 -0.3946 -1.2012 -1.1170
   15CHTO   C22 6256   5.861   4.488   1.122  0.0336 -0.8624 -0.7019
   15CHTO   H50 6257   5.763   4.519   1.086  0.7739 -0.5129 -2.4805
   15CHTO   O14 6258   5.868   4.350   1.152 -0.2427 -0.0810 -0.0021
   15CHTO   C23 6259   5.855   4.260   1.040  0.1730  0.3672  0.0320
   15CHTO   H51 6260   5.752   4.271   1.003  0.1629  0.0675 -0.0274
   15CHTO   C34 6261   5.864   4.117   1.106 -0.7318  0.7476  0.0863
   15CHTO   O23 6262   5.764   4.074   1.203  0.2089 -0.5753  0.0285
   15CHTO   H38 6263   5.782   4.120   1.283  3.4118 -0.7949 -0.4966
   15CHTO   O16 6264   5.878   4.561   1.245  0.2279  0.1073 -0.0317
   15CHTO   C24 6265   6.017   4.529   1.332  0.1556 -0.1584  0.1254
   15CHTO   H52 6266   6.090   4.477   1.270 -1.2853 -2.1559  0.0543
   15CHTO   C26 6267   5.978   4.446   1.459 -0.0420 -0.3508  0.0925
   15CHTO   H54 6268   5.901   4.503   1.515 -0.3427  0.3453 -1.0307
   15CHTO   O20 6269   5.912   4.324   1.414  0.1357 -0.7032 -0.2515
   15CHTO   H36 6270   5.965   4.263   1.366 -1.3479 -1.3797 -1.0783
   15CHTO   C30 6271   6.098   4.418   1.553  0.3357  0.2354 -0.2802
   15CHTO   H58 6272   6.164   4.350   1.496  0.7024 -0.1310  0.5826
   15CHTO    N6 6273   6.055   4.344   1.673  0.2688 -0.0311 -0.3532
   15CHTO   H45 6274   6.060   4.394   1.769 -0.1583  1.3191 -1.0156
   15CHTO   H46 6275   6.114   4.254   1.679  1.1984  0.5655 -0.2955
   15CHTO   C33 6276   6.180   4.550   1.583  1.0543 -0.4266  0.2078
   15CHTO   H61 6277   6.122   4.626   1.636  1.5134  0.1482 -0.1109
   15CHTO   O18 6278   6.209   4.605   1.449 -0.2852  0.1401  0.1600
   15CHTO   C28 6279   6.088   4.654   1.387  0.1539 -0.4347 -0.1370
   15CHTO   H56 6280   6.026   4.695   1.467 -0.0476 -1.9921  0.5284
   15CHTO   C35 6281   6.125   4.760   1.284  0.0632 -0.2954  1.0078
   15CHTO   O24 6282   6.144   4.885   1.346 -0.7084 -0.2847 -0.0107
   15CHTO   H39 6283   6.237   4.898   1.351 -0.5278 -0.9271 -1.4602
   15CHTO    O9 6284   6.296   4.530   1.663  0.4474 -0.0594  0.0784
   15CHTO   C13 6285   6.398   4.664   1.666  0.6954 -0.1137  0.2628
   15CHTO   H26 6286   6.347   4.763   1.675  1.2724  0.2437 -0.3462
   15CHTO   C11 6287   6.503   4.662   1.541 -0.0513 -0.1684  0.3345
   15CHTO   H24 6288   6.459   4.698   1.447  2.3994 -1.9655 -1.5552
   15CHTO    O8 6289   6.543   4.528   1.514  0.0375 -0.4049  0.8392
   15CHTO    H3 6290   6.607   4.533   1.445  1.2242  1.0399  2.0025
   15CHTO    C9 6291   6.627   4.748   1.574 -0.0271  0.5296 -0.0336
   15CHTO   H22 6292   6.590   4.844   1.611  1.1826  0.3338  1.7155
   15CHTO    N2 6293   6.712   4.789   1.463 -1.0098  0.3679  0.0343
   15CHTO   H10 6294   6.803   4.820   1.513 -0.9699  1.7624 -0.8940
   15CHTO   H11 6295   6.711   4.704   1.396  0.0847  0.9668 -0.7530
   15CHTO    C7 6296   6.707   4.681   1.694  0.1939 -0.1238  0.3840
   15CHTO   H20 6297   6.751   4.769   1.745 -0.1008 -0.3698  1.0571
   15CHTO    O4 6298   6.616   4.628   1.793  0.7418 -0.2377  0.4605
   15CHTO   C14 6299   6.480   4.670   1.800 -0.0529  0.2744  0.1527
   15CHTO   H27 6300   6.497   4.776   1.830 -0.4174  0.4105 -0.1037
   15CHTO   C18 6301   6.411   4.593   1.910 -0.2720 -0.0618 -0.2704
   15CHTO   O13 6302   6.273   4.640   1.920  0.0694 -0.0052  0.5896
   15CHTO    H7 6303   6.262   4.720   1.873  2.7910 -0.1121 -0.3383
   15CHTO    O2 6304   6.806   4.560   1.639  0.4494  0.8656  0.1431
   15CHTO    C1 6305   6.915   4.535   1.725 -0.3152 -0.8462 -0.3288
   15CHTO   H14 6306   6.891   4.573   1.826  0.3806 -0.9415 -0.1253
   15CHTO    C2 6307   7.053   4.597   1.678 -0.1146 -0.3019  0.1990
   15CHTO   H15 6308   7.072   4.565   1.575  1.8657 -0.2971  0.5408
   15CHTO    O6 6309   7.046   4.739   1.688  0.1965 -0.4979 -0.0653
   15CHTO    H1 6310   7.132   4.768   1.711  0.6422 -2.6828  1.1737
   15CHTO    C3 6311   7.174   4.530   1.777  0.4342 -0.6040  0.8289
   15CHTO   H16 6312   7.148   4.559   1.880 -0.5920  0.5432  0.2620
   15CHTO    N1 6313   7.309   4.590   1.751 -0.0859 -0.7343  0.3951
   15CHTO    H8 6314   7.366   4.543   1.671 -0.0343  2.0200 -1.2341
   15CHTO    H9 6315   7.362   4.583   1.845  0.6331  1.2615  0.1623
   15CHTO    C4 6316   7.156   4.377   1.765 -0.5276  0.7727  0.3452
   15CHTO   H17 6317   7.161   4.350   1.660 -1.6505  0.7369  0.2939
   15CHTO    O1 6318   7.035   4.340   1.824  0.1329  0.1524 -0.5733
   15CHTO    C5 6319   6.926   4.381   1.743  0.3229 -0.4017  0.6472
   15CHTO   H18 6320   6.942   4.346   1.641 -0.6757 -2.1432  1.0647
   15CHTO   C16 6321   6.798   4.314   1.807  0.0283 -0.2305 -0.4723
   15CHTO   O11 6322   6.769   4.351   1.941 -0.2446  0.2702 -0.0321
   15CHTO    H5 6323   6.790   4.274   1.991 -1.8055  0.2987  0.6872
   15CHTO    O3 6324   7.255   4.296   1.839  0.2203 -0.2041  0.1228
   15CHTO    C6 6325   7.281   4.160   1.779 -0.0581  0.1558  0.4445
   15CHTO   H19 6326   7.199   4.136   1.710  0.3549 -1.6985  0.5923
   15CHTO    C8 6327   7.412   4.161   1.694  0.3883  0.3736  0.2904
   15CHTO   H21 6328   7.494   4.195   1.756 -0.6238  0.5071  1.5791
   15CHTO    O7 6329   7.388   4.256   1.586  0.0479  0.0507  0.8435
   15CHTO    H2 6330   7.459   4.307   1.552  0.0750  1.0850  2.3550
   15CHTO   C12 6331   7.432   4.018   1.635 -1.0095  0.1796  0.4178
   15CHTO   H25 6332   7.349   4.002   1.562  0.8641  1.4494 -2.0673
   15CHTO    N3 6333   7.563   4.007   1.566  0.0659  0.2012  0.0911
   15CHTO   H12 6334   7.564   4.091   1.498 -0.0125 -0.9648 -1.3719
   15CHTO   H13 6335   7.586   3.909   1.526 -0.2146 -0.3777  1.3278
   15CHTO   C15 6336   7.413   3.906   1.739 -0.5138 -0.5913 -0.6257
   15CHTO   H28 6337   7.485   3.897   1.820 -0.0544 -1.0008 -1.0752
   15CHTO   O10 6338   7.396   3.781   1.683 -0.1317 -0.5285  0.2986
   15CHTO    H4 6339   7.478   3.739   1.665  0.1217 -0.4622  1.2510
   15CHTO    O5 6340   7.289   3.921   1.809  0.4488 -0.1801  0.3004
   15CHTO   C10 6341   7.281   4.039   1.884 -0.1944  0.6722 -0.1684
   15CHTO   H23 6342   7.365   4.049   1.953 -0.8681  0.9914  0.6172
   15CHTO   C17 6343   7.151   4.023   1.963 -0.1211 -0.2262 -0.3175
   15CHTO   O12 6344   7.119   4.133   2.056 -0.0727 -0.4067  0.0950
   15CHTO    H6 6345   7.080   4.105   2.137 -2.3860  0.1767 -0.7789
   16CHTO  H203 6346   4.863   4.076   0.415 -0.4709  1.3478 -2.3676
   16CHTO   O82 6347   4.912   4.141   0.461 -0.1338 -0.0504 -0.6986
   16CHTO  C123 6348   4.966   4.093   0.587  0.2837 -0.0056 -0.0391
   16CHTO  H227 6349   4.889   4.054   0.655  0.8600 -1.5723 -0.2564
   16CHTO   O77 6350   5.045   3.977   0.539  0.3661  0.1359 -0.1308
   16CHTO  C118 6351   5.118   3.905   0.642  0.6807  0.3729  0.5603
   16CHTO  H222 6352   5.044   3.869   0.715  0.9769  1.7623  1.5602
   16CHTO  C125 6353   5.201   3.779   0.580  0.3220 -0.2899  0.2940
   16CHTO   O84 6354   5.317   3.829   0.518 -0.2472  0.2946 -0.5388
   16CHTO  H205 6355   5.361   3.755   0.481 -0.5638 -0.3673  0.3986
   16CHTO  C114 6356   5.213   3.993   0.722  0.2161  0.3095 -0.5849
   16CHTO  H218 6357   5.292   4.028   0.655  1.8943 -3.4061 -0.6753
   16CHTO  C116 6358   5.145   4.118   0.774  0.1839  0.2260 -0.6314
   16CHTO  H220 6359   5.075   4.101   0.859 -0.8741 -0.0005 -1.5329
   16CHTO   O79 6360   5.246   4.206   0.825  0.4887  0.7788 -0.2532
   16CHTO  H201 6361   5.221   4.282   0.873  2.2491  0.8002  0.6736
   16CHTO  C120 6362   5.064   4.193   0.657  0.1600 -0.5596 -0.0572
   16CHTO  H224 6363   5.142   4.233   0.589 -0.0979 -0.1885 -0.1362
   16CHTO   N21 6364   4.994   4.311   0.710  0.3777 -0.1605 -0.8196
   16CHTO  H211 6365   4.903   4.281   0.759 -0.2369 -0.0379 -1.8775
   16CHTO  H212 6366   5.056   4.367   0.778 -1.7257 -2.3202  3.0414
   16CHTO   O75 6367   5.261   3.907   0.830 -0.0784 -0.2074 -0.1579
   16CHTO  C112 6368   5.422   3.898   0.854  0.1985  0.2289  0.7883
   16CHTO  H216 6369   5.470   3.997   0.858  0.0357  0.4106 -1.1071
   16CHTO   O73 6370   5.485   3.816   0.746  0.2176 -0.0076 -0.3187
   16CHTO  C113 6371   5.630   3.811   0.763 -1.0801  0.0106 -0.2018
   16CHTO  H217 6372   5.665   3.912   0.733 -0.5653  0.2148  1.0837
   16CHTO  C124 6373   5.687   3.725   0.651 -0.5814 -0.0139  0.3583
   16CHTO   O83 6374   5.639   3.591   0.645  0.6364 -0.2673 -0.0976
   16CHTO  H204 6375   5.652   3.544   0.565  1.1064 -0.0154 -0.1687
   16CHTO  C109 6376   5.688   3.756   0.896  0.1916 -0.6460  0.2659
   16CHTO  H213 6377   5.671   3.647   0.896  0.4303 -0.6945  1.2615
   16CHTO  C110 6378   5.611   3.825   1.013  0.1138 -0.3475 -0.0571
   16CHTO  H214 6379   5.643   3.930   1.014 -2.4337  0.4576  0.9953
   16CHTO   O78 6380   5.634   3.752   1.134  0.1772  0.1990 -0.5063
   16CHTO  H200 6381   5.600   3.797   1.209  2.2955 -0.2842  0.8171
   16CHTO  C111 6382   5.455   3.824   0.988  0.0781 -0.2063  0.1389
   16CHTO  H215 6383   5.420   3.720   0.976 -0.4052  0.1199 -1.2910
   16CHTO   N19 6384   5.376   3.885   1.095  0.4475  0.2112  0.1815
   16CHTO  H207 6385   5.419   3.980   1.126  2.0926 -0.2076 -0.7695
   16CHTO  H208 6386   5.268   3.889   1.087  0.3442  0.6372  1.6500
   16CHTO   O74 6387   5.830   3.780   0.912 -0.4129 -0.0311  0.1018
   16CHTO  C115 6388   5.899   3.662   0.975  0.0846  0.4110 -0.1655
   16CHTO  H219 6389   5.841   3.624   1.059  1.2112  2.2568  1.5015
   16CHTO   O76 6390   5.909   3.535   0.873 -0.1044 -0.1801  0.5102
   16CHTO  C122 6391   6.006   3.558   0.767  0.2280  0.4860 -0.1551
   16CHTO  H226 6392   5.967   3.641   0.708 -1.8240 -0.5733 -0.3630
   16CHTO  C126 6393   6.002   3.427   0.674 -0.4227  0.1689  0.2723
   16CHTO   O85 6394   5.872   3.420   0.603  0.2216 -0.8338  0.0617
   16CHTO  H206 6395   5.866   3.497   0.550 -0.0221 -1.3111 -0.6096
   16CHTO  C121 6396   6.155   3.585   0.836  0.6016 -0.0308 -0.4925
   16CHTO  H225 6397   6.208   3.490   0.816  0.1299 -0.7838  1.6667
   16CHTO   O81 6398   6.221   3.688   0.764 -0.3652  0.0077  0.3803
   16CHTO  H202 6399   6.294   3.661   0.712 -0.7619  0.0309 -0.1939
   16CHTO  C119 6400   6.148   3.605   0.992 -0.4189 -0.2646  0.0178
   16CHTO  H223 6401   6.111   3.512   1.035  0.4244 -0.1687  0.9892
   16CHTO  C117 6402   6.043   3.711   1.029 -0.3054 -0.3856  0.1380
   16CHTO  H221 6403   6.072   3.804   0.980 -0.5588  1.0545  2.6200
   16CHTO   N20 6404   6.035   3.744   1.173  0.6742  0.1945 -0.5712
   16CHTO  H209 6405   6.002   3.656   1.226  0.1357  1.6207  1.5123
   16CHTO  H210 6406   6.135   3.761   1.210 -0.5236  1.9595  1.9424
   16CHTO   O80 6407   6.294   3.616   1.052 -0.6788 -0.3232  0.1487
   16CHTO  C103 6408   6.391   3.503   1.021 -0.4833 -0.0721 -0.8807
   16CHTO  H190 6409   6.343   3.423   0.965  0.5863 -0.3086 -1.4881
   16CHTO  C101 6410   6.518   3.541   0.931 -0.9395  0.1781 -0.0914
   16CHTO  H188 6411   6.569   3.621   0.984 -0.7012  0.3762 -0.6209
   16CHTO   O68 6412   6.463   3.591   0.799 -0.0666 -0.4016  0.2758
   16CHTO  H168 6413   6.440   3.681   0.815 -1.7324 -0.8429  0.5259
   16CHTO   C99 6414   6.620   3.424   0.917  0.0498  0.1466  1.0454
   16CHTO  H186 6415   6.576   3.340   0.859  0.4868 -1.7726  3.4083
   16CHTO   N17 6416   6.745   3.460   0.844 -0.2906  0.3830 -0.3178
   16CHTO  H174 6417   6.727   3.494   0.743 -2.1023 -0.8902 -0.4614
   16CHTO  H175 6418   6.819   3.382   0.853 -0.5037  0.4578  2.4357
   16CHTO   C97 6419   6.649   3.361   1.060 -0.2794 -0.8221 -0.1616
   16CHTO  H184 6420   6.722   3.423   1.114 -2.0818  2.1522 -1.0143
   16CHTO   O64 6421   6.528   3.338   1.134  0.1739  0.2563  0.1250
   16CHTO  C104 6422   6.435   3.444   1.158 -0.0057  0.0867 -0.7875
   16CHTO  H191 6423   6.492   3.520   1.211  0.5139 -1.9061  1.6093
   16CHTO  C108 6424   6.324   3.394   1.250  0.0934 -0.5284  0.6203
   16CHTO   O71 6425   6.372   3.341   1.373  0.4537  0.1599 -0.2946
   16CHTO  H171 6426   6.305   3.336   1.439 -0.0542 -1.4026 -0.9142
   16CHTO   O62 6427   6.700   3.229   1.038 -0.1184  0.1164  0.2338
   16CHTO   C91 6428   6.756   3.161   1.154  0.3048  0.1185 -0.3000
   16CHTO  H178 6429   6.725   3.210   1.246 -1.8823 -1.4310 -0.1726
   16CHTO   C92 6430   6.916   3.161   1.152 -0.0016  0.2101  0.2661
   16CHTO  H179 6431   6.949   3.125   1.054 -3.8742 -0.4753 -0.8546
   16CHTO   O66 6432   6.970   3.292   1.155  0.0206 -0.4052 -0.1843
   16CHTO  H166 6433   6.962   3.334   1.072 -1.2340  0.1036  0.1845
   16CHTO   C93 6434   6.980   3.079   1.271  0.6949  0.2510  0.0182
   16CHTO  H180 6435   6.980   3.149   1.356  0.5162  1.4708 -0.9711
   16CHTO   N16 6436   7.121   3.033   1.254  0.0308  0.6619  0.3638
   16CHTO  H172 6437   7.130   2.940   1.309  0.3896 -0.1821 -1.0892
   16CHTO  H173 6438   7.189   3.106   1.295  1.3861 -0.7162  0.6143
   16CHTO   C94 6439   6.899   2.952   1.311 -0.5478  0.2532  0.4297
   16CHTO  H181 6440   6.918   2.869   1.243  0.1723  0.8462 -0.0963
   16CHTO   O61 6441   6.757   2.986   1.306 -0.0952 -0.7567  0.0887
   16CHTO   C95 6442   6.717   3.014   1.170  0.1511  0.0788 -0.2835
   16CHTO  H182 6443   6.756   2.944   1.096  0.7740  0.2466 -0.1150
   16CHTO  C106 6444   6.560   3.001   1.163  0.0166  1.0531  0.0844
   16CHTO   O69 6445   6.523   2.873   1.214  0.3321 -0.0425 -0.5234
   16CHTO  H169 6446   6.435   2.881   1.246  0.0428 -1.2638 -1.0019
   16CHTO   O63 6447   6.948   2.911   1.481  0.2882  0.4119  0.1856
   16CHTO   C96 6448   6.835   2.790   1.547 -0.6426  0.5404  0.0834
   16CHTO  H183 6449   6.893   2.745   1.627 -0.8587 -1.6627 -0.9563
   16CHTO   C98 6450   6.790   2.677   1.447  0.1330  0.8661 -0.0309
   16CHTO  H185 6451   6.767   2.726   1.351 -2.3864  0.9962  0.5965
   16CHTO   O67 6452   6.906   2.593   1.423 -0.4154  0.4990  0.6186
   16CHTO  H167 6453   6.905   2.516   1.477  0.9244 -0.2480 -0.3933
   16CHTO  C102 6454   6.657   2.594   1.483  0.0742  0.0998 -0.2207
   16CHTO  H189 6455   6.685   2.535   1.572  1.2064  0.9073 -0.0316
   16CHTO   N18 6456   6.613   2.495   1.380 -0.0571 -0.8148  0.6769
   16CHTO  H176 6457   6.692   2.421   1.374  0.4065 -0.3466  1.0077
   16CHTO  H177 6458   6.525   2.438   1.408 -0.8192  0.5997  1.1823
   16CHTO  C105 6459   6.558   2.711   1.515  0.0053 -0.9559  0.4411
   16CHTO  H192 6460   6.558   2.786   1.436 -3.1045 -1.5893 -0.2554
   16CHTO   O65 6461   6.594   2.782   1.632 -0.1687  0.1174  0.1047
   16CHTO  C100 6462   6.708   2.867   1.605  0.5343  0.2900 -0.0091
   16CHTO  H187 6463   6.691   2.948   1.532  1.3987 -0.3879 -0.9766
   16CHTO  C107 6464   6.761   2.942   1.736 -0.6654  1.0365  0.2425
   16CHTO   O70 6465   6.642   3.006   1.796  0.2016 -0.0496 -0.0064
   16CHTO  H170 6466   6.597   3.053   1.729  1.9941 -1.3744 -2.1709
   16CHTO   O57 6467   6.404   2.664   1.536  0.1986  0.5737 -0.0817
   16CHTO   C85 6468   6.300   2.715   1.451 -0.3119 -0.1507 -0.2517
   16CHTO  H157 6469   6.336   2.700   1.347 -0.0358  0.4045 -0.2398
   16CHTO   C83 6470   6.291   2.862   1.481 -0.1465  0.6875 -0.9550
   16CHTO  H155 6471   6.386   2.909   1.457  0.2385  0.0109 -0.7408
   16CHTO   O56 6472   6.274   2.885   1.622  0.2146 -0.5624  0.4900
   16CHTO  H135 6473   6.303   2.974   1.633 -2.1225  0.2259  0.3951
   16CHTO   C81 6474   6.178   2.926   1.394 -0.9624  0.1169  0.2267
   16CHTO  H153 6475   6.204   2.922   1.288 -1.9265 -1.7761  0.0389
   16CHTO   N14 6476   6.164   3.075   1.405  0.4108  0.6726 -0.1647
   16CHTO  H141 6477   6.146   3.112   1.504 -0.3391  2.0649 -0.8110
   16CHTO  H142 6478   6.079   3.099   1.345  0.1209  0.5980  0.2092
   16CHTO   C79 6479   6.042   2.853   1.419  0.4397  0.5648  0.4447
   16CHTO  H151 6480   5.964   2.891   1.352 -0.1689 -1.1616  0.1386
   16CHTO   O52 6481   6.049   2.710   1.395  0.1972  0.0271  0.0891
   16CHTO   C86 6482   6.160   2.645   1.473  0.0743 -0.9047  0.3223
   16CHTO  H158 6483   6.132   2.647   1.581  1.3631 -0.4499  0.6540
   16CHTO   C90 6484   6.174   2.494   1.438 -0.3838 -0.8189 -0.3559
   16CHTO   O60 6485   6.044   2.437   1.437 -0.3133  0.0501  0.1866
   16CHTO  H138 6486   6.016   2.413   1.523  0.6775  0.6784  0.6969
   16CHTO   O50 6487   5.978   2.881   1.546  0.2268 -0.7586  0.3305
   16CHTO   C73 6488   5.877   2.848   1.641  0.6428  0.9350 -0.0385
   16CHTO  H145 6489   5.894   2.743   1.669 -1.1828  0.4393 -0.7405
   16CHTO   C74 6490   5.729   2.860   1.576 -0.4841  0.0089  0.0401
   16CHTO  H146 6491   5.729   2.809   1.478 -1.1742 -0.3268  0.2106
   16CHTO   O54 6492   5.641   2.784   1.658  0.4252 -0.0182 -0.5774
   16CHTO  H133 6493   5.562   2.762   1.612  0.5936  1.4772 -1.6141
   16CHTO   C75 6494   5.698   3.012   1.561  0.1369 -0.3220 -0.1599
   16CHTO  H147 6495   5.778   3.055   1.499  0.1185  0.6082  0.4647
   16CHTO   N13 6496   5.573   3.036   1.485 -0.0253  0.4624  0.0676
   16CHTO  H139 6497   5.582   3.005   1.382 -2.3831  1.9504 -0.6117
   16CHTO  H140 6498   5.497   2.981   1.539 -1.1232  1.0888 -0.8507
   16CHTO   C76 6499   5.691   3.082   1.705  0.3330 -0.9695 -0.3078
   16CHTO  H148 6500   5.611   3.038   1.763 -1.6246  0.9350 -1.5062
   16CHTO   O49 6501   5.819   3.060   1.771 -0.9014  0.1206 -0.0253
   16CHTO   C77 6502   5.879   2.931   1.770  0.1164 -0.1869 -0.1229
   16CHTO  H149 6503   5.822   2.884   1.851  0.8685  0.0153  0.5252
   16CHTO   C88 6504   6.023   2.943   1.838 -0.3239 -0.0108 -0.1535
   16CHTO   O58 6505   6.003   2.987   1.971  0.0455 -0.6913 -0.2506
   16CHTO  H136 6506   6.087   3.010   2.005  1.3726 -2.5837 -2.1210
   16CHTO   O51 6507   5.680   3.242   1.695 -0.1491 -0.8016 -0.4899
   16CHTO   C78 6508   5.587   3.304   1.809  0.3756  0.9437 -0.0332
   16CHTO  H150 6509   5.563   3.221   1.879 -0.9360  1.6767  0.4177
   16CHTO   C80 6510   5.454   3.356   1.748 -0.3125  0.1811  0.0077
   16CHTO  H152 6511   5.469   3.409   1.651 -1.2969  2.5789  1.1073
   16CHTO   O55 6512   5.366   3.247   1.711  0.2677  0.1592  1.1455
   16CHTO  H134 6513   5.312   3.209   1.778 -1.7714  0.4755 -0.2871
   16CHTO   C84 6514   5.389   3.470   1.849  0.0186  0.2011  0.9818
   16CHTO  H156 6515   5.343   3.408   1.926 -0.1331 -2.2093 -0.9772
   16CHTO   N15 6516   5.290   3.556   1.771 -0.1578 -0.3863 -0.2068
   16CHTO  H143 6517   5.255   3.502   1.686  0.1361 -1.4348  0.3348
   16CHTO  H144 6518   5.207   3.577   1.836 -0.4653  1.1576 -1.0786
   16CHTO   C87 6519   5.484   3.564   1.927 -0.4266  0.4639 -0.0988
   16CHTO  H159 6520   5.534   3.638   1.866 -0.4945 -0.6503 -1.5182
   16CHTO   O53 6521   5.587   3.485   1.975 -0.4384  0.3001 -0.1504
   16CHTO   C82 6522   5.668   3.413   1.879  0.3900  0.3249 -0.2676
   16CHTO  H154 6523   5.713   3.486   1.813  0.6165 -1.1968 -1.8334
   16CHTO   C89 6524   5.779   3.369   1.977  0.7677  0.0005  0.2439
   16CHTO   O59 6525   5.871   3.287   1.909 -0.0099 -0.2104  0.0107
   16CHTO  H137 6526   5.829   3.204   1.894 -0.2514 -0.0684 -0.0902
   16CHTO   O45 6527   5.413   3.620   2.048 -0.2841 -0.5849  0.2044
   16CHTO   C67 6528   5.493   3.728   2.108  0.4031  0.5463  1.1849
   16CHTO  H124 6529   5.594   3.719   2.067  0.2317 -0.1381  0.9150
   16CHTO   C65 6530   5.428   3.861   2.064  0.0068  0.3771 -0.2836
   16CHTO  H122 6531   5.322   3.834   2.067  0.2123 -0.4207 -0.1588
   16CHTO   O44 6532   5.468   3.884   1.932  0.0240 -0.3277  0.5081
   16CHTO  H102 6533   5.432   3.969   1.911  2.0071  1.2117  3.0861
   16CHTO   C63 6534   5.444   3.968   2.180  0.3770 -0.0507  0.2422
   16CHTO  H120 6535   5.365   3.952   2.254  0.0910  1.9358  0.4069
   16CHTO   N11 6536   5.413   4.107   2.144 -0.2702 -0.4755 -0.0790
   16CHTO  H108 6537   5.417   4.126   2.039 -0.7527 -0.2714 -0.0602
   16CHTO  H109 6538   5.323   4.140   2.190  1.0225 -0.4099  2.4807
   16CHTO   C61 6539   5.582   3.939   2.244  0.2908  0.4602 -0.4948
   16CHTO  H118 6540   5.592   4.016   2.322  1.1284  0.4796 -0.6147
   16CHTO   O40 6541   5.610   3.811   2.304  0.8131  0.1900  0.0592
   16CHTO   C68 6542   5.501   3.713   2.263  0.8310  0.2866  0.6356
   16CHTO  H125 6543   5.408   3.740   2.318 -0.8447  0.0923 -2.0434
   16CHTO   C72 6544   5.543   3.572   2.311  0.4074  0.6771  0.6853
   16CHTO   O48 6545   5.438   3.483   2.297  0.0101  0.1213  0.1997
   16CHTO  H105 6546   5.452   3.408   2.351  2.2022 -0.2101 -0.7880
   16CHTO   O38 6547   5.692   3.960   2.149  0.2899  0.1051  0.1235
   16CHTO   C55 6548   5.825   3.984   2.199  0.5285 -0.1885 -0.9929
   16CHTO  H112 6549   5.838   3.934   2.296 -1.3650  2.4700  0.6793
   16CHTO   C56 6550   5.857   4.140   2.208 -0.4899 -0.2166 -0.0409
   16CHTO  H113 6551   5.823   4.185   2.113 -2.0579 -0.5078  0.3702
   16CHTO   O42 6552   5.777   4.203   2.309 -0.1402  0.1830  0.2590
   16CHTO  H100 6553   5.717   4.140   2.345  0.8115 -0.0023  1.5599
   16CHTO   C57 6554   6.011   4.172   2.229 -0.1139  0.1518 -0.1640
   16CHTO  H114 6555   6.033   4.128   2.326  0.7051  1.0950  0.0849
   16CHTO   N10 6556   6.032   4.318   2.233 -0.1414 -0.0836 -0.0097
   16CHTO  H106 6557   6.118   4.341   2.295  0.1887 -0.8927 -0.1622
   16CHTO  H107 6558   6.057   4.355   2.135 -1.4094 -1.5190 -0.8785
   16CHTO   C58 6559   6.092   4.104   2.122 -0.0689  0.1506 -0.3201
   16CHTO  H115 6560   6.068   4.144   2.022 -3.4856 -1.8497 -0.3804
   16CHTO   O37 6561   6.066   3.964   2.129 -0.1611  0.3828  0.5382
   16CHTO   C59 6562   5.924   3.923   2.100  0.0483 -0.1402  0.2869
   16CHTO  H116 6563   5.905   3.943   1.995 -0.8658 -1.1174  0.2473
   16CHTO   C70 6564   5.913   3.772   2.082 -0.2010  0.2379  0.4169
   16CHTO   O46 6565   5.935   3.699   2.204  0.5623 -0.0081  0.5420
   16CHTO  H103 6566   5.888   3.619   2.197 -0.1207  0.2742  1.8168
   16CHTO   O39 6567   6.261   4.113   2.147  0.1760  0.4609 -0.4002
   16CHTO   C60 6568   6.325   4.049   2.033 -0.0861  0.0467 -1.2292
   16CHTO  H117 6569   6.262   3.984   1.972 -0.1443 -0.2071 -0.8960
   16CHTO   C62 6570   6.365   4.162   1.932 -0.0801 -0.2328 -0.2134
   16CHTO  H119 6571   6.271   4.208   1.895 -0.0416  0.6159  0.7456
   16CHTO   O43 6572   6.453   4.260   2.001 -0.2483  0.3102  0.3115
   16CHTO  H101 6573   6.537   4.218   2.007  0.7472  2.1739 -0.3239
   16CHTO   C66 6574   6.419   4.090   1.801  0.2756 -0.1182  0.3917
   16CHTO  H123 6575   6.337   4.029   1.763  0.6838 -1.0774  1.0443
   16CHTO   N12 6576   6.439   4.188   1.691  0.0020  0.3680  1.1711
   16CHTO  H110 6577   6.457   4.285   1.735 -0.2721  0.1113  1.8538
   16CHTO  H111 6578   6.344   4.185   1.639  0.2399  0.6421  0.7215
   16CHTO   C69 6579   6.544   4.006   1.831  0.7166  0.2777 -0.2590
   16CHTO  H126 6580   6.629   4.071   1.860 -0.0156 -0.2627  3.2757
   16CHTO   O41 6581   6.508   3.898   1.951 -0.1264 -0.1890 -0.2457
   16CHTO   C64 6582   6.458   3.972   2.073  0.4906  0.5744 -0.9210
   16CHTO  H121 6583   6.537   4.042   2.109 -0.5925  0.8231  1.0130
   16CHTO   C71 6584   6.440   3.865   2.194  0.3206  0.0458 -0.0069
   16CHTO   O47 6585   6.378   3.912   2.318 -0.1957 -0.3542  0.2697
   16CHTO  H104 6586   6.397   3.850   2.385  0.6875  1.0658  1.3662
   16CHTO   O34 6587   6.577   3.907   1.728 -0.4701  0.1538 -0.5326
   16CHTO   C49 6588   6.697   3.798   1.675 -0.9257 -0.6315  0.1949
   16CHTO   H91 6589   6.731   3.834   1.578 -0.8954  1.1225  0.8428
   16CHTO   C47 6590   6.640   3.655   1.645  0.6194  0.5202 -0.1791
   16CHTO   H89 6591   6.720   3.592   1.600 -0.3928 -1.1704  0.3224
   16CHTO   O33 6592   6.530   3.662   1.547 -0.1736 -0.9131 -0.0630
   16CHTO   H70 6593   6.461   3.714   1.583  0.4942  0.0056 -0.0837
   16CHTO   C45 6594   6.606   3.589   1.787 -0.3099 -0.4083  0.0789
   16CHTO   H87 6595   6.538   3.658   1.839  0.7728 -0.9962  2.2931
   16CHTO    N8 6596   6.544   3.451   1.777 -0.2903 -0.2969  1.0377
   16CHTO   H75 6597   6.466   3.453   1.702  0.9504 -2.9987 -0.3863
   16CHTO   H76 6598   6.498   3.423   1.871 -0.0823  0.9562  1.5266
   16CHTO   C43 6599   6.735   3.593   1.880  0.3248 -0.2870 -0.2762
   16CHTO   H85 6600   6.693   3.563   1.976 -3.7092  0.1104 -1.8304
   16CHTO   O29 6601   6.802   3.718   1.891 -0.2837  0.1174  0.1038
   16CHTO   C50 6602   6.812   3.803   1.776 -0.1865 -0.2701  0.2889
   16CHTO   H92 6603   6.824   3.906   1.811  1.9354  0.2512 -1.8313
   16CHTO   C54 6604   6.951   3.781   1.713  0.0896  0.4410  0.2389
   16CHTO   O36 6605   6.982   3.891   1.620 -0.3681  0.0444 -0.1385
   16CHTO   H72 6606   6.989   3.858   1.532 -1.8368  2.4061 -1.1875
   16CHTO   O27 6607   6.835   3.492   1.834 -0.5717 -0.1782  0.0821
   16CHTO   C37 6608   6.928   3.396   1.883  0.4462 -0.0363 -0.1192
   16CHTO   H79 6609   7.023   3.446   1.907  0.9055 -0.2068 -1.4961
   16CHTO   C38 6610   6.880   3.323   2.016 -0.0107 -0.1984 -0.4780
   16CHTO   H80 6611   6.780   3.278   2.005 -0.8249  1.4048  0.1215
   16CHTO   O31 6612   6.852   3.423   2.117 -0.2818  0.3350  0.2433
   16CHTO   H68 6613   6.845   3.397   2.206  2.1618  1.0043  0.6661
   16CHTO   C39 6614   6.982   3.208   2.068  0.1485 -0.3719  0.1341
   16CHTO   H81 6615   7.069   3.253   2.117  0.4628 -0.6561 -0.1610
   16CHTO    N7 6616   6.921   3.116   2.167  0.0540 -0.4685  0.3916
   16CHTO   H73 6617   6.814   3.103   2.163 -0.0862 -0.1474  2.5848
   16CHTO   H74 6618   6.973   3.023   2.149  1.6271  0.7322 -1.3364
   16CHTO   C40 6619   7.040   3.126   1.941  0.0320  0.2361  0.8426
   16CHTO   H82 6620   6.979   3.041   1.910  1.6465 -0.5309 -0.3570
   16CHTO   O26 6621   7.074   3.209   1.830 -0.0915 -0.1325 -0.3091
   16CHTO   C41 6622   6.969   3.286   1.775 -0.2439 -0.1122 -0.5579
   16CHTO   H83 6623   6.886   3.214   1.766  0.6709 -1.3360  0.7564
   16CHTO   C52 6624   7.014   3.351   1.643  0.6160  0.2386 -0.1204
   16CHTO   O35 6625   6.908   3.445   1.574 -0.2296  0.1216 -0.1898
   16CHTO   H71 6626   6.850   3.383   1.534  1.4773  0.0269 -2.6385
   16CHTO   O28 6627   7.173   3.083   1.974 -0.7930 -0.0870 -0.4309
   16CHTO   C42 6628   7.227   2.953   1.928 -0.0391  0.2984 -0.4491
   16CHTO   H84 6629   7.336   2.964   1.931  0.3244 -2.5500 -1.6264
   16CHTO   C44 6630   7.201   2.913   1.784 -0.3755 -0.9563  0.8438
   16CHTO   H86 6631   7.093   2.910   1.767 -0.2383  2.6169 -0.8780
   16CHTO   O32 6632   7.253   3.018   1.696  0.3679 -0.1091 -0.4959
   16CHTO   H69 6633   7.224   2.994   1.610 -0.6272  2.6060 -0.9717
   16CHTO   C48 6634   7.267   2.770   1.760  0.1682  0.1853  0.9460
   16CHTO   H90 6635   7.373   2.786   1.778  0.3468 -2.1915  2.3320
   16CHTO    N9 6636   7.256   2.731   1.609  0.2070  0.2371  0.0791
   16CHTO   H77 6637   7.274   2.816   1.545 -1.7920  1.2602  0.8428
   16CHTO   H78 6638   7.324   2.654   1.577  2.1397  2.7135 -1.9640
   16CHTO   C51 6639   7.203   2.668   1.862  0.6504  0.9101  0.1638
   16CHTO   H93 6640   7.095   2.673   1.850  0.7189  0.2910 -0.7758
   16CHTO   O30 6641   7.246   2.710   1.992 -0.2120 -0.3238  0.5170
   16CHTO   C46 6642   7.191   2.834   2.024 -0.0603 -0.1722  0.1842
   16CHTO   H88 6643   7.083   2.822   2.028  0.2084 -3.3430 -0.6729
   16CHTO   C53 6644   7.235   2.871   2.167  0.2657  0.3048  0.2947
   16CHTO   O72 6645   7.176   2.781   2.255  0.3054 -0.3574 -0.7770
   16CHTO  H199 6646   7.232   2.706   2.263 -0.1441 -0.6515 -0.3512
   16CHTO   O22 6647   7.257   2.533   1.856  0.1442  0.6107 -0.5215
   16CHTO   C31 6648   7.160   2.427   1.884  0.1108  0.9571  0.1533
   16CHTO   H59 6649   7.085   2.467   1.954 -0.2081  0.2766  0.2052
   16CHTO   C29 6650   7.085   2.377   1.752 -0.7035 -0.0152  0.1638
   16CHTO   H57 6651   7.169   2.333   1.695 -0.1378  1.6668 -0.3197
   16CHTO   O21 6652   7.027   2.488   1.677 -0.6927  0.1932 -0.0523
   16CHTO   H37 6653   7.014   2.456   1.590 -0.4494  4.1851 -1.6698
   16CHTO   C27 6654   6.975   2.268   1.775  0.9522 -0.2094 -0.0771
   16CHTO   H55 6655   6.896   2.320   1.831  2.1264  0.2881  1.1395
   16CHTO    N5 6656   6.911   2.216   1.651  0.5903  0.2411 -0.7400
   16CHTO   H43 6657   6.847   2.294   1.612 -1.5505 -0.8026  0.6039
   16CHTO   H44 6658   6.858   2.123   1.658 -1.4679  1.2507 -2.2260
   16CHTO   C25 6659   7.041   2.151   1.848 -0.0890  0.6580 -0.7031
   16CHTO   H53 6660   7.113   2.107   1.778 -0.8910  2.6093 -2.7977
   16CHTO   O17 6661   7.114   2.206   1.976  0.0756 -0.8359  0.3823
   16CHTO   C32 6662   7.214   2.299   1.943 -0.0963 -0.1264  0.0229
   16CHTO   H60 6663   7.287   2.251   1.877 -0.3553 -3.9577  2.3678
   16CHTO   C36 6664   7.288   2.328   2.078 -0.3095 -0.4909 -0.4506
   16CHTO   O25 6665   7.344   2.206   2.122  0.4837 -0.2518 -0.1023
   16CHTO   H40 6666   7.340   2.197   2.215 -0.7403  2.7583  0.1842
   16CHTO   O15 6667   6.927   2.041   1.906  0.0145 -0.1412 -0.5321
   16CHTO   C19 6668   6.827   2.024   2.006  0.0435  0.1558 -0.2406
   16CHTO   H47 6669   6.833   1.921   2.043 -1.8659  0.2937  0.4965
   16CHTO   C20 6670   6.844   2.112   2.134 -0.1805  0.2949  0.7989
   16CHTO   H48 6671   6.865   2.217   2.106  1.9093 -0.3704 -0.2509
   16CHTO   O19 6672   6.972   2.060   2.189  0.0642 -0.0242  0.3879
   16CHTO   H35 6673   7.047   2.110   2.162 -0.5951  0.6524 -0.1985
   16CHTO   C21 6674   6.730   2.104   2.239  0.0680 -0.0871  0.1491
   16CHTO   H49 6675   6.748   2.010   2.290  0.4512  0.0248  0.2256
   16CHTO    N4 6676   6.750   2.208   2.340 -0.5381 -0.6944 -0.7139
   16CHTO   H41 6677   6.852   2.198   2.374 -0.1471  0.2888 -1.5843
   16CHTO   H42 6678   6.732   2.308   2.304 -1.8709 -1.0892 -1.1576
   16CHTO   C22 6679   6.596   2.109   2.166 -0.4533  0.1273 -0.4424
   16CHTO   H50 6680   6.584   2.207   2.119 -1.0974  0.4675  0.4314
   16CHTO   O14 6681   6.595   2.005   2.063  0.9088 -0.4604  0.7126
   16CHTO   C23 6682   6.683   2.028   1.949 -0.6657 -0.2094  0.1957
   16CHTO   H51 6683   6.658   2.128   1.911 -0.4313  0.0103  0.6166
   16CHTO   C34 6684   6.656   1.928   1.839  0.9213 -0.3975 -0.4207
   16CHTO   O23 6685   6.523   1.936   1.794  0.1030  0.3260 -0.6153
   16CHTO   H38 6686   6.470   1.889   1.855  0.6917  1.2156  0.6133
   16CHTO   O16 6687   6.489   2.082   2.256  0.2815 -0.5147  0.3389
   16CHTO   C24 6688   6.335   2.114   2.193 -0.0128  0.4151 -0.4881
   16CHTO   H52 6689   6.335   2.140   2.087 -0.2104  0.5930 -0.4459
   16CHTO   C26 6690   6.269   2.229   2.270 -0.3567  0.9597  0.6166
   16CHTO   H54 6691   6.274   2.203   2.378 -0.8600  2.9198  1.1336
   16CHTO   O20 6692   6.354   2.343   2.249  0.0452 -0.4166 -0.1170
   16CHTO   H36 6693   6.380   2.346   2.159  1.4263 -0.3482  0.2676
   16CHTO   C30 6694   6.122   2.249   2.232 -0.0666 -0.5067  0.0037
   16CHTO   H58 6695   6.116   2.282   2.128 -0.7007  1.5573  0.6726
   16CHTO    N6 6696   6.062   2.367   2.309  0.5874  0.4912  0.6286
   16CHTO   H45 6697   6.128   2.426   2.372  1.5288 -0.5774  0.6623
   16CHTO   H46 6698   5.973   2.338   2.363 -0.8142  0.3278 -1.7351
   16CHTO   C33 6699   6.043   2.117   2.246  0.1245  1.1376  0.2684
   16CHTO   H61 6700   6.044   2.087   2.352  0.6080 -0.5670 -0.1963
   16CHTO   O18 6701   6.110   2.011   2.171 -0.5865 -0.1136 -0.1042
   16CHTO   C28 6702   6.246   1.990   2.207 -0.4342  0.2545 -0.0481
   16CHTO   H56 6703   6.252   1.953   2.309 -1.4717  0.7533  0.2031
   16CHTO   C35 6704   6.295   1.875   2.115  0.5628  0.2089 -0.1203
   16CHTO   O24 6705   6.288   1.909   1.979  0.5913  0.0729  0.1725
   16CHTO   H39 6706   6.304   1.833   1.927  0.5216  0.5595 -0.5838
   16CHTO    O9 6707   5.900   2.122   2.211  0.4642 -0.0118 -0.3703
   16CHTO   C13 6708   5.811   2.026   2.299  0.3647  0.8690 -0.6151
   16CHTO   H26 6709   5.818   2.058   2.405 -0.0420 -2.5395  0.4911
   16CHTO   C11 6710   5.848   1.870   2.277 -0.3105 -0.2486 -0.5164
   16CHTO   H24 6711   5.942   1.851   2.330 -0.5044 -0.3772 -0.2127
   16CHTO    O8 6712   5.878   1.844   2.141  0.2110 -0.2071  0.2725
   16CHTO    H3 6713   5.942   1.777   2.125 -2.2234 -2.2215 -1.6058
   16CHTO    C9 6714   5.738   1.778   2.336  0.1762 -0.7789 -0.2241
   16CHTO   H22 6715   5.739   1.805   2.443  0.1442 -0.6387 -0.2582
   16CHTO    N2 6716   5.783   1.632   2.337 -0.0470 -0.3594 -0.1017
   16CHTO   H10 6717   5.741   1.580   2.252 -0.6474 -0.9483  0.5467
   16CHTO   H11 6718   5.769   1.582   2.432  2.5071  1.8925  1.5589
   16CHTO    C7 6719   5.598   1.800   2.264  0.4044  0.1814 -0.3052
   16CHTO   H20 6720   5.531   1.799   2.353 -0.2263  1.2537 -0.7624
   16CHTO    O4 6721   5.596   1.932   2.204  0.1242  0.3156 -0.0673
   16CHTO   C14 6722   5.652   2.043   2.268  0.3144 -0.2773  0.2810
   16CHTO   H27 6723   5.602   2.052   2.367 -1.8270 -1.6090 -0.6475
   16CHTO   C18 6724   5.613   2.171   2.186  0.1511 -0.4645  0.3815
   16CHTO   O13 6725   5.660   2.297   2.245  0.5804  0.6114 -0.5249
   16CHTO    H7 6726   5.643   2.367   2.186  1.7955  2.1679  0.9455
   16CHTO    O2 6727   5.565   1.690   2.129 -0.3669  0.1777  0.1123
   16CHTO    C1 6728   5.432   1.667   2.083 -0.7232 -0.0116 -0.3157
   16CHTO   H14 6729   5.429   1.572   2.026 -1.0785  0.2729 -0.7804
   16CHTO    C2 6730   5.373   1.781   1.995 -0.4573 -0.5586 -0.4168
   16CHTO   H15 6731   5.366   1.867   2.063 -1.4701 -2.9059  2.5643
   16CHTO    O6 6732   5.457   1.815   1.881  0.3447  0.1067 -0.4696
   16CHTO    H1 6733   5.515   1.886   1.902  1.1347 -0.6110 -0.1750
   16CHTO    C3 6734   5.224   1.748   1.956  0.0316  0.4502  0.0650
   16CHTO   H16 6735   5.219   1.667   1.882 -1.9785  1.0498 -0.5052
   16CHTO    N1 6736   5.153   1.868   1.900  0.0178  0.4884  0.1407
   16CHTO    H8 6737   5.054   1.835   1.872  0.6382  0.0397 -1.5670
   16CHTO    H9 6738   5.194   1.928   1.821 -0.4859  1.0405  0.3005
   16CHTO    C4 6739   5.140   1.689   2.076  0.1765  0.4055  0.1444
   16CHTO   H17 6740   5.120   1.769   2.147  1.9543  2.6491 -1.8110
   16CHTO    O1 6741   5.213   1.586   2.147 -0.2499  0.0359  0.0366
   16CHTO    C5 6742   5.338   1.633   2.201 -0.0741 -0.2558  0.1713
   16CHTO   H18 6743   5.328   1.717   2.270 -3.8845 -0.1694 -0.3583
   16CHTO   C16 6744   5.406   1.516   2.275 -0.3139  0.8092 -0.2205
   16CHTO   O11 6745   5.357   1.493   2.413  0.4195  0.0112  0.3520
   16CHTO    H5 6746   5.407   1.434   2.465  0.8622  1.0451  1.0978
   16CHTO    O3 6747   5.017   1.618   2.037 -0.7981 -0.0774 -0.5549
   16CHTO    C6 6748   4.896   1.648   2.114  1.3607 -1.3120 -0.6076
   16CHTO   H19 6749   4.910   1.725   2.190 -2.8478  1.0464 -2.0493
   16CHTO    C8 6750   4.781   1.718   2.027  0.4502 -0.7965  0.2894
   16CHTO   H21 6751   4.756   1.661   1.937  0.1907 -0.9416  0.4524
   16CHTO    O7 6752   4.831   1.839   1.975 -0.0999  0.0560 -0.1791
   16CHTO    H2 6753   4.866   1.879   2.052  0.3987 -2.3873  0.8994
   16CHTO   C12 6754   4.650   1.744   2.117  0.0863  0.3126  0.9880
   16CHTO   H25 6755   4.671   1.812   2.203 -2.5880 -0.4412  2.3147
   16CHTO    N3 6756   4.540   1.806   2.039 -0.2053  0.7335  0.6146
   16CHTO   H12 6757   4.496   1.886   2.097 -1.0499  0.0971  0.8548
   16CHTO   H13 6758   4.463   1.733   2.017  1.1114 -0.5643  0.2002
   16CHTO   C15 6759   4.614   1.609   2.177  0.2403 -0.2865  0.1823
   16CHTO   H28 6760   4.589   1.534   2.102 -0.7760  0.0171  0.1955
   16CHTO   O10 6761   4.503   1.621   2.299  0.1327  0.2503  0.4670
   16CHTO    H4 6762   4.542   1.676   2.364 -2.7635  1.8018  0.9398
   16CHTO    O5 6763   4.728   1.565   2.256 -0.0612  0.0161 -0.0593
   16CHTO   C10 6764   4.844   1.521   2.186 -0.4829 -0.7072  0.6933
   16CHTO   H23 6765   4.817   1.447   2.111 -0.2952 -0.2620  0.1827
   16CHTO   C17 6766   4.945   1.458   2.277  0.0397  0.6762 -0.0333
   16CHTO   O12 6767   4.998   1.551   2.374 -0.0815  0.2334 -0.0438
   16CHTO    H6 6768   4.975   1.526   2.461  0.4723  2.6412  0.8174
   17CHTO  H203 6769   4.714   4.484   0.322  0.3206  2.1443 -0.9206
   17CHTO   O82 6770   4.756   4.512   0.401  0.3197  0.2612 -0.2189
   17CHTO  C123 6771   4.686   4.604   0.488  0.6340  0.2174  0.4943
   17CHTO  H227 6772   4.598   4.554   0.531 -0.4372  1.0989 -0.6430
   17CHTO   O77 6773   4.781   4.652   0.595  0.2521  0.5963 -0.6813
   17CHTO  C118 6774   4.718   4.719   0.702 -0.5277  0.3191  0.0940
   17CHTO  H222 6775   4.627   4.670   0.739 -0.0449  0.6079  1.7370
   17CHTO  C125 6776   4.825   4.715   0.817 -0.0871  0.0518  0.1689
   17CHTO   O84 6777   4.949   4.774   0.771  0.3078  0.1360  0.7001
   17CHTO  H205 6778   4.944   4.867   0.784 -0.6346  0.0004  1.3209
   17CHTO  C114 6779   4.684   4.861   0.644 -0.2454 -0.7737  0.4393
   17CHTO  H218 6780   4.774   4.907   0.603 -0.6272 -1.3437 -1.0432
   17CHTO  C116 6781   4.586   4.844   0.521 -0.1920  0.2428 -0.2648
   17CHTO  H220 6782   4.485   4.822   0.563  0.3387 -2.7292 -0.4461
   17CHTO   O79 6783   4.578   4.972   0.463  0.3456  0.6043 -0.2361
   17CHTO  H201 6784   4.512   4.976   0.396 -1.0138 -0.8355  0.9502
   17CHTO  C120 6785   4.634   4.734   0.413  0.0831 -0.2792  0.1737
   17CHTO  H224 6786   4.716   4.774   0.349  2.0689 -2.4283  1.2859
   17CHTO   N21 6787   4.527   4.711   0.311  0.0088 -0.2160  0.4718
   17CHTO  H211 6788   4.521   4.797   0.245  3.0067  0.1056  0.5565
   17CHTO  H212 6789   4.429   4.696   0.355  0.0157 -0.3962  0.4222
   17CHTO   O75 6790   4.628   4.933   0.756 -0.2112 -0.2892  0.4225
   17CHTO  C112 6791   4.628   5.100   0.753  0.2909 -0.0590 -0.6046
   17CHTO  H216 6792   4.558   5.135   0.675 -1.4053 -0.0106  0.9196
   17CHTO   O73 6793   4.764   5.137   0.724  0.3395  0.3260  0.3679
   17CHTO  C113 6794   4.789   5.277   0.713 -0.1963 -0.2311 -0.3735
   17CHTO  H217 6795   4.750   5.311   0.615  0.2597 -1.7525 -1.1012
   17CHTO  C124 6796   4.939   5.314   0.703  0.0239 -0.7617  0.2260
   17CHTO   O83 6797   5.008   5.255   0.813  0.1041  0.3922 -0.1061
   17CHTO  H204 6798   5.079   5.313   0.833 -0.5419  0.6102  1.6315
   17CHTO  C109 6799   4.720   5.367   0.818 -0.4186  0.1909 -0.4257
   17CHTO  H213 6800   4.778   5.367   0.912 -0.6373 -0.4738 -0.2888
   17CHTO  C110 6801   4.573   5.311   0.858  0.5002  1.4294  0.2260
   17CHTO  H214 6802   4.505   5.336   0.777 -0.4503 -1.8318 -0.0752
   17CHTO   O78 6803   4.529   5.377   0.979 -0.7183  0.3945  0.8288
   17CHTO  H200 6804   4.597   5.378   1.043  1.2700 -0.9453 -1.1984
   17CHTO  C111 6805   4.571   5.158   0.883 -0.1278 -0.8788  0.5933
   17CHTO  H215 6806   4.642   5.133   0.964 -0.6166 -0.2934  1.2183
   17CHTO   N19 6807   4.442   5.095   0.925  0.3289  0.0896  0.4499
   17CHTO  H207 6808   4.362   5.167   0.939 -1.2223 -1.6667  0.8720
   17CHTO  H208 6809   4.444   5.014   0.996  1.9958  0.2126  0.5532
   17CHTO   O74 6810   4.725   5.501   0.760 -0.4387 -0.6298  0.1862
   17CHTO  C115 6811   4.794   5.625   0.869  0.5657 -0.2401  0.4757
   17CHTO  H219 6812   4.717   5.671   0.930  1.2498  0.0434  1.1190
   17CHTO   O76 6813   4.898   5.569   0.970 -0.0159  0.1484  0.2575
   17CHTO  C122 6814   4.951   5.662   1.058 -0.4588 -0.5044  0.2671
   17CHTO  H226 6815   5.036   5.619   1.110 -0.4547  0.5079  1.1103
   17CHTO  C126 6816   4.851   5.700   1.166 -0.2949 -0.3329  0.4281
   17CHTO   O85 6817   4.835   5.605   1.269 -0.0490  0.1733 -0.7885
   17CHTO  H206 6818   4.858   5.517   1.246  1.9756  0.4727 -0.0132
   17CHTO  C121 6819   5.015   5.792   0.986  0.1265  0.0203 -0.1986
   17CHTO  H225 6820   5.031   5.874   1.058  1.4773 -0.7544  0.3870
   17CHTO   O81 6821   5.141   5.746   0.935 -0.1729 -0.4083 -0.0126
   17CHTO  H202 6822   5.184   5.821   0.898 -0.0773 -0.0031  0.8825
   17CHTO  C119 6823   4.924   5.846   0.876  0.6757 -0.3847  0.1660
   17CHTO  H223 6824   4.844   5.900   0.926  0.9550  0.1302  0.0561
   17CHTO  C117 6825   4.865   5.737   0.774 -0.6172  0.2133 -0.4362
   17CHTO  H221 6826   4.934   5.692   0.703 -1.8759  0.7257 -2.0154
   17CHTO   N20 6827   4.763   5.801   0.681  0.2716  0.1122 -0.3571
   17CHTO  H209 6828   4.766   5.752   0.585 -0.6006  0.0250 -0.3479
   17CHTO  H210 6829   4.667   5.801   0.731  0.8629  2.2644  0.7998
   17CHTO   O80 6830   5.008   5.970   0.790 -0.0903 -0.0770  0.0087
   17CHTO  C103 6831   5.047   6.117   0.871 -0.2653 -0.3139  0.5262
   17CHTO  H190 6832   4.998   6.116   0.968 -1.9026 -1.2953 -0.2876
   17CHTO  C101 6833   5.203   6.144   0.879 -0.3425  0.4871 -0.3348
   17CHTO  H188 6834   5.254   6.126   0.785  0.5844 -0.1282  0.2808
   17CHTO   O68 6835   5.258   6.049   0.983  0.1525  0.2836 -0.0703
   17CHTO  H168 6836   5.244   5.958   0.962 -1.8512  0.2180  1.3524
   17CHTO   C99 6837   5.224   6.298   0.916  0.1798  0.7081 -0.1183
   17CHTO  H186 6838   5.174   6.299   1.015  0.2187  2.2903 -0.0988
   17CHTO   N17 6839   5.362   6.337   0.929 -0.4476  0.2151 -0.0685
   17CHTO  H174 6840   5.407   6.290   1.015  1.6372  1.3758 -0.4743
   17CHTO  H175 6841   5.418   6.322   0.838  0.7966 -2.0989  1.0383
   17CHTO   C97 6842   5.143   6.391   0.825 -0.0981 -0.3113 -0.7520
   17CHTO  H184 6843   5.169   6.380   0.719  1.6701 -0.4106 -0.3229
   17CHTO   O64 6844   5.012   6.353   0.852  0.3116 -0.0816  0.3466
   17CHTO  C104 6845   4.982   6.229   0.784  0.5286  0.2714  0.5496
   17CHTO  H191 6846   5.010   6.221   0.678 -2.6434 -1.0640 -0.2591
   17CHTO  C108 6847   4.830   6.220   0.783 -0.3687 -0.1228  0.1158
   17CHTO   O71 6848   4.761   6.233   0.913  0.3061  0.0156 -0.4208
   17CHTO  H171 6849   4.785   6.169   0.977  0.9408  0.6715  0.0120
   17CHTO   O62 6850   5.134   6.527   0.875  1.1390  0.2524  0.0995
   17CHTO   C91 6851   5.085   6.621   0.779 -0.3801 -0.0634  0.2971
   17CHTO  H178 6852   5.038   6.566   0.697  1.4524  0.0485 -0.8592
   17CHTO   C92 6853   5.204   6.698   0.722 -0.4743 -0.6243 -0.3285
   17CHTO  H179 6854   5.286   6.628   0.699 -0.8972 -0.9597 -0.7992
   17CHTO   O66 6855   5.171   6.777   0.605 -0.3583 -0.6595 -0.5179
   17CHTO  H166 6856   5.110   6.730   0.553 -0.8462 -1.5370  0.8209
   17CHTO   C93 6857   5.268   6.804   0.828  0.6561  0.0126 -0.4393
   17CHTO  H180 6858   5.339   6.865   0.770  0.9012 -0.0098 -0.1655
   17CHTO   N16 6859   5.351   6.747   0.934  0.0883  0.1377 -0.3465
   17CHTO  H172 6860   5.430   6.690   0.888 -0.9260 -2.4635  0.9703
   17CHTO  H173 6861   5.374   6.828   1.002  0.7486  1.4535 -2.1213
   17CHTO   C94 6862   5.152   6.897   0.881 -0.1768  0.3400 -0.0406
   17CHTO  H181 6863   5.137   6.892   0.989  0.2445  0.3051  0.0141
   17CHTO   O61 6864   5.022   6.864   0.827  0.1688 -0.0459  0.2839
   17CHTO   C95 6865   4.980   6.723   0.844  0.3929 -0.0907 -0.4063
   17CHTO  H182 6866   4.967   6.710   0.952 -0.0424 -1.6946 -0.6388
   17CHTO  C106 6867   4.837   6.703   0.780 -0.0551 -0.1202  0.6145
   17CHTO   O69 6868   4.831   6.717   0.634 -0.2003 -0.2727  0.2397
   17CHTO  H169 6869   4.857   6.801   0.601  2.5367 -1.4146 -0.5983
   17CHTO   O63 6870   5.194   7.072   0.846  0.2107  0.0259 -0.0307
   17CHTO   C96 6871   5.087   7.175   0.927 -0.7408  0.2577 -0.3934
   17CHTO  H183 6872   5.014   7.120   0.986  0.3602  0.0314  0.7897
   17CHTO   C98 6873   5.017   7.276   0.833  0.3813  0.2908 -0.3670
   17CHTO  H185 6874   5.089   7.330   0.770  0.7345 -0.1610 -0.3534
   17CHTO   O67 6875   4.943   7.182   0.745 -0.2801  0.4197  0.3112
   17CHTO  H167 6876   4.966   7.202   0.656 -0.3217 -0.8372  0.0069
   17CHTO  C102 6877   4.915   7.366   0.913 -0.8365 -0.3109 -0.4382
   17CHTO  H189 6878   4.841   7.299   0.960 -1.0251 -0.3142 -0.7417
   17CHTO   N18 6879   4.830   7.457   0.829 -0.6090  0.1078  0.1322
   17CHTO  H176 6880   4.873   7.477   0.732 -1.3662  2.6551  0.2775
   17CHTO  H177 6881   4.812   7.550   0.882  1.2829  1.3641 -1.3478
   17CHTO  C105 6882   4.995   7.438   1.027  0.1254  1.4265 -0.2308
   17CHTO  H192 6883   5.064   7.509   0.981  0.5940  2.1396  1.5693
   17CHTO   O65 6884   5.082   7.349   1.100 -0.4419  0.1567  0.2373
   17CHTO  C100 6885   5.168   7.252   1.029  0.0277  0.7811 -0.2000
   17CHTO  H187 6886   5.247   7.306   0.974  0.9430  1.5676  1.7957
   17CHTO  C107 6887   5.239   7.151   1.126  0.5560  0.4381  0.5699
   17CHTO   O70 6888   5.340   7.209   1.213  0.6575  0.3161  0.5325
   17CHTO  H170 6889   5.410   7.150   1.231 -0.7922 -1.6092  0.0237
   17CHTO   O57 6890   4.870   7.515   1.119 -0.0831  0.3474  0.8761
   17CHTO   C85 6891   4.892   7.651   1.157  0.3995  0.2915 -1.0852
   17CHTO  H157 6892   4.879   7.706   1.061 -2.5095 -1.4832 -1.7808
   17CHTO   C83 6893   5.038   7.676   1.222 -0.5445 -0.1533  0.5133
   17CHTO  H155 6894   5.116   7.653   1.150  0.9475  0.9741  1.7357
   17CHTO   O56 6895   5.054   7.572   1.324 -0.3486  0.3883  0.2350
   17CHTO  H135 6896   5.077   7.494   1.277  0.2541 -0.6634  2.2337
   17CHTO   C81 6897   5.058   7.824   1.268 -0.1467  0.3287 -0.9068
   17CHTO  H153 6898   5.045   7.882   1.176 -0.1838  0.1010 -1.0473
   17CHTO   N14 6899   5.199   7.858   1.307  0.1961 -0.3597 -0.9092
   17CHTO  H141 6900   5.221   7.889   1.407 -0.0929 -1.5103 -0.4910
   17CHTO  H142 6901   5.237   7.935   1.242  0.8258  0.6046  0.5858
   17CHTO   C79 6902   4.946   7.855   1.375  0.1627  0.3044 -1.2617
   17CHTO  H151 6903   4.950   7.962   1.392  3.2796 -0.0272  0.7516
   17CHTO   O52 6904   4.810   7.825   1.324  0.0225  0.6147 -0.0850
   17CHTO   C86 6905   4.781   7.698   1.260 -0.2454  0.2825  0.4750
   17CHTO  H158 6906   4.771   7.630   1.347 -1.2828 -1.1238 -0.7171
   17CHTO   C90 6907   4.636   7.705   1.201 -0.3153  0.4378 -0.1053
   17CHTO   O60 6908   4.632   7.801   1.096  0.1815  0.1322  0.1713
   17CHTO  H138 6909   4.550   7.847   1.092  0.9390  1.5126  0.1263
   17CHTO   O50 6910   4.966   7.784   1.500  0.0002 -0.0404  0.3007
   17CHTO   C73 6911   4.942   7.770   1.643  0.1036 -0.5082 -0.0749
   17CHTO  H145 6912   4.916   7.873   1.672 -0.1500 -0.6941  0.3608
   17CHTO   C74 6913   5.075   7.714   1.720  0.2581  0.1717 -0.2822
   17CHTO  H146 6914   5.165   7.768   1.685 -0.0399  0.7114 -0.2255
   17CHTO   O54 6915   5.061   7.747   1.857  0.0999 -0.2317  0.0615
   17CHTO  H133 6916   5.048   7.671   1.911 -0.8262  0.1277  0.3518
   17CHTO   C75 6917   5.080   7.559   1.692  0.3173  0.3725  0.0675
   17CHTO  H147 6918   5.116   7.554   1.588  0.9368  0.9303  0.2519
   17CHTO   N13 6919   5.179   7.489   1.779  0.2228  0.1420  0.2588
   17CHTO  H139 6920   5.275   7.540   1.778 -0.6887  2.1021  4.0042
   17CHTO  H140 6921   5.178   7.387   1.744 -1.6727 -1.3630  4.3912
   17CHTO   C76 6922   4.943   7.480   1.701  0.7675 -0.7392  0.2987
   17CHTO  H148 6923   4.910   7.462   1.803 -2.4639 -2.7736 -1.0179
   17CHTO   O49 6924   4.842   7.545   1.629  0.2272 -0.3390  0.8051
   17CHTO   C77 6925   4.818   7.676   1.680 -0.1204  0.6652  0.2370
   17CHTO  H149 6926   4.799   7.671   1.787  0.8361 -2.7359  0.2890
   17CHTO   C88 6927   4.691   7.741   1.618  0.1374 -0.2914 -0.0910
   17CHTO   O58 6928   4.636   7.863   1.698 -0.6818  0.0191  0.1901
   17CHTO  H136 6929   4.605   7.826   1.779  2.0713 -0.9079  0.8630
   17CHTO   O51 6930   4.961   7.360   1.631  0.4012 -0.1175  0.4660
   17CHTO   C78 6931   4.860   7.245   1.637 -0.0006  0.3181  0.0171
   17CHTO  H150 6932   4.761   7.285   1.667 -0.5040 -1.2477  0.4903
   17CHTO   C80 6933   4.901   7.137   1.743 -0.4332  0.0385  0.7636
   17CHTO  H152 6934   5.005   7.104   1.723  0.2844  1.7956  1.4388
   17CHTO   O55 6935   4.882   7.206   1.871  0.0654  0.0630  0.3216
   17CHTO  H134 6936   4.929   7.162   1.939  2.3482  1.0115 -0.6062
   17CHTO   C84 6937   4.805   7.014   1.735  0.1472 -0.2332 -0.3777
   17CHTO  H156 6938   4.707   7.034   1.779  0.7351  0.4578  0.6697
   17CHTO   N15 6939   4.859   6.900   1.815 -0.0541 -0.5185  0.2919
   17CHTO  H143 6940   4.877   6.934   1.915 -1.9271 -1.3783  0.9563
   17CHTO  H144 6941   4.952   6.877   1.767  0.0884  0.4537  0.1006
   17CHTO   C87 6942   4.790   6.962   1.593 -0.4912  0.5653  0.2937
   17CHTO  H159 6943   4.884   6.930   1.548 -1.3108 -1.8790  0.2587
   17CHTO   O53 6944   4.729   7.075   1.505  0.1571  0.1317  0.2142
   17CHTO   C82 6945   4.826   7.179   1.497 -0.5978 -0.0164 -0.1653
   17CHTO  H154 6946   4.922   7.149   1.455 -0.6246 -0.0403 -0.2085
   17CHTO   C89 6947   4.768   7.287   1.404 -0.1345  0.2638 -0.6644
   17CHTO   O59 6948   4.762   7.243   1.268  0.0381  0.4363  0.1583
   17CHTO  H137 6949   4.675   7.223   1.238  0.4919 -0.8439 -0.3266
   17CHTO   O45 6950   4.680   6.839   1.582 -0.3197  0.7972 -0.1114
   17CHTO   C67 6951   4.544   6.862   1.625 -0.6090 -0.0954 -0.3958
   17CHTO  H124 6952   4.543   6.919   1.718  2.1613  1.1258 -1.0936
   17CHTO   C65 6953   4.467   6.945   1.522  0.2613 -0.0880 -0.1618
   17CHTO  H122 6954   4.535   6.969   1.439 -0.9296  1.4746 -0.7294
   17CHTO   O44 6955   4.421   7.061   1.594  0.0136 -0.5047 -0.0612
   17CHTO  H102 6956   4.468   7.135   1.562  1.5219 -1.2536  0.3671
   17CHTO   C63 6957   4.349   6.866   1.455  0.2994  0.2392  0.6422
   17CHTO  H120 6958   4.388   6.776   1.409 -1.7419 -0.2138 -0.2351
   17CHTO   N11 6959   4.274   6.922   1.341  0.5622  0.3016 -0.1686
   17CHTO  H108 6960   4.191   6.864   1.306  0.6791 -0.6107  1.0397
   17CHTO  H109 6961   4.338   6.935   1.256  0.0735  1.2092 -0.4091
   17CHTO   C61 6962   4.258   6.805   1.568 -0.3817  0.1166 -0.0700
   17CHTO  H118 6963   4.198   6.723   1.527 -0.8812  0.6217 -0.3731
   17CHTO   O40 6964   4.331   6.742   1.684  0.1077 -0.0029 -0.2352
   17CHTO   C68 6965   4.479   6.724   1.658  0.3835 -0.3022 -0.5108
   17CHTO  H125 6966   4.495   6.652   1.576  3.8662  0.2084 -0.3233
   17CHTO   C72 6967   4.544   6.661   1.788  0.7438 -0.1399 -0.1691
   17CHTO   O48 6968   4.683   6.616   1.796 -0.2001 -0.1862 -0.2110
   17CHTO  H105 6969   4.712   6.536   1.757  1.4381  0.6890 -0.8499
   17CHTO   O38 6970   4.166   6.902   1.627 -0.5381 -0.3458  0.2200
   17CHTO   C55 6971   4.080   6.868   1.737  0.0985 -0.2691  0.5675
   17CHTO  H112 6972   4.128   6.825   1.826  0.5872  0.7832  0.8155
   17CHTO   C56 6973   3.961   6.784   1.683  0.4990 -0.2401  0.1756
   17CHTO  H113 6974   3.918   6.825   1.590 -1.1551  0.6482  1.3108
   17CHTO   O42 6975   4.006   6.652   1.649  0.1056 -0.0017  0.3235
   17CHTO  H100 6976   4.001   6.606   1.731  0.4845  1.5979  1.2765
   17CHTO   C57 6977   3.848   6.772   1.788 -0.2270  0.0344 -0.6887
   17CHTO  H114 6978   3.888   6.710   1.868  0.7310  2.9097  1.1280
   17CHTO   N10 6979   3.730   6.696   1.747  0.0741 -0.0856  0.0603
   17CHTO  H106 6980   3.685   6.647   1.832  0.0291  0.0285  0.1027
   17CHTO  H107 6981   3.757   6.622   1.673 -0.4104 -1.0647  0.8567
   17CHTO   C58 6982   3.819   6.908   1.856  0.2836  0.0656 -0.3555
   17CHTO  H115 6983   3.764   6.974   1.786 -0.0359  0.9033  0.6705
   17CHTO   O37 6984   3.934   6.980   1.890 -0.8839 -0.2123 -0.1126
   17CHTO   C59 6985   4.031   7.004   1.790  0.0856  0.2499 -0.1744
   17CHTO  H116 6986   3.975   7.048   1.707  0.5192  0.0811 -0.5548
   17CHTO   C70 6987   4.140   7.082   1.860  0.1909 -0.2964 -0.6314
   17CHTO   O46 6988   4.122   7.222   1.844  0.1798 -0.2167 -0.6178
   17CHTO  H103 6989   4.034   7.247   1.820  1.0825  1.9408 -1.8263
   17CHTO   O39 6990   3.751   6.885   1.988  0.2846 -0.2504  0.1965
   17CHTO   C60 6991   3.640   6.973   2.001  0.2272 -0.6647  0.7642
   17CHTO  H117 6992   3.664   7.069   1.955 -1.6623 -0.6913 -0.3403
   17CHTO   C62 6993   3.512   6.931   1.927 -0.4132 -0.5788 -0.4127
   17CHTO  H119 6994   3.528   6.910   1.819 -2.9746  1.5606 -1.2467
   17CHTO   O43 6995   3.449   6.826   1.993  0.6261 -0.1479 -0.0843
   17CHTO  H101 6996   3.489   6.742   2.002  0.9723  0.2271  2.2474
   17CHTO   C66 6997   3.412   7.050   1.926  0.1283 -0.2517 -0.1747
   17CHTO  H123 6998   3.459   7.141   1.890 -0.0501 -0.4156 -0.8299
   17CHTO   N12 6999   3.289   7.023   1.840 -0.1903  0.1823  0.0271
   17CHTO  H110 7000   3.233   6.946   1.891  0.1706  0.1383  0.3582
   17CHTO  H111 7001   3.228   7.112   1.834 -0.2825  0.0045 -1.7696
   17CHTO   C69 7002   3.371   7.088   2.073  0.8051  0.8054  1.1599
   17CHTO  H126 7003   3.315   7.001   2.113 -0.0941 -0.1291 -1.9857
   17CHTO   O41 7004   3.499   7.110   2.151  0.0704  0.1582 -0.3421
   17CHTO   C64 7005   3.617   7.004   2.150  0.4927 -0.0906 -0.0211
   17CHTO  H121 7006   3.575   6.915   2.201 -0.5189 -1.2601 -2.7729
   17CHTO   C71 7007   3.752   7.052   2.209  0.2292 -0.5081  0.6910
   17CHTO   O47 7008   3.727   7.086   2.340  0.4828 -0.5264 -0.3313
   17CHTO  H104 7009   3.714   7.179   2.344  0.0763 -0.6878  2.7807
   17CHTO   O34 7010   3.284   7.208   2.081 -0.1603 -0.6844  0.7691
   17CHTO   C49 7011   3.183   7.289   2.160  0.6329  0.2696  0.2722
   17CHTO   H91 7012   3.241   7.354   2.225 -0.4974  1.4355  0.1477
   17CHTO   C47 7013   3.090   7.202   2.248  0.2023 -0.3268  0.5173
   17CHTO   H89 7014   3.049   7.275   2.321 -0.8232 -1.0784  0.7020
   17CHTO   O33 7015   3.176   7.109   2.323  0.1724  0.1386  0.4471
   17CHTO   H70 7016   3.140   7.022   2.327  4.0816 -1.7046 -1.0070
   17CHTO   C45 7017   2.969   7.130   2.166  0.1417  0.2325 -0.1716
   17CHTO   H87 7018   2.998   7.025   2.155  2.5751  0.5725  2.2929
   17CHTO    N8 7019   2.841   7.128   2.239  0.2585  0.2446 -0.2844
   17CHTO   H75 7020   2.797   7.226   2.233  0.3565  0.3516  0.6284
   17CHTO   H76 7021   2.771   7.053   2.204  0.3389 -1.1549  2.4288
   17CHTO   C43 7022   2.958   7.177   2.016 -0.7028  0.2010  0.7135
   17CHTO   H85 7023   3.048   7.145   1.964 -0.3757 -1.6610  2.3549
   17CHTO   O29 7024   2.950   7.318   2.024 -0.0253  0.3150 -0.2895
   17CHTO   C50 7025   3.080   7.371   2.062  0.1306  0.1173  0.2376
   17CHTO   H92 7026   3.132   7.391   1.967  1.8840 -1.0029  0.9519
   17CHTO   C54 7027   3.066   7.515   2.116 -0.3682  1.0617  0.3431
   17CHTO   O36 7028   2.972   7.545   2.217 -0.2000  0.8390 -0.1229
   17CHTO   H72 7029   2.990   7.518   2.305 -1.0431 -0.8005 -0.4420
   17CHTO   O27 7030   2.860   7.105   1.941 -0.0756  0.6968 -0.3406
   17CHTO   C37 7031   2.816   7.039   1.825  0.5945 -0.2366 -0.2525
   17CHTO   H79 7032   2.706   7.037   1.816  0.5159 -1.0514  0.7326
   17CHTO   C38 7033   2.875   7.104   1.697 -0.6000  0.2734  0.0008
   17CHTO   H80 7034   2.985   7.099   1.701 -0.5653  1.4195  0.6346
   17CHTO   O31 7035   2.838   7.244   1.689 -0.2603 -0.0386 -0.2212
   17CHTO   H68 7036   2.853   7.281   1.604 -0.1995 -0.0929 -0.2338
   17CHTO   C39 7037   2.836   7.022   1.569  0.2745 -0.4443 -0.1800
   17CHTO   H81 7038   2.727   7.029   1.560  0.1682  1.4246  2.1755
   17CHTO    N7 7039   2.901   7.081   1.445  0.0340 -0.1805  0.9198
   17CHTO   H73 7040   3.003   7.113   1.459 -0.1628  0.5900  0.6292
   17CHTO   H74 7041   2.892   7.014   1.361 -1.9731  0.3510  0.6660
   17CHTO   C40 7042   2.877   6.874   1.584 -0.4021  0.5820  0.1621
   17CHTO   H82 7043   2.985   6.858   1.583 -0.7090 -1.5892 -0.8984
   17CHTO   O26 7044   2.818   6.823   1.704  0.4545  0.3312 -0.0538
   17CHTO   C41 7045   2.866   6.887   1.824 -0.0226 -0.1932  0.3089
   17CHTO   H83 7046   2.976   6.883   1.829  0.1281  0.3920 -2.3210
   17CHTO   C52 7047   2.792   6.807   1.940  0.2664  0.6706  0.5616
   17CHTO   O35 7048   2.829   6.667   1.968 -0.5125 -0.0436  0.1398
   17CHTO   H71 7049   2.807   6.647   2.057  0.6678  1.8136  0.8746
   17CHTO   O28 7050   2.823   6.800   1.472  0.3357  0.1867  0.5193
   17CHTO   C42 7051   2.882   6.668   1.440 -0.1757  0.1103 -0.2907
   17CHTO   H84 7052   2.811   6.635   1.365 -1.1171  3.8383 -1.1575
   17CHTO   C44 7053   2.884   6.556   1.554  0.1663 -0.2643  0.9131
   17CHTO   H86 7054   2.945   6.591   1.638  0.1652  2.7571 -0.2869
   17CHTO   O32 7055   2.745   6.537   1.587  0.9336 -0.0127 -0.1651
   17CHTO   H69 7056   2.704   6.465   1.543  3.5178 -1.0612 -0.9533
   17CHTO   C48 7057   2.951   6.413   1.506 -0.1266 -0.5240  0.5986
   17CHTO   H90 7058   2.875   6.375   1.438 -1.2489  0.3863  1.3142
   17CHTO    N9 7059   2.964   6.315   1.627 -0.0840 -0.1515  1.0859
   17CHTO   H77 7060   3.002   6.222   1.588 -0.2660 -0.2534  1.1549
   17CHTO   H78 7061   2.877   6.309   1.691 -0.9924 -1.2673 -0.2193
   17CHTO   C51 7062   3.084   6.453   1.438  0.2682 -0.1989 -0.2364
   17CHTO   H93 7063   3.140   6.502   1.518 -0.4028  0.8538 -0.3997
   17CHTO   O30 7064   3.054   6.546   1.338  0.2912  0.2630 -0.3578
   17CHTO   C46 7065   3.021   6.675   1.372  0.4561 -0.4104  0.0841
   17CHTO   H88 7066   3.102   6.713   1.435  0.8659 -0.5346 -0.3647
   17CHTO   C53 7067   3.011   6.772   1.245  0.0402  0.4414 -0.0359
   17CHTO   O72 7068   3.138   6.769   1.186  0.5891 -0.3458 -0.0454
   17CHTO  H199 7069   3.139   6.841   1.126 -1.5374 -0.1697  0.0712
   17CHTO   O22 7070   3.151   6.344   1.380 -0.1789 -0.4196 -0.0291
   17CHTO   C31 7071   3.300   6.333   1.372 -0.6848  0.0826  0.0213
   17CHTO   H59 7072   3.337   6.365   1.472  0.4662 -0.4064 -0.2513
   17CHTO   C29 7073   3.344   6.183   1.352 -0.0323  0.3147 -0.0005
   17CHTO   H57 7074   3.296   6.149   1.259  0.7647  1.5803 -0.8898
   17CHTO   O21 7075   3.289   6.104   1.462  0.3216 -0.2546  0.1255
   17CHTO   H37 7076   3.344   6.094   1.537 -1.5454 -1.9998  1.3296
   17CHTO   C27 7077   3.500   6.166   1.342  0.1250  0.5384 -0.0958
   17CHTO   H55 7078   3.545   6.204   1.435  2.3660  1.6705 -1.6018
   17CHTO    N5 7079   3.547   6.027   1.316 -0.0430 -0.2481 -0.6702
   17CHTO   H43 7080   3.532   6.003   1.212 -0.4602 -0.7322 -0.5017
   17CHTO   H44 7081   3.651   6.032   1.342  0.5918 -1.1242 -2.9703
   17CHTO   C25 7082   3.548   6.261   1.223  0.1652 -0.0203 -0.8468
   17CHTO   H53 7083   3.499   6.228   1.130 -0.1718 -1.1797 -0.2727
   17CHTO   O17 7084   3.509   6.396   1.264  0.0306 -0.1692  0.4717
   17CHTO   C32 7085   3.369   6.421   1.268 -0.0345  0.0972  0.2477
   17CHTO   H60 7086   3.335   6.390   1.170  0.2758 -1.5552  0.6542
   17CHTO   C36 7087   3.365   6.577   1.303  0.3574  0.0755  0.2281
   17CHTO   O25 7088   3.426   6.656   1.198  0.4056  0.3809 -0.4069
   17CHTO   H40 7089   3.413   6.746   1.221 -0.6286 -0.1756  1.2622
   17CHTO   O15 7090   3.715   6.273   1.192 -0.5882 -0.1216  0.0038
   17CHTO   C19 7091   3.764   6.393   1.127 -0.0055  0.7843 -0.1362
   17CHTO   H47 7092   3.859   6.354   1.085  0.3051 -1.2330  2.2903
   17CHTO   C20 7093   3.689   6.451   1.011  0.3140 -0.2804  0.1377
   17CHTO   H48 7094   3.581   6.456   1.034  0.8291 -0.1912  2.6043
   17CHTO   O19 7095   3.707   6.355   0.908 -0.3519 -0.8543 -0.2899
   17CHTO   H35 7096   3.632   6.299   0.903  0.8509 -2.6925  1.4918
   17CHTO   C21 7097   3.733   6.593   0.962  0.0460  0.0341 -0.0866
   17CHTO   H49 7098   3.831   6.586   0.915  0.3807  0.2698  0.5651
   17CHTO    N4 7099   3.635   6.652   0.859  0.2939 -0.2064 -0.0847
   17CHTO   H41 7100   3.538   6.673   0.903  0.4519  1.4793 -0.5164
   17CHTO   H42 7101   3.682   6.748   0.842  0.2480 -0.0536  0.6225
   17CHTO   C22 7102   3.755   6.682   1.082 -0.2892  0.1063 -0.7584
   17CHTO   H50 7103   3.667   6.710   1.140  1.8873 -0.0215  2.7537
   17CHTO   O14 7104   3.849   6.619   1.169 -0.0409 -0.6384 -0.7799
   17CHTO   C23 7105   3.804   6.503   1.240  0.4916  0.0072  0.0150
   17CHTO   H51 7106   3.717   6.526   1.304 -0.5784 -1.1432 -0.9980
   17CHTO   C34 7107   3.915   6.464   1.340 -0.4928  0.5353  0.3078
   17CHTO   O23 7108   3.865   6.356   1.417 -0.0095  0.0098 -0.0274
   17CHTO   H38 7109   3.810   6.391   1.484 -1.2530 -1.8143 -0.0711
   17CHTO   O16 7110   3.818   6.813   1.051 -0.3462 -0.1665  0.0270
   17CHTO   C24 7111   3.880   6.903   1.181 -0.7870  0.1629  0.5244
   17CHTO   H52 7112   3.958   6.851   1.237  0.3036 -0.0796 -1.2035
   17CHTO   C26 7113   3.766   6.943   1.284 -0.0324 -0.4268 -0.7805
   17CHTO   H54 7114   3.677   6.971   1.223  0.2243 -0.1707 -1.0389
   17CHTO   O20 7115   3.734   6.822   1.355  0.5432  0.2355 -0.3273
   17CHTO   H36 7116   3.807   6.780   1.396  0.9105  0.3939 -0.8080
   17CHTO   C30 7117   3.811   7.059   1.379 -0.6196 -0.3075  0.4135
   17CHTO   H58 7118   3.879   7.012   1.451 -1.2368 -0.7185  0.7315
   17CHTO    N6 7119   3.691   7.109   1.456  0.0252  0.1870  0.4534
   17CHTO   H45 7120   3.625   7.027   1.478  1.0657 -1.1070 -1.1242
   17CHTO   H46 7121   3.718   7.155   1.550 -0.0363 -1.2790  1.1876
   17CHTO   C33 7122   3.888   7.172   1.302 -0.1740 -0.0820  0.0326
   17CHTO   H61 7123   3.816   7.227   1.240  1.8399  1.2083 -1.1902
   17CHTO   O18 7124   3.991   7.114   1.218 -0.3007  0.1088 -0.8493
   17CHTO   C28 7125   3.942   7.029   1.115 -0.5943  0.0797  0.2368
   17CHTO   H56 7126   3.871   7.076   1.047  0.3754  3.9607  1.7566
   17CHTO   C35 7127   4.061   6.997   1.018 -0.0558 -0.0537 -0.2202
   17CHTO   O24 7128   4.126   7.112   0.970 -0.1099 -0.1952  0.4002
   17CHTO   H39 7129   4.175   7.097   0.891 -1.4108  1.8099 -0.8426
   17CHTO    O9 7130   3.942   7.265   1.395 -0.5672 -0.1342  0.2196
   17CHTO   C13 7131   4.017   7.375   1.321  0.1653  0.5583 -0.0813
   17CHTO   H26 7132   4.005   7.367   1.211 -1.3643  0.9239  0.0402
   17CHTO   C11 7133   4.167   7.377   1.362 -0.0837  0.5268  0.5489
   17CHTO   H24 7134   4.199   7.281   1.320  1.4592  1.9597 -1.6694
   17CHTO    O8 7135   4.175   7.379   1.505 -0.8720  0.1895  0.1058
   17CHTO    H3 7136   4.163   7.467   1.536  2.1523 -0.0883  2.2063
   17CHTO    C9 7137   4.239   7.488   1.288  0.4095  0.0297  0.0827
   17CHTO   H22 7138   4.221   7.477   1.180 -0.4244  3.2904 -0.1740
   17CHTO    N2 7139   4.386   7.480   1.298  0.2555  0.3671 -0.4321
   17CHTO   H10 7140   4.436   7.567   1.258 -1.5229  2.3775  1.5909
   17CHTO   H11 7141   4.424   7.381   1.275  1.5773  1.0213 -1.1183
   17CHTO    C7 7142   4.169   7.624   1.328  0.0353 -0.4413  0.1506
   17CHTO   H20 7143   4.204   7.693   1.248 -0.2693  0.1917  0.5540
   17CHTO    O4 7144   4.025   7.624   1.321  0.4835 -1.3037 -0.2127
   17CHTO   C14 7145   3.945   7.509   1.353 -0.3517  0.5995 -0.3824
   17CHTO   H27 7146   3.850   7.511   1.296 -0.6766 -0.1915  0.1290
   17CHTO   C18 7147   3.901   7.522   1.509 -0.1203 -0.0695  0.2211
   17CHTO   O13 7148   3.828   7.642   1.536 -0.3517  0.1054  0.2523
   17CHTO    H7 7149   3.896   7.705   1.522  0.7704 -0.7588  1.6772
   17CHTO    O2 7150   4.211   7.685   1.465 -0.4193  0.4600  0.2806
   17CHTO    C1 7151   4.216   7.828   1.463  0.4833  0.0970 -0.3097
   17CHTO   H14 7152   4.129   7.864   1.404 -1.5561 -0.5088  2.2098
   17CHTO    C2 7153   4.353   7.883   1.407  0.4251  0.1237 -1.0030
   17CHTO   H15 7154   4.430   7.816   1.449  1.3580  1.6349 -0.2552
   17CHTO    O6 7155   4.346   7.863   1.269 -0.3398 -0.0930 -0.2161
   17CHTO    H1 7156   4.388   7.787   1.234  0.1653 -0.4364  1.0923
   17CHTO    C3 7157   4.381   8.035   1.438 -0.0889 -0.6919 -0.7670
   17CHTO   H16 7158   4.332   8.110   1.375  0.3044 -0.3887 -0.7123
   17CHTO    N1 7159   4.525   8.067   1.411  0.1170 -0.3352 -0.0319
   17CHTO    H8 7160   4.561   8.142   1.480 -0.1344  0.4665 -0.7692
   17CHTO    H9 7161   4.595   7.984   1.406  0.5998  0.0638  0.0344
   17CHTO    C4 7162   4.335   8.072   1.585 -0.6106  0.0281  0.8122
   17CHTO   H17 7163   4.410   8.043   1.659  0.4144  1.7470  0.4643
   17CHTO    O1 7164   4.203   8.020   1.616 -0.3020 -0.3981  0.1715
   17CHTO    C5 7165   4.196   7.876   1.614  0.3187 -0.3773  0.1949
   17CHTO   H18 7166   4.272   7.824   1.673  1.3699  0.2097 -0.6024
   17CHTO   C16 7167   4.063   7.829   1.665 -0.2985 -0.2693  0.3276
   17CHTO   O11 7168   4.036   7.872   1.796  0.0569  0.1319 -0.8744
   17CHTO    H5 7169   4.116   7.861   1.844  1.0002 -0.8271 -2.6213
   17CHTO    O3 7170   4.312   8.215   1.584  0.1562 -0.6867 -0.0877
   17CHTO    C6 7171   4.321   8.285   1.707 -0.2885 -0.3577  0.4091
   17CHTO   H19 7172   4.267   8.379   1.696  0.6701  0.5368  3.0376
   17CHTO    C8 7173   4.279   8.207   1.839  0.2055  0.1293 -0.1299
   17CHTO   H21 7174   4.330   8.111   1.833  0.0585 -0.0411  1.2325
   17CHTO    O7 7175   4.134   8.179   1.835 -0.3392 -0.6996  0.4205
   17CHTO    H2 7176   4.106   8.145   1.752  1.2575  2.1866 -1.3965
   17CHTO   C12 7177   4.314   8.282   1.968  0.3182  0.1485 -0.2274
   17CHTO   H25 7178   4.251   8.373   1.974  0.4965  0.2436  0.2188
   17CHTO    N3 7179   4.282   8.197   2.082  0.2606 -0.2388 -0.4047
   17CHTO   H12 7180   4.241   8.104   2.045 -2.0534  1.3106 -1.8980
   17CHTO   H13 7181   4.214   8.241   2.154  2.9246 -0.1202  2.1108
   17CHTO   C15 7182   4.465   8.324   1.960  0.3533  0.9597 -0.6457
   17CHTO   H28 7183   4.521   8.231   1.952  0.3825  1.0350 -1.3216
   17CHTO   O10 7184   4.500   8.399   2.064  0.0655  0.5699  0.2998
   17CHTO    H4 7185   4.477   8.365   2.148 -2.4336  2.5110  0.4637
   17CHTO    O5 7186   4.492   8.403   1.847 -0.1764 -0.0555 -0.4252
   17CHTO   C10 7187   4.474   8.329   1.723 -0.4261  0.0651 -0.4261
   17CHTO   H23 7188   4.536   8.240   1.716  1.5528  1.1672  2.0730
   17CHTO   C17 7189   4.527   8.419   1.607 -0.1610  0.4715  0.0087
   17CHTO   O12 7190   4.464   8.550   1.617 -0.4730 -0.6493  0.5598
   17CHTO    H6 7191   4.371   8.542   1.606 -0.7400 -0.3679  2.3696
   18CHTO  H203 7192   5.326   7.377   2.232 -0.0608  0.6481 -1.2477
   18CHTO   O82 7193   5.418   7.392   2.222  0.1081  0.4684 -0.0696
   18CHTO  C123 7194   5.453   7.422   2.089 -0.4124 -0.1195 -0.2997
   18CHTO  H227 7195   5.366   7.408   2.023 -2.4710 -0.1479  2.3363
   18CHTO   O77 7196   5.484   7.563   2.094 -0.6457 -0.2974  0.0745
   18CHTO  C118 7197   5.551   7.630   1.991  0.1039 -1.1879  0.3839
   18CHTO  H222 7198   5.469   7.640   1.918 -0.9669 -2.9221  1.3429
   18CHTO  C125 7199   5.582   7.772   2.048  0.7334  0.6083 -0.0173
   18CHTO   O84 7200   5.654   7.777   2.172 -0.0037  0.0955 -0.2688
   18CHTO  H205 7201   5.634   7.848   2.230  0.6340  1.4287 -1.6631
   18CHTO  C114 7202   5.668   7.552   1.931  0.4885  0.1490 -0.5558
   18CHTO  H218 7203   5.750   7.557   2.002  0.0173  2.1614 -0.1026
   18CHTO  C116 7204   5.629   7.400   1.909  0.2517  0.4667  0.6102
   18CHTO  H220 7205   5.552   7.390   1.830 -1.1564  0.2077  2.0035
   18CHTO   O79 7206   5.749   7.320   1.874 -0.4739 -0.0828  0.0901
   18CHTO  H201 7207   5.731   7.247   1.817 -0.6675  0.5256 -0.6368
   18CHTO  C120 7208   5.577   7.339   2.043 -0.8982 -0.2520  0.6056
   18CHTO  H224 7209   5.659   7.345   2.118  0.2611 -2.7659 -0.4432
   18CHTO   N21 7210   5.532   7.199   2.034 -0.0710 -0.0505  0.0346
   18CHTO  H211 7211   5.433   7.204   1.991 -0.4331  0.1674  0.8821
   18CHTO  H212 7212   5.598   7.151   1.963 -0.1419  1.5780 -1.1504
   18CHTO   O75 7213   5.700   7.645   1.826  0.2207  0.5707  0.7433
   18CHTO  C112 7214   5.860   7.647   1.772 -0.3397  0.2003 -0.2808
   18CHTO  H216 7215   5.912   7.561   1.816  0.3219  0.1520 -1.1358
   18CHTO   O73 7216   5.924   7.772   1.819  0.4458 -0.2032  0.4780
   18CHTO  C113 7217   6.060   7.802   1.785  0.3411  0.2708 -0.2009
   18CHTO  H217 7218   6.124   7.724   1.832  0.2713  0.0303 -0.5014
   18CHTO  C124 7219   6.084   7.945   1.842  0.0435 -0.1750 -0.6770
   18CHTO   O83 7220   6.226   7.957   1.847 -0.2108 -0.0436  0.2889
   18CHTO  H204 7221   6.258   8.019   1.909 -0.7865 -0.9462  1.5075
   18CHTO  C109 7222   6.072   7.802   1.634 -0.4426 -0.9827 -0.7358
   18CHTO  H213 7223   6.011   7.887   1.601 -0.6660 -0.6213  0.5639
   18CHTO  C110 7224   6.023   7.671   1.571  0.4893  0.3870  0.1840
   18CHTO  H214 7225   6.086   7.594   1.616  1.4694  1.1985  0.2198
   18CHTO   O78 7226   6.030   7.667   1.427  0.1852  0.1192  0.0865
   18CHTO  H200 7227   5.995   7.746   1.390  0.9787 -0.8199 -2.8387
   18CHTO  C111 7228   5.872   7.647   1.615  0.6625  0.6326 -0.0384
   18CHTO  H215 7229   5.816   7.733   1.574  0.5387 -0.4354 -2.1518
   18CHTO   N19 7230   5.801   7.520   1.560  0.6851 -0.0097 -0.1646
   18CHTO  H207 7231   5.863   7.468   1.488  0.2252  1.9197 -2.0151
   18CHTO  H208 7232   5.706   7.539   1.513 -0.2090 -4.2511 -0.2049
   18CHTO   O74 7233   6.215   7.829   1.596  0.1937 -0.6758  0.4877
   18CHTO  C115 7234   6.224   7.918   1.466  0.3338  0.3380  0.4418
   18CHTO  H219 7235   6.144   7.890   1.398  0.6491 -0.8884  0.5644
   18CHTO   O76 7236   6.207   8.068   1.502  0.2609 -0.5932  0.3884
   18CHTO  C122 7237   6.226   8.172   1.396  0.1576  0.4141 -0.1595
   18CHTO  H226 7238   6.250   8.268   1.441  1.6445  0.5361 -1.1732
   18CHTO  C126 7239   6.090   8.199   1.316 -0.0077  0.0864 -0.1365
   18CHTO   O85 7240   6.026   8.083   1.265 -0.2794 -0.0090  0.0479
   18CHTO  H206 7241   5.953   8.058   1.319  2.0955  0.5010  3.6577
   18CHTO  C121 7242   6.348   8.143   1.296 -0.4776 -0.5212  0.1430
   18CHTO  H225 7243   6.337   8.205   1.205 -1.3389  0.0756  0.6491
   18CHTO   O81 7244   6.468   8.190   1.362  0.2007 -0.1139 -0.2160
   18CHTO  H202 7245   6.474   8.175   1.454  1.3852 -1.4431 -0.4830
   18CHTO  C119 7246   6.343   7.991   1.249  0.3899 -1.2471  0.1360
   18CHTO  H223 7247   6.241   7.977   1.213  0.7938 -0.7227 -1.2320
   18CHTO  C117 7248   6.350   7.894   1.375  0.3297 -0.2800 -0.3853
   18CHTO  H221 7249   6.439   7.907   1.437 -0.6069 -0.9297  1.1239
   18CHTO   N20 7250   6.364   7.753   1.325  0.5188  0.2965 -0.0662
   18CHTO  H209 7251   6.274   7.694   1.328 -0.6270  1.9734 -0.8373
   18CHTO  H210 7252   6.447   7.709   1.378 -0.2214 -0.7855  0.2185
   18CHTO   O80 7253   6.429   7.971   1.098 -0.0029 -0.0083 -0.5500
   18CHTO  C103 7254   6.341   7.918   0.958 -0.0020  0.0801  0.1029
   18CHTO  H190 7255   6.416   7.908   0.879 -0.9769  1.0695 -0.9510
   18CHTO  C101 7256   6.256   7.784   0.968 -0.1242 -0.0528 -0.1113
   18CHTO  H188 7257   6.193   7.802   1.056  0.9689 -2.2036  1.1621
   18CHTO   O68 7258   6.354   7.639   0.986 -0.4284  0.6261 -0.3791
   18CHTO  H168 7259   6.423   7.642   0.924 -0.7834 -0.8237 -0.8732
   18CHTO   C99 7260   6.150   7.767   0.842 -0.3553  0.8087 -0.8522
   18CHTO  H186 7261   6.206   7.748   0.747 -0.9500 -2.4655 -0.6129
   18CHTO   N17 7262   6.062   7.652   0.861  0.1408  0.1578  0.4218
   18CHTO  H174 7263   6.024   7.619   0.765  0.9396 -0.2603  0.2405
   18CHTO  H175 7264   6.123   7.576   0.907  1.7961  1.9759  1.3231
   18CHTO   C97 7265   6.080   7.906   0.825  0.9026 -0.3612  0.1447
   18CHTO  H184 7266   6.015   7.922   0.912  1.3439 -0.1748  0.4411
   18CHTO   O64 7267   6.173   8.014   0.809 -0.2262 -0.5258 -0.1144
   18CHTO  C104 7268   6.251   8.033   0.927 -0.3897  0.5274 -0.1613
   18CHTO  H191 7269   6.189   8.047   1.015  0.1309 -0.4620  0.3805
   18CHTO  C108 7270   6.328   8.166   0.918 -0.2450 -0.3537  0.5405
   18CHTO   O71 7271   6.420   8.178   0.810 -0.5381  0.2841  0.2867
   18CHTO  H171 7272   6.505   8.200   0.843  0.5402 -1.8785 -0.9487
   18CHTO   O62 7273   5.996   7.901   0.705  0.2737 -0.8844  0.1070
   18CHTO   C91 7274   5.857   7.946   0.716  0.6723  0.7504 -0.0649
   18CHTO  H178 7275   5.822   7.933   0.819  0.4823  0.3139 -0.1813
   18CHTO   C92 7276   5.767   7.857   0.612 -0.3838 -0.7874  0.1652
   18CHTO  H179 7277   5.811   7.863   0.511 -2.4751 -0.9199 -0.8029
   18CHTO   O66 7278   5.769   7.721   0.654 -0.2050 -0.3442 -0.2644
   18CHTO  H166 7279   5.856   7.687   0.646 -0.5610 -1.3531  0.0237
   18CHTO   C93 7280   5.608   7.901   0.593 -0.1826  0.2056  0.1660
   18CHTO  H180 7281   5.553   7.865   0.681  0.2245  0.9881  0.7511
   18CHTO   N16 7282   5.547   7.844   0.472 -0.5312 -0.0530 -0.2177
   18CHTO  H172 7283   5.620   7.804   0.403  3.5644  1.4363  3.0221
   18CHTO  H173 7284   5.480   7.912   0.422 -0.9145  0.4220  0.9254
   18CHTO   C94 7285   5.607   8.047   0.594  0.3998 -0.3162 -0.8095
   18CHTO  H181 7286   5.636   8.089   0.497  0.5382 -0.8806 -1.0133
   18CHTO   O61 7287   5.690   8.105   0.698  0.1785  0.4061  0.1388
   18CHTO   C95 7288   5.832   8.093   0.685  0.2198  0.5486  0.7335
   18CHTO  H182 7289   5.864   8.107   0.582  0.9092 -2.4779  0.4896
   18CHTO  C106 7290   5.900   8.198   0.782 -0.3027  0.5244 -0.3684
   18CHTO   O69 7291   5.888   8.332   0.723 -0.1204  1.2658  0.1238
   18CHTO  H169 7292   5.796   8.352   0.726 -0.3771  0.0394  0.7271
   18CHTO   O63 7293   5.460   8.101   0.625 -0.4766  0.2651  0.1303
   18CHTO   C96 7294   5.440   8.239   0.547  0.0537 -0.3562  0.8159
   18CHTO  H183 7295   5.512   8.244   0.466  2.4972  2.1644  3.0352
   18CHTO   C98 7296   5.470   8.363   0.641  0.2993  0.5432 -0.0345
   18CHTO  H185 7297   5.420   8.352   0.738 -1.6224  2.0616 -0.8074
   18CHTO   O67 7298   5.612   8.360   0.666  0.6012  0.3450  0.4584
   18CHTO  H167 7299   5.640   8.271   0.680 -0.2366 -0.0184 -0.1178
   18CHTO  C102 7300   5.430   8.502   0.566 -0.2786 -0.0631  0.1233
   18CHTO  H189 7301   5.510   8.519   0.491  2.2871 -1.5722  2.4118
   18CHTO   N18 7302   5.437   8.619   0.652 -0.0540 -0.0674 -0.4123
   18CHTO  H176 7303   5.534   8.618   0.699  0.5237  0.5394 -1.5717
   18CHTO  H177 7304   5.463   8.693   0.577  0.1436 -1.4694 -1.7572
   18CHTO  C105 7305   5.297   8.491   0.491 -0.1157 -0.1643  0.7195
   18CHTO  H192 7306   5.214   8.506   0.561 -0.3222  1.3256  0.1752
   18CHTO   O65 7307   5.280   8.374   0.413  0.7449 -0.2247  0.3856
   18CHTO  C100 7308   5.289   8.250   0.488 -0.2110 -0.7533 -0.1142
   18CHTO  H187 7309   5.219   8.257   0.573  0.6347  1.8184  0.4006
   18CHTO  C107 7310   5.247   8.139   0.382 -0.5698  0.1657 -0.1860
   18CHTO   O70 7311   5.224   8.017   0.453 -0.0074  0.2844  0.1907
   18CHTO  H170 7312   5.141   8.011   0.495 -0.1990 -1.3520 -0.3771
   18CHTO   O57 7313   5.305   8.626   0.392  0.3609 -0.4842  0.6156
   18CHTO   C85 7314   5.198   8.669   0.306 -0.1872  0.0692 -0.4074
   18CHTO  H157 7315   5.247   8.737   0.232  0.8228 -0.6999 -0.4534
   18CHTO   C83 7316   5.105   8.759   0.389 -0.7906 -0.4203  0.9662
   18CHTO  H155 7317   5.170   8.841   0.420  0.7318 -0.8711 -0.8809
   18CHTO   O56 7318   5.058   8.691   0.509 -0.1876 -0.5528  0.6979
   18CHTO  H135 7319   5.122   8.690   0.577  1.7105 -1.1285 -1.0361
   18CHTO   C81 7320   4.994   8.814   0.304  0.1164  0.5716 -0.5685
   18CHTO  H153 7321   5.035   8.858   0.214  1.1107  0.0630 -0.3646
   18CHTO   N14 7322   4.916   8.928   0.363  0.1896  0.0143 -0.0138
   18CHTO  H141 7323   4.834   8.954   0.299 -1.2946 -1.7954  1.0726
   18CHTO  H142 7324   4.877   8.904   0.460  0.6981 -2.0509 -0.2893
   18CHTO   C79 7325   4.902   8.693   0.270 -0.1107  0.0826  0.0561
   18CHTO  H151 7326   4.823   8.730   0.204 -1.2449 -0.1066  1.2759
   18CHTO   O52 7327   4.971   8.592   0.193  0.2375 -0.3441 -0.8165
   18CHTO   C86 7328   5.101   8.563   0.238  0.6416 -0.3643 -0.0951
   18CHTO  H158 7329   5.095   8.474   0.304 -2.9239  1.2604  1.8987
   18CHTO   C90 7330   5.182   8.517   0.117  0.3628  0.5626  0.3626
   18CHTO   O60 7331   5.319   8.475   0.131 -0.0587 -0.2985 -0.3025
   18CHTO  H138 7332   5.340   8.419   0.203  1.9035  1.8018  0.8170
   18CHTO   O50 7333   4.835   8.634   0.383 -0.0482 -0.2990 -0.3954
   18CHTO   C73 7334   4.732   8.538   0.404  0.4309 -0.7072  0.4246
   18CHTO  H145 7335   4.723   8.470   0.318 -0.7114  0.4403 -0.3752
   18CHTO   C74 7336   4.594   8.606   0.438  0.8400  0.3776  0.0319
   18CHTO  H146 7337   4.555   8.658   0.350 -0.1069 -0.2626  0.0656
   18CHTO   O54 7338   4.498   8.508   0.474  0.5194  0.6007 -0.2075
   18CHTO  H133 7339   4.447   8.492   0.398  2.8975 -0.6978 -1.5680
   18CHTO   C75 7340   4.614   8.700   0.564  1.4611 -0.1858  0.5032
   18CHTO  H147 7341   4.695   8.770   0.543  0.1225  1.2067 -0.0956
   18CHTO   N13 7342   4.498   8.784   0.605  0.2039  0.1684 -0.1667
   18CHTO  H139 7343   4.415   8.759   0.540  0.0283  0.0023  0.1207
   18CHTO  H140 7344   4.508   8.890   0.593 -0.9035  0.2479 -0.4929
   18CHTO   C76 7345   4.665   8.618   0.687 -0.0741  0.0514  0.0606
   18CHTO  H148 7346   4.581   8.554   0.715  0.4920 -1.4661 -1.5976
   18CHTO   O49 7347   4.780   8.532   0.648 -0.6836 -0.1735  0.0766
   18CHTO   C77 7348   4.767   8.459   0.529 -0.4101  0.2011 -0.1228
   18CHTO  H149 7349   4.688   8.386   0.545  1.7305 -2.2850 -0.4125
   18CHTO   C88 7350   4.898   8.381   0.501 -0.2327  0.6571 -0.0250
   18CHTO   O58 7351   4.945   8.295   0.623  0.1291 -1.0723 -0.0224
   18CHTO  H136 7352   4.906   8.211   0.616 -2.8945  0.0375  2.3434
   18CHTO   O51 7353   4.722   8.713   0.796 -0.0823  0.0705  0.0690
   18CHTO   C78 7354   4.749   8.629   0.927 -0.1240 -0.2914  0.3217
   18CHTO  H150 7355   4.739   8.520   0.906 -1.6479  0.2137 -1.6319
   18CHTO   C80 7356   4.643   8.677   1.034  0.7097 -0.2837 -0.1966
   18CHTO  H152 7357   4.644   8.787   1.049 -3.2113 -0.1637 -0.3144
   18CHTO   O55 7358   4.512   8.646   0.983  0.5001  0.2063  0.1085
   18CHTO  H134 7359   4.509   8.572   0.926 -1.0190  0.1277  0.2833
   18CHTO   C84 7360   4.660   8.607   1.173  0.0764  0.6296 -0.3270
   18CHTO  H156 7361   4.656   8.498   1.171 -1.4477  0.6859 -0.8717
   18CHTO   N15 7362   4.564   8.657   1.273  0.2370  0.3956 -0.5231
   18CHTO  H143 7363   4.574   8.592   1.358  0.4556  0.2324 -0.6762
   18CHTO  H144 7364   4.464   8.652   1.235 -0.3756  0.4137  1.0235
   18CHTO   C87 7365   4.808   8.643   1.207 -0.4588  0.3890 -0.2367
   18CHTO  H159 7366   4.805   8.752   1.209  0.1016  0.4398 -1.6372
   18CHTO   O53 7367   4.923   8.593   1.089 -0.1625 -0.0944  0.1854
   18CHTO   C82 7368   4.895   8.661   0.966 -0.2069  0.1247 -0.1854
   18CHTO  H154 7369   4.911   8.767   0.985 -2.5383 -0.1767  4.2806
   18CHTO   C89 7370   4.994   8.620   0.858 -0.7450  0.1293 -0.1037
   18CHTO   O59 7371   5.121   8.673   0.899 -0.5393  0.2570 -0.0609
   18CHTO  H137 7372   5.127   8.766   0.884 -3.2055  0.4284 -0.1567
   18CHTO   O45 7373   4.852   8.576   1.354  0.4481 -0.2474  0.2954
   18CHTO   C67 7374   4.995   8.556   1.372  0.1905 -1.2185  0.4818
   18CHTO  H124 7375   5.036   8.503   1.287  2.5033  0.6793  0.3327
   18CHTO   C65 7376   5.065   8.698   1.381 -0.3683 -0.5445  0.4752
   18CHTO  H122 7377   4.981   8.765   1.398  0.1637  0.2672 -0.0739
   18CHTO   O44 7378   5.123   8.737   1.254  0.2920  0.7066  0.5622
   18CHTO  H102 7379   5.064   8.734   1.181  0.3982  2.4945  0.3779
   18CHTO   C63 7380   5.162   8.702   1.499 -0.2910  0.9012 -0.2594
   18CHTO  H120 7381   5.105   8.706   1.591  0.3680 -2.6816  0.3820
   18CHTO   N11 7382   5.238   8.834   1.508 -0.6559  0.1019  0.5671
   18CHTO  H108 7383   5.189   8.909   1.450  1.3271  0.1608 -1.1075
   18CHTO  H109 7384   5.245   8.882   1.603 -0.8301 -2.3318  1.8487
   18CHTO   C61 7385   5.249   8.570   1.506  0.2586 -0.4570  0.0337
   18CHTO  H118 7386   5.323   8.581   1.587  0.3798  0.5117 -0.2056
   18CHTO   O40 7387   5.169   8.451   1.538  0.1949 -0.1378  0.3120
   18CHTO   C68 7388   5.022   8.462   1.505 -0.5952 -0.1854  0.6066
   18CHTO  H125 7389   4.970   8.508   1.592 -1.5233  1.1611 -0.6365
   18CHTO   C72 7390   4.974   8.322   1.487  0.3743 -0.1039  0.1416
   18CHTO   O48 7391   4.825   8.325   1.463 -0.3491  0.4171  0.4836
   18CHTO  H105 7392   4.783   8.242   1.450  0.7960 -0.5460  2.6013
   18CHTO   O38 7393   5.323   8.540   1.386 -0.2955 -0.1598 -0.1699
   18CHTO   C55 7394   5.437   8.447   1.395 -0.1304  0.3403  0.1876
   18CHTO  H112 7395   5.435   8.398   1.494 -3.4134  0.6893  0.3510
   18CHTO   C56 7396   5.569   8.542   1.372 -0.4779  0.3005  0.3995
   18CHTO  H113 7397   5.550   8.582   1.271  0.1582 -0.8474 -0.1771
   18CHTO   O42 7398   5.573   8.650   1.467 -0.2587 -0.5452 -0.0364
   18CHTO  H100 7399   5.652   8.699   1.458 -0.0543 -1.1122 -1.3867
   18CHTO   C57 7400   5.695   8.447   1.378 -0.3448  0.2497  0.1284
   18CHTO  H114 7401   5.699   8.411   1.481  1.5524  1.2645  0.4379
   18CHTO   N10 7402   5.821   8.528   1.360 -0.0617 -0.2158 -0.3012
   18CHTO  H106 7403   5.804   8.610   1.292  2.3949  0.5559  0.0039
   18CHTO  H107 7404   5.867   8.562   1.451  1.0584  0.6955 -1.2112
   18CHTO   C58 7405   5.678   8.325   1.286 -0.4830 -0.4838 -0.1109
   18CHTO  H115 7406   5.720   8.352   1.187  0.4458 -0.4066  0.2935
   18CHTO   O37 7407   5.545   8.270   1.273  0.2786  0.3028 -0.2182
   18CHTO   C59 7408   5.427   8.350   1.272 -0.5241 -0.2762 -0.8610
   18CHTO  H116 7409   5.420   8.404   1.177 -0.8247 -1.4333 -1.4966
   18CHTO   C70 7410   5.293   8.273   1.270  0.4359  0.0533 -0.4014
   18CHTO   O46 7411   5.274   8.175   1.370  0.5589  0.4356 -0.2742
   18CHTO  H103 7412   5.182   8.156   1.364  0.6668  0.2998 -1.7062
   18CHTO   O39 7413   5.775   8.200   1.363 -0.6488 -0.0478  0.8420
   18CHTO   C60 7414   5.713   8.130   1.463  0.8288  0.6712  0.2660
   18CHTO  H117 7415   5.634   8.191   1.506  1.4712  1.1101  0.8219
   18CHTO   C62 7416   5.665   7.997   1.399  0.0336 -0.4452 -0.9624
   18CHTO  H119 7417   5.592   8.037   1.325 -1.3118 -0.9260  0.0895
   18CHTO   O43 7418   5.779   7.925   1.336  0.3061  0.1108 -0.1434
   18CHTO  H101 7419   5.817   7.849   1.376  1.2957 -1.0551 -3.0889
   18CHTO   C66 7420   5.572   7.927   1.520 -0.2062 -0.7181  0.4934
   18CHTO  H123 7421   5.476   7.979   1.524  0.6872  0.8516  3.3874
   18CHTO   N12 7422   5.538   7.790   1.488  0.1434 -0.0778  0.1997
   18CHTO  H110 7423   5.527   7.734   1.580 -1.9094 -1.3998 -0.8262
   18CHTO  H111 7424   5.615   7.733   1.438  0.1787  0.8023 -0.7665
   18CHTO   C69 7425   5.625   7.941   1.664  0.5331 -0.2834 -0.4710
   18CHTO  H126 7426   5.618   7.852   1.730 -1.6052  0.5384  0.4394
   18CHTO   O41 7427   5.768   7.978   1.661 -0.8224  0.2470 -0.2690
   18CHTO   C64 7428   5.814   8.103   1.577  0.1052 -0.0052  0.3290
   18CHTO  H121 7429   5.917   8.082   1.541  0.8926  0.1220  2.4284
   18CHTO   C71 7430   5.828   8.227   1.666 -0.1585  0.0441  0.3379
   18CHTO   O47 7431   5.911   8.208   1.785 -0.3255 -0.2444  0.3272
   18CHTO  H104 7432   5.910   8.290   1.830  0.5884 -1.4697  2.6812
   18CHTO   O34 7433   5.555   8.048   1.730 -0.0303  0.2463  0.0614
   18CHTO   C49 7434   5.505   8.093   1.871 -0.2050  0.0672  0.6301
   18CHTO   H91 7435   5.568   8.038   1.940  1.3554  0.0029 -0.8012
   18CHTO   C47 7436   5.357   8.058   1.885 -0.4181 -0.2153  0.0397
   18CHTO   H89 7437   5.345   8.081   1.993 -0.6390 -2.4592  0.5300
   18CHTO   O33 7438   5.333   7.914   1.869 -0.0071  0.1736 -0.6648
   18CHTO   H70 7439   5.263   7.894   1.810 -0.3491  0.2388 -0.2731
   18CHTO   C45 7440   5.262   8.151   1.792  0.2861 -0.4714  0.0868
   18CHTO   H87 7441   5.304   8.149   1.690  2.8437 -1.6089  1.1015
   18CHTO    N8 7442   5.120   8.113   1.788 -0.3601 -0.1806  0.6653
   18CHTO   H75 7443   5.059   8.172   1.855 -0.8338  0.4276 -0.2943
   18CHTO   H76 7444   5.084   8.121   1.687 -2.5614  0.6459  1.4768
   18CHTO   C43 7445   5.286   8.297   1.840  0.3161 -0.2390  0.8319
   18CHTO   H85 7446   5.227   8.352   1.766  0.9750 -0.5873  0.0432
   18CHTO   O29 7447   5.427   8.335   1.835  0.7789 -0.7340 -0.5939
   18CHTO   C50 7448   5.524   8.246   1.892  0.6129  0.0557  0.2207
   18CHTO   H92 7449   5.614   8.273   1.835  0.6768  1.4144  0.9525
   18CHTO   C54 7450   5.560   8.289   2.032 -0.4445 -0.0787 -0.4313
   18CHTO   O36 7451   5.649   8.204   2.094  0.2702  0.9517 -0.4481
   18CHTO   H72 7452   5.734   8.214   2.055 -0.0873  0.2883 -1.4400
   18CHTO   O27 7453   5.242   8.325   1.972 -0.2144  0.0704  0.0585
   18CHTO   C37 7454   5.183   8.448   2.028  0.4950 -0.6998 -0.2103
   18CHTO   H79 7455   5.165   8.435   2.135  0.8797  1.6677  0.1698
   18CHTO   C38 7456   5.279   8.572   1.991  0.1663 -0.4500  0.2750
   18CHTO   H80 7457   5.301   8.568   1.884 -2.2834 -0.5996 -0.2413
   18CHTO   O31 7458   5.399   8.555   2.068  0.2541  0.2143  0.2713
   18CHTO   H68 7459   5.373   8.556   2.158 -0.9615 -1.6105 -0.0245
   18CHTO   C39 7460   5.211   8.714   2.023 -0.7187  0.4021  0.1878
   18CHTO   H81 7461   5.192   8.726   2.130 -0.4096  3.0067 -0.0006
   18CHTO    N7 7462   5.294   8.833   1.985 -0.4682 -0.4868  0.3708
   18CHTO   H73 7463   5.234   8.905   1.932  1.8159  0.9388 -0.3508
   18CHTO   H74 7464   5.340   8.879   2.072 -1.8072 -0.3379  1.0155
   18CHTO   C40 7465   5.076   8.716   1.949 -0.4368  0.4435 -0.0590
   18CHTO   H82 7466   5.087   8.705   1.841 -5.7550 -0.8399 -0.6216
   18CHTO   O26 7467   4.999   8.607   2.005 -0.4722  0.1786 -0.2615
   18CHTO   C41 7468   5.048   8.477   1.959  0.3888 -0.1225  0.0097
   18CHTO   H83 7469   5.054   8.474   1.849 -2.0303  1.4864 -0.1951
   18CHTO   C52 7470   4.939   8.377   2.001 -0.3908  0.0379 -0.5055
   18CHTO   O35 7471   4.793   8.406   1.947 -0.0325  0.0233 -0.6037
   18CHTO   H71 7472   4.733   8.429   2.015  1.9177  1.9902  0.5150
   18CHTO   O28 7473   5.001   8.829   2.000 -0.0578 -0.6850 -0.1038
   18CHTO   C42 7474   4.869   8.874   1.969 -0.0291  0.0353  0.7940
   18CHTO   H84 7475   4.876   8.982   1.978 -0.1930  0.1855 -0.8477
   18CHTO   C44 7476   4.764   8.825   2.075  0.1851 -0.0741 -0.3730
   18CHTO   H86 7477   4.762   8.716   2.073  0.5480 -0.1748  2.6511
   18CHTO   O32 7478   4.816   8.856   2.204 -0.6470  0.1248  0.0063
   18CHTO   H69 7479   4.777   8.935   2.237 -3.1085 -0.8384 -0.4553
   18CHTO   C48 7480   4.609   8.871   2.055  0.2946  0.0534  0.6101
   18CHTO   H90 7481   4.598   8.978   2.074  0.9376 -0.4424  4.1515
   18CHTO    N9 7482   4.517   8.807   2.153  0.2544  0.2704  0.4778
   18CHTO   H77 7483   4.414   8.834   2.135  0.3444  1.0233  1.0628
   18CHTO   H78 7484   4.544   8.825   2.256  0.2412  1.3872  0.2989
   18CHTO   C51 7485   4.577   8.837   1.907  0.5405  0.2462  0.2227
   18CHTO   H93 7486   4.584   8.728   1.896  1.1952  0.0899  2.0513
   18CHTO   O30 7487   4.667   8.907   1.815  0.0863 -0.5206 -0.3231
   18CHTO   C46 7488   4.807   8.842   1.829 -0.7937 -0.5406  0.3978
   18CHTO   H88 7489   4.801   8.734   1.815 -1.3800 -0.6217  1.2386
   18CHTO   C53 7490   4.896   8.910   1.718 -0.0451  0.1702 -1.0646
   18CHTO   O72 7491   4.823   8.900   1.599 -0.1764  0.4667  0.1882
   18CHTO  H199 7492   4.871   8.953   1.539 -1.0684 -0.9613 -1.8298
   18CHTO   O22 7493   4.449   8.887   1.870 -0.3809 -0.0706 -0.6796
   18CHTO   C31 7494   4.350   8.819   1.784  0.5324 -0.2241 -0.1495
   18CHTO   H59 7495   4.407   8.762   1.708 -0.7957  0.4571 -1.7024
   18CHTO   C29 7496   4.252   8.722   1.857  0.7658 -0.4410 -0.3348
   18CHTO   H57 7497   4.212   8.780   1.942  0.1945  1.4453 -1.8646
   18CHTO   O21 7498   4.318   8.611   1.916 -0.5337  0.8069 -0.2556
   18CHTO   H37 7499   4.291   8.535   1.869 -0.0308 -0.1020  0.8899
   18CHTO   C27 7500   4.124   8.669   1.764  0.4260 -0.9242  0.1952
   18CHTO   H55 7501   4.172   8.597   1.695 -1.1335 -3.1478  1.3582
   18CHTO    N5 7502   4.013   8.601   1.840 -0.2708 -0.1831 -0.3379
   18CHTO   H43 7503   4.037   8.586   1.944 -0.1283  0.6220 -0.2503
   18CHTO   H44 7504   3.984   8.505   1.798 -1.4854 -1.2167  2.7360
   18CHTO   C25 7505   4.073   8.791   1.682  0.1575  0.2314 -0.3482
   18CHTO   H53 7506   4.001   8.847   1.744  1.1593  0.2857  0.7872
   18CHTO   O17 7507   4.170   8.879   1.621  0.0045  0.3337 -0.1322
   18CHTO   C32 7508   4.267   8.928   1.709 -0.1376  0.4779  0.3461
   18CHTO   H60 7509   4.217   8.989   1.783 -1.5732 -0.0959 -0.1367
   18CHTO   C36 7510   4.363   9.030   1.623 -0.3376 -0.4011  0.4769
   18CHTO   O25 7511   4.287   9.144   1.566 -0.2882  0.1541 -0.0260
   18CHTO   H40 7512   4.205   9.119   1.528 -1.0285  1.2198  0.8412
   18CHTO   O15 7513   3.985   8.735   1.574  0.6088 -0.6459  0.5686
   18CHTO   C19 7514   3.951   8.673   1.449  0.1121 -0.6467 -0.2653
   18CHTO   H47 7515   3.841   8.668   1.454 -0.0804  1.8758 -1.0200
   18CHTO   C20 7516   3.994   8.765   1.326 -0.3848 -0.1700  0.0740
   18CHTO   H48 7517   4.097   8.801   1.335 -0.1192 -0.9621  0.1883
   18CHTO   O19 7518   3.914   8.879   1.346 -0.7922  0.1448 -0.1090
   18CHTO   H35 7519   3.940   8.927   1.423  1.6905  1.4091 -1.6460
   18CHTO   C21 7520   3.977   8.695   1.183  0.2886  0.5206  0.4451
   18CHTO   H49 7521   3.871   8.677   1.166  0.4131  0.3781 -0.1827
   18CHTO    N4 7522   4.022   8.785   1.068  0.3059 -0.2073 -0.6168
   18CHTO   H41 7523   3.979   8.753   0.974 -1.1637 -1.9621  0.6053
   18CHTO   H42 7524   4.129   8.787   1.057  0.3561 -1.1119 -0.3122
   18CHTO   C22 7525   4.053   8.558   1.199  0.5226  0.2744 -0.0535
   18CHTO   H50 7526   4.153   8.585   1.232 -0.3641  1.6710  1.5703
   18CHTO   O14 7527   3.991   8.476   1.303  0.0303  0.4226 -0.1369
   18CHTO   C23 7528   4.006   8.527   1.436  0.0952 -0.3358 -0.6216
   18CHTO   H51 7529   4.108   8.517   1.476 -0.6321 -1.7695  0.8717
   18CHTO   C34 7530   3.922   8.427   1.523  0.4047 -0.6142 -0.5381
   18CHTO   O23 7531   3.974   8.290   1.518  0.1711  0.0729 -0.6015
   18CHTO   H38 7532   3.934   8.221   1.567 -0.4023  1.2678  0.6444
   18CHTO   O16 7533   4.054   8.462   1.090 -0.1840 -0.2475  0.2330
   18CHTO   C24 7534   4.182   8.452   1.015  0.1211 -0.2386  0.2195
   18CHTO   H52 7535   4.248   8.537   1.032  1.1783 -0.9598 -0.2161
   18CHTO   C26 7536   4.141   8.439   0.859 -0.4742  0.0015 -0.3750
   18CHTO   H54 7537   4.058   8.366   0.846 -0.6215  0.3165 -1.2183
   18CHTO   O20 7538   4.074   8.560   0.813  0.3429 -0.0454 -0.2549
   18CHTO   H36 7539   4.022   8.609   0.873 -1.3761 -0.1316 -1.6543
   18CHTO   C30 7540   4.261   8.388   0.763  0.5111 -0.4237  0.2810
   18CHTO   H58 7541   4.333   8.470   0.754  0.2403 -0.4860 -3.5008
   18CHTO    N6 7542   4.218   8.356   0.626  0.4235 -0.2627 -0.9027
   18CHTO   H45 7543   4.190   8.435   0.557 -2.8019 -0.3648  0.1896
   18CHTO   H46 7544   4.127   8.299   0.636 -0.9266  1.7522 -1.2296
   18CHTO   C33 7545   4.344   8.273   0.834  0.6317  0.1355 -0.6321
   18CHTO   H61 7546   4.292   8.177   0.846  1.3824  0.0533  2.1789
   18CHTO   O18 7547   4.376   8.318   0.965 -0.3349 -0.2521 -0.6495
   18CHTO   C28 7548   4.266   8.328   1.052  0.4320  0.0723  0.0962
   18CHTO   H56 7549   4.200   8.241   1.058 -0.7197  0.9584  0.5953
   18CHTO   C35 7550   4.327   8.350   1.194  0.0814 -0.1829 -0.4350
   18CHTO   O24 7551   4.240   8.322   1.306  0.0334 -0.1345  0.5260
   18CHTO   H39 7552   4.280   8.378   1.370  2.1199 -1.1483  0.1541
   18CHTO    O9 7553   4.456   8.233   0.760 -0.5178 -0.5927 -0.4425
   18CHTO   C13 7554   4.552   8.116   0.861  0.0546  0.3769 -0.0343
   18CHTO   H26 7555   4.485   8.067   0.935  0.6168 -0.1042  0.1591
   18CHTO   C11 7556   4.664   8.202   0.928 -0.6695 -0.3933  0.5838
   18CHTO   H24 7557   4.611   8.272   0.994  0.9609  3.4719 -2.0477
   18CHTO    O8 7558   4.745   8.275   0.834 -0.1898 -0.2172  1.0229
   18CHTO    H3 7559   4.758   8.237   0.749 -0.7783  0.1539  0.7612
   18CHTO    C9 7560   4.749   8.108   1.015 -0.2086  0.3469 -0.8209
   18CHTO   H22 7561   4.672   8.061   1.078  0.6967 -1.8389 -1.2849
   18CHTO    N2 7562   4.836   8.169   1.117  0.0212  0.0517  0.4098
   18CHTO   H10 7563   4.922   8.209   1.066 -0.6097  0.7975 -0.0795
   18CHTO   H11 7564   4.865   8.087   1.181  0.4551 -0.8901 -0.9895
   18CHTO    C7 7565   4.821   7.997   0.925  0.4828  0.3011  0.6595
   18CHTO   H20 7566   4.871   7.928   0.995  1.5667 -0.5636 -0.9287
   18CHTO    O4 7567   4.721   7.922   0.850  0.2673 -0.1502 -0.3557
   18CHTO   C14 7568   4.612   7.991   0.778 -0.2742 -1.5812 -0.1022
   18CHTO   H27 7569   4.538   7.911   0.756 -0.0984 -1.7688 -0.0155
   18CHTO   C18 7570   4.664   8.030   0.642  0.2869 -0.0489 -0.0587
   18CHTO   O13 7571   4.708   7.918   0.564 -0.5598  0.4105 -0.6097
   18CHTO    H7 7572   4.729   7.947   0.478 -1.3392  0.0261 -0.9406
   18CHTO    O2 7573   4.924   8.059   0.826 -0.0649  0.1292  0.5011
   18CHTO    C1 7574   5.049   7.998   0.778  0.6256 -0.5612 -0.3267
   18CHTO   H14 7575   5.070   8.049   0.682  2.5853 -1.5636 -0.4461
   18CHTO    C2 7576   5.036   7.833   0.760 -0.2328 -0.4617 -0.0113
   18CHTO   H15 7577   4.990   7.795   0.853 -0.5275 -2.1335 -0.8271
   18CHTO    O6 7578   4.951   7.833   0.641 -0.3515 -0.4398 -0.6639
   18CHTO    H1 7579   4.865   7.806   0.668 -0.2131 -1.3260 -1.0862
   18CHTO    C3 7580   5.182   7.770   0.737 -0.9184  0.1318 -0.9055
   18CHTO   H16 7581   5.217   7.827   0.649  0.4749 -0.0099 -0.4551
   18CHTO    N1 7582   5.163   7.624   0.720 -0.9948 -0.4940 -0.4743
   18CHTO    H8 7583   5.208   7.586   0.629  0.3613  1.2133 -0.5642
   18CHTO    H9 7584   5.210   7.579   0.806 -2.3205  0.7545  0.9124
   18CHTO    C4 7585   5.270   7.820   0.856 -0.4157 -0.9074  0.4003
   18CHTO   H17 7586   5.222   7.799   0.951 -2.2735  2.6629  0.3560
   18CHTO    O1 7587   5.289   7.967   0.835  0.4191 -0.5204 -0.2604
   18CHTO    C5 7588   5.168   8.039   0.866  0.3386  0.5588  0.6369
   18CHTO   H18 7589   5.139   8.011   0.967  0.5751 -1.8698  0.0714
   18CHTO   C16 7590   5.201   8.192   0.855 -0.2280  1.2476  0.3344
   18CHTO   O11 7591   5.105   8.277   0.915  0.2909 -0.4732  0.3673
   18CHTO    H5 7592   5.140   8.364   0.914 -0.6112 -0.0965  0.4802
   18CHTO    O3 7593   5.406   7.776   0.844 -0.0500  0.5184  0.1916
   18CHTO    C6 7594   5.463   7.743   0.978  0.2451  0.2973 -0.1687
   18CHTO   H19 7595   5.391   7.765   1.057 -1.5908  1.7733 -2.1770
   18CHTO    C8 7596   5.497   7.595   0.993  0.2677  1.0727  0.1158
   18CHTO   H21 7597   5.547   7.562   0.902 -1.4127 -0.3849 -0.2880
   18CHTO    O7 7598   5.376   7.518   1.011 -0.3263  0.4165 -0.0570
   18CHTO    H2 7599   5.397   7.437   1.055 -0.8443  0.1852 -0.2378
   18CHTO   C12 7600   5.590   7.556   1.122 -0.2560 -0.0037 -0.3476
   18CHTO   H25 7601   5.522   7.580   1.206  1.1784 -0.3316  0.9331
   18CHTO    N3 7602   5.621   7.410   1.137  0.3122  0.3559  0.0189
   18CHTO   H12 7603   5.559   7.351   1.072 -0.7190 -1.4612  2.5684
   18CHTO   H13 7604   5.725   7.393   1.113  0.6261 -0.8133  2.1351
   18CHTO   C15 7605   5.709   7.655   1.123 -0.5446  0.3707 -0.0891
   18CHTO   H28 7606   5.788   7.630   1.053 -0.3536 -0.4504  0.4107
   18CHTO   O10 7607   5.778   7.659   1.267 -0.9592 -0.0681  0.2310
   18CHTO    H4 7608   5.836   7.586   1.276  0.7233  1.2995  0.8337
   18CHTO    O5 7609   5.660   7.790   1.116 -0.3076 -0.0023 -0.0781
   18CHTO   C10 7610   5.587   7.824   1.005 -0.2232  0.4932  0.0255
   18CHTO   H23 7611   5.660   7.801   0.927 -1.4772  1.4661 -1.4775
   18CHTO   C17 7612   5.554   7.977   1.019  0.0744 -0.6565  0.4659
   18CHTO   O12 7613   5.444   8.012   1.105 -0.1597  0.2116  0.0022
   18CHTO    H6 7614   5.363   8.012   1.058 -0.3751  0.9891  0.3634
   19CHTO  H203 7615   4.811   9.988   3.013  0.4877  1.2683 -1.0044
   19CHTO   O82 7616   4.864   9.966   2.939  0.9315  0.1660 -0.3695
   19CHTO  C123 7617   4.801   9.851   2.878 -0.0585 -0.4082  0.6912
   19CHTO  H227 7618   4.720   9.887   2.813  0.9184  0.9663  0.2165
   19CHTO   O77 7619   4.912   9.803   2.796  0.1128 -0.1186 -0.0967
   19CHTO  C118 7620   4.893   9.691   2.708 -0.3913  0.4315 -0.3142
   19CHTO  H222 7621   4.828   9.723   2.625 -0.6064 -1.1031 -0.7530
   19CHTO  C125 7622   5.030   9.655   2.651 -0.4067  0.5392 -0.4329
   19CHTO   O84 7623   5.137   9.618   2.746  0.9805 -0.3779 -0.4121
   19CHTO  H205 7624   5.209   9.586   2.696  1.7694 -2.0268  1.6941
   19CHTO  C114 7625   4.845   9.568   2.787  0.2051 -0.0269 -0.5577
   19CHTO  H218 7626   4.925   9.543   2.857 -0.0998  1.1521  0.2174
   19CHTO  C116 7627   4.726   9.609   2.881  0.0141  0.3049 -0.6698
   19CHTO  H220 7628   4.634   9.631   2.823  0.7429 -1.1498 -2.4185
   19CHTO   O79 7629   4.686   9.491   2.952 -0.4474  1.0622 -0.0746
   19CHTO  H201 7630   4.597   9.499   2.983 -0.9388  1.7573 -1.5999
   19CHTO  C120 7631   4.752   9.733   2.971  0.0802 -0.1592  0.0456
   19CHTO  H224 7632   4.834   9.695   3.036 -1.1599 -2.1664  0.5042
   19CHTO   N21 7633   4.643   9.768   3.066 -0.0405  0.0046 -1.1882
   19CHTO  H211 7634   4.674   9.849   3.131  1.1161 -0.0669 -1.6356
   19CHTO  H212 7635   4.552   9.796   3.015 -1.4076  1.0796  1.6937
   19CHTO   O75 7636   4.818   9.463   2.693  0.3378 -0.0252  0.0973
   19CHTO  C112 7637   4.849   9.324   2.735 -0.2100 -0.7528  0.3641
   19CHTO  H216 7638   4.828   9.314   2.842 -1.0169  0.2756  0.3087
   19CHTO   O73 7639   4.987   9.303   2.701 -0.2577 -0.4328 -0.1072
   19CHTO  C113 7640   5.027   9.162   2.717  0.5278  0.3272  0.4463
   19CHTO  H217 7641   5.005   9.135   2.822 -2.4230 -2.3598 -0.7695
   19CHTO  C124 7642   5.177   9.148   2.693  0.3411  0.5229  0.4647
   19CHTO   O83 7643   5.253   9.209   2.794  0.0700 -0.5566 -0.4189
   19CHTO  H204 7644   5.310   9.273   2.756  1.5995 -0.8743  1.2662
   19CHTO  C109 7645   4.948   9.069   2.622  0.0479  0.0300 -0.0432
   19CHTO  H213 7646   4.968   9.098   2.518  0.1654 -1.2620 -0.3867
   19CHTO  C110 7647   4.800   9.079   2.665  0.8557 -0.1764  0.2815
   19CHTO  H214 7648   4.787   9.037   2.765  1.4200 -1.1551 -0.0525
   19CHTO   O78 7649   4.715   9.001   2.577 -0.1415  0.2316 -0.4438
   19CHTO  H200 7650   4.628   9.010   2.611  0.4308 -0.6767  1.3637
   19CHTO  C111 7651   4.749   9.226   2.662  1.3008  0.1878 -1.0352
   19CHTO  H215 7652   4.744   9.257   2.556  0.8803  1.7025 -0.5840
   19CHTO   N19 7653   4.614   9.247   2.720 -0.6016  0.0241 -0.1341
   19CHTO  H207 7654   4.603   9.232   2.827 -0.4318 -1.0145 -0.2536
   19CHTO  H208 7655   4.529   9.243   2.653 -1.5048 -0.5361  1.0240
   19CHTO   O74 7656   4.981   8.926   2.640  0.1611 -0.1855  0.3385
   19CHTO  C115 7657   4.993   8.840   2.505  0.1732  0.3538  0.7689
   19CHTO  H219 7658   4.912   8.861   2.435  1.2089 -0.0640 -0.5988
   19CHTO   O76 7659   5.124   8.873   2.424  0.1929 -0.2018 -0.2998
   19CHTO  C122 7660   5.225   8.786   2.480 -0.6441  0.3648  0.4389
   19CHTO  H226 7661   5.216   8.792   2.589  0.9255 -0.1065  0.6040
   19CHTO  C126 7662   5.372   8.831   2.444 -0.5814 -0.0440  0.4260
   19CHTO   O85 7663   5.385   8.972   2.446 -0.6445 -0.0928  0.0282
   19CHTO  H206 7664   5.456   9.000   2.392  0.3098 -0.5273  1.0440
   19CHTO  C121 7665   5.205   8.628   2.444  0.8067 -0.0212 -0.6637
   19CHTO  H225 7666   5.230   8.617   2.336 -1.1376  1.0671 -1.2434
   19CHTO   O81 7667   5.287   8.561   2.541  0.2987 -0.1553  0.5953
   19CHTO  H202 7668   5.276   8.586   2.631 -1.1528 -0.6857  0.5832
   19CHTO  C119 7669   5.052   8.589   2.464 -0.2546 -0.0535 -1.2052
   19CHTO  H223 7670   5.006   8.604   2.366 -0.1865  0.1469 -1.2064
   19CHTO  C117 7671   4.975   8.691   2.559 -0.3320 -0.0254  0.2874
   19CHTO  H221 7672   5.017   8.689   2.660  2.7782  2.5404 -0.8794
   19CHTO   N20 7673   4.829   8.641   2.573 -0.3460  0.2470  0.1269
   19CHTO  H209 7674   4.782   8.701   2.650 -0.6931 -0.3633  0.3953
   19CHTO  H210 7675   4.772   8.641   2.481 -0.6123  0.2773  0.2919
   19CHTO   O80 7676   5.025   8.429   2.491  0.1007 -0.4614 -0.0866
   19CHTO  C103 7677   5.046   8.321   2.382  0.0069  0.1601  0.6278
   19CHTO  H190 7678   5.058   8.364   2.282  1.8769  3.5981  2.2401
   19CHTO  C101 7679   5.170   8.223   2.404 -0.2618 -0.9871 -0.4433
   19CHTO  H188 7680   5.151   8.174   2.500 -1.6963  3.0483  1.4932
   19CHTO   O68 7681   5.309   8.314   2.415  0.5185  0.4213  0.1846
   19CHTO  H168 7682   5.329   8.349   2.330 -0.5199 -0.2195 -0.3358
   19CHTO   C99 7683   5.158   8.113   2.288  0.1952 -0.5000  0.3499
   19CHTO  H186 7684   5.162   8.167   2.191 -2.1391 -0.0281  0.4890
   19CHTO   N17 7685   5.259   8.000   2.301  0.5020 -0.5874 -0.0776
   19CHTO  H174 7686   5.358   8.043   2.312 -0.3197  0.6931  3.2066
   19CHTO  H175 7687   5.251   7.932   2.218 -0.1577 -0.2187 -0.3213
   19CHTO   C97 7688   5.022   8.049   2.291  0.7575  0.2435 -0.6249
   19CHTO  H184 7689   5.013   7.999   2.388  0.6169 -1.1082 -1.3264
   19CHTO   O64 7690   4.921   8.141   2.277  0.1424 -0.3222  0.5044
   19CHTO  C104 7691   4.906   8.242   2.384  0.0472  0.0859 -0.9529
   19CHTO  H191 7692   4.892   8.194   2.481  1.7227  1.4160 -0.0297
   19CHTO  C108 7693   4.775   8.324   2.356  0.4340 -0.2224 -0.5673
   19CHTO   O71 7694   4.806   8.437   2.273  0.6346 -0.2623  0.1207
   19CHTO  H171 7695   4.809   8.517   2.322 -0.9662  0.1859 -0.4563
   19CHTO   O62 7696   4.999   7.952   2.185  0.7157 -1.1283 -0.2257
   19CHTO   C91 7697   4.876   7.875   2.195 -0.4026 -0.0987 -0.0561
   19CHTO  H178 7698   4.819   7.911   2.281 -1.5484 -0.3473 -0.7037
   19CHTO   C92 7699   4.923   7.728   2.219 -0.3154 -0.1643 -0.4225
   19CHTO  H179 7700   5.000   7.705   2.144 -0.6216  3.2587 -1.8264
   19CHTO   O66 7701   4.990   7.728   2.346 -0.0853 -0.3425  0.0416
   19CHTO  H166 7702   4.970   7.652   2.398  2.0308 -0.3025  0.9338
   19CHTO   C93 7703   4.813   7.620   2.208  0.7932 -0.5810  0.3391
   19CHTO  H180 7704   4.758   7.644   2.300  0.6270 -3.1945  0.9724
   19CHTO   N16 7705   4.859   7.482   2.216  0.0703  0.1427 -0.0832
   19CHTO  H172 7706   4.773   7.416   2.211  0.5934 -0.7212  1.7939
   19CHTO  H173 7707   4.901   7.473   2.315 -1.7743 -0.6434  0.6424
   19CHTO   C94 7708   4.724   7.638   2.083  0.3978  0.8316 -0.2834
   19CHTO  H181 7709   4.779   7.605   1.995 -0.3129 -0.9758 -0.0825
   19CHTO   O61 7710   4.688   7.773   2.051  0.4080 -0.3975 -1.2615
   19CHTO   C95 7711   4.789   7.879   2.063 -0.1010 -0.1074 -0.1099
   19CHTO  H182 7712   4.851   7.873   1.974 -1.5399 -2.0974 -1.0126
   19CHTO  C106 7713   4.706   8.011   2.053  0.4958  0.5501 -0.2487
   19CHTO   O69 7714   4.652   8.024   1.921 -0.4493 -0.2597  0.1589
   19CHTO  H169 7715   4.724   8.022   1.861 -0.5750 -0.7886  0.0206
   19CHTO   O63 7716   4.601   7.559   2.102  0.1350  0.1396  0.0665
   19CHTO   C96 7717   4.519   7.547   1.957 -0.1230 -0.3104  0.5504
   19CHTO  H183 7718   4.592   7.534   1.878 -1.3867  0.2351 -0.7206
   19CHTO   C98 7719   4.422   7.670   1.921 -0.1808  0.1790  0.7883
   19CHTO  H185 7720   4.483   7.762   1.912 -0.0088  0.1626  1.6683
   19CHTO   O67 7721   4.374   7.643   1.783 -0.6767 -0.5855  0.0636
   19CHTO  H167 7722   4.287   7.673   1.766 -0.9969  0.4241  3.1390
   19CHTO  C102 7723   4.299   7.678   2.010 -0.2659 -0.4745 -1.2619
   19CHTO  H189 7724   4.223   7.739   1.960 -1.6577 -0.3620  0.8819
   19CHTO   N18 7725   4.324   7.754   2.133 -0.2719 -0.1281 -0.3286
   19CHTO  H176 7726   4.367   7.853   2.136 -2.3026  0.7501  1.4286
   19CHTO  H177 7727   4.229   7.750   2.185  0.4971 -0.6346  1.0870
   19CHTO  C105 7728   4.236   7.539   2.027 -0.8555 -0.6428  0.6253
   19CHTO  H192 7729   4.241   7.501   2.129 -0.9012 -1.9007  0.1710
   19CHTO   O65 7730   4.292   7.435   1.946  0.1786  0.0841  0.9747
   19CHTO  C100 7731   4.435   7.412   1.969  0.4649 -0.5060 -0.2611
   19CHTO  H187 7732   4.445   7.372   2.071 -0.1708 -0.0067 -0.0022
   19CHTO  C107 7733   4.479   7.300   1.871 -0.1985  0.1354  0.0768
   19CHTO   O70 7734   4.483   7.336   1.729  0.4901 -0.3366  0.2201
   19CHTO  H170 7735   4.561   7.381   1.701  1.3662 -3.0128 -1.8475
   19CHTO   O57 7736   4.086   7.562   1.989 -0.1187 -0.4448  0.1569
   19CHTO   C85 7737   3.979   7.468   2.019 -0.0218 -0.0617  0.9783
   19CHTO  H157 7738   4.023   7.372   2.051 -1.4478 -0.3576  2.1049
   19CHTO   C83 7739   3.900   7.441   1.887 -0.8551 -0.0740 -0.5922
   19CHTO  H155 7740   3.972   7.408   1.813 -1.2768  0.8857 -1.4346
   19CHTO   O56 7741   3.854   7.563   1.826 -0.0167  0.5472 -0.1802
   19CHTO  H135 7742   3.766   7.579   1.854 -0.0280 -0.1390  0.1863
   19CHTO   C81 7743   3.799   7.329   1.912 -0.0414  0.0478 -0.4536
   19CHTO  H153 7744   3.857   7.245   1.951  1.8259  1.4391 -0.1521
   19CHTO   N14 7745   3.749   7.287   1.779 -0.2651 -0.1144 -0.0719
   19CHTO  H141 7746   3.797   7.195   1.753 -1.4741 -0.7366 -0.1381
   19CHTO  H142 7747   3.643   7.274   1.774 -0.5745  1.6553  1.2624
   19CHTO   C79 7748   3.696   7.371   2.020 -0.4784  0.1453  0.1981
   19CHTO  H151 7749   3.630   7.285   2.031  0.8616 -0.8849  0.3637
   19CHTO   O52 7750   3.757   7.418   2.142 -0.1012  0.3053 -0.3242
   19CHTO   C86 7751   3.867   7.519   2.120  0.6619  0.6056 -0.1625
   19CHTO  H158 7752   3.815   7.604   2.071 -1.0951 -1.1243 -1.3444
   19CHTO   C90 7753   3.897   7.571   2.260 -0.2201 -0.3858  0.0437
   19CHTO   O60 7754   4.000   7.675   2.252  0.1628  0.7592 -0.0548
   19CHTO  H138 7755   3.958   7.759   2.256  0.4779  0.8689  1.2172
   19CHTO   O50 7756   3.601   7.464   1.968 -0.1146  0.0993 -0.3395
   19CHTO   C73 7757   3.465   7.521   1.980 -0.4111 -0.1379  0.1061
   19CHTO  H145 7758   3.398   7.452   2.033  1.3500 -1.7724  0.2906
   19CHTO   C74 7759   3.412   7.546   1.834  0.4103 -0.2057  0.3903
   19CHTO  H146 7760   3.392   7.450   1.783 -0.8264  0.7258 -0.9138
   19CHTO   O54 7761   3.279   7.609   1.838 -0.1031 -0.2007  0.0495
   19CHTO  H133 7762   3.220   7.570   1.899  1.2287  0.1545  1.5892
   19CHTO   C75 7763   3.510   7.638   1.752  1.0828  0.0781  0.0442
   19CHTO  H147 7764   3.610   7.594   1.744  1.8813  1.8838 -0.2369
   19CHTO   N13 7765   3.468   7.667   1.611  0.4652 -0.4984 -0.5724
   19CHTO  H139 7766   3.364   7.652   1.588 -0.6769  2.8290  2.0379
   19CHTO  H140 7767   3.499   7.767   1.584  0.9754  0.0708  2.0570
   19CHTO   C76 7768   3.524   7.778   1.838  0.3902  0.1632  0.7399
   19CHTO  H148 7769   3.435   7.841   1.834 -0.4067 -1.0237 -0.4369
   19CHTO   O49 7770   3.550   7.745   1.982 -0.1190 -0.4117  0.1276
   19CHTO   C77 7771   3.468   7.660   2.053 -0.3808  0.1156  0.1845
   19CHTO  H149 7772   3.366   7.697   2.062 -1.0950 -0.9553 -2.7511
   19CHTO   C88 7773   3.526   7.644   2.200  0.4309 -0.2296  0.3138
   19CHTO   O58 7774   3.425   7.570   2.284 -0.2090  0.1161  0.0662
   19CHTO  H136 7775   3.382   7.635   2.336 -0.3058 -0.4835  0.7256
   19CHTO   O51 7776   3.674   7.867   1.791 -0.1596 -0.1364  0.8599
   19CHTO   C78 7777   3.654   8.030   1.848  0.8079 -1.0576  0.5670
   19CHTO  H150 7778   3.573   8.036   1.923 -0.0891  0.0615 -0.4822
   19CHTO   C80 7779   3.621   8.140   1.739 -0.4338 -0.2009  0.1439
   19CHTO  H152 7780   3.707   8.146   1.668 -0.8656  1.7400 -0.2574
   19CHTO   O55 7781   3.501   8.094   1.681  0.4933 -0.0317  0.0794
   19CHTO  H134 7782   3.480   8.139   1.602 -1.4627  0.2660  0.7346
   19CHTO   C84 7783   3.610   8.289   1.798  0.8402  0.7307 -0.2542
   19CHTO  H156 7784   3.527   8.285   1.868  0.2129  2.1200 -0.9008
   19CHTO   N15 7785   3.574   8.388   1.699  0.2216  0.0533 -0.0235
   19CHTO  H143 7786   3.667   8.420   1.658  0.1647  1.0046  0.5825
   19CHTO  H144 7787   3.530   8.472   1.750  1.2630  0.5925  0.0002
   19CHTO   C87 7788   3.746   8.318   1.869 -0.2806  0.4974  0.4104
   19CHTO  H159 7789   3.824   8.320   1.793 -2.6146 -0.1963 -2.0676
   19CHTO   O53 7790   3.767   8.202   1.977 -0.2925 -0.5051 -0.4256
   19CHTO   C82 7791   3.790   8.071   1.912 -0.2360  0.2077 -0.2471
   19CHTO  H154 7792   3.876   8.087   1.847  0.5036  0.6113  0.8224
   19CHTO   C89 7793   3.832   7.958   2.017  0.7679 -0.6469  0.4068
   19CHTO   O59 7794   3.946   8.000   2.091  0.4921 -0.0763  0.1587
   19CHTO  H137 7795   3.993   7.921   2.112  0.0853 -0.5813 -0.7775
   19CHTO   O45 7796   3.750   8.453   1.962  0.2194  0.0781  0.1500
   19CHTO   C67 7797   3.652   8.475   2.067 -0.4526  0.1798  1.0549
   19CHTO  H124 7798   3.555   8.457   2.021 -0.0136 -1.5007  0.7471
   19CHTO   C65 7799   3.665   8.383   2.190  0.1448  0.4747  0.2592
   19CHTO  H122 7800   3.765   8.339   2.187 -0.6753 -1.2847 -1.8457
   19CHTO   O44 7801   3.564   8.281   2.171 -0.1631 -0.1461 -0.3321
   19CHTO  H102 7802   3.594   8.202   2.130  0.6982  0.0846 -0.1592
   19CHTO   C63 7803   3.657   8.450   2.331 -0.4645  0.2241 -0.3923
   19CHTO  H120 7804   3.744   8.513   2.343 -2.5250  3.4729 -1.7472
   19CHTO   N11 7805   3.659   8.360   2.453 -0.0730 -0.0557  0.8217
   19CHTO  H108 7806   3.754   8.311   2.457 -1.7845 -3.6725 -0.6791
   19CHTO  H109 7807   3.580   8.289   2.447  2.0557 -2.6431  2.1031
   19CHTO   C61 7808   3.545   8.555   2.328  0.3742 -0.2342  0.4629
   19CHTO  H118 7809   3.544   8.612   2.422  0.8731  0.0013  0.3274
   19CHTO   O40 7810   3.560   8.656   2.218  0.3106 -0.4274 -0.6023
   19CHTO   C68 7811   3.656   8.630   2.109 -0.5792  0.1720 -0.0048
   19CHTO  H125 7812   3.752   8.673   2.143  0.6813 -0.4631 -2.6188
   19CHTO   C72 7813   3.612   8.718   1.994 -0.2849 -0.4550 -0.4625
   19CHTO   O48 7814   3.477   8.706   1.956  0.1209 -0.1015  1.0267
   19CHTO  H105 7815   3.453   8.617   1.973  0.8576  0.0320  2.7864
   19CHTO   O38 7816   3.412   8.502   2.301 -0.2017 -0.5336  0.3289
   19CHTO   C55 7817   3.297   8.584   2.320  0.2785  0.1490  0.0704
   19CHTO  H112 7818   3.330   8.687   2.302 -2.4826  0.9562 -0.6151
   19CHTO   C56 7819   3.229   8.569   2.463  0.0966  0.4524 -0.7302
   19CHTO  H113 7820   3.215   8.460   2.468  0.3525  0.4370 -0.3464
   19CHTO   O42 7821   3.326   8.608   2.563 -0.5119 -0.1198 -0.7584
   19CHTO  H100 7822   3.303   8.595   2.653  3.2007  1.7353  0.5904
   19CHTO   C57 7823   3.088   8.652   2.476 -0.0028 -0.1883  0.1230
   19CHTO  H114 7824   3.109   8.758   2.485 -1.9475  0.2064  0.1642
   19CHTO   N10 7825   3.014   8.611   2.597  0.5835  0.4179 -0.3951
   19CHTO  H106 7826   2.907   8.624   2.588  0.5831  0.3491 -0.4917
   19CHTO  H107 7827   3.046   8.665   2.684 -4.9368  2.2446  0.7132
   19CHTO   C58 7828   3.006   8.630   2.351  0.6362  0.4295  0.0527
   19CHTO  H115 7829   2.963   8.528   2.351 -2.7676  1.7719 -1.0008
   19CHTO   O37 7830   3.094   8.653   2.242  0.0273  0.2418  0.5486
   19CHTO   C59 7831   3.189   8.547   2.215  0.5773 -0.3047  0.0536
   19CHTO  H116 7832   3.149   8.447   2.234  1.8927 -0.9885 -0.6654
   19CHTO   C70 7833   3.232   8.547   2.065 -0.2743 -0.6815  0.3393
   19CHTO   O46 7834   3.298   8.425   2.033  0.0944 -0.2702 -0.0564
   19CHTO  H103 7835   3.352   8.440   1.958  1.0504 -0.2893  0.6238
   19CHTO   O39 7836   2.882   8.747   2.329  0.4819 -0.3870 -0.2636
   19CHTO   C60 7837   2.827   8.766   2.199  0.7012  0.0162 -0.1679
   19CHTO  H117 7838   2.895   8.723   2.125 -1.9349 -1.7716 -1.6360
   19CHTO   C62 7839   2.690   8.695   2.183 -0.1994 -0.2553  0.4150
   19CHTO  H119 7840   2.723   8.589   2.196 -0.5546 -0.6030 -1.3508
   19CHTO   O43 7841   2.597   8.717   2.284 -0.3300 -0.3810 -0.3171
   19CHTO  H101 7842   2.516   8.690   2.246 -0.2828  0.6108 -1.1525
   19CHTO   C66 7843   2.641   8.719   2.027  0.2017 -0.2450 -0.2254
   19CHTO  H123 7844   2.720   8.684   1.960 -0.3245  0.7600 -1.3841
   19CHTO   N12 7845   2.525   8.630   2.002 -0.1254 -0.2193  0.2865
   19CHTO  H110 7846   2.495   8.643   1.899  0.5939 -0.6691  0.0168
   19CHTO  H111 7847   2.449   8.640   2.078  0.2955 -0.5585  0.7579
   19CHTO   C69 7848   2.623   8.872   2.010  0.0003  0.1773 -0.2226
   19CHTO  H126 7849   2.540   8.916   2.069  0.5921  1.7026 -0.5073
   19CHTO   O41 7850   2.764   8.955   2.050 -0.9386 -0.1946  0.2364
   19CHTO   C64 7851   2.820   8.920   2.170  0.2016 -0.1452 -0.3211
   19CHTO  H121 7852   2.754   8.977   2.238  0.5659  2.1523 -1.8263
   19CHTO   C71 7853   2.961   8.986   2.167  0.1523 -0.1619  0.1245
   19CHTO   O47 7854   3.021   8.988   2.302  0.2839  0.0364 -0.2038
   19CHTO  H104 7855   3.068   8.907   2.310  1.1525  0.6566  1.0689
   19CHTO   O34 7856   2.576   8.904   1.860  0.2930 -0.2346  0.5823
   19CHTO   C49 7857   2.668   8.935   1.740 -0.2037 -0.7016  0.0564
   19CHTO   H91 7858   2.691   9.041   1.737  2.0430 -1.1358  1.2141
   19CHTO   C47 7859   2.599   8.897   1.612 -0.0127 -0.1490 -0.0992
   19CHTO   H89 7860   2.672   8.913   1.529  0.5356  1.7977  0.7225
   19CHTO   O33 7861   2.487   8.993   1.597  0.6691  0.5077  0.4817
   19CHTO   H70 7862   2.424   8.946   1.545  0.3914  0.5976  0.7317
   19CHTO   C45 7863   2.557   8.743   1.618  0.6072 -0.0105 -0.1223
   19CHTO   H87 7864   2.498   8.732   1.710  1.9829  0.4353  0.8330
   19CHTO    N8 7865   2.477   8.701   1.501 -0.4911  0.2391 -0.1486
   19CHTO   H75 7866   2.446   8.774   1.428 -1.4023 -1.1989 -1.2472
   19CHTO   H76 7867   2.389   8.651   1.539  0.0854 -0.8629 -0.2407
   19CHTO   C43 7868   2.692   8.644   1.638  0.0039  0.4937  0.0142
   19CHTO   H85 7869   2.658   8.543   1.662 -2.4467  1.5384  1.0376
   19CHTO   O29 7870   2.777   8.699   1.744  0.1497  1.0288  0.7015
   19CHTO   C50 7871   2.798   8.845   1.750  0.0929  0.1765 -0.0039
   19CHTO   H92 7872   2.842   8.865   1.849  0.4964 -0.6096 -0.0228
   19CHTO   C54 7873   2.912   8.908   1.657 -0.8336  0.0660 -0.1065
   19CHTO   O36 7874   3.039   8.859   1.692  0.1471 -0.1130  0.2769
   19CHTO   H72 7875   3.108   8.923   1.686  1.2202 -1.3222 -0.8024
   19CHTO   O27 7876   2.767   8.628   1.516  0.4011  0.0232  0.2910
   19CHTO   C37 7877   2.840   8.513   1.472 -0.4309  0.0196  0.6941
   19CHTO   H79 7878   2.797   8.422   1.515 -0.6157  0.7072  1.9900
   19CHTO   C38 7879   2.822   8.501   1.324 -0.2342  0.2677 -0.2998
   19CHTO   H80 7880   2.855   8.598   1.283  2.2511 -0.0269  0.9173
   19CHTO   O31 7881   2.684   8.468   1.299  0.3733  0.6288  0.0793
   19CHTO   H68 7882   2.646   8.551   1.278 -0.2157  0.0215 -1.3599
   19CHTO   C39 7883   2.912   8.389   1.258 -0.2412  0.2525  0.4764
   19CHTO   H81 7884   2.886   8.292   1.300  0.8840 -0.9335 -1.4979
   19CHTO    N7 7885   2.909   8.379   1.110  0.8247  0.1986 -0.3606
   19CHTO   H73 7886   3.004   8.341   1.077  1.1374  0.6403  0.0317
   19CHTO   H74 7887   2.894   8.477   1.068 -2.6337  0.1381  0.5328
   19CHTO   C40 7888   3.064   8.421   1.316  0.3947  0.3438  0.0011
   19CHTO   H82 7889   3.102   8.517   1.282  1.6064 -0.1855 -0.1647
   19CHTO   O26 7890   3.061   8.412   1.454  0.4274  0.1363  0.0549
   19CHTO   C41 7891   2.990   8.519   1.512 -0.2663  0.3248 -0.5929
   19CHTO   H83 7892   3.023   8.622   1.491 -0.4047  0.5150  0.1153
   19CHTO   C52 7893   3.014   8.505   1.662  0.5521  0.1968  0.3763
   19CHTO   O35 7894   3.155   8.492   1.704 -0.0055 -0.4669  0.2674
   19CHTO   H71 7895   3.209   8.447   1.643  0.9075  1.5225 -0.4175
   19CHTO   O28 7896   3.152   8.319   1.270 -0.0602 -0.0652 -0.4058
   19CHTO   C42 7897   3.300   8.309   1.285 -0.4759 -0.1093  0.4873
   19CHTO   H84 7898   3.324   8.351   1.383  0.9824  1.3675 -0.4704
   19CHTO   C44 7899   3.377   8.392   1.183  1.1446 -0.9845 -0.1265
   19CHTO   H86 7900   3.360   8.349   1.085 -0.1138 -1.6851  0.3980
   19CHTO   O32 7901   3.333   8.530   1.208  0.3870 -0.0157 -0.5198
   19CHTO   H69 7902   3.296   8.571   1.132  0.2347  1.2464  0.2202
   19CHTO   C48 7903   3.531   8.375   1.211 -0.2855 -0.7352  0.3295
   19CHTO   H90 7904   3.553   8.418   1.308 -0.0639  0.2569 -0.1484
   19CHTO    N9 7905   3.608   8.458   1.114  0.6144  0.0304 -0.3249
   19CHTO   H77 7906   3.598   8.426   1.011  3.0381  0.0527 -0.5803
   19CHTO   H78 7907   3.713   8.473   1.131 -0.0267  2.8898  1.3850
   19CHTO   C51 7908   3.573   8.228   1.205  0.0928  0.0049  0.1549
   19CHTO   H93 7909   3.563   8.183   1.106  0.0994  0.9173 -0.2601
   19CHTO   O30 7910   3.493   8.162   1.306 -0.7812 -0.1442  0.0699
   19CHTO   C46 7911   3.358   8.161   1.277  1.0819 -0.0213  0.2686
   19CHTO   H88 7912   3.335   8.125   1.177 -0.1951  0.3300  0.4269
   19CHTO   C53 7913   3.277   8.068   1.374  0.4649  0.0279 -0.1442
   19CHTO   O72 7914   3.304   7.930   1.369 -0.2868  0.0587 -0.2938
   19CHTO  H199 7915   3.256   7.888   1.437 -0.0894  1.7537  0.9139
   19CHTO   O22 7916   3.706   8.204   1.244 -0.0269 -0.3911  0.0812
   19CHTO   C31 7917   3.782   8.094   1.178  0.5551 -0.3549  0.2846
   19CHTO   H59 7918   3.709   8.015   1.154 -1.9172  1.5397  1.3648
   19CHTO   C29 7919   3.855   8.132   1.049 -0.0009  0.0841 -0.5966
   19CHTO   H57 7920   3.928   8.212   1.066 -0.0760 -0.0883  0.5483
   19CHTO   O21 7921   3.759   8.194   0.964  0.1963 -0.2894 -0.0711
   19CHTO   H37 7922   3.777   8.153   0.881  0.4009  2.1523 -1.2760
   19CHTO   C27 7923   3.934   8.012   0.987  0.1848  0.0067  0.0005
   19CHTO   H55 7924   3.868   7.929   0.956  0.9251 -1.0211  1.1432
   19CHTO    N5 7925   4.017   8.047   0.871  0.6721  0.2671  0.1686
   19CHTO   H43 7926   3.956   8.073   0.785 -1.4030  1.0488  1.8335
   19CHTO   H44 7927   4.077   8.130   0.905  1.3768  0.5814 -1.7777
   19CHTO   C25 7928   4.025   7.956   1.101 -0.1829 -0.1437  0.2668
   19CHTO   H53 7929   4.108   8.025   1.123 -0.0050  0.1161 -1.1382
   19CHTO   O17 7930   3.956   7.922   1.227 -0.5434 -0.4686 -0.5808
   19CHTO   C32 7931   3.884   8.035   1.281  0.4816 -0.5374 -0.6116
   19CHTO   H60 7932   3.958   8.113   1.299  0.3780 -0.7236  0.6931
   19CHTO   C36 7933   3.829   7.997   1.414  0.5691  0.1580  0.0802
   19CHTO   O25 7934   3.752   7.875   1.401 -0.2873  0.4288 -0.3173
   19CHTO   H40 7935   3.760   7.835   1.485  1.1143 -0.0708 -0.6851
   19CHTO   O15 7936   4.093   7.807   1.055 -0.5869 -0.4971 -0.2823
   19CHTO   C19 7937   4.142   7.720   0.943  0.4546 -0.3053 -0.0097
   19CHTO   H47 7938   4.098   7.773   0.858 -0.3459 -1.0542 -0.0676
   19CHTO   C20 7939   4.296   7.719   0.917  0.2016 -0.1449  0.5438
   19CHTO   H48 7940   4.350   7.671   1.000 -2.2624  1.0754  2.8901
   19CHTO   O19 7941   4.345   7.854   0.915 -0.2590  0.1230 -0.2503
   19CHTO   H35 7942   4.354   7.885   0.827  0.1236  1.5778  0.2861
   19CHTO   C21 7943   4.337   7.636   0.785 -0.1230  0.2232 -0.0974
   19CHTO   H49 7944   4.297   7.688   0.698  1.4298 -0.6190 -1.3426
   19CHTO    N4 7945   4.487   7.628   0.767  0.0814  0.5201  0.7780
   19CHTO   H41 7946   4.532   7.724   0.786  0.6921  0.3211  0.3338
   19CHTO   H42 7947   4.500   7.606   0.662  0.8393  1.5282  0.6548
   19CHTO   C22 7948   4.265   7.501   0.788  0.0506  0.6559  0.3084
   19CHTO   H50 7949   4.302   7.448   0.876 -0.3631  0.4730  0.3753
   19CHTO   O14 7950   4.123   7.515   0.810 -0.0131  0.6588  0.5850
   19CHTO   C23 7951   4.094   7.572   0.934 -1.1986 -0.8983 -0.3905
   19CHTO   H51 7952   4.142   7.510   1.011 -1.3947  1.4485  1.6584
   19CHTO   C34 7953   3.945   7.561   0.955 -0.1795  0.0377  0.1941
   19CHTO   O23 7954   3.904   7.435   1.007 -0.2336  0.3152 -0.3752
   19CHTO   H38 7955   3.811   7.427   1.019 -0.5284  0.4615 -2.2813
   19CHTO   O16 7956   4.285   7.410   0.677 -0.0077 -0.1939  0.1859
   19CHTO   C24 7957   4.304   7.263   0.714 -0.7924 -0.0953  0.0813
   19CHTO   H52 7958   4.260   7.236   0.810 -1.0538 -0.2653 -0.0847
   19CHTO   C26 7959   4.456   7.242   0.730  0.1355  0.0709 -0.5280
   19CHTO   H54 7960   4.506   7.294   0.645 -0.1921  0.7311 -0.3129
   19CHTO   O20 7961   4.505   7.307   0.846 -0.2995 -0.0041  0.3276
   19CHTO   H36 7962   4.598   7.322   0.841  0.0202 -1.6773  1.1948
   19CHTO   C30 7963   4.496   7.090   0.731 -0.2525 -0.1610  0.5406
   19CHTO   H58 7964   4.490   7.055   0.834 -0.7558  1.0881  0.9516
   19CHTO    N6 7965   4.639   7.070   0.694  0.0222 -0.1885  0.3235
   19CHTO   H45 7966   4.644   7.105   0.592  0.0005  0.5902  0.5862
   19CHTO   H46 7967   4.700   7.138   0.752  1.0106 -2.0946  1.5826
   19CHTO   C33 7968   4.410   6.995   0.641 -0.1784 -0.5362  0.6588
   19CHTO   H61 7969   4.446   7.002   0.537  0.7948  1.3522  1.0995
   19CHTO   O18 7970   4.271   7.038   0.650 -0.4575  0.1079  0.2559
   19CHTO   C28 7971   4.242   7.171   0.611  0.5500  0.1096  0.2404
   19CHTO   H56 7972   4.284   7.196   0.513 -0.5495  0.2769 -0.1941
   19CHTO   C35 7973   4.099   7.205   0.622  0.5246 -0.1489  0.0768
   19CHTO   O24 7974   4.036   7.160   0.501 -0.2826 -0.0855 -0.3232
   19CHTO   H39 7975   3.981   7.222   0.457  0.0319  1.0109  0.8180
   19CHTO    O9 7976   4.426   6.856   0.674 -0.2849  0.6293 -0.1529
   19CHTO   C13 7977   4.351   6.747   0.582  0.5481  0.7053 -0.1293
   19CHTO   H26 7978   4.347   6.784   0.477 -1.0883  1.6407  0.2458
   19CHTO   C11 7979   4.201   6.720   0.634 -0.4501  0.1596  0.1215
   19CHTO   H24 7980   4.145   6.815   0.635  2.1526  1.7602 -1.4698
   19CHTO    O8 7981   4.207   6.697   0.774  0.1493 -0.1144  0.3184
   19CHTO    H3 7982   4.262   6.624   0.794 -1.6591 -1.5183  0.3055
   19CHTO    C9 7983   4.140   6.612   0.546  0.5721  0.0618 -0.1251
   19CHTO   H22 7984   4.143   6.645   0.441 -2.5981 -1.7744 -0.8632
   19CHTO    N2 7985   3.997   6.588   0.589  0.4751  0.0358  0.3671
   19CHTO   H10 7986   3.949   6.518   0.522 -0.9034  0.3065  1.0485
   19CHTO   H11 7987   3.948   6.684   0.584 -1.2514 -0.7452  1.6549
   19CHTO    C7 7988   4.227   6.474   0.549 -0.1699  0.2598 -0.0454
   19CHTO   H20 7989   4.199   6.412   0.462  0.6644  0.2569 -0.3199
   19CHTO    O4 7990   4.367   6.503   0.516  0.3285 -0.2766  0.2484
   19CHTO   C14 7991   4.439   6.614   0.573 -0.7327 -0.0719 -0.1254
   19CHTO   H27 7992   4.521   6.656   0.511 -2.3742  2.1748 -0.8247
   19CHTO   C18 7993   4.501   6.574   0.708  0.8326  0.3702  0.0593
   19CHTO   O13 7994   4.591   6.464   0.687  0.0188 -0.0178 -0.1445
   19CHTO    H7 7995   4.676   6.497   0.666  1.5380 -2.4726  1.7461
   19CHTO    O2 7996   4.213   6.397   0.695 -0.3345 -0.4341  0.3634
   19CHTO    C1 7997   4.176   6.260   0.698  0.1678  0.1176  0.6253
   19CHTO   H14 7998   4.170   6.221   0.594  2.4781 -2.4558  1.4112
   19CHTO    C2 7999   4.033   6.236   0.773 -0.2416  0.0984 -0.1446
   19CHTO   H15 8000   4.054   6.265   0.876  1.3916 -1.0510 -0.1293
   19CHTO    O6 8001   3.927   6.314   0.717 -0.2028 -0.0146  0.0908
   19CHTO    H1 8002   3.854   6.297   0.772  0.3895  0.9745  1.2153
   19CHTO    C3 8003   4.004   6.076   0.761  0.5005  0.2091 -0.7003
   19CHTO   H16 8004   4.005   6.060   0.652 -2.3219 -1.4850 -0.5021
   19CHTO    N1 8005   3.873   6.037   0.819  0.2719  0.3343  0.3949
   19CHTO    H8 8006   3.811   6.121   0.849  0.9048 -0.2872  3.5832
   19CHTO    H9 8007   3.826   5.961   0.759  1.1733  0.6197 -0.6902
   19CHTO    C4 8008   4.127   5.988   0.828 -0.0015  0.2765 -0.6160
   19CHTO   H17 8009   4.130   6.014   0.933 -2.1297 -0.9862 -0.2137
   19CHTO    O1 8010   4.255   6.029   0.770  0.2526  0.1213 -0.0316
   19CHTO    C5 8011   4.288   6.172   0.773 -0.3890  0.2229  0.2374
   19CHTO   H18 8012   4.288   6.212   0.874  0.7496 -1.2060  0.8294
   19CHTO   C16 8013   4.428   6.189   0.727  0.9246 -0.1333  0.4746
   19CHTO   O11 8014   4.523   6.117   0.805 -0.1022  0.4940  0.1317
   19CHTO    H5 8015   4.611   6.143   0.785 -0.3799 -0.0296 -1.8168
   19CHTO    O3 8016   4.116   5.850   0.795  0.4525 -0.1855 -0.2098
   19CHTO    C6 8017   4.135   5.750   0.899  0.0780 -0.1767  0.0760
   19CHTO   H19 8018   4.182   5.791   0.989  0.5247  1.1843 -0.7635
   19CHTO    C8 8019   3.995   5.685   0.937 -0.0209  0.2367  0.2872
   19CHTO   H21 8020   3.939   5.671   0.844  0.3200  2.7395 -0.3400
   19CHTO    O7 8021   3.932   5.780   1.014 -0.2022  0.2504  0.3527
   19CHTO    H2 8022   3.839   5.781   0.999  0.0374  0.1477 -1.2618
   19CHTO   C12 8023   4.009   5.549   1.025 -0.5395  0.9653 -0.3112
   19CHTO   H25 8024   4.047   5.584   1.124 -2.1600  0.0901  0.6573
   19CHTO    N3 8025   3.883   5.475   1.054  0.7571 -0.7912  0.0760
   19CHTO   H12 8026   3.885   5.385   0.995  0.6097  0.8645 -2.5054
   19CHTO   H13 8027   3.905   5.447   1.156 -2.7114 -2.6410  0.4017
   19CHTO   C15 8028   4.119   5.457   0.962 -0.1371 -0.4574 -0.3602
   19CHTO   H28 8029   4.081   5.402   0.876 -0.1417  1.7943 -1.8377
   19CHTO   O10 8030   4.191   5.359   1.069  0.1924  0.0396  0.2526
   19CHTO    H4 8031   4.153   5.373   1.153  1.5610  2.2046  0.5617
   19CHTO    O5 8032   4.241   5.527   0.931  0.1330 -0.4736 -0.2359
   19CHTO   C10 8033   4.232   5.637   0.843 -0.2858 -0.4885 -0.2714
   19CHTO   H23 8034   4.197   5.596   0.749  1.2382 -0.1284 -1.0148
   19CHTO   C17 8035   4.371   5.698   0.815 -0.0279  0.4394  0.2872
   19CHTO   O12 8036   4.448   5.607   0.739 -0.1358 -0.5234 -0.3313
   19CHTO    H6 8037   4.403   5.526   0.726 -1.9731  0.6727 -1.7051
   20CHTO  H203 8038   4.737   0.796   2.253 -0.7857  0.9945 -2.1206
   20CHTO   O82 8039   4.828   0.820   2.248 -0.2014 -0.4150  0.5259
   20CHTO  C123 8040   4.834   0.956   2.206 -0.1857  0.4640 -0.3749
   20CHTO  H227 8041   4.791   1.018   2.285 -0.0247  0.8533 -0.5909
   20CHTO   O77 8042   4.981   0.970   2.216  0.1412 -0.0867  0.2846
   20CHTO  C118 8043   5.029   1.101   2.182 -0.3432  0.5994  0.1699
   20CHTO  H222 8044   4.975   1.178   2.240  0.7568  0.5178  1.3234
   20CHTO  C125 8045   5.184   1.103   2.219 -0.0369 -0.0831 -0.1490
   20CHTO   O84 8046   5.199   1.091   2.363 -0.0216  0.0022  0.2837
   20CHTO  H205 8047   5.135   1.033   2.402  0.1247 -0.9632 -0.8566
   20CHTO  C114 8048   5.000   1.132   2.035  0.1950 -1.2212 -0.0167
   20CHTO  H218 8049   5.041   1.053   1.972  1.3171  2.0964 -3.6412
   20CHTO  C116 8050   4.845   1.120   2.006  0.2405  0.2075 -0.1896
   20CHTO  H220 8051   4.794   1.198   2.066 -2.9762 -2.6312  0.9310
   20CHTO   O79 8052   4.826   1.145   1.867 -0.0199  0.2593  0.3868
   20CHTO  H201 8053   4.857   1.230   1.843  1.0378 -0.0893  0.4839
   20CHTO  C120 8054   4.784   0.979   2.058 -0.0848  0.0056 -0.1077
   20CHTO  H224 8055   4.811   0.901   1.985 -0.6153 -1.3874  1.1458
   20CHTO   N21 8056   4.636   0.982   2.046  0.0420 -0.6851 -0.1368
   20CHTO  H211 8057   4.592   1.020   2.137 -1.5928  0.3027 -1.3058
   20CHTO  H212 8058   4.599   1.037   1.960 -0.4861  0.4089  0.7777
   20CHTO   O75 8059   5.055   1.257   1.997 -0.0681 -0.0459 -0.2650
   20CHTO  C112 8060   5.165   1.266   1.881 -0.1991 -0.1823 -0.5503
   20CHTO  H216 8061   5.170   1.172   1.825  0.8716  1.0058 -2.5199
   20CHTO   O73 8062   5.291   1.296   1.945  0.4576  0.2839  0.1074
   20CHTO  C113 8063   5.405   1.290   1.857 -0.0684 -0.9199 -0.3037
   20CHTO  H217 8064   5.400   1.196   1.797 -0.5456 -0.5629 -0.8242
   20CHTO  C124 8065   5.531   1.297   1.948 -0.4338  0.5127  0.0568
   20CHTO   O83 8066   5.651   1.257   1.884  0.2634 -0.1249  0.0896
   20CHTO  H204 8067   5.635   1.166   1.865  1.2732 -0.0386 -1.2479
   20CHTO  C109 8068   5.390   1.410   1.764  0.4280 -0.7715 -0.0418
   20CHTO  H213 8069   5.389   1.502   1.824 -2.0195  0.0659 -1.2906
   20CHTO  C110 8070   5.251   1.405   1.681 -0.6018 -0.1925 -0.2516
   20CHTO  H214 8071   5.247   1.315   1.620  2.8574 -0.4005 -0.3012
   20CHTO   O78 8072   5.230   1.518   1.593 -1.0306  0.2346  0.3611
   20CHTO  H200 8073   5.279   1.515   1.513  0.1371 -0.8130  1.1068
   20CHTO  C111 8074   5.133   1.394   1.783 -1.0492 -0.3735  0.1659
   20CHTO  H215 8075   5.128   1.487   1.841  1.1944  1.7090 -2.8056
   20CHTO   N19 8076   5.005   1.378   1.723 -0.2312  0.6831  0.2548
   20CHTO  H207 8077   5.003   1.433   1.630 -0.3610  2.2577  1.1738
   20CHTO  H208 8078   4.917   1.405   1.780 -0.3145 -0.2370  0.5685
   20CHTO   O74 8079   5.503   1.409   1.675 -0.0059  0.1148  0.3055
   20CHTO  C115 8080   5.629   1.537   1.691  0.8554  0.3230 -0.7565
   20CHTO  H219 8081   5.601   1.603   1.774 -0.9556 -1.8667  0.4490
   20CHTO   O76 8082   5.760   1.478   1.731  0.1786 -0.3607  0.1904
   20CHTO  C122 8083   5.874   1.565   1.723 -0.3130 -0.1134  0.5058
   20CHTO  H226 8084   5.955   1.492   1.727  1.1880  1.5315  1.3568
   20CHTO  C126 8085   5.886   1.647   1.852  0.1059 -0.5862  0.4392
   20CHTO   O85 8086   6.000   1.734   1.847 -0.1242 -0.1669  0.5420
   20CHTO  H206 8087   6.079   1.686   1.860 -0.0941 -0.3511 -0.2773
   20CHTO  C121 8088   5.876   1.647   1.586  0.1199  0.2001  0.0120
   20CHTO  H225 8089   5.954   1.726   1.594 -2.0978  2.3286  1.7215
   20CHTO   O81 8090   5.908   1.551   1.481  0.4959 -0.4165  0.1214
   20CHTO  H202 8091   5.847   1.480   1.487 -0.6049  0.4688 -0.3304
   20CHTO  C119 8092   5.751   1.724   1.545  0.5629 -0.4269 -0.5933
   20CHTO  H223 8093   5.742   1.802   1.620  0.6113 -0.9174 -0.0730
   20CHTO  C117 8094   5.626   1.632   1.562  0.6521 -0.3754  0.6132
   20CHTO  H221 8095   5.628   1.561   1.479  1.2320 -1.2172  1.3499
   20CHTO   N20 8096   5.491   1.711   1.544 -1.1144  0.2542  0.2620
   20CHTO  H209 8097   5.483   1.753   1.446  0.9478 -0.8025 -0.3877
   20CHTO  H210 8098   5.489   1.793   1.614 -0.7094 -0.5843  1.2875
   20CHTO   O80 8099   5.762   1.817   1.401 -0.2282  0.2516  0.0108
   20CHTO  C103 8100   5.763   1.758   1.243  0.5479 -0.4701 -0.0018
   20CHTO  H190 8101   5.857   1.746   1.190  0.2822  1.2624 -0.9307
   20CHTO  C101 8102   5.671   1.636   1.198 -0.6709 -0.2410  0.4872
   20CHTO  H188 8103   5.573   1.656   1.241 -0.4079  0.8352  0.5875
   20CHTO   O68 8104   5.735   1.518   1.252  0.1506 -0.5474 -0.4760
   20CHTO  H168 8105   5.675   1.451   1.278  0.8579  0.1668  3.2712
   20CHTO   C99 8106   5.654   1.617   1.041 -0.0762  0.3040  0.6405
   20CHTO  H186 8107   5.751   1.593   0.993  0.1131  0.8703  0.7358
   20CHTO   N17 8108   5.559   1.515   0.991  0.0176 -0.6136 -0.1396
   20CHTO  H174 8109   5.520   1.457   1.073  1.1834 -3.4205 -1.5150
   20CHTO  H175 8110   5.497   1.547   0.909 -0.1496 -1.1652 -0.2273
   20CHTO   C97 8111   5.607   1.755   0.983 -0.0741  0.9274  0.0180
   20CHTO  H184 8112   5.501   1.772   1.005  0.2572 -0.0042  2.5724
   20CHTO   O64 8113   5.687   1.860   1.028  0.1275 -0.7724  0.0791
   20CHTO  C104 8114   5.687   1.881   1.171  0.3436  0.3642 -0.3549
   20CHTO  H191 8115   5.590   1.891   1.219  1.0267  3.3876  0.5205
   20CHTO  C108 8116   5.758   2.016   1.203 -0.9670 -0.1269  0.1067
   20CHTO   O71 8117   5.695   2.119   1.129 -0.2230 -0.5654 -0.1805
   20CHTO  H171 8118   5.718   2.207   1.150 -1.1600  0.0256 -1.5284
   20CHTO   O62 8119   5.634   1.770   0.844  0.2493  0.2921  0.0988
   20CHTO   C91 8120   5.551   1.863   0.768 -0.1330 -0.7042 -0.0142
   20CHTO  H178 8121   5.506   1.937   0.835 -0.4440 -1.2982  0.4408
   20CHTO   C92 8122   5.440   1.789   0.677 -0.5036  0.7656  0.3933
   20CHTO  H179 8123   5.504   1.720   0.620 -2.0856 -0.0970 -0.3967
   20CHTO   O66 8124   5.357   1.703   0.757 -0.1163 -0.3025  0.0831
   20CHTO  H166 8125   5.314   1.759   0.819 -1.2604 -0.5662 -0.4705
   20CHTO   C93 8126   5.355   1.879   0.586 -0.4387  0.5529  0.7122
   20CHTO  H180 8127   5.266   1.914   0.640 -1.5175  2.3071 -2.0883
   20CHTO   N16 8128   5.298   1.802   0.473  0.2516 -0.2676 -0.4226
   20CHTO  H172 8129   5.205   1.752   0.498  0.8336 -1.4196 -0.5214
   20CHTO  H173 8130   5.366   1.724   0.445  0.0587 -1.0476  1.2290
   20CHTO   C94 8131   5.440   2.009   0.539  0.6138 -0.8553  0.2189
   20CHTO  H181 8132   5.486   1.991   0.442 -0.9648 -1.7146 -0.3818
   20CHTO   O61 8133   5.539   2.053   0.629  0.1841  0.1297  0.0564
   20CHTO   C95 8134   5.630   1.947   0.668  0.0785 -0.7731  0.0991
   20CHTO  H182 8135   5.642   1.879   0.584 -0.6116  0.6841 -1.2146
   20CHTO  C106 8136   5.766   2.008   0.717 -0.7318  0.1131  0.5548
   20CHTO   O69 8137   5.856   1.896   0.731  0.0068  0.3311 -0.1664
   20CHTO  H169 8138   5.941   1.921   0.764 -0.5961  1.5953  0.4554
   20CHTO   O63 8139   5.352   2.115   0.531 -0.4249  0.2314  0.2183
   20CHTO   C96 8140   5.373   2.227   0.415 -0.3457 -0.1618 -0.1496
   20CHTO  H183 8141   5.371   2.171   0.322  0.7790 -2.0896  0.9637
   20CHTO   C98 8142   5.499   2.316   0.429 -0.2447  0.6701 -0.1838
   20CHTO  H185 8143   5.504   2.360   0.529  1.9722 -1.8193  0.8576
   20CHTO   O67 8144   5.618   2.222   0.431 -0.3607 -0.0024 -0.3316
   20CHTO  H167 8145   5.695   2.273   0.447 -1.5833  1.1833  2.0528
   20CHTO  C102 8146   5.501   2.426   0.318  0.1634  0.2067  0.7149
   20CHTO  H189 8147   5.523   2.374   0.223 -2.7840  0.3479 -0.0940
   20CHTO   N18 8148   5.611   2.529   0.332  0.6772  0.2472  1.0576
   20CHTO  H176 8149   5.706   2.480   0.322  1.1582  1.3140  0.2799
   20CHTO  H177 8150   5.608   2.578   0.429 -2.1715  1.5743  0.3594
   20CHTO  C105 8151   5.365   2.498   0.305 -0.4127  0.0177 -0.0205
   20CHTO  H192 8152   5.348   2.560   0.394  0.1364 -2.7875  2.1052
   20CHTO   O65 8153   5.258   2.409   0.296  0.0279 -0.1522  0.0491
   20CHTO  C100 8154   5.248   2.316   0.404  0.4452  0.8077  0.1897
   20CHTO  H187 8155   5.245   2.374   0.498  1.0582 -2.8443  2.6172
   20CHTO  C107 8156   5.103   2.240   0.390  0.3617  0.5704 -0.1793
   20CHTO   O70 8157   5.083   2.145   0.493  0.0290  0.1250 -0.2560
   20CHTO  H170 8158   4.996   2.111   0.490 -0.3934  1.1568 -0.0714
   20CHTO   O57 8159   5.367   2.587   0.175  0.6713 -0.1449 -0.1334
   20CHTO   C85 8160   5.285   2.704   0.156  0.1963  0.0489  0.4702
   20CHTO  H157 8161   5.254   2.750   0.252 -1.1040 -0.2413  0.2040
   20CHTO   C83 8162   5.150   2.671   0.088  0.0261  0.4771 -0.4057
   20CHTO  H155 8163   5.094   2.610   0.159  0.0897 -0.1781 -0.9109
   20CHTO   O56 8164   5.169   2.596  -0.037  0.1589  0.1184 -0.1469
   20CHTO  H135 8165   5.095   2.538  -0.045  0.9368 -0.6590 -1.8127
   20CHTO   C81 8166   5.071   2.805   0.071 -0.2210  0.3143 -0.1003
   20CHTO  H153 8167   5.067   2.854   0.169  0.6026  1.2354 -0.5287
   20CHTO   N14 8168   4.928   2.794   0.031 -0.4757  0.1301 -0.1275
   20CHTO  H141 8169   4.895   2.855  -0.050 -3.0643  0.1847  0.9105
   20CHTO  H142 8170   4.904   2.691   0.015 -1.5262  0.2534  0.6041
   20CHTO   C79 8171   5.155   2.901  -0.026  0.6114  0.3242 -0.7470
   20CHTO  H151 8172   5.103   2.997  -0.032  1.3122  0.6923 -0.8994
   20CHTO   O52 8173   5.281   2.930   0.036  0.0208  0.6649 -0.1124
   20CHTO   C86 8174   5.356   2.803   0.071 -0.1503 -1.0764  0.0594
   20CHTO  H158 8175   5.376   2.757  -0.028  0.8255 -1.1142  0.2693
   20CHTO   C90 8176   5.492   2.843   0.125  0.4288  0.0286 -0.2678
   20CHTO   O60 8177   5.480   2.910   0.246  0.1021 -0.0513 -0.2038
   20CHTO  H138 8178   5.465   3.001   0.228 -0.9301 -0.2245 -0.2826
   20CHTO   O50 8179   5.167   2.862  -0.165  0.3801 -0.3434  0.2004
   20CHTO   C73 8180   5.214   2.892  -0.292 -0.1461 -0.4491 -0.1901
   20CHTO  H145 8181   5.321   2.864  -0.292  0.2780  1.1135  0.4513
   20CHTO   C74 8182   5.196   3.049  -0.323  0.7019  0.0596  0.3780
   20CHTO  H146 8183   5.243   3.104  -0.240  0.6015  2.3668 -1.0329
   20CHTO   O54 8184   5.267   3.070  -0.440  0.1768  0.0844  0.0651
   20CHTO  H133 8185   5.338   3.011  -0.459  0.7862  0.6695  0.5119
   20CHTO   C75 8186   5.045   3.071  -0.333 -0.4955 -0.0696  0.3371
   20CHTO  H147 8187   4.999   3.037  -0.239 -3.0740  0.3713 -0.7098
   20CHTO   N13 8188   5.016   3.218  -0.353 -0.0652  0.4044  0.1770
   20CHTO  H139 8189   4.931   3.246  -0.292  1.0941  0.5081  1.7672
   20CHTO  H140 8190   5.005   3.245  -0.457 -3.1564 -0.8358  0.1225
   20CHTO   C76 8191   4.979   2.979  -0.438 -0.3369  0.4887 -0.4415
   20CHTO  H148 8192   5.020   3.007  -0.535 -1.4550 -0.9521 -1.3603
   20CHTO   O49 8193   5.011   2.840  -0.410  0.1820 -0.4055  0.3500
   20CHTO   C77 8194   5.149   2.817  -0.409  0.4208 -0.3740  0.0650
   20CHTO  H149 8195   5.187   2.855  -0.504 -0.0819 -1.5945 -0.6514
   20CHTO   C88 8196   5.168   2.665  -0.409 -0.8333 -0.4623 -0.4221
   20CHTO   O58 8197   5.123   2.596  -0.526  0.1918  0.2861 -0.2261
   20CHTO  H136 8198   5.133   2.502  -0.526 -1.4541 -0.0535  5.0768
   20CHTO   O51 8199   4.804   2.991  -0.434 -0.2325 -0.1536 -0.8569
   20CHTO   C78 8200   4.723   2.882  -0.316 -0.0967 -0.9806 -0.0368
   20CHTO  H150 8201   4.787   2.847  -0.233  0.0237  0.7244  0.6078
   20CHTO   C80 8202   4.668   2.760  -0.390  0.6307 -0.4001  0.1332
   20CHTO  H152 8203   4.605   2.800  -0.472  0.4726 -1.4149 -0.2420
   20CHTO   O55 8204   4.779   2.685  -0.436  0.4770  0.3033 -0.2362
   20CHTO  H134 8205   4.826   2.660  -0.358  0.1562  1.0847  0.2214
   20CHTO   C84 8206   4.579   2.666  -0.289  0.7120  0.6640 -0.1899
   20CHTO  H156 8207   4.641   2.630  -0.206 -0.5253 -1.3566 -0.0920
   20CHTO   N15 8208   4.521   2.542  -0.351  1.0574  0.1574  0.1482
   20CHTO  H143 8209   4.597   2.466  -0.350  1.2085  0.2818 -1.2692
   20CHTO  H144 8210   4.433   2.507  -0.301  0.0374  2.9630  0.4147
   20CHTO   C87 8211   4.468   2.747  -0.211  0.6342 -0.0722  0.7744
   20CHTO  H159 8212   4.391   2.774  -0.283  0.4766 -0.6852  0.7096
   20CHTO   O53 8213   4.523   2.878  -0.152  0.3851 -0.3271 -0.5894
   20CHTO   C82 8214   4.603   2.955  -0.245  0.0721 -0.2322 -0.4951
   20CHTO  H154 8215   4.541   2.995  -0.324  1.5843  1.3221 -0.9418
   20CHTO   C89 8216   4.665   3.083  -0.168 -0.0971  0.6839  0.0506
   20CHTO   O59 8217   4.757   3.050  -0.060  0.3634  0.3629  0.4700
   20CHTO  H137 8218   4.813   3.120  -0.034  0.5402  0.3625  0.1025
   20CHTO   O45 8219   4.386   2.645  -0.099 -0.7685  0.5418  0.4594
   20CHTO   C67 8220   4.442   2.662   0.034 -0.7829 -0.0892  0.0553
   20CHTO  H124 8221   4.549   2.674   0.023 -0.9705  0.2229 -1.6109
   20CHTO   C65 8222   4.380   2.767   0.132  0.3707  0.2760 -0.2952
   20CHTO  H122 8223   4.308   2.832   0.082 -0.0754 -0.5587 -0.7461
   20CHTO   O44 8224   4.486   2.856   0.182 -0.6936 -0.2300 -0.4318
   20CHTO  H102 8225   4.550   2.805   0.227  0.3792  1.3083 -0.1928
   20CHTO   C63 8226   4.293   2.701   0.240 -0.9428 -0.2762  0.1254
   20CHTO  H120 8227   4.214   2.649   0.187  0.0114  0.2792 -1.8786
   20CHTO   N11 8228   4.209   2.801   0.320  0.3700  0.0597 -0.4956
   20CHTO  H108 8229   4.151   2.846   0.243 -2.2508 -0.0283  1.3496
   20CHTO  H109 8230   4.277   2.877   0.351  0.8691 -0.2357 -0.8395
   20CHTO   C61 8231   4.380   2.605   0.330  0.6670 -0.1269  0.3152
   20CHTO  H118 8232   4.309   2.552   0.396 -0.8979 -0.3398 -1.5171
   20CHTO   O40 8233   4.445   2.510   0.244 -1.1776  0.5023  0.0932
   20CHTO   C68 8234   4.431   2.516   0.100 -0.1902  0.5599 -0.7307
   20CHTO  H125 8235   4.332   2.473   0.074 -0.0074 -0.1663 -0.2221
   20CHTO   C72 8236   4.536   2.409   0.047  0.9822 -0.0469 -0.2799
   20CHTO   O48 8237   4.648   2.445  -0.023 -0.2467 -0.6876  0.2610
   20CHTO  H105 8238   4.633   2.512  -0.087 -1.6276 -0.3279  0.9313
   20CHTO   O38 8239   4.468   2.681   0.403 -0.5387 -0.6345 -0.1357
   20CHTO   C55 8240   4.519   2.635   0.523  0.2486  0.2435 -0.0905
   20CHTO  H112 8241   4.501   2.530   0.552 -2.4865  0.2144 -1.7741
   20CHTO   C56 8242   4.469   2.735   0.639  0.9439 -0.0588 -0.1282
   20CHTO  H113 8243   4.492   2.834   0.597  4.1659 -0.5379  0.3708
   20CHTO   O42 8244   4.330   2.730   0.660 -0.1833  0.1994 -0.7376
   20CHTO  H100 8245   4.308   2.642   0.636  2.6490 -0.6309 -0.5261
   20CHTO   C57 8246   4.544   2.705   0.772  0.3772  0.4640  0.0542
   20CHTO  H114 8247   4.490   2.619   0.811  1.8173 -0.8882 -0.8956
   20CHTO   N10 8248   4.542   2.810   0.882 -0.1870  0.3756  0.2369
   20CHTO  H106 8249   4.456   2.797   0.946 -0.9542 -0.7953 -0.9970
   20CHTO  H107 8250   4.634   2.802   0.937 -1.1519  2.9451  2.3216
   20CHTO   C58 8251   4.692   2.660   0.757  0.3599  0.8128  0.1495
   20CHTO  H115 8252   4.755   2.751   0.764 -0.9223  1.7313  0.0176
   20CHTO   O37 8253   4.717   2.580   0.644  0.3579  0.5069 -0.2524
   20CHTO   C59 8254   4.674   2.638   0.523  0.6435  0.2022 -1.0709
   20CHTO  H116 8255   4.714   2.739   0.522  0.4418  0.3040  0.5225
   20CHTO   C70 8256   4.738   2.560   0.407 -0.0601  0.8066 -0.4766
   20CHTO   O46 8257   4.741   2.635   0.292 -0.1509 -0.5336 -0.5085
   20CHTO  H103 8258   4.791   2.713   0.297 -0.9660  0.1206 -2.1884
   20CHTO   O39 8259   4.741   2.576   0.869  0.0827  0.1171  0.2023
   20CHTO   C60 8260   4.883   2.544   0.890 -0.3752  0.6729 -0.4676
   20CHTO  H117 8261   4.942   2.573   0.803 -0.5205  0.7490 -0.5407
   20CHTO   C62 8262   4.931   2.612   1.019 -0.6196 -0.0966  0.2353
   20CHTO  H119 8263   4.921   2.719   0.991 -1.3308 -0.6796 -1.8661
   20CHTO   O43 8264   4.839   2.570   1.126 -0.6668 -0.1454  0.5214
   20CHTO  H101 8265   4.849   2.640   1.187  0.5428 -0.6889  0.9880
   20CHTO   C66 8266   5.084   2.577   1.047  0.7293  0.2432 -0.2614
   20CHTO  H123 8267   5.139   2.597   0.955  0.1198 -0.1321 -0.7064
   20CHTO   N12 8268   5.150   2.650   1.159 -0.1945  0.4955  0.8415
   20CHTO  H110 8269   5.256   2.627   1.164 -0.2669 -0.4798 -1.6643
   20CHTO  H111 8270   5.139   2.755   1.134  1.5118  0.6318  0.5672
   20CHTO   C69 8271   5.090   2.427   1.075  0.2355 -0.3609  0.3656
   20CHTO  H126 8272   5.022   2.401   1.159 -0.6555  0.4676 -0.0921
   20CHTO   O41 8273   5.039   2.366   0.936 -0.5063  0.0238  0.3310
   20CHTO   C64 8274   4.898   2.392   0.902  0.0311 -0.1013 -0.2121
   20CHTO  H121 8275   4.832   2.351   0.980 -1.1627  0.2991 -1.0009
   20CHTO   C71 8276   4.872   2.317   0.772  0.2929  0.2239 -0.3318
   20CHTO   O47 8277   4.896   2.172   0.768 -0.6963 -0.3772  0.0123
   20CHTO  H104 8278   4.876   2.132   0.686 -0.4321 -0.2102 -0.1335
   20CHTO   O34 8279   5.234   2.349   1.093  0.1531 -0.1807  0.8905
   20CHTO   C49 8280   5.244   2.216   1.139  0.5147 -0.1984  0.1668
   20CHTO   H91 8281   5.155   2.171   1.094  0.8762 -1.3940  0.6455
   20CHTO   C47 8282   5.234   2.200   1.290  0.8429  0.7567 -0.3686
   20CHTO   H89 8283   5.125   2.190   1.308  1.2703 -3.1103  0.4238
   20CHTO   O33 8284   5.289   2.313   1.362 -0.0682  0.4359  0.2662
   20CHTO   H70 8285   5.226   2.382   1.364  1.2661  1.6183  1.9317
   20CHTO   C45 8286   5.309   2.054   1.327 -0.5784 -0.6661 -0.2871
   20CHTO   H87 8287   5.417   2.073   1.330 -0.6475  0.0218 -1.6796
   20CHTO    N8 8288   5.268   1.985   1.456  0.1714 -0.3563 -0.5935
   20CHTO   H75 8289   5.350   2.003   1.524  0.4090 -0.2526 -0.9085
   20CHTO   H76 8290   5.254   1.879   1.442  0.2383 -0.5152  0.4517
   20CHTO   C43 8291   5.301   1.946   1.204 -0.6570 -0.7528  0.3227
   20CHTO   H85 8292   5.362   1.861   1.238  1.8210  0.5950 -0.6397
   20CHTO   O29 8293   5.354   2.002   1.080 -0.1436 -0.0208  0.0154
   20CHTO   C50 8294   5.370   2.147   1.072  0.4285  0.1264  0.4982
   20CHTO   H92 8295   5.465   2.183   1.113  1.8131 -0.8920 -1.7246
   20CHTO   C54 8296   5.374   2.194   0.925 -0.9908 -0.3735  0.0329
   20CHTO   O36 8297   5.264   2.144   0.847 -0.1614 -0.1819  0.4285
   20CHTO   H72 8298   5.225   2.201   0.784 -0.7960  0.4010  1.3424
   20CHTO   O27 8299   5.162   1.897   1.192 -0.1588 -0.3534 -0.6906
   20CHTO   C37 8300   5.067   1.813   1.127 -0.2697 -0.3046  0.6720
   20CHTO   H79 8301   4.981   1.797   1.194 -2.0761  1.4989 -1.1574
   20CHTO   C38 8302   5.008   1.878   0.993 -0.2348  0.2458 -1.1931
   20CHTO   H80 8303   5.090   1.904   0.925 -0.5950 -1.3432 -2.2812
   20CHTO   O31 8304   4.939   1.998   1.034  0.1150 -0.1025  0.7588
   20CHTO   H68 8305   4.855   1.965   1.058  0.4629 -1.5091  0.1258
   20CHTO   C39 8306   4.908   1.777   0.915 -0.7510 -0.0814 -0.4765
   20CHTO   H81 8307   4.821   1.775   0.981  0.0450  3.9668  0.7973
   20CHTO    N7 8308   4.869   1.835   0.790  0.4402 -0.1889  0.7694
   20CHTO   H73 8309   4.883   1.776   0.701  0.2901 -0.0115  0.6259
   20CHTO   H74 8310   4.892   1.941   0.786  1.4989 -0.4102  0.9824
   20CHTO   C40 8311   4.982   1.642   0.899 -0.0551 -0.3645 -0.1636
   20CHTO   H82 8312   5.067   1.655   0.833  0.9525 -0.5595  1.0707
   20CHTO   O26 8313   5.018   1.589   1.029 -0.3734  0.5654 -0.6293
   20CHTO   C41 8314   5.128   1.672   1.084 -0.4756 -0.6711 -0.3298
   20CHTO   H83 8315   5.213   1.694   1.017 -1.3585  1.4775 -0.8080
   20CHTO   C52 8316   5.184   1.588   1.199  0.0590 -0.7083  0.2108
   20CHTO   O35 8317   5.339   1.627   1.241 -0.6144 -0.4031 -0.1666
   20CHTO   H71 8318   5.360   1.592   1.326  0.6558  1.1245  0.1745
   20CHTO   O28 8319   4.895   1.549   0.829 -0.0514  0.4823  0.4758
   20CHTO   C42 8320   4.952   1.433   0.751 -0.1105  0.3807 -0.7305
   20CHTO   H84 8321   4.860   1.387   0.713 -1.4314  1.7689  0.7063
   20CHTO   C44 8322   5.025   1.328   0.840 -0.2265  0.8778 -0.0564
   20CHTO   H86 8323   5.080   1.375   0.921 -2.1534  3.3290 -0.1060
   20CHTO   O32 8324   4.919   1.249   0.906 -0.4570 -0.5245  0.3037
   20CHTO   H69 8325   4.884   1.303   0.974 -0.3386  0.2307 -0.2236
   20CHTO   C48 8326   5.119   1.233   0.759 -0.1537  0.0877 -0.5786
   20CHTO   H90 8327   5.057   1.164   0.702  2.2679 -1.0025 -2.0160
   20CHTO    N9 8328   5.195   1.153   0.861 -0.6489 -0.4243 -0.2241
   20CHTO   H77 8329   5.287   1.106   0.828 -0.0632  0.8472 -0.4048
   20CHTO   H78 8330   5.131   1.081   0.910 -0.3152 -0.1893  0.5596
   20CHTO   C51 8331   5.205   1.319   0.663 -0.4400 -0.7906 -0.4247
   20CHTO   H93 8332   5.254   1.406   0.707 -0.1800 -0.9525 -0.3958
   20CHTO   O30 8333   5.115   1.354   0.562  0.4622  0.3041 -0.2288
   20CHTO   C46 8334   5.037   1.471   0.626  0.4353  0.1554  0.2216
   20CHTO   H88 8335   5.112   1.543   0.659  2.2956 -1.8994  0.5868
   20CHTO   C53 8336   4.941   1.528   0.517  0.5472 -0.7613 -0.2591
   20CHTO   O72 8337   5.004   1.608   0.424 -0.0691 -0.0810  0.2752
   20CHTO  H199 8338   4.962   1.691   0.415 -0.2597 -0.3151 -1.1230
   20CHTO   O22 8339   5.304   1.234   0.599  0.1239  0.3334 -0.5741
   20CHTO   C31 8340   5.445   1.279   0.556  0.4834  0.8527  0.4588
   20CHTO   H59 8341   5.470   1.221   0.464  0.0341  1.3719  0.0105
   20CHTO   C29 8342   5.465   1.429   0.519  0.1824  0.0925 -0.1760
   20CHTO   H57 8343   5.442   1.497   0.602 -0.8788  1.8397 -1.8470
   20CHTO   O21 8344   5.374   1.461   0.415  0.6001 -0.9777  0.0172
   20CHTO   H37 8345   5.390   1.545   0.376 -1.6550 -0.3442  0.3902
   20CHTO   C27 8346   5.621   1.456   0.470  0.8660  0.0861  0.5033
   20CHTO   H55 8347   5.642   1.392   0.383  1.4494 -0.5388  1.0954
   20CHTO    N5 8348   5.650   1.598   0.431  0.0174 -0.0737 -0.0020
   20CHTO   H43 8349   5.573   1.641   0.369 -1.3997 -0.5621  1.3834
   20CHTO   H44 8350   5.750   1.600   0.390  0.7735  0.2948  1.8081
   20CHTO   C25 8351   5.725   1.396   0.575 -0.5844 -0.4584 -0.0899
   20CHTO   H53 8352   5.703   1.446   0.670 -0.0610  1.1716 -0.8060
   20CHTO   O17 8353   5.685   1.252   0.585  0.1996 -0.2755 -0.6969
   20CHTO   C32 8354   5.559   1.235   0.655 -0.1976  0.3265  1.0145
   20CHTO   H60 8355   5.558   1.294   0.746  2.2810 -0.5249  1.6256
   20CHTO   C36 8356   5.542   1.095   0.716 -0.1956  0.1281 -0.3615
   20CHTO   O25 8357   5.529   0.988   0.623 -0.0181  0.1661  0.0720
   20CHTO   H40 8358   5.477   0.915   0.648  0.1110 -0.2885 -0.9608
   20CHTO   O15 8359   5.858   1.413   0.543 -0.0007  0.3630  0.2596
   20CHTO   C19 8360   5.971   1.493   0.552 -0.1273 -0.6794 -0.2825
   20CHTO   H47 8361   5.938   1.598   0.544  1.4010 -0.1880 -0.2807
   20CHTO   C20 8362   6.037   1.486   0.693  0.0956  0.2008 -0.2127
   20CHTO   H48 8363   6.058   1.382   0.721  0.5398  0.4707  0.4620
   20CHTO   O19 8364   5.945   1.541   0.787 -0.4074  0.1176  0.1498
   20CHTO   H35 8365   5.974   1.540   0.877  0.4002  0.0406 -0.1081
   20CHTO   C21 8366   6.177   1.565   0.693 -0.7377  0.2743  1.0688
   20CHTO   H49 8367   6.155   1.669   0.672 -1.3868 -0.2972 -1.2854
   20CHTO    N4 8368   6.245   1.533   0.826 -0.2471  0.5068 -0.2871
   20CHTO   H41 8369   6.334   1.594   0.834  0.1757 -0.2623  1.0295
   20CHTO   H42 8370   6.270   1.430   0.846  1.1127  0.4709 -2.0195
   20CHTO   C22 8371   6.262   1.524   0.569  0.8697  0.3055  0.0700
   20CHTO   H50 8372   6.293   1.420   0.585 -0.3608  0.1313  1.4942
   20CHTO   O14 8373   6.195   1.542   0.447  0.8161 -0.0428  0.6721
   20CHTO   C23 8374   6.072   1.460   0.432 -0.4449 -0.2516 -1.0465
   20CHTO   H51 8375   6.109   1.356   0.437 -3.0891 -1.2321 -1.0521
   20CHTO   C34 8376   6.030   1.494   0.289 -0.0105  0.1734  0.3378
   20CHTO   O23 8377   5.995   1.626   0.268 -0.0309 -0.0370 -0.2332
   20CHTO   H38 8378   5.906   1.638   0.294 -0.3114  0.0500 -1.2346
   20CHTO   O16 8379   6.378   1.608   0.562  0.2859 -0.2329  0.4747
   20CHTO   C24 8380   6.502   1.531   0.474  0.0905 -0.3381 -0.2148
   20CHTO   H52 8381   6.466   1.441   0.423 -1.1824  0.1133 -0.1422
   20CHTO   C26 8382   6.617   1.497   0.567  0.0528  0.1867 -0.1854
   20CHTO   H54 8383   6.635   1.580   0.638 -0.0019 -0.4749  0.6017
   20CHTO   O20 8384   6.578   1.395   0.663 -0.2794 -0.0115  0.1782
   20CHTO   H36 8385   6.487   1.384   0.681 -0.1477  0.1201  0.9635
   20CHTO   C30 8386   6.739   1.442   0.491  0.8379  0.2311  0.2859
   20CHTO   H58 8387   6.765   1.341   0.525 -0.7821  0.3479  2.0165
   20CHTO    N6 8388   6.862   1.510   0.538 -0.9159  0.1063 -0.4014
   20CHTO   H45 8389   6.858   1.618   0.526 -0.8333  0.4096  1.9682
   20CHTO   H46 8390   6.892   1.486   0.639 -0.0093  0.4777 -0.5801
   20CHTO   C33 8391   6.713   1.444   0.334  0.4766 -0.2009 -0.0890
   20CHTO   H61 8392   6.807   1.420   0.282  0.5015 -0.6817  0.1743
   20CHTO   O18 8393   6.663   1.571   0.288 -0.4517 -0.3196  0.0592
   20CHTO   C28 8394   6.555   1.626   0.370 -0.0457 -0.2691 -0.3305
   20CHTO   H56 8395   6.590   1.716   0.420 -0.3432 -0.1909 -0.2600
   20CHTO   C35 8396   6.434   1.663   0.293  0.1047  0.1661  0.4957
   20CHTO   O24 8397   6.442   1.768   0.190  0.4540  0.1269 -0.6200
   20CHTO   H39 8398   6.528   1.765   0.153  1.0335  0.4582  0.6895
   20CHTO    O9 8399   6.628   1.343   0.288 -0.1801  0.4307 -0.2940
   20CHTO   C13 8400   6.669   1.192   0.306  0.2191  0.5271  0.7202
   20CHTO   H26 8401   6.714   1.171   0.405  0.7126  1.7022  0.7488
   20CHTO   C11 8402   6.755   1.137   0.189 -0.0637  0.0999  0.0866
   20CHTO   H24 8403   6.850   1.193   0.192 -0.0498  0.1503 -1.0935
   20CHTO    O8 8404   6.697   1.172   0.062 -0.3994  0.1403 -0.1253
   20CHTO    H3 8405   6.618   1.121   0.056  0.1254 -0.4567 -3.2001
   20CHTO    C9 8406   6.793   0.990   0.226 -0.6721  0.4646  0.1355
   20CHTO   H22 8407   6.858   0.995   0.314  1.2090 -0.5246 -1.1528
   20CHTO    N2 8408   6.883   0.930   0.125 -0.0989  0.0911  0.2235
   20CHTO   H10 8409   6.979   0.975   0.149 -0.2730  0.9819 -0.7009
   20CHTO   H11 8410   6.860   0.956   0.023  3.0784  0.3593 -0.4921
   20CHTO    C7 8411   6.664   0.904   0.268 -0.3781  0.2251  0.7311
   20CHTO   H20 8412   6.687   0.891   0.376 -1.5799 -1.3358  0.8188
   20CHTO    O4 8413   6.544   0.976   0.260  0.3227 -0.3609  0.1423
   20CHTO   C14 8414   6.538   1.106   0.318  0.0732  0.4482  0.0537
   20CHTO   H27 8415   6.513   1.089   0.425  1.8194  1.0810  0.5845
   20CHTO   C18 8416   6.414   1.172   0.260  0.2040  0.2867 -0.7542
   20CHTO   O13 8417   6.291   1.119   0.313 -0.3307  0.2754 -0.2722
   20CHTO    H7 8418   6.300   1.032   0.346 -0.4975 -0.2142 -1.4683
   20CHTO    O2 8419   6.644   0.761   0.189  0.1225 -0.2287 -0.9323
   20CHTO    C1 8420   6.575   0.679   0.285  0.1765 -0.1101  0.2897
   20CHTO   H14 8421   6.523   0.735   0.365 -1.2927  0.7045 -1.2091
   20CHTO    C2 8422   6.679   0.581   0.346 -0.0352 -0.2496  0.1391
   20CHTO   H15 8423   6.717   0.518   0.265  1.7228  0.8436  0.1051
   20CHTO    O6 8424   6.791   0.650   0.398 -0.0928 -0.4281  0.1450
   20CHTO    H1 8425   6.838   0.683   0.324 -1.0284 -1.4824 -0.9515
   20CHTO    C3 8426   6.605   0.480   0.455 -0.4797  0.5500  0.1309
   20CHTO   H16 8427   6.564   0.541   0.537  0.9714  0.5500  0.8713
   20CHTO    N1 8428   6.693   0.384   0.524  0.4821 -0.5183 -0.2197
   20CHTO    H8 8429   6.649   0.286   0.512  0.6532 -0.5709 -0.4237
   20CHTO    H9 8430   6.723   0.406   0.625 -0.8261  1.9726 -0.3515
   20CHTO    C4 8431   6.482   0.416   0.376 -0.6367  0.2582 -0.1983
   20CHTO   H17 8432   6.510   0.336   0.308  1.9398 -0.2258  1.3861
   20CHTO    O1 8433   6.396   0.509   0.311  0.5513  0.1816 -0.2200
   20CHTO    C5 8434   6.459   0.605   0.218  0.6996  0.8526 -0.3558
   20CHTO   H18 8435   6.495   0.558   0.127  1.2804 -1.3497  0.9577
   20CHTO   C16 8436   6.343   0.701   0.186  0.8313  0.3275 -0.7765
   20CHTO   O11 8437   6.379   0.817   0.099 -0.1859 -0.2181 -0.1042
   20CHTO    H5 8438   6.314   0.885   0.106 -0.2208 -0.1760 -0.8372
   20CHTO    O3 8439   6.398   0.353   0.471  0.3463  0.2142 -0.0161
   20CHTO    C6 8440   6.297   0.264   0.413 -0.6617  0.9268  0.0450
   20CHTO   H19 8441   6.287   0.267   0.305 -0.7025 -2.0936 -0.1021
   20CHTO    C8 8442   6.328   0.116   0.458  0.2461  0.0209  0.3863
   20CHTO   H21 8443   6.323   0.104   0.566  0.2403  2.9036  0.7331
   20CHTO    O7 8444   6.464   0.088   0.413  0.1284 -0.6803  0.1559
   20CHTO    H2 8445   6.477  -0.004   0.411  2.9453 -0.3230 -0.7192
   20CHTO   C12 8446   6.220   0.024   0.396  0.2293  0.3584  0.6181
   20CHTO   H25 8447   6.234   0.022   0.286 -1.7164 -1.9582  0.3630
   20CHTO    N3 8448   6.239  -0.129   0.420  0.5848  0.3265 -0.2781
   20CHTO   H12 8449   6.326  -0.160   0.364  0.6811 -1.9659  1.0821
   20CHTO   H13 8450   6.268  -0.151   0.521 -2.2355  0.1497  0.5391
   20CHTO   C15 8451   6.079   0.078   0.441  0.6806  0.0589  0.5249
   20CHTO   H28 8452   6.051   0.058   0.544  0.5119  2.3796  0.9644
   20CHTO   O10 8453   5.973   0.021   0.359  0.0759 -0.4212 -0.2581
   20CHTO    H4 8454   6.008  -0.035   0.292 -0.9218 -2.1166  0.6068
   20CHTO    O5 8455   6.056   0.220   0.412 -0.6160 -0.4638  0.1007
   20CHTO   C10 8456   6.156   0.305   0.477 -0.2947  0.0780  0.1325
   20CHTO   H23 8457   6.164   0.287   0.584  2.6855  1.0328  0.1151
   20CHTO   C17 8458   6.108   0.453   0.460 -0.1489 -0.0134  0.7970
   20CHTO   O12 8459   5.991   0.483   0.524  0.2981 -0.4510 -0.2158
   20CHTO    H6 8460   5.991   0.575   0.542 -0.5365  0.0816 -2.8300
   21GLOH   H03 8461   3.537   1.314   0.830 -1.0500  0.0658 -3.3266
   21GLOH    O1 8462   3.454   1.341   0.874  0.1243 -0.4556 -0.6637
   21GLOH    C1 8463   3.473   1.435   0.983 -0.3558  0.0046  0.8017
   21GLOH   H02 8464   3.468   1.537   0.944 -2.3237 -0.2116  0.4189
   21GLOH   H08 8465   3.577   1.424   1.014 -0.3389  0.0985  0.7788
   21GLOH    C2 8466   3.371   1.417   1.095 -0.1402  0.5026  0.7542
   21GLOH   H04 8467   3.273   1.429   1.046 -0.6151  1.0746  1.8163
   21GLOH    O2 8468   3.374   1.288   1.153 -0.2220  0.1440 -0.1238
   21GLOH   H05 8469   3.385   1.221   1.083 -2.0296  1.4769 -1.7412
   21GLOH    C3 8470   3.387   1.529   1.205  0.3297 -0.5084 -0.0388
   21GLOH   H06 8471   3.478   1.507   1.261  1.5230  1.6325 -1.0686
   21GLOH   H07 8472   3.307   1.511   1.277 -0.0515 -1.9465 -0.8015
   21GLOH    O3 8473   3.383   1.669   1.163 -0.2787 -0.4767 -0.1000
   21GLOH   H01 8474   3.319   1.683   1.090  0.6763 -2.2364 -1.2981
   22GLOH   H03 8475   3.286   9.513   2.130 -1.3203 -1.0346  0.6421
   22GLOH    O1 8476   3.235   9.589   2.164 -0.2898 -0.0947  0.1158
   22GLOH    C1 8477   3.303   9.719   2.169 -0.8460 -0.6898 -0.2797
   22GLOH   H02 8478   3.387   9.722   2.100 -1.0246  1.5107 -0.4447
   22GLOH   H08 8479   3.348   9.737   2.267  1.7963  4.6020 -2.2851
   22GLOH    C2 8480   3.209   9.843   2.153 -0.6222 -0.4203 -0.0623
   22GLOH   H04 8481   3.137   9.836   2.236 -0.4300 -0.3444  0.1089
   22GLOH    O2 8482   3.283   9.964   2.173  0.1529  0.3352 -0.5736
   22GLOH   H05 8483   3.252  10.027   2.106 -0.1411  1.2281  0.3855
   22GLOH    C3 8484   3.130   9.838   2.021  0.3621  0.3032 -0.4251
   22GLOH   H06 8485   3.202   9.844   1.940 -1.1899  1.2732 -1.7635
   22GLOH   H07 8486   3.052   9.913   2.010 -0.0228 -0.0273  0.0246
   22GLOH    O3 8487   3.072   9.701   2.011 -0.2368 -0.3182  0.2642
   22GLOH   H01 8488   3.124   9.645   2.071  0.6128 -0.2146 -0.3728
   23GLOH   H03 8489   3.316   9.080   1.251 -0.4727  0.7139  1.7315
   23GLOH    O1 8490   3.257   9.006   1.275 -0.0456 -0.4035 -0.5232
   23GLOH    C1 8491   3.123   9.032   1.224 -0.4087 -0.0691 -0.5548
   23GLOH   H02 8492   3.105   9.139   1.216  0.0195 -0.0377 -1.1251
   23GLOH   H08 8493   3.052   8.997   1.299  0.1947  1.6324  0.8591
   23GLOH    C2 8494   3.095   8.967   1.092 -0.2935  1.4302  0.2515
   23GLOH   H04 8495   2.991   8.990   1.065 -0.4958  0.4703  0.1888
   23GLOH    O2 8496   3.179   9.020   0.984 -0.1286 -0.2169 -0.3207
   23GLOH   H05 8497   3.211   8.940   0.940 -0.3910 -0.6192  0.2166
   23GLOH    C3 8498   3.124   8.813   1.108 -0.4428 -0.2935 -0.0745
   23GLOH   H06 8499   3.104   8.771   1.009  0.8611 -0.5877 -0.2117
   23GLOH   H07 8500   3.052   8.779   1.183  0.2087 -0.8784  0.2867
   23GLOH    O3 8501   3.255   8.789   1.158  0.3303 -0.2449  0.3533
   23GLOH   H01 8502   3.282   8.864   1.215 -0.8199  1.3405 -1.1062
   24GLOH   H03 8503   4.254   1.492   0.200  0.0873  0.2952 -0.4043
   24GLOH    O1 8504   4.306   1.410   0.202 -0.3631  0.0118 -0.2257
   24GLOH    C1 8505   4.416   1.439   0.294 -0.0991  0.1423  0.4732
   24GLOH   H02 8506   4.375   1.494   0.379  1.9484  3.6999 -0.7349
   24GLOH   H08 8507   4.489   1.508   0.252  2.9389 -2.1927  1.7261
   24GLOH    C2 8508   4.493   1.324   0.353 -0.1766  0.7231 -0.1471
   24GLOH   H04 8509   4.529   1.251   0.279 -2.2548 -1.9413  1.4061
   24GLOH    O2 8510   4.606   1.375   0.435 -0.1758  0.7178  0.0455
   24GLOH   H05 8511   4.577   1.462   0.468  0.4904  0.4064  1.4620
   24GLOH    C3 8512   4.405   1.249   0.447  0.2081 -1.4332  0.6091
   24GLOH   H06 8513   4.380   1.320   0.526  2.2277  0.2390 -0.2209
   24GLOH   H07 8514   4.454   1.164   0.495  1.5009 -0.8848  0.2917
   24GLOH    O3 8515   4.283   1.199   0.391  0.8287  0.6707 -0.7955
   24GLOH   H01 8516   4.237   1.142   0.455 -0.4613  2.3897 -0.1579
   25GLOH   H03 8517   4.200   3.708   0.313 -0.4158  2.4265 -2.7599
   25GLOH    O1 8518   4.105   3.685   0.311  0.0384  0.0867 -0.3411
   25GLOH    C1 8519   4.083   3.546   0.293  0.2360  0.0121  0.0052
   25GLOH   H02 8520   4.040   3.502   0.383  1.3571 -1.4824 -0.1656
   25GLOH   H08 8521   4.175   3.495   0.266  0.4656  1.5798 -2.4218
   25GLOH    C2 8522   3.975   3.525   0.186  0.6292 -0.1576 -0.1664
   25GLOH   H04 8523   3.897   3.599   0.208  0.8914 -0.0844  0.5136
   25GLOH    O2 8524   4.024   3.566   0.057 -0.1799  0.3307 -0.5753
   25GLOH   H05 8525   4.033   3.663   0.060  3.0936  0.0626  0.0328
   25GLOH    C3 8526   3.926   3.376   0.185  0.5388 -0.6696  0.1249
   25GLOH   H06 8527   4.014   3.318   0.157  1.0881 -0.0445  0.5422
   25GLOH   H07 8528   3.857   3.360   0.102 -0.7100  4.5050  0.0102
   25GLOH    O3 8529   3.864   3.325   0.303 -0.0202 -0.0425  0.0510
   25GLOH   H01 8530   3.826   3.391   0.363  0.3676  0.5808 -0.3856
   26GLOH   H03 8531   3.458   1.725   2.460  0.7192  1.3213  0.4256
   26GLOH    O1 8532   3.536   1.699   2.512  0.5731  0.2975  0.1536
   26GLOH    C1 8533   3.652   1.719   2.432 -1.0605 -0.2368 -0.1724
   26GLOH   H02 8534   3.631   1.797   2.359  0.1233  0.0384 -0.2286
   26GLOH   H08 8535   3.683   1.623   2.390  1.1007  1.4698 -2.6486
   26GLOH    C2 8536   3.775   1.770   2.508  0.1967  0.4863 -0.4707
   26GLOH   H04 8537   3.775   1.718   2.605  1.0821  1.2209 -0.0664
   26GLOH    O2 8538   3.887   1.736   2.434  0.0892 -0.4264  0.0860
   26GLOH   H05 8539   3.961   1.698   2.483  1.5287  1.1192 -0.8501
   26GLOH    C3 8540   3.774   1.915   2.540 -0.1153 -0.0867  1.0556
   26GLOH   H06 8541   3.876   1.954   2.539  0.1035 -0.6700 -0.0396
   26GLOH   H07 8542   3.743   1.929   2.643 -0.1417  1.2987  0.8710
   26GLOH    O3 8543   3.690   1.993   2.452  0.9456  0.0241 -0.2951
   26GLOH   H01 8544   3.747   2.032   2.383 -2.5409  1.6490 -2.3949
   27GLOH   H03 8545   4.605   1.126   0.919 -1.1301  0.4307  0.4535
   27GLOH    O1 8546   4.601   1.186   0.842 -0.2031 -0.2096 -0.1075
   27GLOH    C1 8547   4.634   1.107   0.724 -0.4567  0.2078  0.1086
   27GLOH   H02 8548   4.742   1.100   0.716 -0.5942 -0.6158 -1.2970
   27GLOH   H08 8549   4.591   1.162   0.640  0.7316 -0.2909 -0.8370
   27GLOH    C2 8550   4.575   0.964   0.735  0.5221 -0.2055 -0.8234
   27GLOH   H04 8551   4.466   0.975   0.748  0.3706 -1.8056 -0.5597
   27GLOH    O2 8552   4.605   0.876   0.630  0.3409  0.0654 -0.2725
   27GLOH   H05 8553   4.550   0.796   0.631 -0.6684  0.7512  0.0852
   27GLOH    C3 8554   4.626   0.894   0.865 -0.2653  0.4190 -0.9538
   27GLOH   H06 8555   4.733   0.875   0.862 -0.4228 -0.7387  0.4462
   27GLOH   H07 8556   4.571   0.800   0.870 -1.3250  1.0874  0.4576
   27GLOH    O3 8557   4.599   0.972   0.981  0.1684  0.0927  0.0046
   27GLOH   H01 8558   4.594   0.906   1.053 -1.8397 -0.1459 -0.3285
   28GLOH   H03 8559   4.632   1.398   1.591  0.1095  0.5994 -0.9812
   28GLOH    O1 8560   4.647   1.483   1.638  0.1972 -0.0888  0.2556
   28GLOH    C1 8561   4.592   1.481   1.776  0.2082  0.4642 -0.3556
   28GLOH   H02 8562   4.583   1.580   1.820 -2.1802 -0.9221  2.4371
   28GLOH   H08 8563   4.655   1.421   1.841  0.5610  0.1136 -1.0112
   28GLOH    C2 8564   4.450   1.448   1.777  0.0636  1.0485 -0.0107
   28GLOH   H04 8565   4.440   1.348   1.732 -0.2593  1.4997 -0.9550
   28GLOH    O2 8566   4.405   1.429   1.918  0.3820  0.4509 -0.5454
   28GLOH   H05 8567   4.333   1.489   1.945 -1.7452 -1.5607 -1.6202
   28GLOH    C3 8568   4.355   1.544   1.705 -0.4301  0.1764  0.0512
   28GLOH   H06 8569   4.358   1.640   1.757 -0.1476  1.4190 -2.1694
   28GLOH   H07 8570   4.252   1.509   1.707 -0.1859 -0.5788 -0.2160
   28GLOH    O3 8571   4.382   1.566   1.567  0.6487 -0.0361  0.4460
   28GLOH   H01 8572   4.471   1.606   1.569  0.9163 -0.4902 -1.1535
   29GLOH   H03 8573   3.666   0.860   2.133  0.2311 -1.1699 -0.3532
   29GLOH    O1 8574   3.633   0.802   2.061 -0.8135 -0.2715 -0.6065
   29GLOH    C1 8575   3.493   0.785   2.073  1.3603 -0.3723 -0.2718
   29GLOH   H02 8576   3.449   0.837   2.158 -3.1761 -2.3411 -1.2649
   29GLOH   H08 8577   3.473   0.688   2.120  0.7064  0.0410  0.3191
   29GLOH    C2 8578   3.406   0.782   1.952 -0.1857  0.2829 -0.1132
   29GLOH   H04 8579   3.434   0.689   1.900  1.7049 -0.3812  2.0230
   29GLOH    O2 8580   3.266   0.782   1.990  0.3675  0.0428  0.5841
   29GLOH   H05 8581   3.210   0.749   1.918 -0.5585  1.8803  0.4500
   29GLOH    C3 8582   3.426   0.906   1.865 -0.2933 -0.1193  0.1334
   29GLOH   H06 8583   3.401   0.996   1.922  0.3480  1.7695 -2.4392
   29GLOH   H07 8584   3.346   0.910   1.792 -0.9829  1.2411  0.9477
   29GLOH    O3 8585   3.553   0.924   1.804 -0.4504  0.1878  0.3459
   29GLOH   H01 8586   3.566   0.857   1.735 -2.3199  0.3242 -0.1706
   30GLOH   H03 8587   4.141   0.804   2.708 -0.6994 -0.2350  0.7097
   30GLOH    O1 8588   4.087   0.768   2.636 -0.1136 -0.4713  0.3802
   30GLOH    C1 8589   3.994   0.880   2.607 -1.0489 -0.2499 -0.2213
   30GLOH   H02 8590   3.956   0.927   2.698  0.5693  0.8487 -0.0922
   30GLOH   H08 8591   3.903   0.848   2.556 -0.7970 -2.1449  0.4965
   30GLOH    C2 8592   4.069   0.988   2.525 -0.1766  1.3997  0.4360
   30GLOH   H04 8593   3.993   1.064   2.502 -0.6521  0.8225  0.0971
   30GLOH    O2 8594   4.174   1.052   2.601  0.3538  0.1296  0.2223
   30GLOH   H05 8595   4.246   1.071   2.539  0.5570 -0.4616  0.2704
   30GLOH    C3 8596   4.108   0.929   2.390 -0.1241  0.6674 -0.0978
   30GLOH   H06 8597   4.020   0.895   2.335 -0.0447 -1.4310  1.0356
   30GLOH   H07 8598   4.176   0.846   2.408 -0.4311 -0.4972 -3.8329
   30GLOH    O3 8599   4.179   1.023   2.303  0.2625  0.0070 -0.1997
   30GLOH   H01 8600   4.237   1.078   2.358 -0.4362  0.1043  0.4504
   31GLOH   H03 8601   4.298   2.270   0.361 -1.7341  0.5382  0.9297
   31GLOH    O1 8602   4.269   2.216   0.284 -0.4592  0.3811  0.5597
   31GLOH    C1 8603   4.144   2.143   0.320  0.4724  0.2214 -0.4432
   31GLOH   H02 8604   4.064   2.214   0.342  1.7619  0.8957  2.1868
   31GLOH   H08 8605   4.162   2.088   0.412 -0.9338 -2.3724 -1.6666
   31GLOH    C2 8606   4.114   2.030   0.217 -0.2333 -0.5078 -0.2281
   31GLOH   H04 8607   4.205   1.970   0.232  0.1815  0.5752  1.8383
   31GLOH    O2 8608   3.998   1.963   0.252  0.1786  0.5728  0.2276
   31GLOH   H05 8609   3.993   1.877   0.207  0.5131  0.0148  1.2461
   31GLOH    C3 8610   4.094   2.087   0.078 -0.5589 -0.1137  0.6730
   31GLOH   H06 8611   4.007   2.151   0.068 -0.2303  0.0627 -1.2321
   31GLOH   H07 8612   4.079   2.002   0.011  0.6000 -0.6359  1.0624
   31GLOH    O3 8613   4.210   2.160   0.036 -0.0698 -0.4301 -0.2004
   31GLOH   H01 8614   4.240   2.214   0.112 -0.7139  0.1507 -0.3529
   32GLOH   H03 8615   3.238   4.193   0.243  0.0102 -1.9213 -2.2098
   32GLOH    O1 8616   3.309   4.250   0.209  0.1513 -0.5401  0.2658
   32GLOH    C1 8617   3.426   4.170   0.216 -0.2579  1.1445  0.5141
   32GLOH   H02 8618   3.420   4.090   0.142  2.3167  0.0707  1.4141
   32GLOH   H08 8619   3.436   4.128   0.316 -0.0872 -0.5511 -0.1963
   32GLOH    C2 8620   3.558   4.247   0.201 -0.7168 -0.2694 -0.9249
   32GLOH   H04 8621   3.572   4.320   0.282 -0.1449 -3.0170  1.5235
   32GLOH    O2 8622   3.680   4.162   0.208 -0.0259  0.1729  0.4077
   32GLOH   H05 8623   3.707   4.169   0.301 -0.5140 -0.0163  0.5649
   32GLOH    C3 8624   3.557   4.319   0.070  0.6856 -0.1979 -0.1378
   32GLOH   H06 8625   3.536   4.255  -0.015  0.2638 -1.0859  0.6223
   32GLOH   H07 8626   3.655   4.365   0.065 -0.2574  1.7396 -1.5603
   32GLOH    O3 8627   3.447   4.413   0.072 -0.0413  0.5761  0.1498
   32GLOH   H01 8628   3.374   4.361   0.112  0.3077  0.4038  0.5641
   33GLOH   H03 8629   4.406   1.289   2.002 -4.1650  1.8300  0.6114
   33GLOH    O1 8630   4.381   1.228   2.074 -0.4791 -0.6521 -0.0724
   33GLOH    C1 8631   4.378   1.298   2.198 -0.2335 -0.4649  0.2382
   33GLOH   H02 8632   4.290   1.273   2.256 -0.6884 -2.6880 -1.3515
   33GLOH   H08 8633   4.372   1.406   2.182 -1.2267 -0.5832 -0.2066
   33GLOH    C2 8634   4.492   1.256   2.291 -0.1587 -0.0335 -0.0214
   33GLOH   H04 8635   4.590   1.244   2.241 -0.3908 -1.1481 -0.2173
   33GLOH    O2 8636   4.501   1.366   2.386 -0.1072 -0.0647 -0.2155
   33GLOH   H05 8637   4.586   1.366   2.433 -0.3212  0.1415  0.1652
   33GLOH    C3 8638   4.471   1.123   2.371 -0.1853  0.4957 -0.7056
   33GLOH   H06 8639   4.565   1.097   2.420  0.7692  2.4751 -1.4414
   33GLOH   H07 8640   4.464   1.035   2.306 -1.9925  0.2479 -0.1961
   33GLOH    O3 8641   4.363   1.129   2.466 -0.5352  0.3446 -0.0413
   33GLOH   H01 8642   4.394   1.182   2.542  0.6560  0.3398 -0.5242
   34GLOH   H03 8643   4.516   3.175   0.987 -0.0084  1.3519  0.4405
   34GLOH    O1 8644   4.612   3.164   1.003 -0.1189 -0.5627 -0.0971
   34GLOH    C1 8645   4.651   3.288   1.064  0.8431 -0.0424  0.3561
   34GLOH   H02 8646   4.604   3.295   1.162  0.9725 -0.1000  0.4222
   34GLOH   H08 8647   4.616   3.369   1.000 -0.3822 -0.1244  0.9038
   34GLOH    C2 8648   4.805   3.302   1.080  0.0060  0.7400  0.1347
   34GLOH   H04 8649   4.846   3.305   0.978 -1.2022  0.5590 -0.3616
   34GLOH    O2 8650   4.853   3.421   1.154  0.1807 -0.0389 -0.2615
   34GLOH   H05 8651   4.776   3.479   1.169  1.0885  1.6837 -2.0120
   34GLOH    C3 8652   4.854   3.181   1.166  0.7828 -0.5673  0.1602
   34GLOH   H06 8653   4.828   3.208   1.269 -1.3338  0.7777 -0.6822
   34GLOH   H07 8654   4.962   3.176   1.158  0.7173 -0.3858 -0.8257
   34GLOH    O3 8655   4.796   3.053   1.137  0.5430 -0.1256 -0.0689
   34GLOH   H01 8656   4.736   3.061   1.061  1.6085 -0.3771 -0.9438
   35GLOH   H03 8657   4.659   3.928   2.098 -0.1962 -0.0028  0.4765
   35GLOH    O1 8658   4.712   3.872   2.158  0.0665 -0.4648 -0.1825
   35GLOH    C1 8659   4.615   3.784   2.220  0.3775 -0.3409 -0.0101
   35GLOH   H02 8660   4.660   3.686   2.238 -0.2267 -0.7231 -0.5900
   35GLOH   H08 8661   4.526   3.766   2.161  0.3305  0.6305 -0.2424
   35GLOH    C2 8662   4.555   3.833   2.359 -0.7742 -0.6999  0.1721
   35GLOH   H04 8663   4.456   3.787   2.369 -1.8729  1.0946 -2.0206
   35GLOH    O2 8664   4.643   3.792   2.467 -0.2110 -0.6589  0.0990
   35GLOH   H05 8665   4.736   3.776   2.441 -0.1646  1.5128 -1.2268
   35GLOH    C3 8666   4.533   3.984   2.363  1.1678 -0.2116 -0.1171
   35GLOH   H06 8667   4.630   4.030   2.341  0.4600  0.6340 -1.5188
   35GLOH   H07 8668   4.509   4.022   2.462 -0.4889 -0.3611 -0.4596
   35GLOH    O3 8669   4.443   4.028   2.260 -0.1669 -0.0688 -0.6895
   35GLOH   H01 8670   4.484   4.033   2.172  2.3673  4.0470  0.5607
   36GLOH   H03 8671   4.376   3.300   2.301 -1.4005 -0.1399  2.4335
   36GLOH    O1 8672   4.344   3.209   2.285 -0.5372 -0.0334 -0.0919
   36GLOH    C1 8673   4.347   3.163   2.146  0.3778  0.0483 -0.3178
   36GLOH   H02 8674   4.450   3.146   2.115  0.9038  2.3959  0.0697
   36GLOH   H08 8675   4.312   3.242   2.079  1.1741  1.1630  0.5744
   36GLOH    C2 8676   4.272   3.033   2.114 -0.1200 -0.1720  0.4953
   36GLOH   H04 8677   4.164   3.050   2.124 -0.4538 -1.4132 -0.9295
   36GLOH    O2 8678   4.311   2.996   1.982  0.1840 -0.1014 -0.2151
   36GLOH   H05 8679   4.257   3.053   1.925  0.3335 -1.8533 -2.1481
   36GLOH    C3 8680   4.298   2.927   2.218 -0.0338 -0.6949 -0.7677
   36GLOH   H06 8681   4.405   2.911   2.231 -0.0022  0.7194  0.9539
   36GLOH   H07 8682   4.246   2.836   2.192  0.8618 -1.9513  1.7142
   36GLOH    O3 8683   4.251   2.979   2.343 -0.1967  0.2934 -0.7553
   36GLOH   H01 8684   4.289   3.069   2.344 -0.9027  0.6095 -1.9238
   37GLOH   H03 8685   3.396   3.134   2.053  0.5972 -0.6013  0.5973
   37GLOH    O1 8686   3.429   3.152   1.963 -0.5767 -0.2402  0.2353
   37GLOH    C1 8687   3.461   3.035   1.884  0.1477  0.3624  0.1491
   37GLOH   H02 8688   3.495   2.966   1.962  1.1681 -0.4042 -0.9635
   37GLOH   H08 8689   3.542   3.051   1.813 -0.2258  1.4233 -0.0375
   37GLOH    C2 8690   3.338   2.976   1.818  0.2036  1.0064 -0.4316
   37GLOH   H04 8691   3.303   3.055   1.750 -1.6787 -1.8425 -2.8678
   37GLOH    O2 8692   3.368   2.855   1.744  0.1234  0.5680  0.6120
   37GLOH   H05 8693   3.293   2.793   1.745  0.9587 -0.4262  2.4091
   37GLOH    C3 8694   3.229   2.946   1.915 -0.7258 -0.1171 -0.5077
   37GLOH   H06 8695   3.218   3.028   1.986  1.0897 -0.8820  0.7048
   37GLOH   H07 8696   3.271   2.870   1.981 -1.1386  0.2411  0.1694
   37GLOH    O3 8697   3.102   2.915   1.858  0.8538  0.7522 -0.0845
   37GLOH   H01 8698   3.052   2.994   1.834  1.3680  0.8641 -0.7837
   38GLOH   H03 8699   3.664   3.267   1.847 -0.9589 -1.3268  0.2758
   38GLOH    O1 8700   3.680   3.276   1.943 -0.5374  0.5592  0.0417
   38GLOH    C1 8701   3.796   3.196   1.991 -0.0493 -0.4962 -0.3626
   38GLOH   H02 8702   3.824   3.112   1.927  0.2342 -1.7296  1.3436
   38GLOH   H08 8703   3.759   3.150   2.083 -1.4942 -0.5723 -0.9763
   38GLOH    C2 8704   3.920   3.283   2.020 -0.4188  0.4995  0.3822
   38GLOH   H04 8705   3.988   3.215   2.074 -1.5349 -1.7062 -0.9414
   38GLOH    O2 8706   3.984   3.329   1.900 -0.1755  0.3910 -0.2136
   38GLOH   H05 8707   3.917   3.373   1.847 -1.7623 -1.6814 -0.0059
   38GLOH    C3 8708   3.898   3.405   2.105  0.3593 -0.2225 -0.1974
   38GLOH   H06 8709   3.827   3.473   2.058  1.4351  0.6417 -0.5874
   38GLOH   H07 8710   3.989   3.462   2.126 -0.4065  0.7219  0.6025
   38GLOH    O3 8711   3.850   3.361   2.235  0.0111 -0.6072 -0.6379
   38GLOH   H01 8712   3.754   3.349   2.226  0.0694 -1.2466 -0.4378
   39GLOH   H03 8713   4.238   0.369   0.894 -0.2236  2.1013  0.1289
   39GLOH    O1 8714   4.162   0.363   0.833  0.3459 -0.6942 -0.3602
   39GLOH    C1 8715   4.067   0.271   0.884  0.1513 -0.1731  0.0101
   39GLOH   H02 8716   4.097   0.170   0.854 -0.4925 -0.3024 -0.2090
   39GLOH   H08 8717   3.973   0.289   0.831  1.4060 -0.3051 -2.3226
   39GLOH    C2 8718   4.039   0.284   1.035 -0.9170  0.2633  0.8723
   39GLOH   H04 8719   3.992   0.382   1.052 -0.8592  0.7268 -1.5084
   39GLOH    O2 8720   3.951   0.180   1.075 -0.0508  0.3688 -0.0261
   39GLOH   H05 8721   3.888   0.215   1.140 -0.2444  1.8318 -0.9555
   39GLOH    C3 8722   4.173   0.270   1.114  0.0099  0.4894 -0.4864
   39GLOH   H06 8723   4.206   0.166   1.109  2.1729  1.0976  0.5568
   39GLOH   H07 8724   4.148   0.284   1.219  0.2817 -1.9097 -0.0724
   39GLOH    O3 8725   4.268   0.363   1.068 -0.5412  0.3879 -0.1729
   39GLOH   H01 8726   4.262   0.438   1.130 -1.2724 -1.8459  2.5740
   40GLOH   H03 8727   3.132   0.614   1.822  0.7090  1.2309  0.3641
   40GLOH    O1 8728   3.115   0.707   1.799  0.0804  1.0371  0.0438
   40GLOH    C1 8729   3.057   0.703   1.669 -0.0732  0.0768  0.2545
   40GLOH   H02 8730   2.964   0.647   1.669 -0.8442  1.3196 -1.6334
   40GLOH   H08 8731   3.120   0.641   1.605 -0.8044 -1.0118  0.5926
   40GLOH    C2 8732   3.052   0.841   1.599  0.1685 -0.4853 -0.4712
   40GLOH   H04 8733   3.149   0.891   1.609  0.7066 -1.5493 -0.2344
   40GLOH    O2 8734   3.022   0.830   1.461 -0.2111 -0.4485  0.4965
   40GLOH   H05 8735   3.109   0.835   1.420  0.1987 -0.3464  1.3653
   40GLOH    C3 8736   2.946   0.916   1.677 -0.1526 -0.3108 -0.1977
   40GLOH   H06 8737   2.856   0.856   1.686 -1.9624  2.1373 -1.5208
   40GLOH   H07 8738   2.923   1.008   1.624  0.4750 -1.0846 -1.8494
   40GLOH    O3 8739   2.999   0.928   1.817 -0.0748 -0.2475  0.3795
   40GLOH   H01 8740   3.032   0.840   1.845  0.0751 -0.1592  0.4769
   41GLOH   H03 8741   3.627   1.260   0.379 -0.1583  0.5580 -0.8617
   41GLOH    O1 8742   3.670   1.320   0.443 -0.1745 -0.5585  0.2242
   41GLOH    C1 8743   3.584   1.431   0.467 -0.0032 -0.4961 -0.2531
   41GLOH   H02 8744   3.623   1.479   0.557 -2.2879  0.6175  0.1782
   41GLOH   H08 8745   3.483   1.397   0.492 -0.7080  0.7181 -1.4064
   41GLOH    C2 8746   3.570   1.531   0.353  0.2977 -0.2610 -0.2128
   41GLOH   H04 8747   3.538   1.480   0.262  0.3739 -1.9888  0.7112
   41GLOH    O2 8748   3.471   1.630   0.381 -0.1614 -0.1659 -0.0262
   41GLOH   H05 8749   3.407   1.627   0.308 -1.0714 -0.8963  0.7814
   41GLOH    C3 8750   3.711   1.595   0.333  0.9889  0.0663  0.1274
   41GLOH   H06 8751   3.782   1.537   0.392  3.8524  1.2595 -2.0568
   41GLOH   H07 8752   3.706   1.699   0.366 -0.9878 -0.0399  0.2231
   41GLOH    O3 8753   3.748   1.593   0.200 -0.4238 -0.2312  0.1291
   41GLOH   H01 8754   3.677   1.627   0.143 -0.4491 -1.2129 -0.4320
   42GLOH   H03 8755   3.605   2.252  -0.202  0.2170  0.7752  0.1334
   42GLOH    O1 8756   3.530   2.244  -0.141  0.2661 -0.7272  0.0269
   42GLOH    C1 8757   3.570   2.262  -0.004 -0.4718 -0.5320  0.0630
   42GLOH   H02 8758   3.485   2.286   0.060 -1.9412  0.7336 -2.3254
   42GLOH   H08 8759   3.627   2.354   0.005 -1.6205  0.1445  0.5168
   42GLOH    C2 8760   3.644   2.140   0.057 -0.1076 -0.4495 -0.2931
   42GLOH   H04 8761   3.728   2.119  -0.011 -0.5305  0.4454 -1.1018
   42GLOH    O2 8762   3.700   2.171   0.191  0.3584  1.0708  0.2128
   42GLOH   H05 8763   3.709   2.094   0.248  2.3314 -0.5641 -2.1827
   42GLOH    C3 8764   3.552   2.017   0.048  0.3391 -0.5695 -0.2907
   42GLOH   H06 8765   3.609   1.936   0.092 -2.4984 -1.7274  1.3255
   42GLOH   H07 8766   3.533   1.987  -0.055  0.1275  1.3238 -0.8296
   42GLOH    O3 8767   3.424   2.022   0.117  0.0014 -0.0051 -0.2002
   42GLOH   H01 8768   3.440   1.985   0.206  3.2666 -2.0624 -1.5568
   43GLOH   H03 8769   3.762   9.631   2.642 -0.0463 -0.1235 -1.4443
   43GLOH    O1 8770   3.763   9.727   2.657  0.8099 -0.2640 -0.5190
   43GLOH    C1 8771   3.857   9.781   2.755  0.4300  0.3787  0.5822
   43GLOH   H02 8772   3.959   9.748   2.739 -0.0056 -0.7956  0.1491
   43GLOH   H08 8773   3.823   9.746   2.852  1.4966 -0.8384  0.5403
   43GLOH    C2 8774   3.862   9.940   2.765  0.3054  0.1214  0.6512
   43GLOH   H04 8775   3.759   9.977   2.757  0.8245  1.1877 -1.7451
   43GLOH    O2 8776   3.930   9.964   2.894 -0.0574 -0.1350 -0.2831
   43GLOH   H05 8777   3.912  10.057   2.913 -2.9961 -1.0845  1.9009
   43GLOH    C3 8778   3.939  10.003   2.646  0.3745  0.3351 -0.4986
   43GLOH   H06 8779   4.043   9.972   2.649  0.1024 -0.6510 -0.8552
   43GLOH   H07 8780   3.937  10.110   2.663 -0.4489  0.1871  0.4137
   43GLOH    O3 8781   3.872   9.972   2.528 -0.1849 -0.3790 -0.2615
   43GLOH   H01 8782   3.828   9.885   2.538 -0.0337 -0.3480  0.7276
   44GLOH   H03 8783   3.705   4.030   1.777  0.5907  0.0226  2.4987
   44GLOH    O1 8784   3.785   4.085   1.767  0.1854  0.2656  0.4205
   44GLOH    C1 8785   3.776   4.173   1.884 -0.0655 -0.1055 -0.5502
   44GLOH   H02 8786   3.698   4.249   1.880 -0.0282  0.0287  1.1390
   44GLOH   H08 8787   3.869   4.227   1.900 -0.0778 -0.2601  0.0279
   44GLOH    C2 8788   3.760   4.095   2.013  0.2570 -0.2454 -0.7207
   44GLOH   H04 8789   3.848   4.031   2.029  0.7632  1.0943  2.1962
   44GLOH    O2 8790   3.760   4.194   2.117  0.2451  0.3199  0.0967
   44GLOH   H05 8791   3.850   4.229   2.125  0.4295 -0.4952  1.8060
   44GLOH    C3 8792   3.632   4.014   2.018 -0.0932  0.1014 -0.3224
   44GLOH   H06 8793   3.541   4.073   2.009 -1.6433 -1.8154  1.8438
   44GLOH   H07 8794   3.637   3.967   2.117  0.6538  2.4119  0.7559
   44GLOH    O3 8795   3.632   3.921   1.902 -0.7585  0.0919 -0.6791
   44GLOH   H01 8796   3.574   3.843   1.917  3.0059 -2.6294  0.4948
   45GLOH   H03 8797   3.528   2.060   2.380 -0.0736  0.0112 -0.3931
   45GLOH    O1 8798   3.475   2.068   2.299 -0.2421 -0.3961 -0.3208
   45GLOH    C1 8799   3.378   2.174   2.318  0.5561 -0.0041  0.9393
   45GLOH   H02 8800   3.368   2.212   2.420 -1.6917  0.0483  0.7221
   45GLOH   H08 8801   3.276   2.143   2.299  0.1885  1.6111  0.1596
   45GLOH    C2 8802   3.411   2.290   2.220 -0.0732 -1.0665 -0.1429
   45GLOH   H04 8803   3.412   2.266   2.112  2.5081  3.6382 -1.3168
   45GLOH    O2 8804   3.318   2.399   2.237 -1.2338  0.0421  0.2046
   45GLOH   H05 8805   3.350   2.478   2.189  0.1058 -2.0399 -2.4263
   45GLOH    C3 8806   3.556   2.347   2.235  0.1053  0.0703 -0.2611
   45GLOH   H06 8807   3.616   2.257   2.228  1.5943  0.9653  0.6915
   45GLOH   H07 8808   3.563   2.392   2.335  0.3695 -0.4641 -0.0392
   45GLOH    O3 8809   3.592   2.442   2.138 -0.0168 -0.2180 -0.2380
   45GLOH   H01 8810   3.575   2.530   2.175  0.2165 -1.0828  2.0164
   46GLOH   H03 8811   3.778   9.146   0.942  2.2246 -1.5328 -2.0511
   46GLOH    O1 8812   3.728   9.064   0.926 -0.4649 -0.3502 -0.1352
   46GLOH    C1 8813   3.689   8.999   1.051  0.2176 -0.3972  0.2551
   46GLOH   H02 8814   3.773   8.948   1.099 -0.0367 -0.8236  0.2434
   46GLOH   H08 8815   3.611   8.926   1.034  0.5525 -0.7128  0.0561
   46GLOH    C2 8816   3.629   9.097   1.151 -0.4868  0.0034 -0.1182
   46GLOH   H04 8817   3.619   9.049   1.249  0.5818 -0.8390 -0.4137
   46GLOH    O2 8818   3.727   9.205   1.165  0.0944 -0.1610 -0.2057
   46GLOH   H05 8819   3.705   9.280   1.108  2.6781 -1.0052 -2.4417
   46GLOH    C3 8820   3.489   9.149   1.105 -0.0974 -0.0883  0.8243
   46GLOH   H06 8821   3.434   9.067   1.058  2.8630 -0.5594 -1.9607
   46GLOH   H07 8822   3.498   9.224   1.026  1.9854  0.3477  1.4624
   46GLOH    O3 8823   3.420   9.214   1.211 -0.4333 -0.0820 -0.0658
   46GLOH   H01 8824   3.419   9.312   1.208 -0.0298 -0.0779 -0.0456
   47GLOH   H03 8825   4.030   0.678   0.923 -1.0155 -1.0175  0.5518
   47GLOH    O1 8826   4.010   0.750   0.986  0.0328  0.2823 -0.5735
   47GLOH    C1 8827   3.870   0.783   0.989 -0.2097 -0.5704  0.6682
   47GLOH   H02 8828   3.852   0.863   1.061  1.7384 -0.9963  1.6808
   47GLOH   H08 8829   3.821   0.692   1.026 -0.1635 -0.9058 -0.0990
   47GLOH    C2 8830   3.796   0.833   0.860 -0.4987 -0.2267  0.7383
   47GLOH   H04 8831   3.789   0.756   0.782 -0.7653  0.3185  0.2276
   47GLOH    O2 8832   3.661   0.863   0.886 -0.1230 -0.3241 -0.6498
   47GLOH   H05 8833   3.627   0.920   0.814  4.7622  3.1688 -0.5422
   47GLOH    C3 8834   3.874   0.959   0.801  0.1351  0.3555  0.2504
   47GLOH   H06 8835   3.971   0.923   0.766 -1.9191 -0.8970 -4.4483
   47GLOH   H07 8836   3.886   1.026   0.886  1.6834 -1.7707  1.7850
   47GLOH    O3 8837   3.812   1.024   0.691  0.2768 -0.9373  0.7190
   47GLOH   H01 8838   3.760   0.958   0.642 -0.2587  0.5657 -0.7825
   48GLOH   H03 8839   3.446   0.258   1.356 -0.9594  0.3042  1.1834
   48GLOH    O1 8840   3.537   0.274   1.387 -0.4715 -0.0285 -0.0407
   48GLOH    C1 8841   3.580   0.399   1.319  0.1148  0.4901  0.9460
   48GLOH   H02 8842   3.572   0.485   1.386  0.4863  1.7627 -0.6188
   48GLOH   H08 8843   3.530   0.409   1.223 -1.4722  0.3494  1.7324
   48GLOH    C2 8844   3.732   0.395   1.297 -0.2251 -0.1743 -0.0122
   48GLOH   H04 8845   3.788   0.416   1.390  0.3077 -1.6026  0.0054
   48GLOH    O2 8846   3.767   0.270   1.240  0.2417  0.4795  0.4190
   48GLOH   H05 8847   3.727   0.187   1.270  1.9217 -0.1082  1.1144
   48GLOH    C3 8848   3.768   0.507   1.200 -0.3179 -0.5048 -0.9229
   48GLOH   H06 8849   3.701   0.494   1.115  1.0358  0.7648 -2.2134
   48GLOH   H07 8850   3.875   0.498   1.183 -0.0486 -1.0559  0.8983
   48GLOH    O3 8851   3.748   0.637   1.254 -0.3047 -0.5838 -0.3729
   48GLOH   H01 8852   3.698   0.675   1.180  0.8048 -0.3622 -1.0138
   49GLOH   H03 8853   3.997   2.113   1.536 -1.1562 -0.3704 -1.2447
   49GLOH    O1 8854   4.001   2.017   1.521 -0.5667 -0.5842  0.2163
   49GLOH    C1 8855   3.854   1.993   1.507 -0.1019  0.1397  0.5659
   49GLOH   H02 8856   3.814   2.026   1.603 -0.9473 -1.4103  0.7579
   49GLOH   H08 8857   3.821   1.891   1.489  0.4512 -0.1529  1.2320
   49GLOH    C2 8858   3.793   2.082   1.399 -0.0659 -0.5399  0.1965
   49GLOH   H04 8859   3.837   2.057   1.301  0.7365  0.4758  0.2911
   49GLOH    O2 8860   3.654   2.072   1.390  0.2836  0.1922  0.6574
   49GLOH   H05 8861   3.625   1.982   1.366  0.5059  0.6180 -1.3416
   49GLOH    C3 8862   3.826   2.229   1.434 -0.0596  0.3491 -0.6238
   49GLOH   H06 8863   3.749   2.248   1.510 -0.9561 -2.3696 -0.8167
   49GLOH   H07 8864   3.803   2.305   1.360  0.8039  0.5251 -0.7090
   49GLOH    O3 8865   3.960   2.262   1.481 -0.0719 -0.2522  0.0839
   49GLOH   H01 8866   3.971   2.330   1.549 -0.0756 -0.8471  0.6822
   50GLOH   H03 8867   3.317   3.188   2.249 -0.1534  0.5659 -2.5790
   50GLOH    O1 8868   3.389   3.126   2.227  0.5095  0.4549 -0.2639
   50GLOH    C1 8869   3.380   3.010   2.314 -0.4627  0.1305 -0.1840
   50GLOH   H02 8870   3.400   3.037   2.417  1.3021 -1.3007 -0.1229
   50GLOH   H08 8871   3.464   2.941   2.307 -1.5926 -1.4036  0.9712
   50GLOH    C2 8872   3.258   2.919   2.298  0.6099 -0.3254  1.1855
   50GLOH   H04 8873   3.280   2.866   2.204 -0.4289 -0.1898  0.8516
   50GLOH    O2 8874   3.240   2.823   2.403  0.1092 -0.6631  0.1078
   50GLOH   H05 8875   3.220   2.732   2.376 -0.8281 -0.4469  0.0764
   50GLOH    C3 8876   3.133   3.011   2.286  0.7051 -0.4679  0.2022
   50GLOH   H06 8877   3.155   3.077   2.203 -0.3729 -2.5293 -1.7979
   50GLOH   H07 8878   3.119   3.071   2.375  0.2053  1.0877 -0.9111
   50GLOH    O3 8879   3.029   2.929   2.250  0.2540  0.4666 -0.1435
   50GLOH   H01 8880   2.944   2.966   2.280 -0.2037 -0.5664 -0.1790
   51GLOH   H03 8881   3.674   0.815   0.177 -0.3047  0.4906 -2.3622
   51GLOH    O1 8882   3.696   0.908   0.197 -0.1672  0.0633 -0.4901
   51GLOH    C1 8883   3.811   0.925   0.274  0.4513  0.0275 -0.1473
   51GLOH   H02 8884   3.806   1.029   0.304  1.8151  0.3932 -1.1362
   51GLOH   H08 8885   3.902   0.900   0.218  0.4085 -1.3882  0.4068
   51GLOH    C2 8886   3.806   0.841   0.408 -0.5894  0.0000  0.0200
   51GLOH   H04 8887   3.901   0.875   0.453 -0.8805  3.5836 -1.8164
   51GLOH    O2 8888   3.693   0.886   0.486  0.2801  0.0670  0.0943
   51GLOH   H05 8889   3.611   0.866   0.438 -0.5987  0.3565  1.4479
   51GLOH    C3 8890   3.818   0.688   0.389  0.1310  0.8762 -0.2221
   51GLOH   H06 8891   3.753   0.644   0.313 -0.6149 -0.1060  0.9557
   51GLOH   H07 8892   3.797   0.637   0.483  0.4952  1.5041  0.2010
   51GLOH    O3 8893   3.952   0.654   0.351  0.1092  0.2630 -0.1243
   51GLOH   H01 8894   3.955   0.596   0.273 -0.2556  0.2929 -0.1644
   52GLOH   H03 8895   3.151   2.713   1.153 -0.9005  1.1154  1.6907
   52GLOH    O1 8896   3.142   2.792   1.097 -0.0725  0.0400  0.0344
   52GLOH    C1 8897   3.273   2.847   1.090 -0.0287 -0.5306 -0.2928
   52GLOH   H02 8898   3.347   2.770   1.069  0.2876 -0.5232  0.7494
   52GLOH   H08 8899   3.296   2.889   1.188 -4.2842  0.3639  0.3928
   52GLOH    C2 8900   3.282   2.950   0.978  0.3477  0.0128 -0.1235
   52GLOH   H04 8901   3.200   3.023   0.990 -0.6192 -1.0236 -0.3572
   52GLOH    O2 8902   3.407   3.015   0.971 -0.5189 -0.9831 -0.3665
   52GLOH   H05 8903   3.396   3.106   1.004  0.4859 -1.0345  0.1564
   52GLOH    C3 8904   3.253   2.877   0.844 -0.6422  0.0902  0.1196
   52GLOH   H06 8905   3.315   2.787   0.848 -1.5327 -0.4890  1.1934
   52GLOH   H07 8906   3.286   2.934   0.758  0.0746 -2.1329 -1.1191
   52GLOH    O3 8907   3.121   2.826   0.828 -0.2746  0.0969 -0.2419
   52GLOH   H01 8908   3.086   2.830   0.919  0.9673 -1.8621  0.3704
   53GLOH   H03 8909   2.999   2.276   1.904  0.8013 -1.0871  1.4466
   53GLOH    O1 8910   3.060   2.256   1.831 -0.2151  0.0459  0.2619
   53GLOH    C1 8911   3.197   2.278   1.889 -0.4281  0.3960 -0.3506
   53GLOH   H02 8912   3.195   2.324   1.988 -0.6907 -0.8171  0.2305
   53GLOH   H08 8913   3.251   2.347   1.826  1.5601 -0.2108  0.6211
   53GLOH    C2 8914   3.292   2.152   1.887  0.1022  0.1965 -0.0148
   53GLOH   H04 8915   3.392   2.185   1.917  0.3556 -2.2685  2.0603
   53GLOH    O2 8916   3.250   2.047   1.982  0.0099  0.2463 -0.0812
   53GLOH   H05 8917   3.326   1.992   2.005 -0.6545 -0.2027  1.0637
   53GLOH    C3 8918   3.279   2.084   1.747 -0.3371 -0.0011  0.0803
   53GLOH   H06 8919   3.282   2.161   1.669 -0.4904  0.0336  0.1096
   53GLOH   H07 8920   3.180   2.044   1.729  0.3353 -0.6530 -2.4333
   53GLOH    O3 8921   3.376   1.974   1.726  0.2227  0.1676 -0.4997
   53GLOH   H01 8922   3.340   1.904   1.782 -1.2483 -0.9083 -2.7354
   54GLOH   H03 8923   3.898   2.570   1.580 -0.4672 -0.0897 -0.0649
   54GLOH    O1 8924   3.965   2.503   1.602 -0.0668  0.4593  0.3975
   54GLOH    C1 8925   4.055   2.573   1.693 -0.4986  0.1263  0.9483
   54GLOH   H02 8926   4.013   2.557   1.792 -3.7695 -1.8759 -0.6651
   54GLOH   H08 8927   4.048   2.678   1.667  0.8603 -0.1685 -0.6991
   54GLOH    C2 8928   4.204   2.530   1.672  0.1328  0.1499 -0.4365
   54GLOH   H04 8929   4.222   2.523   1.564 -2.7781  0.0936 -0.9797
   54GLOH    O2 8930   4.287   2.628   1.730 -0.6711 -0.0612 -0.3405
   54GLOH   H05 8931   4.268   2.715   1.692  0.7975  0.1818 -0.5758
   54GLOH    C3 8932   4.236   2.402   1.759 -0.0966  0.4115  0.4324
   54GLOH   H06 8933   4.182   2.408   1.853 -0.4866  1.2062  0.1595
   54GLOH   H07 8934   4.344   2.391   1.774  0.2447 -0.3544 -2.1811
   54GLOH    O3 8935   4.190   2.283   1.686 -0.1670  0.3853 -0.0148
   54GLOH   H01 8936   4.097   2.266   1.710  0.1621  1.7940  2.3614
   55GLOH   H03 8937   4.298   2.397   0.751 -1.0113  1.1687  2.0976
   55GLOH    O1 8938   4.370   2.360   0.805  0.1016 -0.3454 -0.3148
   55GLOH    C1 8939   4.474   2.302   0.725 -0.0012  0.5600  0.6005
   55GLOH   H02 8940   4.524   2.220   0.777 -0.6523 -0.0353  0.2931
   55GLOH   H08 8941   4.552   2.370   0.691  1.4645 -1.8659 -1.1117
   55GLOH    C2 8942   4.410   2.241   0.599 -0.0290 -0.4889 -0.1785
   55GLOH   H04 8943   4.337   2.162   0.621 -1.0915  0.6217  0.3493
   55GLOH    O2 8944   4.336   2.340   0.526  0.2116 -0.1580  0.0165
   55GLOH   H05 8945   4.262   2.368   0.582 -0.0353 -0.0080 -0.3875
   55GLOH    C3 8946   4.526   2.182   0.513  0.3748 -0.4798  0.7381
   55GLOH   H06 8947   4.611   2.246   0.492  0.0859  0.4384  2.2881
   55GLOH   H07 8948   4.480   2.154   0.418 -0.7150  2.9105  0.2191
   55GLOH    O3 8949   4.579   2.069   0.579  0.1782 -0.7754 -0.1127
   55GLOH   H01 8950   4.658   2.054   0.523 -0.7489 -0.8604 -1.4172
   56GLOH   H03 8951   4.604   1.336   0.882 -2.2813 -0.1207 -0.4315
   56GLOH    O1 8952   4.591   1.432   0.870 -0.8037  0.0855 -0.5266
   56GLOH    C1 8953   4.574   1.438   0.728 -1.0822  0.3737 -0.0642
   56GLOH   H02 8954   4.483   1.381   0.707 -0.8882  0.2224 -0.4948
   56GLOH   H08 8955   4.659   1.400   0.673  1.6104  2.9557  2.1413
   56GLOH    C2 8956   4.547   1.581   0.671  0.2195  0.0406 -0.4327
   56GLOH   H04 8957   4.628   1.646   0.706  0.7276 -0.9008  0.1791
   56GLOH    O2 8958   4.534   1.594   0.527  0.2621 -0.0923 -0.2012
   56GLOH   H05 8959   4.501   1.678   0.490  1.3724  0.2664 -0.3932
   56GLOH    C3 8960   4.421   1.635   0.748  0.4847 -0.0080  0.1085
   56GLOH   H06 8961   4.442   1.627   0.854  0.8022  0.6689  0.0989
   56GLOH   H07 8962   4.342   1.563   0.727 -0.0170  0.6296 -0.2161
   56GLOH    O3 8963   4.383   1.767   0.713  0.0526  0.5827 -0.1745
   56GLOH   H01 8964   4.422   1.831   0.776 -2.2314  1.0521  0.8034
   57GLOH   H03 8965   3.492   9.032   2.158 -0.0021 -1.0755  1.1132
   57GLOH    O1 8966   3.543   9.087   2.220  0.1976  0.4784 -0.4077
   57GLOH    C1 8967   3.653   9.145   2.141 -0.6611  0.3146  0.2118
   57GLOH   H02 8968   3.624   9.213   2.061 -0.0321 -2.1357 -2.1333
   57GLOH   H08 8969   3.704   9.064   2.089 -1.9857 -1.0682  1.0318
   57GLOH    C2 8970   3.755   9.227   2.226  0.0957  0.0934 -0.0069
   57GLOH   H04 8971   3.810   9.154   2.288 -2.0806 -0.0468  1.8199
   57GLOH    O2 8972   3.846   9.305   2.137  0.1294  0.1590  0.1330
   57GLOH   H05 8973   3.892   9.242   2.079  1.9667  1.3850  0.2237
   57GLOH    C3 8974   3.683   9.314   2.326 -0.2306  0.0955 -0.3891
   57GLOH   H06 8975   3.752   9.375   2.385 -2.3363  0.8625  1.3497
   57GLOH   H07 8976   3.622   9.248   2.389 -1.3984 -0.7055 -2.3199
   57GLOH    O3 8977   3.586   9.394   2.260  0.1883  0.3819  0.4057
   57GLOH   H01 8978   3.619   9.425   2.174 -0.0332 -1.9831 -0.5660
   58GLOH   H03 8979   4.111   3.220   1.868  0.0226 -0.0818  0.4794
   58GLOH    O1 8980   4.193   3.172   1.846 -0.0697 -0.0942  0.1575
   58GLOH    C1 8981   4.253   3.228   1.725  0.5814  0.1496  0.2211
   58GLOH   H02 8982   4.236   3.336   1.729 -1.8587 -0.2010  0.6470
   58GLOH   H08 8983   4.198   3.184   1.642 -1.5161  2.0432  0.5549
   58GLOH    C2 8984   4.404   3.200   1.701 -0.6072 -0.2751 -0.7723
   58GLOH   H04 8985   4.447   3.267   1.776  2.9055 -0.3195 -2.5995
   58GLOH    O2 8986   4.458   3.066   1.730 -0.4061  0.3510  0.4692
   58GLOH   H05 8987   4.551   3.067   1.705 -0.3333  0.7275  0.7406
   58GLOH    C3 8988   4.446   3.234   1.561 -0.4376 -0.3399  0.3740
   58GLOH   H06 8989   4.408   3.158   1.493 -3.3453 -2.1248  3.8531
   58GLOH   H07 8990   4.555   3.239   1.561 -0.4133 -0.7461 -0.3853
   58GLOH    O3 8991   4.400   3.363   1.520 -0.1983 -0.3457 -0.1117
   58GLOH   H01 8992   4.424   3.426   1.590  0.9381 -0.5114 -0.3287
   59GLOH   H03 8993   4.823   1.264   2.848  1.7593 -1.3776 -1.5138
   59GLOH    O1 8994   4.795   1.321   2.774  0.0386 -0.0696  0.1293
   59GLOH    C1 8995   4.758   1.456   2.812  0.0465 -0.0648  0.1484
   59GLOH   H02 8996   4.843   1.524   2.819  0.0140 -0.0379  0.2650
   59GLOH   H08 8997   4.708   1.444   2.908  0.9205  1.9826  0.8864
   59GLOH    C2 8998   4.649   1.516   2.717  0.2673  0.2532  0.8166
   59GLOH   H04 8999   4.554   1.461   2.723  0.3745 -0.2361 -1.4119
   59GLOH    O2 9000   4.630   1.653   2.747  0.4690  0.2682  0.2884
   59GLOH   H05 9001   4.538   1.666   2.719 -0.1164 -1.0764  1.4941
   59GLOH    C3 9002   4.695   1.504   2.572 -0.0086 -0.4149 -0.3418
   59GLOH   H06 9003   4.791   1.553   2.559 -1.6315  2.9841 -0.0427
   59GLOH   H07 9004   4.626   1.554   2.504  0.6723 -1.1459 -1.5862
   59GLOH    O3 9005   4.695   1.364   2.541 -0.1419 -0.6376  0.2255
   59GLOH   H01 9006   4.763   1.327   2.600 -0.1246 -0.3271  0.4055
   60GLOH   H03 9007   3.483   3.625   0.054  0.3509  0.3360 -0.0948
   60GLOH    O1 9008   3.463   3.579   0.138 -0.2791 -0.0432 -0.4540
   60GLOH    C1 9009   3.483   3.671   0.254 -0.2866  0.4927  0.6658
   60GLOH   H02 9010   3.421   3.655   0.342  0.1515  1.1084  1.0934
   60GLOH   H08 9011   3.464   3.772   0.218 -1.1378 -0.2460 -1.0348
   60GLOH    C2 9012   3.624   3.650   0.302  0.5318 -0.9985 -0.1344
   60GLOH   H04 9013   3.681   3.647   0.208 -0.8007 -0.7465 -0.9604
   60GLOH    O2 9014   3.672   3.755   0.388  0.1022 -0.3348  0.0755
   60GLOH   H05 9015   3.762   3.782   0.365  0.0744 -1.4357 -1.3436
   60GLOH    C3 9016   3.640   3.514   0.376  0.1546 -0.2140  0.5001
   60GLOH   H06 9017   3.631   3.443   0.294  1.1727 -1.6898  1.6352
   60GLOH   H07 9018   3.559   3.497   0.447 -0.9741 -2.7419 -1.3099
   60GLOH    O3 9019   3.758   3.481   0.443 -0.7424 -0.2031  0.0849
   60GLOH   H01 9020   3.754   3.523   0.531 -1.5929 -0.1759  0.0334
   61GLOH   H03 9021   3.480   0.398   0.944 -1.3360 -2.5797  0.0760
   61GLOH    O1 9022   3.530   0.355   0.873  0.2667  0.1853 -0.5219
   61GLOH    C1 9023   3.612   0.243   0.924 -0.4115 -0.3304 -0.3744
   61GLOH   H02 9024   3.612   0.240   1.033  0.7148 -0.0776 -0.3604
   61GLOH   H08 9025   3.714   0.260   0.887 -0.6971 -0.0369 -1.0286
   61GLOH    C2 9026   3.563   0.099   0.874  0.2766  0.1933  0.6486
   61GLOH   H04 9027   3.558   0.099   0.764 -1.9050  1.7253  0.7171
   61GLOH    O2 9028   3.641  -0.006   0.927 -0.1223 -0.0606 -0.2522
   61GLOH   H05 9029   3.718  -0.010   0.868  0.7247 -1.5036  0.9137
   61GLOH    C3 9030   3.428   0.072   0.941  0.3099 -0.1914  0.4011
   61GLOH   H06 9031   3.419   0.112   1.042 -0.3010  1.6674 -0.3853
   61GLOH   H07 9032   3.423  -0.037   0.931  1.0210 -0.2983  1.1671
   61GLOH    O3 9033   3.316   0.122   0.869 -0.6703  0.0092 -0.2256
   61GLOH   H01 9034   3.312   0.087   0.778  0.9267  0.5403 -0.5152
   62GLOH   H03 9035   3.294   2.586   0.664  0.5442 -2.1743 -1.2815
   62GLOH    O1 9036   3.390   2.598   0.671  0.1833  0.3768 -0.1916
   62GLOH    C1 9037   3.433   2.655   0.543 -0.1090  0.0333 -0.2810
   62GLOH   H02 9038   3.542   2.655   0.532  0.0108  0.5917  0.8138
   62GLOH   H08 9039   3.391   2.755   0.534  1.1999  0.4658 -1.9375
   62GLOH    C2 9040   3.370   2.572   0.430  0.1934 -0.3638 -0.0489
   62GLOH   H04 9041   3.261   2.571   0.446  0.3344  1.7922  1.2476
   62GLOH    O2 9042   3.389   2.640   0.308 -0.7252  0.4005  0.1537
   62GLOH   H05 9043   3.464   2.699   0.322  1.8787 -2.8776  0.6619
   62GLOH    C3 9044   3.424   2.427   0.429  0.5374 -0.3791 -0.2397
   62GLOH   H06 9045   3.532   2.430   0.447  0.7732 -0.7743 -1.5330
   62GLOH   H07 9046   3.402   2.381   0.333 -0.0728  1.6804 -1.1228
   62GLOH    O3 9047   3.376   2.350   0.536 -0.1843 -0.2357 -0.0398
   62GLOH   H01 9048   3.385   2.404   0.616 -0.7203 -0.2715  0.0475
   63GLOH   H03 9049   4.621   0.880   0.465  2.0592  3.0119  0.3986
   63GLOH    O1 9050   4.594   0.908   0.376 -0.2201 -0.3296 -0.0364
   63GLOH    C1 9051   4.456   0.872   0.355  0.0720 -0.4143 -0.2667
   63GLOH   H02 9052   4.387   0.945   0.397  1.5372  1.1132 -0.4783
   63GLOH   H08 9053   4.429   0.778   0.403  0.5043  0.4697  1.7504
   63GLOH    C2 9054   4.422   0.857   0.206 -0.0894  0.3513 -0.7366
   63GLOH   H04 9055   4.475   0.769   0.165 -0.8365 -0.2740 -0.3717
   63GLOH    O2 9056   4.277   0.844   0.182  0.1553  0.5840  0.3433
   63GLOH   H05 9057   4.228   0.927   0.195 -2.4066 -0.6757 -0.8993
   63GLOH    C3 9058   4.453   0.982   0.126  0.1982  0.5461 -0.5170
   63GLOH   H06 9059   4.389   1.067   0.149  1.8490  2.0669 -1.4670
   63GLOH   H07 9060   4.442   0.977   0.018  2.0607  1.2151 -0.7603
   63GLOH    O3 9061   4.589   1.033   0.158  0.0423  0.1452  0.3882
   63GLOH   H01 9062   4.629   0.997   0.239  0.6302  0.4546  0.2385
   64GLOH   H03 9063   4.108   2.705   2.495  0.4719  0.8973 -0.8787
   64GLOH    O1 9064   4.083   2.625   2.446  0.3078  0.1716  0.3475
   64GLOH    C1 9065   3.958   2.579   2.503  0.2682  0.3486 -0.3612
   64GLOH   H02 9066   3.897   2.516   2.437 -2.3048  0.2915  1.9807
   64GLOH   H08 9067   3.898   2.670   2.512  0.7385  0.8702 -2.1842
   64GLOH    C2 9068   3.966   2.514   2.645 -0.6328  0.1441  0.4587
   64GLOH   H04 9069   3.986   2.589   2.722 -1.8107 -1.8120  2.7528
   64GLOH    O2 9070   3.845   2.446   2.672 -0.2740  0.4282  0.4750
   64GLOH   H05 9071   3.836   2.437   2.768  2.0169 -0.2120  0.6456
   64GLOH    C3 9072   4.092   2.425   2.656 -0.4431 -0.0206  0.1050
   64GLOH   H06 9073   4.095   2.393   2.761 -0.5064  0.5998  0.2966
   64GLOH   H07 9074   4.178   2.488   2.635 -0.4936  0.2437  0.6779
   64GLOH    O3 9075   4.099   2.317   2.564  0.4341 -0.0105 -0.6712
   64GLOH   H01 9076   4.149   2.244   2.605 -1.5517 -1.1690 -0.2352
   65GLOH   H03 9077   3.994   9.437   1.774 -1.5268 -0.6439 -0.4480
   65GLOH    O1 9078   4.050   9.388   1.711 -0.0039  0.0904  0.3300
   65GLOH    C1 9079   3.962   9.349   1.606 -0.3300  0.0650 -0.0870
   65GLOH   H02 9080   4.001   9.376   1.507  0.3874  0.9242  0.4191
   65GLOH   H08 9081   3.870   9.406   1.605  1.2214  2.7040 -2.5061
   65GLOH    C2 9082   3.933   9.199   1.598 -0.3129 -0.1720 -0.1274
   65GLOH   H04 9083   4.031   9.150   1.601 -0.0064  0.4662  0.6169
   65GLOH    O2 9084   3.863   9.144   1.718 -0.0240 -0.2606 -0.1096
   65GLOH   H05 9085   3.927   9.126   1.790 -0.1494 -1.2046 -0.2253
   65GLOH    C3 9086   3.845   9.181   1.474  0.7648  0.1336  0.6867
   65GLOH   H06 9087   3.755   9.243   1.487  0.3422  0.1272 -1.8846
   65GLOH   H07 9088   3.800   9.082   1.480  0.2417  0.2593 -0.9559
   65GLOH    O3 9089   3.900   9.215   1.342  0.3951 -0.6566 -0.8294
   65GLOH   H01 9090   3.832   9.231   1.274 -0.0245  0.2198 -0.2172
   66GLOH   H03 9091   3.522   9.244  -0.072 -0.3416  2.3463  1.7725
   66GLOH    O1 9092   3.618   9.258  -0.065  0.2535 -0.5641  0.2502
   66GLOH    C1 9093   3.651   9.238   0.074 -0.2041  0.1410 -0.0864
   66GLOH   H02 9094   3.740   9.177   0.069  1.4575  2.6191 -2.1622
   66GLOH   H08 9095   3.566   9.191   0.124  0.1753 -1.0820 -0.5953
   66GLOH    C2 9096   3.679   9.370   0.140  0.0813 -0.3346  0.0591
   66GLOH   H04 9097   3.590   9.434   0.132 -0.0249 -0.3739  0.9241
   66GLOH    O2 9098   3.699   9.364   0.279  0.2245 -0.1216 -0.0086
   66GLOH   H05 9099   3.711   9.453   0.316  1.3476 -0.6469  0.9162
   66GLOH    C3 9100   3.796   9.445   0.074  0.2103 -0.2113  0.6050
   66GLOH   H06 9101   3.883   9.380   0.089  1.6188  1.9756  2.1320
   66GLOH   H07 9102   3.810   9.538   0.129  0.9398 -0.1782  0.3823
   66GLOH    O3 9103   3.778   9.467  -0.066 -0.1278  0.4853  0.5162
   66GLOH   H01 9104   3.711   9.405  -0.102  1.3732 -1.7506  1.4658
   67GLOH   H03 9105   4.852   2.248   1.777  1.2079 -0.4133  1.2100
   67GLOH    O1 9106   4.818   2.319   1.834  0.3324  0.1003  0.0730
   67GLOH    C1 9107   4.688   2.289   1.885 -0.3704 -0.3172  0.0650
   67GLOH   H02 9108   4.682   2.181   1.901 -5.0858 -0.2085 -0.3629
   67GLOH   H08 9109   4.615   2.316   1.809 -0.2105  2.6446  0.9163
   67GLOH    C2 9110   4.648   2.359   2.014 -0.6321 -0.0472  0.6595
   67GLOH   H04 9111   4.628   2.466   2.000 -0.7827  0.1186  2.0097
   67GLOH    O2 9112   4.526   2.298   2.061 -0.6211 -0.2406  0.2539
   67GLOH   H05 9113   4.454   2.363   2.070 -3.2943 -2.9879 -0.5355
   67GLOH    C3 9114   4.757   2.367   2.123  0.1481 -0.3027  0.6531
   67GLOH   H06 9115   4.771   2.274   2.177 -0.6351  0.9036  2.9897
   67GLOH   H07 9116   4.711   2.435   2.194  0.6166 -1.6491  2.2688
   67GLOH    O3 9117   4.878   2.418   2.078  0.1553 -0.0132 -0.1011
   67GLOH   H01 9118   4.902   2.368   1.998 -1.6599  0.3588 -0.9104
   68GLOH   H03 9119   4.808   2.826   1.969  0.8826 -0.0674  0.8254
   68GLOH    O1 9120   4.770   2.908   2.004  0.1359 -0.1397  0.1847
   68GLOH    C1 9121   4.627   2.898   1.996  0.1178 -0.5847  0.5516
   68GLOH   H02 9122   4.588   2.966   1.920 -1.3508 -1.7733  0.2323
   68GLOH   H08 9123   4.593   2.929   2.094  0.2817 -0.2721  0.5106
   68GLOH    C2 9124   4.573   2.758   1.968  0.2823 -0.2132  0.3236
   68GLOH   H04 9125   4.624   2.689   2.036  1.5712 -2.5425 -2.8948
   68GLOH    O2 9126   4.427   2.757   1.989  0.0458  0.1980  0.2561
   68GLOH   H05 9127   4.380   2.834   1.953  0.4782 -0.4028 -1.6601
   68GLOH    C3 9128   4.607   2.712   1.821  0.7380 -0.6048 -0.3523
   68GLOH   H06 9129   4.715   2.702   1.810  0.7543 -0.7064 -0.1191
   68GLOH   H07 9130   4.566   2.793   1.761 -0.3406 -0.4513  0.5870
   68GLOH    O3 9131   4.536   2.590   1.782  0.7023  0.7499  0.2251
   68GLOH   H01 9132   4.441   2.612   1.781  0.7727  1.1303  1.4153
   69GLOH   H03 9133   3.615   2.771   2.149 -1.2018  0.8007  0.8401
   69GLOH    O1 9134   3.649   2.844   2.094 -1.2384  0.2062  0.0285
   69GLOH    C1 9135   3.777   2.804   2.040  0.0320  0.3189 -0.9477
   69GLOH   H02 9136   3.822   2.887   1.986  1.2398  0.1940 -0.1495
   69GLOH   H08 9137   3.769   2.712   1.982  0.8242  0.7809 -1.7990
   69GLOH    C2 9138   3.885   2.784   2.147 -0.0694 -0.3164 -0.1499
   69GLOH   H04 9139   3.866   2.701   2.217 -0.7327 -0.0702 -0.0356
   69GLOH    O2 9140   4.009   2.758   2.075  0.6143  0.2851 -0.3379
   69GLOH   H05 9141   4.012   2.823   2.003  2.5829 -0.1948 -0.7272
   69GLOH    C3 9142   3.902   2.913   2.237  0.1498  0.3948 -0.2900
   69GLOH   H06 9143   3.926   3.000   2.176  2.2035  0.0487 -0.0087
   69GLOH   H07 9144   3.977   2.899   2.315  0.0506 -1.2067 -0.4809
   69GLOH    O3 9145   3.780   2.936   2.307 -0.2205 -0.5831  0.1880
   69GLOH   H01 9146   3.697   2.924   2.258 -0.2967  0.6055  0.0203
   70GLOH   H03 9147   4.283   1.437   1.149 -0.0049  1.3897 -1.1007
   70GLOH    O1 9148   4.234   1.390   1.079 -0.4496 -0.3046  0.2931
   70GLOH    C1 9149   4.325   1.347   0.974 -0.3482 -0.2314  0.1468
   70GLOH   H02 9150   4.402   1.286   1.021  1.7264 -1.1583 -4.1396
   70GLOH   H08 9151   4.363   1.435   0.922 -0.5967 -0.5611 -0.5988
   70GLOH    C2 9152   4.261   1.245   0.880  0.0463 -0.1313 -0.1877
   70GLOH   H04 9153   4.317   1.229   0.787 -1.1187  2.2666 -1.3475
   70GLOH    O2 9154   4.240   1.120   0.950 -0.2089 -0.2781 -0.2728
   70GLOH   H05 9155   4.178   1.144   1.021 -0.4981  0.1184 -0.6638
   70GLOH    C3 9156   4.120   1.287   0.831  0.2217 -0.3958  0.2600
   70GLOH   H06 9157   4.050   1.278   0.914 -1.4675 -0.5022 -1.1698
   70GLOH   H07 9158   4.082   1.215   0.759 -1.0351  0.9921 -0.4695
   70GLOH    O3 9159   4.114   1.413   0.770 -0.0392  0.1781 -0.5581
   70GLOH   H01 9160   4.123   1.479   0.841  1.8620  0.0194 -0.6464
   71GLOH   H03 9161   3.976   3.363   2.340 -0.3077  0.7946  1.2622
   71GLOH    O1 9162   4.064   3.381   2.378  0.2092  0.8235  0.0946
   71GLOH    C1 9163   4.050   3.505   2.443  0.3917  1.0276 -0.1030
   71GLOH   H02 9164   4.101   3.501   2.540  2.3855 -1.3245 -1.1895
   71GLOH   H08 9165   3.944   3.511   2.467 -0.2441  0.7333 -2.6929
   71GLOH    C2 9166   4.097   3.623   2.353 -0.1454  0.4141 -0.3628
   71GLOH   H04 9167   4.034   3.627   2.263 -0.3667  1.3458 -0.1740
   71GLOH    O2 9168   4.066   3.752   2.418 -0.0972 -0.1298 -0.1955
   71GLOH   H05 9169   4.102   3.816   2.354 -2.2377 -0.0312 -1.3677
   71GLOH    C3 9170   4.247   3.605   2.314 -0.4116 -0.0455 -0.3086
   71GLOH   H06 9171   4.294   3.590   2.411  1.0033 -0.0310 -0.9726
   71GLOH   H07 9172   4.295   3.689   2.264 -2.9577  2.4551  1.2853
   71GLOH    O3 9173   4.252   3.477   2.254  0.0907 -0.1343 -0.1527
   71GLOH   H01 9174   4.185   3.422   2.300 -1.1608  1.4605 -0.0076
   72GLOH   H03 9175   4.278   3.941   2.028 -1.5095  0.1378 -5.0338
   72GLOH    O1 9176   4.302   4.035   2.027 -0.0424 -0.0336  0.0634
   72GLOH    C1 9177   4.176   4.112   2.053 -0.5533  0.7825 -0.4678
   72GLOH   H02 9178   4.089   4.064   2.008  0.1691 -0.2197 -0.8232
   72GLOH   H08 9179   4.178   4.207   2.000 -0.3974  1.7067  1.1522
   72GLOH    C2 9180   4.152   4.149   2.202 -0.0875  0.5363  0.0218
   72GLOH   H04 9181   4.249   4.192   2.232 -1.0212  1.9385  1.1304
   72GLOH    O2 9182   4.046   4.248   2.211 -0.0989 -0.2152  0.3619
   72GLOH   H05 9183   4.060   4.296   2.294  0.5577 -1.1338  0.7895
   72GLOH    C3 9184   4.118   4.032   2.299  0.0292  0.4960  0.0375
   72GLOH   H06 9185   4.019   3.998   2.270 -0.1440  1.0601 -0.0466
   72GLOH   H07 9186   4.123   4.084   2.395  1.3864 -0.5252  0.5379
   72GLOH    O3 9187   4.217   3.928   2.300 -0.6345 -0.5618 -0.0448
   72GLOH   H01 9188   4.299   3.956   2.254 -0.8908  0.6557  0.2296
   73GLOH   H03 9189   4.555   2.041   2.551 -0.4440 -0.3882 -0.7082
   73GLOH    O1 9190   4.630   2.020   2.494  0.6986 -0.2742  0.7195
   73GLOH    C1 9191   4.575   2.003   2.360  0.0552  0.0504 -0.6794
   73GLOH   H02 9192   4.556   1.896   2.349 -1.2749  0.0304  1.4464
   73GLOH   H08 9193   4.650   2.014   2.282  1.2319 -0.4975  0.3554
   73GLOH    C2 9194   4.455   2.098   2.337  0.7283  0.1461  0.0745
   73GLOH   H04 9195   4.499   2.194   2.363  2.4066 -0.2411 -1.2639
   73GLOH    O2 9196   4.419   2.093   2.198  0.1906 -0.2185 -0.1653
   73GLOH   H05 9197   4.466   2.165   2.152 -0.6447  1.1057  1.0189
   73GLOH    C3 9198   4.336   2.064   2.428  0.1628  0.4574  0.5585
   73GLOH   H06 9199   4.283   1.983   2.379  0.7084  0.4774 -0.0778
   73GLOH   H07 9200   4.279   2.156   2.415  0.3743  0.1948 -2.6279
   73GLOH    O3 9201   4.359   2.045   2.566 -0.2132  0.2755  0.1438
   73GLOH   H01 9202   4.300   2.089   2.630  0.5431  3.5322 -1.2904
   74GLOH   H03 9203   3.367   0.323   0.546 -0.5516 -0.4802 -0.7566
   74GLOH    O1 9204   3.394   0.247   0.490  0.3141 -0.3467 -0.5354
   74GLOH    C1 9205   3.535   0.223   0.487  0.7811 -0.0174 -0.1759
   74GLOH   H02 9206   3.550   0.121   0.452 -0.5706  0.1455 -1.2620
   74GLOH   H08 9207   3.571   0.223   0.590 -1.8575 -0.3985  0.7744
   74GLOH    C2 9208   3.618   0.331   0.403  0.6385 -0.6079 -0.1707
   74GLOH   H04 9209   3.605   0.432   0.445  1.9037  1.2323 -4.0029
   74GLOH    O2 9210   3.757   0.299   0.421  0.0399  0.1821 -0.0411
   74GLOH   H05 9211   3.803   0.331   0.501 -0.1466  0.5776 -0.0900
   74GLOH    C3 9212   3.574   0.333   0.257 -0.2701  0.1968  0.5301
   74GLOH   H06 9213   3.618   0.412   0.196 -3.6445  1.5424 -0.2963
   74GLOH   H07 9214   3.470   0.365   0.264 -0.4795 -0.3279 -0.1112
   74GLOH    O3 9215   3.600   0.214   0.187  0.6329  1.3816  0.3445
   74GLOH   H01 9216   3.697   0.207   0.177  0.5661 -1.0557  1.0920
   75GLOH   H03 9217   4.053   1.229   1.193  0.3696  0.3080  1.2227
   75GLOH    O1 9218   4.085   1.141   1.163 -0.4091  0.2004  0.6744
   75GLOH    C1 9219   4.109   1.056   1.277  0.5328 -0.6783 -0.6643
   75GLOH   H02 9220   4.088   0.956   1.241  0.7211 -0.2281 -2.0280
   75GLOH   H08 9221   4.030   1.081   1.348 -0.5179 -0.9757 -1.7233
   75GLOH    C2 9222   4.246   1.056   1.341  0.4201 -0.2631  0.0471
   75GLOH   H04 9223   4.278   1.162   1.347 -0.5451  0.0284  0.1925
   75GLOH    O2 9224   4.237   1.005   1.474  0.1416 -0.0246  0.3663
   75GLOH   H05 9225   4.203   1.076   1.531  1.4135  1.5777 -0.8523
   75GLOH    C3 9226   4.344   0.980   1.249 -0.1268 -0.3590  0.5678
   75GLOH   H06 9227   4.343   1.021   1.148  2.5144  0.7633  0.9323
   75GLOH   H07 9228   4.319   0.875   1.237 -0.5897 -0.2954  0.9593
   75GLOH    O3 9229   4.480   0.998   1.295 -0.2997  0.6484 -0.1747
   75GLOH   H01 9230   4.492   1.094   1.290 -2.3172  0.9223  0.0931
   76GLOH   H03 9231   3.396   3.358   0.773 -0.1636 -2.2635 -2.4227
   76GLOH    O1 9232   3.315   3.406   0.749  0.2448 -0.1788  0.1446
   76GLOH    C1 9233   3.333   3.434   0.615 -1.2469 -0.4064 -0.1451
   76GLOH   H02 9234   3.392   3.351   0.575  0.3931  0.1065  1.1820
   76GLOH   H08 9235   3.397   3.520   0.597  0.1588 -1.5623 -0.8314
   76GLOH    C2 9236   3.204   3.439   0.530  0.0671 -0.3874 -0.2109
   76GLOH   H04 9237   3.133   3.498   0.589  0.3823  0.3300 -0.5473
   76GLOH    O2 9238   3.228   3.491   0.396  0.4717 -0.4280  0.1305
   76GLOH   H05 9239   3.173   3.444   0.331  0.9507  0.2193 -0.7486
   76GLOH    C3 9240   3.133   3.305   0.538 -0.5019  1.1397  0.1700
   76GLOH   H06 9241   3.105   3.280   0.640  0.1563  1.2523  0.3780
   76GLOH   H07 9242   3.217   3.240   0.511  0.4912  1.5504  2.1888
   76GLOH    O3 9243   3.015   3.290   0.458 -0.1258  0.1726  0.0200
   76GLOH   H01 9244   3.045   3.283   0.366  0.6910  0.2670  0.2783
   77GLOH   H03 9245   4.056   1.106   1.933 -1.6244  0.3298  1.8510
   77GLOH    O1 9246   3.998   1.166   1.881  0.4398 -0.2921 -1.3293
   77GLOH    C1 9247   3.855   1.124   1.892  0.0323 -0.0779  0.4624
   77GLOH   H02 9248   3.845   1.028   1.842  1.7954  0.3120 -0.7025
   77GLOH   H08 9249   3.802   1.193   1.827  2.2908  0.7265 -0.5839
   77GLOH    C2 9250   3.786   1.114   2.032 -0.2243 -0.9932  0.1862
   77GLOH   H04 9251   3.810   1.199   2.097  0.5693 -1.5145  0.5753
   77GLOH    O2 9252   3.642   1.097   2.032  0.2526 -0.4881 -0.1765
   77GLOH   H05 9253   3.622   1.023   1.971  0.0120  0.6641 -1.5215
   77GLOH    C3 9254   3.853   0.996   2.102 -0.4147 -0.2663  0.8523
   77GLOH   H06 9255   3.955   1.024   2.126 -0.7053 -0.6118  2.5716
   77GLOH   H07 9256   3.860   0.910   2.036 -0.0043  0.2120  0.2561
   77GLOH    O3 9257   3.786   0.954   2.221  0.2731  0.3212 -0.0848
   77GLOH   H01 9258   3.784   1.033   2.279 -0.6115  0.8011 -0.7669
   78GLOH   H03 9259   3.744   3.442   1.337 -1.1394  1.6890 -1.3777
   78GLOH    O1 9260   3.677   3.377   1.309 -0.1805 -0.1155  0.3897
   78GLOH    C1 9261   3.743   3.251   1.314 -0.1060 -0.2917 -0.4380
   78GLOH   H02 9262   3.783   3.228   1.413 -0.9613  0.5782  0.1121
   78GLOH   H08 9263   3.833   3.246   1.253  1.1990  0.5147  1.3550
   78GLOH    C2 9264   3.645   3.141   1.267 -0.5799  0.1145 -0.1918
   78GLOH   H04 9265   3.614   3.169   1.165 -0.7733 -0.1459 -0.2054
   78GLOH    O2 9266   3.713   3.013   1.248 -0.5908 -0.3991  0.2355
   78GLOH   H05 9267   3.701   2.983   1.156  2.8354 -1.2806  0.0305
   78GLOH    C3 9268   3.520   3.134   1.350 -1.1911  0.2321 -0.0799
   78GLOH   H06 9269   3.453   3.050   1.333 -0.3606 -0.5527  0.4615
   78GLOH   H07 9270   3.464   3.227   1.347 -0.2899  0.8688  2.0184
   78GLOH    O3 9271   3.568   3.109   1.485  0.3801 -0.7527  0.5952
   78GLOH   H01 9272   3.550   3.015   1.500 -0.9167 -0.8893 -1.6127
   79GLOH   H03 9273   2.993   2.652   0.235  3.6109  1.8370  0.7900
   79GLOH    O1 9274   3.001   2.652   0.138 -0.2551  0.1196  0.3622
   79GLOH    C1 9275   2.885   2.610   0.058 -0.2464  0.4614  0.1119
   79GLOH   H02 9276   2.909   2.617  -0.048  1.0865 -1.4577  0.2618
   79GLOH   H08 9277   2.798   2.673   0.077  0.0599  0.9196  0.0042
   79GLOH    C2 9278   2.844   2.463   0.072  0.9932 -0.1437 -0.2591
   79GLOH   H04 9279   2.789   2.447   0.166 -0.3143 -0.2300 -1.0276
   79GLOH    O2 9280   2.754   2.435  -0.034  0.3578 -0.2360  0.4908
   79GLOH   H05 9281   2.692   2.365  -0.006 -0.0957 -1.2205 -2.7333
   79GLOH    C3 9282   2.964   2.370   0.079 -0.6369  0.0329 -0.0110
   79GLOH   H06 9283   3.032   2.406   0.156  0.6567  0.1950 -1.1987
   79GLOH   H07 9284   3.019   2.368  -0.015  1.9673 -1.7494  1.4802
   79GLOH    O3 9285   2.929   2.235   0.111 -0.2411  0.0837 -0.3964
   79GLOH   H01 9286   3.012   2.192   0.140 -1.0439  0.1040  2.0816
   80GLOH   H03 9287   3.641   9.781   2.115 -0.3935 -0.8372  0.7290
   80GLOH    O1 9288   3.633   9.705   2.054 -0.0155 -0.3151  0.0283
   80GLOH    C1 9289   3.772   9.671   2.006  0.3318  0.2708  0.2958
   80GLOH   H02 9290   3.830   9.612   2.077  0.7873 -0.7066 -0.8828
   80GLOH   H08 9291   3.822   9.766   1.988 -1.3491  1.4016  1.4408
   80GLOH    C2 9292   3.765   9.606   1.876  0.3054  0.2408 -0.1654
   80GLOH   H04 9293   3.709   9.664   1.803 -1.5197 -3.4105 -1.8035
   80GLOH    O2 9294   3.900   9.578   1.835 -0.1062 -0.7766  0.0300
   80GLOH   H05 9295   3.954   9.655   1.811  1.1498 -1.9195 -0.8517
   80GLOH    C3 9296   3.690   9.470   1.898 -0.5466  0.4219  0.1301
   80GLOH   H06 9297   3.756   9.395   1.942 -0.6947 -0.7701 -1.5924
   80GLOH   H07 9298   3.680   9.428   1.797 -0.3589  0.7450 -0.0238
   80GLOH    O3 9299   3.568   9.483   1.972 -0.3099  0.0594 -0.3303
   80GLOH   H01 9300   3.574   9.563   2.027 -0.1063 -0.7399  0.8336
   81GLOH   H03 9301   4.270   3.239  -0.097  0.7586  1.3547 -0.4141
   81GLOH    O1 9302   4.347   3.266  -0.044  0.4989  0.1882  0.5944
   81GLOH    C1 9303   4.324   3.406  -0.003 -0.4712 -0.2612  0.3526
   81GLOH   H02 9304   4.229   3.414   0.052 -0.3384  0.6766  0.4487
   81GLOH   H08 9305   4.323   3.473  -0.089  0.7488  0.7112  1.0813
   81GLOH    C2 9306   4.452   3.443   0.081  0.4762  0.2885 -0.8006
   81GLOH   H04 9307   4.540   3.419   0.019  0.5920  2.3842 -1.4922
   81GLOH    O2 9308   4.446   3.586   0.109 -0.2215 -0.3459  0.1719
   81GLOH   H05 9309   4.449   3.639   0.028 -0.4305 -1.0743 -0.3112
   81GLOH    C3 9310   4.442   3.369   0.217 -0.0328  0.3763 -0.5221
   81GLOH   H06 9311   4.349   3.401   0.264  1.3657  0.7804  2.0734
   81GLOH   H07 9312   4.522   3.404   0.282 -0.7029  0.5318  0.2234
   81GLOH    O3 9313   4.436   3.226   0.201 -0.1844 -0.1335 -0.0964
   81GLOH   H01 9314   4.423   3.206   0.107  0.3234  0.3774 -0.2788
   82GLOH   H03 9315   3.949  10.176   0.615  0.0303  0.7703  0.5956
   82GLOH    O1 9316   3.902  10.093   0.635  0.2611  0.4289 -0.2594
   82GLOH    C1 9317   3.916   9.995   0.529  0.0828 -0.6467 -0.0407
   82GLOH   H02 9318   3.961   9.902   0.564  0.6809 -0.1211  0.6058
   82GLOH   H08 9319   3.987  10.038   0.458 -2.3635  2.2491 -0.8562
   82GLOH    C2 9320   3.781   9.960   0.460  0.0106  0.6485 -0.1909
   82GLOH   H04 9321   3.742  10.053   0.417 -1.2215  0.4709  0.4939
   82GLOH    O2 9322   3.810   9.856   0.363 -0.2558 -0.2612  0.2240
   82GLOH   H05 9323   3.857   9.887   0.284 -1.1904 -2.5194 -1.2618
   82GLOH    C3 9324   3.685   9.902   0.566 -0.3398  0.3568 -0.8756
   82GLOH   H06 9325   3.667   9.986   0.633 -0.7506  0.0970 -0.6612
   82GLOH   H07 9326   3.741   9.826   0.622  1.4686  1.4454 -1.1630
   82GLOH    O3 9327   3.555   9.863   0.515 -0.5770 -0.1192 -0.0357
   82GLOH   H01 9328   3.501   9.818   0.583 -0.3310  0.0020  0.2420
   83GLOH   H03 9329   4.930   2.304   1.465 -0.1619  0.4833 -2.0891
   83GLOH    O1 9330   4.975   2.218   1.477  0.0673  0.8646  0.0284
   83GLOH    C1 9331   4.912   2.108   1.408  0.3877  0.3101  0.2334
   83GLOH   H02 9332   4.992   2.035   1.393  0.6015  0.9010 -1.5769
   83GLOH   H08 9333   4.881   2.144   1.310  1.5030 -0.8104 -0.5471
   83GLOH    C2 9334   4.802   2.055   1.495  0.9575 -0.5294 -0.6093
   83GLOH   H04 9335   4.730   2.132   1.524  2.0050 -0.0538  0.8008
   83GLOH    O2 9336   4.740   1.941   1.425 -0.3021  0.1903 -0.1248
   83GLOH   H05 9337   4.648   1.964   1.404  0.3177  2.8277 -0.0467
   83GLOH    C3 9338   4.860   1.998   1.629 -0.4035 -0.4998 -0.2651
   83GLOH   H06 9339   4.935   1.923   1.604 -0.0442 -0.4728  0.7045
   83GLOH   H07 9340   4.782   1.958   1.694 -0.8809  0.4045 -0.2671
   83GLOH    O3 9341   4.920   2.116   1.700  0.5352  0.5399  0.1935
   83GLOH   H01 9342   4.982   2.142   1.630 -0.9841 -2.2446 -2.3089
   84GLOH   H03 9343   3.258   2.507   2.476  0.9560  0.1362  0.9070
   84GLOH    O1 9344   3.206   2.579   2.435  0.7911 -0.4116  0.1457
   84GLOH    C1 9345   3.068   2.563   2.459 -0.0774 -0.6844 -0.9803
   84GLOH   H02 9346   3.020   2.660   2.472 -0.8613 -1.4274  1.8633
   84GLOH   H08 9347   3.050   2.509   2.551  0.5967  0.7260  0.0020
   84GLOH    C2 9348   2.992   2.490   2.352  0.5430 -0.7505  0.5699
   84GLOH   H04 9349   3.001   2.557   2.266  1.1659  1.5583  2.3889
   84GLOH    O2 9350   3.070   2.372   2.320 -0.6901  0.3849  0.1211
   84GLOH   H05 9351   3.162   2.385   2.291 -0.8370 -1.8830 -1.4525
   84GLOH    C3 9352   2.845   2.448   2.375 -0.4205 -0.0003  0.1718
   84GLOH   H06 9353   2.843   2.348   2.418  2.3406  0.6210  1.8611
   84GLOH   H07 9354   2.788   2.449   2.282 -1.6734  0.6586  0.9266
   84GLOH    O3 9355   2.786   2.545   2.458 -0.5081 -0.6975 -0.4755
   84GLOH   H01 9356   2.791   2.526   2.554 -2.4491 -1.8385 -0.5954
   85GLOH   H03 9357   3.775   2.947   1.362 -0.2542 -0.9091 -0.6154
   85GLOH    O1 9358   3.831   2.907   1.430  0.3556  0.0793 -0.5220
   85GLOH    C1 9359   3.929   2.820   1.372  0.3134 -0.1743  0.3488
   85GLOH   H02 9360   3.893   2.779   1.278  1.9113 -0.5050 -0.1349
   85GLOH   H08 9361   3.957   2.730   1.426 -1.4882 -0.6685  0.4894
   85GLOH    C2 9362   4.063   2.896   1.368 -0.0525  0.2599  0.0254
   85GLOH   H04 9363   4.106   2.909   1.468  0.0447 -0.7083  0.1173
   85GLOH    O2 9364   4.149   2.816   1.286  0.2538 -0.0499 -0.8903
   85GLOH   H05 9365   4.233   2.825   1.335 -0.9982  1.1174  1.1225
   85GLOH    C3 9366   4.045   3.026   1.295 -0.1393 -0.9064  0.4766
   85GLOH   H06 9367   3.969   3.074   1.357  0.0036 -0.2186  0.1297
   85GLOH   H07 9368   4.000   3.010   1.197  1.4831  0.6565 -0.5619
   85GLOH    O3 9369   4.167   3.106   1.295  0.3310 -0.2674 -0.2494
   85GLOH   H01 9370   4.231   3.047   1.250  0.4709 -2.3216  2.5112
   86GLOH   H03 9371   4.050   3.484   0.728 -2.2850  1.1884  0.2415
   86GLOH    O1 9372   4.074   3.537   0.806  0.4553 -0.3126  0.4462
   86GLOH    C1 9373   4.116   3.662   0.739  0.3144  0.3361 -0.4761
   86GLOH   H02 9374   4.163   3.641   0.643  1.2988  0.1074  0.0515
   86GLOH   H08 9375   4.187   3.712   0.805  0.6960  3.4346 -3.1014
   86GLOH    C2 9376   3.993   3.759   0.714 -0.2238 -0.0696  0.0618
   86GLOH   H04 9377   3.941   3.765   0.810 -0.8806  1.3290 -0.3590
   86GLOH    O2 9378   4.034   3.892   0.673  0.2514  0.4355 -0.1556
   86GLOH   H05 9379   4.017   3.944   0.753  0.2507 -0.2615  0.2980
   86GLOH    C3 9380   3.884   3.711   0.620 -0.9978 -0.1111  0.3055
   86GLOH   H06 9381   3.922   3.687   0.521 -0.9315 -1.7236  0.7041
   86GLOH   H07 9382   3.821   3.798   0.598  0.2197  0.9489  0.9105
   86GLOH    O3 9383   3.807   3.595   0.679  0.1663 -0.1036 -0.2739
   86GLOH   H01 9384   3.764   3.629   0.760  0.7167 -1.7515  0.7305
   87GLOH   H03 9385   3.058   3.203   1.756 -2.0430 -0.3172 -0.7459
   87GLOH    O1 9386   3.008   3.159   1.827 -0.3568 -0.5020  0.3405
   87GLOH    C1 9387   2.865   3.172   1.811 -0.1237  0.4438  0.2665
   87GLOH   H02 9388   2.853   3.206   1.708 -0.1974 -0.8079 -0.1427
   87GLOH   H08 9389   2.838   3.259   1.871  4.6693  2.7281 -0.6865
   87GLOH    C2 9390   2.782   3.048   1.836  0.4951  0.6507 -0.0498
   87GLOH   H04 9391   2.678   3.082   1.827 -0.1078 -1.0409  0.3219
   87GLOH    O2 9392   2.809   2.947   1.734  0.1423  0.5373  0.2567
   87GLOH   H05 9393   2.758   2.864   1.736  1.3257 -0.3095 -2.0798
   87GLOH    C3 9394   2.798   3.002   1.981 -0.4416  0.4366  0.1416
   87GLOH   H06 9395   2.891   2.949   1.999  0.2100  1.4064 -0.3186
   87GLOH   H07 9396   2.715   2.931   1.989 -0.4850  0.6180  1.3354
   87GLOH    O3 9397   2.772   3.110   2.071 -0.6594  0.9768 -0.5259
   87GLOH   H01 9398   2.781   3.069   2.159  1.1447  1.4582 -0.4662
   88GLOH   H03 9399   3.995   3.795   0.311  0.8060  0.6402 -0.2082
   88GLOH    O1 9400   3.922   3.856   0.287  0.6957  0.3940 -0.5008
   88GLOH    C1 9401   3.980   3.980   0.235 -0.3846  0.2463  0.0789
   88GLOH   H02 9402   3.889   4.031   0.205 -0.8608 -1.1970 -1.0063
   88GLOH   H08 9403   4.046   3.980   0.149  1.7858  1.7935  1.6876
   88GLOH    C2 9404   4.067   4.046   0.346 -0.3000 -0.0676  0.3322
   88GLOH   H04 9405   4.083   4.148   0.308  0.8665 -0.1823  0.5025
   88GLOH    O2 9406   3.993   4.054   0.470 -0.2632 -0.2317 -0.0447
   88GLOH   H05 9407   4.015   3.996   0.545  0.3598 -0.1198 -0.1370
   88GLOH    C3 9408   4.199   3.964   0.376 -0.6468 -0.5161 -0.8035
   88GLOH   H06 9409   4.169   3.873   0.427  0.6941 -1.7535 -2.1755
   88GLOH   H07 9410   4.262   4.017   0.448 -0.2486 -1.8053 -0.1983
   88GLOH    O3 9411   4.272   3.938   0.262  0.0821 -0.2251  0.1072
   88GLOH   H01 9412   4.328   3.860   0.281  2.1854  1.6423  1.9191
   89GLOH   H03 9413   3.292   0.267   1.162  0.4184  0.3669 -0.3599
   89GLOH    O1 9414   3.316   0.247   1.255  0.4406  0.1050 -0.4214
   89GLOH    C1 9415   3.209   0.162   1.303 -0.1013 -0.5318 -0.1002
   89GLOH   H02 9416   3.129   0.226   1.341 -1.1947 -0.9709 -1.6081
   89GLOH   H08 9417   3.244   0.107   1.390 -2.1177 -0.3523  0.8615
   89GLOH    C2 9418   3.140   0.069   1.196  0.4965  0.0451  0.6320
   89GLOH   H04 9419   3.220   0.009   1.151  2.6418  1.9659  1.7547
   89GLOH    O2 9420   3.041  -0.024   1.243 -0.0452  0.3013 -0.1079
   89GLOH   H05 9421   3.011  -0.070   1.163 -0.9478  2.5118 -1.0836
   89GLOH    C3 9422   3.074   0.162   1.091 -0.5430  0.5596  0.0717
   89GLOH   H06 9423   3.006   0.229   1.143  0.8113  2.4015 -0.4634
   89GLOH   H07 9424   3.017   0.106   1.016 -0.2549 -1.1401  1.1072
   89GLOH    O3 9425   3.172   0.250   1.029 -0.0099 -0.1625  0.1585
   89GLOH   H01 9426   3.224   0.196   0.966  0.0534 -0.3660  0.3829
   90GLOH   H03 9427   2.959   1.615   2.089 -1.3035  1.5915  0.6082
   90GLOH    O1 9428   2.957   1.553   2.164 -0.1540  0.6557 -0.1297
   90GLOH    C1 9429   2.925   1.420   2.117  1.0073  0.4028  0.0072
   90GLOH   H02 9430   2.960   1.412   2.014 -0.2099  2.3290 -0.5786
   90GLOH   H08 9431   2.818   1.403   2.104  0.8852  0.1320  1.2754
   90GLOH    C2 9432   2.994   1.307   2.202 -0.1547  0.2627  0.3202
   90GLOH   H04 9433   2.945   1.306   2.300  2.7521  1.0760  1.8402
   90GLOH    O2 9434   2.968   1.191   2.131  0.8604 -0.1026  0.0426
   90GLOH   H05 9435   3.042   1.128   2.128  0.1180 -1.0452  1.1193
   90GLOH    C3 9436   3.143   1.336   2.223 -0.3846  0.0054  0.0859
   90GLOH   H06 9437   3.144   1.441   2.252  2.9692 -0.2503  1.1674
   90GLOH   H07 9438   3.186   1.325   2.123  2.0733 -0.7429  1.1985
   90GLOH    O3 9439   3.205   1.252   2.313 -0.1104  0.6276 -0.0328
   90GLOH   H01 9440   3.283   1.213   2.269 -1.8102 -0.0109 -2.6093
   91GLOH   H03 9441   4.051   3.792   2.575 -1.3610 -0.8561  1.0721
   91GLOH    O1 9442   4.065   3.820   2.667  0.4484  0.5346  0.4154
   91GLOH    C1 9443   4.194   3.793   2.714 -0.0363  0.1300 -0.1194
   91GLOH   H02 9444   4.224   3.692   2.685  1.9858  1.2605 -2.1244
   91GLOH   H08 9445   4.192   3.793   2.823  0.2235 -1.3925 -0.0914
   91GLOH    C2 9446   4.295   3.896   2.660 -0.5629 -0.0312  1.3436
   91GLOH   H04 9447   4.286   3.894   2.550 -0.7712 -0.8625  1.3681
   91GLOH    O2 9448   4.268   4.025   2.720  0.0636  0.3555  0.4205
   91GLOH   H05 9449   4.269   4.017   2.817 -0.1664  0.0729  0.3984
   91GLOH    C3 9450   4.435   3.848   2.687 -0.3997 -0.7818 -0.2210
   91GLOH   H06 9451   4.444   3.834   2.795 -0.6153 -1.5353 -0.2995
   91GLOH   H07 9452   4.508   3.926   2.664 -0.9278  0.4212  2.0490
   91GLOH    O3 9453   4.455   3.722   2.613  0.4110 -0.0315 -0.4479
   91GLOH   H01 9454   4.539   3.733   2.564  1.2430  0.8220  1.1451
   92GLOH   H03 9455   3.060   1.520  -0.160  1.6396  0.2459 -0.5670
   92GLOH    O1 9456   3.106   1.471  -0.089  0.2486 -0.2697 -0.0001
   92GLOH    C1 9457   3.057   1.504   0.039  0.3420 -0.5936  0.0719
   92GLOH   H02 9458   3.098   1.432   0.110  2.9606  0.6483 -0.0806
   92GLOH   H08 9459   2.949   1.492   0.039 -0.0405  2.4573 -1.1237
   92GLOH    C2 9460   3.088   1.643   0.094  0.1172 -0.0141  0.3992
   92GLOH   H04 9461   3.040   1.718   0.030  1.3662  1.7766  1.5106
   92GLOH    O2 9462   3.035   1.655   0.231  0.2078  0.3493 -0.3244
   92GLOH   H05 9463   3.080   1.723   0.284  1.2174 -0.5059 -0.0664
   92GLOH    C3 9464   3.238   1.671   0.090  0.5398 -0.1468  0.8183
   92GLOH   H06 9465   3.249   1.777   0.114  0.6787 -0.2932  1.4187
   92GLOH   H07 9466   3.268   1.668  -0.014 -1.3803  1.1819  0.1828
   92GLOH    O3 9467   3.324   1.586   0.170 -0.2207  0.0459 -0.0143
   92GLOH   H01 9468   3.340   1.498   0.130 -1.5708 -1.3346  2.3910
   93GLOH   H03 9469   3.685   2.397   2.002 -1.4388 -1.5009 -1.2971
   93GLOH    O1 9470   3.745   2.370   1.930  0.5426 -0.1025 -0.2263
   93GLOH    C1 9471   3.828   2.265   1.980 -0.0225  0.4863  0.3679
   93GLOH   H02 9472   3.760   2.190   2.020  0.0118 -1.2385 -2.6175
   93GLOH   H08 9473   3.901   2.296   2.054 -0.7814 -0.9286  1.7410
   93GLOH    C2 9474   3.891   2.184   1.866  0.0299 -0.1060 -0.0457
   93GLOH   H04 9475   3.816   2.110   1.835  0.3944 -0.2022 -0.7002
   93GLOH    O2 9476   3.944   2.271   1.761  0.2795 -0.5612 -0.1617
   93GLOH   H05 9477   3.883   2.344   1.739 -0.1221 -1.1505 -1.0308
   93GLOH    C3 9478   4.016   2.110   1.918 -0.8142 -0.7924  0.5404
   93GLOH   H06 9479   4.086   2.183   1.959 -0.8056 -1.1164  1.1184
   93GLOH   H07 9480   4.061   2.052   1.837  0.5645 -0.2663  0.9010
   93GLOH    O3 9481   3.986   2.018   2.021 -0.1917 -0.7164  0.1963
   93GLOH   H01 9482   4.068   2.013   2.074 -0.7186 -1.4865  0.9456
   94GLOH   H03 9483   4.121   3.254   2.461 -0.4650 -0.1340  0.0613
   94GLOH    O1 9484   4.130   3.191   2.534 -0.1818 -0.2951 -0.1080
   94GLOH    C1 9485   3.999   3.149   2.578 -0.0536  0.5491 -0.0437
   94GLOH   H02 9486   3.949   3.105   2.492 -0.3691 -1.6412  1.2326
   94GLOH   H08 9487   3.937   3.231   2.615  2.1610  1.8400  0.9234
   94GLOH    C2 9488   4.007   3.046   2.699 -0.5642 -0.9611 -0.1705
   94GLOH   H04 9489   4.042   3.094   2.792  0.1359 -4.9059  1.7265
   94GLOH    O2 9490   3.884   2.980   2.737 -0.3858 -0.0177  0.4255
   94GLOH   H05 9491   3.830   2.950   2.662 -0.1186 -0.0584  0.2498
   94GLOH    C3 9492   4.129   2.954   2.672  0.8630  0.4358 -0.2430
   94GLOH   H06 9493   4.122   2.876   2.748 -3.5142 -0.9071 -1.8288
   94GLOH   H07 9494   4.219   3.015   2.672  0.7037  0.6838 -1.5658
   94GLOH    O3 9495   4.115   2.886   2.543  0.0807  0.0765  0.2120
   94GLOH   H01 9496   4.173   2.930   2.478 -2.0856  0.2596 -1.6979
   95GLOH   H03 9497   3.684   3.310   2.511 -0.2822  0.0257  1.2912
   95GLOH    O1 9498   3.686   3.407   2.497 -0.3222 -0.0782  0.5708
   95GLOH    C1 9499   3.621   3.491   2.593 -0.4758 -0.6311 -0.0862
   95GLOH   H02 9500   3.684   3.484   2.682 -1.6106  3.4839  1.1472
   95GLOH   H08 9501   3.529   3.440   2.622 -0.2311  0.3496  2.5270
   95GLOH    C2 9502   3.589   3.631   2.541  0.1919 -0.9168  0.8047
   95GLOH   H04 9503   3.503   3.611   2.476 -0.7065  0.0034  1.6851
   95GLOH    O2 9504   3.546   3.712   2.652  0.0216 -0.0902  0.2986
   95GLOH   H05 9505   3.570   3.805   2.668 -0.0928  0.2758 -1.5998
   95GLOH    C3 9506   3.699   3.699   2.451 -0.7901 -0.1896 -0.2199
   95GLOH   H06 9507   3.786   3.711   2.516 -0.0329 -1.3058 -1.0152
   95GLOH   H07 9508   3.662   3.797   2.419  2.0298  0.9435 -0.1684
   95GLOH    O3 9509   3.726   3.621   2.335  0.1630  0.1763  0.2776
   95GLOH   H01 9510   3.722   3.526   2.358 -2.1156 -0.4839 -2.5357
   96GLOH   H03 9511   4.018   0.677   0.486 -1.1151  2.3210 -0.8357
   96GLOH    O1 9512   4.061   0.721   0.562  0.2385 -0.1104 -0.1283
   96GLOH    C1 9513   4.195   0.713   0.533 -0.4173  0.1456  0.0821
   96GLOH   H02 9514   4.245   0.777   0.606 -0.8277 -2.2686  2.5560
   96GLOH   H08 9515   4.221   0.750   0.434  0.0016  2.1570  0.9199
   96GLOH    C2 9516   4.245   0.567   0.542 -0.3874 -0.2303  0.1512
   96GLOH   H04 9517   4.216   0.514   0.634 -0.0691 -1.7137 -0.5907
   96GLOH    O2 9518   4.183   0.489   0.444  0.3470 -0.8471 -0.6927
   96GLOH   H05 9519   4.204   0.506   0.351  0.7730 -0.5856 -0.5507
   96GLOH    C3 9520   4.394   0.563   0.538  0.4729  0.7230 -0.7064
   96GLOH   H06 9521   4.426   0.573   0.434  1.7398 -2.4061 -0.6524
   96GLOH   H07 9522   4.419   0.460   0.563 -0.9420  0.8817  1.4249
   96GLOH    O3 9523   4.473   0.647   0.620 -0.0359 -0.0342 -0.4292
   96GLOH   H01 9524   4.441   0.647   0.713 -0.9299  1.0120 -0.7271
   97GLOH   H03 9525   3.652   3.874   1.346  2.4686  0.7534 -1.8002
   97GLOH    O1 9526   3.603   3.842   1.267 -0.3348  0.6779 -0.0860
   97GLOH    C1 9527   3.516   3.741   1.311 -0.1900 -0.1407 -0.3360
   97GLOH   H02 9528   3.462   3.778   1.399  0.5220  2.4226 -0.9356
   97GLOH   H08 9529   3.583   3.666   1.352 -0.2858  1.0980  2.1871
   97GLOH    C2 9530   3.420   3.676   1.208  0.0544  0.2298  0.1540
   97GLOH   H04 9531   3.459   3.625   1.118  1.3629  0.6692  0.4689
   97GLOH    O2 9532   3.343   3.573   1.281  0.4330 -0.4349 -0.3052
   97GLOH   H05 9533   3.284   3.528   1.219 -1.6767  2.3269 -0.4013
   97GLOH    C3 9534   3.328   3.790   1.165  0.0126 -0.1793  0.3685
   97GLOH   H06 9535   3.296   3.823   1.263  1.3798 -3.2271  1.9120
   97GLOH   H07 9536   3.235   3.757   1.117 -0.4510  0.0232  1.1259
   97GLOH    O3 9537   3.396   3.895   1.095  0.5812  0.0632  0.1216
   97GLOH   H01 9538   3.484   3.916   1.132  1.1929 -2.9296  0.4927
   98GLOH   H03 9539   4.101   3.536   1.761  0.0923 -0.4798  0.0786
   98GLOH    O1 9540   4.189   3.578   1.750 -0.3402  0.5421  0.4487
   98GLOH    C1 9541   4.180   3.716   1.766  0.6426 -0.1894  0.1169
   98GLOH   H02 9542   4.136   3.767   1.681 -2.4308 -1.4059  0.9181
   98GLOH   H08 9543   4.280   3.760   1.769  1.0050 -0.8343 -2.0819
   98GLOH    C2 9544   4.100   3.770   1.884  0.0407  0.1470  0.0814
   98GLOH   H04 9545   4.113   3.878   1.869  1.1374 -0.1801 -1.4351
   98GLOH    O2 9546   3.959   3.731   1.886  0.2893 -0.4469  0.1735
   98GLOH   H05 9547   3.911   3.741   1.970 -2.2407 -1.9122 -1.0182
   98GLOH    C3 9548   4.174   3.727   2.011  0.9543  0.3971 -0.9042
   98GLOH   H06 9549   4.180   3.618   2.019  2.3020  0.4015 -1.6972
   98GLOH   H07 9550   4.118   3.762   2.097  1.9144 -2.1060  0.7955
   98GLOH    O3 9551   4.308   3.783   2.032  0.3822 -0.4724 -0.1615
   98GLOH   H01 9552   4.365   3.705   2.040 -0.7228 -1.3955 -1.0088
   99GLOH   H03 9553   3.288   0.701   1.328 -1.3681 -0.5412 -0.7183
   99GLOH    O1 9554   3.277   0.795   1.352  0.0025 -0.5775  0.0956
   99GLOH    C1 9555   3.377   0.822   1.458  0.2802 -0.1374  0.0359
   99GLOH   H02 9556   3.345   0.758   1.540 -1.6567  1.5810  0.6726
   99GLOH   H08 9557   3.360   0.919   1.504  0.4938 -0.1726  0.1872
   99GLOH    C2 9558   3.525   0.803   1.417 -0.3795 -0.1982 -0.5684
   99GLOH   H04 9559   3.535   0.701   1.379 -1.5865 -0.5038 -0.0637
   99GLOH    O2 9560   3.567   0.895   1.311  0.3846 -0.2207 -0.2007
   99GLOH   H05 9561   3.550   0.987   1.335  0.7653  0.0981 -1.1214
   99GLOH    C3 9562   3.618   0.825   1.541  0.2352  0.5062 -0.0998
   99GLOH   H06 9563   3.594   0.926   1.576  0.9102  1.2854 -1.8531
   99GLOH   H07 9564   3.724   0.814   1.516 -0.2761 -1.6605 -1.4381
   99GLOH    O3 9565   3.581   0.723   1.634  0.2543 -0.2359 -0.3902
   99GLOH   H01 9566   3.626   0.642   1.604 -1.7120 -0.7442 -2.1726
  100GLOH   H03 9567   4.057   0.178   1.708  1.3409  1.9204  2.4453
  100GLOH    O1 9568   4.095   0.103   1.757 -0.0348 -0.3754  0.1217
  100GLOH    C1 9569   4.036   0.089   1.885 -0.9175  0.1929 -0.1907
  100GLOH   H02 9570   4.062   0.165   1.958 -0.5463  0.3404 -0.4769
  100GLOH   H08 9571   4.077  -0.002   1.929  0.1794  0.4961 -0.5763
  100GLOH    C2 9572   3.881   0.074   1.884  0.4769 -0.0983  0.9731
  100GLOH   H04 9573   3.851   0.159   1.822  0.7983 -1.1232 -0.6366
  100GLOH    O2 9574   3.838  -0.045   1.817 -0.2702  0.2083 -0.2566
  100GLOH   H05 9575   3.911  -0.109   1.814 -2.7359 -2.7236 -0.0369
  100GLOH    C3 9576   3.810   0.092   2.015  0.6054 -0.1887 -0.1722
  100GLOH   H06 9577   3.828   0.001   2.073  1.3731 -0.9755 -1.5922
  100GLOH   H07 9578   3.705   0.084   1.987  1.3446 -2.4010 -2.5187
  100GLOH    O3 9579   3.834   0.218   2.080  0.0067  0.5218  0.5774
  100GLOH   H01 9580   3.833   0.200   2.176  0.0674 -0.6013  0.3736
  101GLOH   H03 9581   3.589   2.918   0.319 -1.5403 -0.2051  0.4573
  101GLOH    O1 9582   3.565   2.824   0.327 -0.2204 -0.6053 -0.1199
  101GLOH    C1 9583   3.652   2.749   0.234  0.7894 -0.1794 -0.5808
  101GLOH   H02 9584   3.641   2.798   0.138 -2.1773  0.6886  0.1389
  101GLOH   H08 9585   3.625   2.644   0.229  0.7260 -0.1914 -0.0428
  101GLOH    C2 9586   3.799   2.758   0.274  0.2999 -0.4489 -0.0374
  101GLOH   H04 9587   3.843   2.690   0.200 -0.4043  0.3362 -1.2053
  101GLOH    O2 9588   3.862   2.887   0.259  0.1235 -0.4627  0.2099
  101GLOH   H05 9589   3.847   2.915   0.167  0.6218 -2.5923 -0.5414
  101GLOH    C3 9590   3.818   2.718   0.419 -0.6893 -0.6664 -0.4303
  101GLOH   H06 9591   3.757   2.784   0.482 -1.3367 -0.4909 -1.2418
  101GLOH   H07 9592   3.921   2.731   0.454 -1.3415 -0.7139  1.6145
  101GLOH    O3 9593   3.778   2.582   0.457 -0.0977  0.2946  0.2158
  101GLOH   H01 9594   3.802   2.574   0.551 -0.4480 -1.6817  0.1526
  102GLOH   H03 9595   3.389   3.444   0.155 -0.9738 -0.2487  0.1015
  102GLOH    O1 9596   3.371   3.349   0.145 -0.1621 -0.3402 -0.5220
  102GLOH    C1 9597   3.433   3.253   0.234 -0.1224 -0.1446 -0.2489
  102GLOH   H02 9598   3.352   3.187   0.264 -0.8360 -0.1866 -2.1855
  102GLOH   H08 9599   3.461   3.307   0.325  0.5950 -0.1121 -0.4865
  102GLOH    C2 9600   3.548   3.169   0.181  0.0526  0.1338 -0.3804
  102GLOH   H04 9601   3.612   3.246   0.135  0.4139 -0.1980 -0.4380
  102GLOH    O2 9602   3.626   3.100   0.284 -0.0551 -0.0543 -0.1408
  102GLOH   H05 9603   3.597   3.135   0.371 -1.7043  1.8717 -1.4149
  102GLOH    C3 9604   3.505   3.069   0.073  0.6706  0.5226  0.3547
  102GLOH   H06 9605   3.437   2.998   0.119 -1.2937  0.7044 -2.1558
  102GLOH   H07 9606   3.597   3.020   0.042  0.8753  0.2999  1.2955
  102GLOH    O3 9607   3.447   3.134  -0.039  0.1853  0.2263  0.5335
  102GLOH   H01 9608   3.366   3.084  -0.059  1.5211 -1.1766 -1.6094
  103GLOH   H03 9609   3.410   9.266   1.385 -1.3711  1.1856  0.6545
  103GLOH    O1 9610   3.448   9.298   1.468  0.7342 -0.3150  0.2952
  103GLOH    C1 9611   3.462   9.182   1.553  0.1920  0.6799  0.2227
  103GLOH   H02 9612   3.532   9.114   1.505  0.9113  0.9204  0.9180
  103GLOH   H08 9613   3.373   9.120   1.557  1.2395 -0.8531 -0.1052
  103GLOH    C2 9614   3.518   9.220   1.691  0.2715 -0.2325  0.2712
  103GLOH   H04 9615   3.607   9.280   1.670 -0.0605  0.7717  1.6692
  103GLOH    O2 9616   3.425   9.307   1.758  0.4427 -0.0906 -0.0822
  103GLOH   H05 9617   3.351   9.329   1.699  1.0823 -1.8501 -1.5918
  103GLOH    C3 9618   3.560   9.090   1.773  0.1178  0.0580 -0.7309
  103GLOH   H06 9619   3.471   9.034   1.802  1.0418 -0.5990  0.9122
  103GLOH   H07 9620   3.610   9.120   1.865  0.1103 -0.7387 -0.4724
  103GLOH    O3 9621   3.648   9.007   1.702  0.1584 -0.1680  0.1694
  103GLOH   H01 9622   3.733   9.053   1.718 -0.7049  1.9123 -1.0496
  104GLOH   H03 9623   4.174   4.129   2.666  0.0357 -0.6719 -0.6186
  104GLOH    O1 9624   4.113   4.193   2.625  0.3724  0.1915  0.1889
  104GLOH    C1 9625   3.973   4.162   2.633 -0.3601 -0.0624 -0.2000
  104GLOH   H02 9626   3.932   4.214   2.720  0.4212  0.2792 -0.0359
  104GLOH   H08 9627   3.961   4.058   2.662 -1.0682  0.3646  1.0974
  104GLOH    C2 9628   3.881   4.190   2.511  0.1354 -0.4548  0.1522
  104GLOH   H04 9629   3.907   4.129   2.423  0.9712  0.3496 -0.1631
  104GLOH    O2 9630   3.743   4.147   2.536 -0.0553  0.2441  0.4093
  104GLOH   H05 9631   3.687   4.162   2.458  0.4273  2.4576  0.4586
  104GLOH    C3 9632   3.900   4.335   2.461  0.1262 -0.3417  0.1018
  104GLOH   H06 9633   3.861   4.402   2.536  0.1441 -0.2446  0.0248
  104GLOH   H07 9634   3.855   4.358   2.364 -0.5892  1.5759  0.8764
  104GLOH    O3 9635   4.043   4.355   2.450  0.6701  0.1019 -0.1606
  104GLOH   H01 9636   4.095   4.305   2.515 -0.6315  0.1266  0.9221
  105GLOH   H03 9637   3.474   2.350   1.229  0.7399  0.2960  0.7934
  105GLOH    O1 9638   3.444   2.443   1.223 -0.5573 -0.1701 -0.1916
  105GLOH    C1 9639   3.528   2.500   1.122 -0.0153 -0.0542 -0.8815
  105GLOH   H02 9640   3.611   2.433   1.096 -1.8190 -2.2995 -1.0562
  105GLOH   H08 9641   3.570   2.598   1.143  1.8269 -0.7570 -1.1640
  105GLOH    C2 9642   3.446   2.504   0.994 -0.2789 -0.3496  0.6004
  105GLOH   H04 9643   3.345   2.537   1.022 -0.1204 -0.3836  1.2267
  105GLOH    O2 9644   3.507   2.597   0.903 -0.7254 -0.3917  0.0737
  105GLOH   H05 9645   3.459   2.597   0.818 -2.3102 -2.4874  0.9297
  105GLOH    C3 9646   3.426   2.368   0.922  0.4627  0.2644  0.2982
  105GLOH   H06 9647   3.392   2.300   1.001  1.3595 -0.9668 -0.3501
  105GLOH   H07 9648   3.520   2.327   0.884  2.0278  2.9565  1.1296
  105GLOH    O3 9649   3.328   2.375   0.816 -0.8803  0.0891  0.1816
  105GLOH   H01 9650   3.268   2.451   0.822 -0.7665  0.3427 -1.7147
  106GLOH   H03 9651   4.186   2.271   0.955  0.3564  0.3249 -0.2468
  106GLOH    O1 9652   4.122   2.310   1.018 -0.4177 -0.4723 -0.5191
  106GLOH    C1 9653   4.095   2.449   0.978 -0.2820 -0.1149  0.7760
  106GLOH   H02 9654   4.001   2.452   0.924  1.9690 -0.5358 -3.3824
  106GLOH   H08 9655   4.177   2.498   0.927 -0.7894  0.0842  0.1491
  106GLOH    C2 9656   4.080   2.535   1.104  0.5929 -0.0452 -0.5536
  106GLOH   H04 9657   4.173   2.521   1.160  0.1731 -1.1744 -0.1252
  106GLOH    O2 9658   4.063   2.675   1.063 -0.2230  0.1972 -0.1107
  106GLOH   H05 9659   4.102   2.728   1.135  0.5173  0.6050 -0.7986
  106GLOH    C3 9660   3.964   2.494   1.195  0.1672 -0.4245  0.1388
  106GLOH   H06 9661   3.953   2.573   1.269 -0.0068  0.3402 -0.6837
  106GLOH   H07 9662   3.987   2.400   1.245 -1.4703  0.1205  1.9679
  106GLOH    O3 9663   3.841   2.484   1.126  0.3859 -0.0368  0.0126
  106GLOH   H01 9664   3.818   2.573   1.094 -4.8604 -1.1960  0.1423
  107GLOH   H03 9665   4.400   3.511   2.123  0.4733  0.9262  0.3758
  107GLOH    O1 9666   4.420   3.559   2.040 -0.2381  0.4249 -0.1018
  107GLOH    C1 9667   4.537   3.516   1.964  0.8774  0.4244  0.4134
  107GLOH   H02 9668   4.537   3.407   1.961  0.9542  0.3843  1.6127
  107GLOH   H08 9669   4.627   3.547   2.016 -0.7034  1.0968  2.8251
  107GLOH    C2 9670   4.549   3.570   1.821 -0.1909 -1.1167 -0.0496
  107GLOH   H04 9671   4.634   3.513   1.781  0.8990 -0.3665  1.1490
  107GLOH    O2 9672   4.441   3.526   1.736  0.0581  0.3326 -0.4357
  107GLOH   H05 9673   4.365   3.581   1.762 -0.4159 -1.2293  1.5842
  107GLOH    C3 9674   4.561   3.719   1.809 -0.2059 -1.2131 -0.0166
  107GLOH   H06 9675   4.645   3.763   1.864 -3.0076  3.6352  0.7232
  107GLOH   H07 9676   4.474   3.770   1.849  0.4188 -0.5781  0.5584
  107GLOH    O3 9677   4.581   3.760   1.670 -0.4474  0.3448  0.1705
  107GLOH   H01 9678   4.508   3.711   1.627  0.4272 -1.2439  0.4391
  108GLOH   H03 9679   3.312   3.343   2.689  2.5504  0.3594  0.1430
  108GLOH    O1 9680   3.280   3.401   2.618 -0.6844 -0.4270  0.9010
  108GLOH    C1 9681   3.286   3.327   2.493 -0.4736 -0.7337  0.4827
  108GLOH   H02 9682   3.228   3.235   2.498  0.4467 -1.5110 -1.8425
  108GLOH   H08 9683   3.389   3.295   2.474  1.0950  2.7708  2.6283
  108GLOH    C2 9684   3.244   3.416   2.378  0.0769 -0.1159 -0.2389
  108GLOH   H04 9685   3.313   3.500   2.360  1.0437 -0.7784  0.2756
  108GLOH    O2 9686   3.233   3.335   2.263  0.2719  0.1535 -0.3596
  108GLOH   H05 9687   3.176   3.363   2.189 -3.3426 -2.5057  1.2511
  108GLOH    C3 9688   3.101   3.474   2.402  0.1397 -0.6394 -0.0438
  108GLOH   H06 9689   3.051   3.506   2.310 -1.7412 -2.8360  0.1644
  108GLOH   H07 9690   3.101   3.570   2.453 -0.9896 -0.1184 -0.9811
  108GLOH    O3 9691   3.016   3.380   2.458  0.7571 -0.7280 -0.2109
  108GLOH   H01 9692   2.959   3.339   2.391 -0.8433 -1.2758  1.4348
  109GLOH   H03 9693   4.479   2.375   0.920 -0.2321  2.2072 -0.0410
  109GLOH    O1 9694   4.526   2.393   1.004  0.3367 -0.1195  0.1731
  109GLOH    C1 9695   4.428   2.434   1.098  0.4605  0.1470 -0.2406
  109GLOH   H02 9696   4.365   2.350   1.128 -1.1223  1.6242  0.6213
  109GLOH   H08 9697   4.361   2.511   1.060  0.6806  0.2064 -0.5083
  109GLOH    C2 9698   4.493   2.487   1.229 -0.1077  0.0476  0.3955
  109GLOH   H04 9699   4.545   2.578   1.199 -1.1820  0.8392  0.8844
  109GLOH    O2 9700   4.395   2.512   1.331 -0.0877 -0.4731 -0.1330
  109GLOH   H05 9701   4.348   2.429   1.349 -0.2147 -0.4320 -0.2769
  109GLOH    C3 9702   4.600   2.391   1.274  0.1747  0.3633  0.3084
  109GLOH   H06 9703   4.660   2.449   1.344  2.3666 -1.0346 -0.3487
  109GLOH   H07 9704   4.673   2.379   1.194  1.6651  3.5149  1.1135
  109GLOH    O3 9705   4.555   2.267   1.332 -0.0270 -0.5137 -0.0022
  109GLOH   H01 9706   4.484   2.279   1.398  1.1567 -0.1279  1.2152
  110GLOH   H03 9707   3.613   3.337   0.881 -0.7532  1.7051 -0.1817
  110GLOH    O1 9708   3.564   3.298   0.807  0.1317  0.0359  0.1032
  110GLOH    C1 9709   3.656   3.275   0.699 -0.8009  0.7807  0.4464
  110GLOH   H02 9710   3.752   3.320   0.723 -1.0004  1.9235 -0.7924
  110GLOH   H08 9711   3.625   3.331   0.610 -1.4265 -0.2599 -0.0070
  110GLOH    C2 9712   3.666   3.127   0.663  0.3095 -0.6787  0.2376
  110GLOH   H04 9713   3.723   3.121   0.569  2.4333 -1.3664  1.5180
  110GLOH    O2 9714   3.738   3.047   0.758 -0.5449  0.6780  0.2043
  110GLOH   H05 9715   3.833   3.052   0.737 -0.6225  1.9436  0.1122
  110GLOH    C3 9716   3.526   3.077   0.623  0.1045 -0.8050 -0.1123
  110GLOH   H06 9717   3.467   3.084   0.715 -2.4734 -0.6926 -1.6960
  110GLOH   H07 9718   3.548   2.974   0.597  1.7344 -0.7852  1.1647
  110GLOH    O3 9719   3.468   3.142   0.507 -0.1439  0.2004  0.2807
  110GLOH   H01 9720   3.407   3.076   0.469  1.5060 -1.0002 -0.3348
  111GLOH   H03 9721   3.980   3.463   0.923  0.0633 -1.7866 -0.0697
  111GLOH    O1 9722   3.945   3.470   1.014 -0.1552  0.3905 -0.2810
  111GLOH    C1 9723   4.039   3.395   1.097 -0.0823 -0.6799 -0.4379
  111GLOH   H02 9724   4.050   3.293   1.061  1.3884 -0.9350  0.6599
  111GLOH   H08 9725   4.010   3.406   1.202 -1.5170 -1.3960 -0.7623
  111GLOH    C2 9726   4.183   3.457   1.095  0.9678  0.5461  0.1773
  111GLOH   H04 9727   4.244   3.408   1.173 -0.6359 -0.5497  0.7696
  111GLOH    O2 9728   4.236   3.442   0.962 -0.1647 -0.3522  0.2941
  111GLOH   H05 9729   4.190   3.499   0.898  0.8281  2.3829  1.9120
  111GLOH    C3 9730   4.188   3.608   1.127  0.0131  0.3976  0.2788
  111GLOH   H06 9731   4.112   3.652   1.063 -0.8662  0.5777  1.4151
  111GLOH   H07 9732   4.282   3.656   1.100 -0.4851  0.9960 -0.3879
  111GLOH    O3 9733   4.160   3.629   1.267  0.6295  0.3266 -0.2731
  111GLOH   H01 9734   4.116   3.716   1.269 -4.4811 -2.0881  0.4557
  112GLOH   H03 9735   4.977   3.752   1.245  0.9318  0.3868 -0.2475
  112GLOH    O1 9736   4.951   3.845   1.233 -0.4261  0.0074 -0.3578
  112GLOH    C1 9737   4.920   3.901   1.365  0.3998 -0.1388 -0.5431
  112GLOH   H02 9738   4.913   4.010   1.363 -0.9991 -0.2375 -1.3960
  112GLOH   H08 9739   4.993   3.868   1.439  0.3706  0.4956 -0.2209
  112GLOH    C2 9740   4.785   3.858   1.418  0.7246  1.0236 -0.4801
  112GLOH   H04 9741   4.776   3.750   1.433  0.7900  1.2723  1.4821
  112GLOH    O2 9742   4.760   3.915   1.547 -0.8322 -0.0207 -0.0603
  112GLOH   H05 9743   4.682   3.873   1.588 -0.7019  0.5177  0.7560
  112GLOH    C3 9744   4.678   3.918   1.325 -0.4913 -0.3320  0.2562
  112GLOH   H06 9745   4.690   4.025   1.306  3.5985 -0.7207  0.1249
  112GLOH   H07 9746   4.582   3.887   1.365  0.0671 -3.0362 -0.3989
  112GLOH    O3 9747   4.691   3.848   1.201 -0.4761 -0.1538 -0.0842
  112GLOH   H01 9748   4.785   3.850   1.177 -0.3969 -0.9160  0.1374
  113GLOH   H03 9749   4.861   2.449   1.777  1.2432 -1.1184 -0.8093
  113GLOH    O1 9750   4.901   2.537   1.765 -0.4672 -0.1500  0.3104
  113GLOH    C1 9751   4.992   2.527   1.658 -0.5399 -0.5227  0.0251
  113GLOH   H02 9752   5.041   2.430   1.655  0.2587 -0.0844 -2.5885
  113GLOH   H08 9753   5.068   2.605   1.665 -1.6266  0.4832  0.7272
  113GLOH    C2 9754   4.926   2.540   1.516  0.0234 -0.2229 -0.4646
  113GLOH   H04 9755   5.012   2.541   1.449 -0.2103  0.7926 -0.7605
  113GLOH    O2 9756   4.844   2.420   1.481  0.1114  0.1261  0.1553
  113GLOH   H05 9757   4.758   2.420   1.528 -0.0354 -0.1016 -0.1126
  113GLOH    C3 9758   4.850   2.673   1.509 -0.1745 -0.1223  0.1158
  113GLOH   H06 9759   4.779   2.666   1.592  1.1985 -0.7893  1.2654
  113GLOH   H07 9760   4.800   2.678   1.412 -0.5555 -0.1925  0.3071
  113GLOH    O3 9761   4.946   2.774   1.521  0.3142  0.1443 -0.6271
  113GLOH   H01 9762   4.937   2.826   1.439  1.3082 -0.0664 -0.8752
  114GLOH   H03 9763   3.955   3.071   0.574  1.0038  1.2732  0.3765
  114GLOH    O1 9764   3.973   3.052   0.668 -0.2506 -0.3608  0.3075
  114GLOH    C1 9765   3.986   2.910   0.665 -0.2993 -0.1071 -0.2647
  114GLOH   H02 9766   4.066   2.879   0.598  1.3733  0.6122  1.3322
  114GLOH   H08 9767   3.894   2.861   0.636 -1.4514  0.6062  1.9938
  114GLOH    C2 9768   4.030   2.863   0.799 -0.1426  0.2234 -0.0520
  114GLOH   H04 9769   3.946   2.893   0.864 -0.3299 -1.0440  0.2903
  114GLOH    O2 9770   4.046   2.721   0.803  0.1287  0.4763 -0.2624
  114GLOH   H05 9771   4.067   2.686   0.891 -0.8906 -3.2435 -1.4128
  114GLOH    C3 9772   4.152   2.936   0.855 -0.5614  0.1888  0.8519
  114GLOH   H06 9773   4.239   2.891   0.807 -1.3548  1.7829 -2.1874
  114GLOH   H07 9774   4.163   2.925   0.963 -0.7436  4.0784  1.3387
  114GLOH    O3 9775   4.151   3.084   0.835 -0.0126 -0.0282 -0.8705
  114GLOH   H01 9776   4.065   3.091   0.790 -0.4757 -2.7826 -0.5136
  115GLOH   H03 9777   3.559   1.173   1.217  0.2831  1.9227  0.7033
  115GLOH    O1 9778   3.568   1.140   1.308 -0.2967 -0.3119 -0.0292
  115GLOH    C1 9779   3.636   1.239   1.387  0.4993 -0.5211 -0.3095
  115GLOH   H02 9780   3.578   1.331   1.398 -1.5856 -2.0825  2.0893
  115GLOH   H08 9781   3.731   1.270   1.342  0.0724  1.3004  0.0157
  115GLOH    C2 9782   3.654   1.203   1.533  0.8203 -0.5057  0.3120
  115GLOH   H04 9783   3.708   1.108   1.528 -0.1178 -1.0455  0.2255
  115GLOH    O2 9784   3.736   1.300   1.598  0.8040  0.1846  0.6701
  115GLOH   H05 9785   3.820   1.310   1.549 -0.9158  1.0961 -2.2252
  115GLOH    C3 9786   3.510   1.180   1.598 -0.2191  0.4635 -0.3044
  115GLOH   H06 9787   3.533   1.120   1.685  2.0809  1.4283 -0.2097
  115GLOH   H07 9788   3.450   1.122   1.528  0.3270  0.3121 -0.6467
  115GLOH    O3 9789   3.430   1.293   1.624  0.3956  0.0848  0.1283
  115GLOH   H01 9790   3.383   1.263   1.703 -1.7245  1.2808 -0.6424
  116GLOH   H03 9791   3.460   8.827   2.829  0.0143  0.8324  0.8631
  116GLOH    O1 9792   3.491   8.811   2.738 -0.6129  0.0413  0.7846
  116GLOH    C1 9793   3.442   8.916   2.657 -0.1853 -0.3103  0.2745
  116GLOH   H02 9794   3.469   9.018   2.687  0.3070 -0.4451  0.2843
  116GLOH   H08 9795   3.333   8.914   2.661 -0.1838 -1.7077 -0.1869
  116GLOH    C2 9796   3.481   8.910   2.512 -0.2652  0.3705 -0.5220
  116GLOH   H04 9797   3.445   8.817   2.465  1.5708 -1.9113  2.4532
  116GLOH    O2 9798   3.420   9.020   2.447  0.2974  0.2270  0.0890
  116GLOH   H05 9799   3.468   9.044   2.366  0.4020  1.0040  0.3715
  116GLOH    C3 9800   3.631   8.901   2.508 -0.0024  0.2839  0.3942
  116GLOH   H06 9801   3.658   8.803   2.548 -0.4931  0.8079  2.0050
  116GLOH   H07 9802   3.672   8.979   2.571  1.9633 -0.9464  0.6974
  116GLOH    O3 9803   3.682   8.905   2.374  0.5687 -0.2238  0.5749
  116GLOH   H01 9804   3.638   8.978   2.327  0.3489  0.1964  1.4191
  117GLOH   H03 9805   4.524   1.923   0.509 -0.7580  1.2847 -0.2848
  117GLOH    O1 9806   4.487   1.852   0.453  0.0500  0.4505  0.2468
  117GLOH    C1 9807   4.546   1.861   0.320  0.7574 -0.2163  0.0778
  117GLOH   H02 9808   4.531   1.965   0.290  0.5810 -0.4233 -0.5517
  117GLOH   H08 9809   4.482   1.800   0.257 -0.4180  0.3928  0.6562
  117GLOH    C2 9810   4.696   1.821   0.310  0.0724 -0.3284 -0.5788
  117GLOH   H04 9811   4.705   1.714   0.332  1.6325 -0.4303 -1.6407
  117GLOH    O2 9812   4.747   1.840   0.175 -0.2203 -0.5764  0.0420
  117GLOH   H05 9813   4.704   1.783   0.109 -0.7617 -0.8898  0.6642
  117GLOH    C3 9814   4.784   1.888   0.417  0.1369 -0.4848 -0.1591
  117GLOH   H06 9815   4.888   1.862   0.398  0.7416  1.6132  0.1650
  117GLOH   H07 9816   4.757   1.851   0.516 -0.6711  0.1178 -0.1544
  117GLOH    O3 9817   4.759   2.035   0.407  0.5960 -0.5793 -0.3712
  117GLOH   H01 9818   4.781   2.062   0.316 -0.9522 -0.2284 -0.6555
  118GLOH   H03 9819   4.367   2.000   0.843  2.7920  3.2148  2.6109
  118GLOH    O1 9820   4.283   2.043   0.868  0.1169 -0.0123 -0.3288
  118GLOH    C1 9821   4.266   2.023   1.013 -0.1392  0.9206  0.6054
  118GLOH   H02 9822   4.308   2.113   1.056 -0.5521  1.3800  0.0675
  118GLOH   H08 9823   4.323   1.938   1.051  0.4271  0.2407 -1.6479
  118GLOH    C2 9824   4.122   2.021   1.067 -0.6920 -0.1390  0.2319
  118GLOH   H04 9825   4.065   2.097   1.012  1.3607 -1.5089 -4.0282
  118GLOH    O2 9826   4.052   1.897   1.032 -0.7333  0.6291 -0.1635
  118GLOH   H05 9827   4.113   1.831   1.070  0.3060  1.8497  0.3235
  118GLOH    C3 9828   4.124   2.051   1.221  0.7030 -0.5851 -0.1250
  118GLOH   H06 9829   4.178   1.976   1.279  1.7999 -1.3602 -2.1003
  118GLOH   H07 9830   4.020   2.049   1.252  0.2047 -2.3055 -1.8486
  118GLOH    O3 9831   4.169   2.183   1.246 -0.3226 -0.4530  0.2628
  118GLOH   H01 9832   4.137   2.242   1.176  1.6273  1.0705  0.6153
  119GLOH   H03 9833   2.952   2.117   0.848  1.6103 -1.2836  2.4555
  119GLOH    O1 9834   2.912   2.178   0.913  0.7034  0.4911  0.2913
  119GLOH    C1 9835   2.903   2.109   1.032  0.0059 -0.3721 -0.0099
  119GLOH   H02 9836   2.849   2.016   1.014 -2.1408  1.0280 -1.0376
  119GLOH   H08 9837   2.843   2.163   1.105 -0.3966  0.5409 -1.0026
  119GLOH    C2 9838   3.040   2.076   1.099 -0.1336  0.0857  0.3259
  119GLOH   H04 9839   3.011   2.053   1.203  0.3348  0.5785  0.5732
  119GLOH    O2 9840   3.104   1.959   1.045  0.1046 -0.4722 -0.4510
  119GLOH   H05 9841   3.098   1.882   1.105 -0.9247 -1.0028 -1.2317
  119GLOH    C3 9842   3.132   2.203   1.098 -0.0206  0.4435  0.1772
  119GLOH   H06 9843   3.149   2.232   0.994  0.6068 -0.1809  0.1051
  119GLOH   H07 9844   3.223   2.162   1.143 -0.2612  1.4356  1.6033
  119GLOH    O3 9845   3.083   2.311   1.177 -0.0662 -0.0969  0.6716
  119GLOH   H01 9846   3.114   2.296   1.268 -0.2492  0.1899  0.7804
  120GLOH   H03 9847   5.193   3.205   1.319 -0.6625  0.4579 -0.0673
  120GLOH    O1 9848   5.180   3.119   1.362  0.1357  0.2121 -0.3168
  120GLOH    C1 9849   5.178   3.134   1.509 -0.4672 -0.7019 -0.2701
  120GLOH   H02 9850   5.216   3.229   1.545 -1.1123 -0.0061 -1.3756
  120GLOH   H08 9851   5.245   3.059   1.551  2.4817  2.3189  0.5361
  120GLOH    C2 9852   5.043   3.126   1.565 -0.2067  0.1784 -0.2115
  120GLOH   H04 9853   4.994   3.034   1.531 -2.6192  0.7990  1.5218
  120GLOH    O2 9854   5.048   3.126   1.711  0.3775 -0.4087 -0.5349
  120GLOH   H05 9855   5.038   3.032   1.737  1.8805  0.0559  1.9012
  120GLOH    C3 9856   4.961   3.245   1.514 -0.0220  0.0748 -0.2872
  120GLOH   H06 9857   4.954   3.237   1.405 -3.1404 -0.1003 -0.1191
  120GLOH   H07 9858   5.012   3.339   1.538 -4.3829  1.8000  2.8628
  120GLOH    O3 9859   4.831   3.252   1.560 -0.2040  0.2880  0.3306
  120GLOH   H01 9860   4.793   3.332   1.520 -0.1018  0.2494  0.1572
  121ACOH    H4 9861   4.867   3.509   1.832 -0.3122 -0.2868 -0.1458
  121ACOH    O2 9862   4.876   3.605   1.837  0.4696 -0.3764  0.4123
  121ACOH    C2 9863   4.943   3.663   1.741  0.1591 -0.1227  0.2732
  121ACOH    O1 9864   4.947   3.621   1.629  0.1049  0.0709 -0.0827
  121ACOH    C1 9865   4.988   3.799   1.783  0.8010 -0.5208 -0.1525
  121ACOH    H1 9866   4.967   3.819   1.888  1.9600  1.6577 -0.2868
  121ACOH    H2 9867   4.939   3.876   1.724  1.3927 -1.4095 -1.8247
  121ACOH    H3 9868   5.096   3.793   1.766  0.9495 -0.5865  0.8062
  122ACOH    H4 9869   4.842   3.802   2.174  0.8573  1.3463 -1.4273
  122ACOH    O2 9870   4.933   3.771   2.163  0.6036  0.0773 -0.1214
  122ACOH    C2 9871   4.971   3.749   2.290  0.0420  0.4655  0.2221
  122ACOH    O1 9872   4.912   3.762   2.395  0.2719 -0.1762 -0.6651
  122ACOH    C1 9873   5.102   3.680   2.300  0.8396  0.5820 -0.4646
  122ACOH    H1 9874   5.162   3.713   2.384 -0.1912 -0.6258  0.7703
  122ACOH    H2 9875   5.156   3.710   2.210  1.3869 -0.0511 -0.3515
  122ACOH    H3 9876   5.092   3.572   2.304  3.8954  0.3140  1.5258
  123ACOH    H4 9877   3.484   4.577   2.779 -0.8797 -0.4554 -1.2507
  123ACOH    O2 9878   3.480   4.658   2.726 -0.1321  0.4480  0.0406
  123ACOH    C2 9879   3.594   4.664   2.654 -0.0186  0.4244 -0.0333
  123ACOH    O1 9880   3.686   4.591   2.672 -0.6591  0.1294  0.0760
  123ACOH    C1 9881   3.600   4.779   2.565  0.5452 -0.2966 -0.7228
  123ACOH    H1 9882   3.660   4.748   2.478 -0.7928  1.1954 -2.2210
  123ACOH    H2 9883   3.638   4.866   2.619  0.5087 -1.1297  0.6590
  123ACOH    H3 9884   3.502   4.799   2.523  0.6806  0.6641 -0.6004
  124ACOH    H4 9885   3.599   8.840   1.681 -1.0234  0.6366  0.4012
  124ACOH    O2 9886   3.533   8.772   1.660  0.0201 -0.2131 -0.1746
  124ACOH    C2 9887   3.527   8.769   1.524 -0.0512 -0.2789  0.8310
  124ACOH    O1 9888   3.592   8.840   1.454  0.2894  0.0447 -0.3022
  124ACOH    C1 9889   3.447   8.654   1.476 -0.4127 -0.0902  0.0511
  124ACOH    H1 9890   3.510   8.583   1.422  0.0062 -0.7068  1.3427
  124ACOH    H2 9891   3.372   8.685   1.403 -0.3204  0.7061  0.2947
  124ACOH    H3 9892   3.391   8.605   1.556 -2.0781 -1.7460 -2.0679
  125ACOH    H4 9893   3.191   3.576  -0.069  0.8187  0.3830  0.3465
  125ACOH    O2 9894   3.215   3.669  -0.085 -0.6862  0.7292 -0.0057
  125ACOH    C2 9895   3.215   3.726   0.040  0.3117  1.0633  0.4862
  125ACOH    O1 9896   3.164   3.685   0.144  0.1369  0.1877 -0.1069
  125ACOH    C1 9897   3.263   3.863   0.037 -0.4689 -0.0829  0.2593
  125ACOH    H1 9898   3.368   3.876   0.014 -1.1226  0.7136 -2.3863
  125ACOH    H2 9899   3.250   3.914   0.132  1.5737 -3.3368  2.4175
  125ACOH    H3 9900   3.212   3.924  -0.037 -0.2144 -0.5631 -0.3122
  126ACOH    H4 9901   3.838   2.343   1.090 -2.2439  0.0194  0.9275
  126ACOH    O2 9902   3.830   2.246   1.082 -0.6846 -0.0448 -0.2491
  126ACOH    C2 9903   3.790   2.220   0.958 -0.1558 -0.9595  0.1283
  126ACOH    O1 9904   3.776   2.304   0.872 -0.1418 -0.0203 -0.2087
  126ACOH    C1 9905   3.746   2.085   0.931 -0.1074  0.0775 -0.3184
  126ACOH    H1 9906   3.834   2.023   0.950  0.3758  1.0841  0.8365
  126ACOH    H2 9907   3.701   2.067   0.834 -0.2127 -0.5996 -0.1470
  126ACOH    H3 9908   3.669   2.059   1.004  0.1779  1.0602  0.3481
  127ACOH    H4 9909   2.976   1.868   1.678 -0.1276 -0.3151 -1.4087
  127ACOH    O2 9910   3.016   1.780   1.693  0.0601 -0.0007  0.0021
  127ACOH    C2 9911   3.087   1.754   1.581  0.1233  0.4861 -0.2332
  127ACOH    O1 9912   3.109   1.827   1.485 -0.6833 -0.0015  0.4495
  127ACOH    C1 9913   3.136   1.617   1.584  0.3386  0.7598  0.4804
  127ACOH    H1 9914   3.102   1.566   1.675 -1.9264 -0.4030 -0.9805
  127ACOH    H2 9915   3.245   1.608   1.583  0.1395 -2.1951 -3.0727
  127ACOH    H3 9916   3.086   1.563   1.504 -1.7248 -1.6079  3.2385
  128ACOH    H4 9917   4.499   3.128   0.344 -2.3720  0.6263  2.5893
  128ACOH    O2 9918   4.569   3.111   0.409 -0.1283 -0.4375 -0.0165
  128ACOH    C2 9919   4.510   3.134   0.529 -0.4363  0.0872 -0.2210
  128ACOH    O1 9920   4.391   3.164   0.544  0.2045  0.2987 -0.0824
  128ACOH    C1 9921   4.608   3.144   0.642 -0.5565 -0.0009  0.0681
  128ACOH    H1 9922   4.552   3.118   0.732  2.0037  0.0059  1.7153
  128ACOH    H2 9923   4.656   3.242   0.644  1.4034 -0.9663  1.6872
  128ACOH    H3 9924   4.696   3.080   0.642  0.1156  0.9071 -1.8017
  129ACOH    H4 9925   4.712   2.150   2.473  1.7206  0.9689  2.9930
  129ACOH    O2 9926   4.744   2.232   2.434 -0.0191  0.3175  0.0707
  129ACOH    C2 9927   4.836   2.284   2.519  0.2181  0.3518  0.6745
  129ACOH    O1 9928   4.842   2.260   2.635  0.3457 -0.7125 -0.5067
  129ACOH    C1 9929   4.912   2.391   2.444 -0.6578  0.3968 -0.3270
  129ACOH    H1 9930   4.964   2.341   2.362 -1.1194  0.6595 -0.7796
  129ACOH    H2 9931   4.987   2.437   2.509 -0.4269  0.6841 -0.7924
  129ACOH    H3 9932   4.855   2.470   2.396  0.3225 -0.1039 -2.4009
  130ACOH    H4 9933   4.201   9.324   1.737 -0.3695  1.0036 -0.0111
  130ACOH    O2 9934   4.295   9.327   1.762 -0.2841 -0.3448 -0.1161
  130ACOH    C2 9935   4.314   9.260   1.880 -0.0851 -0.2628  0.2629
  130ACOH    O1 9936   4.238   9.184   1.939  0.2828 -0.1930  0.9110
  130ACOH    C1 9937   4.462   9.278   1.922 -0.6190 -0.4363  0.4325
  130ACOH    H1 9938   4.478   9.230   2.019  0.9575 -1.2202 -0.1974
  130ACOH    H2 9939   4.485   9.384   1.932  4.2234 -1.1963 -1.4294
  130ACOH    H3 9940   4.534   9.235   1.852  2.0138  2.2764  1.3901
  131ACOH    H4 9941   4.196   9.970   1.732 -1.4524 -1.4059 -0.3684
  131ACOH    O2 9942   4.254   9.896   1.707  0.5880  0.1482 -0.3588
  131ACOH    C2 9943   4.186   9.795   1.761  0.7553 -0.2918 -0.1271
  131ACOH    O1 9944   4.070   9.792   1.801 -0.6470 -0.0156  0.2847
  131ACOH    C1 9945   4.261   9.667   1.757 -0.1862  0.2105  0.4094
  131ACOH    H1 9946   4.322   9.667   1.667  0.9133 -0.4563  1.1412
  131ACOH    H2 9947   4.200   9.577   1.757  2.9958 -2.0608  0.5086
  131ACOH    H3 9948   4.316   9.658   1.851  0.7338 -3.4225 -0.3862
  132ACOH    H4 9949   4.805   3.441   2.262 -1.2117 -0.8987 -1.1245
  132ACOH    O2 9950   4.765   3.455   2.349  0.9060 -0.2311 -0.2316
  132ACOH    C2 9951   4.637   3.437   2.345  0.2180  0.2138 -0.2877
  132ACOH    O1 9952   4.574   3.406   2.247  0.0739  0.3825  0.0843
  132ACOH    C1 9953   4.571   3.448   2.478 -0.2920 -0.1334 -0.0526
  132ACOH    H1 9954   4.639   3.495   2.549 -0.7726  0.1657  0.2117
  132ACOH    H2 9955   4.547   3.346   2.510 -1.0289  0.5056  1.4985
  132ACOH    H3 9956   4.479   3.505   2.472  0.3863  0.6641 -6.0305
  133ACOH    H4 9957   4.394   0.890   1.509  0.8511  1.1742  1.6858
  133ACOH    O2 9958   4.445   0.816   1.546 -0.7349 -0.5848  0.4546
  133ACOH    C2 9959   4.545   0.858   1.624  0.0292 -0.6563  0.4951
  133ACOH    O1 9960   4.592   0.973   1.623  0.4634 -0.7071  0.2282
  133ACOH    C1 9961   4.622   0.746   1.671  0.1996 -0.1484  0.2733
  133ACOH    H1 9962   4.614   0.669   1.594  0.1857  0.1874 -0.0612
  133ACOH    H2 9963   4.576   0.720   1.766  2.0639 -1.5426  0.8353
  133ACOH    H3 9964   4.727   0.773   1.684 -0.3829  3.0220 -1.1748
  134ACOH    H4 9965   3.364   8.764   1.068  0.9812  1.0835  2.0335
  134ACOH    O2 9966   3.450   8.743   1.026 -0.2310  0.2263 -0.1201
  134ACOH    C2 9967   3.451   8.768   0.899 -0.3540 -0.2498  0.6692
  134ACOH    O1 9968   3.360   8.820   0.833 -0.1054 -0.0304  0.1646
  134ACOH    C1 9969   3.572   8.719   0.840  0.3545  0.6386 -0.3990
  134ACOH    H1 9970   3.653   8.728   0.911 -0.0893 -0.1726  0.2127
  134ACOH    H2 9971   3.598   8.771   0.747  0.7457  0.6037 -0.3088
  134ACOH    H3 9972   3.560   8.615   0.812  2.6141  0.2650 -0.0495
  135ACOH    H4 9973   4.030   9.130   1.272  1.1079  1.1008  1.1842
  135ACOH    O2 9974   4.111   9.083   1.246 -0.0174 -0.0484 -0.3730
  135ACOH    C2 9975   4.161   9.151   1.143  0.1761 -0.3059 -0.2670
  135ACOH    O1 9976   4.097   9.234   1.084 -0.1547  0.4713 -0.2098
  135ACOH    C1 9977   4.310   9.129   1.119  0.1854 -0.5341 -0.4359
  135ACOH    H1 9978   4.341   9.182   1.029 -0.8092 -0.8927 -1.0052
  135ACOH    H2 9979   4.322   9.021   1.108 -1.6267 -0.5580 -2.6225
  135ACOH    H3 9980   4.382   9.160   1.194  1.8169 -1.1302 -1.7323
  136ACOH    H4 9981   3.565   3.862   1.592  0.0578 -0.6620  1.4395
  136ACOH    O2 9982   3.547   3.953   1.622  0.2489 -0.3109  0.5164
  136ACOH    C2 9983   3.414   3.953   1.660 -0.0708  0.7126 -0.9040
  136ACOH    O1 9984   3.336   3.861   1.645 -0.2183  0.2557  0.0702
  136ACOH    C1 9985   3.375   4.084   1.719  0.0434  0.3066 -0.0510
  136ACOH    H1 9986   3.285   4.120   1.668  1.1706  1.8475 -0.9767
  136ACOH    H2 9987   3.444   4.164   1.695 -0.8408  1.1357  0.1169
  136ACOH    H3 9988   3.367   4.080   1.828  1.6173 -0.2352  0.0476
  137ACOH    H4 9989   3.046   3.282   2.588 -0.2782 -2.5004 -0.9756
  137ACOH    O2 9990   3.026   3.242   2.674 -0.3987  0.6891  0.5276
  137ACOH    C2 9991   2.925   3.161   2.667  0.1791  0.8106  0.2634
  137ACOH    O1 9992   2.870   3.118   2.565 -0.6211  0.0013  0.3491
  137ACOH    C1 9993   2.895   3.098   2.800 -0.0740  0.6925 -0.0763
  137ACOH    H1 9994   2.981   3.061   2.856 -0.3159 -2.0101 -1.4520
  137ACOH    H2 9995   2.828   3.013   2.789 -0.6231  1.2783 -1.3416
  137ACOH    H3 9996   2.849   3.178   2.858 -0.7445  0.3909 -0.1918
  138ACOH    H4 9997   2.887   0.850   1.349  1.3406  0.7841 -0.3302
  138ACOH    O2 9998   2.816   0.848   1.282  0.1019 -0.5097  0.9943
  138ACOH    C2 9999   2.838   0.948   1.193  0.6184 -0.1148  0.0783
  138ACOH    O110000   2.935   1.023   1.185  0.1818 -0.2825  0.3973
  138ACOH    C110001   2.752   0.925   1.074  0.1886 -0.1682  0.7145
  138ACOH    H110002   2.653   0.968   1.089 -0.2546 -0.6658 -0.7150
  138ACOH    H210003   2.738   0.820   1.051 -1.6674 -0.0596  1.2297
  138ACOH    H310004   2.793   0.965   0.981 -1.0484 -0.5531 -0.0010
  139ACOH    H410005   4.826   1.801   1.430 -0.8047 -2.4477 -2.2830
  139ACOH    O210006   4.881   1.728   1.464  0.5277 -0.2920  0.4747
  139ACOH    C210007   4.852   1.630   1.378 -0.7737 -0.5569  0.4185
  139ACOH    O110008   4.775   1.629   1.286 -0.3815 -0.3242  0.0979
  139ACOH    C110009   4.934   1.510   1.408 -0.5753  0.4958  0.2790
  139ACOH    H110010   4.906   1.461   1.501 -1.2604 -0.4993 -0.4392
  139ACOH    H210011   5.037   1.541   1.429 -0.1259 -1.0733  0.4591
  139ACOH    H310012   4.929   1.430   1.333  0.1636  1.9528 -1.3603
  140ACOH    H410013   3.849   4.131   0.466  1.0754  2.7685 -2.4869
  140ACOH    O210014   3.758   4.163   0.459 -0.3237 -0.4638 -0.3280
  140ACOH    C210015   3.699   4.145   0.583  0.0688  0.1199 -0.7000
  140ACOH    O110016   3.744   4.087   0.683  0.1750  0.1348  0.0579
  140ACOH    C110017   3.549   4.168   0.571  0.3848 -0.1001  0.2975
  140ACOH    H110018   3.533   4.273   0.546  0.0000 -0.0247  0.8613
  140ACOH    H210019   3.505   4.158   0.670 -0.0706 -1.2302 -0.0146
  140ACOH    H310020   3.506   4.092   0.506  2.0897 -0.7484 -0.0968
  141ACOH    H410021   3.813   8.839   2.358  1.4487  1.3103 -3.3101
  141ACOH    O210022   3.886   8.774   2.358 -0.2293 -0.7028 -0.1852
  141ACOH    C210023   3.953   8.795   2.241  1.2532 -0.0895 -0.0352
  141ACOH    O110024   3.924   8.869   2.148 -0.1988 -0.2705 -0.2571
  141ACOH    C110025   4.052   8.689   2.233  0.1259  0.2559  0.1195
  141ACOH    H110026   4.112   8.679   2.143  1.4089  1.5752  0.8088
  141ACOH    H210027   4.008   8.600   2.277  1.3519 -0.3619  0.1208
  141ACOH    H310028   4.130   8.716   2.304  1.9799  3.3106 -2.9080
  142ACOH    H410029   4.730   1.291   0.455 -0.0074  0.4585  1.0236
  142ACOH    O210030   4.779   1.212   0.484  0.1963  0.2788  0.1923
  142ACOH    C210031   4.859   1.162   0.386  0.4282  0.0969 -0.4183
  142ACOH    O110032   4.885   1.206   0.281  0.4809  0.4349  0.2642
  142ACOH    C110033   4.911   1.034   0.437 -0.0875  0.6130 -0.4049
  142ACOH    H110034   4.832   0.977   0.486  1.9123 -1.0968  0.9078
  142ACOH    H210035   4.995   1.056   0.502  0.4933  1.6270 -1.4830
  142ACOH    H310036   4.937   0.977   0.348 -2.3603 -0.6860 -0.2937
  143ACOH    H410037   3.496   3.984   2.393  1.1129 -2.1093  0.5831
  143ACOH    O210038   3.417   3.934   2.421 -0.0977 -0.5243  0.0761
  143ACOH    C210039   3.334   3.923   2.314  0.4537 -0.2340  0.2037
  143ACOH    O110040   3.364   3.956   2.204  0.1310 -0.0129  0.2219
  143ACOH    C110041   3.211   3.859   2.351 -0.3113 -0.6204  0.3522
  143ACOH    H110042   3.221   3.841   2.458  2.4220 -0.3436  0.1727
  143ACOH    H210043   3.196   3.764   2.300  1.1171 -0.8819  0.3986
  143ACOH    H310044   3.130   3.929   2.330  1.5446  1.8041  0.9612
  144ACOH    H410045   2.890   2.452   1.515 -2.7900  0.4642  1.0037
  144ACOH    O210046   2.850   2.431   1.429 -0.3618 -0.0526 -0.0570
  144ACOH    C210047   2.848   2.543   1.351  0.5828  0.5212 -0.1369
  144ACOH    O110048   2.841   2.657   1.402 -1.0402  0.0326  0.8185
  144ACOH    C110049   2.812   2.506   1.203 -0.4292 -0.6379 -1.2476
  144ACOH    H110050   2.861   2.586   1.149  1.0285  0.0664  1.0424
  144ACOH    H210051   2.704   2.508   1.192 -0.5423  2.4817 -0.0045
  144ACOH    H310052   2.856   2.410   1.175 -1.0477 -1.7874  1.4449
  145ACOH    H410053   4.975   3.509   1.195 -1.7276  1.5141  0.5047
  145ACOH    O210054   5.034   3.569   1.244  0.0906  0.0084  0.1837
  145ACOH    C210055   5.139   3.503   1.299  0.2878  0.1656 -0.3662
  145ACOH    O110056   5.159   3.382   1.273 -0.3920 -0.0765  0.3277
  145ACOH    C110057   5.223   3.587   1.389  0.3284 -0.5065 -0.8040
  145ACOH    H110058   5.156   3.638   1.458  0.2833  0.0701 -1.2691
  145ACOH    H210059   5.273   3.653   1.318  1.2692 -0.9856 -0.5808
  145ACOH    H310060   5.299   3.544   1.453  0.7493  0.5961 -0.5481
  146ACOH    H410061   4.577   0.853   1.326 -0.6079 -0.7435 -1.3811
  146ACOH    O210062   4.629   0.771   1.315  0.6401 -0.0971 -0.3984
  146ACOH    C210063   4.568   0.691   1.230 -0.2464 -0.2270 -0.8779
  146ACOH    O110064   4.510   0.728   1.132 -0.1782 -0.2297 -0.2715
  146ACOH    C110065   4.615   0.550   1.261  0.1256  0.2721 -0.3012
  146ACOH    H110066   4.543   0.499   1.325 -0.5285 -0.7086 -1.7950
  146ACOH    H210067   4.713   0.530   1.306  1.1903  0.7581 -2.3124
  146ACOH    H310068   4.622   0.492   1.169 -1.3654  0.6748 -0.6665
  147SOL     OW10069   3.830   3.785   2.109  0.1880  0.9183  0.0825
  147SOL    HW110070   3.756   3.840   2.071  0.1405 -0.2233 -1.5035
  147SOL    HW210071   3.797   3.738   2.191 -1.2043 -0.4423 -1.2229
  148SOL     OW10072   2.943   2.465   1.688 -0.5191  0.6028  0.0331
  148SOL    HW110073   2.969   2.375   1.725 -0.4123  0.1233 -1.1980
  148SOL    HW210074   2.898   2.518   1.760 -0.5039 -0.4003  0.7983
  149SOL     OW10075   3.996   3.851   1.283 -0.6287  0.5242 -0.5708
  149SOL    HW110076   3.943   3.809   1.209 -0.9322  1.1159 -0.6905
  149SOL    HW210077   3.947   3.930   1.318  0.3126  1.2674 -0.8869
  150SOL     OW10078   3.273   2.497   1.597 -0.0888 -0.0788 -0.0334
  150SOL    HW110079   3.362   2.473   1.637 -0.5378 -0.6745  0.6175
  150SOL    HW210080   3.236   2.576   1.644 -0.7362 -0.9357  0.9220
  151SOL     OW10081   3.699   0.376   2.657  0.4892  0.3138 -0.0519
  151SOL    HW110082   3.621   0.331   2.612 -0.0605  0.1468  1.0420
  151SOL    HW210083   3.762   0.409   2.588 -1.0310  1.2916 -1.0059
  152SOL     OW10084   3.334   9.165   0.755  0.2577 -1.2078  0.0178
  152SOL    HW110085   3.270   9.137   0.827 -1.3660  0.1079 -0.8795
  152SOL    HW210086   3.357   9.262   0.768  0.0860 -1.0114 -1.1321
  153SOL     OW10087   3.676   3.265   1.679 -0.1579  0.6812  0.0593
  153SOL    HW110088   3.618   3.207   1.622 -1.2824  3.0795 -1.3006
  153SOL    HW210089   3.763   3.282   1.633 -0.9928  2.4629 -0.9319
  154SOL     OW10090   3.016   1.204   0.933  0.2857 -0.1484 -0.0734
  154SOL    HW110091   3.107   1.169   0.912 -0.2967 -1.2555 -0.7337
  154SOL    HW210092   2.980   1.157   1.013 -0.0191 -0.2287 -0.2602
  155SOL     OW10093   3.234   1.701   0.963  0.0314  0.1846  0.7514
  155SOL    HW110094   3.238   1.662   0.871  0.5016  1.0112  0.4128
  155SOL    HW210095   3.167   1.775   0.965  1.5525  1.5971  0.5031
  156SOL     OW10096   3.462   0.695   0.613 -0.6575  0.4353 -0.4647
  156SOL    HW110097   3.489   0.709   0.518 -2.4055 -0.7044 -1.1437
  156SOL    HW210098   3.540   0.661   0.665 -0.3523 -1.3790 -2.0600
  157SOL     OW10099   3.326   0.066   2.447  0.4257  0.4896 -0.0329
  157SOL    HW110100   3.261   0.023   2.510 -0.0167  0.5843 -0.4263
  157SOL    HW210101   3.318   0.023   2.357 -0.1178  1.4882 -0.4676
  158SOL     OW10102   4.356   2.987   1.154 -0.2948 -0.3126 -0.3130
  158SOL    HW110103   4.450   2.984   1.186  0.1324 -1.0794 -1.5878
  158SOL    HW210104   4.350   3.043   1.071 -1.1938  0.7866  0.4715
  159SOL     OW10105   3.957   1.389   1.500 -0.1128 -0.0024 -0.0737
  159SOL    HW110106   3.978   1.365   1.405  1.9830  0.6028  0.2088
  159SOL    HW210107   3.953   1.488   1.509 -0.1406 -0.0571  0.4909
  160SOL     OW10108   2.519   2.269   0.038  0.0913  0.2632  0.2606
  160SOL    HW110109   2.463   2.315   0.107 -0.4523  0.0362 -0.0252
  160SOL    HW210110   2.563   2.189   0.078 -0.4585 -0.0377  0.2757
  161SOL     OW10111   3.323   3.400   1.931  0.1359  0.1169 -0.4590
  161SOL    HW110112   3.394   3.329   1.927 -0.1757 -0.1809 -0.7046
  161SOL    HW210113   3.317   3.446   1.842  1.2781  1.3755  0.0902
  162SOL     OW10114   4.362   2.496   2.045 -0.2263  0.3845 -0.6638
  162SOL    HW110115   4.278   2.512   2.096 -1.0281 -0.5805 -1.6527
  162SOL    HW210116   4.396   2.584   2.009  0.3685  1.0727  1.4998
  163SOL     OW10117   3.255   0.541   1.292  0.0460  0.0770  0.2507
  163SOL    HW110118   3.257   0.522   1.194  0.2860  0.6622  0.1404
  163SOL    HW210119   3.264   0.455   1.343  1.4057 -0.0770 -0.2373
  164SOL     OW10120   4.551   3.990   1.982  0.0923 -0.1768 -0.4232
  164SOL    HW110121   4.458   4.026   1.988 -0.2673 -1.0478 -0.6138
  164SOL    HW210122   4.593   4.022   1.897  0.1862  0.7204 -0.0388
  165SOL     OW10123   3.031   2.057   0.718 -0.3649  0.0266  0.6170
  165SOL    HW110124   3.016   1.982   0.654  1.4894  0.4590 -0.3530
  165SOL    HW210125   3.127   2.060   0.745 -0.0854  2.9854 -0.5513
  166SOL     OW10126   4.268   1.494   2.401  0.7469 -0.2650  0.6589
  166SOL    HW110127   4.360   1.457   2.394  0.2737 -1.9700  2.9559
  166SOL    HW210128   4.222   1.455   2.481 -1.7762  0.9787 -0.1295
  167SOL     OW10129   3.471   0.763   0.344  0.1837 -0.0472 -0.1876
  167SOL    HW110130   3.508   0.688   0.290  1.2356  0.7001 -0.5221
  167SOL    HW210131   3.399   0.809   0.292  0.5732  0.1043 -0.5986
  168SOL     OW10132   3.108   9.707   1.558 -0.5212  0.4349 -0.5154
  168SOL    HW110133   3.087   9.638   1.628  0.7408 -0.5169 -1.0497
  168SOL    HW210134   3.049   9.694   1.479 -0.9323  0.5697 -0.2315
  169SOL     OW10135   3.077   1.747   1.217 -0.0572 -0.0042  0.6108
  169SOL    HW110136   3.057   1.774   1.311  0.4426 -0.4393  0.8453
  169SOL    HW210137   3.120   1.657   1.217  0.0858  0.0632 -0.0241
  170SOL     OW10138   4.498   2.007   1.325  0.2676 -0.6839  0.5658
  170SOL    HW110139   4.417   2.003   1.383  0.6635 -0.2064  1.1712
  170SOL    HW210140   4.521   2.102   1.307 -0.8487 -0.8357 -1.8301
  171SOL     OW10141   3.153   9.787   0.819 -0.4828 -0.2923 -0.0945
  171SOL    HW110142   3.110   9.740   0.741 -1.3908  1.1456 -0.4683
  171SOL    HW210143   3.241   9.824   0.791 -0.4515 -0.4549 -0.2146
  172SOL     OW10144   3.958   3.259   1.615 -0.1197  0.2011  0.2233
  172SOL    HW110145   3.946   3.348   1.658  0.1027  1.2371 -1.8084
  172SOL    HW210146   4.035   3.263   1.551 -0.4337 -1.3063 -0.2729
  173SOL     OW10147   3.760   2.674   1.588  0.9856  0.4319  0.3066
  173SOL    HW110148   3.764   2.762   1.539 -1.6586  1.4218  1.7344
  173SOL    HW210149   3.686   2.618   1.550  0.8280  0.0049  1.2251
  174SOL     OW10150   3.680   2.968   0.995 -0.4601  0.0128  0.2165
  174SOL    HW110151   3.581   2.984   1.006 -0.8638 -2.3683  0.2292
  174SOL    HW210152   3.711   3.009   0.910 -1.5572  0.3775 -0.0208
  175SOL     OW10153   3.913   3.882   1.685 -0.0570  0.6203 -0.2423
  175SOL    HW110154   3.909   3.820   1.764 -1.7598  0.5239 -0.3808
  175SOL    HW210155   3.872   3.970   1.710  0.0213  0.8193 -0.8102
  176SOL     OW10156   4.611   1.232   1.517 -0.1218 -0.6677 -0.0445
  176SOL    HW110157   4.557   1.227   1.432  0.1431 -0.4313 -0.2271
  176SOL    HW210158   4.608   1.143   1.563 -1.7139 -0.3077  0.5938
  177SOL     OW10159   2.555   1.887   2.264 -0.0570 -0.4331 -0.1290
  177SOL    HW110160   2.579   1.867   2.169  1.2538  0.6606 -0.0382
  177SOL    HW210161   2.550   1.801   2.315  1.0650 -0.9037 -0.7794
  178SOL     OW10162   4.416   3.543   1.312 -0.3905  0.6490 -0.3990
  178SOL    HW110163   4.319   3.570   1.305 -0.2187  1.5264  0.4887
  178SOL    HW210164   4.425   3.471   1.380 -0.1746  1.9073  0.9324
  179SOL     OW10165   3.319   1.000   0.153  0.0026 -0.3182  0.3484
  179SOL    HW110166   3.309   0.967   0.059  0.2708 -0.4855  0.3786
  179SOL    HW210167   3.230   1.000   0.198 -0.4271  1.4254 -0.4643
  180SOL     OW10168   4.165   1.684   2.240  0.0683  0.2664  0.5570
  180SOL    HW110169   4.199   1.611   2.299  1.2147  1.3378  1.2338
  180SOL    HW210170   4.065   1.684   2.241  0.0770 -0.3997  1.6422
  181SOL     OW10171   2.974   2.022   1.983  0.1166  0.1829  0.5501
  181SOL    HW110172   3.072   2.045   1.979  0.4005 -1.1713 -0.5893
  181SOL    HW210173   2.932   2.070   2.060  1.8429  0.1894  1.5162
  182SOL     OW10174   4.983   2.888   1.771  0.4897 -0.0565 -0.4436
  182SOL    HW110175   4.960   2.837   1.688  2.0475 -2.5059  0.5881
  182SOL    HW210176   4.976   2.828   1.850 -0.8080  2.2201  1.2262
  183SOL     OW10177   3.605   9.340   0.575 -0.0881 -0.2547  0.1894
  183SOL    HW110178   3.686   9.398   0.590 -0.3322  0.6322 -1.6600
  183SOL    HW210179   3.630   9.245   0.588  0.9361  0.0996  0.9096
  184SOL     OW10180   3.511   2.854   1.527  0.0403 -0.4976 -0.2745
  184SOL    HW110181   3.469   2.782   1.472 -1.2455  0.2417 -0.2807
  184SOL    HW210182   3.461   2.863   1.613  1.4278 -0.9728  0.6016
  185SOL     OW10183   3.863   2.080   2.272 -0.6758 -0.5866  0.4027
  185SOL    HW110184   3.908   2.168   2.286  0.0983 -1.1719  1.6338
  185SOL    HW210185   3.916   2.025   2.207  0.0064 -0.9898  1.2953
  186SOL     OW10186   3.807   1.701   1.308  0.3808 -1.0121 -0.2091
  186SOL    HW110187   3.857   1.705   1.394  0.5680  0.1815 -0.3582
  186SOL    HW210188   3.716   1.742   1.319  0.6627 -0.2170 -0.7359
  187SOL     OW10189   4.739   3.475   1.447 -0.3607  0.3632 -0.1848
  187SOL    HW110190   4.714   3.506   1.355  0.0697  0.8502 -0.1418
  187SOL    HW210191   4.824   3.520   1.475  1.2557 -2.1882 -0.8173
  188SOL     OW10192   3.113   3.308   1.629  0.2331 -0.3193 -0.0459
  188SOL    HW110193   3.149   3.236   1.570  2.6126  0.6101  0.2429
  188SOL    HW210194   3.169   3.390   1.621 -0.6645  0.5254  1.8897
  189SOL     OW10195   2.959   2.436   0.924 -0.1800 -0.9409 -0.2046
  189SOL    HW110196   2.926   2.344   0.905 -1.0762 -0.5460 -0.5973
  189SOL    HW210197   2.973   2.447   1.023  0.7671 -1.7653 -0.2385
  190SOL     OW10198   3.360   9.578   1.781  0.5672 -0.0663  0.2515
  190SOL    HW110199   3.423   9.512   1.823 -0.8214 -0.7981  1.1994
  190SOL    HW210200   3.274   9.533   1.759  0.7603  0.6427 -2.1618
  191SOL     OW10201   2.936   9.864   0.025 -0.0599  0.8044  0.3977
  191SOL    HW110202   2.846   9.892  -0.007  0.4061  0.8071 -0.9793
  191SOL    HW210203   2.956   9.907   0.113 -0.6302  2.3308 -0.2072
  192SOL     OW10204   3.612   0.659   0.097  0.0654  0.0873  0.2016
  192SOL    HW110205   3.576   0.723   0.029 -2.7134 -2.2852 -0.6638
  192SOL    HW210206   3.654   0.581   0.050  3.3699  1.1498  1.2452
  193SOL     OW10207   3.131   2.196   2.536 -0.4246 -0.9126 -0.3553
  193SOL    HW110208   3.105   2.236   2.449 -0.6071  0.8579  0.5025
  193SOL    HW210209   3.049   2.184   2.593  0.0564  0.5527  0.6492
  194SOL     OW10210   3.922   0.815   1.739 -0.1385 -0.3999 -0.3367
  194SOL    HW110211   3.959   0.772   1.657 -1.2604 -0.9495 -0.5622
  194SOL    HW210212   3.882   0.745   1.798  0.2766  0.0466  0.4802
  195SOL     OW10213   3.682   0.525   0.730  0.4312 -0.2925  0.1786
  195SOL    HW110214   3.647   0.450   0.786 -1.4008  1.5081  1.5363
  195SOL    HW210215   3.782   0.525   0.732  0.4291 -2.0088  1.0693
  196SOL     OW10216   2.977   1.742   1.984 -0.0671  0.6480  0.5163
  196SOL    HW110217   3.003   1.835   2.011 -0.9180  1.0355  0.0422
  196SOL    HW210218   2.993   1.730   1.886 -1.3541  0.7982  0.2732
  197SOL     OW10219   3.329   9.656   0.516 -0.3730 -0.3438  0.1602
  197SOL    HW110220   3.342   9.576   0.458  1.3556  1.6714 -2.3817
  197SOL    HW210221   3.236   9.692   0.505 -1.0933 -1.8654  1.1785
  198SOL     OW10222   3.951   1.204   0.034 -0.2372  0.1632 -0.0546
  198SOL    HW110223   3.944   1.225   0.131  1.2799  0.4051  0.0227
  198SOL    HW210224   3.920   1.283  -0.019 -0.5589  0.2334  0.2371
  199SOL     OW10225   4.216   1.720   1.170 -0.1920 -0.1652  0.1976
  199SOL    HW110226   4.311   1.693   1.157 -0.4804 -0.8597 -0.4632
  199SOL    HW210227   4.184   1.686   1.259  0.1779  0.0903  0.4312
  200SOL     OW10228   3.150   2.131   0.193  0.1048 -0.2208  0.4398
  200SOL    HW110229   3.223   2.075   0.154 -0.9833 -2.1172  1.0220
  200SOL    HW210230   3.164   2.141   0.292 -1.0037 -1.6206  0.7753
  201SOL     OW10231   4.019   2.316   2.298  0.0548 -0.3968  0.4142
  201SOL    HW110232   4.051   2.380   2.229  1.6847 -1.1393  0.4636
  201SOL    HW210233   4.052   2.343   2.388 -0.9764 -0.1586  0.7257
  202SOL     OW10234   3.175   0.668   0.672 -0.0616  0.1857  0.4830
  202SOL    HW110235   3.264   0.693   0.633  1.0904 -2.1873  1.4686
  202SOL    HW210236   3.120   0.622   0.602 -0.2391  1.0219  0.0695
  203SOL     OW10237   3.924   9.971   0.885 -0.1330 -0.3067  0.5481
  203SOL    HW110238   3.943  10.040   0.954 -0.2569 -0.4280  0.7049
  203SOL    HW210239   3.951  10.005   0.795 -3.0489  1.1856  0.1632
  204SOL     OW10240   3.856   3.552   1.376  0.2930 -0.3533 -0.4940
  204SOL    HW110241   3.879   3.649   1.385  0.0425 -0.1460 -2.0569
  204SOL    HW210242   3.929   3.497   1.417  0.0375  0.5062  1.1536
  205SOL     OW10243   3.764   2.307   2.475 -0.0304 -0.1501  0.0263
  205SOL    HW110244   3.788   2.375   2.544 -1.1950  0.3887 -0.0818
  205SOL    HW210245   3.847   2.269   2.435  0.6679 -0.4152  1.6677
  206SOL     OW10246   4.281   1.964   1.638 -0.2131 -0.8688 -0.1088
  206SOL    HW110247   4.188   1.986   1.606 -0.2832  1.1800  1.4149
  206SOL    HW210248   4.275   1.905   1.719 -0.2232 -0.0161  0.5185
  207SOL     OW10249   2.890   3.554   0.197  0.7419 -0.1183  0.1580
  207SOL    HW110250   2.983   3.589   0.208  0.1225  1.3646  0.8909
  207SOL    HW210251   2.847   3.602   0.120  0.3280 -0.2416  0.3161
  208SOL     OW10252   3.935   4.022   0.907  0.0976  0.4176 -0.4685
  208SOL    HW110253   3.905   4.050   0.998  0.4111  0.0516 -0.2521
  208SOL    HW210254   3.867   4.050   0.839  0.4582  1.8021 -0.2723
  209SOL     OW10255   3.334   2.611   2.084 -0.8763 -0.3983 -0.1174
  209SOL    HW110256   3.389   2.614   2.001 -0.9085  0.9204 -0.1029
  209SOL    HW210257   3.238   2.628   2.061 -0.9038 -0.1519  0.1848
  210SOL     OW10258   2.923   2.920   1.481 -0.6297 -0.0654 -0.5578
  210SOL    HW110259   2.901   2.823   1.466  0.6891 -0.8201  2.1811
  210SOL    HW210260   2.901   2.945   1.575 -1.0663  2.3604 -1.2796
  211SOL     OW10261   4.742   3.188   1.993 -0.1160 -0.6028 -0.2927
  211SOL    HW110262   4.709   3.205   2.086  0.0656 -0.6207 -0.2251
  211SOL    HW210263   4.765   3.092   1.982 -0.7307 -0.7220 -0.5459
  212SOL     OW10264   3.560   9.881   1.150 -0.5571 -0.2283 -0.3615
  212SOL    HW110265   3.596   9.929   1.070  0.2983 -0.0728  0.1099
  212SOL    HW210266   3.592   9.926   1.234 -0.5590 -1.0300  0.0799
  213SOL     OW10267   3.568   9.847   2.522 -0.0400  0.3117 -0.5703
  213SOL    HW110268   3.538   9.937   2.555 -1.5736 -0.2956 -0.2669
  213SOL    HW210269   3.644   9.815   2.579 -0.9547  0.4346  0.7574
  214SOL     OW10270   3.494   1.135   2.511 -0.2954  0.3934  0.0731
  214SOL    HW110271   3.546   1.215   2.542  2.7566 -2.3049  2.2722
  214SOL    HW210272   3.412   1.125   2.568  0.2508  0.9146  0.9734
  215SOL     OW10273   2.999   2.722   0.398 -0.0539 -0.0750  0.2333
  215SOL    HW110274   3.003   2.629   0.436 -1.7226 -0.3199 -0.1580
  215SOL    HW210275   3.032   2.787   0.466 -0.4022 -0.7914  1.0955
  216SOL     OW10276   3.073   0.436   0.863  0.2022  0.0454 -0.0167
  216SOL    HW110277   3.112   0.368   0.924  0.2927  0.4701  0.3963
  216SOL    HW210278   3.093   0.527   0.897  0.8656  0.2958 -1.0510
  217SOL     OW10279   4.596   2.989   1.327 -0.4537 -0.4976  0.1462
  217SOL    HW110280   4.658   2.975   1.405 -0.6995  0.7181  0.5823
  217SOL    HW210281   4.648   3.023   1.249 -0.4559 -0.1744  0.2849
  218SOL     OW10282   3.256   9.143   1.908  0.6084  0.2630  0.2294
  218SOL    HW110283   3.169   9.174   1.869  0.7550  0.3757 -0.0126
  218SOL    HW210284   3.331   9.194   1.866  0.7609  0.4670  0.7507
  219SOL     OW10285   3.271   1.087   0.914 -0.1470  0.3848  0.4081
  219SOL    HW110286   3.248   0.992   0.934 -0.0272 -0.0471 -1.4234
  219SOL    HW210287   3.367   1.094   0.887 -0.6091  0.7204 -1.2480
  220SOL     OW10288   3.081   3.332   2.050  0.4335 -0.0594 -0.5711
  220SOL    HW110289   3.158   3.380   2.008  1.2464 -0.0543  0.8855
  220SOL    HW210290   3.039   3.271   1.982  2.1856 -0.6298 -1.1762
  221SOL     OW10291   3.077   1.592   0.631  0.1442 -0.4157 -0.4603
  221SOL    HW110292   3.067   1.501   0.672  0.2645  0.0252  0.5640
  221SOL    HW210293   3.173   1.617   0.629 -0.0138  0.3450  0.7356
  222SOL     OW10294   3.257   1.322   1.419 -0.5574 -0.6791  0.4756
  222SOL    HW110295   3.313   1.285   1.344 -0.7281  0.0991 -0.0424
  222SOL    HW210296   3.315   1.337   1.499 -0.2754 -1.0748  0.3461
  223SOL     OW10297   3.656   3.661   0.894  0.6090 -0.2933 -0.1257
  223SOL    HW110298   3.641   3.580   0.952 -0.1390 -1.2377 -1.6065
  223SOL    HW210299   3.568   3.705   0.876  1.0179  0.8430  0.6501
  224SOL     OW10300   4.582   2.447   1.566  0.8767 -0.0882  0.8615
  224SOL    HW110301   4.570   2.484   1.658 -0.4982 -0.2166  0.7496
  224SOL    HW210302   4.532   2.504   1.500  0.9496 -0.6127  0.3461
  225SOL     OW10303   3.553   1.704   0.056  0.2864 -0.0170 -0.0472
  225SOL    HW110304   3.459   1.680   0.079  0.7391 -1.1111  0.6662
  225SOL    HW210305   3.567   1.695  -0.043 -0.4977  0.6785 -0.2289
  226SOL     OW10306   3.279   1.764   1.850  0.4281  0.4776 -0.4130
  226SOL    HW110307   3.344   1.694   1.820  0.9240  1.1213 -0.8441
  226SOL    HW210308   3.239   1.737   1.938 -1.3873 -1.6787 -1.8219
  227SOL     OW10309   3.310   0.364   2.058  0.0920  0.0735 -0.5021
  227SOL    HW110310   3.380   0.337   1.992  0.4657 -0.8383  0.2600
  227SOL    HW210311   3.351   0.422   2.128 -0.3249  1.1172 -1.1000
  228SOL     OW10312   2.718   2.741   2.285  0.3726  0.1926 -0.5546
  228SOL    HW110313   2.668   2.685   2.219 -0.4357  0.3670 -0.1002
  228SOL    HW210314   2.735   2.687   2.368 -0.6872  0.7038  0.0094
  229SOL     OW10315   3.243   1.222   2.625 -0.3094 -0.4954 -0.2062
  229SOL    HW110316   3.191   1.308   2.624 -1.0562 -0.9094  1.2715
  229SOL    HW210317   3.231   1.174   2.538  0.6424  1.2006 -1.3033
  230SOL     OW10318   3.031   9.542   1.785 -0.0773 -0.3730 -0.2306
  230SOL    HW110319   2.932   9.532   1.798  0.0152 -0.0030  0.7514
  230SOL    HW210320   3.068   9.606   1.852  0.8427 -0.5504 -0.5572
  231SOL     OW10321   4.388   1.751   2.613  0.0795 -0.6052  0.0324
  231SOL    HW110322   4.356   1.706   2.530  1.4026 -0.2865 -0.6647
  231SOL    HW210323   4.392   1.850   2.599 -1.0293 -0.4190  0.9420
  232SOL     OW10324   3.407   0.262   2.711  0.1661 -0.1833 -0.4815
  232SOL    HW110325   3.367   0.193   2.651  2.0762 -1.7901  0.0341
  232SOL    HW210326   3.474   0.219   2.771  1.4804  2.1392 -0.2183
  233SOL     OW10327   3.055   1.028   2.378 -0.3939  0.1920 -0.2091
  233SOL    HW110328   2.960   1.036   2.346 -0.6013  0.3527  0.4386
  233SOL    HW210329   3.099   1.118   2.372 -0.2737  0.1126 -0.5312
  234SOL     OW10330   3.530   0.868   2.649  0.2323 -0.2386  0.2419
  234SOL    HW110331   3.583   0.952   2.660  0.3686 -0.3599  0.5250
  234SOL    HW210332   3.436   0.890   2.625  0.5090 -0.0270 -0.6749
  235SOL     OW10333   3.642   0.241   1.644  0.2202 -0.4241  0.7163
  235SOL    HW110334   3.650   0.141   1.646 -1.8747 -0.6028  0.7031
  235SOL    HW210335   3.605   0.270   1.556  0.0939  0.3227  1.0112
  236SOL     OW10336   3.471   1.922   2.083  0.2748  0.4328 -0.5599
  236SOL    HW110337   3.455   1.827   2.111 -1.8745  0.6313 -1.0564
  236SOL    HW210338   3.479   1.980   2.165  2.5028 -0.2873 -0.2339
  237SOL     OW10339   3.684   9.629   1.094 -0.7872 -0.1914  0.2549
  237SOL    HW110340   3.749   9.608   1.167  0.0844  0.7184 -0.2403
  237SOL    HW210341   3.642   9.718   1.112  0.6617  0.8124 -1.1897
  238SOL     OW10342   3.486   1.900   0.361  0.1541 -0.2877  0.2085
  238SOL    HW110343   3.582   1.928   0.370  0.3788 -1.2719  1.0094
  238SOL    HW210344   3.479   1.802   0.381 -1.2445  0.0920  1.6395
  239SOL     OW10345   3.831   2.414   0.218 -0.3737  0.0784  0.4740
  239SOL    HW110346   3.843   2.451   0.310 -0.8809  0.9644  0.1891
  239SOL    HW210347   3.769   2.335   0.222 -0.6595  0.3180  0.8495
  240SOL     OW10348   4.151   1.022   0.577  0.5640 -0.7872 -0.5569
  240SOL    HW110349   4.170   0.935   0.622  1.3315 -0.7009 -0.7197
  240SOL    HW210350   4.059   1.053   0.602  0.7657 -1.0221  0.4886
  241SOL     OW10351   2.817   1.824   0.223 -0.0561 -0.0787  0.1330
  241SOL    HW110352   2.764   1.741   0.242  1.4621 -1.6034 -1.9975
  241SOL    HW210353   2.912   1.810   0.254  0.0286  1.1688  0.4491
  242SOL     OW10354   3.545   0.701   1.094  0.1112 -0.2471 -0.1334
  242SOL    HW110355   3.584   0.747   1.014 -2.4006 -0.8438 -1.7609
  242SOL    HW210356   3.515   0.769   1.160  1.0089  0.3013 -0.2841
  243SOL     OW10357   4.493   1.738   1.254  0.4257 -0.0614 -0.4322
  243SOL    HW110358   4.511   1.831   1.285  0.8197 -0.7168  1.3748
  243SOL    HW210359   4.577   1.684   1.262  0.5260 -0.2617 -2.6640
  244SOL     OW10360   4.642   2.137   1.007  0.5325  0.0018  0.4458
  244SOL    HW110361   4.717   2.144   1.073  0.8412 -1.6699  0.2800
  244SOL    HW210362   4.587   2.221   1.011  0.3780 -0.1662  3.0589
  245SOL     OW10363   3.679   9.377   0.984  0.2110 -0.7832  0.4251
  245SOL    HW110364   3.675   9.471   1.016 -1.2270 -1.2233  1.6336
  245SOL    HW210365   3.744   9.369   0.908 -1.7534  1.7453 -1.6178
  246SOL     OW10366   3.019   0.039   0.217  0.1296 -0.3372  0.2665
  246SOL    HW110367   2.959   0.040   0.297  1.3987  0.0223  1.2426
  246SOL    HW210368   3.104   0.087   0.239  0.6723 -0.6183 -1.1646
  247SOL     OW10369   4.909   2.678   1.982  0.1188 -0.0993  0.2858
  247SOL    HW110370   4.958   2.642   2.061 -0.6320 -1.6524  0.0661
  247SOL    HW210371   4.914   2.613   1.906  0.3700  1.1324 -0.7665
  248SOL     OW10372   3.916   1.223   0.528  0.5525  0.2288  0.2533
  248SOL    HW110373   3.863   1.143   0.557  1.2289 -0.6063 -0.8155
  248SOL    HW210374   3.856   1.285   0.477  0.6832 -0.9226 -1.3347
  249SOL     OW10375   3.345   9.469   1.215  0.2870  0.1576 -0.8522
  249SOL    HW110376   3.284   9.497   1.140 -0.1787 -2.2097 -1.3942
  249SOL    HW210377   3.363   9.547   1.274 -1.3118  1.4819 -2.0714
  250SOL     OW10378   3.938   0.516   2.026 -0.1511  0.2613 -0.2594
  250SOL    HW110379   3.918   0.419   2.019  0.8587 -0.0857  1.4578
  250SOL    HW210380   4.024   0.536   1.979 -0.3960  0.3373 -0.6757
  251SOL     OW10381   3.552   0.710   2.373 -0.0227  0.0434 -0.0175
  251SOL    HW110382   3.550   0.810   2.379 -1.5390  0.0240 -0.0940
  251SOL    HW210383   3.644   0.680   2.347 -0.6114  1.6901 -4.3651
  252SOL     OW10384   3.676   3.156   2.562  0.2088  0.4595  0.1187
  252SOL    HW110385   3.583   3.152   2.599 -0.2123  0.4296 -0.9363
  252SOL    HW210386   3.710   3.064   2.548  0.4504  0.4699  0.6271
  253SOL     OW10387   3.665   9.639   0.376  0.0436  0.3219  0.1938
  253SOL    HW110388   3.722   9.721   0.382  0.4440  0.0225  0.4506
  253SOL    HW210389   3.576   9.664   0.338  0.5449  0.6905 -0.7585
  254SOL     OW10390   3.214   2.980   2.617  0.2806 -0.6289  0.2226
  254SOL    HW110391   3.157   2.944   2.691 -1.3096  0.3293 -0.5111
  254SOL    HW210392   3.210   2.919   2.538  1.0922 -1.0771  0.5191
  255SOL     OW10393   4.174   0.782   1.890 -0.4401  0.4506 -0.7497
  255SOL    HW110394   4.130   0.786   1.801 -0.6330 -0.2440 -0.6888
  255SOL    HW210395   4.193   0.875   1.923 -0.4708  0.7062 -1.4583
  256SOL     OW10396   4.265   1.687   0.176  0.3272  1.1488  0.3869
  256SOL    HW110397   4.323   1.718   0.101  0.5744 -0.1086  0.0445
  256SOL    HW210398   4.172   1.724   0.165  0.2229  0.5436 -0.8331
  257SOL     OW10399   4.188   0.518   1.898 -0.1329  0.1941 -0.4250
  257SOL    HW110400   4.215   0.613   1.879 -0.5606  0.1726 -1.1888
  257SOL    HW210401   4.249   0.479   1.967  0.5696  0.7591 -0.7135
  258SOL     OW10402   3.136   2.567   0.778 -0.1707  0.6722 -0.2504
  258SOL    HW110403   3.077   2.518   0.843 -0.4377  0.3939 -0.7045
  258SOL    HW210404   3.125   2.665   0.792  1.4296  0.6246  1.6338
  259SOL     OW10405   3.438   9.866   0.266  0.1973  0.4507  0.3376
  259SOL    HW110406   3.423   9.771   0.240  1.4682  0.4680 -0.5325
  259SOL    HW210407   3.482   9.870   0.355  1.2059  0.1702 -0.1400
  260SOL     OW10408   3.828   1.453   0.767 -0.1470 -0.1693  0.6862
  260SOL    HW110409   3.807   1.533   0.712 -0.4896  0.4291  1.6638
  260SOL    HW210410   3.920   1.420   0.746 -0.7058 -0.6540 -1.0705
  261SOL     OW10411   4.100   0.508   1.607 -0.0879  0.1992  0.1300
  261SOL    HW110412   4.089   0.604   1.584 -0.5109  0.4869  1.5076
  261SOL    HW210413   4.129   0.499   1.702 -2.7057 -1.1366  0.8459
  262SOL     OW10414   4.020   0.338   0.584  0.5103 -0.4535  0.0670
  262SOL    HW110415   4.065   0.391   0.511 -0.0655  1.3618  1.0015
  262SOL    HW210416   4.080   0.334   0.663 -0.9664  2.1360  1.3876
  263SOL     OW10417   4.005   3.395   0.607 -0.0242  0.3069  0.5569
  263SOL    HW110418   4.042   3.329   0.542 -0.7252  0.7052 -0.2568
  263SOL    HW210419   3.951   3.464   0.558 -1.1782  0.1848  1.6281
  264SOL     OW10420   3.177   0.455   1.821  0.1389 -0.4029  0.0105
  264SOL    HW110421   3.133   0.379   1.774  0.0686 -0.7568  0.6358
  264SOL    HW210422   3.224   0.420   1.903  2.7670 -0.2715 -1.3766
  265SOL     OW10423   3.465   9.818   1.693 -0.0542  0.5447 -0.2140
  265SOL    HW110424   3.426   9.736   1.737 -0.0869 -0.4089 -1.9834
  265SOL    HW210425   3.431   9.899   1.740 -0.2714 -0.4385  1.3806
  266SOL     OW10426   2.711   2.082   0.153  0.3684 -0.2754 -0.5146
  266SOL    HW110427   2.776   2.140   0.201 -0.8753 -0.2297  1.1526
  266SOL    HW210428   2.714   1.989   0.190 -0.1614 -0.4011 -0.7733
  267SOL     OW10429   3.212   9.527   0.988  0.1112 -0.2641  0.0642
  267SOL    HW110430   3.266   9.465   0.931 -0.2040  0.8976 -1.5342
  267SOL    HW210431   3.236   9.622   0.967 -0.8601  0.2106  1.0261
  268SOL     OW10432   3.493   2.193   1.214  0.0756  0.6251  0.0574
  268SOL    HW110433   3.543   2.157   1.292  0.5885 -0.9316 -0.9642
  268SOL    HW210434   3.457   2.117   1.159 -0.7066  1.6952 -0.9518
  269SOL     OW10435   3.338   1.326   0.138 -0.2912  0.1896 -0.8506
  269SOL    HW110436   3.299   1.277   0.060 -0.0197 -0.5534 -0.5197
  269SOL    HW210437   3.418   1.277   0.172 -0.8713  0.0970  0.3949
  270SOL     OW10438   3.222   3.132   1.454 -0.3445  0.6089  0.0304
  270SOL    HW110439   3.168   3.082   1.386 -1.3391 -1.0980  2.0105
  270SOL    HW210440   3.309   3.086   1.467 -0.2583  0.7944  0.1082
  271SOL     OW10441   3.160   2.255   1.415  0.0204  0.3549 -0.0096
  271SOL    HW110442   3.172   2.329   1.481 -1.7005  0.4505  0.2288
  271SOL    HW210443   3.232   2.187   1.427  0.2082  0.7825  1.4066
  272SOL     OW10444   3.278   9.760   1.179  0.1095 -0.7277 -0.0248
  272SOL    HW110445   3.295   9.719   1.269  2.2907 -0.3568 -0.2372
  272SOL    HW210446   3.354   9.821   1.156  0.5908 -2.3332 -2.9573
  273SOL     OW10447   3.388   3.247   1.085  0.0621 -0.6138 -0.2317
  273SOL    HW110448   3.300   3.258   1.039  0.2008  2.5391  0.1612
  273SOL    HW210449   3.415   3.334   1.126  3.1798 -1.6505  0.0036
  274SOL     OW10450   2.955   1.820   0.571 -0.6741  0.4363  0.0821
  274SOL    HW110451   2.999   1.734   0.596 -0.5168 -0.1120 -2.0159
  274SOL    HW210452   2.857   1.815   0.590 -0.4742  0.2656  1.1212
  275SOL     OW10453   3.516   0.336   1.865  0.3211  0.0023  0.0940
  275SOL    HW110454   3.565   0.318   1.780  1.2483 -0.1057  0.6454
  275SOL    HW210455   3.570   0.398   1.922 -0.3353  0.1443  0.5652
  276SOL     OW10456   3.614   9.063   0.368  0.5256 -0.0213  0.4888
  276SOL    HW110457   3.637   9.156   0.342  2.3600 -0.2730  1.1695
  276SOL    HW210458   3.604   9.058   0.467 -2.4962  0.0682  0.2360
  277SOL     OW10459   3.565   1.402   2.542 -0.2813  0.0651 -0.1739
  277SOL    HW110460   3.551   1.500   2.557 -0.8950  0.2342 -1.7782
  277SOL    HW210461   3.581   1.384   2.445  1.9298 -1.1946  0.3857
  278SOL     OW10462   2.666   1.838   2.007  0.5081 -0.3299 -0.4142
  278SOL    HW110463   2.605   1.823   1.929 -0.0807  0.3067 -0.0845
  278SOL    HW210464   2.759   1.810   1.982  0.2273 -0.6050 -1.1765
  279SOL     OW10465   3.315   2.395   2.588 -0.0141 -0.0518  1.0021
  279SOL    HW110466   3.403   2.348   2.592  0.1297  0.1969  0.7241
  279SOL    HW210467   3.241   2.328   2.598  0.0944 -0.7236 -2.1242
  280SOL     OW10468   2.778   0.322   0.862  0.2102 -0.3637  0.0037
  280SOL    HW110469   2.803   0.284   0.951 -0.9335  0.5056  0.7036
  280SOL    HW210470   2.849   0.387   0.833 -0.9214  1.6896  1.7406
  281SOL     OW10471   3.414   2.633   1.404 -0.3494 -0.0291  0.2086
  281SOL    HW110472   3.428   2.566   1.331  0.6562  0.3950  0.0000
  281SOL    HW210473   3.366   2.591   1.480 -0.6252 -0.7126 -0.3361
  282SOL     OW10474   4.958   2.935   1.317 -0.3856 -0.3511  0.0238
  282SOL    HW110475   5.048   2.979   1.319  0.4565 -2.0175  0.2829
  282SOL    HW210476   4.903   2.973   1.243  0.5070  0.7338 -0.0927
  283SOL     OW10477   3.255   0.919   2.582  0.2488  0.4521  1.0103
  283SOL    HW110478   3.195   0.974   2.525  1.2099  0.9077  0.4276
  283SOL    HW210479   3.215   0.829   2.596 -1.6116  1.4773  2.4545
  284SOL     OW10480   4.528   1.962   0.831 -0.2345  0.0841 -0.9086
  284SOL    HW110481   4.574   1.991   0.747  2.1272 -1.6440 -0.2917
  284SOL    HW210482   4.584   1.989   0.910 -0.9224 -0.9506 -0.0572
  285SOL     OW10483   4.375   0.641   0.877  0.1197 -0.0492  0.0848
  285SOL    HW110484   4.303   0.710   0.886 -0.5617 -0.3948 -2.5221
  285SOL    HW210485   4.446   0.658   0.946 -0.5835  2.5603  0.2046
  286SOL     OW10486   2.708   2.161   2.171  0.2314 -0.2230 -0.4092
  286SOL    HW110487   2.693   2.084   2.110 -2.7492  1.0315 -1.3584
  286SOL    HW210488   2.660   2.144   2.258 -0.8365  0.7547 -0.8019
  287SOL     OW10489   4.695   1.414   1.119  0.2698 -0.3200 -0.3084
  287SOL    HW110490   4.667   1.437   1.026  1.7871 -0.7721 -0.8970
  287SOL    HW210491   4.742   1.492   1.160  0.5480 -0.4824 -0.3169
  288SOL     OW10492   2.941   0.027   0.493  0.7299  0.2894  0.0644
  288SOL    HW110493   2.979   0.111   0.533 -0.0561  0.9044 -0.4856
  288SOL    HW210494   2.853   0.006   0.536  0.7835 -0.0925 -0.0102
  289SOL     OW10495   3.303   2.995   0.376 -0.4369  0.4168 -0.7127
  289SOL    HW110496   3.284   2.949   0.290  0.4002 -3.3261  0.9881
  289SOL    HW210497   3.235   2.968   0.444  0.6328  0.9122  0.5887
  290SOL     OW10498   3.824   1.691   0.619 -0.3229 -0.5264 -0.2707
  290SOL    HW110499   3.849   1.701   0.522  0.1498 -0.7460 -0.1710
  290SOL    HW210500   3.743   1.747   0.638 -0.5159 -0.6123 -0.8323
  291SOL     OW10501   4.524   2.052   1.673  0.2075 -0.2339  0.4072
  291SOL    HW110502   4.430   2.026   1.649 -0.1806  1.3856  0.1181
  291SOL    HW210503   4.524   2.105   1.757  0.7186  0.8204 -0.2408
  292SOL     OW10504   3.898   0.458   0.138  0.2287  0.8527 -0.2943
  292SOL    HW110505   3.979   0.454   0.080 -0.9007 -4.4172 -1.7128
  292SOL    HW210506   3.816   0.449   0.082 -1.2128  2.4250  1.4943
  293SOL     OW10507   3.338   9.365   2.087  0.1765 -0.1385 -0.1513
  293SOL    HW110508   3.415   9.383   2.026  2.2329 -1.0903  2.0883
  293SOL    HW210509   3.327   9.266   2.098 -0.1276  0.0321  1.0818
  294SOL     OW10510   3.438   1.649   2.187 -0.1376 -0.2299 -0.6148
  294SOL    HW110511   3.376   1.672   2.261 -0.9951 -0.2108 -1.3291
  294SOL    HW210512   3.500   1.576   2.216  1.1275  1.4018  0.9175
  295SOL     OW10513   3.169   9.323   1.679  0.0382 -0.3218  0.0542
  295SOL    HW110514   3.159   9.333   1.580 -0.4404 -0.4865  0.0891
  295SOL    HW210515   3.099   9.376   1.726  0.1642 -0.3751  0.3062
  296SOL     OW10516   4.209   0.885   0.850 -0.5870  0.0223  0.3876
  296SOL    HW110517   4.130   0.862   0.906  0.3336  0.2498  1.7875
  296SOL    HW210518   4.249   0.971   0.882 -0.2410  0.3225 -0.8223
  297SOL     OW10519   3.029   1.281   1.718  0.0569  0.4094  0.4286
  297SOL    HW110520   2.999   1.260   1.625  0.7746 -0.0875  0.3070
  297SOL    HW210521   2.950   1.280   1.779 -0.0873 -1.5185  0.2345
  298SOL     OW10522   3.405   0.472   2.300  0.4212 -0.1129 -0.5018
  298SOL    HW110523   3.460   0.553   2.318 -1.8447  1.2116  0.7719
  298SOL    HW210524   3.322   0.475   2.357  0.0606 -3.0808 -0.7908
  299SOL     OW10525   3.695   0.506   1.623  0.2914 -0.7742  0.3422
  299SOL    HW110526   3.680   0.408   1.637  1.8525 -0.9867  0.5772
  299SOL    HW210527   3.749   0.543   1.698  0.3807  0.1099 -0.1509
  300SOL     OW10528   3.395   9.395   0.384  0.0884 -0.6413 -0.6393
  300SOL    HW110529   3.355   9.305   0.367 -1.1660 -0.2383  0.0819
  300SOL    HW210530   3.485   9.385   0.426  0.1521 -1.5588 -0.9959
  301SOL     OW10531   3.157   2.597   1.266  0.1493 -0.3030  0.6327
  301SOL    HW110532   3.143   2.503   1.236  1.2042 -0.8490  1.8158
  301SOL    HW210533   3.231   2.600   1.333  2.0863  1.7469 -1.4943
  302SOL     OW10534   3.666   9.517   1.488  0.0734 -0.5292  0.3118
  302SOL    HW110535   3.718   9.519   1.403  1.1856 -1.2493  0.9669
  302SOL    HW210536   3.591   9.451   1.480 -1.6169  1.4834 -1.1107
  303SOL     OW10537   3.506   1.136   0.318 -0.2094  0.6272 -0.1913
  303SOL    HW110538   3.425   1.080   0.334  1.1907 -1.4354 -0.0897
  303SOL    HW210539   3.557   1.099   0.240  2.2121  0.0662  1.6231
  304SOL     OW10540   2.847   1.158   1.893 -0.1872 -0.4380  0.0293
  304SOL    HW110541   2.901   1.077   1.869 -0.3075 -0.3980 -0.3878
  304SOL    HW210542   2.871   1.189   1.985  0.4628 -0.4515 -0.1336
  305SOL     OW10543   2.919   2.319   2.073 -0.0426 -0.3848 -0.1519
  305SOL    HW110544   2.977   2.293   2.151 -0.5203  1.7644  0.9755
  305SOL    HW210545   2.826   2.286   2.089 -0.5017  1.3450  0.9785
  306SOL     OW10546   3.347   9.253   2.575  0.4577  0.4848 -0.3560
  306SOL    HW110547   3.336   9.323   2.504  2.6682  1.4297  0.1969
  306SOL    HW210548   3.361   9.164   2.532 -1.4972  0.5094 -1.0706
  307SOL     OW10549   4.379   3.714   0.336  0.2802 -0.1419  0.0926
  307SOL    HW110550   4.426   3.663   0.264 -0.1248 -0.8545  0.3317
  307SOL    HW210551   4.380   3.661   0.421  2.1462  1.3599  1.0540
  308SOL     OW10552   3.482   3.711   1.936 -0.1221 -0.6046  0.0180
  308SOL    HW110553   3.480   3.681   2.031 -0.0971  0.3440  0.3144
  308SOL    HW210554   3.395   3.688   1.892 -0.9512  0.8661  0.8523
  309SOL     OW10555   3.383   9.601   0.210 -0.4484  0.1351  0.3215
  309SOL    HW110556   3.388   9.521   0.270  2.0881 -1.0552 -1.4003
  309SOL    HW210557   3.351   9.572   0.120 -0.5320  1.2652 -0.0194
  310SOL     OW10558   3.086   9.774   0.533 -0.6813  0.4799  0.0958
  310SOL    HW110559   3.091   9.761   0.434  0.5654 -0.0392  0.2163
  310SOL    HW210560   3.072   9.871   0.554 -0.0221  0.7120 -0.5584
  311SOL     OW10561   2.880   3.327   2.239  0.0699 -0.5737  0.7601
  311SOL    HW110562   2.956   3.326   2.174 -0.2508 -0.5084  0.3834
  311SOL    HW210563   2.802   3.280   2.199 -0.5641  0.6232  0.5757
  312SOL     OW10564   3.650   3.617   1.682 -0.2640 -0.0498  0.2243
  312SOL    HW110565   3.616   3.658   1.767 -1.4862  2.4540 -1.3882
  312SOL    HW210566   3.591   3.540   1.656  1.1172 -1.9283  2.4719
  313SOL     OW10567   3.075   0.278   0.626 -0.4634  0.7518  0.4428
  313SOL    HW110568   3.174   0.265   0.615 -0.4682  1.5154 -0.5272
  313SOL    HW210569   3.058   0.326   0.712 -0.1152 -0.8990  1.4608
  314SOL     OW10570   4.782   2.096   0.147  0.0255  0.3633 -0.1070
  314SOL    HW110571   4.825   2.006   0.136  1.3545  0.9789  0.0544
  314SOL    HW210572   4.810   2.156   0.073  1.0157  1.3850  1.0872
  315SOL     OW10573   3.622   1.837   0.704 -0.4099 -0.0588 -0.7377
  315SOL    HW110574   3.561   1.910   0.674  0.2970  0.0642 -1.8942
  315SOL    HW210575   3.593   1.805   0.794 -0.6509  1.7416 -0.1463
  316SOL     OW10576   4.209   1.384   2.640 -0.0839 -0.2114 -0.0060
  316SOL    HW110577   4.269   1.404   2.717 -1.7155  1.3266  0.8863
  316SOL    HW210578   4.191   1.285   2.637  1.4851 -0.5277  0.4327
  317SOL     OW10579   3.442   1.349   1.980 -0.1591 -0.0194  0.7664
  317SOL    HW110580   3.360   1.329   1.927 -1.0686  1.5620  1.5304
  317SOL    HW210581   3.520   1.301   1.940 -0.4857  2.3874 -2.9906
  318SOL     OW10582   3.716   1.553   1.728 -0.4270  0.1398 -0.2222
  318SOL    HW110583   3.734   1.618   1.654  0.1429  0.9787  0.6304
  318SOL    HW210584   3.723   1.460   1.694 -1.1482  0.5255 -1.4434
  319SOL     OW10585   3.342   9.449   2.390  0.2700  1.0342 -0.1275
  319SOL    HW110586   3.292   9.497   2.317 -0.3678  0.7764  0.1452
  319SOL    HW210587   3.437   9.436   2.361 -0.5138 -1.0820 -1.8730
  320SOL     OW10588   3.278   1.940   2.578 -0.2696 -0.0897 -0.0478
  320SOL    HW110589   3.327   1.985   2.653  1.9583  0.0849 -1.5682
  320SOL    HW210590   3.215   2.005   2.536  0.4281  0.5940 -0.0434
  321SOL     OW10591   3.527   2.163   1.616  0.5678  0.0272 -0.0747
  321SOL    HW110592   3.478   2.099   1.675 -1.0257  1.4481  0.1764
  321SOL    HW210593   3.561   2.115   1.535 -1.6577 -0.8926 -0.4734
  322SOL     OW10594   4.581   1.763   1.578 -0.1350  0.2911 -0.5095
  322SOL    HW110595   4.589   1.859   1.604  0.1288  0.5246 -1.4465
  322SOL    HW210596   4.658   1.712   1.617  0.7849  0.8178 -1.6086
  323SOL     OW10597   3.562   1.821   1.340  0.0328 -0.3461  0.1481
  323SOL    HW110598   3.541   1.780   1.429 -1.6410  1.6641  0.7055
  323SOL    HW210599   3.488   1.801   1.275  0.5666 -0.5984 -0.3917
  324SOL     OW10600   3.218   2.824   0.165 -0.2434 -0.1461 -0.1153
  324SOL    HW110601   3.132   2.781   0.138 -1.0649  0.5423  1.3325
  324SOL    HW210602   3.266   2.764   0.230  0.5941 -0.7396 -1.2784
  325SOL     OW10603   3.530   9.995   0.052 -0.1294 -0.5020  0.5391
  325SOL    HW110604   3.552  10.076   0.107  1.5910 -1.4142  1.2168
  325SOL    HW210605   3.492   9.924   0.111 -0.1184 -0.7800  0.2125
  326SOL     OW10606   4.314   2.295   1.446 -0.5208  0.1603  1.0005
  326SOL    HW110607   4.280   2.294   1.540  0.4432  1.2792  1.3868
  326SOL    HW210608   4.245   2.258   1.385 -0.5518 -2.0403  2.3379
  327SOL     OW10609   3.473   2.779   2.546  0.1925  0.2663  0.1420
  327SOL    HW110610   3.397   2.811   2.491  0.3399  1.4350  0.6095
  327SOL    HW210611   3.442   2.704   2.605 -0.1020 -0.6013 -1.0825
  328SOL     OW10612   3.316   1.143   0.548 -0.3381  0.4622  0.0538
  328SOL    HW110613   3.299   1.189   0.635 -1.1107  0.1219  0.0949
  328SOL    HW210614   3.291   1.203   0.472  1.4242  1.1829  0.0355
  329SOL     OW10615   3.320   0.007   0.647  0.3725 -0.6975  0.0658
  329SOL    HW110616   3.330   0.051   0.558  0.3693 -2.4676 -0.8230
  329SOL    HW210617   3.333  -0.092   0.638 -2.0019 -1.2148  1.6037
  330SOL     OW10618   4.031   1.579   2.586  0.4776  0.5095  0.6584
  330SOL    HW110619   3.947   1.532   2.614 -0.2588  1.1944 -0.3899
  330SOL    HW210620   4.110   1.521   2.608 -0.2957 -0.3767  1.1473
  331SOL     OW10621   4.220   1.938   2.129  0.3501 -0.0123 -0.2970
  331SOL    HW110622   4.220   1.847   2.170  0.4426  0.1315  0.0267
  331SOL    HW210623   4.303   1.986   2.156 -0.1306  0.5043  0.2960
  332SOL     OW10624   2.996   9.687   1.310  0.3217 -0.1152 -0.6794
  332SOL    HW110625   3.039   9.775   1.288  0.8656 -0.3778 -0.6689
  332SOL    HW210626   2.958   9.647   1.227 -0.5371  0.4561 -0.5663
  333SOL     OW10627   3.694   9.940   1.606  0.0076 -0.6170  0.1645
  333SOL    HW110628   3.752   9.948   1.686  2.0067 -2.3600 -1.0296
  333SOL    HW210629   3.611   9.889   1.630 -1.0826  1.8809  1.8812
  334SOL     OW10630   3.394   1.978   1.059 -0.7166  0.3907  0.2734
  334SOL    HW110631   3.470   1.927   1.019 -0.1585 -0.5386  2.4628
  334SOL    HW210632   3.321   1.989   0.991  0.3253 -0.8925 -1.0669
  335SOL     OW10633   3.648   0.041   1.340 -0.5710  0.3851 -0.1334
  335SOL    HW110634   3.588   0.115   1.370  0.8584  1.0713  1.0891
  335SOL    HW210635   3.681  -0.010   1.419  0.4383 -0.0015 -0.7871
  336SOL     OW10636   3.890   9.301   0.822 -0.6788 -0.3112 -0.0155
  336SOL    HW110637   3.889   9.356   0.738  0.2725  1.1912  0.9269
  336SOL    HW210638   3.982   9.267   0.840 -1.3919 -2.8339 -0.9491
  337SOL     OW10639   3.279   1.743   2.400 -0.4318  0.2424  0.7342
  337SOL    HW110640   3.212   1.676   2.431 -0.5543 -0.0741 -0.2000
  337SOL    HW210641   3.276   1.824   2.459 -0.9773 -0.1664  1.2603
  338SOL     OW10642   3.062   3.024   1.278  1.4958 -0.0579  0.6543
  338SOL    HW110643   2.999   2.991   1.348  0.5631 -0.4702 -0.3680
  338SOL    HW210644   3.091   2.947   1.221  0.7190  0.5811 -0.6261
  339SOL     OW10645   4.360   3.183   0.934  0.1909 -0.0139  0.2947
  339SOL    HW110646   4.274   3.150   0.894  1.0334 -0.2559 -1.3410
  339SOL    HW210647   4.361   3.283   0.934  0.5966  0.0007 -1.2517
  340SOL     OW10648   4.149   2.454   0.678 -0.3272  0.0951  0.7695
  340SOL    HW110649   4.087   2.376   0.687 -0.6572  0.4085  1.2896
  340SOL    HW210650   4.095   2.538   0.667  0.0212  0.2713  0.3541
  341SOL     OW10651   3.594   3.321   2.198  0.0254  0.2916  0.5672
  341SOL    HW110652   3.546   3.241   2.235  4.9654 -2.7247  0.8390
  341SOL    HW210653   3.583   3.323   2.099 -1.6136  0.3700  0.7285
  342SOL     OW10654   4.185   1.827   1.871  0.3778 -0.1891  0.0167
  342SOL    HW110655   4.185   1.907   1.932  1.5220  0.0387 -0.2717
  342SOL    HW210656   4.215   1.747   1.923  1.1337 -0.0408 -0.2002
  343SOL     OW10657   3.417   8.937   0.227 -0.3758  0.1451 -0.4148
  343SOL    HW110658   3.491   8.982   0.276  0.7218  1.2329 -2.9347
  343SOL    HW210659   3.361   9.006   0.181 -1.8288 -0.7802 -0.0621
  344SOL     OW10660   3.423   3.771   0.858 -0.4845 -0.6561  0.0137
  344SOL    HW110661   3.420   3.812   0.949  2.1771 -0.8295  0.2231
  344SOL    HW210662   3.351   3.702   0.850  0.2311 -1.7618  2.5736
  345SOL     OW10663   3.203   3.606   0.858 -0.8124  0.2143  0.3605
  345SOL    HW110664   3.156   3.651   0.781 -2.3853 -1.4682  0.3023
  345SOL    HW210665   3.256   3.529   0.825  2.4576  2.3875  0.3749
  346SOL     OW10666   3.310   3.550   1.681 -0.3528  0.2495  0.1718
  346SOL    HW110667   3.275   3.637   1.647  0.0538  0.4053  0.1532
  346SOL    HW210668   3.370   3.509   1.612 -1.3405 -0.5270 -0.2367
  347SOL     OW10669   3.041   9.976   1.538  0.1215  0.1312  0.1133
  347SOL    HW110670   3.055   9.879   1.555 -1.9795 -0.4263 -1.1766
  347SOL    HW210671   3.017   9.990   1.442  0.1556  1.8927  0.3390
  348SOL     OW10672   3.159   0.920   0.442 -0.0020 -0.1769  0.0728
  348SOL    HW110673   3.144   0.847   0.509  0.0381  0.6476  0.9970
  348SOL    HW210674   3.202   0.998   0.488 -1.3826  0.9835 -0.5772
  349SOL     OW10675   4.869   3.349   1.821 -0.2412  0.3459  0.0901
  349SOL    HW110676   4.829   3.290   1.891 -0.9484 -0.2598 -0.8182
  349SOL    HW210677   4.914   3.292   1.752  1.3946  0.9823  0.6195
  350SOL     OW10678   4.666   3.574   1.203 -0.2350 -0.3422 -0.0606
  350SOL    HW110679   4.668   3.674   1.203  0.0484 -0.3336  1.3193
  350SOL    HW210680   4.571   3.543   1.197 -0.2545 -0.0148 -1.7036
  351SOL     OW10681   4.103   2.173   0.708 -0.2353  0.0441 -0.1589
  351SOL    HW110682   4.012   2.133   0.705  0.6751 -2.1769  0.7175
  351SOL    HW210683   4.165   2.110   0.755  1.7561  1.4897 -0.8036
  352SOL     OW10684   3.299   2.069   0.790 -0.0982 -0.4316 -0.1689
  352SOL    HW110685   3.320   2.166   0.799  0.8213 -0.6001 -0.4990
  352SOL    HW210686   3.376   2.021   0.749 -0.8329 -1.1818 -0.6908
  353SOL     OW10687   4.505   1.254   1.254 -0.0393  0.8932 -0.1403
  353SOL    HW110688   4.576   1.280   1.188  0.4918  1.6165  0.7076
  353SOL    HW210689   4.448   1.333   1.273  0.9312  1.1927  1.6496
  354SOL     OW10690   3.002   1.205   1.439  0.0176  0.3895  0.2568
  354SOL    HW110691   3.097   1.234   1.429  0.6419 -1.2960  1.1553
  354SOL    HW210692   2.978   1.141   1.366 -0.9382  2.0227 -0.9063
  355SOL     OW10693   3.789   2.206   0.571  0.2155  0.2443 -0.1223
  355SOL    HW110694   3.788   2.302   0.543  2.4626  0.5577  0.7449
  355SOL    HW210695   3.770   2.199   0.668 -1.7805 -0.3581 -0.5432
  356SOL     OW10696   4.722   3.013   1.655  0.4271 -0.6308 -0.3278
  356SOL    HW110697   4.776   2.975   1.730 -1.1816 -1.0330  0.6350
  356SOL    HW210698   4.773   3.087   1.612  0.5861  0.8960  2.3903
  357SOL     OW10699   3.144   4.081   0.338 -0.1412 -1.0345 -0.0400
  357SOL    HW110700   3.072   4.115   0.398 -0.4219 -0.6258 -0.5986
  357SOL    HW210701   3.182   3.996   0.374  1.1045  0.2679  1.8022
  358SOL     OW10702   3.569   1.778   0.961  0.0278  0.0282  0.5189
  358SOL    HW110703   3.667   1.763   0.978 -0.0903 -1.5879 -0.1455
  358SOL    HW210704   3.516   1.712   1.015 -0.7245  1.2202  1.2470
  359SOL     OW10705   3.104   1.867   0.358  0.1610  0.1602  0.1161
  359SOL    HW110706   3.059   1.873   0.447 -0.7909  0.5335 -0.3813
  359SOL    HW210707   3.165   1.945   0.346  0.4049  0.0290  0.5014
  360SOL     OW10708   3.860   9.508   1.261  0.1088  0.0559 -0.3861
  360SOL    HW110709   3.941   9.556   1.296 -0.4565 -0.4421  1.7226
  360SOL    HW210710   3.888   9.432   1.203  1.0864  1.1608 -1.3777
  361SOL     OW10711   3.564   0.260   2.380 -0.4623 -0.3184 -0.1269
  361SOL    HW110712   3.511   0.183   2.415  0.0974 -1.0998 -0.9891
  361SOL    HW210713   3.504   0.323   2.331 -0.4626 -1.6818 -1.9195
  362SOL     OW10714   4.000   1.737   0.113 -0.7370 -0.2026 -0.1492
  362SOL    HW110715   3.940   1.681   0.170 -1.9304  0.6332 -0.5876
  362SOL    HW210716   3.993   1.707   0.017 -0.3284 -0.2124 -0.1781
  363SOL     OW10717   4.046   1.640   0.887  0.3844 -0.2546 -0.4964
  363SOL    HW110718   3.950   1.618   0.901  0.0066  1.7003  0.0942
  363SOL    HW210719   4.054   1.711   0.817  1.5006 -1.4337 -1.5845
  364SOL     OW10720   4.136   3.255   0.441  0.8026 -0.1981 -0.1365
  364SOL    HW110721   4.067   3.197   0.396  0.1466  0.3693  0.1305
  364SOL    HW210722   4.217   3.200   0.461  0.0814 -1.0912  0.3583
  365SOL     OW10723   4.375   1.494   1.296 -0.1079 -0.5655  0.3982
  365SOL    HW110724   4.428   1.579   1.292  0.9057 -1.2632 -1.2466
  365SOL    HW210725   4.365   1.466   1.392  0.2945  0.9390  0.8904
  366SOL     OW10726   3.560   1.405   2.233  0.7274 -0.1961  0.5079
  366SOL    HW110727   3.646   1.421   2.184  0.0467 -0.4585 -0.8002
  366SOL    HW210728   3.508   1.334   2.185 -0.4744  0.3692  0.9750
  367SOL     OW10729   3.478   1.739   1.581  0.1578  0.0580 -0.2317
  367SOL    HW110730   3.468   1.665   1.648 -1.2145 -1.3459 -1.9471
  367SOL    HW210731   3.457   1.827   1.625  0.8770 -0.6480  1.5808
  368SOL     OW10732   3.131   9.715   0.281 -0.3008  0.0689 -0.0918
  368SOL    HW110733   3.223   9.688   0.253  0.6229 -0.4141  3.2021
  368SOL    HW210734   3.086   9.763   0.205  2.4661 -0.0595 -1.9051
  369SOL     OW10735   3.177   9.881   2.610  0.6320  0.3287  0.4141
  369SOL    HW110736   3.226   9.794   2.614  1.1502  0.5770 -0.4005
  369SOL    HW210737   3.090   9.872   2.657  0.6759 -0.6409  0.3233
  370SOL     OW10738   4.141   3.310   1.433 -0.0252  0.4663 -0.0392
  370SOL    HW110739   4.226   3.351   1.465  0.5168 -1.7461  1.5023
  370SOL    HW210740   4.162   3.229   1.378 -1.1020  1.0739 -1.3677
  371SOL     OW10741   3.385   0.509   1.030  0.2090  0.2973  0.6613
  371SOL    HW110742   3.318   0.554   0.972  1.6555 -0.7852 -1.9573
  371SOL    HW210743   3.441   0.578   1.076  0.3452  1.2032 -0.8194
  372SOL     OW10744   3.471   3.438   1.492  0.0269  0.2189  0.0820
  372SOL    HW110745   3.428   3.455   1.404 -1.1344 -1.6587  0.2585
  372SOL    HW210746   3.544   3.371   1.480  0.7794  0.9868  0.3296
  373SOL     OW10747   4.240   0.522   1.277  0.4854  0.1916  0.0102
  373SOL    HW110748   4.232   0.500   1.374  0.3713  0.8142  0.1462
  373SOL    HW210749   4.195   0.610   1.260 -0.7962 -0.6159 -0.8779
  374SOL     OW10750   3.732   2.882   2.570 -0.7266  0.1345 -0.4909
  374SOL    HW110751   3.647   2.828   2.574 -1.0498  0.5608 -1.5786
  374SOL    HW210752   3.756   2.899   2.475  0.2212  0.6056 -0.1704
  375SOL     OW10753   3.816   1.781   1.045  0.4528 -0.2150  0.2280
  375SOL    HW110754   3.891   1.840   1.017  0.0344  0.4265  0.4489
  375SOL    HW210755   3.826   1.757   1.142 -0.2196  0.7796  0.5526
  376SOL     OW10756   2.991   9.850   1.034 -0.1646 -0.1374 -0.1084
  376SOL    HW110757   3.059   9.859   0.962 -1.7119  2.0100 -1.3818
  376SOL    HW210758   2.943   9.763   1.024  1.0206 -0.7696 -0.3999
  377SOL     OW10759   3.461   1.143   2.226 -0.0462 -0.5870 -0.1659
  377SOL    HW110760   3.513   1.145   2.312  0.6516  2.1863 -0.6268
  377SOL    HW210761   3.525   1.132   2.149 -0.3792  0.2263 -0.5568
  378SOL     OW10762   3.151   0.997   2.128  0.0614  0.0803 -0.5835
  378SOL    HW110763   3.179   0.921   2.070  0.6587  0.0839 -0.2996
  378SOL    HW210764   3.151   0.969   2.224 -0.0972  0.3228 -0.5102
  379SOL     OW10765   3.162   0.178   1.668  0.0037 -0.0493  0.1063
  379SOL    HW110766   3.095   0.118   1.625  1.2545 -1.6763  0.3913
  379SOL    HW210767   3.235   0.124   1.709  0.1702  1.5850  2.0574
  380SOL     OW10768   3.556   1.107   1.031 -0.3554 -0.4004 -0.2724
  380SOL    HW110769   3.590   1.013   1.022  0.6475 -0.1716  1.0925
  380SOL    HW210770   3.598   1.164   0.960  0.1604 -0.6676 -0.1862
  381SOL     OW10771   3.992   0.568   0.764  0.1576 -0.2570 -0.6326
  381SOL    HW110772   4.004   0.636   0.691 -0.2012 -1.6148 -1.9698
  381SOL    HW210773   4.076   0.514   0.773  0.6980  0.7927  0.9086
  382SOL     OW10774   3.164   2.693   1.748 -0.2690 -0.1096 -1.0232
  382SOL    HW110775   3.115   2.775   1.777  1.8641 -0.6708  4.8483
  382SOL    HW210776   3.100   2.617   1.739 -1.5322  0.9461 -1.0791
  383SOL     OW10777   3.983   1.665   0.392 -0.8978  0.6742  0.3435
  383SOL    HW110778   4.042   1.739   0.426 -1.9698  0.1666  3.4209
  383SOL    HW210779   4.030   1.578   0.401 -0.6558  0.6732 -0.8283
  384SOL     OW10780   3.152   2.139   0.475  0.0030 -0.1347 -0.1252
  384SOL    HW110781   3.226   2.201   0.500  0.2463 -0.4778  0.0241
  384SOL    HW210782   3.080   2.143   0.544  0.5031 -0.7996  0.4486
  385SOL     OW10783   4.051   0.509   2.648  1.0037 -0.2826  0.2601
  385SOL    HW110784   4.045   0.608   2.644 -1.1718 -0.2853  2.0080
  385SOL    HW210785   4.010   0.469   2.566 -2.0445  0.2474  1.4517
  386SOL     OW10786   3.881   3.724   1.075 -0.1075 -0.8648  1.0081
  386SOL    HW110787   3.901   3.627   1.083  0.2346 -0.7443  1.6898
  386SOL    HW210788   3.802   3.738   1.016  0.6801 -1.4794 -0.1950
  387SOL     OW10789   3.746   2.711   0.979  0.0310 -0.1188  0.3591
  387SOL    HW110790   3.725   2.808   0.989  0.1662 -0.0201 -0.3031
  387SOL    HW210791   3.663   2.660   0.958  0.2632  0.1363 -1.2824
  388SOL     OW10792   2.833   2.062   2.621  0.3225 -0.1481  0.4867
  388SOL    HW110793   2.760   2.086   2.557  1.3981  1.0644 -0.3270
  388SOL    HW210794   2.811   2.097   2.712 -1.2311 -1.9046  0.8211
  389SOL     OW10795   3.884   1.734   2.162  0.1490 -0.4195  0.6911
  389SOL    HW110796   3.878   1.752   2.260 -0.2723  0.0372  0.5792
  389SOL    HW210797   3.809   1.779   2.115  0.9620  0.2541  0.0228
  390SOL     OW10798   3.273   9.123   0.103  0.0232 -0.3932 -0.1219
  390SOL    HW110799   3.225   9.181   0.168 -1.1288 -0.5457 -0.8292
  390SOL    HW210800   3.287   9.172   0.018  0.9970 -0.4020  0.0319
  391SOL     OW10801   3.117   3.272   0.957  0.2549 -0.1393 -0.4713
  391SOL    HW110802   3.022   3.251   0.981  0.1705  0.4339 -0.2968
  391SOL    HW210803   3.119   3.326   0.873  0.3623  0.8117  0.1327
  392SOL     OW10804   3.816   1.465   2.119 -1.0273  0.0966  0.4915
  392SOL    HW110805   3.856   1.449   2.029 -1.5027  0.4679  0.2074
  392SOL    HW210806   3.834   1.559   2.148 -1.1643  0.0826  0.6271
  393SOL     OW10807   3.992   1.314   2.250  0.0533 -0.0454  0.5715
  393SOL    HW110808   3.940   1.381   2.198 -1.4681 -0.0825  2.0036
  393SOL    HW210809   4.088   1.316   2.221 -0.2465  1.7826 -0.3402
  394SOL     OW10810   3.370   0.059   1.817  0.0659 -0.0840 -0.7547
  394SOL    HW110811   3.305   0.060   1.893  0.6640 -0.5672 -0.2374
  394SOL    HW210812   3.438   0.130   1.830 -0.1360  0.1792 -1.1115
  395SOL     OW10813   4.329   3.518   0.506 -0.2842  0.7383  0.2571
  395SOL    HW110814   4.233   3.490   0.510 -0.5127  1.3643 -0.5382
  395SOL    HW210815   4.379   3.477   0.581 -0.7129 -1.3376 -0.5646
  396SOL     OW10816   3.712   1.823   1.956 -0.7289  0.2314 -1.0151
  396SOL    HW110817   3.645   1.894   1.977  1.3920  1.9054  0.4434
  396SOL    HW210818   3.671   1.753   1.898 -3.9394  0.7139  0.5906
  397SOL     OW10819   3.340   1.626   0.649 -0.0716 -0.1942 -0.9876
  397SOL    HW110820   3.380   1.621   0.558  1.0057 -1.5457 -0.4624
  397SOL    HW210821   3.367   1.545   0.702 -0.0916  0.8991  0.7449
  398SOL     OW10822   3.939   1.665   1.563  0.6559  0.4308  0.4769
  398SOL    HW110823   4.024   1.702   1.525  1.0104 -0.0088  0.8535
  398SOL    HW210824   3.931   1.690   1.659  1.0261 -0.6965  0.8063
  399SOL     OW10825   3.269   0.391   1.543 -0.3738  0.5537 -0.0602
  399SOL    HW110826   3.219   0.307   1.564  1.0949 -0.7226 -1.5109
  399SOL    HW210827   3.296   0.436   1.628 -0.6010 -0.7942  0.7401
  400SOL     OW10828   4.045   2.911   1.865  0.1860 -0.1162  0.2702
  400SOL    HW110829   4.130   2.888   1.818  1.1889 -0.7400  2.3685
  400SOL    HW210830   3.981   2.950   1.799  1.6969 -0.6289 -1.5430
  401SOL     OW10831   2.994   2.501   0.553 -0.3138  0.4464 -0.2237
  401SOL    HW110832   3.060   2.520   0.626 -0.0927  1.4849 -0.6947
  401SOL    HW210833   2.917   2.450   0.591  0.2038  0.2385  0.5663
  402SOL     OW10834   3.395   9.427   0.798 -0.4417 -0.3457  0.2612
  402SOL    HW110835   3.379   9.476   0.713 -1.9012 -0.4541  0.4577
  402SOL    HW210836   3.492   9.406   0.807 -0.5509 -2.2994 -2.4528
  403SOL     OW10837   3.760   3.796   1.487  0.2367  0.2127 -0.4885
  403SOL    HW110838   3.828   3.829   1.553  0.1542 -0.0744 -0.2573
  403SOL    HW210839   3.710   3.719   1.527 -0.8322  0.9882 -0.3218
  404SOL     OW10840   3.959   1.490   1.895 -0.0510 -0.1979 -0.4655
  404SOL    HW110841   3.955   1.582   1.858  3.1520  0.4345  0.5874
  404SOL    HW210842   3.927   1.424   1.826  1.4293  1.3480 -2.7052
  405SOL     OW10843   3.025   1.628   2.436  0.1015  0.1531 -0.0182
  405SOL    HW110844   2.973   1.603   2.354 -0.8635  0.7081  0.4098
  405SOL    HW210845   2.963   1.672   2.502  1.0340  0.4249  0.6801
  406SOL     OW10846   3.078   2.965   0.576 -0.0419 -0.2163 -0.6854
  406SOL    HW110847   3.001   3.028   0.575  0.1951  0.1018  0.5915
  406SOL    HW210848   3.089   2.928   0.668  5.1198  4.4429  0.8200
  407SOL     OW10849   3.202   1.360   0.791  0.8147  0.1440  0.2956
  407SOL    HW110850   3.281   1.319   0.837 -0.3671 -2.0347  0.4605
  407SOL    HW210851   3.122   1.353   0.851  0.0976  0.6794 -0.5941
  408SOL     OW10852   4.209   1.744   1.469  0.0279  0.3040 -0.0988
  408SOL    HW110853   4.227   1.840   1.491  0.2835 -0.0014  1.0396
  408SOL    HW210854   4.286   1.687   1.499 -1.1743 -0.5483  1.4478
  409SOL     OW10855   3.344   9.673   1.425  0.8252 -0.5877  0.2109
  409SOL    HW110856   3.434   9.686   1.467  1.1934  0.6266 -0.9260
  409SOL    HW210857   3.273   9.677   1.495  1.6450 -1.5179  1.1153
  410SOL     OW10858   3.395   2.607   0.026 -0.2646 -0.3574 -0.1234
  410SOL    HW110859   3.306   2.573  -0.003 -0.9549 -0.1545  1.7150
  410SOL    HW210860   3.398   2.612   0.126  1.7678 -0.2659 -0.1681
  411SOL     OW10861   3.483   9.741   0.734  0.3140  0.0428 -0.1365
  411SOL    HW110862   3.419   9.683   0.684  0.4275 -0.3902  0.2138
  411SOL    HW210863   3.514   9.693   0.816  0.5260  0.5393  0.0793
  412SOL     OW10864   4.032   0.723   1.256 -0.3670  0.1664 -0.4346
  412SOL    HW110865   3.935   0.713   1.276 -0.2895  0.1332 -0.0621
  412SOL    HW210866   4.045   0.747   1.160 -0.7278 -0.0757 -0.5410
  413SOL     OW10867   4.475   1.229   2.679 -0.0334 -0.1282 -0.1638
  413SOL    HW110868   4.509   1.161   2.744 -0.2231  1.0446  1.1985
  413SOL    HW210869   4.550   1.287   2.648 -0.1833  0.2478  0.1627
  414SOL     OW10870   3.704   1.092   0.025  0.6080  0.8963  0.0237
  414SOL    HW110871   3.701   1.009   0.082  1.7013  2.6670  2.7490
  414SOL    HW210872   3.799   1.122   0.015  0.3999  0.8419 -2.5080
  415SOL     OW10873   3.311   9.135   0.462  0.3033  0.0168 -0.5434
  415SOL    HW110874   3.328   9.135   0.560 -0.3283  0.2733 -0.4337
  415SOL    HW210875   3.285   9.043   0.432  1.4814 -0.2923 -0.6473
  416SOL     OW10876   3.898   0.209   0.213  0.5327 -0.1034 -0.0668
  416SOL    HW110877   3.855   0.215   0.303 -1.2342 -2.6963 -0.6819
  416SOL    HW210878   3.909   0.301   0.175 -3.3029  0.7584  0.7039
  417SOL     OW10879   3.698   3.408   1.040  0.0022  0.3264  0.0638
  417SOL    HW110880   3.797   3.419   1.033  0.0334  0.2674  0.3848
  417SOL    HW210881   3.672   3.406   1.137 -0.1667 -0.9470  0.0011
  418SOL     OW10882   3.800   1.487   1.065  0.2041 -0.2857 -0.1274
  418SOL    HW110883   3.778   1.582   1.084  1.7119  0.2270 -0.9317
  418SOL    HW210884   3.791   1.469   0.967  0.2503 -0.9002 -0.0248
  419SOL     OW10885   3.483   3.580   2.178 -0.3466 -0.6425  0.1903
  419SOL    HW110886   3.434   3.495   2.198 -0.0464 -1.4137 -2.1244
  419SOL    HW210887   3.573   3.578   2.220 -0.8035 -0.9427  1.1616
  420SOL     OW10888   4.380   2.795   1.423 -0.0525 -0.8812 -0.5687
  420SOL    HW110889   4.388   2.704   1.384 -0.7017 -0.8657 -0.7522
  420SOL    HW210890   4.449   2.855   1.383  0.1777 -1.2151 -0.6707
  421SOL     OW10891   3.585   2.405   1.712  0.0096 -0.0323  0.0991
  421SOL    HW110892   3.657   2.402   1.782  1.2201  2.1214 -1.0177
  421SOL    HW210893   3.560   2.311   1.687  1.2621 -0.8243  1.6688
  422SOL     OW10894   3.924   1.748   1.818  0.3790  0.0593  0.1358
  422SOL    HW110895   4.013   1.789   1.837  0.9464 -1.1592  0.1552
  422SOL    HW210896   3.854   1.793   1.874  0.9401  1.1997 -0.0848
  423SOL     OW10897   4.074   0.748   1.522  0.0122  0.3878  0.3856
  423SOL    HW110898   4.111   0.836   1.549 -0.5917  0.8035 -0.1270
  423SOL    HW210899   4.073   0.741   1.422  1.8782 -0.9794  0.4293
  424SOL     OW10900   2.857   2.568   1.961  0.0989  0.7632 -0.1501
  424SOL    HW110901   2.893   2.481   1.991 -0.2156  0.9567  0.8184
  424SOL    HW210902   2.912   2.643   1.998 -0.9024  1.0384  0.8293
  425SOL     OW10903   3.807   1.432   2.692  0.2092  0.0013  0.0271
  425SOL    HW110904   3.715   1.450   2.657  0.7206  1.2406 -0.6938
  425SOL    HW210905   3.808   1.445   2.791 -0.1036  1.1960 -0.1227
  426SOL     OW10906   3.113   9.268   0.303  0.4302  0.8022 -0.1091
  426SOL    HW110907   3.014   9.267   0.313  0.2499  0.3482 -1.8104
  426SOL    HW210908   3.156   9.250   0.392 -0.9660  2.7976  1.0059
  427SOL     OW10909   4.209   1.578   1.985  0.1804  0.4085 -0.4382
  427SOL    HW110910   4.190   1.639   2.061 -1.2938 -0.5493 -0.0091
  427SOL    HW210911   4.124   1.534   1.955  1.0807 -0.8470 -1.2313
  428SOL     OW10912   2.988   1.442   0.380 -0.5216  0.0276  0.0158
  428SOL    HW110913   3.005   1.482   0.470 -1.1047 -0.8823  0.5393
  428SOL    HW210914   2.995   1.513   0.310  2.0945  0.3259  0.5436
  429SOL     OW10915   3.167   0.675   0.944 -0.3429 -0.0789 -0.0894
  429SOL    HW110916   3.173   0.695   0.846 -0.0761  0.9429  0.1346
  429SOL    HW210917   3.160   0.760   0.996  0.0223 -0.5901  0.8191
  430SOL     OW10918   3.961   0.267   1.617  0.2976  0.1826  0.1191
  430SOL    HW110919   4.005   0.334   1.557  0.4906  1.7091  1.9213
  430SOL    HW210920   3.863   0.268   1.601  0.2121  1.4561  0.6760
  431SOL     OW10921   4.032   9.734   1.310  0.3910  0.3417 -0.1690
  431SOL    HW110922   3.979   9.772   1.386 -0.0412  0.4174 -0.5059
  431SOL    HW210923   4.105   9.797   1.286  0.2878  0.5005 -0.0716
  432SOL     OW10924   3.169   0.125   1.997 -0.1315 -0.1750  0.2230
  432SOL    HW110925   3.096   0.144   1.931  0.0909 -1.9597 -0.5625
  432SOL    HW210926   3.202   0.211   2.036 -2.8061  0.6412  0.7657
  433SOL     OW10927   3.999   1.904   0.702  0.3794 -0.6008  0.0897
  433SOL    HW110928   3.927   1.841   0.675  0.8145 -1.5145  1.0041
  433SOL    HW210929   4.076   1.897   0.638 -0.4779  0.6600 -1.1133
  434SOL     OW10930   3.301   0.132   0.278  0.4862  0.0700 -0.0527
  434SOL    HW110931   3.336   0.188   0.353  0.0457  0.3739 -0.0720
  434SOL    HW210932   3.344   0.042   0.281  2.2533  0.8737 -0.8756
  435SOL     OW10933   2.930   9.571   1.073  0.5399  0.1637  0.1207
  435SOL    HW110934   2.873   9.521   1.007 -0.3137 -0.2846  1.1828
  435SOL    HW210935   3.027   9.557   1.050  0.3026 -1.6590  0.1490
  436SOL     OW10936   2.675   2.718   1.781  0.0652  0.6526  0.5625
  436SOL    HW110937   2.604   2.663   1.738  1.1525  0.4092 -0.9632
  436SOL    HW210938   2.730   2.659   1.841 -0.2896  0.5901  0.8271
  437SOL     OW10939   3.893   3.520   1.743  0.4234  0.4196 -0.2696
  437SOL    HW110940   3.929   3.596   1.797 -0.0137  0.4463 -0.0136
  437SOL    HW210941   3.803   3.545   1.706  1.2089  0.8353 -1.9577
  438SOL     OW10942   3.389   8.967   2.055  0.2452 -0.0180 -0.3200
  438SOL    HW110943   3.383   8.879   2.007 -0.6446  0.8043 -1.7843
  438SOL    HW210944   3.325   9.032   2.012 -0.1106  0.9331  1.6111
  439SOL     OW10945   3.058   3.750   0.691  0.5078 -0.5781  0.2039
  439SOL    HW110946   3.057   3.831   0.633  0.0144  0.3057  1.4358
  439SOL    HW210947   2.999   3.680   0.651  1.3451 -0.5293 -1.1358
  440SOL     OW10948   4.102   1.209   1.619  0.2662 -0.3725 -0.4593
  440SOL    HW110949   4.055   1.184   1.704  0.3156 -1.6807 -0.7978
  440SOL    HW210950   4.052   1.283   1.574 -0.0114  0.0193  0.4850
  441SOL     OW10951   3.690   1.229   0.818  0.1761 -0.0083 -0.0829
  441SOL    HW110952   3.740   1.154   0.774  1.2590  0.9830 -0.5866
  441SOL    HW210953   3.743   1.313   0.808  0.0492  0.3885  2.4366
  442SOL     OW10954   2.826   1.769   2.627  0.3849  0.8485  0.3336
  442SOL    HW110955   2.847   1.866   2.617 -0.7292  1.1088  0.5462
  442SOL    HW210956   2.753   1.757   2.694 -0.0101 -0.0785 -0.2598
  443SOL     OW10957   4.178   1.069   2.038  0.0394 -0.3110 -0.6893
  443SOL    HW110958   4.253   1.135   2.034 -1.7225  1.8109  0.0659
  443SOL    HW210959   4.171   1.032   2.130 -0.8175  0.7208 -0.3224
  444SOL     OW10960   3.606   9.089   0.680 -0.2038 -0.0755 -0.2554
  444SOL    HW110961   3.665   9.022   0.726 -1.5666 -1.4894 -0.5519
  444SOL    HW210962   3.528   9.110   0.739  0.1633  1.1937 -0.2081
  445SOL     OW10963   3.915   0.448   2.428  0.3014  1.1420  0.4887
  445SOL    HW110964   3.895   0.365   2.375  0.9843  0.3758  1.3986
  445SOL    HW210965   3.920   0.526   2.367  0.2035  0.4204 -0.4615
  446SOL     OW10966   3.574   4.174   2.317 -0.0446  0.2249  0.0310
  446SOL    HW110967   3.640   4.203   2.248 -0.3739 -2.3042 -1.4085
  446SOL    HW210968   3.492   4.230   2.310 -0.5401 -0.7441 -2.4756
  447SOL     OW10969   3.810   9.723   0.845 -0.1624  0.0990 -0.3285
  447SOL    HW110970   3.853   9.814   0.851 -0.2185  0.1420 -0.5642
  447SOL    HW210971   3.795   9.687   0.937 -1.0712  0.7704 -0.2052
  448SOL     OW10972   3.924   1.388   0.234 -0.2196  0.2486  0.1565
  448SOL    HW110973   4.003   1.400   0.295 -0.6043  0.0909  0.6861
  448SOL    HW210974   3.855   1.457   0.255 -1.1546 -0.9781  1.1758
  449SOL     OW10975   3.795   1.165   2.356  0.3026 -0.1166  0.3566
  449SOL    HW110976   3.761   1.178   2.449 -0.0328 -2.5110  0.5981
  449SOL    HW210977   3.853   1.242   2.331 -1.9032  1.9693  1.4743
  450SOL     OW10978   3.247   0.403   0.204 -0.5543  0.1848  0.4628
  450SOL    HW110979   3.282   0.421   0.112  0.2469  0.5423  0.8298
  450SOL    HW210980   3.235   0.305   0.218 -1.3247  0.1703 -0.2523
  451SOL     OW10981   3.437   3.794   0.578  0.2403  0.0698 -0.3677
  451SOL    HW110982   3.457   3.797   0.676 -0.1933  0.7360 -0.2951
  451SOL    HW210983   3.522   3.785   0.526  0.5855  1.1493  0.0034
  452SOL     OW10984   3.161   0.492   0.476 -0.2575 -0.1025  0.6139
  452SOL    HW110985   3.112   0.427   0.534 -0.4812 -0.0713  0.4593
  452SOL    HW210986   3.170   0.454   0.384  0.5902 -0.3939  0.8163
  453SOL     OW10987   3.646   3.974   0.000 -0.6615  0.2023  1.0498
  453SOL    HW110988   3.651   4.034   0.080  2.4241  0.3455  0.8222
  453SOL    HW210989   3.688   4.020  -0.078 -0.1393 -1.4299  0.3472
  454SOL     OW10990   3.755   0.643   1.874 -0.0814 -0.0921  0.5520
  454SOL    HW110991   3.816   0.597   1.939  1.4203  0.3184 -0.5305
  454SOL    HW210992   3.695   0.706   1.923  0.6226 -0.2229  1.6049
  455SOL     OW10993   3.855   0.695   2.263 -0.1545  0.1769 -0.2155
  455SOL    HW110994   3.828   0.791   2.271 -2.3485 -0.5071  1.1528
  455SOL    HW210995   3.873   0.673   2.167  0.2913  1.9273 -0.5502
  456SOL     OW10996   3.867   2.556   0.688  0.4893  0.4580  0.2058
  456SOL    HW110997   3.916   2.632   0.731 -0.0253  0.4447  0.8329
  456SOL    HW210998   3.841   2.490   0.759 -0.6724  0.5945 -0.0857
  457SOL     OW10999   3.124   3.306   0.213 -0.5212 -0.1442 -0.5588
  457SOL    HW111000   3.073   3.324   0.128 -0.0014  0.7176 -0.6902
  457SOL    HW211001   3.222   3.319   0.196 -0.3422 -0.8383 -0.0506
  458SOL     OW11002   3.085   9.394   1.431 -0.0022  0.4266  0.4929
  458SOL    HW111003   3.012   9.429   1.372  0.0388  0.4338  0.4460
  458SOL    HW211004   3.168   9.449   1.418  0.3470 -0.2707 -0.2810
  459SOL     OW11005   3.481   1.590   1.867 -0.0128  0.0118  0.6713
  459SOL    HW111006   3.436   1.513   1.912  1.9834 -1.8922 -0.4980
  459SOL    HW211007   3.566   1.559   1.825  0.4679  2.7222 -0.4576
  460SOL     OW11008   4.257   2.891   1.669 -0.1998  0.0027 -0.1491
  460SOL    HW111009   4.325   2.949   1.714 -0.7897  0.9303 -0.4264
  460SOL    HW211010   4.284   2.875   1.574 -0.0888 -0.0744 -0.1035
  461SOL     OW11011   3.995   1.400   1.230  0.7121  0.3912  0.6056
  461SOL    HW111012   4.075   1.449   1.195  2.1648 -1.1576  1.6751
  461SOL    HW211013   3.916   1.419   1.172  1.7031  2.4560 -0.0904
  462SOL     OW11014   3.403   4.376   2.399  0.0973 -0.4278 -0.6545
  462SOL    HW111015   3.309   4.406   2.385  0.1515 -0.8285 -1.9188
  462SOL    HW211016   3.435   4.407   2.489 -1.5292 -1.0612  0.1669
  463SOL     OW11017   3.227   1.336   0.366  0.0839 -0.2991  0.3037
  463SOL    HW111018   3.267   1.315   0.276  0.5862 -0.5634  0.5825
  463SOL    HW211019   3.133   1.367   0.355  0.4487  0.5763 -0.3879
  464SOL     OW11020   3.468   0.953   0.719 -0.4508  0.7124 -0.3283
  464SOL    HW111021   3.446   0.864   0.678  2.3579  0.0267 -0.5141
  464SOL    HW211022   3.428   1.026   0.664  0.3663 -0.3273 -2.3715
  465SOL     OW11023   3.618   9.881   2.258  0.4951 -0.2022  0.5301
  465SOL    HW111024   3.562   9.961   2.233 -0.0600 -1.0323 -0.9375
  465SOL    HW211025   3.609   9.864   2.356 -1.0373  0.2908  0.4961
  466SOL     OW11026   3.760   2.006   0.383 -0.2780  0.6106  0.1145
  466SOL    HW111027   3.836   1.999   0.319 -0.0096 -1.7816  0.6457
  466SOL    HW211028   3.782   2.072   0.455  0.1044  2.0481 -1.3122
  467SOL     OW11029   3.365   0.416   0.666  0.2708 -0.5680  0.5350
  467SOL    HW111030   3.333   0.509   0.647  1.2199  0.1203  2.1551
  467SOL    HW211031   3.451   0.420   0.717  1.7205 -2.3741 -1.6865
  468SOL     OW11032   3.306   1.989   1.361 -0.7146 -0.1948 -0.5157
  468SOL    HW111033   3.234   1.933   1.404 -0.9003 -0.0231 -0.6050
  468SOL    HW211034   3.317   1.960   1.266  0.1726 -1.0438 -0.1664
  469SOL     OW11035   2.784   3.006   2.302 -0.3301  0.6134  0.3986
  469SOL    HW111036   2.798   3.057   2.387 -0.2216 -0.1099  0.8205
  469SOL    HW211037   2.748   2.915   2.324  3.3246 -1.0206 -0.0148
  470SOL     OW11038   4.878   3.466   2.114  0.6962 -0.1651  0.2367
  470SOL    HW111039   4.912   3.532   2.047 -0.6895 -0.6514 -0.9766
  470SOL    HW211040   4.821   3.397   2.067 -2.7193  1.1394  2.2811
  471SOL     OW11041   4.145   2.567   2.190  0.1100 -0.2733 -0.4023
  471SOL    HW111042   4.090   2.634   2.140  0.8311  0.6133 -0.0173
  471SOL    HW211043   4.137   2.584   2.288 -0.8038 -1.6213 -0.2155
  472SOL     OW11044   3.209   3.823   0.437 -0.3058 -0.1377  0.0487
  472SOL    HW111045   3.289   3.821   0.497 -1.5412  0.3989  1.7371
  472SOL    HW211046   3.206   3.738   0.384  0.8227 -0.6027  0.6965
  473SOL     OW11047   3.868   9.749   1.529  0.2988  0.1338 -0.4974
  473SOL    HW111048   3.820   9.831   1.559  1.9147  0.5217  1.0675
  473SOL    HW211049   3.805   9.672   1.528 -0.6522  0.8940  0.3540
  474SOL     OW11050   3.187   3.483   1.093 -0.2256  0.3394  0.6536
  474SOL    HW111051   3.135   3.398   1.083 -2.7153  1.9112  0.0585
  474SOL    HW211052   3.176   3.540   1.012  2.6638  0.6319  0.3900
  475SOL     OW11053   3.463   2.615   1.858 -0.0269  0.4597  0.0313
  475SOL    HW111054   3.464   2.711   1.831  0.2755  0.8664  1.4328
  475SOL    HW211055   3.531   2.564   1.805  0.4772  1.2023 -0.0394
  476SOL     OW11056   2.888   2.008   1.712 -0.1733  0.1160 -0.0913
  476SOL    HW111057   2.934   2.089   1.675 -0.5378  0.4327  0.1456
  476SOL    HW211058   2.899   2.005   1.811 -0.3525 -0.0053 -0.0746
  477SOL     OW11059   3.929   3.082   0.400 -0.1037 -0.0214  0.2445
  477SOL    HW111060   3.886   3.154   0.346  2.2944  2.3265  1.3444
  477SOL    HW211061   3.907   2.993   0.361  0.2163  1.5168 -3.6067
  478SOL     OW11062   4.122   1.054   0.175 -0.0240  0.4370  0.2164
  478SOL    HW111063   4.081   1.074   0.086 -0.4940 -0.6401  0.1837
  478SOL    HW211064   4.175   1.133   0.205  0.2968  0.7463 -1.1036
  479SOL     OW11065   3.392   9.597   2.611  0.1139 -0.3613  0.7120
  479SOL    HW111066   3.447   9.678   2.590 -2.3754  1.4988  1.2626
  479SOL    HW211067   3.376   9.546   2.526 -0.3748  1.0377 -0.0546
  480SOL     OW11068   4.670   4.056   1.737 -0.6264 -0.3923  0.2846
  480SOL    HW111069   4.666   4.150   1.705 -2.4538 -0.8188 -0.7792
  480SOL    HW211070   4.697   3.996   1.661  1.2691 -0.6613  1.1331
  481SOL     OW11071   3.788   9.555   0.637 -0.0357 -0.0649 -0.5731
  481SOL    HW111072   3.812   9.625   0.704  0.6503  0.5806 -1.4779
  481SOL    HW211073   3.715   9.590   0.578 -1.5021 -1.0848  0.5845
  482SOL     OW11074   3.045   2.720   2.043 -1.2012  0.3890 -0.5882
  482SOL    HW111075   3.068   2.786   1.971  0.4243  0.0333 -0.4246
  482SOL    HW211076   3.036   2.767   2.130 -0.1970  0.4231 -0.4994
  483SOL     OW11077   4.111   1.406   0.419  0.6359  0.4376  0.0117
  483SOL    HW111078   4.186   1.344   0.396  1.3485  1.1595  0.3701
  483SOL    HW211079   4.063   1.372   0.500 -0.3952 -0.8412 -1.1071
  484SOL     OW11080   4.201   1.814   0.509 -0.0724  0.0572 -0.0473
  484SOL    HW111081   4.264   1.784   0.580 -0.6181 -1.1420 -0.0537
  484SOL    HW211082   4.252   1.852   0.432  0.4884  2.1833  1.3511
  485SOL     OW11083   2.917   3.195   1.130  0.2752  0.3479  0.0881
  485SOL    HW111084   2.827   3.162   1.158 -0.0895  0.6361 -0.7071
  485SOL    HW211085   2.988   3.143   1.176 -0.2917 -1.3591 -0.9463
  486SOL     OW11086   3.253   1.216   1.842 -0.3081 -0.2003  0.1396
  486SOL    HW111087   3.243   1.167   1.928  0.2229  1.1785  0.9976
  486SOL    HW211088   3.163   1.232   1.802 -0.5729 -0.5575  0.5928
  487SOL     OW11089   4.234   0.568   0.198 -0.4783 -0.7751  0.0323
  487SOL    HW111090   4.240   0.666   0.177 -1.6126 -0.8092 -0.5087
  487SOL    HW211091   4.221   0.517   0.113 -1.8840 -1.2126  0.5003
  488SOL     OW11092   3.817   0.191   2.340 -0.1244  0.1038 -0.3155
  488SOL    HW111093   3.835   0.106   2.389 -0.8106  0.2710  0.2384
  488SOL    HW211094   3.726   0.224   2.364 -0.8840 -0.3583 -2.4963
  489SOL     OW11095   3.507   2.075   0.613 -0.6914 -0.8130 -0.2099
  489SOL    HW111096   3.435   2.144   0.605 -1.0499 -1.2701 -0.9465
  489SOL    HW211097   3.544   2.054   0.523  0.4603 -0.4941  0.1699
  490SOL     OW11098   3.083   1.454   1.267 -0.2012 -0.2693 -0.1155
  490SOL    HW111099   2.997   1.403   1.262 -1.1548  1.3054 -0.2010
  490SOL    HW211100   3.147   1.406   1.325 -1.9920 -0.2855  1.9050
  491SOL     OW11101   3.150   0.901   1.081  0.2608  0.5388 -0.6453
  491SOL    HW111102   3.086   0.968   1.118  1.1751  1.9687 -1.6127
  491SOL    HW211103   3.202   0.859   1.155 -1.5017 -0.3511  0.1156
  492SOL     OW11104   3.531   2.681   2.266 -0.1356 -0.1486 -0.2156
  492SOL    HW111105   3.443   2.678   2.219 -0.4255  1.4369  0.2070
  492SOL    HW211106   3.516   2.691   2.364  0.5085 -0.0276 -0.1294
  493SOL     OW11107   2.901   3.534   0.533 -0.3543 -1.0633  0.2864
  493SOL    HW111108   2.861   3.572   0.450 -0.3146 -0.8067  0.3863
  493SOL    HW211109   2.907   3.434   0.524  1.6548 -0.8689 -0.9047
  494SOL     OW11110   3.874   3.018   1.678 -0.0918 -0.1967 -0.3182
  494SOL    HW111111   3.913   3.105   1.648 -0.7770  0.1618 -0.1820
  494SOL    HW211112   3.846   2.965   1.598  2.0253 -1.1119 -0.4988
  495SOL     OW11113   2.607   2.125   2.414 -0.4406  0.7878  0.2937
  495SOL    HW111114   2.557   2.046   2.378 -0.3330  1.0552 -0.4520
  495SOL    HW211115   2.546   2.181   2.470 -0.4431  0.0195  1.0768
  496SOL     OW11116   3.964   9.110   1.977  0.0249  0.3217  0.5101
  496SOL    HW111117   4.064   9.113   1.986  0.1249 -0.6326 -0.2929
  496SOL    HW211118   3.930   9.022   2.011 -0.3972  0.0526 -0.5958
  10.00000  10.00000   2.71912
