chitosan Film  in water:acetic acid 2% t= 2000.00000 step= 2000000
21218
    1CHTO  H203    1   5.135   6.435   1.889 -1.6982 -0.0319 -1.2395
    1CHTO   O82    2   5.133   6.344   1.913  0.1969  0.1638 -0.3048
    1CHTO  C123    3   5.247   6.310   1.985 -0.4610 -0.0168  0.1681
    1CHTO  H227    4   5.246   6.369   2.078  0.5586 -0.6602  0.6062
    1CHTO   O77    5   5.241   6.173   2.020 -0.1002 -0.0178  0.2586
    1CHTO  C118    6   5.335   6.122   2.111  0.0165  0.2219  0.2103
    1CHTO  H222    7   5.342   6.185   2.202 -0.0802 -1.6510  1.5426
    1CHTO  C125    8   5.298   5.973   2.165 -0.4235  0.1361 -0.0642
    1CHTO   O84    9   5.268   5.892   2.048  0.4082 -0.2782 -0.1172
    1CHTO  H205   10   5.344   5.892   1.993  1.0388 -3.5755  0.6271
    1CHTO  C114   11   5.475   6.127   2.043  0.0538  0.6261 -0.0278
    1CHTO  H218   12   5.477   6.064   1.954 -0.3331  0.7259 -0.1049
    1CHTO  C116   13   5.507   6.273   1.994  0.1533 -0.7015  0.2762
    1CHTO  H220   14   5.522   6.343   2.078 -0.4989  0.2630 -0.4011
    1CHTO   O79   15   5.629   6.262   1.913  0.1321  0.3058 -0.6919
    1CHTO  H201   16   5.701   6.254   1.972 -1.4903 -3.1103  0.9618
    1CHTO  C120   17   5.380   6.329   1.906 -0.4227  0.2297 -0.2024
    1CHTO  H224   18   5.377   6.285   1.804  0.9817  0.5832 -0.4110
    1CHTO   N21   19   5.408   6.471   1.885 -0.4883 -0.4266 -0.1172
    1CHTO  H211   20   5.319   6.533   1.882  0.1462  0.4127 -2.7496
    1CHTO  H212   21   5.483   6.510   1.952 -0.0511 -0.6122 -0.5013
    1CHTO   O75   22   5.572   6.084   2.135  0.3722  0.0934  0.0653
    1CHTO  C112   23   5.685   5.974   2.091 -0.2405  0.4333  0.1957
    1CHTO  H216   24   5.707   5.986   1.984  2.0549  1.2659  0.7403
    1CHTO   O73   25   5.626   5.839   2.115 -0.0958 -0.4916  0.6860
    1CHTO  C113   26   5.710   5.727   2.072 -0.2764  0.2828  0.5711
    1CHTO  H217   27   5.720   5.737   1.962 -0.6309  1.2474  0.6206
    1CHTO  C124   28   5.640   5.606   2.121 -0.0394 -0.2434  0.1941
    1CHTO   O83   29   5.693   5.488   2.056  0.5410  0.1362  0.2545
    1CHTO  H204   30   5.785   5.474   2.053  0.2932 -2.2502  1.8875
    1CHTO  C109   31   5.853   5.725   2.136  0.8543 -0.5889  0.0299
    1CHTO  H213   32   5.838   5.700   2.242 -2.9477  0.7065 -0.1261
    1CHTO  C110   33   5.915   5.868   2.116  0.7203  0.0410 -0.1764
    1CHTO  H214   34   5.931   5.874   2.009  1.8203 -0.5898 -0.0617
    1CHTO   O78   35   6.041   5.852   2.181  0.1210 -0.2147  0.2489
    1CHTO  H200   36   6.107   5.826   2.120  3.3827 -0.9101  3.8416
    1CHTO  C111   37   5.821   5.980   2.173 -0.1338  0.7756  1.0358
    1CHTO  H215   38   5.805   5.961   2.281 -0.1934  1.3419  1.1254
    1CHTO   N19   39   5.883   6.116   2.163 -0.3630  0.0736  0.3421
    1CHTO  H207   40   5.821   6.201   2.140 -0.0088 -0.0277 -1.0171
    1CHTO  H208   41   5.948   6.136   2.247  0.3278 -0.7279  0.0072
    1CHTO   O74   42   5.936   5.628   2.064 -0.2678  0.2306  0.7040
    1CHTO  C115   43   6.011   5.521   2.153  0.3460  0.2224  0.5269
    1CHTO  H219   44   5.984   5.532   2.258 -0.9539  2.2794  0.0091
    1CHTO   O76   45   5.972   5.381   2.116 -0.3548 -0.3594 -0.0247
    1CHTO  C122   46   5.974   5.348   1.980  0.4113  0.7409 -0.5427
    1CHTO  H226   47   5.879   5.386   1.943  0.3296 -0.5910 -1.7263
    1CHTO  C126   48   5.964   5.191   1.960 -0.2673  0.2514 -0.2050
    1CHTO   O85   49   6.058   5.109   2.028 -0.6258 -0.6441  0.2246
    1CHTO  H206   50   6.111   5.080   1.957 -2.5727 -0.5565 -1.3082
    1CHTO  C121   51   6.111   5.401   1.909 -0.2286  0.0158  0.6124
    1CHTO  H225   52   6.157   5.318   1.850  0.6919 -0.5352  2.0864
    1CHTO   O81   53   6.078   5.504   1.814 -0.4716 -0.3765  0.1011
    1CHTO  H202   54   5.998   5.480   1.770 -0.2966 -0.1101 -0.3710
    1CHTO  C119   55   6.217   5.449   2.011 -0.2010 -0.3019  0.4851
    1CHTO  H223   56   6.250   5.359   2.064  1.5208  1.5585  2.6582
    1CHTO  C117   57   6.168   5.549   2.124 -0.2935 -0.1888  0.0525
    1CHTO  H221   58   6.162   5.653   2.092  2.4099 -0.0323 -0.0461
    1CHTO   N20   59   6.245   5.549   2.253 -0.0812 -0.1816 -0.5705
    1CHTO  H209   60   6.274   5.451   2.288  4.6321  1.4667  0.5128
    1CHTO  H210   61   6.330   5.607   2.220  0.0422 -1.2588 -2.2374
    1CHTO   O80   62   6.339   5.500   1.961 -0.8077  0.2889  0.4434
    1CHTO  C103   63   6.480   5.416   1.992  0.0417 -0.0437  0.5147
    1CHTO  H190   64   6.489   5.382   2.095  3.4419 -2.5757 -0.5419
    1CHTO  C101   65   6.508   5.293   1.901  0.0591  0.4455 -0.0119
    1CHTO  H188   66   6.508   5.329   1.798 -0.8228  0.0271 -0.1641
    1CHTO   O68   67   6.407   5.194   1.907  0.0805 -0.4039 -0.2735
    1CHTO  H168   68   6.383   5.153   1.826  0.7447 -2.1520  0.3958
    1CHTO   C99   69   6.652   5.238   1.929 -0.7315  0.1522 -0.2937
    1CHTO  H186   70   6.662   5.192   2.029  2.1325 -0.8070 -1.0004
    1CHTO   N17   71   6.683   5.121   1.827  0.6208  0.3578 -0.2284
    1CHTO  H174   72   6.692   5.154   1.725 -0.1486 -2.3884 -1.2292
    1CHTO  H175   73   6.775   5.077   1.864  0.3746  0.3694  0.4066
    1CHTO   C97   74   6.756   5.355   1.928  0.4404 -0.3159 -0.1654
    1CHTO  H184   75   6.769   5.392   1.825 -2.1805 -3.3058 -1.6535
    1CHTO   O64   76   6.713   5.455   2.017  0.1173 -0.1863 -0.4283
    1CHTO  C104   77   6.593   5.525   1.972  0.2010  0.0075  0.5489
    1CHTO  H191   78   6.598   5.556   1.868 -1.1891  1.0359  0.7765
    1CHTO  C108   79   6.567   5.653   2.047  0.1153 -0.5284 -0.0604
    1CHTO   O71   80   6.674   5.739   2.007 -0.0692 -0.0466  0.3550
    1CHTO  H171   81   6.693   5.802   2.074 -0.4887  1.2870 -0.7534
    1CHTO   O62   82   6.882   5.327   1.992 -0.0333 -0.4045 -0.2620
    1CHTO   C91   83   6.999   5.290   1.916  1.2857  0.0931 -0.0222
    1CHTO  H178   84   6.969   5.286   1.811  2.1101  0.6588 -0.2816
    1CHTO   C92   85   7.030   5.138   1.955  0.6744 -0.5963  0.2545
    1CHTO  H179   86   6.943   5.089   2.002  2.0118 -1.0768  2.2451
    1CHTO   O66   87   7.048   5.064   1.829  0.1129 -0.1057  0.0590
    1CHTO  H166   88   6.974   5.065   1.772  1.5998 -2.5374 -2.0486
    1CHTO   C93   89   7.153   5.116   2.042 -0.3656  0.1937  0.1171
    1CHTO  H180   90   7.168   5.007   2.048 -0.3077  0.2212  0.4729
    1CHTO   N16   91   7.150   5.151   2.185  0.0426 -0.2439  0.8289
    1CHTO  H172   92   7.149   5.259   2.194 -0.5839 -0.3128  1.5709
    1CHTO  H173   93   7.064   5.103   2.228 -0.0268  0.5081  1.5454
    1CHTO   C94   94   7.276   5.184   1.965  0.2241  0.7646  0.3531
    1CHTO  H181   95   7.349   5.228   2.033  1.4090  1.2537 -1.1850
    1CHTO   O61   96   7.243   5.301   1.885 -0.1512  0.3281  0.0833
    1CHTO   C95   97   7.133   5.373   1.937 -0.1789  0.8089  0.2875
    1CHTO  H182   98   7.141   5.372   2.046  1.8756 -2.1870  0.1365
    1CHTO  C106   99   7.122   5.519   1.885 -0.7811  0.2030  0.3775
    1CHTO   O69  100   7.002   5.582   1.928  0.0068  0.0610 -0.1284
    1CHTO  H169  101   7.018   5.615   2.014  0.1618 -1.3524  0.3905
    1CHTO   O63  102   7.332   5.069   1.869 -0.0096  0.1036 -0.3150
    1CHTO   C96  103   7.450   5.013   1.916 -0.7903  0.3375  0.1597
    1CHTO  H183  104   7.446   5.017   2.025 -1.3023 -2.3594  0.2630
    1CHTO   C98  105   7.570   5.096   1.858  0.1966 -0.3453  0.6850
    1CHTO  H185  106   7.551   5.204   1.867 -1.0269 -0.6916  2.5850
    1CHTO   O67  107   7.687   5.070   1.933  0.3892 -0.4201 -0.7682
    1CHTO  H167  108   7.761   5.113   1.896 -1.2230  0.6346 -2.8202
    1CHTO  C102  109   7.604   5.052   1.709  0.3142  0.1985  0.6931
    1CHTO  H189  110   7.704   5.088   1.684  0.1524 -0.7881 -1.5636
    1CHTO   N18  111   7.518   5.109   1.602  0.2991  0.0987  0.5343
    1CHTO  H176  112   7.577   5.138   1.516 -0.9537  0.9835 -0.0494
    1CHTO  H177  113   7.439   5.172   1.638 -0.6247 -1.1884  0.8089
    1CHTO  C105  114   7.610   4.896   1.690 -0.3905  0.6828 -0.5441
    1CHTO  H192  115   7.606   4.866   1.585 -0.9861  0.3239 -0.4205
    1CHTO   O65  116   7.502   4.825   1.748  0.1827  0.1145 -0.7303
    1CHTO  C100  117   7.465   4.854   1.882 -0.5495 -0.6559  0.0198
    1CHTO  H187  118   7.364   4.814   1.900  0.2231 -1.7502  2.0755
    1CHTO  C107  119   7.557   4.778   1.984 -0.1919  0.1636  0.0257
    1CHTO   O70  120   7.551   4.634   1.962 -0.6820 -0.1660 -0.0598
    1CHTO  H170  121   7.621   4.599   2.014 -0.7768 -0.0825  0.1241
    1CHTO   O57  122   7.747   4.860   1.740 -0.4834  0.6181 -0.3733
    1CHTO   C85  123   7.817   4.745   1.691 -0.5401  0.9492 -0.1763
    1CHTO  H157  124   7.737   4.673   1.662  1.4973 -1.6513  0.4533
    1CHTO   C83  125   7.895   4.666   1.794 -0.2112 -0.2011 -0.0149
    1CHTO  H155  126   7.833   4.633   1.877  1.5638 -0.7828  1.1284
    1CHTO   O56  127   8.001   4.746   1.849 -0.5454  0.2527  0.2364
    1CHTO  H135  128   8.051   4.692   1.907 -1.2959 -0.3727  0.3152
    1CHTO   C81  129   7.945   4.534   1.730  0.2529 -0.6652 -0.0476
    1CHTO  H153  130   7.859   4.481   1.689 -0.4564  0.9722 -0.7117
    1CHTO   N14  131   7.995   4.435   1.827  0.7807  0.0567 -0.5032
    1CHTO  H141  132   7.917   4.403   1.893  0.8495 -0.6168 -0.7459
    1CHTO  H142  133   8.072   4.480   1.886 -0.3737  0.4044  0.7744
    1CHTO   C79  134   8.052   4.561   1.615  0.4311 -0.0101 -0.2193
    1CHTO  H151  135   8.065   4.465   1.563 -0.9504 -0.8782  1.0106
    1CHTO   O52  136   7.992   4.652   1.519 -0.5156  0.0913  0.2625
    1CHTO   C86  137   7.922   4.772   1.572  0.7064  0.2361  0.4427
    1CHTO  H158  138   8.013   4.825   1.605  0.2851  3.0562 -2.5874
    1CHTO   C90  139   7.872   4.846   1.443  0.1541  0.4870  0.2812
    1CHTO   O60  140   7.846   4.987   1.468 -0.2774  0.2687 -0.3557
    1CHTO  H138  141   7.818   5.009   1.381 -0.1804 -0.6116 -0.6135
    1CHTO   O50  142   8.175   4.606   1.670 -0.4397  0.0612  0.1056
    1CHTO   C73  143   8.316   4.603   1.662 -1.1168  0.7063 -0.4512
    1CHTO  H145  144   8.350   4.583   1.559 -0.2285 -0.6407  0.0870
    1CHTO   C74  145   8.369   4.483   1.746 -0.3307 -0.4092 -0.7772
    1CHTO  H146  146   8.312   4.393   1.718 -0.6392 -0.0934 -1.1610
    1CHTO   O54  147   8.507   4.458   1.712 -0.1845 -0.4285  0.0872
    1CHTO  H133  148   8.558   4.523   1.755 -1.3561  0.5089  0.1005
    1CHTO   C75  149   8.360   4.510   1.906 -0.0634 -0.1112  0.1010
    1CHTO  H147  150   8.253   4.504   1.932  0.2044  0.8195  1.4426
    1CHTO   N13  151   8.428   4.416   1.998 -0.3285 -0.1286 -0.3924
    1CHTO  H139  152   8.448   4.459   2.095 -0.3846 -0.8351 -0.0598
    1CHTO  H140  153   8.517   4.381   1.948 -0.9847  0.3330 -1.9180
    1CHTO   C76  154   8.394   4.664   1.948 -0.2872  0.1657 -0.0118
    1CHTO  H148  155   8.502   4.677   1.944 -0.6948  4.3322 -0.0945
    1CHTO   O49  156   8.336   4.752   1.844  0.2019 -0.1022 -0.4569
    1CHTO   C77  157   8.387   4.734   1.707 -0.4808  0.6599  0.5183
    1CHTO  H149  158   8.495   4.728   1.703 -0.4298  2.6863 -2.2056
    1CHTO   C88  159   8.363   4.851   1.610 -0.1626  0.1916 -0.5302
    1CHTO   O58  160   8.402   4.978   1.664 -0.4767  0.2429  0.3479
    1CHTO  H136  161   8.427   5.027   1.587  1.6863  0.1945  0.9745
    1CHTO   O51  162   8.322   4.704   2.106 -0.0098  0.3779 -0.2277
    1CHTO   C78  163   8.225   4.815   2.137  0.0879 -0.6905 -0.2966
    1CHTO  H150  164   8.161   4.840   2.050  0.9384  1.6371 -0.3086
    1CHTO   C80  165   8.308   4.939   2.173 -0.6922  0.2085 -0.1916
    1CHTO  H152  166   8.400   4.900   2.221  0.4071  0.6721 -1.9026
    1CHTO   O55  167   8.349   4.994   2.054  0.5435  0.5100  0.2143
    1CHTO  H134  168   8.418   4.946   2.012  0.5332  0.1600  0.5991
    1CHTO   C84  169   8.237   5.050   2.254 -0.4142  0.1455  0.0839
    1CHTO  H156  170   8.159   5.091   2.190 -1.8812 -0.0668  1.7178
    1CHTO   N15  171   8.326   5.171   2.295 -0.6302 -0.2451  0.5568
    1CHTO  H143  172   8.284   5.226   2.376 -1.3511 -0.9456  0.6635
    1CHTO  H144  173   8.421   5.128   2.318  0.2432  2.2677  1.8065
    1CHTO   C87  174   8.167   4.979   2.369 -0.1065 -0.5070  0.0047
    1CHTO  H159  175   8.241   4.934   2.435 -2.0372  0.3684  2.8788
    1CHTO   O53  176   8.068   4.878   2.320 -0.1137 -0.3370  0.3371
    1CHTO   C82  177   8.138   4.770   2.262 -0.4171  0.2236 -0.2011
    1CHTO  H154  178   8.201   4.718   2.333 -1.5615 -1.0423 -0.0887
    1CHTO   C89  179   8.036   4.664   2.210  0.3339 -0.0545  0.4947
    1CHTO   O59  180   8.079   4.534   2.164 -0.2860  0.1788 -0.6242
    1CHTO  H137  181   8.156   4.498   2.204 -0.8839  0.2564  0.6171
    1CHTO   O45  182   8.073   5.071   2.465 -0.1111 -0.3503  0.2261
    1CHTO   C67  183   7.977   5.164   2.406 -0.5004 -0.1704 -0.5566
    1CHTO  H124  184   8.019   5.227   2.328  0.1212  1.7956  1.3052
    1CHTO   C65  185   7.858   5.086   2.348 -0.0985  0.3024  0.0174
    1CHTO  H122  186   7.851   4.995   2.408  1.3609  0.1733  0.0141
    1CHTO   O44  187   7.885   5.061   2.207 -0.5340 -0.3246 -0.0707
    1CHTO  H102  188   7.967   5.018   2.195 -0.3843 -0.0485 -0.0464
    1CHTO   C63  189   7.714   5.158   2.385  0.2397  0.5283 -0.0229
    1CHTO  H120  190   7.687   5.150   2.490 -0.8123  2.8769 -0.0707
    1CHTO   N11  191   7.590   5.093   2.324 -0.4973 -0.1344  0.2340
    1CHTO  H108  192   7.560   5.007   2.380  1.2909 -1.2628 -0.4897
    1CHTO  H109  193   7.509   5.163   2.323 -0.5755 -0.2113  0.7279
    1CHTO   C61  194   7.733   5.318   2.362  0.2215  0.4983  0.2474
    1CHTO  H118  195   7.643   5.369   2.401  2.3756  3.4809  1.4393
    1CHTO   O40  196   7.845   5.370   2.453 -0.4012 -0.0126 -0.2161
    1CHTO   C68  197   7.929   5.266   2.513  0.8076 -0.4022 -0.8357
    1CHTO  H125  198   7.878   5.225   2.603 -1.4523 -0.0735 -1.9136
    1CHTO   C72  199   8.055   5.338   2.566  0.4759 -0.2961 -0.3510
    1CHTO   O48  200   8.113   5.264   2.673 -0.3736 -0.2071  0.2146
    1CHTO  H105  201   8.129   5.177   2.641  0.5525  0.2033 -0.4598
    1CHTO   O38  202   7.761   5.357   2.221  0.3374  0.6189  0.3660
    1CHTO   C55  203   7.704   5.487   2.184  0.5863  0.1470 -0.1093
    1CHTO  H112  204   7.679   5.537   2.279  3.9566  0.2349  0.8018
    1CHTO   C56  205   7.576   5.463   2.091  0.3954  0.1683 -0.0163
    1CHTO  H113  206   7.612   5.394   2.014  0.9821  0.4014  0.0473
    1CHTO   O42  207   7.474   5.392   2.162 -0.2363 -0.0725 -0.2063
    1CHTO  H100  208   7.425   5.441   2.225  0.8208  0.2348  0.3864
    1CHTO   C57  209   7.520   5.595   2.031 -0.2034 -0.0278 -0.9347
    1CHTO  H114  210   7.434   5.619   2.092  1.5367 -0.8682  1.9684
    1CHTO   N10  211   7.473   5.571   1.894  0.3482  0.6735  0.0234
    1CHTO  H106  212   7.396   5.639   1.862 -0.4549 -0.1872  0.1018
    1CHTO  H107  213   7.546   5.572   1.815 -1.0911  0.2595 -1.3455
    1CHTO   C58  214   7.615   5.719   2.036 -0.1969 -0.5181 -0.5411
    1CHTO  H115  215   7.590   5.788   1.953  1.2996  1.1276  0.3336
    1CHTO   O37  216   7.756   5.683   2.018 -0.9830 -0.0265 -0.3779
    1CHTO   C59  217   7.809   5.577   2.105 -0.2325 -0.2124 -0.4886
    1CHTO  H116  218   7.872   5.511   2.045  0.0943 -1.0519  0.7295
    1CHTO   C70  219   7.907   5.628   2.213  0.0881  0.2024  0.1175
    1CHTO   O46  220   7.853   5.723   2.308  0.4339 -0.0507  0.2949
    1CHTO  H103  221   7.813   5.667   2.371  0.5841  0.2403  0.6477
    1CHTO   O39  222   7.607   5.810   2.183  0.3616  0.2891 -0.0502
    1CHTO   C60  223   7.522   5.929   2.176 -0.6595  0.0952  0.3353
    1CHTO  H117  224   7.510   5.959   2.072 -1.2429 -2.0065 -0.2290
    1CHTO   C62  225   7.379   5.904   2.233  0.2281 -0.5363  0.1716
    1CHTO  H119  226   7.334   5.835   2.158 -0.7991  0.4180 -0.1092
    1CHTO   O43  227   7.396   5.861   2.372 -0.3049  0.1717  0.1309
    1CHTO  H101  228   7.310   5.842   2.405  1.3105 -2.4224  3.1169
    1CHTO   C66  229   7.289   6.037   2.226  0.0474 -0.1064  1.0957
    1CHTO  H123  230   7.282   6.068   2.121  1.0712  0.6273  1.2329
    1CHTO   N12  231   7.156   6.022   2.268 -1.0438  0.4983  0.1961
    1CHTO  H110  232   7.096   6.016   2.179  0.7422 -0.3844 -0.9864
    1CHTO  H111  233   7.143   5.927   2.318  4.1306 -1.1415 -1.1916
    1CHTO   C69  234   7.361   6.149   2.308 -0.3590 -0.2156 -0.6523
    1CHTO  H126  235   7.361   6.116   2.413  3.3851 -2.3185 -1.2131
    1CHTO   O41  236   7.508   6.163   2.261  0.3376  0.7061 -0.0294
    1CHTO   C64  237   7.591   6.050   2.254  0.1138  0.6148 -1.0533
    1CHTO  H121  238   7.608   5.996   2.350 -0.2285  1.1510 -0.6907
    1CHTO   C71  239   7.724   6.102   2.207 -0.2949 -0.4729  0.9403
    1CHTO   O47  240   7.823   6.001   2.198 -0.1193  0.1903  0.2883
    1CHTO  H104  241   7.902   6.023   2.243  0.5723 -2.6443  0.5737
    1CHTO   O34  242   7.284   6.307   2.297 -0.2395  0.2740  0.7848
    1CHTO   C49  243   7.326   6.428   2.369 -0.0628 -0.2508  0.4167
    1CHTO   H91  244   7.419   6.405   2.422  0.4918  0.4107 -0.2505
    1CHTO   C47  245   7.230   6.478   2.480  0.3152  0.2900 -0.8350
    1CHTO   H89  246   7.272   6.575   2.515  2.2427 -0.8818  0.1458
    1CHTO   O33  247   7.228   6.372   2.583  0.4259  0.2723 -0.2487
    1CHTO   H70  248   7.317   6.355   2.606  0.0538 -1.5294 -0.0788
    1CHTO   C45  249   7.084   6.495   2.409 -0.2300  0.5592 -0.4707
    1CHTO   H87  250   7.064   6.411   2.341  3.1422 -0.5460 -0.1675
    1CHTO    N8  251   6.974   6.521   2.506  1.2633  0.4755  0.6726
    1CHTO   H75  252   6.883   6.565   2.466  1.3603  0.3606  0.3261
    1CHTO   H76  253   6.945   6.428   2.552  2.3933  1.4221  3.4453
    1CHTO   C43  254   7.105   6.621   2.299 -0.0812  0.0339 -0.1091
    1CHTO   H85  255   7.020   6.610   2.232 -0.3914 -0.6253  0.3846
    1CHTO   O29  256   7.226   6.608   2.229  0.1537  0.1361  0.4269
    1CHTO   C50  257   7.347   6.554   2.273  0.2906  0.1583  0.2579
    1CHTO   H92  258   7.397   6.518   2.181 -0.5683 -0.2913 -0.0451
    1CHTO   C54  259   7.454   6.641   2.327 -0.6626  0.1691 -0.7231
    1CHTO   O36  260   7.504   6.726   2.227  0.4296 -0.5052 -0.1612
    1CHTO   H72  261   7.542   6.801   2.268 -0.3585 -1.2385  1.9976
    1CHTO   O27  262   7.106   6.750   2.361 -0.4351  0.0666  0.1774
    1CHTO   C37  263   7.044   6.875   2.335  0.4966 -0.1632  0.2621
    1CHTO   H79  264   7.045   6.901   2.229  1.9930  0.1383  0.3372
    1CHTO   C38  265   6.904   6.883   2.408  0.8067 -0.2335  0.2118
    1CHTO   H80  266   6.910   6.837   2.508  1.1241  1.6824  1.1004
    1CHTO   O31  267   6.824   6.791   2.332  0.2645 -0.0207 -0.6591
    1CHTO   H68  268   6.749   6.824   2.286  0.9233  2.2250 -0.1696
    1CHTO   C39  269   6.834   7.029   2.399 -0.2085  0.2092 -0.5644
    1CHTO   H81  270   6.827   7.039   2.291 -0.9793  1.5760 -0.4020
    1CHTO    N7  271   6.698   7.041   2.462  0.0809 -0.0972  0.1848
    1CHTO   H73  272   6.639   6.952   2.477  0.6770 -0.3438  1.1029
    1CHTO   H74  273   6.639   7.126   2.431 -0.6487  0.5668  3.2547
    1CHTO   C40  274   6.942   7.135   2.447  0.0468 -0.7623  0.0717
    1CHTO   H82  275   6.955   7.131   2.555 -0.4879  1.7790  0.2619
    1CHTO   O26  276   7.068   7.110   2.375  0.2753 -0.0389 -0.2725
    1CHTO   C41  277   7.124   6.983   2.410 -0.3352  0.2079 -0.0292
    1CHTO   H83  278   7.122   6.965   2.518 -1.3013  0.4235 -0.0047
    1CHTO   C52  279   7.266   6.985   2.368  0.0589 -0.2780  0.4340
    1CHTO   O35  280   7.353   7.044   2.493  0.4685  0.2539  0.4991
    1CHTO   H71  281   7.294   7.094   2.546 -1.7777 -0.8137 -0.9079
    1CHTO   O28  282   6.889   7.271   2.431 -0.6645  0.4028 -0.0237
    1CHTO   C42  283   6.916   7.347   2.305 -0.1684 -0.2564 -0.3144
    1CHTO   H84  284   6.928   7.268   2.232 -2.2564  0.2452 -1.2210
    1CHTO   C44  285   7.046   7.442   2.297  0.1942  0.1934 -0.5662
    1CHTO   H86  286   7.036   7.521   2.372 -0.0998 -2.2769  2.1097
    1CHTO   O32  287   7.157   7.367   2.341  0.0433  0.4877 -0.1015
    1CHTO   H69  288   7.193   7.396   2.424  1.2970  4.5965 -1.9277
    1CHTO   C48  289   7.070   7.505   2.156  0.6676 -0.6457 -0.4236
    1CHTO   H90  290   7.107   7.429   2.087  2.3421 -0.0836 -0.1481
    1CHTO    N9  291   7.176   7.616   2.163  0.2390 -0.1023  0.3848
    1CHTO   H77  292   7.176   7.689   2.084  0.4287 -0.0154  0.4658
    1CHTO   H78  293   7.273   7.569   2.165  1.5298  2.3719 -1.6992
    1CHTO   C51  294   6.942   7.573   2.093 -0.2441  0.0265  0.5288
    1CHTO   H93  295   6.927   7.672   2.134 -1.0757  0.0461  0.1891
    1CHTO   O30  296   6.826   7.490   2.105  0.5911 -0.0746 -0.2959
    1CHTO   C46  297   6.792   7.430   2.253  0.9057 -0.4451 -0.5408
    1CHTO   H88  298   6.773   7.513   2.321  2.6439 -0.6937  0.2580
    1CHTO   C53  299   6.659   7.348   2.243 -0.3508  0.6249 -0.6044
    1CHTO   O72  300   6.665   7.241   2.148 -0.3224  0.3583  0.2590
    1CHTO  H199  301   6.611   7.262   2.074 -0.1466  2.3321  0.6707
    1CHTO   O22  302   6.966   7.592   1.951  0.3265 -0.1108  0.0498
    1CHTO   C31  303   6.883   7.644   1.843 -0.3463 -1.4181 -0.4203
    1CHTO   H59  304   6.778   7.644   1.880 -0.5966 -1.0178 -1.1287
    1CHTO   C29  305   6.923   7.792   1.808 -0.0838  0.5151 -0.6375
    1CHTO   H57  306   7.026   7.782   1.772  0.3023 -0.1528  0.6150
    1CHTO   O21  307   6.924   7.865   1.930  0.3865  0.0388 -0.0466
    1CHTO   H37  308   7.014   7.889   1.941  0.3604 -0.9126  2.6413
    1CHTO   C27  309   6.840   7.845   1.687  0.3018 -0.4041 -0.2328
    1CHTO   H55  310   6.738   7.856   1.725  1.7468  0.7049  3.5007
    1CHTO    N5  311   6.890   7.973   1.634  0.0783  0.0364 -0.0888
    1CHTO   H43  312   6.995   7.952   1.620 -0.4433 -2.2488 -0.6612
    1CHTO   H44  313   6.825   7.990   1.549 -0.0390 -0.5724 -0.1177
    1CHTO   C25  314   6.842   7.736   1.573 -0.3551 -0.3004 -0.2893
    1CHTO   H53  315   6.944   7.716   1.537  0.0683  0.6027  0.4060
    1CHTO   O17  316   6.798   7.607   1.625  0.0765  0.8706 -0.1073
    1CHTO   C32  317   6.888   7.551   1.722 -0.6302  0.9755 -0.2540
    1CHTO   H60  318   6.987   7.543   1.679 -0.9905  1.4608 -1.1993
    1CHTO   C36  319   6.839   7.404   1.756  0.2276 -0.7231 -0.4950
    1CHTO   O25  320   6.725   7.393   1.848  0.3908 -0.3732  0.4217
    1CHTO   H40  321   6.653   7.445   1.816  0.0689 -1.1040 -0.0625
    1CHTO   O15  322   6.734   7.780   1.446  0.0367 -0.2247  0.5757
    1CHTO   C19  323   6.687   7.707   1.327  0.3606  0.0629 -0.6843
    1CHTO   H47  324   6.615   7.778   1.284  1.9411  1.6291 -0.8013
    1CHTO   C20  325   6.781   7.674   1.206  0.2616 -0.0424  0.5731
    1CHTO   H48  326   6.872   7.623   1.241 -0.8804 -1.6927  1.2034
    1CHTO   O19  327   6.810   7.799   1.147  0.4201  0.5637 -0.5405
    1CHTO   H35  328   6.861   7.790   1.069 -0.0074 -1.1905 -0.6355
    1CHTO   C21  329   6.704   7.584   1.095  0.9561  0.1695  0.5499
    1CHTO   H49  330   6.617   7.639   1.058  1.7140 -0.1896 -1.8593
    1CHTO    N4  331   6.789   7.545   0.983  0.1628  0.3224  0.7500
    1CHTO   H41  332   6.833   7.448   1.000 -0.5268  0.2746  2.3256
    1CHTO   H42  333   6.867   7.618   0.964  1.5119 -0.5600  2.7692
    1CHTO   C22  334   6.635   7.469   1.166 -0.2137  0.7057  0.3944
    1CHTO   H50  335   6.712   7.416   1.220 -1.2404 -0.1372  1.0540
    1CHTO   O14  336   6.537   7.528   1.257 -0.0465 -0.2738  0.0930
    1CHTO   C23  337   6.607   7.585   1.367  0.0081  0.2627 -0.6318
    1CHTO   H51  338   6.670   7.509   1.414  0.8178  1.4066  0.1453
    1CHTO   C34  339   6.494   7.621   1.472  0.4605  0.1956  0.0732
    1CHTO   O23  340   6.382   7.693   1.406 -0.3070 -0.0699  0.1694
    1CHTO   H38  341   6.364   7.774   1.450 -1.2508 -1.1971  1.8932
    1CHTO   O16  342   6.550   7.386   1.083  0.1153  0.0362 -0.7162
    1CHTO   C24  343   6.625   7.250   1.035  0.5795 -0.6644 -0.8506
    1CHTO   H52  344   6.733   7.260   1.045  0.5906 -1.1327 -0.4563
    1CHTO   C26  345   6.583   7.224   0.897 -0.3965 -0.0279  0.3698
    1CHTO   H54  346   6.472   7.216   0.894 -0.3994  0.6476 -2.1160
    1CHTO   O20  347   6.624   7.334   0.807 -0.1237 -0.5703  0.5966
    1CHTO   H36  348   6.595   7.321   0.719  1.1858 -0.5529  0.1471
    1CHTO   C30  349   6.640   7.085   0.847 -0.2724  0.1234  0.6688
    1CHTO   H58  350   6.748   7.092   0.829 -0.6909  1.8169 -1.4196
    1CHTO    N6  351   6.588   7.049   0.709 -0.5045 -0.1433  0.4852
    1CHTO   H45  352   6.560   7.139   0.655  2.1309  0.0703 -0.5907
    1CHTO   H46  353   6.500   6.990   0.729  0.1660 -0.4890  2.5002
    1CHTO   C33  354   6.603   6.970   0.943  0.1436 -0.4830 -0.5573
    1CHTO   H61  355   6.494   6.955   0.936  0.3709 -1.4862 -2.3277
    1CHTO   O18  356   6.645   7.003   1.073  0.3547 -0.4030 -0.1164
    1CHTO   C28  357   6.579   7.122   1.122 -0.2455  1.0279  0.0772
    1CHTO   H56  358   6.471   7.118   1.104 -0.2463 -2.7020  0.6087
    1CHTO   C35  359   6.621   7.136   1.268  0.7794 -0.0280  0.6445
    1CHTO   O24  360   6.524   7.216   1.330 -0.1464  0.3093 -0.5829
    1CHTO   H39  361   6.562   7.274   1.393  1.5312  0.2493 -1.5343
    1CHTO    O9  362   6.656   6.846   0.907 -0.0736 -0.0072 -0.2820
    1CHTO   C13  363   6.598   6.712   0.984 -0.7338 -1.1706  0.0264
    1CHTO   H26  364   6.507   6.744   1.038  0.4193  0.1679  1.1911
    1CHTO   C11  365   6.710   6.662   1.086  0.0590 -0.8094 -0.4267
    1CHTO   H24  366   6.710   6.733   1.170 -1.8789 -2.7746  1.2942
    1CHTO    O8  367   6.835   6.669   1.020 -0.7774  0.2004 -0.3418
    1CHTO    H3  368   6.900   6.617   1.063 -0.4975  0.5386 -0.3610
    1CHTO    C9  369   6.673   6.517   1.128 -0.2522 -0.1699 -0.1517
    1CHTO   H22  370   6.570   6.520   1.167  0.1557 -0.9198  1.0315
    1CHTO    N2  371   6.750   6.463   1.240 -0.0870 -0.3812  0.1366
    1CHTO   H10  372   6.718   6.366   1.275  1.2026 -0.5590  0.8374
    1CHTO   H11  373   6.855   6.472   1.219 -0.5739  0.9352 -1.8409
    1CHTO    C7  374   6.690   6.423   1.005 -0.5291  0.6590 -0.5743
    1CHTO   H20  375   6.625   6.338   1.033  0.7186  0.2451  1.1569
    1CHTO    O4  376   6.654   6.482   0.876 -0.4917 -0.1928  0.0750
    1CHTO   C14  377   6.560   6.592   0.881 -0.6780 -0.1879  0.2048
    1CHTO   H27  378   6.474   6.528   0.911 -0.4287  0.1656  1.7157
    1CHTO   C18  379   6.535   6.636   0.731 -0.7839  0.4441 -0.6821
    1CHTO   O13  380   6.418   6.724   0.740  0.1327  0.1622  0.2372
    1CHTO    H7  381   6.386   6.734   0.653  0.1144 -1.4875  0.0259
    1CHTO    O2  382   6.815   6.345   0.980 -0.3619  0.5459 -0.5277
    1CHTO    C1  383   6.838   6.249   0.876  0.4076  0.2782  0.2149
    1CHTO   H14  384   6.801   6.288   0.778  0.4535 -0.8557 -0.2555
    1CHTO    C2  385   6.763   6.105   0.902 -0.2130  0.6887  0.1711
    1CHTO   H15  386   6.792   6.078   1.005  0.7953  1.8687  0.2121
    1CHTO    O6  387   6.622   6.126   0.888  0.1010  0.0634 -0.2256
    1CHTO    H1  388   6.579   6.043   0.881  2.4003 -1.3404  1.4835
    1CHTO    C3  389   6.801   5.992   0.795  0.0368  0.4483  0.0458
    1CHTO   H16  390   6.759   6.022   0.698  2.8950 -0.6957 -1.6038
    1CHTO    N1  391   6.747   5.853   0.832 -0.3054  0.3451 -0.7458
    1CHTO    H8  392   6.788   5.771   0.775 -0.0718 -0.4241  0.5135
    1CHTO    H9  393   6.750   5.818   0.934  0.2256 -1.0940 -1.2477
    1CHTO    C4  394   6.955   6.003   0.774  0.3269 -0.1840  0.2546
    1CHTO   H17  395   7.004   5.960   0.861 -1.6784 -1.1369  0.9457
    1CHTO    O1  396   7.011   6.132   0.757  0.3460 -0.2360  0.0025
    1CHTO    C5  397   6.988   6.230   0.861  0.4295 -0.7859  0.7484
    1CHTO   H18  398   7.021   6.189   0.957  1.2237  0.9573  1.2334
    1CHTO   C16  399   7.055   6.363   0.833 -0.3226 -0.1585 -0.5244
    1CHTO   O11  400   7.196   6.348   0.806 -0.7551 -0.0025  0.3217
    1CHTO    H5  401   7.219   6.264   0.771  0.0095  0.8156 -1.1953
    1CHTO    O3  402   6.996   5.930   0.659 -0.2827  0.3945 -0.5615
    1CHTO    C6  403   7.099   5.825   0.660 -0.9407 -0.2389  0.6107
    1CHTO   H19  404   7.105   5.766   0.751  0.9948 -0.0480  0.6175
    1CHTO    C8  405   7.067   5.734   0.533  0.4128 -0.0958  0.1608
    1CHTO   H21  406   7.053   5.794   0.443  0.7443  0.4015  0.4395
    1CHTO    O7  407   6.947   5.670   0.570 -0.1393 -0.2961  0.0508
    1CHTO    H2  408   6.904   5.614   0.508 -0.6593  0.0226  0.1188
    1CHTO   C12  409   7.184   5.631   0.517 -0.5076  0.0859 -0.8111
    1CHTO   H25  410   7.195   5.570   0.608 -0.1570 -0.7187 -1.3842
    1CHTO    N3  411   7.173   5.539   0.407  0.3710  0.2571 -0.0561
    1CHTO   H12  412   7.115   5.587   0.330 -2.2424  0.0585  1.7345
    1CHTO   H13  413   7.129   5.444   0.433 -1.4204  1.1902  0.3946
    1CHTO   C15  414   7.322   5.709   0.497  0.1982  0.2004  0.3801
    1CHTO   H28  415   7.331   5.766   0.405  2.8718  0.3594  0.6874
    1CHTO   O10  416   7.436   5.626   0.515 -0.3683 -0.0772 -0.1652
    1CHTO    H4  417   7.462   5.586   0.434  2.0280  1.2039 -0.0558
    1CHTO    O5  418   7.340   5.793   0.609 -0.1815  0.3973  0.1838
    1CHTO   C10  419   7.238   5.889   0.629  0.1809 -0.2361 -0.0004
    1CHTO   H23  420   7.223   5.956   0.544  0.3621 -1.6844 -1.2029
    1CHTO   C17  421   7.285   5.986   0.735 -0.1523  0.7797 -0.0028
    1CHTO   O12  422   7.402   6.058   0.690 -0.0320 -0.3266 -0.3578
    1CHTO    H6  423   7.478   6.002   0.695 -1.4097 -2.1996  0.1585
    2CHTO  H203  424   6.519   4.076   2.249 -0.8369 -3.5702 -1.7155
    2CHTO   O82  425   6.436   4.081   2.293 -0.0368 -0.0932 -0.4020
    2CHTO  C123  426   6.331   4.134   2.217 -0.1935 -0.4858  0.6701
    2CHTO  H227  427   6.377   4.175   2.126 -2.5967 -2.0741 -1.3256
    2CHTO   O77  428   6.246   4.018   2.182  0.0821 -0.8828 -0.3475
    2CHTO  C118  429   6.128   4.050   2.109  0.3288  0.5744  0.4950
    2CHTO  H222  430   6.175   4.091   2.018  2.7467  1.0271  1.9215
    2CHTO  C125  431   6.078   3.905   2.073  0.3884 -0.0482 -0.3328
    2CHTO   O84  432   6.045   3.829   2.189  0.1613 -0.0762 -0.3904
    2CHTO  H205  433   6.124   3.819   2.239 -1.6690  1.2707  2.9425
    2CHTO  C114  434   6.036   4.142   2.193 -0.3613  0.1088  0.5117
    2CHTO  H218  435   6.002   4.086   2.280  0.2524 -0.3074  0.4789
    2CHTO  C116  436   6.107   4.272   2.236  0.5003  0.2928  0.5974
    2CHTO  H220  437   6.110   4.339   2.147 -0.3580  0.2702  0.5426
    2CHTO   O79  438   6.025   4.344   2.329  0.3421  0.3063 -0.2394
    2CHTO  H201  439   6.069   4.395   2.394 -0.5954 -1.9325  2.2926
    2CHTO  C120  440   6.252   4.241   2.294 -0.4746  0.0173  0.3486
    2CHTO  H224  441   6.231   4.206   2.397  4.3015 -3.1097  0.4380
    2CHTO   N21  442   6.339   4.362   2.304 -0.4791  0.6489 -0.8369
    2CHTO  H211  443   6.412   4.336   2.379 -0.9868 -1.2239 -0.9739
    2CHTO  H212  444   6.272   4.440   2.335 -0.7848 -0.6804  2.0059
    2CHTO   O75  445   5.923   4.166   2.112  0.2114  0.3846  0.2266
    2CHTO  C112  446   5.775   4.133   2.170  0.3548  0.5959  0.0585
    2CHTO  H216  447   5.779   4.126   2.280  1.6849  0.6410  0.0328
    2CHTO   O73  448   5.724   4.011   2.113 -0.5945 -0.0925  0.0118
    2CHTO  C113  449   5.595   3.967   2.149  0.3958  0.1823 -0.5189
    2CHTO  H217  450   5.590   3.928   2.253  0.1038 -0.0343 -0.6133
    2CHTO  C124  451   5.558   3.851   2.061  0.5208  0.5648 -0.8780
    2CHTO   O83  452   5.659   3.749   2.051  0.3429 -0.1786 -0.3130
    2CHTO  H204  453   5.640   3.677   2.108 -0.8776  0.1064 -0.3412
    2CHTO  C109  454   5.484   4.074   2.134  0.4874  0.9290  0.6135
    2CHTO  H213  455   5.485   4.105   2.029  1.1846  0.1238  0.3751
    2CHTO  C110  456   5.531   4.199   2.217  0.4560  0.2306 -0.3303
    2CHTO  H214  457   5.544   4.160   2.318  1.2151  0.5885 -0.2813
    2CHTO   O78  458   5.425   4.299   2.217  0.3862  0.2931 -0.5936
    2CHTO  H200  459   5.454   4.379   2.255 -0.5622  1.2919 -1.9267
    2CHTO  C111  460   5.664   4.247   2.148 -0.4916  0.2010 -0.1007
    2CHTO  H215  461   5.644   4.258   2.040 -0.5855  2.9725  0.1739
    2CHTO   N19  462   5.707   4.377   2.193 -0.6990  0.2274 -0.4106
    2CHTO  H207  463   5.778   4.386   2.274  0.6108 -1.0727 -1.3812
    2CHTO  H208  464   5.616   4.432   2.212 -1.6019 -1.4041  0.1203
    2CHTO   O74  465   5.357   4.015   2.175  0.1652  0.4107 -0.7369
    2CHTO  C115  466   5.250   4.022   2.067  1.5347  0.3320 -0.2512
    2CHTO  H219  467   5.283   4.076   1.979  1.7773 -0.2896 -0.5476
    2CHTO   O76  468   5.227   3.867   2.001 -0.0498  0.3657 -0.0409
    2CHTO  C122  469   5.144   3.774   2.061 -0.0420  0.0062 -0.1103
    2CHTO  H226  470   5.200   3.741   2.149  1.7675  2.5947 -0.2550
    2CHTO  C126  471   5.121   3.651   1.973  0.7132 -0.5141  0.5065
    2CHTO   O85  472   5.245   3.590   1.935 -0.4739 -0.3375  0.3720
    2CHTO  H206  473   5.291   3.551   2.006 -0.8678  0.5655  1.1256
    2CHTO  C121  474   4.999   3.835   2.114 -0.4798 -0.5908 -0.4041
    2CHTO  H225  475   4.913   3.783   2.066  0.4371 -2.1856 -0.3472
    2CHTO   O81  476   4.993   3.806   2.256 -0.3010 -0.5117 -0.5844
    2CHTO  H202  477   4.910   3.772   2.285  1.1975 -2.3259  1.8132
    2CHTO  C119  478   4.987   3.992   2.093 -0.0797  0.1085 -0.2379
    2CHTO  H223  479   4.969   3.999   1.986 -3.6521  1.7373  0.3635
    2CHTO  C117  480   5.115   4.084   2.131  0.2693  0.0810  0.2635
    2CHTO  H221  481   5.142   4.090   2.237  0.7047  0.9220  0.1140
    2CHTO   N20  482   5.107   4.230   2.087 -0.3875  0.3525 -0.0580
    2CHTO  H209  483   5.035   4.268   2.158  0.9214 -2.2690  2.7772
    2CHTO  H210  484   5.198   4.279   2.118 -0.1834 -0.2220  0.2447
    2CHTO   O80  485   4.866   4.049   2.138 -0.7412 -0.6090  0.0766
    2CHTO  C103  486   4.763   4.109   2.035 -0.3807  0.6451  0.6459
    2CHTO  H190  487   4.816   4.164   1.958  0.9984 -1.0018  0.4106
    2CHTO  C101  488   4.679   4.013   1.941 -0.2559 -0.1258  0.1856
    2CHTO  H188  489   4.626   3.937   1.999  1.8040 -0.4365  1.7180
    2CHTO   O68  490   4.767   3.930   1.853 -0.5659  1.0428  0.3483
    2CHTO  H168  491   4.840   3.979   1.820  0.5683  0.2161  1.5484
    2CHTO   C99  492   4.572   4.086   1.846  0.7307 -0.0548  0.1070
    2CHTO  H186  493   4.632   4.139   1.769  0.1545 -1.9754 -1.7082
    2CHTO   N17  494   4.475   4.000   1.772  0.2228  0.6156  0.1478
    2CHTO  H174  495   4.470   3.905   1.824 -0.3691 -0.4016 -1.7260
    2CHTO  H175  496   4.521   3.986   1.675 -0.5249  1.4920 -0.3357
    2CHTO   C97  497   4.497   4.188   1.934  0.4271 -0.1573  0.2220
    2CHTO  H184  498   4.426   4.136   2.000  1.6741 -1.3602  0.6346
    2CHTO   O64  499   4.584   4.273   2.010  0.3354  0.1858  0.0867
    2CHTO  C104  500   4.668   4.208   2.103 -0.2278  0.0618 -0.5842
    2CHTO  H191  501   4.612   4.156   2.181  1.2739 -0.6127  0.0776
    2CHTO  C108  502   4.750   4.310   2.181  0.2159 -0.0384  0.2074
    2CHTO   O71  503   4.661   4.379   2.268 -0.4206  0.7141 -0.3141
    2CHTO  H171  504   4.687   4.462   2.303  1.7074  0.0027 -0.1438
    2CHTO   O62  505   4.425   4.280   1.847  0.1306 -0.0632  0.7250
    2CHTO   C91  506   4.338   4.376   1.909 -0.6083 -0.3389 -0.5305
    2CHTO  H178  507   4.332   4.358   2.017 -2.1708  0.1989 -0.5161
    2CHTO   C92  508   4.189   4.363   1.860 -0.2443  0.3415  0.0124
    2CHTO  H179  509   4.161   4.258   1.843  0.8778  0.1186 -0.4986
    2CHTO   O66  510   4.114   4.413   1.968 -0.5805  0.0564  0.0871
    2CHTO  H166  511   4.107   4.350   2.037  1.1443  0.9307  1.1012
    2CHTO   C93  512   4.153   4.440   1.727  0.0774  0.8682  0.4957
    2CHTO  H180  513   4.045   4.459   1.731  0.1440  1.0771  1.6372
    2CHTO   N16  514   4.177   4.358   1.608  0.6617  0.5342 -0.0002
    2CHTO  H172  515   4.280   4.339   1.580 -0.4601 -1.5664 -3.0160
    2CHTO  H173  516   4.121   4.266   1.611 -1.9986  1.9271 -3.2576
    2CHTO   C94  517   4.231   4.578   1.714  0.6184 -0.3056  0.6030
    2CHTO  H181  518   4.319   4.568   1.651 -0.4393 -0.9300 -0.8204
    2CHTO   O61  519   4.283   4.621   1.843 -0.3174 -0.5418  0.5792
    2CHTO   C95  520   4.386   4.531   1.879  0.1617  0.5349 -0.2885
    2CHTO  H182  521   4.457   4.529   1.796 -1.5685 -0.8541 -1.7577
    2CHTO  C106  522   4.447   4.599   1.990 -0.6286 -0.6321  0.2653
    2CHTO   O69  523   4.589   4.568   2.021 -0.0524 -0.4810 -0.2224
    2CHTO  H169  524   4.640   4.603   1.950 -0.9099  1.7896  0.2397
    2CHTO   O63  525   4.147   4.685   1.646  0.3956 -0.6370 -0.0015
    2CHTO   C96  526   4.130   4.840   1.712 -0.4006 -0.3147 -0.2874
    2CHTO  H183  527   4.223   4.878   1.754 -0.5508 -0.3367  0.0626
    2CHTO   C98  528   4.016   4.850   1.817  0.1603 -0.6041  0.3137
    2CHTO  H185  529   3.924   4.802   1.779  1.4941 -0.9445 -2.5971
    2CHTO   O67  530   4.050   4.777   1.939  0.0911 -0.0936 -0.1532
    2CHTO  H167  531   4.139   4.790   1.966  1.3642 -2.8124 -2.6925
    2CHTO  C102  532   3.981   5.003   1.852 -0.9308 -0.5258  0.5365
    2CHTO  H189  533   4.065   5.044   1.910 -1.8844  0.4487  1.2570
    2CHTO   N18  534   3.868   5.016   1.942  0.4487 -0.0181  0.0642
    2CHTO  H176  535   3.885   5.096   2.012 -0.4381  1.9259 -1.8983
    2CHTO  H177  536   3.828   4.925   1.985  2.8191 -0.6060  1.1453
    2CHTO  C105  537   3.975   5.094   1.722 -0.3189 -0.4555  0.0405
    2CHTO  H192  538   3.874   5.084   1.681 -0.3724  0.9327 -0.1819
    2CHTO   O65  539   4.070   5.067   1.622  0.0086 -0.0311  0.0676
    2CHTO  C100  540   4.088   4.930   1.593 -0.8203  0.2422 -0.3152
    2CHTO  H187  541   4.000   4.887   1.543  0.3166  0.1260 -2.2826
    2CHTO  C107  542   4.195   4.934   1.485  0.0881  0.7764 -0.1535
    2CHTO   O70  543   4.150   4.979   1.362  1.2206  1.1956  0.1133
    2CHTO  H170  544   4.171   5.070   1.360  1.0032  1.2108 -3.1154
    2CHTO   O57  545   3.995   5.266   1.793 -0.2591 -0.4036  0.4578
    2CHTO   C85  546   3.928   5.362   1.708  0.7676 -0.1284 -1.0226
    2CHTO  H157  547   3.838   5.309   1.669 -0.7843  0.4452  1.6821
    2CHTO   C83  548   4.021   5.413   1.595  0.3515  0.3688 -0.1733
    2CHTO  H155  549   4.066   5.328   1.544  1.3519  0.6550  0.2255
    2CHTO   O56  550   4.139   5.478   1.652 -0.0108 -0.0763  0.4614
    2CHTO  H135  551   4.119   5.553   1.705  1.9213  0.0318  1.0587
    2CHTO   C81  552   3.940   5.501   1.496 -0.5453 -0.0028 -0.2163
    2CHTO  H153  553   3.851   5.447   1.463  0.5792 -1.3170 -1.1499
    2CHTO   N14  554   4.005   5.527   1.367 -0.2599  0.3848  0.1126
    2CHTO  H141  555   4.111   5.518   1.379 -0.0412  0.5046 -1.6894
    2CHTO  H142  556   3.967   5.454   1.299  1.5059 -0.0494 -0.4294
    2CHTO   C79  557   3.890   5.632   1.580  0.1071  0.1057 -0.6423
    2CHTO  H151  558   3.805   5.676   1.529  1.3323  0.4657 -2.4389
    2CHTO   O52  559   3.844   5.599   1.718  0.0945 -0.3733  0.3599
    2CHTO   C86  560   3.883   5.486   1.792 -1.0176 -0.0522 -0.2065
    2CHTO  H158  561   3.967   5.528   1.852  0.2310 -4.1589  1.1314
    2CHTO   C90  562   3.769   5.463   1.893 -0.0207  0.0248  0.0755
    2CHTO   O60  563   3.796   5.347   1.964  0.0393  0.5837  0.3930
    2CHTO  H138  564   3.737   5.281   1.935  1.8027 -0.4153 -0.9860
    2CHTO   O50  565   3.998   5.727   1.596  0.0729  0.0027 -0.0032
    2CHTO   C73  566   4.039   5.858   1.633  0.1654 -0.2425  0.3333
    2CHTO  H145  567   3.954   5.915   1.673 -1.4291  0.1430 -3.4294
    2CHTO   C74  568   4.085   5.936   1.506 -0.4051  0.0401  0.2676
    2CHTO  H146  569   4.002   5.962   1.440  1.1126 -0.6886 -1.9832
    2CHTO   O54  570   4.125   6.065   1.554  0.1198 -0.5853  0.0647
    2CHTO  H133  571   4.059   6.113   1.600  0.0563  0.1265 -0.7438
    2CHTO   C75  572   4.199   5.860   1.431 -0.5773 -0.3404 -0.3001
    2CHTO  H147  573   4.158   5.768   1.387 -0.2029 -1.4990  1.7088
    2CHTO   N13  574   4.252   5.931   1.314 -0.3773  0.3123 -0.4241
    2CHTO  H139  575   4.358   5.912   1.308 -0.4466 -0.0283 -0.5539
    2CHTO  H140  576   4.228   6.036   1.324 -0.3283  0.1263  1.9783
    2CHTO   C76  577   4.318   5.832   1.540  0.2049  0.0628 -0.3303
    2CHTO  H148  578   4.363   5.930   1.553 -1.5943  0.9738 -0.8388
    2CHTO   O49  579   4.269   5.777   1.677  1.1452 -0.4779  0.4563
    2CHTO   C77  580   4.154   5.847   1.734  0.6796 -0.4934  0.3681
    2CHTO  H149  581   4.183   5.948   1.763  0.5497 -0.9806  2.3203
    2CHTO   C88  582   4.107   5.773   1.859  0.1811 -0.0765 -0.2582
    2CHTO   O58  583   4.010   5.832   1.938 -0.3675 -0.3880  0.3914
    2CHTO  H136  584   4.027   5.924   1.935  0.1465 -0.4692  0.8737
    2CHTO   O51  585   4.436   5.705   1.469  0.6363  0.4895 -0.1463
    2CHTO   C78  586   4.516   5.643   1.561  0.3564 -0.0916  0.3843
    2CHTO  H150  587   4.473   5.663   1.661  0.7602 -0.8238  0.7097
    2CHTO   C80  588   4.660   5.707   1.557  0.4802  0.5958 -0.6243
    2CHTO  H152  589   4.699   5.684   1.456 -0.5930  1.0190 -1.1320
    2CHTO   O55  590   4.653   5.852   1.577  0.1600  0.3744  0.4821
    2CHTO  H134  591   4.742   5.876   1.564  0.1998  0.9384  1.7210
    2CHTO   C84  592   4.762   5.645   1.664  0.2766 -0.2605 -0.3499
    2CHTO  H156  593   4.720   5.674   1.760 -1.2536  1.4220 -1.4787
    2CHTO   N15  594   4.902   5.697   1.641 -0.3455  0.4863  0.0227
    2CHTO  H143  595   4.952   5.631   1.573  0.7376 -2.0981  3.2088
    2CHTO  H144  596   4.953   5.683   1.734 -0.3299 -3.1754 -0.4540
    2CHTO   C87  597   4.750   5.489   1.655 -0.0849  0.1319 -0.0627
    2CHTO  H159  598   4.821   5.453   1.581 -0.5047  0.8909 -0.8521
    2CHTO   O53  599   4.613   5.434   1.636 -0.2809 -0.2347  0.3246
    2CHTO   C82  600   4.535   5.492   1.530  0.1024 -0.6664  0.2700
    2CHTO  H154  601   4.588   5.475   1.436  3.3587  3.2107  1.2517
    2CHTO   C89  602   4.403   5.415   1.527  0.9838 -0.1307 -0.5799
    2CHTO   O59  603   4.414   5.285   1.466  0.0298 -0.6173  0.1138
    2CHTO  H137  604   4.329   5.245   1.469 -0.2049 -0.1926 -0.6525
    2CHTO   O45  605   4.815   5.432   1.788 -0.0379  0.1838 -0.0103
    2CHTO   C67  606   4.737   5.345   1.868 -0.3956 -0.2238 -0.5297
    2CHTO  H124  607   4.635   5.384   1.871 -0.0781  0.5828  0.0951
    2CHTO   C65  608   4.733   5.196   1.816 -0.3640 -0.6542  0.5239
    2CHTO  H122  609   4.806   5.189   1.735 -3.4875 -1.7426 -2.3190
    2CHTO   O44  610   4.606   5.185   1.752  0.3429 -0.0853  0.5847
    2CHTO  H102  611   4.534   5.186   1.812 -0.3397  1.1330 -0.2233
    2CHTO   C63  612   4.787   5.089   1.915  0.1631 -0.1903  0.1150
    2CHTO  H120  613   4.891   5.114   1.935  0.0699 -0.8346  1.4146
    2CHTO   N11  614   4.779   4.952   1.863 -0.2670  0.1671  0.1304
    2CHTO  H108  615   4.876   4.937   1.820  0.6980 -0.6287  2.5013
    2CHTO  H109  616   4.751   4.886   1.943  1.3925 -0.3107  0.3336
    2CHTO   C61  617   4.704   5.119   2.043 -0.4032 -0.2191  0.6231
    2CHTO  H118  618   4.738   5.051   2.123 -3.1567  0.0958  2.1168
    2CHTO   O40  619   4.716   5.251   2.102  0.3647  0.2148  0.1057
    2CHTO   C68  620   4.786   5.351   2.018  0.1539  0.3878 -0.2579
    2CHTO  H125  621   4.895   5.334   2.011  0.2714  1.0820 -0.1381
    2CHTO   C72  622   4.767   5.484   2.092 -0.2180  0.0894  0.1925
    2CHTO   O48  623   4.839   5.486   2.217 -0.2559 -0.3354  0.3557
    2CHTO  H105  624   4.798   5.425   2.275  1.4468 -2.3625 -0.5117
    2CHTO   O38  625   4.569   5.102   2.009  0.3033  0.3454 -0.3376
    2CHTO   C55  626   4.468   5.109   2.110 -0.2392  0.2208  0.1903
    2CHTO  H112  627   4.501   5.189   2.178 -1.2581  1.0639 -0.2920
    2CHTO   C56  628   4.438   4.974   2.191 -0.5805  0.4922 -0.3753
    2CHTO  H113  629   4.439   4.899   2.111  0.8269 -1.2631  1.2105
    2CHTO   O42  630   4.559   4.949   2.265  0.2147 -0.0509  0.4524
    2CHTO  H100  631   4.552   4.865   2.307  2.2741  0.1804  1.2968
    2CHTO   C57  632   4.311   4.980   2.286  0.8995 -1.1779  0.3514
    2CHTO  H114  633   4.342   5.050   2.363 -0.3377 -1.9832  1.6221
    2CHTO   N10  634   4.271   4.855   2.356  0.0287  0.1417  0.1284
    2CHTO  H106  635   4.357   4.794   2.378 -0.4009 -0.6141 -0.2683
    2CHTO  H107  636   4.216   4.883   2.444  1.9654 -0.0404  1.4296
    2CHTO   C58  637   4.188   5.045   2.210  0.6729  0.9073 -0.4243
    2CHTO  H115  638   4.139   4.975   2.138 -0.0161  0.1307  0.7694
    2CHTO   O37  639   4.221   5.165   2.138 -0.4898  0.1560  0.0862
    2CHTO   C59  640   4.328   5.157   2.040 -0.1364  0.4901 -0.6193
    2CHTO  H116  641   4.305   5.090   1.956  0.5332  1.8603 -1.9109
    2CHTO   C70  642   4.347   5.298   1.988  0.4428  0.1345 -0.0810
    2CHTO   O46  643   4.227   5.330   1.916 -0.0582  0.1656  0.0249
    2CHTO  H103  644   4.157   5.370   1.964 -0.0037 -0.5662  0.7422
    2CHTO   O39  645   4.074   5.085   2.325  0.0515  0.4154  0.0508
    2CHTO   C60  646   3.951   5.156   2.284 -0.9125  0.4113  0.1236
    2CHTO  H117  647   3.938   5.158   2.176 -0.4856  0.3132  0.0662
    2CHTO   C62  648   3.822   5.085   2.342 -0.5905 -0.3125 -0.1568
    2CHTO  H119  649   3.815   4.983   2.299 -2.2176 -0.8298  1.2915
    2CHTO   O43  650   3.836   5.070   2.482 -0.1398  0.1631  0.1480
    2CHTO  H101  651   3.866   4.982   2.496 -0.8300 -0.1516 -0.3184
    2CHTO   C66  652   3.686   5.147   2.290  0.3224 -0.0533 -0.3986
    2CHTO  H123  653   3.697   5.162   2.183 -0.6610  1.5431 -0.2895
    2CHTO   N12  654   3.567   5.065   2.318  0.0567  0.1573  0.3292
    2CHTO  H110  655   3.547   4.979   2.255  0.1013  1.8530 -2.0795
    2CHTO  H111  656   3.481   5.131   2.319 -0.7705 -0.9178  1.4852
    2CHTO   C69  657   3.680   5.291   2.345 -0.5399 -0.8507 -0.0612
    2CHTO  H126  658   3.669   5.296   2.456 -0.7824  0.5909 -0.1399
    2CHTO   O41  659   3.818   5.372   2.304 -0.0601  0.0269 -0.1258
    2CHTO   C64  660   3.947   5.304   2.335  0.9353  0.0238  0.2931
    2CHTO  H121  661   3.962   5.306   2.445  0.7568 -1.5241  0.3466
    2CHTO   C71  662   4.069   5.386   2.275  0.2598  0.4260 -0.2865
    2CHTO   O47  663   4.054   5.408   2.132 -0.4080 -0.0830 -0.1091
    2CHTO  H104  664   4.023   5.325   2.102  1.7988 -1.0197  0.1240
    2CHTO   O34  665   3.537   5.371   2.284  0.7824  0.1277  0.0774
    2CHTO   C49  666   3.533   5.507   2.308  0.5476  0.5358  0.3406
    2CHTO   H91  667   3.637   5.528   2.335  0.3075  1.4791  0.5474
    2CHTO   C47  668   3.442   5.543   2.430  0.2611  0.0330  0.1344
    2CHTO   H89  669   3.467   5.649   2.448  0.3776 -0.4275  2.8248
    2CHTO   O33  670   3.477   5.464   2.546  0.2274  0.5133  0.3990
    2CHTO   H70  671   3.439   5.381   2.524  0.3126  1.0679 -1.9590
    2CHTO   C45  672   3.286   5.532   2.383 -0.1867  0.0210  0.2703
    2CHTO   H87  673   3.271   5.429   2.347  2.2532 -0.2722 -0.0043
    2CHTO    N8  674   3.187   5.555   2.496  0.1081  0.1597 -0.1076
    2CHTO   H75  675   3.212   5.483   2.573 -0.4515  0.5316  0.4254
    2CHTO   H76  676   3.220   5.646   2.544 -0.8774 -0.6506  2.1435
    2CHTO   C43  677   3.259   5.628   2.254  0.7534  0.1476  0.3316
    2CHTO   H85  678   3.155   5.630   2.222  1.1574  0.7875 -1.0042
    2CHTO   O29  679   3.345   5.589   2.146 -0.0097 -0.4096 -0.5689
    2CHTO   C50  680   3.488   5.579   2.177  0.6989  0.3874 -0.3695
    2CHTO   H92  681   3.519   5.528   2.085  0.5533 -1.4466  0.5684
    2CHTO   C54  682   3.571   5.712   2.151  0.1894  0.4153 -0.6927
    2CHTO   O36  683   3.699   5.732   2.205 -0.0329 -0.0288  0.2800
    2CHTO   H72  684   3.704   5.826   2.202  1.1841 -0.1142 -0.6242
    2CHTO   O27  685   3.281   5.769   2.276  0.1994  0.2549  0.1388
    2CHTO   C37  686   3.242   5.890   2.211 -0.4771  0.6767  0.1751
    2CHTO   H79  687   3.293   5.904   2.115 -0.0667  0.3990  0.3519
    2CHTO   C38  688   3.090   5.899   2.180 -0.7702 -0.6493 -0.6598
    2CHTO   H80  689   3.028   5.874   2.267 -2.7627 -1.4251 -2.2607
    2CHTO   O31  690   3.061   5.812   2.073 -0.1459  0.6969 -0.3685
    2CHTO   H68  691   3.059   5.721   2.098 -1.0070  0.1001 -2.5277
    2CHTO   C39  692   3.045   6.049   2.143  0.2585 -0.1440  0.2225
    2CHTO   H81  693   3.089   6.081   2.048  1.7194 -1.8324  0.3154
    2CHTO    N7  694   2.894   6.066   2.124  0.2839  0.1403 -0.3083
    2CHTO   H73  695   2.869   6.162   2.082 -2.7752 -0.3470  0.2974
    2CHTO   H74  696   2.857   5.975   2.080  1.0465 -1.2979  1.9475
    2CHTO   C40  697   3.099   6.148   2.246  0.4717 -0.4049 -0.1129
    2CHTO   H82  698   3.042   6.129   2.336  1.4531 -2.8779  0.0334
    2CHTO   O26  699   3.240   6.128   2.262 -0.1708  0.3524  0.1458
    2CHTO   C41  700   3.283   6.003   2.312  0.3008  0.0880 -0.8371
    2CHTO   H83  701   3.227   6.001   2.406 -1.2868  3.1874 -1.6534
    2CHTO   C52  702   3.437   6.025   2.325  0.6134  0.6535 -0.0299
    2CHTO   O35  703   3.500   5.953   2.426 -0.1017 -0.1684  0.7245
    2CHTO   H71  704   3.492   5.986   2.513  0.0814  1.3887  0.1659
    2CHTO   O28  705   3.083   6.285   2.199  0.4652  0.5721 -0.1485
    2CHTO   C42  706   3.104   6.401   2.287  0.1040  0.5644  0.5602
    2CHTO   H84  707   3.083   6.486   2.222  0.2828  2.0810  2.4437
    2CHTO   C44  708   3.244   6.423   2.353  0.7399  0.5642  0.0042
    2CHTO   H86  709   3.264   6.342   2.423  1.7438  0.5882 -0.2412
    2CHTO   O32  710   3.342   6.420   2.252  0.0869  0.3488 -0.2459
    2CHTO   H69  711   3.374   6.502   2.221  1.2960  0.5457  1.4607
    2CHTO   C48  712   3.248   6.559   2.445 -0.7788 -0.0474  0.5672
    2CHTO   H90  713   3.236   6.639   2.372 -1.7078  0.6570  1.4925
    2CHTO    N9  714   3.379   6.587   2.516 -0.2915 -0.2717  0.2306
    2CHTO   H77  715   3.438   6.671   2.483 -0.7685  0.8531  2.1753
    2CHTO   H78  716   3.442   6.502   2.536  0.5665  0.7154  1.7740
    2CHTO   C51  717   3.134   6.546   2.552  0.4027  0.5263  0.2794
    2CHTO   H93  718   3.150   6.458   2.613 -2.2082 -0.9292 -1.0634
    2CHTO   O30  719   3.012   6.539   2.478 -0.3767  0.6778  0.4032
    2CHTO   C46  720   2.993   6.407   2.397 -0.5975 -0.0111  0.7117
    2CHTO   H88  721   3.004   6.327   2.471  0.1470  0.9923  1.7175
    2CHTO   C53  722   2.847   6.422   2.329  0.6832  0.1079 -0.6155
    2CHTO   O72  723   2.741   6.410   2.429 -0.4905  0.0565 -0.3374
    2CHTO  H199  724   2.657   6.390   2.393 -0.8371  1.4643 -0.3100
    2CHTO   O22  725   3.110   6.657   2.638 -0.0341  0.1498  0.8048
    2CHTO   C31  726   3.051   6.630   2.771  0.2270 -0.5527 -0.5106
    2CHTO   H59  727   3.006   6.727   2.801 -0.4678 -0.2176 -2.5361
    2CHTO   C29  728   2.932   6.532   2.775  0.2313 -0.4701  0.3599
    2CHTO   H57  729   2.959   6.443   2.716  0.1795 -1.4257  1.7516
    2CHTO   O21  730   2.819   6.584   2.710  0.2446  1.1683  0.0099
    2CHTO   H37  731   2.838   6.583   2.618 -1.0083 -2.5987 -0.2891
    2CHTO   C27  732   2.895   6.494   2.924 -0.8763  0.1798 -0.3581
    2CHTO   H55  733   2.843   6.580   2.969 -1.2617  0.7553 -1.8820
    2CHTO    N5  734   2.800   6.374   2.922  0.2383 -0.1216 -0.3280
    2CHTO   H43  735   2.828   6.301   2.996  1.0717 -0.4897 -1.0041
    2CHTO   H44  736   2.697   6.404   2.929  0.8557  2.7030 -2.4375
    2CHTO   C25  737   3.018   6.460   3.017 -0.7052  0.2415 -0.3746
    2CHTO   H53  738   3.068   6.377   2.965  1.0335  1.1409 -0.1653
    2CHTO   O17  739   3.115   6.573   3.008  0.0652 -0.2170 -0.0767
    2CHTO   C32  740   3.161   6.596   2.873  0.0391 -0.2463  0.0851
    2CHTO   H60  741   3.213   6.507   2.838 -0.1391 -0.1152 -0.5136
    2CHTO   C36  742   3.266   6.716   2.876  0.0052  0.0990 -0.2391
    2CHTO   O25  743   3.370   6.674   2.962  0.0839 -0.3920  0.1883
    2CHTO   H40  744   3.428   6.613   2.921  0.2204  0.3073 -0.6782
    2CHTO   O15  745   2.987   6.438   3.161 -0.1609 -0.2468 -0.0710
    2CHTO   C19  746   2.947   6.313   3.224 -0.3314 -0.0123  0.5888
    2CHTO   H47  747   2.844   6.307   3.187  0.6508 -0.6405 -2.1265
    2CHTO   C20  748   3.024   6.184   3.180  0.3045 -0.2893  0.2494
    2CHTO   H48  749   3.132   6.205   3.170  0.0232  1.5384  0.8728
    2CHTO   O19  750   2.973   6.141   3.055  0.2026  0.1006  0.0225
    2CHTO   H35  751   3.042   6.088   3.019 -0.6861  1.1036 -3.3418
    2CHTO   C21  752   3.013   6.062   3.274 -0.4565 -0.9010  0.5340
    2CHTO   H49  753   2.915   6.017   3.258 -0.0805 -1.3960 -0.4468
    2CHTO    N4  754   3.122   5.962   3.255 -0.7599  0.8902  0.1579
    2CHTO   H41  755   3.216   6.005   3.284 -0.6559 -0.3035  1.6562
    2CHTO   H42  756   3.124   5.928   3.153  1.6758  0.3498  0.3711
    2CHTO   C22  757   3.003   6.108   3.425  0.5223  0.7604  0.0784
    2CHTO   H50  758   3.095   6.159   3.455  1.2549 -0.9322  0.7326
    2CHTO   O14  759   2.892   6.205   3.430 -0.4791 -0.3694 -0.1754
    2CHTO   C23  760   2.934   6.331   3.378 -1.0587 -0.1490  0.7413
    2CHTO   H51  761   3.030   6.359   3.424 -0.6756 -0.7574  0.3175
    2CHTO   C34  762   2.822   6.426   3.421  0.0297 -0.1039  0.1346
    2CHTO   O23  763   2.805   6.444   3.566  0.1386  0.7022  0.4750
    2CHTO   H38  764   2.753   6.372   3.598  1.3459 -0.0760  0.6965
    2CHTO   O16  765   2.972   5.998   3.513  0.2447 -0.0592  0.7189
    2CHTO   C24  766   2.995   6.046   3.666 -0.0972 -0.0571 -0.6371
    2CHTO   H52  767   3.026   6.150   3.676 -0.4601 -0.1308  1.6290
    2CHTO   C26  768   3.105   5.955   3.719  0.3884  0.1312 -0.3182
    2CHTO   H54  769   3.064   5.851   3.718  0.0132  0.2760  0.0179
    2CHTO   O20  770   3.221   5.972   3.631 -0.1994 -0.3906  0.0207
    2CHTO   H36  771   3.297   5.955   3.684  0.0399 -1.1299 -0.5525
    2CHTO   C30  772   3.136   5.995   3.867 -0.7957 -0.0347 -0.7803
    2CHTO   H58  773   3.165   6.101   3.877 -0.8939  0.0718 -1.5552
    2CHTO    N6  774   3.261   5.918   3.915  0.2424 -0.1867 -0.6350
    2CHTO   H45  775   3.343   5.976   3.956 -1.1168  1.1641  0.2093
    2CHTO   H46  776   3.243   5.839   3.986 -1.1119  2.1194  1.6595
    2CHTO   C33  777   3.010   5.982   3.947  0.5479  0.6989  0.2221
    2CHTO   H61  778   2.970   5.880   3.948 -1.5528  1.4669 -1.2267
    2CHTO   O18  779   2.904   6.061   3.890 -0.0508  0.1162 -0.0766
    2CHTO   C28  780   2.866   6.025   3.753 -1.0576  0.7573 -1.2588
    2CHTO   H56  781   2.827   5.924   3.742  0.0643 -0.0149  1.2284
    2CHTO   C35  782   2.755   6.119   3.706  0.3766  0.3262 -0.4194
    2CHTO   O24  783   2.685   6.068   3.592 -1.2917 -0.5471 -0.2188
    2CHTO   H39  784   2.740   6.084   3.517 -0.5958 -2.8402 -0.2343
    2CHTO    O9  785   3.041   6.014   4.082  0.2120 -0.2818 -0.2995
    2CHTO   C13  786   2.958   6.136   4.153 -0.3094 -0.7950  0.2041
    2CHTO   H26  787   2.849   6.115   4.148 -0.8331  2.0457 -1.6355
    2CHTO   C11  788   2.996   6.280   4.096 -0.5474 -0.2057 -0.2289
    2CHTO   H24  789   2.958   6.290   3.993 -1.6336 -1.4146  0.0509
    2CHTO    O8  790   3.137   6.299   4.094  0.4959 -0.2047 -0.1596
    2CHTO    H3  791   3.183   6.269   4.019  0.5389 -3.1417  0.9885
    2CHTO    C9  792   2.916   6.383   4.175 -0.2440 -0.3636  0.1819
    2CHTO   H22  793   2.814   6.342   4.170 -0.2809 -0.2059 -0.3958
    2CHTO    N2  794   2.910   6.519   4.109 -0.1043  0.2932 -0.4610
    2CHTO   H10  795   2.848   6.524   4.020 -1.7529 -1.5510  0.5438
    2CHTO   H11  796   2.888   6.600   4.176  0.0824 -2.2564  2.8037
    2CHTO    C7  797   2.960   6.376   4.328 -0.1778  0.2271 -0.3508
    2CHTO   H20  798   2.870   6.377   4.394 -0.3433 -0.9120 -0.5498
    2CHTO    O4  799   3.038   6.258   4.358  0.5675  0.3816  0.2658
    2CHTO   C14  800   2.991   6.129   4.307  0.4018 -0.2301 -0.0168
    2CHTO   H27  801   2.898   6.104   4.362 -0.2326 -0.9353 -1.4111
    2CHTO   C18  802   3.093   6.019   4.351 -0.0483  0.3406 -0.0076
    2CHTO   O13  803   3.224   6.028   4.299 -0.5108 -0.0202  0.2975
    2CHTO    H7  804   3.281   5.971   4.347  1.7003  0.2264 -1.9629
    2CHTO    O2  805   3.049   6.491   4.355  0.0047 -0.3341 -0.0633
    2CHTO    C1  806   3.092   6.520   4.490 -0.9988  0.6203  0.1460
    2CHTO   H14  807   3.078   6.428   4.551 -0.4298  0.1347 -0.4482
    2CHTO    C2  808   2.999   6.637   4.547 -0.6372  0.2456  0.4302
    2CHTO   H15  809   2.983   6.695   4.455 -0.5312 -0.7635 -0.2403
    2CHTO    O6  810   2.871   6.601   4.593  0.7732  0.3686 -0.1440
    2CHTO    H1  811   2.843   6.522   4.549  1.6113 -1.7688  3.0168
    2CHTO    C3  812   3.075   6.728   4.655 -0.0839 -0.1043  0.3605
    2CHTO   H16  813   3.059   6.690   4.757  1.3527 -2.8425 -0.3848
    2CHTO    N1  814   3.001   6.865   4.663  0.1236 -0.8724  0.2447
    2CHTO    H8  815   3.075   6.943   4.651 -2.6017  1.9099  1.2215
    2CHTO    H9  816   2.946   6.886   4.753 -0.8020 -1.6541 -0.1299
    2CHTO    C4  817   3.228   6.739   4.630  0.0369  0.6379 -0.2887
    2CHTO   H17  818   3.238   6.802   4.542 -1.3548 -1.0304 -1.6891
    2CHTO    O1  819   3.283   6.614   4.598 -0.0399  0.0883 -0.4445
    2CHTO    C5  820   3.245   6.545   4.482  0.3197  0.7821 -0.4470
    2CHTO   H18  821   3.259   6.599   4.388 -0.5863 -0.7978 -1.5213
    2CHTO   C16  822   3.330   6.419   4.471 -0.0683 -0.4523  0.1659
    2CHTO   O11  823   3.316   6.338   4.350 -0.7566 -0.0733  0.4468
    2CHTO    H5  824   3.274   6.260   4.380 -3.5100  0.3532 -2.0647
    2CHTO    O3  825   3.299   6.780   4.748 -0.2881  0.3690 -0.4535
    2CHTO    C6  826   3.389   6.901   4.720 -0.0346  0.4978  0.5330
    2CHTO   H19  827   3.441   6.894   4.625 -0.2309  1.3783  0.3579
    2CHTO    C8  828   3.298   7.036   4.716 -0.6365 -0.5615  0.4349
    2CHTO   H21  829   3.216   7.027   4.788 -1.3282  2.4776  0.0851
    2CHTO    O7  830   3.245   7.033   4.584 -0.3666  0.2743 -0.0402
    2CHTO    H2  831   3.166   6.983   4.580  1.2588 -2.3287 -0.7055
    2CHTO   C12  832   3.385   7.166   4.737 -0.6297 -0.0908  0.0228
    2CHTO   H25  833   3.430   7.198   4.641 -1.0073  0.6258  0.0793
    2CHTO    N3  834   3.286   7.280   4.763 -0.3760  0.0905 -0.1101
    2CHTO   H12  835   3.233   7.259   4.854  0.3017 -0.6268  0.1249
    2CHTO   H13  836   3.342   7.367   4.795 -0.8153  0.1308  0.5458
    2CHTO   C15  837   3.498   7.139   4.843  0.3902  0.0580  0.0026
    2CHTO   H28  838   3.439   7.125   4.933 -0.8669 -2.4424 -1.1361
    2CHTO   O10  839   3.597   7.267   4.862 -0.2686  0.8581 -0.0311
    2CHTO    H4  840   3.650   7.277   4.786  0.3220 -1.0442  0.1268
    2CHTO    O5  841   3.578   7.030   4.815 -0.7409  0.2359  0.1689
    2CHTO   C10  842   3.506   6.905   4.831 -0.2136  0.2926 -0.2889
    2CHTO   H23  843   3.462   6.903   4.931 -0.5818 -0.8980 -0.4714
    2CHTO   C17  844   3.618   6.797   4.816 -0.1760  0.0851 -0.2143
    2CHTO   O12  845   3.557   6.667   4.837  0.7273  0.2607 -0.6953
    2CHTO    H6  846   3.545   6.623   4.755  1.2200  0.2165 -0.7418
    3CHTO  H203  847   7.890   0.631   0.851 -1.3913 -0.0683 -1.8770
    3CHTO   O82  848   7.835   0.690   0.900  0.0971 -0.2227  0.0191
    3CHTO  C123  849   7.733   0.617   0.971 -0.4503 -0.8438  0.1366
    3CHTO  H227  850   7.780   0.545   1.039  1.0376  1.0237  1.1405
    3CHTO   O77  851   7.684   0.734   1.056  0.5199 -0.0334  0.7056
    3CHTO  C118  852   7.589   0.692   1.147 -0.4430  0.0268  0.3326
    3CHTO  H222  853   7.635   0.614   1.210  3.1195  2.8030  1.3382
    3CHTO  C125  854   7.547   0.805   1.239 -1.0348 -0.1030  0.0096
    3CHTO   O84  855   7.643   0.820   1.349  0.1551 -0.6212 -0.6700
    3CHTO  H205  856   7.633   0.894   1.407 -0.2327 -2.0799  1.1585
    3CHTO  C114  857   7.464   0.639   1.070  0.1969  0.0769 -0.3595
    3CHTO  H218  858   7.420   0.722   1.015 -0.1244 -0.3747 -0.7873
    3CHTO  C116  859   7.503   0.525   0.966 -0.0332  0.7730 -0.3511
    3CHTO  H220  860   7.536   0.432   1.016 -0.6958 -0.7949 -2.7413
    3CHTO   O79  861   7.388   0.481   0.890 -0.1555  0.5422 -0.0117
    3CHTO  H201  862   7.324   0.427   0.932  1.6364 -1.3766  0.3287
    3CHTO  C120  863   7.621   0.579   0.879  0.0609  0.0007  0.2671
    3CHTO  H224  864   7.593   0.664   0.814 -1.5220  0.2553  1.2476
    3CHTO   N21  865   7.668   0.472   0.785  0.1132 -0.1286 -0.3305
    3CHTO  H211  866   7.728   0.512   0.705 -0.4322  1.2858 -0.0534
    3CHTO  H212  867   7.708   0.386   0.837  0.6338 -0.7615 -1.7529
    3CHTO   O75  868   7.380   0.598   1.172 -0.4042  0.2250 -0.9233
    3CHTO  C112  869   7.217   0.603   1.135  0.4843  0.1132  0.1145
    3CHTO  H216  870   7.205   0.582   1.027  1.4427  1.1329 -0.1938
    3CHTO   O73  871   7.174   0.733   1.170 -0.5682  0.0708  0.2051
    3CHTO  C113  872   7.041   0.754   1.134  0.1271  0.1230  0.1747
    3CHTO  H217  873   7.037   0.728   1.026 -0.5839 -0.5071  0.3492
    3CHTO  C124  874   7.017   0.904   1.148 -0.1901 -0.0875  0.3355
    3CHTO   O83  875   7.057   0.988   1.038 -0.0856  0.0811  0.1320
    3CHTO  H204  876   7.011   0.966   0.960  0.3985  1.2206 -0.4828
    3CHTO  C109  877   6.941   0.678   1.214  0.2680  0.0410 -0.5767
    3CHTO  H213  878   6.949   0.719   1.316  0.1735  0.3638 -0.6970
    3CHTO  C110  879   6.983   0.527   1.211 -0.2424  1.0121 -0.0405
    3CHTO  H214  880   6.937   0.487   1.121  1.8735 -1.4310 -0.0833
    3CHTO   O78  881   6.922   0.464   1.329 -0.6342 -0.3577 -0.1473
    3CHTO  H200  882   6.837   0.433   1.305 -1.3184  2.6748 -1.8810
    3CHTO  C111  883   7.135   0.498   1.224  0.5532  0.3128  0.0292
    3CHTO  H215  884   7.166   0.506   1.329 -2.4034 -1.4240  1.0821
    3CHTO   N19  885   7.172   0.364   1.178 -0.9482 -0.6611  0.1535
    3CHTO  H207  886   7.110   0.290   1.227 -0.7325 -0.6226  0.4848
    3CHTO  H208  887   7.275   0.333   1.179 -1.9440 -4.0957  2.0861
    3CHTO   O74  888   6.806   0.708   1.166 -0.0529  0.0228  0.0769
    3CHTO  C115  889   6.693   0.700   1.282 -0.1444 -0.5337  0.1851
    3CHTO  H219  890   6.733   0.643   1.366  2.4382  1.0887  0.1143
    3CHTO   O76  891   6.673   0.834   1.342  0.5492 -0.5829  0.0999
    3CHTO  C122  892   6.555   0.858   1.423 -0.4485 -0.0913  0.0068
    3CHTO  H226  893   6.554   0.966   1.437  0.6738 -0.1938  0.9601
    3CHTO  C126  894   6.579   0.804   1.563 -0.1983 -0.0978  0.6758
    3CHTO   O85  895   6.473   0.764   1.646 -0.0305 -0.3840  0.4725
    3CHTO  H206  896   6.493   0.679   1.681  4.1098  0.4211  0.3377
    3CHTO  C121  897   6.418   0.812   1.346  0.2638 -0.3254 -0.3606
    3CHTO  H225  898   6.330   0.817   1.413  0.1975 -0.6791 -0.4235
    3CHTO   O81  899   6.384   0.912   1.250 -0.1084 -0.3808  0.0225
    3CHTO  H202  900   6.319   0.876   1.193  0.6580 -0.2025 -0.9689
    3CHTO  C119  901   6.434   0.666   1.298  0.0518  0.3200  0.0968
    3CHTO  H223  902   6.443   0.615   1.393 -0.3737  0.3402  0.1481
    3CHTO  C117  903   6.561   0.637   1.223 -1.0771  0.3966 -0.3233
    3CHTO  H221  904   6.560   0.670   1.119  0.8834 -1.5359 -0.9738
    3CHTO   N20  905   6.581   0.489   1.217  0.1859  0.1056 -0.0836
    3CHTO  H209  906   6.501   0.449   1.155 -0.8996  1.9826  0.0683
    3CHTO  H210  907   6.559   0.452   1.316 -0.7327 -1.2555 -0.7767
    3CHTO   O80  908   6.294   0.598   1.230  0.5106 -0.0721 -0.1535
    3CHTO  C103  909   6.163   0.567   1.310 -0.1601 -0.0961  0.5892
    3CHTO  H190  910   6.178   0.604   1.411  1.0912  0.2875  0.2741
    3CHTO  C101  911   6.038   0.622   1.238  0.0884  0.1946 -0.0172
    3CHTO  H188  912   6.046   0.597   1.132 -0.6068 -0.1412  0.0080
    3CHTO   O68  913   6.034   0.778   1.254 -0.1050 -0.7533 -0.1515
    3CHTO  H168  914   6.117   0.807   1.221 -0.2948 -0.8092 -0.6760
    3CHTO   C99  915   5.906   0.563   1.292  0.0717 -0.6506  0.3649
    3CHTO  H186  916   5.901   0.594   1.398  1.2587 -1.4279  0.6541
    3CHTO   N17  917   5.778   0.609   1.228  0.2184 -0.1821  0.4332
    3CHTO  H174  918   5.769   0.716   1.233  2.5958  0.0933 -0.6981
    3CHTO  H175  919   5.690   0.559   1.267 -1.1930  3.2845  1.8772
    3CHTO   C97  920   5.919   0.407   1.292  0.2133  0.0920 -0.1240
    3CHTO  H184  921   5.920   0.359   1.193  1.1407 -1.0391  0.4280
    3CHTO   O64  922   6.031   0.360   1.371 -0.4734  0.4418  0.0972
    3CHTO  C104  923   6.155   0.405   1.314  0.0924 -0.0831 -0.2331
    3CHTO  H191  924   6.156   0.374   1.210  2.5006  0.0760 -0.2771
    3CHTO  C108  925   6.276   0.337   1.382 -0.7739  0.6570  0.8187
    3CHTO   O71  926   6.273   0.195   1.390  0.0197 -0.1216 -0.0364
    3CHTO  H171  927   6.291   0.165   1.303 -0.3654  0.8685 -0.4640
    3CHTO   O62  928   5.808   0.345   1.367 -0.0704 -0.2392 -0.0317
    3CHTO   C91  929   5.762   0.213   1.337 -0.6790  0.4151  0.2567
    3CHTO  H178  930   5.820   0.190   1.248  0.0349  0.1521  0.7906
    3CHTO   C92  931   5.606   0.232   1.303 -0.2774 -0.0250 -0.2360
    3CHTO  H179  932   5.549   0.276   1.386  0.7204 -0.9043  0.9275
    3CHTO   O66  933   5.593   0.312   1.184 -0.3365 -0.4971  0.5669
    3CHTO  H166  934   5.531   0.382   1.187  0.2497  0.0018  1.0631
    3CHTO   C93  935   5.538   0.092   1.278 -0.4337  0.2424  0.5354
    3CHTO  H180  936   5.572   0.055   1.180 -0.5015 -0.4880  0.7822
    3CHTO   N16  937   5.393   0.104   1.257 -0.2928 -0.2670 -0.6840
    3CHTO  H172  938   5.363   0.008   1.217  2.7196 -0.5235 -2.4542
    3CHTO  H173  939   5.347   0.133   1.350 -1.2343 -1.5885 -0.7137
    3CHTO   C94  940   5.570  -0.015   1.393  0.4568  0.1987  0.3711
    3CHTO  H181  941   5.483  -0.032   1.457 -0.8688  2.0426 -0.9065
    3CHTO   O61  942   5.665   0.032   1.492 -0.1783  0.3201  0.1364
    3CHTO   C95  943   5.785   0.099   1.443  1.2400  0.6054 -0.5362
    3CHTO  H182  944   5.839   0.138   1.529 -0.0387  0.4987  0.3147
    3CHTO  C106  945   5.886  -0.003   1.393 -0.1708 -0.0815  0.3159
    3CHTO   O69  946   5.945  -0.075   1.498 -0.0202  0.3273 -0.1943
    3CHTO  H169  947   5.940  -0.168   1.486 -0.1202  0.3562 -0.3979
    3CHTO   O63  948   5.620  -0.158   1.319 -0.2638 -0.5547 -0.8342
    3CHTO   C96  949   5.517  -0.294   1.356 -0.4888 -0.2660  0.2130
    3CHTO  H183  950   5.553  -0.372   1.288  0.5933  0.3381  0.0697
    3CHTO   C98  951   5.370  -0.264   1.321 -0.1628  0.2291  0.1637
    3CHTO  H185  952   5.334  -0.171   1.369 -1.8210  0.1358 -0.8576
    3CHTO   O67  953   5.365  -0.245   1.178  0.0763 -0.1732 -0.7108
    3CHTO  H167  954   5.444  -0.205   1.147 -0.1356 -0.4814 -1.6901
    3CHTO  C102  955   5.271  -0.388   1.354 -0.1873  0.1515  0.5908
    3CHTO  H189  956   5.284  -0.461   1.273  0.2136  0.7275  0.1348
    3CHTO   N18  957   5.127  -0.346   1.345 -0.4346 -0.5290  0.8249
    3CHTO  H176  958   5.114  -0.247   1.385  0.4588  0.8772 -2.2832
    3CHTO  H177  959   5.091  -0.346   1.244 -0.3215 -0.2047  0.7852
    3CHTO  C105  960   5.309  -0.456   1.492 -0.2996 -0.3018 -0.0484
    3CHTO  H192  961   5.269  -0.394   1.572 -0.6164  0.0896 -0.5072
    3CHTO   O65  962   5.452  -0.469   1.508  0.1956  0.1813  0.6542
    3CHTO  C100  963   5.520  -0.343   1.505 -0.1294  0.0231  0.4056
    3CHTO  H187  964   5.473  -0.266   1.568  1.4544 -0.0924  1.7576
    3CHTO  C107  965   5.663  -0.366   1.554  0.2135  0.2614  0.5147
    3CHTO   O70  966   5.672  -0.350   1.691  0.4162 -0.2168 -0.4852
    3CHTO  H170  967   5.668  -0.260   1.717 -0.9802  0.1014 -1.7823
    3CHTO   O57  968   5.232  -0.598   1.495  0.0420 -0.3975 -0.6252
    3CHTO   C85  969   5.185  -0.668   1.606 -1.3009  0.0110  0.6468
    3CHTO  H157  970   5.177  -0.771   1.566 -0.8237  0.0150  0.5385
    3CHTO   C83  971   5.035  -0.620   1.624 -0.6165  0.0149 -0.3889
    3CHTO  H155  972   4.988  -0.653   1.532  0.3755 -1.1027 -0.5050
    3CHTO   O56  973   5.025  -0.478   1.618  0.3256 -0.0463  0.3371
    3CHTO  H135  974   5.074  -0.435   1.550 -1.9615  2.3121  0.0958
    3CHTO   C81  975   4.963  -0.684   1.746  0.0282 -0.1850 -0.4600
    3CHTO  H153  976   4.966  -0.792   1.735  0.9761 -0.1693 -0.3742
    3CHTO   N14  977   4.819  -0.657   1.751  0.2391 -0.6088 -0.6562
    3CHTO  H141  978   4.811  -0.556   1.784  1.2118 -0.7970  0.1985
    3CHTO  H142  979   4.768  -0.720   1.820 -0.2455  0.6220  0.1251
    3CHTO   C79  980   5.049  -0.644   1.876  0.2077  0.5306 -0.3007
    3CHTO  H151  981   4.995  -0.678   1.964 -1.0522  1.5733 -0.6575
    3CHTO   O52  982   5.188  -0.694   1.867 -0.2435  0.2977 -0.3316
    3CHTO   C86  983   5.262  -0.664   1.738 -0.1759  0.5619 -0.0376
    3CHTO  H158  984   5.285  -0.557   1.755  0.2251  0.4613  0.0647
    3CHTO   C90  985   5.393  -0.742   1.732 -0.0325 -0.1208 -0.1287
    3CHTO   O60  986   5.485  -0.698   1.839 -0.0598  0.0355 -0.3334
    3CHTO  H138  987   5.484  -0.758   1.911  0.2724  1.6104  0.9856
    3CHTO   O50  988   5.051  -0.502   1.894 -0.3075 -0.0255 -0.4133
    3CHTO   C73  989   5.064  -0.423   2.015  0.0777 -0.0245  0.5190
    3CHTO  H145  990   5.127  -0.479   2.085  0.4794 -2.2689 -1.5406
    3CHTO   C74  991   4.923  -0.402   2.071 -0.3139 -0.4838 -0.2443
    3CHTO  H146  992   4.878  -0.502   2.085  2.0699 -1.4096  1.1719
    3CHTO   O54  993   4.928  -0.341   2.202 -0.2170 -0.1011 -1.0261
    3CHTO  H133  994   4.971  -0.401   2.260  0.0141  1.3653  0.3728
    3CHTO   C75  995   4.841  -0.305   1.965  0.3047 -0.0935 -0.0338
    3CHTO  H147  996   4.815  -0.354   1.871  0.8042 -1.9423  0.7550
    3CHTO   N13  997   4.701  -0.278   2.014 -0.2178  0.4807 -0.2855
    3CHTO  H139  998   4.642  -0.357   2.057 -2.4987  2.7631  0.9260
    3CHTO  H140  999   4.640  -0.247   1.931 -1.1632  2.1217  0.9958
    3CHTO   C76 1000   4.931  -0.175   1.926 -0.0918  0.3048  0.7614
    3CHTO  H148 1001   4.940  -0.102   2.007 -0.2264  0.8194  0.3150
    3CHTO   O49 1002   5.067  -0.209   1.884 -0.5069 -0.2592  0.0916
    3CHTO   C77 1003   5.133  -0.287   1.983  0.2542  0.2608  0.4234
    3CHTO  H149 1004   5.140  -0.227   2.073 -0.8215  2.0938 -0.6735
    3CHTO   C88 1005   5.275  -0.295   1.937  0.1459  0.0581 -0.5880
    3CHTO   O58 1006   5.352  -0.430   2.009  0.2805 -0.8610  0.5344
    3CHTO  H136 1007   5.441  -0.425   1.980 -0.4204  0.1495 -1.4771
    3CHTO   O51 1008   4.862  -0.115   1.775 -0.2301  0.8114  0.1436
    3CHTO   C78 1009   4.906   0.028   1.755  0.1725  0.4651 -0.5772
    3CHTO  H150 1010   4.994   0.055   1.816  0.1149 -0.2882 -0.1526
    3CHTO   C80 1011   4.791   0.127   1.788  0.2816  0.1880  0.2214
    3CHTO  H152 1012   4.706   0.096   1.724  1.1086 -3.1638  0.6442
    3CHTO   O55 1013   4.755   0.103   1.926 -0.2299 -0.0866  0.4947
    3CHTO  H134 1014   4.678   0.049   1.927  0.7082 -1.4602 -0.2983
    3CHTO   C84 1015   4.829   0.271   1.761  0.1572  0.4684  0.0064
    3CHTO  H156 1016   4.914   0.290   1.826 -0.1178  0.1466  0.4602
    3CHTO   N15 1017   4.728   0.377   1.791  0.6182 -0.1656  1.0380
    3CHTO  H143 1018   4.643   0.359   1.728  1.1450  0.7482  0.0382
    3CHTO  H144 1019   4.766   0.470   1.754 -0.2661 -0.3899 -0.5190
    3CHTO   C87 1020   4.872   0.288   1.617  0.7378  0.0424  0.0806
    3CHTO  H159 1021   4.797   0.287   1.538 -0.6716 -0.4069  1.4045
    3CHTO   O53 1022   4.972   0.177   1.590 -0.4997  0.4943 -0.3809
    3CHTO   C82 1023   4.934   0.044   1.606  0.2265 -0.7781 -0.3186
    3CHTO  H154 1024   4.845   0.014   1.550  1.1786 -2.1386 -1.1499
    3CHTO   C89 1025   5.046  -0.043   1.555  0.4615 -0.1728 -0.1420
    3CHTO   O59 1026   5.050  -0.010   1.417 -0.1809  1.1601 -0.3133
    3CHTO  H137 1027   5.076  -0.084   1.366  0.4477  1.1561  0.0096
    3CHTO   O45 1028   4.946   0.436   1.587  0.2271 -0.5349 -0.1017
    3CHTO   C67 1029   5.089   0.437   1.611  0.1914  0.2694 -0.7554
    3CHTO  H124 1030   5.112   0.349   1.670  1.1207  1.5090  0.7900
    3CHTO   C65 1031   5.177   0.444   1.476 -0.4367 -0.2307  0.3607
    3CHTO  H122 1032   5.124   0.489   1.393 -2.4533  0.8079  2.1502
    3CHTO   O44 1033   5.202   0.308   1.435  0.3005 -0.2823 -0.2747
    3CHTO  H102 1034   5.287   0.272   1.448 -0.2449 -0.9038  1.6729
    3CHTO   C63 1035   5.309   0.542   1.494 -0.6469 -0.0037  0.0682
    3CHTO  H120 1036   5.272   0.644   1.498  1.0269  0.7172 -1.9378
    3CHTO   N11 1037   5.396   0.553   1.378  0.4494  0.1859 -0.4438
    3CHTO  H108 1038   5.458   0.466   1.366 -1.5126 -1.2337 -0.5919
    3CHTO  H109 1039   5.453   0.642   1.363 -0.0861  0.3448 -1.5830
    3CHTO   C61 1040   5.370   0.510   1.637  0.0207 -0.0464 -0.3029
    3CHTO  H118 1041   5.442   0.592   1.651  2.0538 -1.9638  0.8817
    3CHTO   O40 1042   5.281   0.523   1.737 -0.2308  0.0099  0.0346
    3CHTO   C68 1043   5.140   0.549   1.709 -0.6909  0.4544 -0.6715
    3CHTO  H125 1044   5.132   0.646   1.656  0.3622  0.1761 -1.3607
    3CHTO   C72 1045   5.059   0.557   1.842  0.0760  0.1639  0.2332
    3CHTO   O48 1046   5.095   0.672   1.920 -0.6223  0.1486  0.4000
    3CHTO  H105 1047   5.023   0.732   1.927  0.2495  1.3263 -0.5462
    3CHTO   O38 1048   5.428   0.379   1.640 -0.0915 -0.0269  0.2166
    3CHTO   C55 1049   5.534   0.355   1.732  0.2564 -0.5456 -0.0595
    3CHTO  H112 1050   5.519   0.423   1.816 -1.8187  1.9144 -2.3432
    3CHTO   C56 1051   5.674   0.375   1.667  0.3634  0.2368  0.4919
    3CHTO  H113 1052   5.671   0.315   1.575  0.8264  0.9773 -0.0123
    3CHTO   O42 1053   5.694   0.509   1.603  0.4185  0.2338  0.2810
    3CHTO  H100 1054   5.786   0.527   1.605  0.5768 -0.6662  1.9323
    3CHTO   C57 1055   5.786   0.339   1.773 -0.1815  0.2466 -0.4341
    3CHTO  H114 1056   5.775   0.405   1.859 -0.3378 -0.7246  0.2917
    3CHTO   N10 1057   5.925   0.339   1.713 -0.0435 -0.3444  0.0317
    3CHTO  H106 1058   5.941   0.241   1.670 -0.2786  0.0147 -0.8784
    3CHTO  H107 1059   6.000   0.358   1.788  0.8756 -0.7748 -0.7638
    3CHTO   C58 1060   5.752   0.197   1.825  0.0706  0.7561  0.0570
    3CHTO  H115 1061   5.764   0.128   1.740  2.2985 -0.4787  1.3112
    3CHTO   O37 1062   5.627   0.187   1.887 -0.0464 -0.2771 -0.2428
    3CHTO   C59 1063   5.522   0.208   1.788 -0.0863  0.0567 -0.0926
    3CHTO  H116 1064   5.524   0.139   1.704 -0.4041 -1.2788  0.9874
    3CHTO   C70 1065   5.381   0.198   1.850  0.4723  0.2199 -0.5107
    3CHTO   O46 1066   5.349   0.060   1.886  0.0385 -0.5421  0.1403
    3CHTO  H103 1067   5.259   0.067   1.912  0.1335 -1.2717  0.6790
    3CHTO   O39 1068   5.852   0.144   1.949 -0.4326 -0.0184 -0.1695
    3CHTO   C60 1069   5.948   0.042   1.904  0.0135 -0.5864 -0.3954
    3CHTO  H117 1070   5.940   0.024   1.797  0.8534  1.5908 -0.8504
    3CHTO   C62 1071   6.097   0.098   1.930  0.1306 -0.2545 -0.5858
    3CHTO  H119 1072   6.105   0.190   1.868  0.6241  0.1339  0.0435
    3CHTO   O43 1073   6.125   0.121   2.066 -0.0227 -0.0388  0.3704
    3CHTO  H101 1074   6.076   0.192   2.102  0.5340  0.4108  0.2436
    3CHTO   C66 1075   6.203  -0.004   1.861 -0.3029 -0.0801  0.5797
    3CHTO  H123 1076   6.186  -0.003   1.754  3.8021 -0.9368 -0.1693
    3CHTO   N12 1077   6.338   0.052   1.868 -0.2078 -0.1249 -0.5760
    3CHTO  H110 1078   6.412  -0.025   1.855  0.8205  1.0793 -2.0097
    3CHTO  H111 1079   6.348   0.102   1.964 -0.0834  1.2181 -1.2700
    3CHTO   C69 1080   6.174  -0.148   1.919 -0.4285 -0.1886 -0.3611
    3CHTO  H126 1081   6.206  -0.146   2.025  0.2190  1.8406 -0.5753
    3CHTO   O41 1082   6.024  -0.199   1.919  0.4167  0.4693 -0.1491
    3CHTO   C64 1083   5.922  -0.090   1.972 -0.5821  0.2361 -0.4266
    3CHTO  H121 1084   5.935  -0.076   2.081 -0.4360 -2.3959 -0.0584
    3CHTO   C71 1085   5.776  -0.132   1.935  0.3760 -0.3929 -0.2040
    3CHTO   O47 1086   5.739  -0.258   1.990  0.3966  0.0536  0.1017
    3CHTO  H104 1087   5.802  -0.321   1.960 -0.0668  0.3779 -1.6241
    3CHTO   O34 1088   6.245  -0.261   1.836 -0.1240 -0.5400  0.1478
    3CHTO   C49 1089   6.287  -0.390   1.746 -0.1461 -0.0098  1.0910
    3CHTO   H91 1090   6.340  -0.348   1.661  0.9340  0.2092  1.8698
    3CHTO   C47 1091   6.157  -0.466   1.688  0.3939  0.0750 -0.8633
    3CHTO   H89 1092   6.139  -0.415   1.591 -0.5485  0.0823 -0.6930
    3CHTO   O33 1093   6.039  -0.450   1.767 -0.1744 -0.4411  0.1197
    3CHTO   H70 1094   6.040  -0.387   1.837 -0.1828 -0.6936  0.3471
    3CHTO   C45 1095   6.189  -0.623   1.659 -0.0175  0.1351 -0.4399
    3CHTO   H87 1096   6.176  -0.681   1.752 -2.0212  1.0081 -0.1461
    3CHTO    N8 1097   6.094  -0.671   1.556 -0.1130  0.5349 -1.6573
    3CHTO   H75 1098   6.125  -0.637   1.459  0.4555  0.8183 -1.3816
    3CHTO   H76 1099   6.086  -0.779   1.561 -0.5826  0.5282 -2.4765
    3CHTO   C43 1100   6.346  -0.640   1.638 -0.0366  0.6571 -0.0739
    3CHTO   H85 1101   6.365  -0.740   1.598 -1.1436  1.0912 -1.7227
    3CHTO   O29 1102   6.410  -0.616   1.764 -0.5107  0.1951  0.4433
    3CHTO   C50 1103   6.377  -0.491   1.831  0.1690  0.0637  0.0252
    3CHTO   H92 1104   6.320  -0.513   1.922  0.1905 -0.4547 -0.0878
    3CHTO   C54 1105   6.500  -0.405   1.874 -0.4006 -0.0491 -0.2975
    3CHTO   O36 1106   6.594  -0.469   1.969  0.0380  0.4729 -0.3133
    3CHTO   H72 1107   6.666  -0.414   1.993  0.1187 -0.2966  1.2432
    3CHTO   O27 1108   6.382  -0.548   1.531  0.2441 -0.0032 -0.0188
    3CHTO   C37 1109   6.506  -0.485   1.489 -0.7782 -0.1972  0.9741
    3CHTO   H79 1110   6.549  -0.419   1.566 -2.1573  0.6537  1.0330
    3CHTO   C38 1111   6.617  -0.586   1.465  0.3557 -0.6778 -0.3996
    3CHTO   H80 1112   6.586  -0.652   1.383  1.4458  0.8107 -2.0606
    3CHTO   O31 1113   6.645  -0.647   1.592 -0.3792  0.3122 -0.6518
    3CHTO   H68 1114   6.625  -0.738   1.576  0.4463 -0.2291  1.2282
    3CHTO   C39 1115   6.751  -0.518   1.413 -0.5226 -0.1899 -0.2678
    3CHTO   H81 1116   6.780  -0.456   1.498  1.3229 -2.3457  0.7287
    3CHTO    N7 1117   6.869  -0.608   1.391  0.0360  0.5861 -0.2409
    3CHTO   H73 1118   6.832  -0.710   1.395 -2.0993  1.3918  1.4575
    3CHTO   H74 1119   6.931  -0.580   1.308 -0.3796  0.7893 -0.4829
    3CHTO   C40 1120   6.710  -0.429   1.286  0.1990 -0.4072  0.1838
    3CHTO   H82 1121   6.681  -0.494   1.204  3.4726 -1.3767 -0.2587
    3CHTO   O26 1122   6.607  -0.334   1.321  0.2402  0.3203  0.2743
    3CHTO   C41 1123   6.481  -0.398   1.357 -0.3399 -0.3365 -0.2530
    3CHTO   H83 1124   6.459  -0.457   1.266 -0.4840 -1.0058  0.2131
    3CHTO   C52 1125   6.384  -0.284   1.368  0.4437  0.4006 -0.1736
    3CHTO   O35 1126   6.255  -0.330   1.350 -0.1882 -0.6657 -0.0969
    3CHTO   H71 1127   6.198  -0.283   1.409  3.4234 -0.5291  3.5158
    3CHTO   O28 1128   6.828  -0.353   1.260 -0.3507 -0.1588 -0.3504
    3CHTO   C42 1129   6.829  -0.217   1.197  0.0766  0.4313 -0.3989
    3CHTO   H84 1130   6.934  -0.207   1.168 -0.0395  0.3295 -0.8526
    3CHTO   C44 1131   6.796  -0.096   1.291  0.1586 -0.4008 -0.8593
    3CHTO   H86 1132   6.707  -0.124   1.348 -0.2680  1.7569 -0.4258
    3CHTO   O32 1133   6.913  -0.082   1.379  0.3903  0.2118  0.6046
    3CHTO   H69 1134   6.879  -0.049   1.460 -0.4073  2.6263 -0.6802
    3CHTO   C48 1135   6.763   0.036   1.219  0.3424  0.7325  0.9091
    3CHTO   H90 1136   6.856   0.079   1.182  0.4083 -0.1249  0.0549
    3CHTO    N9 1137   6.706   0.136   1.321 -0.1454  0.3816  0.0240
    3CHTO   H77 1138   6.600   0.151   1.304 -0.2965 -2.5018 -2.0924
    3CHTO   H78 1139   6.751   0.234   1.314 -0.3320  0.3843 -1.2894
    3CHTO   C51 1140   6.665   0.012   1.099  0.1061  0.5079 -0.5367
    3CHTO   H93 1141   6.576  -0.036   1.139 -0.0668  1.4075  0.1961
    3CHTO   O30 1142   6.730  -0.068   1.001  0.1977  0.0608 -0.3378
    3CHTO   C46 1143   6.747  -0.207   1.059  0.8288  0.2631  0.1757
    3CHTO   H88 1144   6.646  -0.238   1.085  0.7673  1.6583  1.6812
    3CHTO   C53 1145   6.817  -0.298   0.950  0.2210  0.1772 -0.0852
    3CHTO   O72 1146   6.837  -0.437   0.979  0.5062  0.1269  0.1262
    3CHTO  H199 1147   6.892  -0.443   1.055  1.8416  0.3071 -0.8049
    3CHTO   O22 1148   6.625   0.133   1.030 -0.0209  0.3523  0.4962
    3CHTO   C31 1149   6.530   0.160   0.921 -0.2353 -0.8054 -0.0766
    3CHTO   H59 1150   6.503   0.060   0.881 -2.3784  0.1561 -1.1142
    3CHTO   C29 1151   6.401   0.222   0.973  0.1619  0.1819 -0.4019
    3CHTO   H57 1152   6.426   0.323   1.009  0.8210 -0.4187  0.8660
    3CHTO   O21 1153   6.351   0.152   1.091 -0.1644 -0.3220  0.5036
    3CHTO   H37 1154   6.334   0.215   1.157  1.6104  2.0058 -1.1826
    3CHTO   C27 1155   6.302   0.221   0.854  0.1437  0.1952  0.4340
    3CHTO   H55 1156   6.283   0.117   0.824  0.1942  0.2880  0.0883
    3CHTO    N5 1157   6.166   0.277   0.886 -0.8462  0.2562 -0.3468
    3CHTO   H43 1158   6.134   0.217   0.970  0.3148 -0.1257 -0.1632
    3CHTO   H44 1159   6.174   0.382   0.911  2.0181 -0.0456  0.1773
    3CHTO   C25 1160   6.369   0.294   0.734  0.6007 -0.6617 -0.3873
    3CHTO   H53 1161   6.370   0.401   0.759 -1.0173 -0.8178  0.4092
    3CHTO   O17 1162   6.496   0.240   0.701 -0.8931  0.3926  0.0504
    3CHTO   C32 1163   6.590   0.241   0.810  0.2616 -0.0191  0.5106
    3CHTO   H60 1164   6.612   0.344   0.839 -0.5929 -0.1030  1.4784
    3CHTO   C36 1165   6.713   0.180   0.756 -0.0162  0.5152 -0.7447
    3CHTO   O25 1166   6.831   0.221   0.828 -0.0339  0.1319  0.1304
    3CHTO   H40 1167   6.884   0.292   0.798  2.8280 -1.7436  0.5264
    3CHTO   O15 1168   6.275   0.270   0.605 -0.3042 -0.1347  0.3511
    3CHTO   C19 1169   6.230   0.369   0.497 -0.1375  0.7376  0.3142
    3CHTO   H47 1170   6.171   0.309   0.426 -0.2416  0.0938  0.9377
    3CHTO   C20 1171   6.150   0.493   0.557 -0.6737  0.1368  0.5454
    3CHTO   H48 1172   6.206   0.538   0.639  0.7920 -1.8657  0.6679
    3CHTO   O19 1173   6.031   0.438   0.608  0.1581 -0.1903 -0.4894
    3CHTO   H35 1174   5.979   0.396   0.542 -0.7801 -0.1817  0.2202
    3CHTO   C21 1175   6.125   0.606   0.445  0.6392  0.0072 -0.6517
    3CHTO   H49 1176   6.052   0.568   0.373 -0.3660 -0.9415  0.8261
    3CHTO    N4 1177   6.076   0.732   0.514  0.3646  0.0673 -0.3869
    3CHTO   H41 1178   6.159   0.766   0.574  1.4505  0.1120 -1.8932
    3CHTO   H42 1179   6.000   0.695   0.582  2.0498  1.7510  2.5442
    3CHTO   C22 1180   6.257   0.630   0.368  0.2706 -0.2618 -0.2482
    3CHTO   H50 1181   6.321   0.675   0.443  0.1828  2.1969 -1.5892
    3CHTO   O14 1182   6.317   0.507   0.315 -0.0233  0.0504 -0.3718
    3CHTO   C23 1183   6.347   0.417   0.422  0.0189  0.2864 -0.7077
    3CHTO   H51 1184   6.420   0.469   0.485 -2.4345  1.4440  1.2905
    3CHTO   C34 1185   6.422   0.296   0.370 -0.1487 -0.3003 -0.4662
    3CHTO   O23 1186   6.562   0.310   0.363 -0.0657 -0.6078 -0.1339
    3CHTO   H38 1187   6.589   0.323   0.274  0.5407 -0.1618  0.1126
    3CHTO   O16 1188   6.234   0.722   0.259  0.0408  0.0539 -0.0264
    3CHTO   C24 1189   6.350   0.825   0.237  0.3449 -0.0485  0.6397
    3CHTO   H52 1190   6.424   0.820   0.317  2.6710 -1.8366 -1.5732
    3CHTO   C26 1191   6.294   0.969   0.226 -0.4953  0.9058  0.6209
    3CHTO   H54 1192   6.215   0.970   0.148  1.5182 -0.3165 -1.4908
    3CHTO   O20 1193   6.242   1.003   0.356 -0.0910 -0.4863 -0.9023
    3CHTO   H36 1194   6.308   0.995   0.423  2.5649  0.6028 -3.3005
    3CHTO   C30 1195   6.403   1.072   0.184 -0.7566 -0.1114  0.0291
    3CHTO   H58 1196   6.478   1.091   0.263 -0.7944 -1.1161  0.3160
    3CHTO    N6 1197   6.328   1.200   0.169 -0.5172  0.1192 -0.3166
    3CHTO   H45 1198   6.393   1.280   0.203 -0.0325 -0.7915  0.9337
    3CHTO   H46 1199   6.299   1.219   0.067 -1.1277  1.7434  0.1390
    3CHTO   C33 1200   6.477   1.029   0.058 -0.9809 -0.1967 -0.3228
    3CHTO   H61 1201   6.398   1.036  -0.019 -0.3600  0.5811 -0.9100
    3CHTO   O18 1202   6.523   0.893   0.065 -0.1187  0.0193  0.0158
    3CHTO   C28 1203   6.426   0.795   0.104 -0.1222  0.5333 -0.5363
    3CHTO   H56 1204   6.353   0.783   0.024 -1.8275  0.3693  1.0329
    3CHTO   C35 1205   6.495   0.652   0.104 -0.0807  0.1483  0.3799
    3CHTO   O24 1206   6.593   0.636   0.208 -0.1126 -0.8978 -0.0949
    3CHTO   H39 1207   6.608   0.547   0.233  1.0109 -0.9282 -0.8754
    3CHTO    O9 1208   6.582   1.120   0.011 -0.0159 -0.6608  0.6277
    3CHTO   C13 1209   6.705   1.131   0.112 -0.0924  0.2567 -0.1828
    3CHTO   H26 1210   6.683   1.066   0.200 -1.8989  0.2015 -0.6584
    3CHTO   C11 1211   6.739   1.277   0.150 -0.8684  0.6405 -0.6966
    3CHTO   H24 1212   6.651   1.326   0.195 -2.0769 -1.9149 -0.1715
    3CHTO    O8 1213   6.765   1.339   0.030 -0.0199  0.3657 -0.2355
    3CHTO    H3 1214   6.712   1.411   0.001  0.1895  0.6842  0.1739
    3CHTO    C9 1215   6.865   1.269   0.243 -0.6287  0.1942  0.0378
    3CHTO   H22 1216   6.833   1.222   0.337 -4.3596  0.4676 -1.0061
    3CHTO    N2 1217   6.906   1.403   0.296 -0.3616 -0.0136  1.0607
    3CHTO   H10 1218   6.987   1.392   0.365  1.1357 -1.7873 -0.9044
    3CHTO   H11 1219   6.820   1.440   0.350 -0.8865 -3.4817  2.7457
    3CHTO    C7 1220   6.985   1.180   0.181  0.3377 -0.0353  0.2016
    3CHTO   H20 1221   6.990   1.090   0.245  0.9581 -0.1837 -0.0566
    3CHTO    O4 1222   6.955   1.137   0.045 -0.7212 -0.6676  0.1041
    3CHTO   C14 1223   6.834   1.064   0.040 -0.3898 -0.3970 -0.1206
    3CHTO   H27 1224   6.863   0.974   0.098 -0.7593 -1.5316 -1.6785
    3CHTO   C18 1225   6.816   1.022  -0.106 -0.4861 -0.3990 -0.7305
    3CHTO   O13 1226   6.927   0.938  -0.143  0.2905  0.5183  0.3191
    3CHTO    H7 1227   6.946   0.877  -0.075  1.6174  1.6680  1.0163
    3CHTO    O2 1228   7.134   1.266   0.174  0.0216 -0.1225  0.2005
    3CHTO    C1 1229   7.231   1.174   0.136  0.0317 -0.0856  0.3158
    3CHTO   H14 1230   7.180   1.088   0.089 -2.7803  0.3808  2.3921
    3CHTO    C2 1231   7.329   1.121   0.238  0.3240  0.4321 -0.7188
    3CHTO   H15 1232   7.381   1.211   0.276  1.5243 -0.8214  0.6436
    3CHTO    O6 1233   7.256   1.049   0.337 -0.0879 -0.3452 -0.4056
    3CHTO    H1 1234   7.306   0.974   0.364  1.9827  1.1855  0.1620
    3CHTO    C3 1235   7.437   1.028   0.176  0.2251 -0.7689 -0.0542
    3CHTO   H16 1236   7.387   0.941   0.131  2.1442 -2.4651  0.9768
    3CHTO    N1 1237   7.537   0.970   0.275 -0.3575 -0.2078 -0.0313
    3CHTO    H8 1238   7.498   0.896   0.343 -0.4493  1.6173  1.9920
    3CHTO    H9 1239   7.565   1.056   0.334  0.8502 -0.7896  0.2560
    3CHTO    C4 1240   7.501   1.103   0.052  0.0819 -0.6844 -0.3104
    3CHTO   H17 1241   7.573   1.179   0.084 -1.7423  1.8054 -1.8776
    3CHTO    O1 1242   7.397   1.161  -0.034  0.1517  0.0356 -0.2179
    3CHTO    C5 1243   7.305   1.250   0.026 -0.6682 -0.1808  0.1918
    3CHTO   H18 1244   7.353   1.340   0.064 -1.1574  0.7531 -1.3554
    3CHTO   C16 1245   7.217   1.300  -0.087 -0.8962  0.2743  0.6942
    3CHTO   O11 1246   7.119   1.392  -0.048  0.3468  0.3391 -0.3725
    3CHTO    H5 1247   7.074   1.430  -0.120 -1.5931  2.8262  2.0555
    3CHTO    O3 1248   7.568   1.007  -0.036  0.0384 -0.7111  0.0231
    3CHTO    C6 1249   7.660   1.067  -0.125  0.2008 -0.7612  0.4443
    3CHTO   H19 1250   7.637   1.169  -0.155  1.6706  0.1125  2.2345
    3CHTO    C8 1251   7.809   1.063  -0.063  0.2360  0.4758 -0.5684
    3CHTO   H21 1252   7.831   0.957  -0.054 -1.4510 -0.0368 -2.2162
    3CHTO    O7 1253   7.796   1.129   0.066 -0.0075  0.3400 -0.3099
    3CHTO    H2 1254   7.735   1.199   0.062 -0.2772  0.3158  2.4029
    3CHTO   C12 1255   7.903   1.143  -0.165 -0.0366 -0.0005  0.1436
    3CHTO   H25 1256   7.860   1.245  -0.165 -1.0472 -0.3931  2.4000
    3CHTO    N3 1257   8.052   1.153  -0.115 -0.4639 -0.2727 -0.2016
    3CHTO   H12 1258   8.090   1.253  -0.123 -2.0787  0.6604  2.8003
    3CHTO   H13 1259   8.059   1.130  -0.010  1.9101  1.7953  0.1326
    3CHTO   C15 1260   7.892   1.076  -0.304 -0.3446 -0.6642 -0.1098
    3CHTO   H28 1261   7.948   0.983  -0.297  1.3320  0.3868  0.7802
    3CHTO   O10 1262   7.965   1.172  -0.419  0.4269  0.0738 -0.1421
    3CHTO    H4 1263   7.912   1.187  -0.495 -0.6297  0.1889  0.6199
    3CHTO    O5 1264   7.755   1.053  -0.348 -0.3910  0.0519  0.3749
    3CHTO   C10 1265   7.672   0.982  -0.251  0.5191  0.1247 -0.2540
    3CHTO   H23 1266   7.717   0.884  -0.233  0.1322  0.4302  2.5955
    3CHTO   C17 1267   7.535   0.958  -0.319  0.1199 -0.0066 -0.1953
    3CHTO   O12 1268   7.550   0.870  -0.428  0.0156 -0.1025 -0.4121
    3CHTO    H6 1269   7.624   0.891  -0.482 -1.1722  1.2772 -1.5596
    4CHTO  H203 1270   6.007   6.851   1.854  0.1625 -0.4160 -0.1831
    4CHTO   O82 1271   5.965   6.857   1.938  0.4296 -0.1773 -0.0666
    4CHTO  C123 1272   5.947   6.989   1.997 -0.3828  0.4799 -0.0463
    4CHTO  H227 1273   5.882   6.987   2.086 -0.1042  0.1079  0.1506
    4CHTO   O77 1274   6.093   7.029   2.016 -0.5918 -0.1847  0.6100
    4CHTO  C118 1275   6.111   7.158   2.072 -0.5073  0.2071 -0.1177
    4CHTO  H222 1276   6.056   7.163   2.167 -0.3342 -0.3814  0.0178
    4CHTO  C125 1277   6.265   7.180   2.093  0.1001 -0.6772  0.3167
    4CHTO   O84 1278   6.314   7.072   2.170  0.2706 -0.4848  0.2380
    4CHTO  H205 1279   6.380   7.109   2.225  0.2140  1.1893 -0.7991
    4CHTO  C114 1280   6.051   7.272   1.988  0.1297  0.3288 -0.1448
    4CHTO  H218 1281   6.106   7.275   1.894  0.4329  1.2232  0.0495
    4CHTO  C116 1282   5.900   7.231   1.945  0.3192 -0.8518  0.3597
    4CHTO  H220 1283   5.840   7.239   2.038 -0.8207  2.2673 -0.5613
    4CHTO   O79 1284   5.857   7.318   1.845 -0.6505 -0.1397  0.1338
    4CHTO  H201 1285   5.765   7.319   1.827 -0.7155 -1.1423  0.4010
    4CHTO  C120 1286   5.885   7.088   1.891 -0.1548  0.3969  0.5034
    4CHTO  H224 1287   5.945   7.093   1.797 -1.6471  0.4651 -0.4708
    4CHTO   N21 1288   5.748   7.036   1.863  0.4133  0.0524 -0.0722
    4CHTO  H211 1289   5.676   7.117   1.860 -0.1545 -0.4256  0.3357
    4CHTO  H212 1290   5.737   6.982   1.770  0.1241 -0.2680  0.1454
    4CHTO   O75 1291   6.057   7.393   2.073 -0.6939  0.0523  0.0196
    4CHTO  C112 1292   6.078   7.513   1.980  0.2365  0.0918  0.1752
    4CHTO  H216 1293   6.039   7.484   1.881  0.5289  0.2266  0.0205
    4CHTO   O73 1294   6.217   7.539   1.972 -0.5857  0.3527 -0.0153
    4CHTO  C113 1295   6.259   7.649   1.890 -0.2434  0.5268 -0.7544
    4CHTO  H217 1296   6.214   7.627   1.790 -0.9785 -2.3896  0.1734
    4CHTO  C124 1297   6.412   7.650   1.903  0.1961  0.1535 -0.9890
    4CHTO   O83 1298   6.483   7.702   1.792 -0.5159  0.2759 -0.5358
    4CHTO  H204 1299   6.567   7.663   1.778  1.7681  3.8514  2.3564
    4CHTO  C109 1300   6.198   7.783   1.950  0.1834 -0.1787 -0.1423
    4CHTO  H213 1301   6.240   7.792   2.051 -1.7437 -0.6750  0.7115
    4CHTO  C110 1302   6.047   7.771   1.963 -0.2141  0.0444  0.0949
    4CHTO  H214 1303   6.002   7.777   1.863  2.3628  3.7558 -0.9694
    4CHTO   O78 1304   5.991   7.881   2.035  0.2978  0.1346 -0.8829
    4CHTO  H200 1305   5.905   7.899   2.004  0.3845  0.9718 -0.6505
    4CHTO  C111 1306   6.004   7.638   2.033 -0.3124  0.6291 -0.5868
    4CHTO  H215 1307   6.021   7.646   2.141  2.8528 -0.9845 -0.9029
    4CHTO   N19 1308   5.861   7.615   2.015  0.9462  0.3748 -0.2023
    4CHTO  H207 1309   5.821   7.614   1.914 -2.6377 -1.7124  1.1354
    4CHTO  H208 1310   5.822   7.528   2.065 -0.7112  1.3080  0.2075
    4CHTO   O74 1311   6.251   7.892   1.862  0.1689  0.1096 -0.1189
    4CHTO  C115 1312   6.253   8.035   1.939 -0.1558 -0.2541 -0.0429
    4CHTO  H219 1313   6.169   8.051   2.007  0.0499 -2.5694  0.7995
    4CHTO   O76 1314   6.384   8.057   2.030 -0.1591 -0.4501 -0.1257
    4CHTO  C122 1315   6.503   8.041   1.949 -0.6483 -0.2308 -0.3314
    4CHTO  H226 1316   6.509   7.932   1.943 -1.2175 -0.4847  2.5052
    4CHTO  C126 1317   6.620   8.081   2.041  0.3266  0.3476 -0.0093
    4CHTO   O85 1318   6.643   7.996   2.152  0.2870  0.5424 -0.0075
    4CHTO  H206 1319   6.615   8.042   2.229 -0.1071 -0.8606  0.6976
    4CHTO  C121 1320   6.501   8.112   1.813  0.2646  1.0103 -0.0582
    4CHTO  H225 1321   6.595   8.172   1.806  0.8588  0.0647 -0.3039
    4CHTO   O81 1322   6.499   8.021   1.706 -0.8864  0.5131 -0.3736
    4CHTO  H202 1323   6.574   7.964   1.706 -0.2810  1.3133  0.1308
    4CHTO  C119 1324   6.378   8.214   1.801 -0.1807  0.0015 -0.0515
    4CHTO  H223 1325   6.390   8.291   1.878 -1.1785  0.0008  0.1106
    4CHTO  C117 1326   6.237   8.143   1.822 -0.2640  0.4900  0.1092
    4CHTO  H221 1327   6.196   8.090   1.736  0.5879 -0.2641  0.1549
    4CHTO   N20 1328   6.132   8.237   1.851  0.0473  0.1351  0.0826
    4CHTO  H209 1329   6.094   8.285   1.763 -4.6994 -0.7349  1.5253
    4CHTO  H210 1330   6.049   8.186   1.897  1.8364 -1.7557  1.2708
    4CHTO   O80 1331   6.397   8.318   1.663 -0.2439 -0.3623  0.3797
    4CHTO  C103 1332   6.415   8.467   1.677  0.0044 -0.3801 -0.7204
    4CHTO  H190 1333   6.366   8.513   1.763 -1.2426 -0.7783 -1.2012
    4CHTO  C101 1334   6.563   8.513   1.663  0.0418 -0.7984  0.4958
    4CHTO  H188 1335   6.597   8.486   1.563 -0.4890 -1.6187  0.5264
    4CHTO   O68 1336   6.654   8.445   1.779  0.4397 -0.5078 -0.1160
    4CHTO  H168 1337   6.683   8.514   1.836  1.6330  0.3304 -1.7072
    4CHTO   C99 1338   6.569   8.678   1.663  0.1596  0.1893  0.5609
    4CHTO  H186 1339   6.516   8.715   1.753  0.3883  2.7169 -0.2910
    4CHTO   N17 1340   6.704   8.746   1.676 -0.5535 -0.7422 -0.0070
    4CHTO  H174 1341   6.736   8.770   1.576 -0.6243  0.1165  0.1711
    4CHTO  H175 1342   6.777   8.688   1.730  0.2845  1.4602  1.2788
    4CHTO   C97 1343   6.487   8.728   1.541  0.0405 -0.2922 -0.0742
    4CHTO  H184 1344   6.533   8.711   1.442  2.4594 -0.4221  1.0369
    4CHTO   O64 1345   6.352   8.673   1.552 -0.0528 -0.3480 -0.3166
    4CHTO  C104 1346   6.338   8.531   1.549 -0.2936  0.3842 -0.1374
    4CHTO  H191 1347   6.375   8.480   1.459 -0.1608 -3.7198  2.0955
    4CHTO  C108 1348   6.185   8.511   1.556  0.2632  0.0218 -0.0749
    4CHTO   O71 1349   6.115   8.592   1.465  0.6418  0.5884 -0.5350
    4CHTO  H171 1350   6.102   8.676   1.505  2.0573  1.6688 -2.2797
    4CHTO   O62 1351   6.451   8.871   1.544 -0.1773  0.1442  0.8422
    4CHTO   C91 1352   6.410   8.922   1.414 -0.2250 -0.5351 -0.0215
    4CHTO  H178 1353   6.393   8.843   1.341 -2.2214 -1.5109  1.4620
    4CHTO   C92 1354   6.525   9.001   1.352 -0.3403  0.7067  0.0178
    4CHTO  H179 1355   6.542   9.085   1.421  0.8701  0.2408  0.3004
    4CHTO   O66 1356   6.644   8.918   1.345 -0.2125 -0.5922 -0.4370
    4CHTO  H166 1357   6.703   8.948   1.412 -1.8000  3.0664 -0.5353
    4CHTO   C93 1358   6.486   9.065   1.213 -0.0217  0.3578  0.3574
    4CHTO  H180 1359   6.472   8.985   1.138 -3.2242  1.0224  0.1465
    4CHTO   N16 1360   6.591   9.150   1.159 -0.4008  0.1891  0.0332
    4CHTO  H172 1361   6.678   9.087   1.158  0.4322  1.3053  1.5738
    4CHTO  H173 1362   6.561   9.188   1.062 -0.6473 -0.4447 -0.1386
    4CHTO   C94 1363   6.351   9.150   1.228 -0.2675  1.2013  0.2979
    4CHTO  H181 1364   6.362   9.234   1.296  0.5127  0.8001  0.6778
    4CHTO   O61 1365   6.251   9.063   1.287 -0.6866  0.1200  0.1112
    4CHTO   C95 1366   6.282   9.017   1.423 -0.1931  0.0536  0.2396
    4CHTO  H182 1367   6.311   9.101   1.486  0.1622  1.0106 -1.1981
    4CHTO  C106 1368   6.164   8.940   1.476  0.7979 -0.1003  0.1034
    4CHTO   O69 1369   6.180   8.921   1.619 -0.0046  0.0663  0.3477
    4CHTO  H169 1370   6.116   8.979   1.656  0.3562  0.7830 -0.1449
    4CHTO   O63 1371   6.303   9.214   1.076  0.2601 -0.2955  0.1036
    4CHTO   C96 1372   6.317   9.108   0.935 -0.2416 -0.3324  0.1456
    4CHTO  H183 1373   6.410   9.052   0.926 -0.0195  0.1412 -0.5496
    4CHTO   C98 1374   6.301   9.189   0.806  0.0319  0.0736 -0.3038
    4CHTO  H185 1375   6.204   9.241   0.805 -0.3294 -0.5585  0.9571
    4CHTO   O67 1376   6.403   9.288   0.818  0.1436 -0.4789  0.4389
    4CHTO  H167 1377   6.396   9.347   0.745  0.6249  0.1031  0.8612
    4CHTO  C102 1378   6.317   9.102   0.666 -0.8063  0.2263 -0.1979
    4CHTO  H189 1379   6.424   9.091   0.648 -0.7878 -1.6938  0.9210
    4CHTO   N18 1380   6.261   9.165   0.544  0.7253 -0.1328  0.9961
    4CHTO  H176 1381   6.303   9.263   0.525 -0.5407  0.4016  0.9433
    4CHTO  H177 1382   6.283   9.093   0.466  0.1476 -0.0003  0.7121
    4CHTO  C105 1383   6.247   8.963   0.695  0.0503 -0.3959  0.1666
    4CHTO  H192 1384   6.197   8.925   0.606  0.7685 -1.4873  0.2119
    4CHTO   O65 1385   6.159   8.954   0.812  0.0253  0.2611  0.0507
    4CHTO  C100 1386   6.205   8.991   0.938  0.0007  0.4810  0.2458
    4CHTO  H187 1387   6.118   9.033   0.991 -1.4647 -0.3744 -1.4387
    4CHTO  C107 1388   6.243   8.861   1.025  0.1965  0.1210 -0.2158
    4CHTO   O70 1389   6.123   8.774   1.043 -0.2017 -0.0961  0.1335
    4CHTO  H170 1390   6.047   8.817   1.009  1.3002  2.5529 -0.0430
    4CHTO   O57 1391   6.380   8.864   0.730  0.3126  0.1502 -0.8775
    4CHTO   C85 1392   6.389   8.745   0.650 -0.3700 -0.2474  0.2550
    4CHTO  H157 1393   6.318   8.739   0.564 -0.9342 -0.9499  0.7588
    4CHTO   C83 1394   6.323   8.632   0.740 -0.4099  0.9205 -0.0646
    4CHTO  H155 1395   6.220   8.661   0.756 -0.6625 -0.8378  1.8032
    4CHTO   O56 1396   6.386   8.616   0.867  0.2615  0.3278 -0.2833
    4CHTO  H135 1397   6.322   8.572   0.920  1.4370  1.1221  1.8381
    4CHTO   C81 1398   6.332   8.501   0.654  0.2812 -0.6166 -0.2653
    4CHTO  H153 1399   6.270   8.513   0.565 -1.0720 -0.9478  0.6081
    4CHTO   N14 1400   6.262   8.388   0.718 -0.1654  0.0106  0.0168
    4CHTO  H141 1401   6.305   8.361   0.812  0.1369 -0.4833 -0.2578
    4CHTO  H142 1402   6.166   8.424   0.749  1.1340 -0.0213  4.3252
    4CHTO   C79 1403   6.481   8.464   0.604 -0.6539 -0.8337  0.1743
    4CHTO  H151 1404   6.470   8.383   0.532 -0.1903  0.0581 -0.9157
    4CHTO   O52 1405   6.533   8.573   0.529 -0.2447  0.3800 -0.1437
    4CHTO   C86 1406   6.532   8.700   0.609  1.2610 -0.5870  0.1768
    4CHTO  H158 1407   6.594   8.689   0.700  0.5504  3.5281  1.2681
    4CHTO   C90 1408   6.611   8.810   0.530  0.1244 -0.2002 -0.8020
    4CHTO   O60 1409   6.730   8.754   0.479  0.0801 -0.4226  0.0743
    4CHTO  H138 1410   6.786   8.746   0.553 -0.6542  0.1415  0.7003
    4CHTO   O50 1411   6.565   8.424   0.709 -1.0581 -0.6554  0.4884
    4CHTO   C73 1412   6.662   8.375   0.798  0.2331  0.0028  0.3698
    4CHTO  H145 1413   6.628   8.384   0.902  0.2927 -0.6482  0.4533
    4CHTO   C74 1414   6.787   8.456   0.759 -0.0996  0.6805  0.4844
    4CHTO  H146 1415   6.766   8.564   0.766 -0.3950  0.7597 -1.2894
    4CHTO   O54 1416   6.881   8.443   0.866 -0.1685 -0.2741 -0.1726
    4CHTO  H133 1417   6.956   8.389   0.848  0.3802 -0.1013  1.5282
    4CHTO   C75 1418   6.834   8.414   0.613 -0.3172  0.0233 -0.0351
    4CHTO  H147 1419   6.764   8.459   0.541 -0.4483  2.5023  1.5759
    4CHTO   N13 1420   6.963   8.478   0.578  0.2940  0.3631  0.2248
    4CHTO  H139 1421   6.954   8.585   0.575  0.6113  0.3713 -0.6359
    4CHTO  H140 1422   7.030   8.457   0.660  0.9102  2.0705  0.1837
    4CHTO   C76 1423   6.835   8.258   0.589 -0.5054 -0.8255  0.7701
    4CHTO  H148 1424   6.921   8.212   0.637  0.9448  1.6122  0.6006
    4CHTO   O49 1425   6.712   8.189   0.635  0.1474  0.6597 -0.6118
    4CHTO   C77 1426   6.676   8.218   0.770  0.7979 -0.4104 -0.6898
    4CHTO  H149 1427   6.753   8.173   0.834  0.5930 -0.2250 -0.3095
    4CHTO   C88 1428   6.550   8.144   0.810  0.2035 -0.5740  0.2123
    4CHTO   O58 1429   6.522   8.145   0.932 -0.3681 -0.0502  0.1918
    4CHTO  H136 1430   6.511   8.056   0.958  1.4484 -0.1493  0.6876
    4CHTO   O51 1431   6.824   8.227   0.425 -0.2396  0.0535 -0.0969
    4CHTO   C78 1432   6.964   8.190   0.366 -0.0388  0.3116  0.2641
    4CHTO  H150 1433   7.049   8.234   0.422  1.4462 -1.4894 -0.5032
    4CHTO   C80 1434   6.963   8.237   0.222  0.1684  0.4835  0.2368
    4CHTO  H152 1435   6.871   8.202   0.172  0.9726 -2.2380  0.5759
    4CHTO   O55 1436   6.964   8.383   0.216  0.4998 -0.3049 -0.2384
    4CHTO  H134 1437   6.978   8.410   0.127  4.0520  0.9365  0.6305
    4CHTO   C84 1438   7.075   8.183   0.136 -0.4158  0.2653 -0.7514
    4CHTO  H156 1439   7.167   8.215   0.185 -0.9563 -0.6294  0.8779
    4CHTO   N15 1440   7.078   8.220  -0.010  0.5061  0.1943  0.1562
    4CHTO  H143 1441   7.170   8.268  -0.035 -0.5233  1.9836 -0.2978
    4CHTO  H144 1442   7.001   8.289  -0.038  1.1559  1.4193  1.3825
    4CHTO   C87 1443   7.078   8.032   0.151  0.8924 -0.3256 -0.5121
    4CHTO  H159 1444   6.991   7.990   0.101 -0.3421 -0.3167  1.5612
    4CHTO   O53 1445   7.088   7.992   0.298 -0.0039  0.0725 -0.9188
    4CHTO   C82 1446   6.972   8.036   0.370 -0.3325  0.0276  0.1837
    4CHTO  H154 1447   6.884   7.986   0.330 -0.4141  0.2991  0.0219
    4CHTO   C89 1448   6.986   7.988   0.516  0.0540 -0.3679 -0.5272
    4CHTO   O59 1449   6.929   7.863   0.524 -0.4422  0.5364 -0.2007
    4CHTO  H137 1450   6.929   7.838   0.615 -1.9629 -0.1007 -0.3780
    4CHTO   O45 1451   7.214   7.962   0.069  0.4741  0.0953  0.3516
    4CHTO   C67 1452   7.250   7.832   0.101  0.6439  0.5554  0.4861
    4CHTO  H124 1453   7.309   7.791   0.019 -1.0504  0.3263 -0.6306
    4CHTO   C65 1454   7.346   7.850   0.227 -0.9260  0.2028 -0.0385
    4CHTO  H122 1455   7.352   7.954   0.259  1.5029  0.3867 -0.9744
    4CHTO   O44 1456   7.478   7.814   0.184 -0.3827  0.0959 -0.1008
    4CHTO  H102 1457   7.542   7.780   0.244  0.6418  1.4091 -0.4423
    4CHTO   C63 1458   7.297   7.767   0.356  0.1587 -0.2327  0.5764
    4CHTO  H120 1459   7.197   7.799   0.382  0.4519 -0.0478  1.4905
    4CHTO   N11 1460   7.373   7.795   0.482  0.3157 -0.0640  0.4681
    4CHTO  H108 1461   7.304   7.831   0.556  0.1671 -1.5272  1.0462
    4CHTO  H109 1462   7.445   7.874   0.469 -1.7184  1.7041 -0.3404
    4CHTO   C61 1463   7.279   7.613   0.309  0.3797 -0.5941  0.2364
    4CHTO  H118 1464   7.229   7.559   0.390  1.2415 -1.1977  0.3696
    4CHTO   O40 1465   7.185   7.606   0.185  0.1949 -0.1381  0.5497
    4CHTO   C68 1466   7.136   7.731   0.126 -0.5603  0.3018 -0.5810
    4CHTO  H125 1467   7.055   7.762   0.196  1.9179  0.7907  2.1547
    4CHTO   C72 1468   7.069   7.681  -0.006  0.3656  0.3230  0.2509
    4CHTO   O48 1469   6.996   7.789  -0.063 -0.6633  0.4002 -0.2091
    4CHTO  H105 1470   6.928   7.823  -0.007 -0.6856 -0.4250  0.2878
    4CHTO   O38 1471   7.401   7.545   0.278 -0.3975  0.0173 -0.0371
    4CHTO   C55 1472   7.398   7.410   0.313  0.6445 -0.9995 -0.3690
    4CHTO  H112 1473   7.297   7.373   0.338  0.9346 -2.8682 -1.8383
    4CHTO   C56 1474   7.505   7.389   0.437  1.1050 -0.1477  0.3522
    4CHTO  H113 1475   7.602   7.431   0.408  0.9048 -0.2368 -0.4494
    4CHTO   O42 1476   7.460   7.454   0.551 -0.8546 -0.8193  0.0125
    4CHTO  H100 1477   7.411   7.532   0.534  0.5549  0.2422  0.6465
    4CHTO   C57 1478   7.522   7.232   0.466  0.2870 -0.2045 -0.5922
    4CHTO  H114 1479   7.425   7.191   0.494 -1.4477  3.1691 -1.3156
    4CHTO   N10 1480   7.629   7.211   0.568  0.4320  0.2262  0.1474
    4CHTO  H106 1481   7.637   7.290   0.642  2.9058  1.6927 -1.6222
    4CHTO  H107 1482   7.606   7.117   0.617  0.1774  0.6174  0.7876
    4CHTO   C58 1483   7.561   7.166   0.333 -0.9957  0.9221 -0.4546
    4CHTO  H115 1484   7.658   7.210   0.300 -0.8862  2.1901  1.4787
    4CHTO   O37 1485   7.464   7.193   0.230  0.5906  0.0706  0.3819
    4CHTO   C59 1486   7.440   7.332   0.188 -0.1008 -0.1325  0.2826
    4CHTO  H116 1487   7.533   7.364   0.140  0.0802 -2.1854 -0.8197
    4CHTO   C70 1488   7.332   7.321   0.078 -0.5311 -0.2678 -0.3386
    4CHTO   O46 1489   7.197   7.300   0.117  0.1235  0.5274  0.1415
    4CHTO  H103 1490   7.146   7.370   0.081  0.8182 -0.0327 -1.9895
    4CHTO   O39 1491   7.588   6.999   0.356  0.4195  0.0932  0.5997
    4CHTO   C60 1492   7.472   6.915   0.371  0.6412 -0.4281 -0.1968
    4CHTO  H117 1493   7.411   6.966   0.446  0.9753 -0.3669  0.0317
    4CHTO   C62 1494   7.390   6.887   0.241 -0.3478  0.3242 -0.2932
    4CHTO  H119 1495   7.349   6.989   0.224  0.8653  0.6920 -1.0795
    4CHTO   O43 1496   7.475   6.837   0.141 -0.3448  0.1696 -0.2628
    4CHTO  H101 1497   7.524   6.759   0.158  0.6812  0.9350  0.3165
    4CHTO   C66 1498   7.262   6.793   0.271 -0.1491  0.1731 -0.3990
    4CHTO  H123 1499   7.204   6.834   0.354  1.9804  1.9005  0.2833
    4CHTO   N12 1500   7.173   6.773   0.157 -0.0879  0.1680 -0.3131
    4CHTO  H110 1501   7.126   6.869   0.142 -0.3124  0.2461  0.8351
    4CHTO  H111 1502   7.236   6.757   0.071  0.6097 -0.1899  0.2596
    4CHTO   C69 1503   7.308   6.658   0.324  0.6668 -0.1147 -0.2287
    4CHTO  H126 1504   7.378   6.617   0.249 -1.8350  0.8456 -3.2173
    4CHTO   O41 1505   7.384   6.687   0.456 -0.3663 -0.2499 -0.0147
    4CHTO   C64 1506   7.511   6.775   0.434  0.5261 -0.2202  0.9641
    4CHTO  H121 1507   7.586   6.736   0.362  1.5399  2.6938  0.3595
    4CHTO   C71 1508   7.570   6.786   0.576  0.2963 -0.1965  0.0147
    4CHTO   O47 1509   7.575   6.667   0.651 -0.8706  0.3949 -0.4818
    4CHTO  H104 1510   7.585   6.679   0.743 -1.4482 -0.7490 -0.2625
    4CHTO   O34 1511   7.194   6.547   0.371  0.6032  0.0822 -0.3746
    4CHTO   C49 1512   7.195   6.394   0.339  0.3492  0.4500 -0.0128
    4CHTO   H91 1513   7.263   6.385   0.254  0.7536  1.9115  0.1485
    4CHTO   C47 1514   7.054   6.358   0.297 -0.1789  0.8048 -0.1676
    4CHTO   H89 1515   7.032   6.405   0.198 -0.5526  0.4381 -0.2588
    4CHTO   O33 1516   6.965   6.405   0.401 -0.6051  0.2890  0.8351
    4CHTO   H70 1517   6.980   6.494   0.423  2.8860  0.2119 -0.8930
    4CHTO   C45 1518   7.035   6.193   0.294  0.0042 -0.3284  0.7462
    4CHTO   H87 1519   6.971   6.166   0.379 -0.4818  0.4625  0.6410
    4CHTO    N8 1520   6.962   6.149   0.172  0.1389 -0.3650  0.1868
    4CHTO   H75 1521   6.889   6.078   0.208 -1.2166  0.7114 -0.3598
    4CHTO   H76 1522   7.028   6.103   0.101  1.2408 -0.7307  1.4310
    4CHTO   C43 1523   7.172   6.109   0.318  0.4758  0.0229 -0.4145
    4CHTO   H85 1524   7.140   6.007   0.338 -0.2851  0.3031 -0.1963
    4CHTO   O29 1525   7.250   6.158   0.433 -0.4243  0.3441  0.4893
    4CHTO   C50 1526   7.250   6.304   0.455 -0.0615  0.1507  0.3507
    4CHTO   H92 1527   7.185   6.310   0.543  0.8279 -1.3177  1.1139
    4CHTO   C54 1528   7.389   6.356   0.510  0.6285  0.5836 -0.3354
    4CHTO   O36 1529   7.490   6.348   0.409  0.4907 -0.2859 -0.5929
    4CHTO   H72 1530   7.557   6.290   0.441 -1.1612 -1.5025  0.7568
    4CHTO   O27 1531   7.256   6.115   0.190  0.1176 -0.6350  0.0294
    4CHTO   C37 1532   7.366   6.037   0.127 -0.3284 -0.6455  0.0899
    4CHTO   H79 1533   7.370   6.059   0.019  0.4218 -2.0308 -0.1758
    4CHTO   C38 1534   7.515   6.069   0.181 -0.0709 -0.6286 -0.6074
    4CHTO   H80 1535   7.519   6.064   0.291  3.2462  0.6771 -0.6292
    4CHTO   O31 1536   7.562   6.198   0.146  0.3374  0.0488  0.0040
    4CHTO   H68 1537   7.518   6.268   0.191  0.4625  0.2313 -0.1571
    4CHTO   C39 1538   7.621   5.964   0.124 -0.5756 -0.5734 -0.0033
    4CHTO   H81 1539   7.625   5.985   0.017 -2.0895  0.8127  0.1833
    4CHTO    N7 1540   7.766   5.981   0.170  0.0124 -0.1205 -0.0969
    4CHTO   H73 1541   7.819   5.888   0.164  1.1715  0.5198  0.1197
    4CHTO   H74 1542   7.810   6.050   0.099  0.7919 -0.7936 -0.2676
    4CHTO   C40 1543   7.573   5.817   0.140  0.4152 -0.1582 -0.0405
    4CHTO   H82 1544   7.573   5.794   0.246 -0.2725 -1.6123 -0.3551
    4CHTO   O26 1545   7.442   5.804   0.085  0.0309  0.2164  0.2844
    4CHTO   C41 1546   7.333   5.887   0.140  0.3623  0.9217  1.0312
    4CHTO   H83 1547   7.324   5.869   0.248  0.5601 -1.2501  0.7054
    4CHTO   C52 1548   7.211   5.837   0.062 -1.0341 -0.0743  0.2905
    4CHTO   O35 1549   7.176   5.675   0.115  0.4277  0.1043  0.1168
    4CHTO   H71 1550   7.160   5.672   0.207  0.1843 -2.6158  0.0136
    4CHTO   O28 1551   7.653   5.708   0.082  0.3053 -0.3461 -0.2288
    4CHTO   C42 1552   7.649   5.564   0.132 -0.0262 -0.2541 -0.4886
    4CHTO   H84 1553   7.718   5.518   0.061  1.9873  3.3237 -0.9781
    4CHTO   C44 1554   7.509   5.491   0.111 -0.2018  0.3616  0.7128
    4CHTO   H86 1555   7.435   5.534   0.179  0.6071  1.1641  1.1002
    4CHTO   O32 1556   7.468   5.507  -0.023  0.5152  0.8502 -0.2986
    4CHTO   H69 1557   7.459   5.600  -0.035  0.1754  0.9365  0.5464
    4CHTO   C48 1558   7.513   5.338   0.143  0.4939  0.2514 -0.2253
    4CHTO   H90 1559   7.568   5.281   0.068 -1.2254 -0.4518 -0.9717
    4CHTO    N9 1560   7.372   5.286   0.142 -0.0027 -0.1695 -0.7891
    4CHTO   H77 1561   7.352   5.239   0.047  0.1372 -1.2289 -0.2936
    4CHTO   H78 1562   7.362   5.210   0.217  0.0310  1.5454  0.9955
    4CHTO   C51 1563   7.579   5.319   0.282  0.0646  0.4576  0.1173
    4CHTO   H93 1564   7.505   5.358   0.352 -0.5775  0.4493 -0.5547
    4CHTO   O30 1565   7.704   5.380   0.300 -0.3793  0.0403  1.1763
    4CHTO   C46 1566   7.699   5.532   0.276 -0.6819  0.0259 -0.1148
    4CHTO   H88 1567   7.626   5.571   0.347  1.8599  1.2602  1.9330
    4CHTO   C53 1568   7.838   5.600   0.315 -0.4067  0.3988  0.1430
    4CHTO   O72 1569   7.954   5.536   0.257 -0.0354  0.1318  0.3610
    4CHTO  H199 1570   8.033   5.565   0.299 -0.8734  0.8977  1.4390
    4CHTO   O22 1571   7.593   5.179   0.318 -0.7723  0.6431 -0.4124
    4CHTO   C31 1572   7.653   5.125   0.440  0.5387  0.3395 -0.5987
    4CHTO   H59 1573   7.701   5.210   0.493 -0.0680  0.7172 -0.6519
    4CHTO   C29 1574   7.557   5.056   0.536  0.2291 -0.7330 -0.1762
    4CHTO   H57 1575   7.520   4.962   0.491 -1.5500  0.6552 -1.6606
    4CHTO   O21 1576   7.445   5.143   0.545 -0.1424 -0.2896  0.0592
    4CHTO   H37 1577   7.413   5.184   0.624  1.9389  1.1168  0.2021
    4CHTO   C27 1578   7.629   5.030   0.677  0.1285  0.2196  0.4019
    4CHTO   H55 1579   7.637   5.127   0.728 -1.0740 -0.9594  2.9128
    4CHTO    N5 1580   7.546   4.944   0.767  0.3219  0.3382 -0.0846
    4CHTO   H43 1581   7.614   4.887   0.829  0.5798  0.5456 -0.1762
    4CHTO   H44 1582   7.460   4.892   0.728 -0.4822  0.2825  1.6909
    4CHTO   C25 1583   7.773   4.973   0.661  0.4786  0.5231  0.0856
    4CHTO   H53 1584   7.777   4.864   0.674  0.1412  0.3093 -1.6005
    4CHTO   O17 1585   7.840   5.006   0.538 -0.0387  0.0640  0.7571
    4CHTO   C32 1586   7.764   5.016   0.418 -0.0153 -0.9927  0.6939
    4CHTO   H60 1587   7.722   4.921   0.385  1.9940 -1.6971  0.1164
    4CHTO   C36 1588   7.862   5.053   0.303  0.5829  0.0536 -0.0766
    4CHTO   O25 1589   7.951   5.154   0.349  0.2251 -0.0390 -0.2616
    4CHTO   H40 1590   7.995   5.130   0.428 -0.8791  2.6442  1.2350
    4CHTO   O15 1591   7.868   5.019   0.780  0.3429  0.3797  0.0258
    4CHTO   C19 1592   7.919   5.144   0.832 -0.1215 -0.6198  0.1646
    4CHTO   H47 1593   8.019   5.116   0.869 -0.4398 -0.0918  1.4411
    4CHTO   C20 1594   7.935   5.259   0.715  0.1315 -0.2883 -0.8407
    4CHTO   H48 1595   7.849   5.261   0.646 -0.9701  0.3438  0.5087
    4CHTO   O19 1596   8.044   5.222   0.633  0.6369  0.4179  0.2330
    4CHTO   H35 1597   8.024   5.232   0.542 -1.3136  1.6557  0.7632
    4CHTO   C21 1598   7.953   5.407   0.770 -0.4338 -0.6010 -0.2223
    4CHTO   H49 1599   8.054   5.419   0.809 -0.8866  1.7872  0.3092
    4CHTO    N4 1600   7.937   5.508   0.662  1.0741 -0.5431  0.0440
    4CHTO   H41 1601   8.018   5.506   0.590  0.7449  0.0526 -0.3509
    4CHTO   H42 1602   7.850   5.485   0.603  0.4087  1.8618  0.0437
    4CHTO   C22 1603   7.850   5.425   0.885 -0.0405 -0.0823  0.0614
    4CHTO   H50 1604   7.753   5.418   0.837 -0.3334 -0.2199  0.6658
    4CHTO   O14 1605   7.875   5.319   0.991  0.2694 -0.0593 -0.1521
    4CHTO   C23 1606   7.839   5.189   0.949 -0.1150 -0.0846  0.1867
    4CHTO   H51 1607   7.732   5.192   0.925 -0.6467 -0.2307  2.3772
    4CHTO   C34 1608   7.858   5.099   1.071 -0.5234  0.3446 -0.0774
    4CHTO   O23 1609   7.980   5.065   1.124 -0.0914 -0.1487 -0.0814
    4CHTO   H38 1610   8.049   5.043   1.064  0.4627  0.1308  0.4539
    4CHTO   O16 1611   7.851   5.556   0.943  0.3127 -0.5809  0.0127
    4CHTO   C24 1612   7.719   5.656   0.920  0.0104 -0.4576 -0.4111
    4CHTO   H52 1613   7.641   5.611   0.860 -0.3852 -1.2401  0.6965
    4CHTO   C26 1614   7.766   5.789   0.852  0.1789  0.3473  0.4061
    4CHTO   H54 1615   7.871   5.810   0.883 -0.7147  2.1818  2.2395
    4CHTO   O20 1616   7.776   5.770   0.706 -0.6428  0.3038  0.1410
    4CHTO   H36 1617   7.698   5.790   0.658 -0.9013 -0.1380  0.3702
    4CHTO   C30 1618   7.674   5.912   0.870  0.0938  0.3339 -0.1941
    4CHTO   H58 1619   7.590   5.898   0.800  1.7268 -0.1862 -2.1049
    4CHTO    N6 1620   7.746   6.032   0.819 -0.7629  0.1257 -0.4254
    4CHTO   H45 1621   7.730   6.109   0.893 -2.2092 -2.0132  1.5536
    4CHTO   H46 1622   7.703   6.059   0.724  0.5205  2.5609 -0.3637
    4CHTO   C33 1623   7.612   5.924   1.016 -0.0637  0.0611  0.0941
    4CHTO   H61 1624   7.690   5.952   1.089  0.9610 -1.2993 -0.4506
    4CHTO   O18 1625   7.559   5.795   1.055  0.1512 -0.4949  0.2365
    4CHTO   C28 1626   7.661   5.692   1.057  0.2960  0.4839  0.5303
    4CHTO   H56 1627   7.739   5.732   1.122 -1.3681  1.3365  2.0742
    4CHTO   C35 1628   7.596   5.559   1.103 -0.4758  0.1819  0.0819
    4CHTO   O24 1629   7.560   5.554   1.239 -0.2636  0.1777 -0.4942
    4CHTO   H39 1630   7.477   5.516   1.258  0.8088 -2.4707 -0.9458
    4CHTO    O9 1631   7.511   6.029   1.027 -0.7235 -0.0102  0.2761
    4CHTO   C13 1632   7.434   6.053   1.165  0.5728 -0.0737  0.1587
    4CHTO   H26 1633   7.446   5.964   1.230  3.1672 -0.6502 -1.0217
    4CHTO   C11 1634   7.285   6.078   1.124  0.0912 -0.4852 -0.4292
    4CHTO   H24 1635   7.238   5.984   1.095 -1.3524 -0.1550  0.7322
    4CHTO    O8 1636   7.279   6.163   1.013 -0.2923  0.1337  0.0103
    4CHTO    H3 1637   7.317   6.249   1.020  1.1465 -0.4246 -0.6083
    4CHTO    C9 1638   7.203   6.123   1.249 -0.3053  0.1920  0.2833
    4CHTO   H22 1639   7.215   6.044   1.324  0.2335 -1.3237 -1.3686
    4CHTO    N2 1640   7.062   6.123   1.225  0.2592  0.4768 -0.4290
    4CHTO   H10 1641   7.025   6.027   1.191  1.1183 -0.5597  1.4988
    4CHTO   H11 1642   7.010   6.148   1.316  1.1144 -1.1579  0.5507
    4CHTO    C7 1643   7.276   6.258   1.304 -0.2548  0.6089 -0.2678
    4CHTO   H20 1644   7.278   6.235   1.412  0.2543  1.3788 -0.1086
    4CHTO    O4 1645   7.410   6.279   1.261 -0.4244 -0.3719 -0.1239
    4CHTO   C14 1646   7.496   6.166   1.253  0.5113 -0.5814 -0.7326
    4CHTO   H27 1647   7.504   6.127   1.357  2.5263 -0.3588 -0.7798
    4CHTO   C18 1648   7.632   6.214   1.210  0.1334 -0.6958 -0.2076
    4CHTO   O13 1649   7.699   6.288   1.310 -0.6314  0.4820  0.4743
    4CHTO    H7 1650   7.792   6.286   1.301 -0.4957  1.2232  1.5815
    4CHTO    O2 1651   7.184   6.397   1.284  0.0378  0.0922  0.3592
    4CHTO    C1 1652   7.221   6.511   1.363 -0.6954 -0.5727  0.8578
    4CHTO   H14 1653   7.143   6.589   1.350  0.2408  0.7025  2.6735
    4CHTO    C2 1654   7.362   6.573   1.329 -0.1432 -0.2877 -0.4759
    4CHTO   H15 1655   7.443   6.503   1.352  0.8173  1.1215  0.5713
    4CHTO    O6 1656   7.369   6.605   1.188 -0.5539 -0.8303 -0.5626
    4CHTO    H1 1657   7.454   6.635   1.160 -1.3892  0.7914 -1.4671
    4CHTO    C3 1658   7.377   6.706   1.421 -0.2450 -0.3871 -0.3047
    4CHTO   H16 1659   7.309   6.784   1.383  1.2991 -0.6820 -3.8346
    4CHTO    N1 1660   7.513   6.767   1.398  0.1649  0.4360 -0.6789
    4CHTO    H8 1661   7.590   6.698   1.430 -0.7707  0.8332  2.6354
    4CHTO    H9 1662   7.520   6.786   1.292 -1.1956  1.4171 -0.5969
    4CHTO    C4 1663   7.352   6.672   1.576  0.3009 -0.0023 -0.3702
    4CHTO   H17 1664   7.436   6.615   1.614 -0.4485  0.6123  2.3317
    4CHTO    O1 1665   7.231   6.601   1.595 -0.2809 -0.5923 -0.2485
    4CHTO    C5 1666   7.212   6.482   1.516 -0.6903  0.3935 -0.2671
    4CHTO   H18 1667   7.285   6.403   1.534  0.1875  1.4192  0.7294
    4CHTO   C16 1668   7.070   6.422   1.545  0.1432  0.0294 -0.2622
    4CHTO   O11 1669   6.961   6.500   1.495 -0.3322  0.0054  0.1315
    4CHTO    H5 1670   6.904   6.518   1.568  1.8285  1.6187  1.4887
    4CHTO    O3 1671   7.329   6.795   1.648  0.6240 -0.4945  0.1928
    4CHTO    C6 1672   7.418   6.822   1.770 -0.3699 -0.8956 -0.0565
    4CHTO   H19 1673   7.460   6.723   1.788  0.1367 -0.7348 -0.3467
    4CHTO    C8 1674   7.529   6.942   1.755  0.5649 -0.0870  0.5291
    4CHTO   H21 1675   7.484   7.019   1.693  0.0789 -0.7092  0.1139
    4CHTO    O7 1676   7.633   6.875   1.683 -0.0426  0.5790  0.1417
    4CHTO    H2 1677   7.616   6.879   1.591 -2.3930 -0.9128  0.4744
    4CHTO   C12 1678   7.582   6.980   1.899 -0.5765  0.1554  1.0468
    4CHTO   H25 1679   7.636   6.889   1.933  1.1727  0.2204 -1.4477
    4CHTO    N3 1680   7.683   7.096   1.897 -0.1256  0.1563 -0.0178
    4CHTO   H12 1681   7.766   7.064   1.835  2.4925  1.3847  2.7316
    4CHTO   H13 1682   7.630   7.181   1.858  1.9341  1.3788 -0.1983
    4CHTO   C15 1683   7.455   7.006   1.996  0.2140  0.3454 -0.1531
    4CHTO   H28 1684   7.402   7.099   1.972 -1.7862  0.1336  3.0657
    4CHTO   O10 1685   7.498   7.025   2.151 -0.0768  0.2139  0.3365
    4CHTO    H4 1686   7.464   7.106   2.185 -0.1649  0.4811 -0.3938
    4CHTO    O5 1687   7.369   6.894   2.001 -0.0159  0.0452 -0.4546
    4CHTO   C10 1688   7.315   6.849   1.876 -0.3259  1.0533 -0.0973
    4CHTO   H23 1689   7.242   6.922   1.841 -2.0035  0.8764  2.7929
    4CHTO   C17 1690   7.231   6.722   1.905  0.8503  0.9322 -0.0832
    4CHTO   O12 1691   7.314   6.621   1.965 -0.4902  0.1317 -0.3736
    4CHTO    H6 1692   7.378   6.585   1.905 -0.7986 -1.6648  0.3313
    5CHTO  H203 1693   8.347   3.147   0.605  0.4521 -1.7280  0.1530
    5CHTO   O82 1694   8.332   3.164   0.696  0.7418 -0.2967 -0.0493
    5CHTO  C123 1695   8.311   3.050   0.777 -0.8337  0.4264 -0.5554
    5CHTO  H227 1696   8.397   2.982   0.763 -1.3861 -0.9770  2.3306
    5CHTO   O77 1697   8.327   3.104   0.910 -0.4933 -0.4543 -0.1155
    5CHTO  C118 1698   8.303   3.010   1.017 -0.7082  0.0505 -0.0707
    5CHTO  H222 1699   8.380   2.931   1.011  0.4665  1.0390  1.5503
    5CHTO  C125 1700   8.334   3.087   1.151  0.2093  0.0230  0.4679
    5CHTO   O84 1701   8.299   3.000   1.260  0.6205  0.0266  0.2803
    5CHTO  H205 1702   8.326   3.047   1.337 -1.2486 -0.1987  1.1128
    5CHTO  C114 1703   8.155   2.963   1.006  0.2332 -0.4221 -0.3241
    5CHTO  H218 1704   8.089   3.039   1.048 -0.0342 -3.0777  4.4300
    5CHTO  C116 1705   8.121   2.899   0.866  0.0175  0.1945 -1.0210
    5CHTO  H220 1706   8.173   2.801   0.861  1.0646  0.5932  1.4874
    5CHTO   O79 1707   7.985   2.862   0.854  0.3576  0.1059  0.4612
    5CHTO  H201 1708   7.938   2.933   0.814  1.0529  0.4148  0.1996
    5CHTO  C120 1709   8.169   2.994   0.747 -0.1773 -0.2425 -0.9200
    5CHTO  H224 1710   8.100   3.081   0.752  1.1478  0.6652  2.4385
    5CHTO   N21 1711   8.158   2.928   0.613  0.2810  0.0163  0.2169
    5CHTO  H211 1712   8.141   2.824   0.636 -3.1765  0.7373  1.3463
    5CHTO  H212 1713   8.081   2.963   0.545 -0.0768 -0.7113  0.2450
    5CHTO   O75 1714   8.148   2.851   1.097 -0.0313  0.5282  0.1043
    5CHTO  C112 1715   8.004   2.842   1.172  0.5704  0.5321  0.4478
    5CHTO  H216 1716   7.925   2.848   1.095  1.9532  1.3158 -0.9455
    5CHTO   O73 1717   7.998   2.951   1.262 -0.1534 -0.2938 -0.1811
    5CHTO  C113 1718   7.873   2.967   1.327  0.1849 -0.1779 -0.4284
    5CHTO  H217 1719   7.794   2.977   1.250 -1.0651  0.5661  0.9321
    5CHTO  C124 1720   7.863   3.102   1.397 -0.2757 -0.1861  0.1228
    5CHTO   O83 1721   7.918   3.212   1.329  0.4717 -0.2257  0.0237
    5CHTO  H204 1722   7.875   3.225   1.247  0.6098  2.4049  0.3185
    5CHTO  C109 1723   7.836   2.839   1.410 -0.2230 -0.4976 -0.1636
    5CHTO  H213 1724   7.905   2.840   1.495 -0.7834 -1.7317  0.3168
    5CHTO  C110 1725   7.849   2.708   1.330  0.4754 -0.0263  0.4939
    5CHTO  H214 1726   7.763   2.715   1.263 -1.1419  1.6848  2.6755
    5CHTO   O78 1727   7.833   2.595   1.419 -0.2563  0.0856 -0.5462
    5CHTO  H200 1728   7.914   2.572   1.461 -0.5851  0.5472  0.3624
    5CHTO  C111 1729   7.984   2.704   1.245  0.2217 -0.0111  0.5517
    5CHTO  H215 1730   8.072   2.696   1.311  1.6636 -1.2293 -1.4566
    5CHTO   N19 1731   7.991   2.588   1.145  0.4455 -0.2020 -0.2571
    5CHTO  H207 1732   7.912   2.597   1.072 -1.0930 -0.5760  1.3278
    5CHTO  H208 1733   8.006   2.499   1.204  1.9902  1.4668  1.9648
    5CHTO   O74 1734   7.697   2.843   1.455  0.3810 -1.1562 -0.2345
    5CHTO  C115 1735   7.678   2.837   1.615 -0.1461  0.4011  0.0469
    5CHTO  H219 1736   7.762   2.785   1.661  0.7159  1.5438 -0.2119
    5CHTO   O76 1737   7.675   2.990   1.686  0.1469  0.0018 -0.0523
    5CHTO  C122 1738   7.571   3.064   1.625 -0.2119 -0.0465 -0.5862
    5CHTO  H226 1739   7.609   3.099   1.529 -0.0446  3.2271  0.6058
    5CHTO  C126 1740   7.544   3.193   1.709  0.0674  0.2865 -0.3188
    5CHTO   O85 1741   7.657   3.278   1.723 -0.3349  0.3137  0.0308
    5CHTO  H206 1742   7.635   3.368   1.733  0.7326  0.5011  0.7623
    5CHTO  C121 1743   7.437   2.975   1.601  0.7236 -0.0615  0.0977
    5CHTO  H225 1744   7.350   3.042   1.616  0.3338  0.1759 -2.8403
    5CHTO   O81 1745   7.424   2.942   1.461  0.1352  0.3661  0.1286
    5CHTO  H202 1746   7.383   3.004   1.405  0.9103  1.3808  0.6674
    5CHTO  C119 1747   7.434   2.856   1.694  0.4294 -0.5318 -0.3080
    5CHTO  H223 1748   7.459   2.891   1.794  2.6613  1.1295 -1.4261
    5CHTO  C117 1749   7.547   2.756   1.644  0.6094 -0.3588  1.0836
    5CHTO  H221 1750   7.523   2.705   1.551 -2.9542  1.2472  1.0666
    5CHTO   N20 1751   7.567   2.644   1.746  0.2888 -0.0551  0.8772
    5CHTO  H209 1752   7.654   2.589   1.713 -0.3371  0.7701 -2.3040
    5CHTO  H210 1753   7.475   2.590   1.762 -2.3034  3.4426 -1.3229
    5CHTO   O80 1754   7.279   2.798   1.723  0.2816  0.0401  0.4247
    5CHTO  C103 1755   7.180   2.784   1.616 -0.1746  0.5631  0.3289
    5CHTO  H190 1756   7.189   2.868   1.547 -0.7193  0.4248  0.0942
    5CHTO  C101 1757   7.171   2.655   1.531  1.0042 -0.1583 -0.1518
    5CHTO  H188 1758   7.193   2.569   1.595  0.9096 -1.3166 -1.6449
    5CHTO   O68 1759   7.277   2.663   1.431 -0.2754  0.0983 -0.2619
    5CHTO  H168 1760   7.253   2.709   1.353 -0.7887  0.1267 -0.0861
    5CHTO   C99 1761   7.028   2.628   1.457  0.3661 -0.1633 -0.3081
    5CHTO  H186 1762   7.012   2.701   1.375  3.0290  1.8577  0.8736
    5CHTO   N17 1763   7.013   2.502   1.384 -0.3529 -0.2504  0.3389
    5CHTO  H174 1764   7.084   2.480   1.305  0.9586  0.5651  1.2573
    5CHTO  H175 1765   7.030   2.429   1.462  2.2875  1.0946  1.1091
    5CHTO   C97 1766   6.911   2.655   1.558 -0.8508 -0.5107 -0.6069
    5CHTO  H184 1767   6.907   2.581   1.639  0.5398  1.0296  0.9087
    5CHTO   O64 1768   6.930   2.788   1.610  0.0775  0.0177 -0.3625
    5CHTO  C104 1769   7.040   2.803   1.698  0.6428  0.2540  0.1586
    5CHTO  H191 1770   7.033   2.729   1.778  1.0760 -0.4986 -0.4947
    5CHTO  C108 1771   7.021   2.945   1.759  0.6472 -0.0783 -0.4839
    5CHTO   O71 1772   7.121   2.986   1.851  0.1929 -0.2917  0.0916
    5CHTO  H171 1773   7.152   2.918   1.907 -1.0329  0.1553  1.3290
    5CHTO   O62 1774   6.781   2.661   1.498  0.6551 -0.2739 -0.2732
    5CHTO   C91 1775   6.666   2.630   1.575 -0.4929 -0.2374  0.1254
    5CHTO  H178 1776   6.685   2.633   1.682  1.6280 -0.3173 -0.2431
    5CHTO   C92 1777   6.633   2.474   1.549  0.4372  0.0891 -0.7643
    5CHTO  H179 1778   6.636   2.443   1.444 -0.3441 -1.0605 -0.4531
    5CHTO   O66 1779   6.738   2.399   1.606 -0.1901 -0.0599 -0.7794
    5CHTO  H166 1780   6.818   2.426   1.565  0.2621 -1.5393 -0.9057
    5CHTO   C93 1781   6.488   2.432   1.614 -0.6595  0.3917  0.1590
    5CHTO  H180 1782   6.494   2.438   1.724 -1.0379 -0.1485  0.2077
    5CHTO   N16 1783   6.460   2.289   1.572 -0.3065  0.4544 -0.3660
    5CHTO  H172 1784   6.413   2.237   1.654  1.1125  1.1822  0.9369
    5CHTO  H173 1785   6.548   2.230   1.550 -2.2193 -2.1421 -1.3268
    5CHTO   C94 1786   6.380   2.540   1.560 -0.7885  0.0327  0.0980
    5CHTO  H181 1787   6.382   2.556   1.452 -2.4813 -1.6235 -0.2012
    5CHTO   O61 1788   6.417   2.673   1.607  0.1548 -0.8728 -0.6669
    5CHTO   C95 1789   6.543   2.729   1.551  0.8896 -0.1827 -0.5325
    5CHTO  H182 1790   6.524   2.748   1.445 -1.9545  0.3543  0.0252
    5CHTO  C106 1791   6.570   2.866   1.620 -0.4053 -0.2985  0.0339
    5CHTO   O69 1792   6.495   2.970   1.551 -0.1497  0.8656  0.0942
    5CHTO  H169 1793   6.403   2.952   1.557  0.2133 -1.6907 -1.1214
    5CHTO   O63 1794   6.241   2.508   1.629 -0.0295 -0.3855 -0.0464
    5CHTO   C96 1795   6.128   2.500   1.524 -0.1018 -0.1315  0.1312
    5CHTO  H183 1796   6.163   2.458   1.430 -0.3619 -0.0539 -0.0009
    5CHTO   C98 1797   6.053   2.636   1.500 -0.1848  0.3973 -0.0810
    5CHTO  H185 1798   6.022   2.680   1.596  0.3154 -2.9783  1.6914
    5CHTO   O67 1799   6.151   2.735   1.453 -0.2219  0.3924  0.0634
    5CHTO  H167 1800   6.214   2.700   1.392  1.0400  0.7623  1.1243
    5CHTO  C102 1801   5.932   2.626   1.392  0.1347 -0.5243  0.2423
    5CHTO  H189 1802   5.976   2.609   1.293 -0.7297  0.8538 -0.3884
    5CHTO   N18 1803   5.842   2.743   1.374  0.2878 -0.2054 -0.4260
    5CHTO  H176 1804   5.900   2.811   1.313 -1.1073 -0.4534 -2.0670
    5CHTO  H177 1805   5.793   2.781   1.462  1.0371  0.4907 -0.3038
    5CHTO  C105 1806   5.846   2.499   1.417  0.3607 -0.3640  0.2451
    5CHTO  H192 1807   5.757   2.519   1.476  0.1488  0.1830 -0.2606
    5CHTO   O65 1808   5.909   2.385   1.483  0.3000 -0.0550 -0.3295
    5CHTO  C100 1809   6.012   2.417   1.582 -0.2616  0.5641 -0.5169
    5CHTO  H187 1810   5.959   2.474   1.660  0.3827  0.5124 -0.0457
    5CHTO  C107 1811   6.067   2.285   1.646  0.0555 -0.3360  0.5702
    5CHTO   O70 1812   5.956   2.202   1.679  0.4046 -0.0047 -0.1359
    5CHTO  H170 1813   5.990   2.115   1.674  0.4062  0.0659 -1.6817
    5CHTO   O57 1814   5.783   2.462   1.259 -0.4817 -0.1609 -0.8163
    5CHTO   C85 1815   5.673   2.375   1.236 -0.2388 -0.1496 -0.7585
    5CHTO  H157 1816   5.589   2.416   1.296  0.1628 -0.2362 -0.1328
    5CHTO   C83 1817   5.713   2.238   1.306  1.0675  0.4550 -0.0537
    5CHTO  H155 1818   5.724   2.259   1.412  0.6059 -0.5002  0.1872
    5CHTO   O56 1819   5.841   2.183   1.269 -0.4966 -0.1272 -0.7767
    5CHTO  H135 1820   5.886   2.135   1.336 -2.0157  0.2629  0.5635
    5CHTO   C81 1821   5.598   2.134   1.288  0.7053 -1.1122 -0.7051
    5CHTO  H153 1822   5.506   2.180   1.325 -0.0881 -2.7936 -0.5668
    5CHTO   N14 1823   5.614   2.023   1.385  0.0519 -0.2182 -0.7067
    5CHTO  H141 1824   5.513   1.993   1.407 -0.5415  1.2569 -1.3160
    5CHTO  H142 1825   5.657   2.061   1.475  0.6456  0.0914 -1.1168
    5CHTO   C79 1826   5.575   2.105   1.141  0.8806  0.1254 -0.5227
    5CHTO  H151 1827   5.494   2.032   1.139 -0.0688  1.0321  2.9769
    5CHTO   O52 1828   5.535   2.234   1.075  0.2055 -0.9948 -0.1125
    5CHTO   C86 1829   5.631   2.345   1.089 -0.5143  0.6221 -0.3512
    5CHTO  H158 1830   5.716   2.334   1.018  1.4860  0.8185  1.9477
    5CHTO   C90 1831   5.548   2.472   1.038 -0.0421  0.2899  0.2936
    5CHTO   O60 1832   5.533   2.463   0.900  0.3481 -0.2302  0.4633
    5CHTO  H138 1833   5.619   2.449   0.865  0.4255  0.9147  0.1523
    5CHTO   O50 1834   5.689   2.050   1.071  0.4482  0.0901  0.1978
    5CHTO   C73 1835   5.724   1.971   0.956  0.5190 -0.2161  0.2840
    5CHTO  H145 1836   5.662   2.002   0.871  1.0119  2.2145  0.7719
    5CHTO   C74 1837   5.685   1.818   0.981 -0.3611 -0.0686  0.7150
    5CHTO  H146 1838   5.577   1.812   1.002 -0.4331  1.5711  0.8803
    5CHTO   O54 1839   5.703   1.736   0.858  0.6806  0.3036 -0.0513
    5CHTO  H133 1840   5.620   1.712   0.822  0.5273  2.6336 -1.3296
    5CHTO   C75 1841   5.772   1.777   1.108 -0.5643  0.5394 -0.1439
    5CHTO  H147 1842   5.753   1.848   1.190  1.1683  1.4486 -0.5227
    5CHTO   N13 1843   5.740   1.642   1.165 -0.5512  0.1863  0.4420
    5CHTO  H139 1844   5.646   1.608   1.123 -0.1431 -1.6936  0.9828
    5CHTO  H140 1845   5.719   1.647   1.271 -0.3496 -1.5128  0.5800
    5CHTO   C76 1846   5.922   1.794   1.064  0.4369 -0.0646 -0.4112
    5CHTO  H148 1847   5.935   1.731   0.976 -0.6912 -1.7264  0.5717
    5CHTO   O49 1848   5.946   1.937   1.025 -0.6364 -0.7528 -0.1833
    5CHTO   C77 1849   5.871   1.975   0.909  0.7348 -0.3686  0.3581
    5CHTO  H149 1850   5.888   1.908   0.825  1.0196  0.3494 -0.1699
    5CHTO   C88 1851   5.902   2.115   0.859  0.2469  0.3365  0.6398
    5CHTO   O58 1852   5.817   2.146   0.718  0.3798  0.2464 -0.5989
    5CHTO  H136 1853   5.733   2.185   0.732 -0.4944 -1.4327 -0.9909
    5CHTO   O51 1854   6.031   1.773   1.181  0.9497 -0.2635  0.2139
    5CHTO   C78 1855   6.179   1.813   1.161  0.5268  0.0399  0.4613
    5CHTO  H150 1856   6.188   1.862   1.062  0.0968 -1.5863 -0.4157
    5CHTO   C80 1857   6.270   1.688   1.167  0.1382 -0.3043  0.0353
    5CHTO  H152 1858   6.277   1.652   1.271  0.3191  1.3237  0.6045
    5CHTO   O55 1859   6.215   1.582   1.082  0.0349 -0.0341 -0.0413
    5CHTO  H134 1860   6.123   1.575   1.094  0.1235 -0.6791  0.2490
    5CHTO   C84 1861   6.421   1.730   1.126  0.6227  0.2890 -0.7954
    5CHTO  H156 1862   6.418   1.774   1.027 -0.9286 -0.6414 -1.1837
    5CHTO   N15 1863   6.513   1.607   1.124 -0.0304  0.2116  0.7073
    5CHTO  H143 1864   6.521   1.564   1.221 -1.8386  0.3193  0.9245
    5CHTO  H144 1865   6.473   1.540   1.050  0.1564  0.1808  0.6314
    5CHTO   C87 1866   6.470   1.835   1.229  0.1335 -0.1583  0.4166
    5CHTO  H159 1867   6.486   1.794   1.329  0.8727 -1.4638 -0.2187
    5CHTO   O53 1868   6.362   1.956   1.243  0.1441  0.4299 -0.1486
    5CHTO   C82 1869   6.229   1.905   1.276  0.4027  0.0659 -0.0280
    5CHTO  H154 1870   6.225   1.852   1.371  0.2818 -0.1214 -0.1357
    5CHTO   C89 1871   6.130   2.022   1.297 -0.3729  0.2237  0.1111
    5CHTO   O59 1872   6.172   2.109   1.401  0.3504  0.0749 -0.2908
    5CHTO  H137 1873   6.111   2.116   1.472  0.7966 -0.6400  0.1667
    5CHTO   O45 1874   6.616   1.903   1.158 -0.0395 -0.0575  0.5598
    5CHTO   C67 1875   6.717   1.939   1.251  0.3130  0.8101 -0.9793
    5CHTO  H124 1876   6.679   1.953   1.352 -0.3586  1.8088 -1.3655
    5CHTO   C65 1877   6.809   1.814   1.264 -0.3344 -0.2257 -0.3062
    5CHTO  H122 1878   6.794   1.751   1.177  0.9871  0.8757 -1.3499
    5CHTO   O44 1879   6.767   1.746   1.386 -0.0061 -0.1230 -0.2887
    5CHTO  H102 1880   6.843   1.713   1.431  0.5303 -1.0148 -1.7816
    5CHTO   C63 1881   6.961   1.861   1.260 -0.8517 -0.3178  0.0925
    5CHTO  H120 1882   6.989   1.911   1.167 -0.4257 -1.4609 -0.3978
    5CHTO   N11 1883   7.058   1.752   1.277  0.1040  0.0861 -0.0085
    5CHTO  H108 1884   7.087   1.750   1.380  0.7043 -0.6242 -0.1869
    5CHTO  H109 1885   7.029   1.657   1.238 -0.9287  0.0512  0.8324
    5CHTO   C61 1886   6.977   1.989   1.356  0.1292 -0.4349  0.1033
    5CHTO  H118 1887   7.079   2.029   1.341 -0.5820  1.8894  1.2587
    5CHTO   O40 1888   6.887   2.095   1.320  0.2638  0.0952 -0.5436
    5CHTO   C68 1889   6.785   2.075   1.222 -0.2827 -0.2083 -0.0174
    5CHTO  H125 1890   6.835   2.073   1.122  2.2839 -1.5044  1.2481
    5CHTO   C72 1891   6.685   2.192   1.217 -0.5593 -1.2450 -0.0340
    5CHTO   O48 1892   6.740   2.323   1.201 -0.4447  0.1011  0.1591
    5CHTO  H105 1893   6.807   2.330   1.266  2.6065 -0.2690 -2.7894
    5CHTO   O38 1894   6.959   1.963   1.499 -0.1163  0.7840 -0.0517
    5CHTO   C55 1895   6.926   2.080   1.586  0.1640 -0.0512  0.7420
    5CHTO  H112 1896   6.855   2.153   1.545  0.0947  1.0490  2.7776
    5CHTO   C56 1897   7.060   2.152   1.632  0.2605  0.0477  0.6270
    5CHTO  H113 1898   7.130   2.070   1.653  0.3903 -0.9322 -3.3042
    5CHTO   O42 1899   7.117   2.219   1.518  0.2784 -0.9726 -0.4139
    5CHTO  H100 1900   7.210   2.207   1.515  0.3792 -0.3740  0.4578
    5CHTO   C57 1901   7.026   2.256   1.751 -0.7995  0.9652  0.0770
    5CHTO  H114 1902   6.974   2.344   1.712 -2.1053  0.7575  1.2868
    5CHTO   N10 1903   7.156   2.299   1.813  0.4232  0.2613  0.0943
    5CHTO  H106 1904   7.126   2.343   1.907  1.9153 -1.3862  1.3745
    5CHTO  H107 1905   7.208   2.374   1.754  0.9690  0.0987  0.3620
    5CHTO   C58 1906   6.939   2.188   1.853  0.3042  0.4495  0.7036
    5CHTO  H115 1907   6.995   2.103   1.897  0.2702 -0.3470 -0.7511
    5CHTO   O37 1908   6.821   2.129   1.794  0.3938 -0.5014 -0.3292
    5CHTO   C59 1909   6.847   2.024   1.703  0.1440  0.2968  0.3757
    5CHTO  H116 1910   6.890   1.940   1.757 -0.5178 -2.0959 -2.6388
    5CHTO   C70 1911   6.712   1.977   1.652  0.4430 -0.1464  0.3666
    5CHTO   O46 1912   6.653   1.877   1.738 -0.3100  0.1978 -0.2097
    5CHTO  H103 1913   6.563   1.877   1.710 -0.5438 -0.7916  0.5108
    5CHTO   O39 1914   6.872   2.294   1.979 -0.5872 -0.0333 -0.1024
    5CHTO   C60 1915   6.743   2.346   1.948  0.1107 -0.0473 -0.0351
    5CHTO  H117 1916   6.717   2.338   1.842  1.4747  0.1111 -0.3883
    5CHTO   C62 1917   6.641   2.266   2.028 -0.2425  0.2680 -0.3594
    5CHTO  H119 1918   6.652   2.161   1.992 -3.4141 -0.3879  0.4903
    5CHTO   O43 1919   6.670   2.273   2.169  0.8198 -0.2839 -0.3925
    5CHTO  H101 1920   6.592   2.239   2.209  1.6349 -2.1841 -0.3345
    5CHTO   C66 1921   6.487   2.306   1.990  0.1180 -0.0959 -0.0785
    5CHTO  H123 1922   6.473   2.277   1.886  1.3370 -3.2701  0.5849
    5CHTO   N12 1923   6.380   2.227   2.067 -0.7756 -0.4964  0.3899
    5CHTO  H110 1924   6.421   2.162   2.143 -1.0470 -2.2996 -0.9531
    5CHTO  H111 1925   6.310   2.174   2.004 -0.1526  1.0667 -1.6839
    5CHTO   C69 1926   6.465   2.455   2.014  0.1302 -0.3145 -0.3296
    5CHTO  H126 1927   6.462   2.474   2.123  1.8750  1.2261 -0.5310
    5CHTO   O41 1928   6.580   2.524   1.938  0.2772  0.3193  0.0004
    5CHTO   C64 1929   6.719   2.490   1.987  0.0926 -0.0335  0.0845
    5CHTO  H121 1930   6.723   2.508   2.097  0.5202  0.8034 -0.0670
    5CHTO   C71 1931   6.825   2.585   1.930  0.0777 -0.0944  0.0090
    5CHTO   O47 1932   6.826   2.722   1.964  0.0770 -0.0022  0.7081
    5CHTO  H104 1933   6.780   2.730   2.045 -2.0363 -1.5242 -0.3034
    5CHTO   O34 1934   6.332   2.529   1.961  0.3068  0.6490 -0.0867
    5CHTO   C49 1935   6.293   2.697   1.959 -0.0623  0.1315 -0.1127
    5CHTO   H91 1936   6.350   2.742   1.879 -0.6586 -0.1171 -0.6851
    5CHTO   C47 1937   6.335   2.762   2.089 -0.0700  0.0182 -0.1369
    5CHTO   H89 1938   6.338   2.872   2.076 -1.3863  0.1163  0.3757
    5CHTO   O33 1939   6.480   2.726   2.110  0.1536 -0.5504 -0.0752
    5CHTO   H70 1940   6.502   2.746   2.199  1.1582  1.2028 -0.7028
    5CHTO   C45 1941   6.255   2.711   2.216  0.3150 -0.0043  0.0554
    5CHTO   H87 1942   6.255   2.602   2.221 -0.2294  0.0979  2.7844
    5CHTO    N8 1943   6.313   2.768   2.338 -0.5781 -0.4430  0.8348
    5CHTO   H75 1944   6.404   2.820   2.313 -0.7040  0.4166  2.0823
    5CHTO   H76 1945   6.241   2.833   2.384 -0.7608 -0.6649  0.8604
    5CHTO   C43 1946   6.102   2.735   2.193  0.3418 -0.0460  0.1392
    5CHTO   H85 1947   6.054   2.678   2.272 -2.7111  0.7812 -1.0100
    5CHTO   O29 1948   6.057   2.692   2.064  0.1316  0.3143 -0.1387
    5CHTO   C50 1949   6.136   2.720   1.945 -0.4580  0.5657  0.2221
    5CHTO   H92 1950   6.090   2.656   1.867 -1.7030  2.0810 -0.3240
    5CHTO   C54 1951   6.099   2.860   1.891 -0.2319 -0.4630 -0.8881
    5CHTO   O36 1952   5.993   2.857   1.796 -0.9423  0.0954 -0.3300
    5CHTO   H72 1953   6.024   2.820   1.715  0.7278  1.6927 -0.4526
    5CHTO   O27 1954   6.055   2.873   2.197  0.1651 -0.0637 -0.4665
    5CHTO   C37 1955   5.953   2.968   2.234  0.5659  0.1832  0.1376
    5CHTO   H79 1956   5.979   3.069   2.199 -1.7846  1.1292  1.0453
    5CHTO   C38 1957   5.817   2.932   2.165  0.6196 -0.2487 -0.5018
    5CHTO   H80 1958   5.788   2.829   2.192  0.8840 -0.8505 -2.4243
    5CHTO   O31 1959   5.824   2.941   2.023  0.8337  0.1663  0.5796
    5CHTO   H68 1960   5.839   3.024   1.981  1.6066 -0.5288 -0.5338
    5CHTO   C39 1961   5.701   3.026   2.223 -0.1438 -0.0774  0.8734
    5CHTO   H81 1962   5.725   3.129   2.198  1.7506 -0.7136 -0.0457
    5CHTO    N7 1963   5.562   2.990   2.174 -0.7361  0.0767  0.2926
    5CHTO   H73 1964   5.480   3.048   2.215 -0.6527 -0.1231  0.7405
    5CHTO   H74 1965   5.548   2.995   2.067 -1.3592 -3.0922  0.1752
    5CHTO   C40 1966   5.707   3.022   2.383 -0.3312  0.5800 -0.3608
    5CHTO   H82 1967   5.672   2.926   2.422 -2.3732  1.1439 -0.7144
    5CHTO   O26 1968   5.837   3.055   2.429  0.0822 -1.1830 -0.2613
    5CHTO   C41 1969   5.942   2.973   2.384 -0.1255 -0.0975  0.0918
    5CHTO   H83 1970   5.938   2.868   2.417 -3.2740 -1.0335 -2.9640
    5CHTO   C52 1971   6.070   3.045   2.440  0.4508  0.1650  0.2089
    5CHTO   O35 1972   6.081   3.030   2.608  0.3000  0.4425  0.3355
    5CHTO   H71 1973   6.159   3.077   2.630 -0.7963  2.0224  0.9530
    5CHTO   O28 1974   5.619   3.129   2.437 -0.1705  0.3612  0.0212
    5CHTO   C42 1975   5.548   3.114   2.567 -0.4325 -0.3847 -0.4172
    5CHTO   H84 1976   5.473   3.192   2.554 -1.2619 -1.3120 -1.2340
    5CHTO   C44 1977   5.627   3.154   2.694  0.6318  0.1157 -0.2043
    5CHTO   H86 1978   5.723   3.195   2.662 -0.3461  0.6293 -2.5645
    5CHTO   O32 1979   5.579   3.286   2.736 -0.1938 -0.3361  0.0859
    5CHTO   H69 1980   5.573   3.302   2.828  0.3927  2.1610 -0.2665
    5CHTO   C48 1981   5.651   3.055   2.812  0.3890  0.5026  0.2419
    5CHTO   H90 1982   5.570   3.069   2.884 -0.1246 -0.5922 -0.1054
    5CHTO    N9 1983   5.777   3.068   2.896  0.0959 -0.4734  0.3750
    5CHTO   H77 1984   5.755   3.001   2.978  0.3247 -0.9658  0.0306
    5CHTO   H78 1985   5.781   3.172   2.926 -1.5192 -0.6921  1.4161
    5CHTO   C51 1986   5.642   2.902   2.760 -0.3594 -0.3440 -0.2129
    5CHTO   H93 1987   5.715   2.891   2.679  0.1298  1.7734 -0.0901
    5CHTO   O30 1988   5.505   2.890   2.716  0.5990 -0.3702 -0.1161
    5CHTO   C46 1989   5.465   2.985   2.588  0.8356  0.2746  0.8845
    5CHTO   H88 1990   5.471   2.917   2.503  0.7768  2.6274 -1.0817
    5CHTO   C53 1991   5.318   3.027   2.609  0.1630 -0.4612  0.4337
    5CHTO   O72 1992   5.235   2.913   2.656 -0.2497 -0.5294 -0.4260
    5CHTO  H199 1993   5.228   2.914   2.749 -1.7856 -0.7227 -0.5285
    5CHTO   O22 1994   5.647   2.802   2.858 -0.1835  0.2210  0.2357
    5CHTO   C31 1995   5.672   2.658   2.821  0.0758  0.0950  0.3790
    5CHTO   H59 1996   5.635   2.599   2.907  0.9047  0.6145  1.0984
    5CHTO   C29 1997   5.599   2.614   2.693  0.2562  0.7945 -0.2186
    5CHTO   H57 1998   5.623   2.691   2.618 -1.8162 -0.5271 -2.3015
    5CHTO   O21 1999   5.460   2.615   2.722 -0.0582  0.1572  0.4286
    5CHTO   H37 2000   5.442   2.707   2.725 -3.9148 -0.4551 -1.0335
    5CHTO   C27 2001   5.650   2.474   2.645 -0.5786 -0.4102 -0.6306
    5CHTO   H55 2002   5.627   2.403   2.725 -2.7235  0.3242 -0.5772
    5CHTO    N5 2003   5.591   2.421   2.524 -0.6796 -0.1315 -0.7682
    5CHTO   H43 2004   5.639   2.463   2.436 -0.0384 -2.3007 -1.4892
    5CHTO   H44 2005   5.486   2.446   2.520 -0.2733  1.6996 -0.3490
    5CHTO   C25 2006   5.804   2.472   2.642 -0.6761  0.3974 -0.1913
    5CHTO   H53 2007   5.846   2.525   2.555  0.7665  0.0518  0.2817
    5CHTO   O17 2008   5.863   2.515   2.769 -0.2604 -0.3409 -0.1276
    5CHTO   C32 2009   5.823   2.646   2.811 -0.7197  0.3585 -0.5865
    5CHTO   H60 2010   5.858   2.721   2.741  1.6157  0.2127  0.3885
    5CHTO   C36 2011   5.885   2.675   2.951  0.5341  0.4951 -0.1544
    5CHTO   O25 2012   6.030   2.667   2.949 -0.1566  0.4245 -0.1695
    5CHTO   H40 2013   6.055   2.702   3.032  0.6310  0.0970 -0.2674
    5CHTO   O15 2014   5.859   2.338   2.626 -0.3105 -0.4562 -0.3022
    5CHTO   C19 2015   5.979   2.266   2.626  0.2105  0.3197  0.2132
    5CHTO   H47 2016   6.039   2.320   2.701  1.5068  0.0487 -0.6282
    5CHTO   C20 2017   5.959   2.118   2.672 -0.1368 -0.4207  0.4986
    5CHTO   H48 2018   5.878   2.070   2.615 -1.7985  1.3304  1.3011
    5CHTO   O19 2019   5.899   2.119   2.807  0.3208 -0.0489  0.0131
    5CHTO   H35 2020   5.808   2.135   2.794  0.7980  3.2218  0.0883
    5CHTO   C21 2021   6.094   2.030   2.667  0.4653 -0.7473 -0.3153
    5CHTO   H49 2022   6.150   2.052   2.758 -2.0380 -0.6204  1.2469
    5CHTO    N4 2023   6.077   1.885   2.670  0.3434  0.0383 -0.5577
    5CHTO   H41 2024   6.054   1.858   2.772 -0.7833  0.8923 -0.5667
    5CHTO   H42 2025   5.986   1.865   2.615  0.0625  0.7598 -0.3549
    5CHTO   C22 2026   6.194   2.071   2.550 -0.7956 -0.4763 -0.4394
    5CHTO   H50 2027   6.189   2.007   2.462  1.8629 -0.3260 -0.7429
    5CHTO   O14 2028   6.192   2.204   2.514 -0.1277  0.1284  0.7614
    5CHTO   C23 2029   6.064   2.268   2.494  0.2155  0.2647  0.2194
    5CHTO   H51 2030   6.015   2.210   2.414 -0.5458 -1.9257  2.2185
    5CHTO   C34 2031   6.102   2.408   2.448 -0.5344  0.1743 -0.0044
    5CHTO   O23 2032   6.152   2.404   2.318  0.1239 -0.1165  0.0358
    5CHTO   H38 2033   6.220   2.341   2.301 -1.7588 -2.1261 -0.2542
    5CHTO   O16 2034   6.328   2.069   2.606 -0.3254  0.1454  0.0105
    5CHTO   C24 2035   6.440   2.010   2.511  0.3555  0.0407 -0.2256
    5CHTO   H52 2036   6.407   2.005   2.408 -1.0801  1.5454  0.1459
    5CHTO   C26 2037   6.488   1.877   2.565  0.4771  1.0009  0.2222
    5CHTO   H54 2038   6.506   1.880   2.674  1.7367 -0.0536  0.0499
    5CHTO   O20 2039   6.368   1.780   2.569 -0.2961 -0.0245 -0.5675
    5CHTO   H36 2040   6.399   1.702   2.611 -0.3337  0.2003 -0.1061
    5CHTO   C30 2041   6.619   1.822   2.496  0.4895  0.0581  0.5071
    5CHTO   H58 2042   6.595   1.788   2.394  1.5868 -0.1326  0.3044
    5CHTO    N6 2043   6.672   1.696   2.560 -0.0947  0.3345 -1.7013
    5CHTO   H45 2044   6.715   1.710   2.658 -1.6276  1.4789 -1.1562
    5CHTO   H46 2045   6.746   1.652   2.495  0.3115 -2.8938  0.8033
    5CHTO   C33 2046   6.723   1.938   2.488 -0.2784  0.6537  0.2894
    5CHTO   H61 2047   6.763   1.966   2.586  0.9451 -1.6899  0.5013
    5CHTO   O18 2048   6.658   2.053   2.427  0.1441  0.5632 -0.5449
    5CHTO   C28 2049   6.565   2.111   2.515  0.4067 -0.1080  0.0989
    5CHTO   H56 2050   6.605   2.116   2.617 -0.7971  2.3024  0.5068
    5CHTO   C35 2051   6.515   2.256   2.476 -0.2044  0.1696  0.3052
    5CHTO   O24 2052   6.465   2.322   2.597 -0.4096  0.5409  0.0618
    5CHTO   H39 2053   6.439   2.407   2.567 -1.7482  0.2554  0.3651
    5CHTO    O9 2054   6.841   1.902   2.408 -0.0012  0.2590  0.1010
    5CHTO   C13 2055   6.809   1.873   2.250  0.1107  0.3827  0.3116
    5CHTO   H26 2056   6.711   1.918   2.225 -0.8000  0.0334  3.0057
    5CHTO   C11 2057   6.809   1.712   2.224 -0.0741 -0.5535  0.2686
    5CHTO   H24 2058   6.717   1.656   2.247 -1.4008  0.5035 -2.2397
    5CHTO    O8 2059   6.909   1.655   2.310  0.9199 -0.0567 -0.6647
    5CHTO    H3 2060   6.921   1.706   2.387  0.9577  0.2061 -0.8466
    5CHTO    C9 2061   6.853   1.689   2.075  0.3342  0.6678 -0.4711
    5CHTO   H22 2062   6.777   1.738   2.013  1.9385  1.3138 -1.9772
    5CHTO    N2 2063   6.835   1.548   2.026  0.4460 -0.3575  0.5460
    5CHTO   H10 2064   6.749   1.502   2.074  0.6316 -1.5216 -0.2025
    5CHTO   H11 2065   6.925   1.494   2.048  0.9938  0.6253  0.7344
    5CHTO    C7 2066   6.993   1.758   2.037 -0.4723 -0.3018 -0.5411
    5CHTO   H20 2067   6.975   1.798   1.935  1.7105  1.6313 -0.2033
    5CHTO    O4 2068   7.021   1.870   2.125 -0.1454  0.0793 -0.4530
    5CHTO   C14 2069   6.910   1.952   2.154 -0.1500  0.1241  0.0194
    5CHTO   H27 2070   6.863   1.980   2.057  0.4685  1.8963  0.2160
    5CHTO   C18 2071   6.955   2.082   2.221  0.3294  0.4164 -0.3709
    5CHTO   O13 2072   7.051   2.149   2.143 -0.1510  0.1635 -0.1995
    5CHTO    H7 2073   7.108   2.089   2.099 -2.2756 -3.0473  1.2178
    5CHTO    O2 2074   7.135   1.653   2.028 -0.2353  0.4089  0.4417
    5CHTO    C1 2075   7.205   1.687   1.902 -0.0443 -0.1158 -0.1308
    5CHTO   H14 2076   7.190   1.795   1.886  1.0528  0.2101  0.9763
    5CHTO    C2 2077   7.144   1.613   1.780 -0.3377 -0.1393 -0.2030
    5CHTO   H15 2078   7.118   1.510   1.806  1.4360 -0.8990 -1.3074
    5CHTO    O6 2079   7.018   1.678   1.741  0.4122  0.2515 -0.1100
    5CHTO    H1 2080   6.948   1.617   1.728  0.0786  0.3186  1.2960
    5CHTO    C3 2081   7.232   1.603   1.652  0.4936 -0.0410 -0.2614
    5CHTO   H16 2082   7.245   1.697   1.597  2.3394 -1.1091 -1.7200
    5CHTO    N1 2083   7.166   1.506   1.554 -0.0534  0.1841 -0.1543
    5CHTO    H8 2084   7.192   1.402   1.567 -0.9387 -0.1177 -0.7220
    5CHTO    H9 2085   7.181   1.529   1.449  1.1152 -0.8717 -0.2263
    5CHTO    C4 2086   7.378   1.556   1.692  0.2932  0.0124 -0.8956
    5CHTO   H17 2087   7.374   1.455   1.733  0.2479  1.4127  2.7719
    5CHTO    O1 2088   7.433   1.646   1.797 -0.8056  0.0948  0.4285
    5CHTO    C5 2089   7.360   1.661   1.924 -0.2395 -0.1434  0.3265
    5CHTO   H18 2090   7.378   1.566   1.974 -0.0075 -1.0223 -1.3714
    5CHTO   C16 2091   7.428   1.776   1.997 -0.4271  0.6723  0.1791
    5CHTO   O11 2092   7.432   1.899   1.921  0.0040 -0.1407  0.2805
    5CHTO    H5 2093   7.458   1.973   1.973 -1.0527  0.6845 -0.3516
    5CHTO    O3 2094   7.472   1.569   1.590 -0.3682 -0.3486  0.2175
    5CHTO    C6 2095   7.587   1.477   1.577 -0.5311  0.2082 -0.0025
    5CHTO   H19 2096   7.616   1.434   1.673 -1.1392  0.3011  0.2213
    5CHTO    C8 2097   7.554   1.362   1.476  0.8460  0.1787 -0.1636
    5CHTO   H21 2098   7.492   1.406   1.398 -1.9980 -1.3821  1.1371
    5CHTO    O7 2099   7.472   1.264   1.547 -0.0612 -0.3987  0.1560
    5CHTO    H2 2100   7.384   1.297   1.547 -0.7563 -2.2443 -0.1467
    5CHTO   C12 2101   7.675   1.288   1.412  0.2396  0.1602 -0.3104
    5CHTO   H25 2102   7.700   1.207   1.483  0.5383  1.4159  1.0528
    5CHTO    N3 2103   7.628   1.211   1.290  0.0369 -0.6770 -0.1651
    5CHTO   H12 2104   7.708   1.156   1.243  1.4838  1.8288 -0.7289
    5CHTO   H13 2105   7.596   1.292   1.226  1.2345  0.1054  0.1992
    5CHTO   C15 2106   7.792   1.388   1.387  0.5001  0.4203  0.4927
    5CHTO   H28 2107   7.770   1.446   1.298 -2.0925  0.0786  0.8665
    5CHTO   O10 2108   7.932   1.309   1.351 -0.7323  0.2585 -0.0029
    5CHTO    H4 2109   7.978   1.361   1.288  1.3422 -1.2156  0.2384
    5CHTO    O5 2110   7.825   1.470   1.500 -0.3275 -0.5961  0.0738
    5CHTO   C10 2111   7.712   1.559   1.532  0.0688  0.2095  0.1408
    5CHTO   H23 2112   7.697   1.619   1.442 -0.8390  1.8293  1.3514
    5CHTO   C17 2113   7.764   1.651   1.651  0.1306 -0.6769  0.3262
    5CHTO   O12 2114   7.860   1.748   1.625 -0.1847 -0.7463  0.1693
    5CHTO    H6 2115   7.914   1.729   1.551 -1.8041 -2.4268 -0.6043
    6CHTO  H203 2116   7.228   4.217   0.032  1.3524  0.4004  1.3319
    6CHTO   O82 2117   7.178   4.232   0.110 -0.3428 -0.4426  0.4311
    6CHTO  C123 2118   7.072   4.325   0.086 -0.0065  0.0297 -0.6072
    6CHTO  H227 2119   7.111   4.412   0.031  0.2654  0.4547  0.2425
    6CHTO   O77 2120   6.965   4.254   0.013 -0.1980  0.3694  0.5355
    6CHTO  C118 2121   6.858   4.337  -0.024  0.2673  0.3339  0.3969
    6CHTO  H222 2122   6.896   4.416  -0.091  0.4845  0.7567  1.0174
    6CHTO  C125 2123   6.750   4.249  -0.114 -0.3444 -0.2827 -0.4145
    6CHTO   O84 2124   6.800   4.202  -0.242 -0.0463 -0.2093  0.0225
    6CHTO  H205 2125   6.877   4.151  -0.227  0.0592 -0.6521 -1.8855
    6CHTO  C114 2126   6.781   4.397   0.099 -0.4306  0.8857 -0.9799
    6CHTO  H218 2127   6.736   4.312   0.151  0.3156  0.6110 -0.7845
    6CHTO  C116 2128   6.886   4.466   0.193  0.3348 -0.6910  0.0581
    6CHTO  H220 2129   6.915   4.563   0.149  0.9180 -0.6513  0.5195
    6CHTO   O79 2130   6.816   4.500   0.318  0.1083 -0.4420 -0.7740
    6CHTO  H201 2131   6.777   4.584   0.303 -0.9338 -0.9291 -0.8390
    6CHTO  C120 2132   7.017   4.384   0.220  0.2292 -0.0795 -0.6388
    6CHTO  H224 2133   6.980   4.299   0.281 -0.5463  0.6482 -0.0807
    6CHTO   N21 2134   7.126   4.459   0.292 -0.0188  0.1669 -0.0450
    6CHTO  H211 2135   7.095   4.464   0.395 -3.4474 -0.5765 -0.9967
    6CHTO  H212 2136   7.225   4.416   0.295 -1.4286 -3.2399  0.1644
    6CHTO   O75 2137   6.678   4.491   0.052 -0.0816  0.0326  0.3667
    6CHTO  C112 2138   6.527   4.488   0.121 -0.3297 -0.4635  0.3755
    6CHTO  H216 2139   6.537   4.481   0.231  1.5918 -1.8953  0.1346
    6CHTO   O73 2140   6.461   4.373   0.066 -0.0805  0.4466 -0.3387
    6CHTO  C113 2141   6.337   4.348   0.135 -0.2486  0.3995  0.1395
    6CHTO  H217 2142   6.364   4.338   0.242  1.6825  0.3058 -0.3411
    6CHTO  C124 2143   6.268   4.223   0.087 -0.1250  1.0827 -0.3185
    6CHTO   O83 2144   6.333   4.095   0.121 -0.0778 -0.3891  0.0801
    6CHTO  H204 2145   6.283   4.024   0.086 -0.5170 -0.1852  0.2942
    6CHTO  C109 2146   6.238   4.462   0.120  1.0552  0.2994 -0.2195
    6CHTO  H213 2147   6.206   4.462   0.014 -2.2156  0.8533  0.7174
    6CHTO  C110 2148   6.301   4.599   0.155 -0.4603 -0.1717  0.3529
    6CHTO  H214 2149   6.316   4.613   0.262 -0.2195 -1.8418  0.5471
    6CHTO   O78 2150   6.205   4.699   0.110 -0.1586  0.0305  0.4558
    6CHTO  H200 2151   6.208   4.785   0.148  0.0862  1.2371 -2.1700
    6CHTO  C111 2152   6.444   4.621   0.093  0.7231 -0.5011 -0.3053
    6CHTO  H215 2153   6.428   4.630  -0.015 -0.7414 -2.9780 -0.3402
    6CHTO   N19 2154   6.528   4.741   0.132 -0.1273 -0.1448 -0.5991
    6CHTO  H207 2155   6.472   4.825   0.095  0.0349 -0.0167 -0.5554
    6CHTO  H208 2156   6.631   4.727   0.104  0.0016  0.2140 -0.3115
    6CHTO   O74 2157   6.108   4.438   0.184  0.3161 -0.0077  0.2054
    6CHTO  C115 2158   6.101   4.388   0.339  0.2025 -0.1996 -0.6993
    6CHTO  H219 2159   6.190   4.328   0.359 -1.2771 -3.5444 -3.7108
    6CHTO   O76 2160   6.101   4.506   0.431  0.3527  0.8977 -0.1524
    6CHTO  C122 2161   5.992   4.593   0.406 -0.2167 -0.7140  0.4018
    6CHTO  H226 2162   6.017   4.639   0.310 -1.8527  2.0406  1.2615
    6CHTO  C126 2163   5.992   4.709   0.513  0.2596 -0.1449  0.6327
    6CHTO   O85 2164   6.007   4.670   0.647  0.4552 -0.9474  0.3617
    6CHTO  H206 2165   6.038   4.739   0.703  1.2475 -0.4578 -0.6693
    6CHTO  C121 2166   5.858   4.514   0.408 -0.6379 -0.6629 -0.1267
    6CHTO  H225 2167   5.803   4.556   0.494  0.6274 -0.8581  0.7999
    6CHTO   O81 2168   5.793   4.539   0.281  0.0627 -0.1781  0.2546
    6CHTO  H202 2169   5.721   4.480   0.273  0.3757 -0.9733  3.0387
    6CHTO  C119 2170   5.871   4.359   0.437  0.5972  0.1655 -0.6357
    6CHTO  H223 2171   5.902   4.342   0.540 -2.4355 -0.4687  0.1956
    6CHTO  C117 2172   5.976   4.292   0.340  0.7826  0.1562  0.4248
    6CHTO  H221 2173   5.932   4.285   0.240 -2.1960  0.1149  1.6963
    6CHTO   N20 2174   6.008   4.147   0.368  0.3999  0.9738  0.6015
    6CHTO  H209 2175   5.932   4.071   0.381  0.4281  0.6909 -0.7638
    6CHTO  H210 2176   6.105   4.121   0.328 -0.7227 -3.5898  0.5229
    6CHTO   O80 2177   5.732   4.284   0.434 -0.2076  0.1845  0.2571
    6CHTO  C103 2178   5.668   4.233   0.550 -0.5632  0.2117 -0.7030
    6CHTO  H190 2179   5.741   4.183   0.615 -2.0748 -0.2084  0.6987
    6CHTO  C101 2180   5.593   4.329   0.650  0.9113 -0.2820  0.1249
    6CHTO  H188 2181   5.516   4.387   0.600  0.5206 -1.5766 -0.8045
    6CHTO   O68 2182   5.698   4.444   0.709 -0.2031 -0.5681  0.1288
    6CHTO  H168 2183   5.673   4.532   0.687 -0.7788 -0.8768 -0.4662
    6CHTO   C99 2184   5.514   4.245   0.768 -0.2986 -0.1978 -0.4627
    6CHTO  H186 2185   5.588   4.201   0.838  3.1643  2.6991 -2.1734
    6CHTO   N17 2186   5.421   4.340   0.851 -1.1591  0.3126  0.2109
    6CHTO  H174 2187   5.344   4.288   0.906 -1.1447  2.2846  2.1409
    6CHTO  H175 2188   5.474   4.411   0.913 -0.2647 -0.6885  0.6138
    6CHTO   C97 2189   5.427   4.127   0.709 -0.0121  0.1093  0.5163
    6CHTO  H184 2190   5.335   4.164   0.662  2.3083  1.2083 -3.3461
    6CHTO   O64 2191   5.510   4.050   0.612  0.5910  0.0148  0.6558
    6CHTO  C104 2192   5.568   4.125   0.503 -0.2180  0.1584 -0.4800
    6CHTO  H191 2193   5.494   4.173   0.439 -0.2015 -0.3409 -0.8750
    6CHTO  C108 2194   5.641   4.016   0.417  0.6651 -0.0403 -0.1238
    6CHTO   O71 2195   5.553   3.964   0.317 -0.5474 -0.1470  0.3555
    6CHTO  H171 2196   5.553   4.014   0.237  1.2774 -1.8873 -0.7930
    6CHTO   O62 2197   5.384   4.039   0.818  0.3547 -0.7906  0.4079
    6CHTO   C91 2198   5.247   4.010   0.848  0.3915 -0.0994  0.2839
    6CHTO  H178 2199   5.194   4.096   0.808 -0.1335 -0.7472 -0.4395
    6CHTO   C92 2200   5.226   4.015   1.007 -0.2017 -0.0161 -0.3604
    6CHTO  H179 2201   5.263   4.111   1.044 -0.3171 -0.9427  2.2239
    6CHTO   O66 2202   5.082   4.029   1.030  0.1429  0.2262  0.6465
    6CHTO  H166 2203   5.018   3.981   0.981  0.8064  1.0425 -1.0529
    6CHTO   C93 2204   5.268   3.882   1.085  0.0082  0.1752  1.2924
    6CHTO  H180 2205   5.198   3.861   1.167 -1.2143  0.5397  0.3611
    6CHTO   N16 2206   5.403   3.891   1.142 -0.0637 -0.0521 -0.1746
    6CHTO  H172 2207   5.465   3.879   1.054 -0.3305 -2.1679 -0.1012
    6CHTO  H173 2208   5.423   3.989   1.183  0.1021  0.6838 -1.9236
    6CHTO   C94 2209   5.265   3.757   0.982 -0.2953 -0.4655 -0.2610
    6CHTO  H181 2210   5.356   3.747   0.922  1.1248 -1.6705  1.9940
    6CHTO   O61 2211   5.159   3.771   0.887  0.4558  0.2649 -0.1315
    6CHTO   C95 2212   5.202   3.871   0.790  0.2751 -1.1413  0.4113
    6CHTO  H182 2213   5.289   3.836   0.733  1.1211  0.5837  0.6253
    6CHTO  C106 2214   5.089   3.892   0.680 -0.3632  0.4204  0.1247
    6CHTO   O69 2215   5.063   3.782   0.593  0.1637 -0.4086  0.1763
    6CHTO  H169 2216   5.044   3.800   0.503 -1.0753 -1.3135  0.2386
    6CHTO   O63 2217   5.237   3.620   1.059  0.1458  0.5117 -0.6381
    6CHTO   C96 2218   5.289   3.486   0.973  0.0164  0.6145  0.1254
    6CHTO  H183 2219   5.354   3.521   0.892 -0.8271 -1.4265 -1.4834
    6CHTO   C98 2220   5.178   3.401   0.905 -0.2395 -0.1982  0.1124
    6CHTO  H185 2221   5.108   3.369   0.983  0.6492 -1.5718  0.3626
    6CHTO   O67 2222   5.103   3.483   0.817 -0.2049 -0.3529  0.8767
    6CHTO  H167 2223   5.138   3.489   0.730  0.3976 -1.7454  0.9975
    6CHTO  C102 2224   5.241   3.270   0.833 -0.0360 -0.2316  0.1045
    6CHTO  H189 2225   5.248   3.296   0.727 -0.7405 -0.2991  0.0376
    6CHTO   N18 2226   5.148   3.159   0.837 -0.3809  0.3249 -0.7288
    6CHTO  H176 2227   5.170   3.093   0.920  1.5945  0.5167 -1.0837
    6CHTO  H177 2228   5.164   3.105   0.745  0.7260  0.8896 -0.8715
    6CHTO  C105 2229   5.386   3.246   0.880 -0.7608  0.2783 -0.2502
    6CHTO  H192 2230   5.414   3.144   0.853 -0.3991  0.3300 -0.0753
    6CHTO   O65 2231   5.412   3.263   1.026 -0.7957  0.0662  0.4822
    6CHTO  C100 2232   5.387   3.399   1.059 -0.1497  0.5128 -0.1642
    6CHTO  H187 2233   5.349   3.396   1.162  0.6738  2.2620  0.2222
    6CHTO  C107 2234   5.528   3.469   1.083  0.1073 -1.0292 -0.5458
    6CHTO   O70 2235   5.591   3.411   1.195  0.7594 -0.1886 -0.2186
    6CHTO  H170 2236   5.612   3.320   1.179 -0.7548 -0.5707 -0.0788
    6CHTO   O57 2237   5.473   3.335   0.789  0.1610  0.6249  0.2622
    6CHTO   C85 2238   5.568   3.281   0.697  0.6554 -0.7424 -0.7237
    6CHTO  H157 2239   5.516   3.210   0.630  1.2943 -2.6032  0.6790
    6CHTO   C83 2240   5.678   3.198   0.766 -0.2814  0.7170  0.5245
    6CHTO  H155 2241   5.639   3.100   0.793  1.9426  0.5415  3.3259
    6CHTO   O56 2242   5.710   3.267   0.894  0.0785 -0.4631 -0.4227
    6CHTO  H135 2243   5.792   3.313   0.898 -0.4861  0.9525 -3.8720
    6CHTO   C81 2244   5.808   3.171   0.681  0.7947  1.1340 -0.4007
    6CHTO  H153 2245   5.781   3.106   0.598  1.0296 -1.2552  1.3463
    6CHTO   N14 2246   5.910   3.092   0.750 -0.3921 -0.0522 -0.3884
    6CHTO  H141 2247   5.930   3.134   0.847  1.7884  0.2725 -0.9515
    6CHTO  H142 2248   6.001   3.074   0.698 -0.2111 -0.4895  0.0736
    6CHTO   C79 2249   5.857   3.312   0.633  0.7406  0.9263 -0.2100
    6CHTO  H151 2250   5.945   3.299   0.569 -0.0902 -1.8162 -0.8759
    6CHTO   O52 2251   5.754   3.370   0.549  0.0040  0.3960 -0.0072
    6CHTO   C86 2252   5.631   3.404   0.614 -0.2961  0.3879  0.7835
    6CHTO  H158 2253   5.662   3.493   0.672 -0.5860  2.6761 -2.4414
    6CHTO   C90 2254   5.530   3.464   0.511 -0.1280  0.3161  0.1481
    6CHTO   O60 2255   5.417   3.528   0.579  0.3976 -0.4628 -0.7408
    6CHTO  H138 2256   5.348   3.532   0.515  0.4859 -1.2377 -0.8954
    6CHTO   O50 2257   5.893   3.406   0.731  0.3729  0.3565 -0.1023
    6CHTO   C73 2258   5.950   3.450   0.859  0.0314  0.3272 -0.5481
    6CHTO  H145 2259   5.938   3.369   0.933  1.1331  0.0777 -0.6293
    6CHTO   C74 2260   5.866   3.574   0.927  0.6237  0.9427  0.6829
    6CHTO  H146 2261   5.759   3.551   0.935  1.0461 -1.4184 -0.0069
    6CHTO   O54 2262   5.923   3.577   1.064  0.3515 -0.0477  0.5354
    6CHTO  H133 2263   5.849   3.555   1.116 -0.1309  0.1492 -0.0643
    6CHTO   C75 2264   5.896   3.708   0.847 -0.7934 -0.0352 -0.4615
    6CHTO  H147 2265   5.845   3.704   0.750 -0.6348 -0.2999 -0.5334
    6CHTO   N13 2266   5.826   3.821   0.915  0.6836 -0.5609 -0.8649
    6CHTO  H139 2267   5.836   3.828   1.023 -0.3201 -0.6238 -0.7688
    6CHTO  H140 2268   5.724   3.846   0.892  0.4531 -0.7517 -0.0915
    6CHTO   C76 2269   6.053   3.731   0.834  0.0901  0.1787  0.6631
    6CHTO  H148 2270   6.094   3.744   0.935  1.1172  0.8628  0.1593
    6CHTO   O49 2271   6.117   3.613   0.782 -0.3678  0.3696  0.6115
    6CHTO   C77 2272   6.102   3.494   0.854 -0.2398 -0.3432 -0.0150
    6CHTO  H149 2273   6.147   3.507   0.953 -0.9036  1.4685  0.0855
    6CHTO   C88 2274   6.187   3.386   0.791  0.8446  0.1750  1.0848
    6CHTO   O58 2275   6.196   3.398   0.660 -0.1370  0.2022 -0.4147
    6CHTO  H136 2276   6.230   3.483   0.637  0.6779  0.2350  0.8929
    6CHTO   O51 2277   6.094   3.846   0.734 -0.1383 -0.1422  0.0640
    6CHTO   C78 2278   6.151   3.969   0.811  0.8247  0.3102 -0.3020
    6CHTO  H150 2279   6.137   3.971   0.921 -1.2331 -0.8801 -0.5275
    6CHTO   C80 2280   6.085   4.095   0.754 -0.4889 -0.2499  0.8948
    6CHTO  H152 2281   6.099   4.088   0.644  1.6519  1.8278  1.0065
    6CHTO   O55 2282   5.947   4.085   0.782  0.4282 -0.0835  0.4537
    6CHTO  H134 2283   5.911   4.055   0.701  3.2442  0.4286 -1.0525
    6CHTO   C84 2284   6.152   4.233   0.805  0.3664  0.5964 -0.3715
    6CHTO  H156 2285   6.122   4.230   0.909 -0.6954 -0.1533 -0.6903
    6CHTO   N15 2286   6.086   4.360   0.751  0.2096 -0.8614  0.8363
    6CHTO  H143 2287   5.998   4.394   0.801  1.6315  0.1841  2.6946
    6CHTO  H144 2288   6.146   4.449   0.742 -0.1246 -0.6111  1.1016
    6CHTO   C87 2289   6.307   4.226   0.782 -0.2513 -0.4533  1.4742
    6CHTO  H159 2290   6.320   4.232   0.674  0.7121 -0.1369  1.6092
    6CHTO   O53 2291   6.359   4.101   0.841 -0.3154 -0.0621  0.0085
    6CHTO   C82 2292   6.305   3.978   0.784  0.1020  0.5195  0.6784
    6CHTO  H154 2293   6.325   3.955   0.680 -0.4160 -1.4521  0.9906
    6CHTO   C89 2294   6.376   3.863   0.869  0.4406 -0.4889  0.1512
    6CHTO   O59 2295   6.328   3.858   1.008 -0.4099  0.5161  0.1956
    6CHTO  H137 2296   6.386   3.896   1.071 -0.1000 -0.5819  0.5852
    6CHTO   O45 2297   6.368   4.350   0.859 -0.6825  0.2344 -0.8178
    6CHTO   C67 2298   6.505   4.395   0.820  0.0763  0.3636  0.4167
    6CHTO  H124 2299   6.569   4.308   0.806 -0.6035 -0.2301  0.9569
    6CHTO   C65 2300   6.498   4.475   0.685 -0.0686  0.2449  0.6036
    6CHTO  H122 2301   6.392   4.488   0.661  0.0165 -0.8774 -0.4085
    6CHTO   O44 2302   6.542   4.395   0.572  0.2899 -0.0309 -0.0321
    6CHTO  H102 2303   6.558   4.451   0.499 -0.0192  3.0380  2.1537
    6CHTO   C63 2304   6.560   4.620   0.706  0.0244 -0.4792  0.7297
    6CHTO  H120 2305   6.500   4.672   0.781 -0.7372  0.0170 -0.2102
    6CHTO   N11 2306   6.543   4.713   0.589 -0.3483  0.1205  0.3189
    6CHTO  H108 2307   6.466   4.785   0.607 -0.8504 -0.3335 -0.0147
    6CHTO  H109 2308   6.517   4.651   0.506 -1.2037 -0.1909  0.8245
    6CHTO   C61 2309   6.697   4.609   0.770 -0.4425  0.1260  0.1583
    6CHTO  H118 2310   6.712   4.715   0.793  0.1388 -0.1219  0.9463
    6CHTO   O40 2311   6.697   4.544   0.893 -0.0686  0.4840 -0.1013
    6CHTO   C68 2312   6.567   4.482   0.941 -0.4229 -0.2771  0.0655
    6CHTO  H125 2313   6.504   4.559   0.990 -0.1769  0.4751 -0.7941
    6CHTO   C72 2314   6.609   4.387   1.055 -0.0287 -0.2439 -0.9465
    6CHTO   O48 2315   6.712   4.427   1.147 -0.0379 -0.0569  0.1052
    6CHTO  H105 2316   6.670   4.486   1.206  0.8267  1.7526 -1.0468
    6CHTO   O38 2317   6.796   4.556   0.679 -0.2607  0.7881  0.2029
    6CHTO   C55 2318   6.941   4.571   0.706  0.5177 -0.0945  0.4262
    6CHTO  H112 2319   6.957   4.607   0.808 -2.5795 -1.3764  1.4312
    6CHTO   C56 2320   7.011   4.668   0.601 -0.3227 -0.0793 -0.0138
    6CHTO  H113 2321   7.015   4.617   0.504  1.3519  1.2697 -0.6835
    6CHTO   O42 2322   6.933   4.788   0.602  0.0810 -0.5653  0.4923
    6CHTO  H100 2323   6.845   4.781   0.571  0.5255  0.4241 -1.0918
    6CHTO   C57 2324   7.157   4.699   0.642 -0.8292  0.0133 -0.3685
    6CHTO  H114 2325   7.167   4.749   0.739 -2.0580 -0.3715 -0.0367
    6CHTO   N10 2326   7.223   4.807   0.563 -0.0021  0.3127  0.1301
    6CHTO  H106 2327   7.180   4.792   0.465  0.1024 -1.2398  0.3089
    6CHTO  H107 2328   7.182   4.899   0.601  1.4723  0.9525  0.1858
    6CHTO   C58 2329   7.236   4.563   0.640 -0.8363  0.4181 -0.2017
    6CHTO  H115 2330   7.246   4.526   0.536 -0.2102  1.9228 -0.6869
    6CHTO   O37 2331   7.155   4.460   0.718  0.8483 -0.1151 -0.1490
    6CHTO   C59 2332   7.015   4.437   0.686 -0.3120 -0.3515 -0.4645
    6CHTO  H116 2333   7.004   4.402   0.584 -0.0260  0.4467 -0.7742
    6CHTO   C70 2334   6.964   4.323   0.774  0.0662 -0.5418 -0.3753
    6CHTO   O46 2335   6.835   4.280   0.735 -0.0477 -0.0262 -0.0013
    6CHTO  H103 2336   6.852   4.260   0.645  3.0897 -1.7098  0.8800
    6CHTO   O39 2337   7.374   4.573   0.716  0.0242 -0.2689 -0.3951
    6CHTO   C60 2338   7.489   4.510   0.658  0.8890 -0.0184  0.0190
    6CHTO  H117 2339   7.459   4.410   0.625  0.9925 -0.0518  0.0260
    6CHTO   C62 2340   7.523   4.576   0.525  0.4098  0.3448 -0.1656
    6CHTO  H119 2341   7.432   4.565   0.462 -0.4680  5.3609  0.0347
    6CHTO   O43 2342   7.549   4.714   0.559  0.2002  0.1814  0.0854
    6CHTO  H101 2343   7.474   4.768   0.573  0.6993  1.1492 -0.8514
    6CHTO   C66 2344   7.644   4.503   0.452  0.4569 -0.1476  0.2894
    6CHTO  H123 2345   7.617   4.401   0.425  1.3526 -0.5440  0.8696
    6CHTO   N12 2346   7.683   4.569   0.328 -0.1370  0.1932  0.7299
    6CHTO  H110 2347   7.706   4.667   0.365 -2.4874  0.5735  1.2970
    6CHTO  H111 2348   7.774   4.524   0.291 -0.0401  1.2598 -0.3439
    6CHTO   C69 2349   7.761   4.508   0.553 -0.3890 -0.2189  0.0443
    6CHTO  H126 2350   7.783   4.614   0.576 -0.7474  0.1248 -1.1646
    6CHTO   O41 2351   7.720   4.431   0.681 -0.4977  0.4523 -0.2264
    6CHTO   C64 2352   7.610   4.497   0.747  0.2879 -0.4653  0.2768
    6CHTO  H121 2353   7.638   4.601   0.772 -0.9361  0.1629 -0.8967
    6CHTO   C71 2354   7.584   4.415   0.871  0.6981  0.0807  0.3619
    6CHTO   O47 2355   7.482   4.465   0.949  0.0895  0.0645  0.3728
    6CHTO  H104 2356   7.498   4.420   1.030  0.3156 -1.6393 -0.6110
    6CHTO   O34 2357   7.898   4.462   0.502 -0.1930 -0.0089 -0.3240
    6CHTO   C49 2358   8.048   4.527   0.526  0.0985  0.2690 -0.7540
    6CHTO   H91 2359   8.102   4.493   0.438 -1.1760 -0.0875 -1.4182
    6CHTO   C47 2360   8.128   4.480   0.648  0.0176  0.5514 -0.5653
    6CHTO   H89 2361   8.234   4.512   0.644  0.6314 -1.4786 -1.7167
    6CHTO   O33 2362   8.125   4.335   0.636 -0.0638 -0.4465 -0.1179
    6CHTO   H70 2363   8.076   4.295   0.705  2.1074 -0.8027  1.2523
    6CHTO   C45 2364   8.066   4.542   0.779  0.5298 -0.0807  0.4329
    6CHTO   H87 2365   7.958   4.521   0.778  0.4364  0.3320 -2.9079
    6CHTO    N8 2366   8.126   4.482   0.898 -0.0720  0.4599  0.3515
    6CHTO   H75 2367   8.226   4.520   0.913  1.3635 -2.4290 -1.4843
    6CHTO   H76 2368   8.147   4.377   0.881  0.2715  0.5783  0.0423
    6CHTO   C43 2369   8.065   4.703   0.779 -0.7031 -0.4213 -0.0417
    6CHTO   H85 2370   8.021   4.745   0.870 -0.3286  2.3324 -1.0968
    6CHTO   O29 2371   8.000   4.749   0.655  0.0428  0.3470  0.6695
    6CHTO   C50 2372   8.039   4.686   0.530  1.0682 -1.0362 -0.0326
    6CHTO   H92 2373   7.966   4.708   0.451  2.4976 -1.8048 -1.5837
    6CHTO   C54 2374   8.164   4.747   0.463 -0.4692  0.0997 -0.2472
    6CHTO   O36 2375   8.138   4.895   0.467 -0.0203  0.4714  0.1262
    6CHTO   H72 2376   8.197   4.935   0.406  0.4276 -0.2620  0.0811
    6CHTO   O27 2377   8.201   4.757   0.790 -0.7450  0.6597  0.1876
    6CHTO   C37 2378   8.274   4.855   0.861  1.5064  0.3382  0.4719
    6CHTO   H79 2379   8.377   4.823   0.882  1.3738  0.6544  1.6203
    6CHTO   C38 2380   8.280   4.989   0.778  0.2301 -0.0092 -0.1825
    6CHTO   H80 2381   8.181   5.031   0.753  0.0057  0.4675  1.4046
    6CHTO   O31 2382   8.348   4.967   0.660  0.2492  0.1662  0.6890
    6CHTO   H68 2383   8.301   5.000   0.586 -0.2357 -2.3186 -0.1498
    6CHTO   C39 2384   8.349   5.112   0.862 -0.5072  0.9883 -0.3605
    6CHTO   H81 2385   8.451   5.080   0.883 -1.2518 -1.8355 -0.7969
    6CHTO    N7 2386   8.360   5.243   0.783  0.9609 -0.2000 -0.0319
    6CHTO   H73 2387   8.371   5.211   0.680  0.4596  0.9411 -0.4440
    6CHTO   H74 2388   8.271   5.301   0.800  1.5196  0.6613 -0.0199
    6CHTO   C40 2389   8.280   5.127   0.998  0.1610 -0.3839 -0.1629
    6CHTO   H82 2390   8.178   5.166   0.984  1.7818  3.2569 -2.8424
    6CHTO   O26 2391   8.283   5.002   1.070  0.6423  0.0108 -0.1908
    6CHTO   C41 2392   8.203   4.890   1.003  0.2123 -0.3270  0.1788
    6CHTO   H83 2393   8.101   4.926   0.986  0.7872  1.5208  0.5235
    6CHTO   C52 2394   8.208   4.770   1.105 -0.3076  0.2087  0.1971
    6CHTO   O35 2395   8.111   4.782   1.210 -0.4428 -0.2119  0.0409
    6CHTO   H71 2396   8.041   4.725   1.184 -0.5216 -0.1199  0.0550
    6CHTO   O28 2397   8.353   5.213   1.082 -0.1567  0.0259  0.0392
    6CHTO   C42 2398   8.292   5.277   1.196  0.3849  0.6883  0.2480
    6CHTO   H84 2399   8.376   5.333   1.238  0.5415  1.7317 -1.4256
    6CHTO   C44 2400   8.237   5.178   1.306  0.3377  0.4190 -0.0223
    6CHTO   H86 2401   8.148   5.130   1.267 -0.5082  1.9880 -0.0480
    6CHTO   O32 2402   8.333   5.078   1.334 -0.0792 -0.3054  0.2630
    6CHTO   H69 2403   8.330   5.021   1.260 -0.7105 -0.3093  0.2898
    6CHTO   C48 2404   8.187   5.252   1.436  0.6399 -0.1571  0.5594
    6CHTO   H90 2405   8.275   5.300   1.478  1.1367 -0.0424 -0.5741
    6CHTO    N9 2406   8.120   5.159   1.532 -0.0942 -0.6125 -0.0288
    6CHTO   H77 2407   8.127   5.204   1.630 -0.0042 -0.1734 -0.2394
    6CHTO   H78 2408   8.024   5.124   1.497  0.4035 -0.5435 -1.5085
    6CHTO   C51 2409   8.097   5.377   1.398  0.2576  0.6943  0.3814
    6CHTO   H93 2410   7.997   5.345   1.369  0.9260 -1.1717  0.0387
    6CHTO   O30 2411   8.163   5.450   1.294 -0.3374  0.0502 -0.3472
    6CHTO   C46 2412   8.186   5.385   1.164 -0.9060  0.4501  0.1183
    6CHTO   H88 2413   8.091   5.342   1.133 -0.0661 -2.3864  1.3481
    6CHTO   C53 2414   8.248   5.492   1.064 -0.1021 -0.3031 -0.2555
    6CHTO   O72 2415   8.141   5.577   1.026 -0.1538 -0.7926  0.0870
    6CHTO  H199 2416   8.154   5.617   0.942  3.4221  0.6066  1.2169
    6CHTO   O22 2417   8.076   5.455   1.514  0.1859  0.3849 -0.4777
    6CHTO   C31 2418   7.985   5.576   1.548  0.7941  0.0828  0.3369
    6CHTO   H59 2419   8.009   5.605   1.652  1.7522 -1.5226  0.5801
    6CHTO   C29 2420   8.008   5.698   1.459  0.5944  0.4678  0.2878
    6CHTO   H57 2421   7.999   5.655   1.358  1.3831  0.8854  0.0326
    6CHTO   O21 2422   8.143   5.743   1.471  0.0397 -0.5450 -0.1426
    6CHTO   H37 2423   8.150   5.776   1.558 -1.4569  1.2893 -0.6749
    6CHTO   C27 2424   7.897   5.814   1.480 -0.5533 -0.0286  0.0011
    6CHTO   H55 2425   7.917   5.862   1.577 -1.3460  0.2521  0.0310
    6CHTO    N5 2426   7.904   5.917   1.380  0.2763 -0.5373 -0.1750
    6CHTO   H43 2427   7.905   6.015   1.426  1.2954 -0.6122 -0.0440
    6CHTO   H44 2428   7.816   5.923   1.316 -1.5119 -1.6086  2.1349
    6CHTO   C25 2429   7.748   5.748   1.487 -0.3522  0.3060 -0.0896
    6CHTO   H53 2430   7.713   5.707   1.391  1.2158 -0.9983 -0.1138
    6CHTO   O17 2431   7.747   5.647   1.587  0.0838  0.1313  0.6419
    6CHTO   C32 2432   7.825   5.532   1.548  0.1847  0.3646 -0.1866
    6CHTO   H60 2433   7.791   5.496   1.451 -0.5630  2.5368 -0.7803
    6CHTO   C36 2434   7.802   5.411   1.650  0.1499  0.1730  1.0364
    6CHTO   O25 2435   7.857   5.425   1.780 -0.2714  0.2696 -0.2723
    6CHTO   H40 2436   7.795   5.433   1.850  1.3834 -2.6030  1.6169
    6CHTO   O15 2437   7.626   5.865   1.512  0.1221 -1.0310 -0.2167
    6CHTO   C19 2438   7.525   5.901   1.617 -0.7584 -0.2674  0.4562
    6CHTO   H47 2439   7.520   5.810   1.679 -1.2589  0.0136  0.8247
    6CHTO   C20 2440   7.570   6.017   1.692 -0.3421 -0.0243 -0.4031
    6CHTO   H48 2441   7.588   6.100   1.622 -0.7930  0.2698 -0.1742
    6CHTO   O19 2442   7.695   5.986   1.746 -0.2658  0.4422  0.1931
    6CHTO   H35 2443   7.754   6.043   1.700  0.1525  1.8578  2.3796
    6CHTO   C21 2444   7.476   6.056   1.808 -0.5078 -0.5751  0.4090
    6CHTO   H49 2445   7.481   5.977   1.883  1.0805 -0.7060  0.1802
    6CHTO    N4 2446   7.512   6.180   1.885 -0.0391 -0.2115  0.2378
    6CHTO   H41 2447   7.587   6.174   1.963  1.4160  1.7328 -0.9686
    6CHTO   H42 2448   7.528   6.269   1.827 -0.7119  1.9495  3.2371
    6CHTO   C22 2449   7.329   6.061   1.753  0.2684  0.1662 -0.3972
    6CHTO   H50 2450   7.313   6.151   1.693 -0.3308  1.3678  1.5371
    6CHTO   O14 2451   7.297   5.950   1.679  0.1087  0.8043 -0.2936
    6CHTO   C23 2452   7.378   5.925   1.569 -0.6083  0.3938 -0.9469
    6CHTO   H51 2453   7.371   5.999   1.488 -0.6700  1.7783  0.3173
    6CHTO   C34 2454   7.319   5.801   1.507 -0.1155  0.2897  0.3478
    6CHTO   O23 2455   7.358   5.769   1.373 -0.2238  0.3680  0.1365
    6CHTO   H38 2456   7.289   5.756   1.311 -0.8014 -0.1891  0.8915
    6CHTO   O16 2457   7.230   6.047   1.860  0.3728 -0.0245  0.1932
    6CHTO   C24 2458   7.096   6.129   1.833  0.1336 -0.0936  0.2787
    6CHTO   H52 2459   7.096   6.177   1.736 -0.1631 -0.5000  0.0771
    6CHTO   C26 2460   7.079   6.245   1.935  0.5315  0.6145 -0.1621
    6CHTO   H54 2461   7.059   6.194   2.032 -0.8871  1.2292 -0.1187
    6CHTO   O20 2462   7.194   6.331   1.942  0.6008  0.8160 -0.1541
    6CHTO   H36 2463   7.259   6.292   1.997 -0.4764 -2.5691 -1.1984
    6CHTO   C30 2464   6.947   6.327   1.908 -0.8072  0.1171 -0.1471
    6CHTO   H58 2465   6.965   6.361   1.805 -2.0720  0.2992 -0.3194
    6CHTO    N6 2466   6.924   6.434   2.003  0.6595  0.3670 -0.5294
    6CHTO   H45 2467   6.964   6.408   2.100 -0.0913 -1.5664 -0.7194
    6CHTO   H46 2468   6.957   6.530   1.968 -0.4674  1.2549  0.8058
    6CHTO   C33 2469   6.828   6.229   1.905 -0.5175  0.7361 -0.0419
    6CHTO   H61 2470   6.810   6.192   2.007 -0.0628  1.3756  0.2726
    6CHTO   O18 2471   6.853   6.118   1.815 -0.2111 -0.3069 -0.1410
    6CHTO   C28 2472   6.974   6.039   1.844  0.5267  0.4084  0.6010
    6CHTO   H56 2473   6.962   5.985   1.938 -0.9902  0.8158  0.6621
    6CHTO   C35 2474   6.978   5.926   1.743  0.3065  0.1287  0.2397
    6CHTO   O24 2475   6.950   5.967   1.602 -0.2886  0.1888 -0.5316
    6CHTO   H39 2476   7.030   5.963   1.554  0.6259  1.1825  0.8739
    6CHTO    O9 2477   6.713   6.296   1.872 -0.6659  0.5530  0.0801
    6CHTO   C13 2478   6.581   6.268   1.946  0.5605  0.4885  0.0156
    6CHTO   H26 2479   6.591   6.313   2.047  0.0476  0.7783 -0.0620
    6CHTO   C11 2480   6.542   6.118   1.943  0.5671  0.4437  0.3685
    6CHTO   H24 2481   6.612   6.059   2.004  0.0078  0.3809  0.9478
    6CHTO    O8 2482   6.563   6.062   1.814 -0.6184 -0.3425  0.4705
    6CHTO    H3 2483   6.647   6.077   1.776 -0.7541 -2.4246 -0.7198
    6CHTO    C9 2484   6.401   6.109   2.001  0.4943 -0.2447  0.5387
    6CHTO   H22 2485   6.399   6.169   2.093  2.3698 -1.1616  1.2085
    6CHTO    N2 2486   6.366   5.971   2.049 -0.0573  1.0442  0.0481
    6CHTO   H10 2487   6.388   5.956   2.154 -1.1124  0.1029  0.1464
    6CHTO   H11 2488   6.268   5.940   2.017  0.2463  1.6109 -1.4525
    6CHTO    C7 2489   6.305   6.173   1.907  0.3705 -0.4458 -0.3804
    6CHTO   H20 2490   6.204   6.172   1.954  0.1023 -2.1943 -0.9701
    6CHTO    O4 2491   6.339   6.310   1.876 -0.3833 -0.0261  0.0408
    6CHTO   C14 2492   6.477   6.356   1.873 -0.6688 -0.9706 -0.3654
    6CHTO   H27 2493   6.480   6.454   1.926 -0.3019  0.4184 -2.8687
    6CHTO   C18 2494   6.516   6.387   1.725 -0.0413  0.2104 -0.3960
    6CHTO   O13 2495   6.456   6.503   1.667 -0.0514 -1.0409 -0.7384
    6CHTO    H7 2496   6.521   6.544   1.613 -0.4560 -0.1456 -0.5561
    6CHTO    O2 2497   6.293   6.091   1.767 -0.1333  0.1058  0.3925
    6CHTO    C1 2498   6.168   6.076   1.701  0.2317  0.2412  0.1773
    6CHTO   H14 2499   6.183   6.041   1.596  0.6929  0.0811  0.2992
    6CHTO    C2 2500   6.074   6.207   1.704  0.3149  0.2329  0.1679
    6CHTO   H15 2501   6.059   6.227   1.812 -0.6920 -1.8515  0.4340
    6CHTO    O6 2502   6.141   6.314   1.637 -0.3213 -0.6824 -0.4409
    6CHTO    H1 2503   6.119   6.401   1.664  0.0937 -0.4697 -0.7872
    6CHTO    C3 2504   5.936   6.168   1.634 -0.1659 -0.1710 -0.8211
    6CHTO   H16 2505   5.949   6.156   1.525 -1.3094  3.5258 -1.4339
    6CHTO    N1 2506   5.837   6.277   1.643  0.0025  0.1657  0.0704
    6CHTO    H8 2507   5.876   6.376   1.620  3.6980 -1.4366 -0.9875
    6CHTO    H9 2508   5.800   6.272   1.744 -1.0505  0.7627 -0.2732
    6CHTO    C4 2509   5.871   6.040   1.684  0.2051  0.0719 -0.6328
    6CHTO   H17 2510   5.834   6.057   1.786  0.1782  0.9546 -0.7889
    6CHTO    O1 2511   5.973   5.939   1.678 -0.1914 -0.7308  0.3141
    6CHTO    C5 2512   6.088   5.959   1.765 -0.0570 -0.0820  0.4302
    6CHTO   H18 2513   6.071   5.988   1.868 -1.1656  0.5204  0.0857
    6CHTO   C16 2514   6.152   5.813   1.766  0.1677  0.1807 -0.0611
    6CHTO   O11 2515   6.184   5.765   1.631 -0.9107 -0.8139 -0.8018
    6CHTO    H5 2516   6.246   5.695   1.638  1.3973  1.3819  2.4428
    6CHTO    O3 2517   5.755   5.995   1.607  0.3058 -0.0648  0.4385
    6CHTO    C6 2518   5.645   5.921   1.687  0.7764  0.1028  0.4554
    6CHTO   H19 2519   5.650   5.926   1.796  0.6729  1.7042  0.3945
    6CHTO    C8 2520   5.508   5.995   1.667  0.1830  0.0872 -0.4245
    6CHTO   H21 2521   5.487   6.000   1.560  1.4102  0.6499 -0.6483
    6CHTO    O7 2522   5.536   6.126   1.721 -0.1373 -0.0416 -0.2198
    6CHTO    H2 2523   5.464   6.148   1.777  0.1502  2.3704 -0.7520
    6CHTO   C12 2524   5.393   5.910   1.736 -0.1574  0.9266 -0.1433
    6CHTO   H25 2525   5.418   5.923   1.844 -0.4301 -1.4791  0.2316
    6CHTO    N3 2526   5.258   5.974   1.713 -0.2545  1.1416  0.0301
    6CHTO   H12 2527   5.277   6.072   1.671 -0.3505  0.4022 -1.7826
    6CHTO   H13 2528   5.214   5.927   1.626 -0.2589  3.1742 -1.0820
    6CHTO   C15 2529   5.402   5.754   1.694  0.0423 -0.2771 -0.4930
    6CHTO   H28 2530   5.378   5.742   1.588 -0.8957 -0.2671 -0.2939
    6CHTO   O10 2531   5.291   5.643   1.783  0.1908 -0.7629  0.5739
    6CHTO    H4 2532   5.257   5.589   1.714 -0.4440  0.2021  0.1185
    6CHTO    O5 2533   5.533   5.703   1.725  0.1320 -0.1092 -0.1488
    6CHTO   C10 2534   5.632   5.776   1.647 -0.6617 -0.1616 -0.8386
    6CHTO   H23 2535   5.590   5.791   1.547  0.1283  0.9641 -1.0160
    6CHTO   C17 2536   5.759   5.695   1.630 -0.2613 -0.6660  0.2348
    6CHTO   O12 2537   5.832   5.694   1.749  0.2890 -0.0409  0.3880
    6CHTO    H6 2538   5.912   5.744   1.748  0.2970 -0.0773 -0.5569
    7CHTO  H203 2539   4.882   1.810   1.838 -0.9549 -1.3722 -0.2398
    7CHTO   O82 2540   4.939   1.750   1.795 -0.2319 -0.7830 -0.1174
    7CHTO  C123 2541   5.068   1.793   1.835  0.6926  0.0212  0.1433
    7CHTO  H227 2542   5.069   1.902   1.851  0.0590  0.0323  0.1240
    7CHTO   O77 2543   5.093   1.717   1.953 -0.6738  0.5242 -0.1905
    7CHTO  C118 2544   5.205   1.771   2.027 -0.1222 -0.2997 -0.7094
    7CHTO  H222 2545   5.201   1.879   2.043  0.2324 -0.2937 -0.6654
    7CHTO  C125 2546   5.211   1.704   2.165  0.5163  0.4483  0.2515
    7CHTO   O84 2547   5.092   1.744   2.240  0.4119 -0.5944 -0.2720
    7CHTO  H205 2548   5.075   1.691   2.315  0.1858 -0.3033 -0.1135
    7CHTO  C114 2549   5.333   1.730   1.950 -1.0240 -0.4100 -0.1441
    7CHTO  H218 2550   5.341   1.621   1.957  0.0192 -0.2748  0.7528
    7CHTO  C116 2551   5.314   1.787   1.802 -0.0235  0.3610 -0.4330
    7CHTO  H220 2552   5.318   1.898   1.798  0.3107  0.3703  0.1173
    7CHTO   O79 2553   5.420   1.733   1.720  0.1875 -0.1357  0.1178
    7CHTO  H201 2554   5.471   1.796   1.673 -0.7263  0.2573 -0.3528
    7CHTO  C120 2555   5.177   1.759   1.730 -0.6795 -0.1564  0.1683
    7CHTO  H224 2556   5.169   1.650   1.709 -0.2059 -0.3764  1.0908
    7CHTO   N21 2557   5.161   1.830   1.605 -0.2686 -0.5797 -0.3791
    7CHTO  H211 2558   5.204   1.929   1.605 -0.0811 -0.6570  0.5966
    7CHTO  H212 2559   5.203   1.774   1.522  1.9824  0.1044  0.2749
    7CHTO   O75 2560   5.448   1.803   2.010 -0.3530  0.1298  0.7018
    7CHTO  C112 2561   5.596   1.742   1.981  0.0217 -0.6492 -0.4972
    7CHTO  H216 2562   5.592   1.674   1.894 -2.8393 -1.1460 -0.0268
    7CHTO   O73 2563   5.639   1.668   2.095  0.0939 -0.2551 -0.1500
    7CHTO  C113 2564   5.765   1.594   2.083 -0.0410 -0.0082  0.2836
    7CHTO  H217 2565   5.765   1.542   1.985 -1.8365 -2.5672  1.5873
    7CHTO  C124 2566   5.788   1.486   2.194  0.1093  0.8721 -0.1425
    7CHTO   O83 2567   5.691   1.383   2.167 -0.2241  0.2105  0.7429
    7CHTO  H204 2568   5.668   1.328   2.240 -1.7350 -2.7866 -1.8611
    7CHTO  C109 2569   5.871   1.698   2.092 -0.5287 -0.2865  0.6682
    7CHTO  H213 2570   5.856   1.751   2.188 -0.3445  1.7322 -0.3994
    7CHTO  C110 2571   5.847   1.795   1.970 -0.5360 -0.6916 -0.5288
    7CHTO  H214 2572   5.881   1.735   1.885  2.5933 -1.1240  0.9903
    7CHTO   O78 2573   5.939   1.903   1.985 -0.1458 -0.2351 -0.0062
    7CHTO  H200 2574   5.952   1.930   2.074  0.8007 -0.0069 -0.2019
    7CHTO  C111 2575   5.701   1.851   1.947 -0.5154  0.3648  0.2444
    7CHTO  H215 2576   5.677   1.928   2.021 -0.6993 -1.2534  1.9166
    7CHTO   N19 2577   5.680   1.912   1.814 -0.6326 -0.2144  0.1313
    7CHTO  H207 2578   5.693   1.839   1.735  0.3968 -0.7863  0.8205
    7CHTO  H208 2579   5.745   1.997   1.807  0.3520 -0.9996 -0.4765
    7CHTO   O74 2580   6.008   1.636   2.087  0.1697  0.0262 -0.4058
    7CHTO  C115 2581   6.123   1.704   2.198 -0.2493 -0.4215  0.1378
    7CHTO  H219 2582   6.122   1.813   2.200  0.7384 -0.3744 -1.0735
    7CHTO   O76 2583   6.089   1.661   2.353  0.3771  0.3626  0.4255
    7CHTO  C122 2584   6.120   1.526   2.395 -1.0772 -0.4065 -0.3343
    7CHTO  H226 2585   6.054   1.462   2.337  0.8529 -0.9213 -2.0339
    7CHTO  C126 2586   6.083   1.497   2.546 -0.0256 -0.3145 -0.3383
    7CHTO   O85 2587   5.940   1.502   2.543 -0.3767 -0.1672  0.1973
    7CHTO  H206 2588   5.922   1.593   2.534 -0.3089 -0.1718  0.0001
    7CHTO  C121 2589   6.273   1.487   2.353  0.3794 -0.0065  0.4893
    7CHTO  H225 2590   6.352   1.552   2.397 -0.9648  0.7817  1.7759
    7CHTO   O81 2591   6.301   1.354   2.394 -0.1003 -0.6508 -0.5088
    7CHTO  H202 2592   6.323   1.351   2.485 -0.0558  1.7424 -0.4041
    7CHTO  C119 2593   6.281   1.495   2.197 -0.5587 -0.4492  0.0826
    7CHTO  H223 2594   6.380   1.464   2.165 -0.3053 -0.8009  1.1922
    7CHTO  C117 2595   6.269   1.650   2.146  0.1470 -0.2873  0.2191
    7CHTO  H221 2596   6.262   1.659   2.038 -0.3412 -0.5153  0.2280
    7CHTO   N20 2597   6.378   1.738   2.189  0.0335 -0.5585 -0.6031
    7CHTO  H209 2598   6.408   1.740   2.293 -1.2007 -0.3074 -0.2411
    7CHTO  H210 2599   6.358   1.842   2.168  0.5016  0.1940  2.4507
    7CHTO   O80 2600   6.189   1.390   2.125  0.4016  0.2446  0.1303
    7CHTO  C103 2601   6.225   1.351   1.973 -0.0238  0.0506 -0.2969
    7CHTO  H190 2602   6.217   1.439   1.909  0.3651 -1.1898 -2.0962
    7CHTO  C101 2603   6.371   1.291   1.954 -0.0082  0.5869  0.6621
    7CHTO  H188 2604   6.395   1.237   2.045 -0.0205 -0.5227  0.0128
    7CHTO   O68 2605   6.475   1.398   1.939 -0.1378 -0.0489 -0.6267
    7CHTO  H168 2606   6.447   1.457   1.872  1.4086 -0.8494 -2.0142
    7CHTO   C99 2607   6.379   1.193   1.823 -0.1346  0.3355  0.1932
    7CHTO  H186 2608   6.363   1.260   1.737  1.2464 -1.2698 -1.3517
    7CHTO   N17 2609   6.513   1.113   1.797 -0.1799 -0.5884  0.1955
    7CHTO  H174 2610   6.507   1.017   1.848  2.3959  0.7294  3.1478
    7CHTO  H175 2611   6.528   1.106   1.690 -2.9542  2.9318 -0.5185
    7CHTO   C97 2612   6.255   1.099   1.828 -0.3573  0.4393 -0.0632
    7CHTO  H184 2613   6.260   1.053   1.928 -0.5785 -1.6373 -0.9651
    7CHTO   O64 2614   6.144   1.185   1.811  0.5828 -0.1796  0.5132
    7CHTO  C104 2615   6.109   1.255   1.932 -0.1482 -0.5656 -0.0802
    7CHTO  H191 2616   6.081   1.196   2.019 -1.6405  1.9822  1.2253
    7CHTO  C108 2617   5.981   1.337   1.903  0.2219 -0.0730  0.5418
    7CHTO   O71 2618   5.872   1.275   1.832 -0.5653 -0.0338  0.1026
    7CHTO  H171 2619   5.791   1.309   1.864  0.2861  0.5317  1.7413
    7CHTO   O62 2620   6.246   0.995   1.725 -0.2320 -0.4131  0.1123
    7CHTO   C91 2621   6.155   0.888   1.725  0.3620  0.4168 -0.3400
    7CHTO  H178 2622   6.188   0.819   1.648  1.4269  1.1505 -0.5556
    7CHTO   C92 2623   6.012   0.936   1.671 -1.1779 -0.0856  0.2263
    7CHTO  H179 2624   5.997   1.036   1.712 -0.6475 -0.2704  0.8748
    7CHTO   O66 2625   6.019   0.935   1.522  0.5589  0.2300  0.3363
    7CHTO  H166 2626   5.945   0.983   1.491  0.5521 -0.6752 -1.0444
    7CHTO   C93 2627   5.894   0.839   1.717  0.3442  0.3377 -0.6634
    7CHTO  H180 2628   5.910   0.743   1.666  1.7822 -0.1293  0.6301
    7CHTO   N16 2629   5.768   0.904   1.680  0.3192  0.0520  0.1962
    7CHTO  H172 2630   5.688   0.845   1.722 -0.8891  0.0120 -2.1239
    7CHTO  H173 2631   5.757   0.917   1.574  0.8781  0.6046  0.2043
    7CHTO   C94 2632   5.901   0.817   1.872  0.1558 -0.2112  0.1976
    7CHTO  H181 2633   5.837   0.886   1.928 -0.5454 -0.5291 -0.2016
    7CHTO   O61 2634   6.031   0.813   1.930 -0.5585 -0.0885  0.2462
    7CHTO   C95 2635   6.154   0.798   1.850  0.7481 -0.7787  0.4354
    7CHTO  H182 2636   6.240   0.814   1.915  1.3829  2.9315 -1.1856
    7CHTO  C106 2637   6.166   0.647   1.811  0.0723 -0.4181  0.2677
    7CHTO   O69 2638   6.180   0.580   1.936 -0.0700 -0.1919 -0.6241
    7CHTO  H169 2639   6.272   0.583   1.954 -0.0198 -0.5601 -0.8154
    7CHTO   O63 2640   5.837   0.683   1.895 -0.0884 -0.0421  0.4545
    7CHTO   C96 2641   5.772   0.653   2.034  0.9433 -0.2794  0.3798
    7CHTO  H183 2642   5.774   0.744   2.093  1.2272  0.3338 -0.5731
    7CHTO   C98 2643   5.855   0.538   2.108  0.0606 -0.3303 -0.2316
    7CHTO  H185 2644   5.898   0.472   2.031  0.7356 -0.1936  0.0225
    7CHTO   O67 2645   5.958   0.598   2.177 -0.2296 -0.3441  0.0961
    7CHTO  H167 2646   6.027   0.537   2.197 -0.9577 -0.7972  1.3366
    7CHTO  C102 2647   5.768   0.439   2.209  0.0555 -0.1661 -0.1078
    7CHTO  H189 2648   5.751   0.495   2.301 -0.4889 -1.9719  0.9218
    7CHTO   N18 2649   5.841   0.315   2.251 -0.9440 -0.7297  0.8090
    7CHTO  H176 2650   5.849   0.242   2.171  1.8433 -0.5711  0.8703
    7CHTO  H177 2651   5.795   0.268   2.337 -1.0570 -2.8133 -0.3495
    7CHTO  C105 2652   5.630   0.413   2.146 -0.3368 -0.4949 -0.8637
    7CHTO  H192 2653   5.638   0.358   2.053  0.9489 -2.5545  0.4288
    7CHTO   O65 2654   5.559   0.537   2.111  0.1958  0.0866 -0.2849
    7CHTO  C100 2655   5.623   0.611   2.005 -0.2025  0.7296  0.0029
    7CHTO  H187 2656   5.622   0.549   1.915 -3.2545  1.5773 -0.6114
    7CHTO  C107 2657   5.536   0.733   1.973  0.3294 -0.0757 -0.6081
    7CHTO   O70 2658   5.411   0.701   1.912  0.3324  0.0269 -0.9530
    7CHTO  H170 2659   5.383   0.772   1.857  0.7519  0.1477 -1.0113
    7CHTO   O57 2660   5.536   0.331   2.258 -0.0639  0.0923 -0.0158
    7CHTO   C85 2661   5.427   0.259   2.205 -0.5100 -1.2262 -0.0407
    7CHTO  H157 2662   5.447   0.259   2.095 -0.3813 -0.6472 -0.0169
    7CHTO   C83 2663   5.292   0.337   2.230  0.1192  0.1987 -0.3740
    7CHTO  H155 2664   5.304   0.437   2.188 -0.4269  2.3687  4.3149
    7CHTO   O56 2665   5.280   0.366   2.373  0.2016  0.7791  0.6885
    7CHTO  H135 2666   5.197   0.408   2.383  0.1932  0.4658  2.1966
    7CHTO   C81 2667   5.173   0.264   2.153 -0.3830  0.1046  0.3311
    7CHTO  H153 2668   5.201   0.258   2.048  0.2228 -1.5827  0.5748
    7CHTO   N14 2669   5.042   0.335   2.158  0.3411  0.4393 -0.1783
    7CHTO  H141 2670   4.969   0.279   2.212 -0.8748  1.2147 -0.9715
    7CHTO  H142 2671   4.997   0.357   2.063  0.4772 -2.7728 -1.0711
    7CHTO   C79 2672   5.166   0.117   2.202  0.1072 -0.2234 -0.2778
    7CHTO  H151 2673   5.095   0.058   2.144 -1.2942  0.7734  0.3924
    7CHTO   O52 2674   5.292   0.048   2.197  0.3127 -0.1367 -0.2217
    7CHTO   C86 2675   5.410   0.113   2.255  0.6906 -0.2213  0.0485
    7CHTO  H158 2676   5.402   0.111   2.366  0.9647  1.3587  0.1100
    7CHTO   C90 2677   5.537   0.023   2.226 -1.0791 -0.3617 -0.0434
    7CHTO   O60 2678   5.543  -0.109   2.287 -0.0051 -0.4156  0.1956
    7CHTO  H138 2679   5.599  -0.103   2.362 -1.7378  3.6194  1.2969
    7CHTO   O50 2680   5.130   0.113   2.343  0.3813 -0.1356 -0.1303
    7CHTO   C73 2681   5.095   0.002   2.430 -0.4608  0.0613 -0.2801
    7CHTO  H145 2682   5.176  -0.072   2.442  0.8960  1.7293  1.0280
    7CHTO   C74 2683   4.974  -0.070   2.362  0.3081  1.2202 -0.1541
    7CHTO  H146 2684   5.003  -0.093   2.258 -2.5971 -1.7607 -0.4100
    7CHTO   O54 2685   4.949  -0.194   2.437  0.8559  0.1918  0.1107
    7CHTO  H133 2686   4.880  -0.249   2.406  0.7607  0.7199 -0.6221
    7CHTO   C75 2687   4.853   0.032   2.364 -0.6785 -0.3322  0.0225
    7CHTO  H147 2688   4.882   0.116   2.300  0.0483 -0.6492 -0.0754
    7CHTO   N13 2689   4.729  -0.013   2.300  0.0254  0.3993 -0.7853
    7CHTO  H139 2690   4.644   0.051   2.315  0.5463  0.4178  2.2204
    7CHTO  H140 2691   4.703  -0.116   2.316 -0.0837 -0.0299 -3.4136
    7CHTO   C76 2692   4.828   0.083   2.518 -0.3930  0.9019  0.4358
    7CHTO  H148 2693   4.801  -0.008   2.572 -1.6352  1.0817  0.1274
    7CHTO   O49 2694   4.943   0.154   2.565 -0.0205  0.0584  0.0018
    7CHTO   C77 2695   5.058   0.058   2.569  0.7617 -0.3006  0.5499
    7CHTO  H149 2696   5.033  -0.023   2.638 -2.2921  0.7809  0.7720
    7CHTO   C88 2697   5.170   0.138   2.636 -0.2972  0.5981 -0.1147
    7CHTO   O58 2698   5.126   0.155   2.769 -0.4457  0.2957 -0.4835
    7CHTO  H136 2699   5.130   0.074   2.818  0.1663  0.9869  0.6398
    7CHTO   O51 2700   4.727   0.207   2.517  0.1752  0.5562  0.3207
    7CHTO   C78 2701   4.675   0.199   2.672  0.5066 -0.3138  0.5496
    7CHTO  H150 2702   4.743   0.156   2.748 -0.4961 -0.5927  1.2967
    7CHTO   C80 2703   4.541   0.120   2.682  0.3806  0.8384  0.6318
    7CHTO  H152 2704   4.465   0.154   2.610 -1.7029 -0.8986  1.9466
    7CHTO   O55 2705   4.573  -0.020   2.647  0.4713 -0.0708 -0.1206
    7CHTO  H134 2706   4.614  -0.030   2.563  2.3655  0.0754  0.7544
    7CHTO   C84 2707   4.492   0.129   2.831 -0.0858  0.2911 -0.4576
    7CHTO  H156 2708   4.578   0.115   2.897 -0.9262 -0.5135  0.4933
    7CHTO   N15 2709   4.374   0.040   2.866  0.0666  0.1032  0.1035
    7CHTO  H143 2710   4.411  -0.060   2.869  1.9199  0.7658 -0.2888
    7CHTO  H144 2711   4.335   0.059   2.964 -3.0449 -1.1178 -0.8261
    7CHTO   C87 2712   4.481   0.273   2.874  0.4104  0.1766  0.1473
    7CHTO  H159 2713   4.398   0.316   2.819  1.3411 -1.6199 -2.8062
    7CHTO   O53 2714   4.604   0.348   2.842  0.1589 -0.0476  0.2680
    7CHTO   C82 2715   4.655   0.345   2.708  0.4093  0.2695 -0.0987
    7CHTO  H154 2716   4.580   0.383   2.638 -0.8812  0.3058  1.2677
    7CHTO   C89 2717   4.786   0.430   2.692  0.0019 -0.6597 -0.1027
    7CHTO   O59 2718   4.830   0.452   2.560 -0.0757  0.3827  0.3690
    7CHTO  H137 2719   4.754   0.492   2.523  0.3485  0.5691 -0.3168
    7CHTO   O45 2720   4.464   0.263   3.041 -0.2470 -0.5440 -0.1115
    7CHTO   C67 2721   4.561   0.320   3.129  0.8521 -0.1124  0.2470
    7CHTO  H124 2722   4.653   0.334   3.072  1.1379  1.4152  1.0562
    7CHTO   C65 2723   4.504   0.461   3.168 -0.2258  0.1488  0.0862
    7CHTO  H122 2724   4.401   0.442   3.201 -0.8123  0.9467 -1.2816
    7CHTO   O44 2725   4.504   0.531   3.045 -0.1160  0.1799  0.6598
    7CHTO  H102 2726   4.434   0.593   3.042 -1.3932 -1.1680  1.7570
    7CHTO   C63 2727   4.569   0.517   3.296  0.5933 -0.3902 -0.0150
    7CHTO  H120 2728   4.515   0.479   3.383 -0.4331  1.0195 -0.0233
    7CHTO   N11 2729   4.547   0.665   3.322 -0.0268  0.4149 -0.1817
    7CHTO  H108 2730   4.592   0.727   3.247  2.2247 -2.4127 -1.2517
    7CHTO  H109 2731   4.441   0.672   3.316  0.0286  0.9342 -0.5394
    7CHTO   C61 2732   4.716   0.476   3.302 -0.1499  0.1171 -0.3983
    7CHTO  H118 2733   4.757   0.511   3.397  3.0192 -2.7727 -0.6189
    7CHTO   O40 2734   4.724   0.318   3.307 -0.6516 -0.4540 -0.4009
    7CHTO   C68 2735   4.609   0.243   3.254 -0.0658  0.4261  0.4625
    7CHTO  H125 2736   4.533   0.233   3.334  0.0166 -1.9160  0.2953
    7CHTO   C72 2737   4.659   0.104   3.219  0.0020  0.6918  0.7096
    7CHTO   O48 2738   4.704   0.038   3.336 -0.1695  0.0169 -0.2174
    7CHTO  H105 2739   4.755  -0.040   3.323  0.3413  0.0774  1.3410
    7CHTO   O38 2740   4.804   0.517   3.194  0.2934 -0.1956 -0.1923
    7CHTO   C55 2741   4.943   0.506   3.228 -0.3731 -0.1532  0.7669
    7CHTO  H112 2742   4.956   0.439   3.314  1.7515 -1.7420 -0.7337
    7CHTO   C56 2743   5.003   0.653   3.255 -0.5627 -0.5065  0.1459
    7CHTO  H113 2744   4.957   0.727   3.187  0.8087 -0.3644 -0.6435
    7CHTO   O42 2745   4.954   0.687   3.385  0.0256 -0.2923 -0.2354
    7CHTO  H100 2746   4.979   0.778   3.393 -1.9091  0.2685 -0.3784
    7CHTO   C57 2747   5.157   0.665   3.253 -0.3645 -0.3148 -0.4296
    7CHTO  H114 2748   5.182   0.620   3.349 -2.2201  0.4847  0.4431
    7CHTO   N10 2749   5.216   0.800   3.251  0.0014  0.0634 -0.0749
    7CHTO  H106 2750   5.147   0.865   3.304  0.8417 -0.1427  1.2975
    7CHTO  H107 2751   5.314   0.810   3.294 -0.2006  0.8964  0.2121
    7CHTO   C58 2752   5.226   0.579   3.145  0.2972  1.0378 -0.1270
    7CHTO  H115 2753   5.221   0.626   3.044  0.4784  0.6739 -0.3085
    7CHTO   O37 2754   5.169   0.442   3.137 -0.3979  0.0950  0.8398
    7CHTO   C59 2755   5.029   0.448   3.107 -0.4770 -0.1911 -0.9587
    7CHTO  H116 2756   4.998   0.505   3.020 -4.5847 -0.8894 -0.0686
    7CHTO   C70 2757   4.978   0.309   3.082 -0.1708  0.3237  0.8403
    7CHTO   O46 2758   4.872   0.311   2.986 -0.2844 -0.4111 -0.0312
    7CHTO  H103 2759   4.858   0.231   2.939  2.7603 -0.8252 -0.3845
    7CHTO   O39 2760   5.380   0.553   3.171 -0.1541 -0.1642  0.3743
    7CHTO   C60 2761   5.458   0.469   3.088  0.5008 -0.0854 -0.7601
    7CHTO  H117 2762   5.451   0.367   3.128 -0.1156  0.9722  1.9607
    7CHTO   C62 2763   5.414   0.475   2.936  0.5004  0.4809 -0.5869
    7CHTO  H119 2764   5.306   0.449   2.929 -0.2551  2.5430  2.1587
    7CHTO   O43 2765   5.420   0.617   2.888 -0.3090 -0.3909 -0.8560
    7CHTO  H101 2766   5.399   0.620   2.797 -0.6295  2.6755 -0.7341
    7CHTO   C66 2767   5.500   0.374   2.843  0.3872 -0.2198 -0.0116
    7CHTO  H123 2768   5.495   0.275   2.890 -0.7970  0.4651  1.3502
    7CHTO   N12 2769   5.458   0.360   2.705 -0.2351 -0.6117 -0.7481
    7CHTO  H110 2770   5.402   0.444   2.667 -0.4018 -0.6698 -0.6338
    7CHTO  H111 2771   5.532   0.322   2.636  1.2333 -0.7641  0.8623
    7CHTO   C69 2772   5.652   0.416   2.857  0.1441  0.3322 -0.3731
    7CHTO  H126 2773   5.665   0.516   2.810  1.2196  0.5654  0.3893
    7CHTO   O41 2774   5.700   0.433   3.027  0.1794 -0.2369  0.3785
    7CHTO   C64 2775   5.606   0.509   3.100 -1.1073 -0.2293 -0.3855
    7CHTO  H121 2776   5.612   0.609   3.053 -1.4435 -1.4555 -3.1219
    7CHTO   C71 2777   5.631   0.520   3.248  0.1778 -0.2018  0.5832
    7CHTO   O47 2778   5.741   0.606   3.272 -0.1552 -0.2402  0.0042
    7CHTO  H104 2779   5.819   0.572   3.312  0.6460  0.6093 -0.8109
    7CHTO   O34 2780   5.746   0.292   2.775 -0.0213 -0.3094  0.7001
    7CHTO   C49 2781   5.841   0.265   2.689  0.4097 -0.5675  1.0272
    7CHTO   H91 2782   5.844   0.352   2.624  0.5399 -3.0822 -2.4284
    7CHTO   C47 2783   5.810   0.130   2.617 -0.1228 -0.3295  0.3027
    7CHTO   H89 2784   5.884   0.118   2.535  0.1126  0.1047  0.4528
    7CHTO   O33 2785   5.683   0.143   2.549  0.3314  0.1461 -0.1232
    7CHTO   H70 2786   5.653   0.232   2.538  1.7376  0.5251 -0.8877
    7CHTO   C45 2787   5.819   0.012   2.728 -0.6499  0.0909 -0.5071
    7CHTO   H87 2788   5.764   0.034   2.820  0.6735 -2.6097  0.9826
    7CHTO    N8 2789   5.765  -0.116   2.682 -0.1544  0.0420 -0.3995
    7CHTO   H75 2790   5.832  -0.164   2.612  1.1551  0.9412  0.2190
    7CHTO   H76 2791   5.739  -0.184   2.762 -0.0004  0.5146  0.0528
    7CHTO   C43 2792   5.964   0.002   2.793  0.3460  0.1901  0.4120
    7CHTO   H85 2793   5.945  -0.062   2.879  0.2431  2.6593  2.2650
    7CHTO   O29 2794   6.004   0.134   2.834  0.1195 -0.1064 -0.0585
    7CHTO   C50 2795   5.989   0.247   2.748  0.7283 -0.7657  0.2403
    7CHTO   H92 2796   6.027   0.338   2.795  0.6667  0.0836 -1.2936
    7CHTO   C54 2797   6.093   0.238   2.627 -0.0949 -0.2703 -0.5668
    7CHTO   O36 2798   6.126   0.364   2.579 -0.1944 -0.0533 -0.4898
    7CHTO   H72 2799   6.200   0.349   2.523 -1.4591 -0.1508 -2.1512
    7CHTO   O27 2800   6.070  -0.067   2.719  0.2986 -0.0712  0.0330
    7CHTO   C37 2801   6.153  -0.165   2.783 -0.8513  0.1240  0.9119
    7CHTO   H79 2802   6.147  -0.154   2.892  1.2110  0.9693  0.9781
    7CHTO   C38 2803   6.107  -0.308   2.733 -0.3594 -1.1410 -0.4591
    7CHTO   H80 2804   6.110  -0.303   2.623 -1.3997 -1.8982 -0.5293
    7CHTO   O31 2805   5.978  -0.341   2.780 -0.0787 -0.2921  0.2185
    7CHTO   H68 2806   5.980  -0.371   2.869  1.7326  0.7324  0.5506
    7CHTO   C39 2807   6.221  -0.415   2.783  0.3130  0.2679  0.9240
    7CHTO   H81 2808   6.208  -0.418   2.892 -0.7571  0.3783  0.8053
    7CHTO    N7 2809   6.196  -0.549   2.726  0.0466 -0.3825  0.1710
    7CHTO   H73 2810   6.281  -0.592   2.675  1.0509  1.2732  0.4070
    7CHTO   H74 2811   6.110  -0.563   2.664  0.4043  0.2490 -0.4757
    7CHTO   C40 2812   6.370  -0.362   2.750  0.3931 -0.4217  0.5644
    7CHTO   H82 2813   6.390  -0.361   2.643 -3.9762 -2.1872 -0.3595
    7CHTO   O26 2814   6.384  -0.235   2.808 -0.5743 -0.5630 -0.1222
    7CHTO   C41 2815   6.301  -0.141   2.738 -0.0579 -0.7767 -0.7200
    7CHTO   H83 2816   6.298  -0.142   2.628 -0.3896 -0.7531 -0.7123
    7CHTO   C52 2817   6.354  -0.005   2.769  0.0018  0.1881 -0.0297
    7CHTO   O35 2818   6.478   0.017   2.696  0.0764  0.0383 -0.0159
    7CHTO   H71 2819   6.530   0.083   2.738  1.7835 -1.4815  0.3097
    7CHTO   O28 2820   6.473  -0.431   2.819  0.6614 -0.1563  0.9474
    7CHTO   C42 2821   6.612  -0.430   2.770 -0.6469  0.5168  0.2148
    7CHTO   H84 2822   6.675  -0.482   2.842  1.7863  1.6393 -1.0350
    7CHTO   C44 2823   6.677  -0.291   2.762  0.0571  0.8074 -0.1933
    7CHTO   H86 2824   6.641  -0.236   2.675 -0.7709  1.1207  0.3360
    7CHTO   O32 2825   6.644  -0.226   2.884  0.0588 -0.0399  0.2439
    7CHTO   H69 2826   6.556  -0.195   2.886 -0.8467 -2.4892 -0.1623
    7CHTO   C48 2827   6.822  -0.304   2.725 -0.5872 -0.1737 -0.0884
    7CHTO   H90 2828   6.862  -0.368   2.804 -2.3428  0.4571  1.3258
    7CHTO    N9 2829   6.902  -0.176   2.730  0.0272 -0.1057 -0.0982
    7CHTO   H77 2830   6.854  -0.089   2.773  3.9195  2.2390 -0.2576
    7CHTO   H78 2831   7.009  -0.179   2.742  0.1617  0.5611 -1.0906
    7CHTO   C51 2832   6.832  -0.379   2.590 -0.4948 -0.0470 -0.4463
    7CHTO   H93 2833   6.780  -0.324   2.511 -0.1633  1.3423  0.2940
    7CHTO   O30 2834   6.783  -0.512   2.598  0.1986 -0.0426 -0.3937
    7CHTO   C46 2835   6.636  -0.505   2.629  1.0149  0.4309 -0.0788
    7CHTO   H88 2836   6.576  -0.465   2.548 -0.4512 -2.2173 -0.3783
    7CHTO   C53 2837   6.590  -0.654   2.634 -0.3940 -0.1785  0.1956
    7CHTO   O72 2838   6.624  -0.717   2.508  0.1412 -0.0341 -0.5221
    7CHTO  H199 2839   6.703  -0.766   2.508  1.9895  2.8077 -0.8159
    7CHTO   O22 2840   6.965  -0.393   2.537  0.3191 -0.1870 -0.0355
    7CHTO   C31 2841   6.992  -0.407   2.390  0.1877  0.6590 -0.8148
    7CHTO   H59 2842   7.098  -0.436   2.381 -0.2487 -1.4716  0.6541
    7CHTO   C29 2843   6.909  -0.517   2.324 -0.2694  0.7538  0.1922
    7CHTO   H57 2844   6.806  -0.482   2.341 -0.4069 -0.1751  1.3284
    7CHTO   O21 2845   6.943  -0.637   2.399  0.5368 -0.2672  1.2073
    7CHTO   H37 2846   6.862  -0.684   2.407 -1.5661  2.2770 -3.2049
    7CHTO   C27 2847   6.951  -0.533   2.171  0.4822  0.2340  0.0538
    7CHTO   H55 2848   7.055  -0.568   2.164  1.4164  2.6184  1.3956
    7CHTO    N5 2849   6.860  -0.633   2.104  0.0255  0.5680  0.5056
    7CHTO   H43 2850   6.887  -0.649   2.001 -3.4009  1.8430 -0.6299
    7CHTO   H44 2851   6.759  -0.597   2.099 -0.3324 -0.7759 -3.0397
    7CHTO   C25 2852   6.942  -0.396   2.096  0.2275 -0.4207  0.1185
    7CHTO   H53 2853   6.836  -0.368   2.088  0.3772  0.3132  0.6809
    7CHTO   O17 2854   7.004  -0.290   2.167 -0.0251  0.3728 -0.6781
    7CHTO   C32 2855   6.972  -0.269   2.311  0.0055  0.1100 -0.8363
    7CHTO   H60 2856   6.866  -0.245   2.326  0.0635 -1.9222  3.8695
    7CHTO   C36 2857   7.058  -0.152   2.371  0.2238 -0.0799 -0.3291
    7CHTO   O25 2858   7.045  -0.035   2.282 -1.1232  0.2625  0.3686
    7CHTO   H40 2859   7.112  -0.035   2.216  0.0495  0.4962  1.5411
    7CHTO   O15 2860   7.004  -0.400   1.942  0.3753  0.0617  0.1184
    7CHTO   C19 2861   6.998  -0.291   1.845  0.0177 -0.1742 -0.2125
    7CHTO   H47 2862   7.054  -0.333   1.760  1.7814  0.1765  0.7362
    7CHTO   C20 2863   6.851  -0.258   1.803  0.1657 -0.4045 -0.0914
    7CHTO   H48 2864   6.787  -0.244   1.891  0.4708 -2.4196  0.4857
    7CHTO   O19 2865   6.808  -0.381   1.738 -0.0193 -0.6048  0.5506
    7CHTO   H35 2866   6.742  -0.362   1.673 -0.9400 -1.8070  1.1241
    7CHTO   C21 2867   6.846  -0.142   1.701  0.8707 -0.1934 -0.0835
    7CHTO   H49 2868   6.887  -0.175   1.606 -0.6054  1.1415 -1.2022
    7CHTO    N4 2869   6.706  -0.109   1.674  0.0631  0.2258  0.5865
    7CHTO   H41 2870   6.652  -0.068   1.758  0.9649 -0.0030  1.2937
    7CHTO   H42 2871   6.704  -0.041   1.590  2.6813  1.6197  1.5633
    7CHTO   C22 2872   6.926  -0.023   1.756  0.2169 -0.4823 -0.2629
    7CHTO   H50 2873   6.879   0.017   1.845 -0.9259 -1.7022 -0.3060
    7CHTO   O14 2874   7.064  -0.064   1.784  0.1977  0.2005  0.0934
    7CHTO   C23 2875   7.072  -0.161   1.888 -0.9329 -0.6426  0.3336
    7CHTO   H51 2876   7.024  -0.110   1.973 -0.4909  2.0225 -0.9667
    7CHTO   C34 2877   7.223  -0.175   1.926  0.5649  0.2027 -0.3108
    7CHTO   O23 2878   7.256  -0.283   2.008 -0.8840  0.1106 -0.5187
    7CHTO   H38 2879   7.194  -0.354   2.012  1.7262 -2.3805 -2.4670
    7CHTO   O16 2880   6.929   0.086   1.665  0.3078 -0.4035  0.0177
    7CHTO   C24 2881   6.914   0.236   1.732 -0.2964  0.5829  0.2829
    7CHTO   H52 2882   6.932   0.235   1.840  0.6405 -0.0622  0.1290
    7CHTO   C26 2883   6.769   0.289   1.708  0.1709 -0.0868  0.2293
    7CHTO   H54 2884   6.756   0.300   1.599 -0.6608  1.4476  0.4753
    7CHTO   O20 2885   6.674   0.191   1.761  0.0475  0.3824  0.3662
    7CHTO   H36 2886   6.667   0.125   1.695  1.6623  1.4329 -0.9206
    7CHTO   C30 2887   6.762   0.427   1.776 -0.0901 -0.5045 -0.4472
    7CHTO   H58 2888   6.781   0.416   1.884 -2.3591 -0.0739  0.0135
    7CHTO    N6 2889   6.629   0.492   1.767 -0.5980 -0.5245 -0.0603
    7CHTO   H45 2890   6.574   0.463   1.679  1.2012 -1.8172 -0.7982
    7CHTO   H46 2891   6.639   0.599   1.768  0.4619 -0.6109  1.6852
    7CHTO   C33 2892   6.869   0.522   1.720  0.1500  1.4466 -0.5194
    7CHTO   H61 2893   6.853   0.537   1.613  1.2722  0.8070 -0.7891
    7CHTO   O18 2894   7.001   0.457   1.742  0.1907  0.1276 -0.0518
    7CHTO   C28 2895   7.015   0.329   1.674 -0.3077 -0.2694  0.4134
    7CHTO   H56 2896   7.000   0.349   1.568  2.1890  1.8660  0.3879
    7CHTO   C35 2897   7.165   0.288   1.662  0.1947 -0.2895 -0.0654
    7CHTO   O24 2898   7.250   0.351   1.567 -0.2556  0.0235  0.0339
    7CHTO   H39 2899   7.233   0.336   1.476  1.3738  0.6364 -0.3985
    7CHTO    O9 2900   6.869   0.653   1.772 -0.5535 -0.9111 -0.5412
    7CHTO   C13 2901   6.941   0.783   1.682  0.4754  1.1085  0.5776
    7CHTO   H26 2902   6.885   0.797   1.588  0.1392 -2.0763  0.2611
    7CHTO   C11 2903   7.094   0.747   1.651 -0.1174  0.1912 -0.2750
    7CHTO   H24 2904   7.095   0.654   1.592  2.3743 -1.1663  1.7971
    7CHTO    O8 2905   7.174   0.723   1.774 -0.4352  0.5923  0.1300
    7CHTO    H3 2906   7.125   0.670   1.834  0.7405 -0.4056  0.2251
    7CHTO    C9 2907   7.159   0.858   1.570 -0.0550 -0.7807 -0.2437
    7CHTO   H22 2908   7.098   0.872   1.480 -0.5309  0.6814  0.2916
    7CHTO    N2 2909   7.289   0.821   1.512  0.5357 -0.1328  0.7317
    7CHTO   H10 2910   7.366   0.895   1.501 -0.8254  1.4950  2.0022
    7CHTO   H11 2911   7.268   0.773   1.417  1.3544 -1.9572  1.4399
    7CHTO    C7 2912   7.159   0.997   1.655 -0.1572 -0.2762  0.3653
    7CHTO   H20 2913   7.177   1.077   1.580  0.2662 -1.3976 -0.7399
    7CHTO    O4 2914   7.025   1.015   1.710 -0.2679  0.1285  0.5282
    7CHTO   C14 2915   6.938   0.917   1.758 -0.4387  0.5653  0.3900
    7CHTO   H27 2916   6.839   0.965   1.746  0.9764  2.8351 -3.3497
    7CHTO   C18 2917   6.967   0.906   1.907  0.9415 -0.2153  0.6034
    7CHTO   O13 2918   6.876   0.991   1.980  0.2515  0.3285 -0.1358
    7CHTO    H7 2919   6.889   1.078   1.946  2.0256 -0.3509 -1.2456
    7CHTO    O2 2920   7.272   0.985   1.779 -0.5480  0.1464 -0.4285
    7CHTO    C1 2921   7.361   1.102   1.810 -0.2382 -0.1379  0.0984
    7CHTO   H14 2922   7.351   1.172   1.725  0.1022  1.0151  1.0011
    7CHTO    C2 2923   7.512   1.057   1.821 -1.0358  0.1041 -0.5819
    7CHTO   H15 2924   7.516   0.987   1.906  1.0921  0.0058 -0.7380
    7CHTO    O6 2925   7.550   0.983   1.696  0.1570 -0.2097  0.2179
    7CHTO    H1 2926   7.605   0.910   1.719 -0.1996 -0.2316  1.0352
    7CHTO    C3 2927   7.601   1.180   1.850 -0.2102  0.8620  0.5609
    7CHTO   H16 2928   7.591   1.244   1.761  0.7833  1.7113  1.0511
    7CHTO    N1 2929   7.750   1.148   1.852  0.2929  0.7324 -0.1146
    7CHTO    H8 2930   7.804   1.215   1.787  1.5479 -0.6134 -0.4849
    7CHTO    H9 2931   7.779   1.046   1.830  2.0890  0.8275  1.7310
    7CHTO    C4 2932   7.559   1.259   1.983  0.1785  0.1635 -0.0443
    7CHTO   H17 2933   7.595   1.208   2.072  0.8362  3.6770  1.8043
    7CHTO    O1 2934   7.416   1.282   1.981 -0.0166 -0.1459 -0.4691
    7CHTO    C5 2935   7.331   1.172   1.949  0.5892  0.3521  0.0024
    7CHTO   H18 2936   7.343   1.093   2.023  2.3988  0.4265 -0.1867
    7CHTO   C16 2937   7.183   1.221   1.951  0.4685  0.5220 -0.0235
    7CHTO   O11 2938   7.134   1.237   2.083 -0.7270 -0.2391  0.0858
    7CHTO    H5 2939   7.042   1.250   2.095 -0.4258  0.4019  1.8685
    7CHTO    O3 2940   7.602   1.395   1.986  0.0594 -0.4762  0.1902
    7CHTO    C6 2941   7.714   1.428   2.074 -0.1517  0.0347 -0.0049
    7CHTO   H19 2942   7.765   1.335   2.099  0.2602 -0.2150 -1.7019
    7CHTO    C8 2943   7.807   1.526   1.995 -0.2047 -0.2692 -0.8346
    7CHTO   H21 2944   7.747   1.611   1.964 -1.9083 -0.1751  2.5016
    7CHTO    O7 2945   7.865   1.461   1.876 -0.1544  0.3179  0.3714
    7CHTO    H2 2946   7.913   1.382   1.889 -0.3428  0.5223  2.5522
    7CHTO   C12 2947   7.926   1.566   2.099  0.0769  0.0457 -0.1026
    7CHTO   H25 2948   7.987   1.477   2.123 -0.9286  0.1958  3.3539
    7CHTO    N3 2949   8.016   1.668   2.026 -0.3012  0.1766  0.4095
    7CHTO   H12 2950   8.075   1.725   2.097  2.1786 -2.3538  0.4881
    7CHTO   H13 2951   7.959   1.727   1.956 -0.3018  0.1684  0.4036
    7CHTO   C15 2952   7.871   1.627   2.239  0.0744 -0.0422 -0.5954
    7CHTO   H28 2953   7.823   1.725   2.234 -1.7031 -0.9222 -1.4519
    7CHTO   O10 2954   7.986   1.637   2.348 -0.2266 -0.6744  0.4604
    7CHTO    H4 2955   8.039   1.713   2.336 -0.0242 -0.6530  1.4965
    7CHTO    O5 2956   7.777   1.534   2.291 -0.0003  0.9641 -0.2494
    7CHTO   C10 2957   7.663   1.495   2.206  0.0347 -0.5507  0.2236
    7CHTO   H23 2958   7.611   1.588   2.185 -0.0277 -0.6242  0.0478
    7CHTO   C17 2959   7.568   1.414   2.288 -0.1441  0.5662  0.4222
    7CHTO   O12 2960   7.492   1.499   2.373  0.0279 -0.3849 -0.4589
    7CHTO    H6 2961   7.407   1.519   2.337 -1.5539  0.1234  3.3476
    8CHTO  H203 2962   7.028   8.481   1.204 -0.2504 -0.3307  0.7598
    8CHTO   O82 2963   7.022   8.392   1.173 -0.7572 -0.0422  0.0194
    8CHTO  C123 2964   6.902   8.334   1.234 -0.3423 -0.0339  0.1435
    8CHTO  H227 2965   6.915   8.331   1.343  0.7227 -0.3363  0.0211
    8CHTO   O77 2966   6.793   8.427   1.199  0.0921 -0.4674  0.3918
    8CHTO  C118 2967   6.682   8.403   1.281  0.4895  0.4006 -0.4205
    8CHTO  H222 2968   6.707   8.418   1.388 -0.9136  1.0950 -0.1750
    8CHTO  C125 2969   6.577   8.523   1.244 -0.5348 -0.0512 -0.0100
    8CHTO   O84 2970   6.512   8.517   1.119  0.8036 -0.1771  0.3461
    8CHTO  H205 2971   6.452   8.446   1.112  0.8284 -0.1404 -0.3259
    8CHTO  C114 2972   6.620   8.268   1.247  0.5108 -0.0949  0.2787
    8CHTO  H218 2973   6.581   8.281   1.146 -0.6176 -1.7856  0.4767
    8CHTO  C116 2974   6.723   8.157   1.250 -0.1749  0.5949  0.0413
    8CHTO  H220 2975   6.743   8.136   1.357 -1.6558  1.9630  0.5954
    8CHTO   O79 2976   6.657   8.049   1.185  0.2215 -0.0308 -0.6694
    8CHTO  H201 2977   6.582   8.022   1.235  0.8762  0.5583  0.6530
    8CHTO  C120 2978   6.863   8.200   1.178 -0.0576  0.6253 -0.4549
    8CHTO  H224 2979   6.837   8.204   1.071  1.7813 -1.2716 -1.0117
    8CHTO   N21 2980   6.960   8.087   1.196  0.6051  0.3587 -0.1252
    8CHTO  H211 2981   7.058   8.123   1.225 -0.4673  3.5926 -0.3224
    8CHTO  H212 2982   6.917   8.013   1.262 -0.0504  0.9458  0.1137
    8CHTO   O75 2983   6.511   8.246   1.342 -0.0024 -0.8673 -0.5137
    8CHTO  C112 2984   6.375   8.199   1.275 -1.9551  0.0653  0.0190
    8CHTO  H216 2985   6.401   8.136   1.189  0.4163 -1.5544  1.8497
    8CHTO   O73 2986   6.298   8.309   1.237 -0.2725  0.3462  0.5617
    8CHTO  C113 2987   6.162   8.287   1.189  0.0751  0.1864  0.0522
    8CHTO  H217 2988   6.173   8.236   1.091 -0.3500 -1.0364  0.6334
    8CHTO  C124 2989   6.112   8.428   1.150 -0.2684  0.3144 -0.0904
    8CHTO   O83 2990   6.198   8.498   1.058  0.0408 -0.1460  0.4328
    8CHTO  H204 2991   6.201   8.590   1.076  1.9126  0.0578 -0.8128
    8CHTO  C109 2992   6.076   8.211   1.295 -0.2753  0.5300 -0.2691
    8CHTO  H213 2993   6.069   8.281   1.379  0.2639  1.6441 -1.1392
    8CHTO  C110 2994   6.148   8.081   1.339 -0.4566  1.0678 -0.9586
    8CHTO  H214 2995   6.162   8.018   1.251  2.2455 -1.0194  0.8424
    8CHTO   O78 2996   6.076   8.008   1.433  0.3267 -0.2107 -0.8579
    8CHTO  H200 2997   6.078   8.055   1.514 -1.5022 -0.3699 -0.7110
    8CHTO  C111 2998   6.297   8.111   1.381 -0.8958  0.1260 -0.2424
    8CHTO  H215 2999   6.297   8.175   1.471  3.3691  0.2953 -0.2578
    8CHTO   N19 3000   6.380   7.990   1.406 -0.4308 -0.1763 -0.1670
    8CHTO  H207 3001   6.462   7.995   1.476 -0.0338  2.6461 -0.7950
    8CHTO  H208 3002   6.416   7.939   1.317  0.8901 -2.3163  1.5605
    8CHTO   O74 3003   5.943   8.189   1.241  0.8805  0.2486 -0.1777
    8CHTO  C115 3004   5.818   8.175   1.352 -0.1299 -0.8299 -0.5684
    8CHTO  H219 3005   5.791   8.071   1.372 -3.1850  0.0383  0.2336
    8CHTO   O76 3006   5.874   8.228   1.507  0.1806  0.3495  0.0049
    8CHTO  C122 3007   5.781   8.278   1.600 -0.2573 -0.0730 -0.2054
    8CHTO  H226 3008   5.832   8.352   1.662  0.1450 -0.7790  0.3161
    8CHTO  C126 3009   5.724   8.170   1.705  0.2809 -0.3220 -0.0763
    8CHTO   O85 3010   5.665   8.058   1.642  0.5035  0.0412  0.2404
    8CHTO  H206 3011   5.660   7.983   1.697 -3.2999  1.0460  1.4302
    8CHTO  C121 3012   5.656   8.352   1.535 -0.3977  0.6078  0.6620
    8CHTO  H225 3013   5.558   8.301   1.546 -2.1354  3.2905 -1.7439
    8CHTO   O81 3014   5.642   8.482   1.590 -0.0396  0.4518 -0.1659
    8CHTO  H202 3015   5.639   8.480   1.684  1.8881 -0.6889 -0.1088
    8CHTO  C119 3016   5.677   8.387   1.382  0.3209  0.0362  0.0584
    8CHTO  H223 3017   5.584   8.433   1.347 -0.4821 -1.2096  0.4931
    8CHTO  C117 3018   5.700   8.263   1.291 -0.2169 -0.3352 -0.1781
    8CHTO  H221 3019   5.729   8.296   1.192 -0.5797  1.7468  0.3849
    8CHTO   N20 3020   5.581   8.172   1.276  0.4379  0.4249 -0.1012
    8CHTO  H209 3021   5.547   8.133   1.182  0.2875 -0.4932  0.3276
    8CHTO  H210 3022   5.547   8.118   1.363 -0.9580 -0.2155 -1.0264
    8CHTO   O80 3023   5.790   8.506   1.345 -0.5842 -0.2734 -0.2018
    8CHTO  C103 3024   5.738   8.643   1.302 -0.6755 -0.0052  0.0805
    8CHTO  H190 3025   5.629   8.639   1.299 -0.8113  1.7022  1.9001
    8CHTO  C101 3026   5.785   8.764   1.395 -0.1385  0.1676  0.3014
    8CHTO  H188 3027   5.892   8.770   1.416 -0.1986  0.7930  0.4368
    8CHTO   O68 3028   5.708   8.746   1.525 -0.2119  0.1072 -0.0029
    8CHTO  H168 3029   5.763   8.745   1.601 -0.7386 -0.4024  0.3837
    8CHTO   C99 3030   5.736   8.905   1.333  0.3557  0.5223  0.3577
    8CHTO  H186 3031   5.625   8.910   1.330  0.1864 -2.0320  1.5815
    8CHTO   N17 3032   5.786   9.032   1.394 -0.3514 -0.5322 -0.6355
    8CHTO  H174 3033   5.841   9.022   1.486  0.2918  0.4743 -0.8980
    8CHTO  H175 3034   5.828   9.101   1.321 -0.1662  0.3596  0.3052
    8CHTO   C97 3035   5.782   8.908   1.183  0.3785  0.1359  0.0297
    8CHTO  H184 3036   5.891   8.918   1.178  0.4139 -0.3888 -0.3646
    8CHTO   O64 3037   5.735   8.793   1.108  0.1264 -0.0364 -0.0959
    8CHTO  C104 3038   5.794   8.678   1.165 -0.4116  0.3310  0.0245
    8CHTO  H191 3039   5.900   8.699   1.174 -0.3535 -0.5166  1.5431
    8CHTO  C108 3040   5.787   8.561   1.066 -0.2606 -0.3403  0.7559
    8CHTO   O71 3041   5.851   8.590   0.937 -0.0991 -0.1520  0.0588
    8CHTO  H171 3042   5.814   8.666   0.896 -1.7916 -1.3792 -0.7744
    8CHTO   O62 3043   5.715   9.005   1.092  0.1037 -0.3035 -0.6406
    8CHTO   C91 3044   5.778   9.060   0.974  0.8767 -0.5377  0.4050
    8CHTO  H178 3045   5.859   8.990   0.952  0.6024 -1.4402  2.1310
    8CHTO   C92 3046   5.839   9.202   1.008  0.2537 -0.0908  0.0554
    8CHTO  H179 3047   5.764   9.272   1.048  1.4807  1.2788 -0.0090
    8CHTO   O66 3048   5.937   9.182   1.114  0.2747 -0.1865  0.5227
    8CHTO  H166 3049   6.013   9.141   1.077  1.8845  3.3030 -0.2510
    8CHTO   C93 3050   5.900   9.272   0.880  0.4573 -0.1489  0.5556
    8CHTO  H180 3051   5.996   9.225   0.854 -1.1933 -2.0194 -2.5059
    8CHTO   N16 3052   5.926   9.417   0.905 -0.1846 -0.4834  0.8183
    8CHTO  H172 3053   5.975   9.424   1.000  1.5650 -0.2190 -0.0804
    8CHTO  H173 3054   5.839   9.480   0.887 -1.9630 -2.8108  0.9738
    8CHTO   C94 3055   5.809   9.263   0.750 -0.3413  0.7489 -0.3387
    8CHTO  H181 3056   5.715   9.316   0.765 -1.4047 -1.3684  0.8136
    8CHTO   O61 3057   5.763   9.128   0.733 -0.0565 -0.2938 -0.7251
    8CHTO   C95 3058   5.685   9.076   0.847  0.3130 -0.5879 -0.0126
    8CHTO  H182 3059   5.597   9.137   0.863  0.1338 -1.3156  1.9368
    8CHTO  C106 3060   5.616   8.946   0.810 -0.6572  0.5230  0.0010
    8CHTO   O69 3061   5.536   8.967   0.691  0.1323 -0.2284  0.9064
    8CHTO  H169 3062   5.500   9.054   0.691 -0.4363 -0.4525  2.2940
    8CHTO   O63 3063   5.891   9.317   0.610 -0.0359  0.6077 -0.6192
    8CHTO   C96 3064   5.790   9.340   0.467 -0.6277 -0.0414 -0.9526
    8CHTO  H183 3065   5.692   9.304   0.500 -0.8071 -1.1865 -2.6444
    8CHTO   C98 3066   5.840   9.271   0.343 -0.8634 -0.7027 -0.4174
    8CHTO  H185 3067   5.946   9.301   0.336 -0.6531 -1.3844 -0.1530
    8CHTO   O67 3068   5.842   9.125   0.364 -0.0644  0.5163 -0.5316
    8CHTO  H167 3069   5.926   9.092   0.389 -0.8660 -1.4065 -0.2773
    8CHTO  C102 3070   5.766   9.304   0.213  0.3063  0.2437  0.6490
    8CHTO  H189 3071   5.683   9.232   0.212 -1.3105  2.0700  0.0032
    8CHTO   N18 3072   5.843   9.268   0.092  0.6013 -0.3333 -0.1293
    8CHTO  H176 3073   5.874   9.165   0.103  0.5636 -0.3482 -0.1620
    8CHTO  H177 3074   5.933   9.329   0.089  2.0581 -2.5214 -1.9276
    8CHTO  C105 3075   5.708   9.452   0.211  0.1343 -0.1842 -0.2409
    8CHTO  H192 3076   5.780   9.515   0.159  0.6878  0.4109  1.2170
    8CHTO   O65 3077   5.683   9.509   0.337 -0.3887 -0.1979  0.4022
    8CHTO  C100 3078   5.786   9.497   0.435  0.5453 -0.1658  0.6518
    8CHTO  H187 3079   5.887   9.524   0.400 -0.5675  2.2523 -0.8271
    8CHTO  C107 3080   5.746   9.593   0.552 -0.2872  0.2826 -0.2355
    8CHTO   O70 3081   5.789   9.726   0.530 -0.4604 -0.5613  0.1731
    8CHTO  H170 3082   5.765   9.754   0.444  0.4524 -0.7742 -0.1502
    8CHTO   O57 3083   5.574   9.422   0.135 -0.3578 -0.0163 -0.3374
    8CHTO   C85 3084   5.502   9.525   0.074 -0.5708  0.4858 -0.3409
    8CHTO  H157 3085   5.570   9.581   0.007 -1.2218  1.1493 -0.4594
    8CHTO   C83 3086   5.456   9.624   0.178 -0.4315 -0.4164 -0.8415
    8CHTO  H155 3087   5.539   9.679   0.223 -2.1583  1.9054 -0.3536
    8CHTO   O56 3088   5.389   9.557   0.278 -0.1380  0.0068  0.0152
    8CHTO  H135 3089   5.341   9.617   0.331 -0.0382 -0.3353  0.4975
    8CHTO   C81 3090   5.369   9.732   0.107  0.6922 -0.1045 -0.2582
    8CHTO  H153 3091   5.429   9.780   0.031  1.5026  0.5819  0.8059
    8CHTO   N14 3092   5.330   9.845   0.196  0.3614  0.2587  0.2017
    8CHTO  H141 3093   5.351   9.935   0.142  1.0562  0.5465  0.9621
    8CHTO  H142 3094   5.373   9.856   0.293 -0.0489 -1.3381  0.5814
    8CHTO   C79 3095   5.248   9.671   0.038 -0.5769  0.7724 -0.0842
    8CHTO  H151 3096   5.212   9.744  -0.035 -1.3921  1.1972  0.7345
    8CHTO   O52 3097   5.281   9.563  -0.054  0.4457 -0.3096 -0.2628
    8CHTO   C86 3098   5.384   9.459  -0.007 -0.0785  0.3658 -0.8067
    8CHTO  H158 3099   5.334   9.382   0.056  1.5142  2.0836  2.7089
    8CHTO   C90 3100   5.427   9.384  -0.135  0.0196 -0.2884 -0.7588
    8CHTO   O60 3101   5.525   9.282  -0.110 -0.5917 -0.4850 -0.4496
    8CHTO  H138 3102   5.536   9.232  -0.188 -0.3467  0.7677 -1.2238
    8CHTO   O50 3103   5.147   9.631   0.124 -0.1642  0.2468 -0.2834
    8CHTO   C73 3104   5.011   9.600   0.136 -0.0962  0.0023 -0.3831
    8CHTO  H145 3105   4.964   9.567   0.042  1.9653 -0.4428 -1.2792
    8CHTO   C74 3106   4.930   9.715   0.198  0.3749 -0.3240  0.2142
    8CHTO  H146 3107   4.950   9.796   0.126  0.4390  0.3956  1.0317
    8CHTO   O54 3108   4.790   9.676   0.196 -0.6600 -0.4157  0.0975
    8CHTO  H133 3109   4.738   9.740   0.242  1.2313  1.1769  0.0942
    8CHTO   C75 3110   4.994   9.750   0.343  0.4507  0.8569  0.2948
    8CHTO  H147 3111   5.100   9.775   0.330  0.6295  0.5348  1.1003
    8CHTO   N13 3112   4.932   9.866   0.404 -0.0022  0.4790  0.0979
    8CHTO  H139 3113   4.886   9.933   0.333  1.3311 -0.2627 -1.5231
    8CHTO  H140 3114   4.854   9.836   0.473  0.3196  0.5292  0.4856
    8CHTO   C76 3115   4.990   9.616   0.439 -0.6200 -0.2359 -0.2522
    8CHTO  H148 3116   4.887   9.584   0.453 -0.9360  0.8286 -0.0853
    8CHTO   O49 3117   5.063   9.513   0.364 -0.4344  0.4904 -0.7134
    8CHTO   C77 3118   5.003   9.479   0.237  0.2108 -0.8120  0.1325
    8CHTO  H149 3119   4.901   9.444   0.252 -0.6607  1.1311 -1.0951
    8CHTO   C88 3120   5.084   9.356   0.183 -0.3313 -0.1275  0.5668
    8CHTO   O58 3121   5.036   9.306   0.080  0.0861  0.1099  0.1867
    8CHTO  H136 3122   5.081   9.225   0.070 -1.6528 -1.3847  3.6199
    8CHTO   O51 3123   5.069   9.659   0.588 -0.4223  0.5315  0.2370
    8CHTO   C78 3124   5.092   9.546   0.692  0.3444  0.1226 -0.0988
    8CHTO  H150 3125   5.100   9.443   0.650 -2.3423 -0.9460  1.8438
    8CHTO   C80 3126   4.978   9.557   0.794  0.2173 -0.0937 -0.2071
    8CHTO  H152 3127   4.956   9.665   0.812 -1.8683 -0.2689 -1.5396
    8CHTO   O55 3128   4.856   9.515   0.731  0.7857  0.0335 -0.4894
    8CHTO  H134 3129   4.867   9.427   0.702 -1.9414 -0.5287  0.0832
    8CHTO   C84 3130   5.011   9.482   0.931  0.1683 -0.5366 -0.4930
    8CHTO  H156 3131   4.996   9.376   0.912 -0.6338 -0.7424  1.2211
    8CHTO   N15 3132   4.914   9.527   1.033 -0.3456 -0.1360 -0.0421
    8CHTO  H143 3133   4.876   9.443   1.087 -0.0360  0.0065  0.4013
    8CHTO  H144 3134   4.959   9.590   1.107  0.1089  0.8292 -1.1376
    8CHTO   C87 3135   5.153   9.510   0.979 -0.7883  0.1640 -0.7185
    8CHTO  H159 3136   5.168   9.614   1.007 -2.4539  0.1726  0.1780
    8CHTO   O53 3137   5.251   9.478   0.859  0.5905  0.4870  0.4678
    8CHTO   C82 3138   5.235   9.572   0.752 -0.7960  0.1497  0.4210
    8CHTO  H154 3139   5.247   9.673   0.790  1.0064  0.9251 -2.1351
    8CHTO   C89 3140   5.352   9.550   0.650 -0.5200  0.1537  0.5855
    8CHTO   O59 3141   5.468   9.598   0.724 -0.2084 -0.0708  0.2393
    8CHTO  H137 3142   5.541   9.572   0.671 -0.7401  0.6731 -0.8585
    8CHTO   O45 3143   5.186   9.415   1.108 -0.8336 -0.2033 -0.7076
    8CHTO   C67 3144   5.207   9.278   1.078 -0.4187 -0.1167  0.3331
    8CHTO  H124 3145   5.163   9.250   0.982 -0.3617  1.7635 -0.2631
    8CHTO   C65 3146   5.361   9.242   1.074 -0.0194  0.0674 -0.2512
    8CHTO  H122 3147   5.404   9.333   1.031  2.8134  0.4555  3.1545
    8CHTO   O44 3148   5.381   9.118   1.008  0.5811 -0.0993  0.4568
    8CHTO  H102 3149   5.473   9.100   1.004  0.6536 -0.1204  2.1221
    8CHTO   C63 3150   5.416   9.247   1.218  0.1838  1.2971  0.3929
    8CHTO  H120 3151   5.390   9.342   1.264 -1.7522  0.5853  0.8110
    8CHTO   N11 3152   5.563   9.255   1.223 -0.5202  0.2875 -0.0860
    8CHTO  H108 3153   5.589   9.294   1.320 -0.2810  0.2552 -0.1361
    8CHTO  H109 3154   5.601   9.328   1.155 -1.3688  1.9310  1.1789
    8CHTO   C61 3155   5.348   9.135   1.303  0.0422 -0.0706  0.4635
    8CHTO  H118 3156   5.376   9.154   1.408 -0.9836  2.1852  0.3655
    8CHTO   O40 3157   5.205   9.147   1.299 -0.0146 -0.3018  0.8265
    8CHTO   C68 3158   5.129   9.186   1.184 -0.5265  0.8520 -0.0284
    8CHTO  H125 3159   5.040   9.242   1.219 -0.2660  0.1395  1.8527
    8CHTO   C72 3160   5.078   9.053   1.121  0.0330  0.1913  0.2500
    8CHTO   O48 3161   4.947   9.013   1.154  0.3848  0.1950 -0.1705
    8CHTO  H105 3162   4.942   8.954   1.227 -3.0183  0.7416  0.1424
    8CHTO   O38 3163   5.385   9.003   1.254 -0.1330  0.3108 -0.3049
    8CHTO   C55 3164   5.320   8.887   1.305  0.6649 -0.9447  0.1749
    8CHTO  H112 3165   5.213   8.881   1.283  0.8868 -1.0094 -0.9322
    8CHTO   C56 3166   5.350   8.852   1.454 -0.9653  0.5300 -0.4972
    8CHTO  H113 3167   5.459   8.839   1.442 -0.9405 -1.5042  1.5550
    8CHTO   O42 3168   5.327   8.956   1.547  0.0384  0.1281 -0.6255
    8CHTO  H100 3169   5.398   9.018   1.544 -0.3754  0.6443  0.2196
    8CHTO   C57 3170   5.283   8.723   1.495 -0.2081  1.0120  0.0672
    8CHTO  H114 3171   5.179   8.751   1.482 -0.7968 -1.4038 -0.7280
    8CHTO   N10 3172   5.312   8.678   1.633  0.2471  0.1754 -0.0534
    8CHTO  H106 3173   5.220   8.640   1.677  0.2386 -2.9848 -2.5809
    8CHTO  H107 3174   5.387   8.602   1.650 -0.1734 -0.1703  0.2766
    8CHTO   C58 3175   5.312   8.612   1.385 -0.1329 -1.0916 -0.0180
    8CHTO  H115 3176   5.413   8.572   1.409  0.5636  1.1404  0.8409
    8CHTO   O37 3177   5.298   8.649   1.250  0.4440 -0.0774 -0.2220
    8CHTO   C59 3178   5.362   8.767   1.205 -0.1985 -0.2548 -0.2441
    8CHTO  H116 3179   5.469   8.746   1.211  0.6497  3.0990 -1.9879
    8CHTO   C70 3180   5.318   8.790   1.061  0.4404  0.2459 -0.5813
    8CHTO   O46 3181   5.379   8.696   0.974 -0.5584  0.1706  0.9505
    8CHTO  H103 3182   5.331   8.676   0.896 -0.2109 -0.2646  0.8486
    8CHTO   O39 3183   5.211   8.499   1.411  0.2310 -0.0672  0.6656
    8CHTO   C60 3184   5.069   8.523   1.407  0.4766  0.1512  0.2743
    8CHTO  H117 3185   5.040   8.582   1.494 -1.8272 -0.2958 -0.1550
    8CHTO   C62 3186   5.020   8.591   1.276  0.2554  0.0584 -0.7446
    8CHTO  H119 3187   5.071   8.689   1.272  1.9358 -0.7797 -0.1281
    8CHTO   O43 3188   5.069   8.517   1.166 -0.2233  0.2465  0.3885
    8CHTO  H101 3189   4.998   8.462   1.138  0.9174 -1.5676  1.0118
    8CHTO   C66 3190   4.854   8.611   1.275 -0.0722  0.2978  0.6803
    8CHTO  H123 3191   4.818   8.657   1.367  0.7946  0.2032  1.0755
    8CHTO   N12 3192   4.810   8.700   1.164  0.5234  0.0904  0.2798
    8CHTO  H110 3193   4.887   8.766   1.126 -1.2488  0.6651 -2.3817
    8CHTO  H111 3194   4.729   8.762   1.199 -0.8280 -0.9682 -0.9323
    8CHTO   C69 3195   4.791   8.471   1.285 -0.5651  0.9799  0.0016
    8CHTO  H126 3196   4.811   8.412   1.192 -0.4518  0.1994  0.5146
    8CHTO   O41 3197   4.843   8.392   1.408 -0.3644 -0.6516  0.0803
    8CHTO   C64 3198   5.001   8.384   1.429  0.1993  0.7880 -0.0075
    8CHTO  H121 3199   5.045   8.307   1.362  1.0874  1.4535 -0.2044
    8CHTO   C71 3200   5.035   8.332   1.571 -0.4352  0.6193  0.5242
    8CHTO   O47 3201   4.967   8.212   1.609  0.6746 -0.0489 -0.3765
    8CHTO  H104 3202   5.020   8.155   1.662 -0.0751 -1.8641 -1.5095
    8CHTO   O34 3203   4.626   8.482   1.295 -0.4167 -0.3630  0.1308
    8CHTO   C49 3204   4.504   8.508   1.407 -0.8440 -0.1832 -0.1820
    8CHTO   H91 3205   4.513   8.418   1.468  0.2909 -1.1993 -1.8132
    8CHTO   C47 3206   4.374   8.515   1.326 -0.0792  0.3639  0.1320
    8CHTO   H89 3207   4.292   8.535   1.398  1.2539  0.8041  1.5601
    8CHTO   O33 3208   4.348   8.386   1.269  0.1527  0.3150  0.5676
    8CHTO   H70 3209   4.265   8.355   1.299 -0.2405 -0.2504 -1.0753
    8CHTO   C45 3210   4.385   8.629   1.213 -0.1634 -0.0074  0.6954
    8CHTO   H87 3211   4.472   8.610   1.149 -1.5135  0.6606 -1.4193
    8CHTO    N8 3212   4.264   8.646   1.130 -0.7126 -0.2302  0.2757
    8CHTO   H75 3213   4.182   8.576   1.144 -1.4086  0.3878 -0.6125
    8CHTO   H76 3214   4.291   8.662   1.026  2.1461 -0.0315  1.0065
    8CHTO   C43 3215   4.429   8.765   1.289  0.1562 -0.2415 -0.1237
    8CHTO   H85 3216   4.467   8.837   1.217  0.0027  1.4091  1.4141
    8CHTO   O29 3217   4.521   8.749   1.398 -0.0642 -0.1037 -0.2290
    8CHTO   C50 3218   4.518   8.637   1.487 -0.4523  0.3045 -0.2863
    8CHTO   H92 3219   4.607   8.624   1.551 -1.5190 -1.3117  0.9020
    8CHTO   C54 3220   4.410   8.657   1.600  0.1205  0.0747  0.4329
    8CHTO   O36 3221   4.437   8.770   1.685  0.5068 -0.1692  0.1731
    8CHTO   H72 3222   4.394   8.763   1.768 -0.1774  0.6207 -0.1084
    8CHTO   O27 3223   4.318   8.826   1.359  0.5203  0.2403  0.7998
    8CHTO   C37 3224   4.278   8.962   1.373  0.0826 -0.2222  0.1956
    8CHTO   H79 3225   4.210   8.964   1.460 -1.2751 -1.9633 -0.7897
    8CHTO   C38 3226   4.400   9.060   1.400 -0.1030 -0.4120  0.0923
    8CHTO   H80 3227   4.467   9.056   1.313 -1.6146 -0.9873 -1.0602
    8CHTO   O31 3228   4.463   9.025   1.527  0.1635  0.3586  0.0407
    8CHTO   H68 3229   4.422   9.078   1.593  0.6693 -0.1497  0.7652
    8CHTO   C39 3230   4.357   9.213   1.402 -0.2109 -0.3867 -0.4529
    8CHTO   H81 3231   4.285   9.221   1.484 -0.7486  1.9029 -1.1230
    8CHTO    N7 3232   4.473   9.307   1.432  0.6019 -0.6339 -0.5068
    8CHTO   H73 3233   4.564   9.251   1.443  0.4106 -0.7869  0.3226
    8CHTO   H74 3234   4.450   9.370   1.517 -1.8206  0.3333 -1.8234
    8CHTO   C40 3235   4.276   9.247   1.273  0.2325 -0.1805 -0.0610
    8CHTO   H82 3236   4.343   9.248   1.187 -0.1620 -0.2025 -0.3720
    8CHTO   O26 3237   4.169   9.153   1.258  0.0331 -0.0384 -0.0159
    8CHTO   C41 3238   4.199   9.017   1.254  0.0322 -0.7692 -0.0528
    8CHTO   H83 3239   4.259   8.999   1.164 -0.8355  0.6888 -0.9495
    8CHTO   C52 3240   4.070   8.939   1.216 -0.4824 -0.0633  0.1804
    8CHTO   O35 3241   4.023   8.973   1.081 -0.7982  0.4999 -0.4216
    8CHTO   H71 3242   3.972   8.903   1.046 -0.3112 -0.6700  1.1866
    8CHTO   O28 3243   4.216   9.372   1.274 -0.2075  0.0247  0.4422
    8CHTO   C42 3244   4.194   9.446   1.155 -0.6438 -0.1744 -0.0347
    8CHTO   H84 3245   4.167   9.542   1.199 -0.6754 -0.8074  1.3850
    8CHTO   C44 3246   4.071   9.401   1.067  0.2811  0.3501 -0.8954
    8CHTO   H86 3247   4.080   9.293   1.056 -0.5865  0.1827 -0.0088
    8CHTO   O32 3248   3.954   9.406   1.148  0.0502 -0.1835 -0.0855
    8CHTO   H69 3249   3.888   9.470   1.129 -0.1866 -0.1205  0.9407
    8CHTO   C48 3250   4.048   9.483   0.937  0.2898 -0.1161  0.6241
    8CHTO   H90 3251   3.987   9.571   0.959 -1.7922 -1.4840  0.5254
    8CHTO    N9 3252   3.955   9.403   0.852 -0.0435 -0.2577 -0.4149
    8CHTO   H77 3253   3.948   9.454   0.757 -0.6323  0.7958  0.1803
    8CHTO   H78 3254   3.857   9.401   0.897  0.4257  0.6155  0.6883
    8CHTO   C51 3255   4.182   9.513   0.864  0.8654  0.4589 -0.1147
    8CHTO   H93 3256   4.216   9.423   0.812  1.0950  0.5770 -0.1718
    8CHTO   O30 3257   4.279   9.560   0.945  0.2735  0.0053 -0.4221
    8CHTO   C46 3258   4.320   9.468   1.068 -0.4855 -0.5932  0.5862
    8CHTO   H88 3259   4.343   9.375   1.016 -1.7221 -0.1831 -0.7329
    8CHTO   C53 3260   4.438   9.525   1.145  0.4359  0.3554 -0.2263
    8CHTO   O72 3261   4.529   9.580   1.053  0.3336 -0.1317  0.1165
    8CHTO  H199 3262   4.599   9.612   1.107  0.5415 -1.5293  0.7169
    8CHTO   O22 3263   4.164   9.620   0.770 -0.1577 -0.2401  0.0549
    8CHTO   C31 3264   4.235   9.638   0.644 -0.2286  0.9989  0.2235
    8CHTO   H59 3265   4.194   9.730   0.596  0.7994  0.6663 -1.3393
    8CHTO   C29 3266   4.386   9.656   0.655 -0.1791  0.4220 -0.5652
    8CHTO   H57 3267   4.425   9.565   0.703  0.1363 -0.4705 -2.4834
    8CHTO   O21 3268   4.404   9.769   0.737 -0.1671 -0.1118  0.3830
    8CHTO   H37 3269   4.368   9.760   0.823 -0.9604  3.3422  0.4928
    8CHTO   C27 3270   4.448   9.673   0.513 -0.7164  0.0908 -0.6648
    8CHTO   H55 3271   4.408   9.759   0.458 -2.6417 -1.4958 -1.8341
    8CHTO    N5 3272   4.598   9.679   0.517  0.8831  0.0762  0.2236
    8CHTO   H43 3273   4.649   9.651   0.608  0.1692 -1.5346  0.1530
    8CHTO   H44 3274   4.643   9.763   0.468 -0.4473  0.2476 -0.7446
    8CHTO   C25 3275   4.411   9.558   0.414  0.1230  0.3499 -0.1388
    8CHTO   H53 3276   4.451   9.462   0.449  1.0875  0.8362  0.0952
    8CHTO   O17 3277   4.262   9.537   0.413  0.2060 -0.3004  0.8833
    8CHTO   C32 3278   4.201   9.524   0.543 -0.0139 -0.5846  0.0475
    8CHTO   H60 3279   4.231   9.428   0.585 -0.4902 -0.9544 -0.4387
    8CHTO   C36 3280   4.044   9.520   0.523  0.3411 -0.2745 -0.2439
    8CHTO   O25 3281   3.989   9.390   0.502 -0.2276  0.2307 -0.2023
    8CHTO   H40 3282   4.046   9.330   0.458 -1.5398 -0.3628 -1.1342
    8CHTO   O15 3283   4.465   9.559   0.264  0.0672 -0.0864 -0.2837
    8CHTO   C19 3284   4.496   9.490   0.136  0.3693 -0.3714 -0.3459
    8CHTO   H47 3285   4.399   9.445   0.112  0.4017  0.1822 -1.5601
    8CHTO   C20 3286   4.522   9.595   0.028 -0.1485  0.3665 -0.4808
    8CHTO   H48 3287   4.591   9.672   0.065 -0.5311  0.6155 -0.2805
    8CHTO   O19 3288   4.392   9.660  -0.000 -0.1413 -0.2475  0.1958
    8CHTO   H35 3289   4.371   9.719   0.070 -1.0235  0.7008 -0.8519
    8CHTO   C21 3290   4.578   9.523  -0.102  0.4200  0.7787 -0.1480
    8CHTO   H49 3291   4.490   9.477  -0.147  1.9445 -0.9750 -1.4061
    8CHTO    N4 3292   4.628   9.612  -0.210 -0.5392 -0.1340 -0.1104
    8CHTO   H41 3293   4.671   9.560  -0.294 -0.2345  1.2146 -0.8110
    8CHTO   H42 3294   4.700   9.683  -0.172 -0.2557 -0.7234  0.4588
    8CHTO   C22 3295   4.676   9.403  -0.071  0.6172 -0.1286 -0.7050
    8CHTO   H50 3296   4.767   9.441  -0.025  1.4010 -2.5747 -0.1277
    8CHTO   O14 3297   4.625   9.309   0.023  0.4826  0.0360 -0.0912
    8CHTO   C23 3298   4.605   9.372   0.152  0.5927 -0.2435 -0.3100
    8CHTO   H51 3299   4.699   9.411   0.192 -0.1660  1.6088 -0.2386
    8CHTO   C34 3300   4.555   9.265   0.252  1.2795  0.4018  0.0913
    8CHTO   O23 3301   4.633   9.150   0.260  0.1775 -0.1691 -0.2887
    8CHTO   H38 3302   4.715   9.178   0.297 -0.8353  4.2161 -1.0749
    8CHTO   O16 3303   4.698   9.329  -0.191  0.5545  0.0595  0.2291
    8CHTO   C24 3304   4.827   9.243  -0.181 -0.4598 -0.2776 -0.7075
    8CHTO   H52 3305   4.853   9.222  -0.077  1.4659 -1.1871 -1.3529
    8CHTO   C26 3306   4.944   9.314  -0.253  0.8866 -0.3100 -0.1464
    8CHTO   H54 3307   4.904   9.352  -0.349  0.6196  0.4610  0.2634
    8CHTO   O20 3308   4.989   9.429  -0.174 -0.6795  0.7136 -0.2234
    8CHTO   H36 3309   5.075   9.448  -0.206  0.0065 -2.2461 -0.2683
    8CHTO   C30 3310   5.058   9.215  -0.301  0.3087  0.9953 -0.6546
    8CHTO   H58 3311   5.108   9.184  -0.208 -2.6087 -2.4081 -0.1304
    8CHTO    N6 3312   5.164   9.284  -0.381  0.2655 -0.2758 -0.0522
    8CHTO   H45 3313   5.237   9.208  -0.404 -1.0504 -1.4634 -0.3662
    8CHTO   H46 3314   5.207   9.365  -0.324  0.4946  0.9581 -1.9325
    8CHTO   C33 3315   4.991   9.092  -0.372 -0.4474 -0.4798 -0.0866
    8CHTO   H61 3316   4.943   9.112  -0.469 -2.3327  0.2289  0.9633
    8CHTO   O18 3317   4.895   9.035  -0.283  0.3766 -0.2101  0.1050
    8CHTO   C28 3318   4.784   9.111  -0.251  0.0758 -0.0925  0.4751
    8CHTO   H56 3319   4.722   9.137  -0.336 -1.1601 -1.2702  0.9966
    8CHTO   C35 3320   4.694   9.025  -0.160  0.1382 -0.7035  0.0293
    8CHTO   O24 3321   4.652   8.897  -0.199  0.8576  0.4244  0.5530
    8CHTO   H39 3322   4.589   8.897  -0.268 -0.5383  1.8251  1.7917
    8CHTO    O9 3323   5.100   9.000  -0.402  0.2491  0.0355 -0.1270
    8CHTO   C13 3324   5.067   8.877  -0.490  0.1166  0.8975  0.8672
    8CHTO   H26 3325   4.995   8.898  -0.572 -0.0502  0.4414  0.8913
    8CHTO   C11 3326   5.018   8.748  -0.397  0.4900 -0.6104 -0.5532
    8CHTO   H24 3327   4.909   8.748  -0.385  0.4538 -0.2820 -0.9093
    8CHTO    O8 3328   5.072   8.771  -0.270  0.3396 -0.5663 -0.1617
    8CHTO    H3 3329   5.133   8.704  -0.248 -0.5977 -1.6302 -0.7109
    8CHTO    C9 3330   5.064   8.610  -0.458 -0.2571  0.6390  0.2935
    8CHTO   H22 3331   5.006   8.590  -0.549  2.3210 -3.0101 -0.6950
    8CHTO    N2 3332   5.023   8.498  -0.374 -0.0931 -0.1827  0.0757
    8CHTO   H10 3333   4.924   8.464  -0.401  1.2958 -1.8192 -3.2043
    8CHTO   H11 3334   5.088   8.412  -0.377 -1.5547 -1.4172  1.8518
    8CHTO    C7 3335   5.221   8.617  -0.480  1.2656 -0.4033  0.1220
    8CHTO   H20 3336   5.236   8.570  -0.579  1.3015 -0.6794  0.2560
    8CHTO    O4 3337   5.272   8.747  -0.490  0.0520 -0.5345 -0.3275
    8CHTO   C14 3338   5.194   8.834  -0.571 -0.1130 -0.0746  0.8190
    8CHTO   H27 3339   5.180   8.775  -0.663  0.6780 -0.1165  0.7233
    8CHTO   C18 3340   5.287   8.953  -0.604 -0.0751  0.5611  0.0080
    8CHTO   O13 3341   5.378   8.914  -0.717  0.0928  0.1634  0.0912
    8CHTO    H7 3342   5.443   8.857  -0.681 -1.1919 -1.0025  0.6310
    8CHTO    O2 3343   5.325   8.522  -0.365 -0.0277 -0.0773 -0.4625
    8CHTO    C1 3344   5.462   8.554  -0.359 -0.3160  0.2480  0.6968
    8CHTO   H14 3345   5.472   8.663  -0.376  2.0169 -0.1007 -0.4361
    8CHTO    C2 3346   5.543   8.476  -0.474 -0.2714 -0.6447  0.0104
    8CHTO   H15 3347   5.514   8.371  -0.458 -1.1426 -0.4459 -0.1971
    8CHTO    O6 3348   5.497   8.529  -0.598 -0.8275  0.3227 -0.0532
    8CHTO    H1 3349   5.466   8.618  -0.594 -1.2073  0.1436  1.2988
    8CHTO    C3 3350   5.697   8.500  -0.459 -0.1418  0.1316 -0.7830
    8CHTO   H16 3351   5.715   8.606  -0.482 -0.3206  0.1972 -0.6257
    8CHTO    N1 3352   5.764   8.414  -0.566  0.5878  0.3799  0.0875
    8CHTO    H8 3353   5.726   8.440  -0.664  0.7822 -1.6106 -0.5384
    8CHTO    H9 3354   5.731   8.314  -0.546  0.2547  0.1210 -1.6715
    8CHTO    C4 3355   5.753   8.476  -0.314 -0.1559  0.2478 -0.5309
    8CHTO   H17 3356   5.746   8.370  -0.293 -0.9966  0.8153  2.1836
    8CHTO    O1 3357   5.669   8.545  -0.221  0.5556  0.3110  0.2904
    8CHTO    C5 3358   5.521   8.510  -0.219 -0.5364  0.2867 -0.6575
    8CHTO   H18 3359   5.524   8.403  -0.199 -0.5829  0.8136  2.5334
    8CHTO   C16 3360   5.451   8.576  -0.098  0.6700  0.9015 -0.0632
    8CHTO   O11 3361   5.313   8.550  -0.085  0.1901  0.3644  0.4009
    8CHTO    H5 3362   5.279   8.597  -0.011 -1.9358  0.4990 -0.6207
    8CHTO    O3 3363   5.889   8.515  -0.292 -0.1602  0.0480  0.1303
    8CHTO    C6 3364   5.961   8.426  -0.200 -0.8061 -0.0957 -0.5708
    8CHTO   H19 3365   5.893   8.359  -0.148 -1.3249  2.2725  1.9574
    8CHTO    C8 3366   6.057   8.343  -0.280  0.1650  0.3067 -0.2167
    8CHTO   H21 3367   6.122   8.410  -0.336  1.8225  0.5475  1.9774
    8CHTO    O7 3368   5.985   8.256  -0.374  0.4923  0.3360  0.0178
    8CHTO    H2 3369   5.892   8.255  -0.358  0.0003 -0.4144 -2.7668
    8CHTO   C12 3370   6.154   8.272  -0.185  0.5168  0.2682 -0.4727
    8CHTO   H25 3371   6.088   8.201  -0.130 -0.8333  0.6584 -1.5506
    8CHTO    N3 3372   6.256   8.197  -0.269 -0.2655 -0.6021  0.2179
    8CHTO   H12 3373   6.335   8.256  -0.313 -0.2259 -1.3037 -0.6625
    8CHTO   H13 3374   6.292   8.107  -0.221  0.4328  0.0737  0.9821
    8CHTO   C15 3375   6.220   8.364  -0.078  0.4672  0.1441 -0.5283
    8CHTO   H28 3376   6.284   8.437  -0.128  0.9227 -2.0622 -3.2809
    8CHTO   O10 3377   6.287   8.276   0.036 -0.5121 -0.4698 -0.4055
    8CHTO    H4 3378   6.375   8.263   0.008  0.1215 -1.6692  2.0056
    8CHTO    O5 3379   6.116   8.435  -0.006 -0.1335 -0.6577  0.4979
    8CHTO   C10 3380   6.031   8.517  -0.095 -0.2967  0.1583 -0.6814
    8CHTO   H23 3381   6.081   8.598  -0.148  1.0994 -1.1347 -1.3879
    8CHTO   C17 3382   5.925   8.583  -0.007  0.4763 -0.3284  0.0918
    8CHTO   O12 3383   5.842   8.487   0.064  0.0617 -0.0345 -0.2686
    8CHTO    H6 3384   5.799   8.423   0.011  0.5676  0.1638 -0.9273
    9CHTO  H203 3385   8.095   3.217   3.573 -0.7144  0.6493 -0.2736
    9CHTO   O82 3386   8.093   3.294   3.627 -0.8726  0.6139 -0.2289
    9CHTO  C123 3387   8.113   3.418   3.555  0.0630 -0.2681 -0.4365
    9CHTO  H227 3388   8.095   3.499   3.627 -0.9919  1.0313 -2.1545
    9CHTO   O77 3389   8.257   3.424   3.511 -0.2020  0.2126  0.1500
    9CHTO  C118 3390   8.297   3.527   3.418  0.5432  0.0850  0.0475
    9CHTO  H222 3391   8.279   3.626   3.464  0.7924  0.8443 -1.4703
    9CHTO  C125 3392   8.450   3.509   3.380  0.0549  0.6246  0.2450
    9CHTO   O84 3393   8.521   3.531   3.502  0.1015 -0.1872  0.8561
    9CHTO  H205 3394   8.595   3.585   3.482  2.1465 -2.4957  2.1178
    9CHTO  C114 3395   8.208   3.513   3.293  0.7248  0.6347  0.3545
    9CHTO  H218 3396   8.228   3.413   3.254 -0.9186  0.1467  0.7220
    9CHTO  C116 3397   8.050   3.527   3.323  0.7984 -0.6027 -0.1040
    9CHTO  H220 3398   8.029   3.626   3.367 -1.5123 -0.8654 -0.5772
    9CHTO   O79 3399   7.978   3.522   3.197  0.3600 -0.2823  0.3178
    9CHTO  H201 3400   7.904   3.580   3.199  0.2097 -0.4907  1.6182
    9CHTO  C120 3401   8.013   3.422   3.429 -0.1002  0.3175  0.3570
    9CHTO  H224 3402   8.018   3.322   3.382  2.6159  1.3495 -1.6622
    9CHTO   N21 3403   7.872   3.417   3.475 -0.0679 -0.2963 -0.3414
    9CHTO  H211 3404   7.815   3.413   3.383  0.3118 -2.1336 -0.5151
    9CHTO  H212 3405   7.836   3.504   3.526  2.1602 -0.2851  1.2793
    9CHTO   O75 3406   8.249   3.612   3.201 -0.6085  0.3223 -0.9053
    9CHTO  C112 3407   8.291   3.567   3.033  0.0008 -0.1108 -1.3151
    9CHTO  H216 3408   8.205   3.562   2.964 -0.6242  0.4413 -0.5890
    9CHTO   O73 3409   8.366   3.443   3.036 -0.0780 -0.2018  0.4267
    9CHTO  C113 3410   8.401   3.393   2.913  0.1828  0.6079  0.6108
    9CHTO  H217 3411   8.318   3.362   2.846  1.7790 -1.2190 -0.6054
    9CHTO  C124 3412   8.472   3.258   2.947  0.5291 -0.3407 -0.5816
    9CHTO   O83 3413   8.376   3.165   3.010  0.3616 -0.3804  0.4036
    9CHTO  H204 3414   8.311   3.220   3.049  1.7555  0.8439  1.0155
    9CHTO  C109 3415   8.489   3.491   2.822 -0.1470  0.7933 -0.3437
    9CHTO  H213 3416   8.586   3.499   2.874  0.2831  1.6617 -1.2467
    9CHTO  C110 3417   8.419   3.634   2.823 -0.6272 -0.5125  0.2152
    9CHTO  H214 3418   8.328   3.626   2.763  0.0528  1.7488 -1.1870
    9CHTO   O78 3419   8.507   3.734   2.765  0.1374  0.3068  0.1911
    9CHTO  H200 3420   8.547   3.706   2.685 -0.6078  0.2837 -0.1788
    9CHTO  C111 3421   8.387   3.674   2.971 -0.3875 -0.7072  0.1313
    9CHTO  H215 3422   8.476   3.668   3.036 -0.3655 -0.4990  0.1198
    9CHTO   N19 3423   8.331   3.815   2.986  0.5848 -0.1511  0.6035
    9CHTO  H207 3424   8.288   3.842   2.890  1.3171 -1.2033 -0.0268
    9CHTO  H208 3425   8.263   3.821   3.070  1.3101 -0.3957  1.2025
    9CHTO   O74 3426   8.508   3.449   2.683 -0.1928  0.2593  0.0626
    9CHTO  C115 3427   8.649   3.422   2.645 -0.2566 -0.0490  0.4131
    9CHTO  H219 3428   8.721   3.469   2.711 -0.8173 -0.0097  1.0031
    9CHTO   O76 3429   8.686   3.253   2.660  0.3409 -0.5448  0.1927
    9CHTO  C122 3430   8.609   3.182   2.558 -0.9338  0.2044 -0.0160
    9CHTO  H226 3431   8.504   3.177   2.586 -0.3883  0.5248  2.2327
    9CHTO  C126 3432   8.661   3.026   2.565  0.1321 -0.3853 -0.5045
    9CHTO   O85 3433   8.588   2.954   2.663  0.7147 -0.8716  0.6994
    9CHTO  H206 3434   8.635   2.878   2.692 -1.8866 -2.3398  1.2591
    9CHTO  C121 3435   8.621   3.244   2.411  0.0967  0.6752  0.1964
    9CHTO  H225 3436   8.721   3.229   2.364 -0.0027  0.8322 -0.0665
    9CHTO   O81 3437   8.534   3.163   2.323 -0.0243  0.4637 -0.1325
    9CHTO  H202 3438   8.444   3.182   2.340  1.0611  2.5001  4.1101
    9CHTO  C119 3439   8.584   3.398   2.400 -0.0285 -0.7192 -0.2896
    9CHTO  H223 3440   8.600   3.428   2.297  0.2770 -2.3909 -0.7355
    9CHTO  C117 3441   8.679   3.474   2.501  0.7030  0.8613  0.4408
    9CHTO  H221 3442   8.653   3.580   2.511 -0.1501  0.8917 -1.7835
    9CHTO   N20 3443   8.817   3.477   2.451  0.3373 -0.2302 -0.0418
    9CHTO  H209 3444   8.880   3.543   2.508 -0.9473 -2.5652  4.3353
    9CHTO  H210 3445   8.853   3.375   2.447  2.0325  0.4294 -2.2021
    9CHTO   O80 3446   8.438   3.435   2.419  0.4697 -0.3735 -0.1591
    9CHTO  C103 3447   8.368   3.571   2.330 -0.6493  0.1824  0.0715
    9CHTO  H190 3448   8.282   3.608   2.387  0.5977  1.0227  1.4657
    9CHTO  C101 3449   8.455   3.695   2.295  0.2930  0.3352  0.1945
    9CHTO  H188 3450   8.549   3.672   2.245  0.7370 -0.8775  1.5354
    9CHTO   O68 3451   8.502   3.761   2.439  0.2232  0.4887  0.0395
    9CHTO  H168 3452   8.442   3.830   2.459  0.7341  0.7239  0.7337
    9CHTO   C99 3453   8.368   3.794   2.197  0.5721 -0.6199  0.1136
    9CHTO  H186 3454   8.277   3.818   2.257 -0.7045  0.2300 -2.1113
    9CHTO   N17 3455   8.431   3.924   2.157  0.1520 -0.1647 -0.0366
    9CHTO  H174 3456   8.509   3.907   2.085 -0.6395 -0.3620 -0.8504
    9CHTO  H175 3457   8.469   3.973   2.246  1.2192  1.6205 -1.4390
    9CHTO   C97 3458   8.321   3.707   2.072 -0.0628  0.2907 -0.6212
    9CHTO  H184 3459   8.405   3.674   2.010 -0.1085 -1.5990  0.3067
    9CHTO   O64 3460   8.247   3.596   2.121 -0.4129  0.2772 -0.2501
    9CHTO  C104 3461   8.314   3.504   2.205 -0.2785  0.0528  0.1615
    9CHTO  H191 3462   8.397   3.466   2.146 -1.5055 -1.5060 -0.5723
    9CHTO  C108 3463   8.226   3.387   2.243 -0.2768 -0.2848  0.2182
    9CHTO   O71 3464   8.191   3.316   2.125  0.7071  0.3861  0.0759
    9CHTO  H171 3465   8.115   3.264   2.143  0.5670 -1.0049 -4.0398
    9CHTO   O62 3466   8.228   3.783   1.986 -0.6254 -0.5638 -0.2256
    9CHTO   C91 3467   8.205   3.734   1.857 -0.6164 -0.5288 -0.4122
    9CHTO  H178 3468   8.280   3.661   1.825 -2.2305 -1.8590 -1.2547
    9CHTO   C92 3469   8.228   3.861   1.777  0.8005  0.5032  0.7199
    9CHTO  H179 3470   8.325   3.898   1.815  1.8623  0.2282 -1.6611
    9CHTO   O66 3471   8.255   3.821   1.648  0.5908 -0.3309  0.2625
    9CHTO  H166 3472   8.339   3.780   1.647  1.2122  0.9176 -1.8596
    9CHTO   C93 3473   8.109   3.968   1.772 -0.0590 -0.7554  0.1261
    9CHTO  H180 3474   8.107   4.027   1.680  0.9646  0.0840  0.6243
    9CHTO   N16 3475   8.121   4.072   1.880  0.2361 -0.6454 -0.2411
    9CHTO  H172 3476   8.135   4.169   1.835  2.2732  0.1907  2.0599
    9CHTO  H173 3477   8.035   4.078   1.945  0.2839  2.1645 -0.4036
    9CHTO   C94 3478   7.977   3.885   1.792 -0.6308  0.0450  0.1757
    9CHTO  H181 3479   7.954   3.865   1.896 -1.0046 -0.2381  0.0392
    9CHTO   O61 3480   7.984   3.752   1.736  0.6540  0.1576 -0.0675
    9CHTO   C95 3481   8.069   3.672   1.822  0.0642  0.6794 -0.3153
    9CHTO  H182 3482   8.010   3.635   1.906 -0.5490  0.4701 -0.8314
    9CHTO  C106 3483   8.092   3.534   1.754  0.2224 -0.5855  0.0576
    9CHTO   O69 3484   7.974   3.452   1.721 -0.1223  0.5295 -0.2249
    9CHTO  H169 3485   7.989   3.367   1.756  3.0706  0.6176 -1.1889
    9CHTO   O63 3486   7.846   3.944   1.721  0.1978  0.6526  0.0534
    9CHTO   C96 3487   7.709   3.912   1.786  0.7599 -0.4667  0.1947
    9CHTO  H183 3488   7.725   3.847   1.872 -0.8655  3.1329  3.3927
    9CHTO   C98 3489   7.605   3.845   1.690 -0.5058 -0.0102 -0.3342
    9CHTO  H185 3490   7.602   3.893   1.591  1.1460  0.0164 -0.3899
    9CHTO   O67 3491   7.652   3.711   1.670  0.2788 -0.0824 -0.0196
    9CHTO  H167 3492   7.631   3.678   1.585 -2.5679 -0.7623  0.9040
    9CHTO  C102 3493   7.459   3.841   1.743 -0.4786  0.6003 -0.1763
    9CHTO  H189 3494   7.458   3.788   1.839  0.9604  1.8719  0.5633
    9CHTO   N18 3495   7.353   3.791   1.660  0.5761  0.1363 -0.7628
    9CHTO  H176 3496   7.383   3.707   1.599 -0.6646 -1.1723  0.3923
    9CHTO  H177 3497   7.262   3.765   1.712  1.9296  1.0948  2.1891
    9CHTO  C105 3498   7.426   3.986   1.790  0.5386 -0.0546  0.3216
    9CHTO  H192 3499   7.418   4.048   1.700 -0.1394  1.7149  1.5764
    9CHTO   O65 3500   7.523   4.038   1.892  0.3032  0.5617 -1.1039
    9CHTO  C100 3501   7.654   4.050   1.844  0.2165  0.2150 -0.1249
    9CHTO  H187 3502   7.654   4.126   1.764  0.3313  0.9384  0.5621
    9CHTO  C107 3503   7.743   4.111   1.957  0.6158 -0.5282  0.5562
    9CHTO   O70 3504   7.716   4.248   1.976  0.1637  0.2645 -0.1686
    9CHTO  H170 3505   7.771   4.298   1.919  0.9283 -0.5795 -0.1805
    9CHTO   O57 3506   7.273   4.001   1.863 -0.1433  0.0077 -0.0204
    9CHTO   C85 3507   7.191   4.107   1.808 -0.4788  0.4407  0.6228
    9CHTO  H157 3508   7.189   4.092   1.698 -0.3840  1.1387  0.5224
    9CHTO   C83 3509   7.260   4.247   1.836 -1.1497  0.1111 -0.0977
    9CHTO  H155 3510   7.338   4.261   1.761  0.3079 -3.4587  0.6725
    9CHTO   O56 3511   7.317   4.245   1.970 -0.1576 -0.0424  0.0463
    9CHTO  H135 3512   7.382   4.180   1.990  1.0467  1.4556  1.1275
    9CHTO   C81 3513   7.160   4.371   1.819  0.0718  0.1831  0.6141
    9CHTO  H153 3514   7.128   4.374   1.715  0.2477 -3.4806  0.3944
    9CHTO   N14 3515   7.219   4.505   1.829  0.6053 -0.1531  0.1280
    9CHTO  H141 3516   7.284   4.507   1.744 -0.9397 -1.0545 -1.1264
    9CHTO  H142 3517   7.139   4.573   1.811  2.3819  1.9035 -0.0914
    9CHTO   C79 3518   7.035   4.351   1.915  0.6635 -0.2302  0.3531
    9CHTO  H151 3519   6.968   4.435   1.895  2.0731  0.9018  0.2721
    9CHTO   O52 3520   6.972   4.231   1.872 -1.3481 -0.0046 -0.7306
    9CHTO   C86 3521   7.049   4.105   1.870  0.1198  0.2631  0.0832
    9CHTO  H158 3522   7.068   4.086   1.978 -0.5070  2.3326  0.5815
    9CHTO   C90 3523   6.972   3.982   1.814  0.0820 -0.1405 -0.5192
    9CHTO   O60 3524   6.863   3.939   1.898 -0.0090  0.0374  0.0319
    9CHTO  H138 3525   6.805   3.884   1.850  0.0576  2.3668 -2.8709
    9CHTO   O50 3526   7.070   4.342   2.053  1.1202 -0.3128 -0.5105
    9CHTO   C73 3527   7.047   4.386   2.193  0.1343 -0.3518  0.1088
    9CHTO  H145 3528   6.948   4.346   2.222  0.0762 -2.4763 -2.7432
    9CHTO   C74 3529   7.059   4.541   2.204 -0.6012  0.2471  0.1981
    9CHTO  H146 3530   6.990   4.593   2.136 -0.1882  1.7495  0.9026
    9CHTO   O54 3531   7.017   4.566   2.339  0.0139 -0.2572  0.5013
    9CHTO  H133 3532   6.933   4.529   2.359 -0.0416 -0.0107  0.7310
    9CHTO   C75 3533   7.212   4.585   2.190  0.1987 -0.6408  0.2057
    9CHTO  H147 3534   7.244   4.552   2.090  1.2134  1.1456 -0.0888
    9CHTO   N13 3535   7.232   4.729   2.200  0.4551  0.4963  0.0511
    9CHTO  H139 3536   7.287   4.751   2.109 -0.5953  3.2159  0.0612
    9CHTO  H140 3537   7.139   4.780   2.215 -0.7106 -1.2109 -1.1253
    9CHTO   C76 3538   7.305   4.496   2.289  0.0770  0.2489  0.0877
    9CHTO  H148 3539   7.283   4.508   2.396  0.7144  1.1745  0.1267
    9CHTO   O49 3540   7.284   4.358   2.251 -0.1582  0.2659 -0.1266
    9CHTO   C77 3541   7.149   4.313   2.284 -0.0783 -0.3507 -0.3640
    9CHTO  H149 3542   7.126   4.336   2.388 -0.0565  0.0289 -0.4465
    9CHTO   C88 3543   7.150   4.159   2.272  0.1815  0.0217  0.4516
    9CHTO   O58 3544   7.234   4.092   2.367 -0.0561 -0.1888  0.4370
    9CHTO  H136 3545   7.324   4.098   2.340 -0.6426 -0.6525 -1.7150
    9CHTO   O51 3546   7.476   4.530   2.267  0.0771  0.4277 -0.0001
    9CHTO   C78 3547   7.561   4.520   2.403  0.4126  0.6627 -0.2729
    9CHTO  H150 3548   7.495   4.517   2.492  2.1200 -2.0255  0.9752
    9CHTO   C80 3549   7.653   4.639   2.412 -0.2703  0.2017  0.4168
    9CHTO  H152 3550   7.705   4.659   2.316 -0.8500  0.9010  0.2403
    9CHTO   O55 3551   7.564   4.748   2.428 -0.2092  0.0804 -0.1579
    9CHTO  H134 3552   7.609   4.830   2.417  2.2313 -1.6321 -3.8510
    9CHTO   C84 3553   7.759   4.628   2.532 -0.1981 -0.6923 -0.7518
    9CHTO  H156 3554   7.718   4.625   2.633 -1.1862  0.5609 -1.1155
    9CHTO   N15 3555   7.861   4.738   2.527  0.2296 -0.1931 -0.3484
    9CHTO  H143 3556   7.889   4.764   2.427  0.1601 -1.3826 -0.6792
    9CHTO  H144 3557   7.829   4.826   2.579  2.5843 -0.2949  1.3794
    9CHTO   C87 3558   7.837   4.495   2.517  0.6812 -0.5214 -0.0497
    9CHTO  H159 3559   7.900   4.504   2.428 -2.1929 -0.0092 -2.0779
    9CHTO   O53 3560   7.732   4.391   2.522  0.1640 -0.2192  0.6305
    9CHTO   C82 3561   7.637   4.386   2.411  0.2450  0.5154  0.1734
    9CHTO  H154 3562   7.694   4.373   2.319 -1.6379 -0.4103 -0.9044
    9CHTO   C89 3563   7.548   4.262   2.420 -0.1424  0.2142 -0.4571
    9CHTO   O59 3564   7.502   4.260   2.547  0.4603 -0.3578 -0.6984
    9CHTO  H137 3565   7.504   4.171   2.578 -1.1410 -0.2677 -0.2701
    9CHTO   O45 3566   7.940   4.462   2.650 -0.4685 -0.0026  0.5881
    9CHTO   C67 3567   8.006   4.337   2.627  0.3489  0.2124 -0.8609
    9CHTO  H124 3568   7.951   4.276   2.555  3.0211 -0.6644 -2.2251
    9CHTO   C65 3569   8.146   4.362   2.560  0.3788 -0.2093  0.2339
    9CHTO  H122 3570   8.182   4.462   2.585 -0.6813  0.3124 -0.2770
    9CHTO   O44 3571   8.124   4.368   2.419  0.7027 -0.1187 -0.3268
    9CHTO  H102 3572   8.070   4.437   2.387  1.0864  0.8659  1.1142
    9CHTO   C63 3573   8.244   4.254   2.619  0.0169 -0.3241  0.0005
    9CHTO  H120 3574   8.276   4.288   2.717  0.6050  0.6479 -0.5287
    9CHTO   N11 3575   8.370   4.251   2.551  0.2485  0.4860  0.4336
    9CHTO  H108 3576   8.349   4.246   2.446 -1.0450 -0.1916  0.7006
    9CHTO  H109 3577   8.442   4.178   2.582  0.2758  0.1513 -0.3983
    9CHTO   C61 3578   8.175   4.113   2.646  0.0398  0.1009  0.2372
    9CHTO  H118 3579   8.252   4.054   2.699 -0.0390 -0.2073  0.0062
    9CHTO   O40 3580   8.066   4.123   2.735 -0.1218  0.1513  0.3292
    9CHTO   C68 3581   8.006   4.255   2.770 -0.7928 -0.0664  0.8798
    9CHTO  H125 3582   8.076   4.293   2.848 -0.3075  0.6122  0.1269
    9CHTO   C72 3583   7.874   4.237   2.840  0.0343  0.2401  0.2947
    9CHTO   O48 3584   7.884   4.167   2.965 -0.1600  0.0753  0.3491
    9CHTO  H105 3585   7.879   4.231   3.034 -1.2863 -0.0867  0.4267
    9CHTO   O38 3586   8.146   4.044   2.523  0.2276  0.1492  0.0492
    9CHTO   C55 3587   8.050   3.939   2.515 -0.5810  0.0168  0.5413
    9CHTO  H112 3588   7.958   3.965   2.569  0.0848  1.3585  1.0720
    9CHTO   C56 3589   8.109   3.803   2.578 -0.1909 -0.1149 -0.2950
    9CHTO  H113 3590   8.199   3.785   2.517 -0.4474 -1.1660 -0.3805
    9CHTO   O42 3591   8.132   3.826   2.719  0.2791  0.4088  0.0664
    9CHTO  H100 3592   8.209   3.778   2.741  0.5902  0.6537 -0.4666
    9CHTO   C57 3593   7.996   3.690   2.559  0.3478 -0.3128  0.0126
    9CHTO  H114 3594   7.914   3.702   2.629 -0.6668  2.7483 -1.6249
    9CHTO   N10 3595   8.050   3.555   2.594  0.4800  0.4388 -0.4626
    9CHTO  H106 3596   7.971   3.481   2.598  0.6608  0.1535 -1.8409
    9CHTO  H107 3597   8.131   3.513   2.536  2.0506 -0.5616  2.3252
    9CHTO   C58 3598   7.936   3.691   2.415 -0.6323  0.7596 -0.2181
    9CHTO  H115 3599   8.013   3.662   2.341 -0.3689 -1.8296  0.9960
    9CHTO   O37 3600   7.892   3.825   2.372 -0.3003 -0.1634  0.2941
    9CHTO   C59 3601   7.998   3.915   2.371  0.5408 -0.6081  0.5414
    9CHTO  H116 3602   8.080   3.874   2.312  0.0294 -1.6664  0.5656
    9CHTO   C70 3603   7.939   4.038   2.301 -0.5658 -0.5192  0.2849
    9CHTO   O46 3604   8.057   4.120   2.274  0.5619 -0.2586  0.2670
    9CHTO  H103 3605   8.063   4.188   2.339 -0.1819 -0.8739  0.9888
    9CHTO   O39 3606   7.809   3.613   2.411 -0.1034 -0.1204 -0.4148
    9CHTO   C60 3607   7.806   3.487   2.346  0.0650  0.7278 -0.5089
    9CHTO  H117 3608   7.906   3.446   2.334 -0.4491 -1.2579  1.6945
    9CHTO   C62 3609   7.721   3.390   2.435  0.1105 -0.3962  0.3334
    9CHTO  H119 3610   7.772   3.403   2.533 -1.6912  0.8005  1.1343
    9CHTO   O43 3611   7.588   3.441   2.460 -0.0608  0.4756 -0.1312
    9CHTO  H101 3612   7.539   3.455   2.380 -1.7996 -0.0796  0.8069
    9CHTO   C66 3613   7.743   3.241   2.378  0.3611 -0.5302  0.2264
    9CHTO  H123 3614   7.850   3.223   2.383 -0.1895 -3.8005  1.8549
    9CHTO   N12 3615   7.686   3.138   2.473 -0.2985 -0.1258 -0.0008
    9CHTO  H110 3616   7.760   3.101   2.542 -0.2998  1.6166  0.9570
    9CHTO  H111 3617   7.598   3.175   2.523 -0.4826 -0.9469  0.2880
    9CHTO   C69 3618   7.687   3.238   2.231 -0.2752 -0.1005 -0.1354
    9CHTO  H126 3619   7.577   3.252   2.234 -0.2706 -0.2784  0.6942
    9CHTO   O41 3620   7.748   3.341   2.150  0.0167  0.1013  0.4464
    9CHTO   C64 3621   7.743   3.490   2.206  0.3866  0.2614  0.3173
    9CHTO  H121 3622   7.639   3.528   2.217  0.3462 -0.1959  1.6165
    9CHTO   C71 3623   7.823   3.564   2.102  0.9993 -0.1407 -0.0717
    9CHTO   O47 3624   7.747   3.590   1.987  0.1453 -0.1075  0.0364
    9CHTO  H104 3625   7.746   3.512   1.935 -0.2500 -2.0729  2.8590
    9CHTO   O34 3626   7.710   3.107   2.174  0.2724 -0.3481  0.1800
    9CHTO   C49 3627   7.778   3.065   2.034 -0.1201  0.0811 -0.7641
    9CHTO   H91 3628   7.739   3.119   1.947 -0.4028 -1.8432 -1.8804
    9CHTO   C47 3629   7.731   2.914   2.025  0.6783  0.3444 -0.1320
    9CHTO   H89 3630   7.752   2.881   1.921 -0.4425  2.0411 -0.9204
    9CHTO   O33 3631   7.590   2.923   2.030 -0.3723  0.4883 -0.1299
    9CHTO   H70 3632   7.560   2.901   2.116 -1.8583 -1.0653 -1.0084
    9CHTO   C45 3633   7.804   2.814   2.144  0.1494 -0.6208  0.6421
    9CHTO   H87 3634   7.727   2.810   2.223 -1.5017 -0.9820 -0.9581
    9CHTO    N8 3635   7.826   2.679   2.086  0.1494 -0.8374  0.3586
    9CHTO   H75 3636   7.784   2.612   2.160  2.3536 -0.7761  1.6893
    9CHTO   H76 3637   7.931   2.659   2.075  0.8672  2.5936  0.3902
    9CHTO   C43 3638   7.932   2.898   2.207 -0.5486 -0.5261  0.4985
    9CHTO   H85 3639   7.890   2.971   2.276 -2.7884  0.8095 -2.1853
    9CHTO   O29 3640   7.996   2.958   2.096 -0.4298 -0.6252 -0.2032
    9CHTO   C50 3641   7.935   3.070   2.037 -0.6580 -0.6127 -0.1320
    9CHTO   H92 3642   7.962   3.165   2.087 -0.7716 -0.9387  0.5457
    9CHTO   C54 3643   7.994   3.095   1.900  0.1576 -0.2714  0.3309
    9CHTO   O36 3644   7.993   2.989   1.803  0.6446 -0.4057  0.5631
    9CHTO   H72 3645   8.070   2.935   1.803 -0.3263 -1.8973 -2.1891
    9CHTO   O27 3646   8.021   2.814   2.283 -0.2597 -0.1967 -0.1346
    9CHTO   C37 3647   8.067   2.826   2.414  0.5682  0.2056  0.1374
    9CHTO   H79 3648   8.136   2.742   2.429  0.5281  0.2061  0.3131
    9CHTO   C38 3649   8.149   2.951   2.453 -0.0791 -1.0401 -0.3975
    9CHTO   H80 3650   8.093   3.041   2.425  1.6683 -0.3421 -1.7629
    9CHTO   O31 3651   8.270   2.953   2.376  0.0733 -0.0102  0.3397
    9CHTO   H68 3652   8.317   3.029   2.405 -3.1839  2.6145 -0.8854
    9CHTO   C39 3653   8.167   2.970   2.610  0.2407 -0.6678  0.1147
    9CHTO   H81 3654   8.241   2.902   2.652  1.5828 -0.3613 -1.6911
    9CHTO    N7 3655   8.228   3.101   2.649 -0.0120  0.0649 -0.0508
    9CHTO   H73 3656   8.168   3.179   2.605  1.0194  1.7478  1.4401
    9CHTO   H74 3657   8.325   3.109   2.600  0.3030 -3.1079 -0.0089
    9CHTO   C40 3658   8.015   2.957   2.676  0.0059 -0.1756 -0.3262
    9CHTO   H82 3659   7.942   3.028   2.637 -0.5913 -0.9143 -0.5625
    9CHTO   O26 3660   7.977   2.823   2.647 -0.3871  0.8504  0.4038
    9CHTO   C41 3661   7.942   2.811   2.509  0.5318  0.3500 -0.3351
    9CHTO   H83 3662   7.859   2.880   2.486 -0.3928 -0.6638 -0.0513
    9CHTO   C52 3663   7.887   2.670   2.497  0.0118  0.4019  0.2253
    9CHTO   O35 3664   7.737   2.647   2.547 -0.5997 -0.6034  0.1241
    9CHTO   H71 3665   7.691   2.720   2.509  1.2656 -0.6537 -2.3494
    9CHTO   O28 3666   8.013   2.958   2.823 -0.3295  0.1652 -0.1668
    9CHTO   C42 3667   7.899   3.019   2.897 -0.6629  0.2079 -0.2001
    9CHTO   H84 3668   7.917   2.977   2.996  0.9455  0.6901 -0.2614
    9CHTO   C44 3669   7.756   2.977   2.852  0.4783  0.2295  0.2074
    9CHTO   H86 3670   7.741   3.008   2.748 -2.0094 -1.0894  0.1273
    9CHTO   O32 3671   7.746   2.839   2.864 -0.2167 -0.0377 -0.3713
    9CHTO   H69 3672   7.747   2.821   2.956  1.1741 -0.8125 -0.5290
    9CHTO   C48 3673   7.640   3.049   2.932  1.0564 -0.0089  0.7666
    9CHTO   H90 3674   7.649   3.018   3.036  2.2396  1.1923  1.0413
    9CHTO    N9 3675   7.498   3.009   2.884 -1.2280  0.0644 -0.5273
    9CHTO   H77 3676   7.477   3.052   2.787  0.5524  0.7663 -0.6034
    9CHTO   H78 3677   7.421   3.041   2.953 -1.1163 -0.2702 -0.2436
    9CHTO   C51 3678   7.674   3.207   2.924  0.1237  0.2999 -0.1809
    9CHTO   H93 3679   7.681   3.241   2.821 -0.2815  0.8126 -0.0466
    9CHTO   O30 3680   7.793   3.228   2.995 -0.0601 -0.0441  0.1250
    9CHTO   C46 3681   7.907   3.177   2.915  0.4198 -0.0508 -0.3386
    9CHTO   H88 3682   7.903   3.233   2.821  0.9909 -0.1248 -0.4106
    9CHTO   C53 3683   8.037   3.210   2.988 -0.0496 -0.3088 -0.3804
    9CHTO   O72 3684   8.048   3.356   3.001 -0.1660 -0.0901  0.3434
    9CHTO  H199 3685   7.973   3.393   3.045  0.1694  1.9443 -0.7275
    9CHTO   O22 3686   7.582   3.289   2.993  0.0375  0.0981  0.0121
    9CHTO   C31 3687   7.564   3.424   2.944  0.2437  1.0872  0.2618
    9CHTO   H59 3688   7.492   3.469   3.016 -1.0496 -3.2468  1.8038
    9CHTO   C29 3689   7.687   3.519   2.941  0.7151 -0.2468 -0.5932
    9CHTO   H57 3690   7.756   3.478   2.866 -0.0089 -0.7576 -0.9854
    9CHTO   O21 3691   7.740   3.516   3.074  0.0940 -0.1932  0.5666
    9CHTO   H37 3692   7.679   3.549   3.138 -2.0457 -1.0514 -0.9657
    9CHTO   C27 3693   7.655   3.670   2.905  0.2364 -0.5644  0.1024
    9CHTO   H55 3694   7.585   3.719   2.975  0.0915  2.1103 -1.8277
    9CHTO    N5 3695   7.777   3.765   2.905  0.3387 -0.4981  0.0589
    9CHTO   H43 3696   7.848   3.711   2.843  0.4121 -1.4671  0.9668
    9CHTO   H44 3697   7.807   3.784   3.007  1.4874 -1.0854 -0.1602
    9CHTO   C25 3698   7.572   3.671   2.772 -0.8954  0.0509  0.3886
    9CHTO   H53 3699   7.643   3.644   2.693 -2.4749 -0.1138 -1.0066
    9CHTO   O17 3700   7.460   3.570   2.774 -0.1761 -0.2773  0.2509
    9CHTO   C32 3701   7.497   3.431   2.801 -0.3427  0.7854 -0.8753
    9CHTO   H60 3702   7.573   3.411   2.725  0.6007  2.9630 -0.5547
    9CHTO   C36 3703   7.382   3.335   2.803  0.0962  0.3716 -0.2132
    9CHTO   O25 3704   7.282   3.348   2.907  0.3386  0.3528  0.2060
    9CHTO   H40 3705   7.314   3.391   2.983  0.6926 -1.3231  1.0402
    9CHTO   O15 3706   7.512   3.813   2.724 -0.3197  0.6124 -0.5711
    9CHTO   C19 3707   7.451   3.867   2.599 -0.4668  0.7988 -0.1012
    9CHTO   H47 3708   7.430   3.974   2.606 -0.1546  0.8233  0.5244
    9CHTO   C20 3709   7.558   3.852   2.487  0.3775  0.2972  0.2123
    9CHTO   H48 3710   7.604   3.753   2.495 -2.5869 -1.1740 -0.3734
    9CHTO   O19 3711   7.662   3.949   2.514  0.3858 -0.1536  0.7808
    9CHTO   H35 3712   7.699   3.927   2.598  1.2918  0.5555  0.5835
    9CHTO   C21 3713   7.499   3.863   2.346 -0.2277 -0.2619  0.5953
    9CHTO   H49 3714   7.466   3.966   2.329  0.4132 -0.3826 -1.5200
    9CHTO    N4 3715   7.590   3.834   2.232  0.1979  0.2834 -0.0857
    9CHTO   H41 3716   7.636   3.925   2.196 -2.4091  1.9670  0.6847
    9CHTO   H42 3717   7.664   3.769   2.275 -1.2654 -1.8224 -0.6727
    9CHTO   C22 3718   7.366   3.782   2.324 -0.0251  0.4166 -0.3345
    9CHTO   H50 3719   7.379   3.674   2.331 -1.3821  0.1262 -2.0708
    9CHTO   O14 3720   7.271   3.810   2.425  0.3198 -0.5975 -0.8218
    9CHTO   C23 3721   7.316   3.790   2.563  0.6281  0.1253  0.0884
    9CHTO   H51 3722   7.323   3.680   2.572 -1.9218  0.0456  1.5781
    9CHTO   C34 3723   7.196   3.822   2.658 -0.5397 -0.1510  0.7168
    9CHTO   O23 3724   7.153   3.957   2.636 -0.2378 -0.1830 -0.7553
    9CHTO   H38 3725   7.072   3.976   2.678 -0.3536  1.5329 -1.7411
    9CHTO   O16 3726   7.306   3.818   2.196  0.2221  0.3474  0.0639
    9CHTO   C24 3727   7.203   3.704   2.150  0.1030  0.7063 -0.2585
    9CHTO   H52 3728   7.180   3.631   2.228  0.9005  0.1667 -0.5283
    9CHTO   C26 3729   7.263   3.624   2.035 -0.5923  0.2306  0.3611
    9CHTO   H54 3730   7.284   3.692   1.949 -3.7350  0.7219 -0.0776
    9CHTO   O20 3731   7.388   3.561   2.065 -0.3193 -0.3128 -0.3902
    9CHTO   H36 3732   7.434   3.550   1.984  1.9096  0.0496  0.7590
    9CHTO   C30 3733   7.164   3.518   1.986 -0.6480 -0.0535  0.1988
    9CHTO   H58 3734   7.144   3.447   2.067 -0.3893  0.8779  1.0862
    9CHTO    N6 3735   7.216   3.435   1.875  0.0254 -0.4861 -0.4741
    9CHTO   H45 3736   7.298   3.379   1.917 -0.5355 -0.0969  1.1411
    9CHTO   H46 3737   7.235   3.481   1.779 -2.2057  1.9004  0.1882
    9CHTO   C33 3738   7.022   3.583   1.959 -0.1460 -0.1889  0.1332
    9CHTO   H61 3739   7.030   3.652   1.873 -1.0679 -0.5651 -0.2633
    9CHTO   O18 3740   6.983   3.664   2.074 -0.0981 -0.6486  0.4974
    9CHTO   C28 3741   7.066   3.773   2.109 -0.1609  0.4534 -0.1794
    9CHTO   H56 3742   7.076   3.839   2.023 -2.3999  1.0454 -0.0213
    9CHTO   C35 3743   6.994   3.820   2.234 -0.2578 -0.3115  0.1796
    9CHTO   O24 3744   6.878   3.897   2.201  0.4926 -0.5488  0.0587
    9CHTO   H39 3745   6.888   3.986   2.229 -0.8379 -0.1342 -0.7015
    9CHTO    O9 3746   6.921   3.481   1.925 -0.2298 -0.1137 -0.2666
    9CHTO   C13 3747   6.769   3.558   1.877  1.2648  0.2547 -0.0639
    9CHTO   H26 3748   6.790   3.621   1.789  2.1597 -0.1979 -0.1875
    9CHTO   C11 3749   6.712   3.637   1.994  0.5370  0.1076  0.2270
    9CHTO   H24 3750   6.769   3.731   2.000 -0.2368  0.6577 -0.9062
    9CHTO    O8 3751   6.726   3.569   2.115  0.9184  0.2403  0.1902
    9CHTO    H3 3752   6.688   3.483   2.116  1.1168  0.1114 -2.2489
    9CHTO    C9 3753   6.562   3.676   1.963  0.0617 -0.0859  0.5477
    9CHTO   H22 3754   6.564   3.726   1.865  0.2588  2.0326  1.6239
    9CHTO    N2 3755   6.499   3.778   2.052 -0.3060  0.4596  0.1738
    9CHTO   H10 3756   6.396   3.753   2.072 -0.8660  0.3851 -2.5883
    9CHTO   H11 3757   6.557   3.800   2.140 -0.1857  1.4493 -0.1508
    9CHTO    C7 3758   6.472   3.542   1.944 -0.0733  0.4568 -0.5732
    9CHTO   H20 3759   6.370   3.577   1.920 -0.6866 -2.1284 -1.8576
    9CHTO    O4 3760   6.530   3.455   1.845 -0.1100 -0.3338 -0.2868
    9CHTO   C14 3761   6.672   3.451   1.808  0.3609  0.9289 -0.3930
    9CHTO   H27 3762   6.683   3.469   1.699  2.1100  2.1093 -0.0444
    9CHTO   C18 3763   6.717   3.300   1.835  0.0439  0.0947 -0.5358
    9CHTO   O13 3764   6.630   3.208   1.768  0.5927  0.4662  0.1901
    9CHTO    H7 3765   6.666   3.124   1.787 -2.8610 -1.2964 -0.7621
    9CHTO    O2 3766   6.462   3.472   2.081  0.3861  0.4380  0.4600
    9CHTO    C1 3767   6.340   3.408   2.125 -0.3433  0.4262  0.1626
    9CHTO   H14 3768   6.363   3.326   2.195  2.1673 -0.0704 -1.1863
    9CHTO    C2 3769   6.252   3.346   2.011  0.0438 -0.1337 -0.0447
    9CHTO   H15 3770   6.231   3.424   1.936  3.2055  0.6715 -0.1572
    9CHTO    O6 3771   6.321   3.242   1.940 -0.2753  0.5432 -0.6132
    9CHTO    H1 3772   6.279   3.205   1.864  1.5598 -0.2145 -1.2986
    9CHTO    C3 3773   6.108   3.292   2.077 -0.4582 -0.0229  0.4973
    9CHTO   H16 3774   6.134   3.211   2.146  1.2618  1.4265  1.5845
    9CHTO    N1 3775   6.020   3.240   1.970  0.3566 -0.0118  0.1063
    9CHTO    H8 3776   6.012   3.133   1.983 -1.2542  0.2761  1.6534
    9CHTO    H9 3777   6.060   3.262   1.872  2.9861 -0.5579  1.0181
    9CHTO    C4 3778   6.041   3.400   2.162  0.2039 -0.2324 -0.4253
    9CHTO   H17 3779   6.015   3.491   2.108 -1.5296  1.0702  2.4779
    9CHTO    O1 3780   6.136   3.437   2.265  0.0775  0.6318 -0.4819
    9CHTO    C5 3781   6.246   3.507   2.203  0.1760  0.1858  0.3368
    9CHTO   H18 3782   6.216   3.588   2.137 -2.2251 -1.4736 -0.6894
    9CHTO   C16 3783   6.335   3.569   2.316  0.1767  0.5113 -0.8052
    9CHTO   O11 3784   6.253   3.655   2.393  0.1739 -0.1284  0.0018
    9CHTO    H5 3785   6.225   3.723   2.335  0.9740 -1.0395 -1.4597
    9CHTO    O3 3786   5.936   3.349   2.241 -0.0261  0.1779 -0.3799
    9CHTO    C6 3787   5.851   3.445   2.308  0.2480  0.1155  0.2596
    9CHTO   H19 3788   5.889   3.547   2.304  0.8273 -0.1623 -2.8120
    9CHTO    C8 3789   5.706   3.443   2.243  0.0098 -0.2841 -0.0417
    9CHTO   H21 3790   5.667   3.342   2.238  0.0928 -0.3996  1.4061
    9CHTO    O7 3791   5.725   3.484   2.110 -0.2629  0.9171  0.7479
    9CHTO    H2 3792   5.642   3.504   2.070 -1.0314  0.9725  2.3418
    9CHTO   C12 3793   5.605   3.543   2.324  0.1268  0.3425 -0.2397
    9CHTO   H25 3794   5.639   3.648   2.316 -1.5762  0.9432  0.1023
    9CHTO    N3 3795   5.466   3.537   2.265 -0.0787  0.0744  0.4074
    9CHTO   H12 3796   5.408   3.475   2.332  0.1114  1.2729  1.7031
    9CHTO   H13 3797   5.430   3.638   2.260  2.2824  0.9078 -0.1993
    9CHTO   C15 3798   5.601   3.505   2.478 -0.8824 -0.7259  0.2234
    9CHTO   H28 3799   5.548   3.411   2.495 -2.7442 -0.0269 -1.5090
    9CHTO   O10 3800   5.548   3.607   2.577  0.3794 -0.5652  0.3786
    9CHTO    H4 3801   5.459   3.617   2.549  1.0567  0.0481 -1.6659
    9CHTO    O5 3802   5.737   3.501   2.523  0.2689  0.2241  0.9908
    9CHTO   C10 3803   5.831   3.410   2.460 -0.0328  1.3327 -0.2713
    9CHTO   H23 3804   5.790   3.309   2.456  0.2988  1.1734  0.3281
    9CHTO   C17 3805   5.963   3.406   2.535 -0.0680 -0.4465 -0.1014
    9CHTO   O12 3806   5.973   3.309   2.641 -0.0991  0.2010  0.1894
    9CHTO    H6 3807   6.061   3.297   2.671 -0.0457  2.1195  0.8666
   10CHTO  H203 3808   4.956   5.954  -0.764  0.2914 -1.0804 -0.2367
   10CHTO   O82 3809   4.902   5.905  -0.705 -0.4155 -0.6018 -0.4749
   10CHTO  C123 3810   4.764   5.953  -0.703 -0.1833 -0.0419  0.3084
   10CHTO  H227 3811   4.732   5.969  -0.807  1.1294 -1.3461 -0.3153
   10CHTO   O77 3812   4.677   5.854  -0.639 -0.0102 -0.4871  0.1367
   10CHTO  C118 3813   4.541   5.884  -0.649  0.5641  0.5384 -0.9877
   10CHTO  H222 3814   4.514   5.888  -0.755  0.3289  0.1305 -0.9462
   10CHTO  C125 3815   4.454   5.775  -0.585  0.2911  0.0476 -0.3344
   10CHTO   O84 3816   4.482   5.660  -0.670  0.0733 -0.5460 -0.0670
   10CHTO  H205 3817   4.571   5.639  -0.650  0.0763  1.0357  1.7455
   10CHTO  C114 3818   4.500   6.018  -0.581  0.3455  0.1665 -0.5819
   10CHTO  H218 3819   4.505   6.008  -0.472 -0.8373 -0.0199 -0.5324
   10CHTO  C116 3820   4.595   6.130  -0.628  0.6568  0.0274 -0.4912
   10CHTO  H220 3821   4.570   6.162  -0.731  0.3104  0.7127 -0.2034
   10CHTO   O79 3822   4.577   6.254  -0.547 -0.7693  0.0554 -0.0693
   10CHTO  H201 3823   4.520   6.315  -0.590 -0.0379  2.4772  2.2681
   10CHTO  C120 3824   4.747   6.087  -0.630 -0.0635  0.4625  0.0883
   10CHTO  H224 3825   4.769   6.066  -0.523 -0.6709  0.6929  0.2576
   10CHTO   N21 3826   4.833   6.201  -0.675  0.2522  0.6049 -0.1987
   10CHTO  H211 3827   4.773   6.274  -0.727 -1.4345 -0.2732  0.4536
   10CHTO  H212 3828   4.884   6.246  -0.591  0.3653  0.4766 -0.1997
   10CHTO   O75 3829   4.358   6.040  -0.605 -0.5137  0.5568  0.0823
   10CHTO  C112 3830   4.264   6.066  -0.478 -0.0671  1.0283 -0.0376
   10CHTO  H216 3831   4.320   6.118  -0.399 -0.0318  0.1011  0.5528
   10CHTO   O73 3832   4.225   5.934  -0.435 -0.0438 -0.1776 -0.0739
   10CHTO  C113 3833   4.159   5.940  -0.309  0.2421  0.1587 -0.8680
   10CHTO  H217 3834   4.230   5.978  -0.232 -0.0183 -0.6239 -0.2304
   10CHTO  C124 3835   4.128   5.793  -0.264 -0.6395  0.1432 -0.1580
   10CHTO   O83 3836   4.237   5.699  -0.290 -0.1729  0.3193  0.1984
   10CHTO  H204 3837   4.316   5.748  -0.303  0.8014 -0.8974  1.3676
   10CHTO  C109 3838   4.027   6.032  -0.303 -0.1772 -0.0241 -0.7319
   10CHTO  H213 3839   3.946   5.978  -0.354 -1.2835  0.8324  0.0710
   10CHTO  C110 3840   4.057   6.172  -0.376  0.2850  0.4656 -0.4577
   10CHTO  H214 3841   4.118   6.231  -0.308  1.2147 -0.3938 -0.5234
   10CHTO   O78 3842   3.936   6.248  -0.397  0.2344  0.6263 -0.1064
   10CHTO  H200 3843   3.957   6.331  -0.435 -1.2436  0.8833 -0.4062
   10CHTO  C111 3844   4.136   6.150  -0.512  0.3537 -0.1714 -0.3311
   10CHTO  H215 3845   4.074   6.093  -0.583  0.0568  0.1972 -0.3713
   10CHTO   N19 3846   4.174   6.275  -0.578  0.1330  0.2643 -0.2734
   10CHTO  H207 3847   4.234   6.335  -0.511  0.8923  1.1992 -1.7712
   10CHTO  H208 3848   4.092   6.340  -0.605 -0.4974 -0.1710  0.5669
   10CHTO   O74 3849   3.991   6.059  -0.166  0.4223  0.5363 -0.0150
   10CHTO  C115 3850   3.820   6.032  -0.135  0.1633  0.4563 -0.9099
   10CHTO  H219 3851   3.758   6.078  -0.212  0.4905 -0.0638 -1.4857
   10CHTO   O76 3852   3.786   5.880  -0.133  0.0672  0.1260 -0.3074
   10CHTO  C122 3853   3.836   5.828  -0.009 -0.5046 -0.2748  0.8790
   10CHTO  H226 3854   3.944   5.841  -0.017 -0.6725  0.9051  0.3929
   10CHTO  C126 3855   3.804   5.669  -0.006  0.3257  0.4610 -0.2467
   10CHTO   O85 3856   3.870   5.625   0.112  0.8133 -0.5094  0.5428
   10CHTO  H206 3857   3.809   5.592   0.175 -0.8540  1.0596 -0.1912
   10CHTO  C121 3858   3.797   5.901   0.125 -0.3021  0.3623  0.4163
   10CHTO  H225 3859   3.725   5.838   0.180 -2.7965  0.8266 -2.2381
   10CHTO   O81 3860   3.914   5.942   0.201  0.3353 -0.4285 -0.0508
   10CHTO  H202 3861   3.935   5.871   0.258 -0.0569 -0.6446 -0.1752
   10CHTO  C119 3862   3.722   6.024   0.097 -0.3923 -0.2347 -0.4896
   10CHTO  H223 3863   3.630   5.993   0.047 -0.3502  1.2126 -1.4697
   10CHTO  C117 3864   3.798   6.110   0.001 -0.1843 -0.3583  0.1598
   10CHTO  H221 3865   3.899   6.127   0.037 -1.1719  0.2085  2.7673
   10CHTO   N20 3866   3.734   6.249  -0.013  0.2360  0.3137 -0.0292
   10CHTO  H209 3867   3.787   6.324   0.044 -0.3911  0.0369  0.9340
   10CHTO  H210 3868   3.628   6.256   0.005  0.3047  1.0583  0.1002
   10CHTO   O80 3869   3.655   6.093   0.248 -0.7042 -0.4745  0.0585
   10CHTO  C103 3870   3.497   6.092   0.272 -0.4870  0.9169  0.1804
   10CHTO  H190 3871   3.469   6.142   0.365  0.4650  0.9858  0.4302
   10CHTO  C101 3872   3.397   6.146   0.145 -0.8287 -0.0364  0.4826
   10CHTO  H188 3873   3.417   6.086   0.056  1.9810 -2.2391  2.5164
   10CHTO   O68 3874   3.426   6.301   0.110  0.1827  0.1832  0.3795
   10CHTO  H168 3875   3.373   6.360   0.160 -2.5306 -2.2926  0.4916
   10CHTO   C99 3876   3.244   6.118   0.188 -0.1827  0.7629 -0.0276
   10CHTO  H186 3877   3.228   6.157   0.291 -1.1714  4.8000 -1.6123
   10CHTO   N17 3878   3.137   6.174   0.093 -0.9672 -0.5116  0.1291
   10CHTO  H174 3879   3.037   6.179   0.131 -1.4651  0.6152 -1.3045
   10CHTO  H175 3880   3.143   6.121  -0.001  2.3168 -3.0357  1.6529
   10CHTO   C97 3881   3.230   5.967   0.206 -0.3573  0.1519 -0.6953
   10CHTO  H184 3882   3.255   5.918   0.111  0.3002  1.7029 -1.3408
   10CHTO   O64 3883   3.322   5.927   0.308 -0.6187 -0.3225  0.2777
   10CHTO  C104 3884   3.460   5.943   0.284 -0.0840  0.2567  0.5233
   10CHTO  H191 3885   3.496   5.886   0.198 -0.3773 -1.4722  1.5087
   10CHTO  C108 3886   3.534   5.882   0.404  0.0520 -0.1871 -0.1641
   10CHTO   O71 3887   3.531   5.739   0.394 -0.1589  0.3702 -0.1234
   10CHTO  H171 3888   3.598   5.705   0.450  0.1878  2.2783  0.6462
   10CHTO   O62 3889   3.098   5.926   0.256 -0.3494 -0.3971  0.5046
   10CHTO   C91 3890   3.079   5.787   0.236 -0.6387 -0.3302 -0.1534
   10CHTO  H178 3891   3.125   5.760   0.141  0.9643 -0.8282  0.7447
   10CHTO   C92 3892   2.928   5.751   0.213 -0.6636 -0.2729 -0.4209
   10CHTO  H179 3893   2.881   5.816   0.138  0.7308 -0.6145 -1.6218
   10CHTO   O66 3894   2.917   5.617   0.155 -0.4171 -0.2941 -0.5110
   10CHTO  H166 3895   2.935   5.549   0.217 -0.8257  0.2633  0.2397
   10CHTO   C93 3896   2.844   5.739   0.348 -1.2237  0.0031 -0.4711
   10CHTO  H180 3897   2.756   5.675   0.334 -1.1780  0.4739 -3.1599
   10CHTO   N16 3898   2.785   5.863   0.399  0.0411  0.2505 -0.1260
   10CHTO  H172 3899   2.812   5.891   0.500 -0.9680  1.3308 -0.1442
   10CHTO  H173 3900   2.799   5.944   0.329 -0.7687  1.4064  1.0105
   10CHTO   C94 3901   2.937   5.671   0.454  0.2218 -0.4770 -0.4218
   10CHTO  H181 3902   2.977   5.745   0.523  0.7217 -0.3411 -0.8564
   10CHTO   O61 3903   3.046   5.594   0.399  0.2623  0.5445  0.0695
   10CHTO   C95 3904   3.142   5.678   0.340  0.2598  0.2979 -0.5320
   10CHTO  H182 3905   3.182   5.738   0.422  1.2146 -1.7321  0.5187
   10CHTO  C106 3906   3.252   5.586   0.285  0.0729  0.4632  0.1620
   10CHTO   O69 3907   3.358   5.641   0.206 -0.2549  0.2141  0.0180
   10CHTO  H169 3908   3.402   5.715   0.245  2.0370 -1.6131  0.9770
   10CHTO   O63 3909   2.837   5.558   0.553  0.1531  0.5227  0.1693
   10CHTO   C96 3910   2.906   5.482   0.659 -0.0251 -0.5850 -0.6798
   10CHTO  H183 3911   3.004   5.525   0.678 -1.7513  2.2154  2.4063
   10CHTO   C98 3912   2.909   5.327   0.623 -0.7918 -0.2289 -0.4019
   10CHTO  H185 3913   2.808   5.287   0.606 -0.8611 -1.4088  2.6023
   10CHTO   O67 3914   2.980   5.319   0.500 -0.1878 -0.5734  0.2275
   10CHTO  H167 3915   2.918   5.300   0.432 -1.2480  0.4719  0.8822
   10CHTO  C102 3916   2.987   5.239   0.744  0.1675  0.2882 -0.8654
   10CHTO  H189 3917   3.095   5.258   0.733  0.5296 -0.5124  1.0805
   10CHTO   N18 3918   2.968   5.088   0.740 -0.0664 -0.6395  0.2102
   10CHTO  H176 3919   3.068   5.048   0.726 -0.6609 -1.4535 -1.9444
   10CHTO  H177 3920   2.928   5.037   0.826 -1.4108 -2.3094 -1.3598
   10CHTO  C105 3921   2.960   5.303   0.884 -0.3384  0.3132  1.1051
   10CHTO  H192 3922   2.933   5.227   0.956  1.8261 -0.2042  1.4048
   10CHTO   O65 3923   2.845   5.395   0.890 -0.5729  0.0324 -0.0718
   10CHTO  C100 3924   2.821   5.488   0.786 -0.1362 -0.1103 -0.4131
   10CHTO  H187 3925   2.715   5.479   0.756 -0.1464 -0.2772 -0.3256
   10CHTO  C107 3926   2.826   5.631   0.836  0.5138  0.4393  0.2395
   10CHTO   O70 3927   2.731   5.651   0.947 -1.1945  0.1587 -0.1241
   10CHTO  H170 3928   2.722   5.743   0.965 -2.2746  0.1129 -0.4137
   10CHTO   O57 3929   3.107   5.375   0.928 -0.1137  0.5771  0.3290
   10CHTO   C85 3930   3.131   5.361   1.072  0.6354 -0.1305 -1.0457
   10CHTO  H157 3931   3.057   5.291   1.114 -0.3815  2.2328  1.2512
   10CHTO   C83 3932   3.093   5.499   1.147  0.4099 -0.1303  0.4047
   10CHTO  H155 3933   2.997   5.526   1.105  0.0849  2.6834  2.8280
   10CHTO   O56 3934   3.185   5.603   1.106  0.1804 -0.1710  0.0747
   10CHTO  H135 3935   3.271   5.580   1.134  0.2704 -0.3996 -0.3944
   10CHTO   C81 3936   3.080   5.469   1.298 -0.4703  0.1240 -0.6757
   10CHTO  H153 3937   3.011   5.385   1.308  0.9395 -0.6514  3.0942
   10CHTO   N14 3938   3.019   5.584   1.364 -0.2274 -0.2425  0.2766
   10CHTO  H141 3939   2.914   5.575   1.343 -0.0471  3.1266 -2.6353
   10CHTO  H142 3940   3.033   5.576   1.470 -0.3311 -0.0869  0.3033
   10CHTO   C79 3941   3.216   5.419   1.349  0.5176 -0.1409 -0.0610
   10CHTO  H151 3942   3.200   5.379   1.449  0.4337 -0.7221 -0.3042
   10CHTO   O52 3943   3.278   5.309   1.265  0.2060 -0.2759  0.5648
   10CHTO   C86 3944   3.279   5.330   1.124 -0.6863  0.1209 -0.9916
   10CHTO  H158 3945   3.352   5.408   1.094  0.7330 -0.5606  0.5935
   10CHTO   C90 3946   3.337   5.200   1.061  0.0926  0.0771 -0.1282
   10CHTO   O60 3947   3.475   5.186   1.091  0.0092 -0.2261  0.3278
   10CHTO  H138 3948   3.515   5.125   1.031  0.4550  2.2539 -1.9524
   10CHTO   O50 3949   3.311   5.523   1.363 -0.5387  0.5011  0.2627
   10CHTO   C73 3950   3.431   5.487   1.448  0.3118  0.0204  0.5879
   10CHTO  H145 3951   3.459   5.381   1.432  0.2760 -0.2208  2.0867
   10CHTO   C74 3952   3.397   5.495   1.602 -0.2187  0.0944  0.3305
   10CHTO  H146 3953   3.313   5.434   1.638 -1.8727  1.5105 -1.0557
   10CHTO   O54 3954   3.510   5.450   1.682  0.2224 -0.1072 -0.3377
   10CHTO  H133 3955   3.505   5.482   1.770  1.8130  1.6755 -0.8648
   10CHTO   C75 3956   3.378   5.653   1.634  0.1553 -0.0436  0.0870
   10CHTO  H147 3957   3.299   5.693   1.569  1.0869  0.0639 -0.9802
   10CHTO   N13 3958   3.342   5.692   1.770 -0.1228 -0.2315  0.0930
   10CHTO  H139 3959   3.361   5.795   1.799 -1.1745 -0.5870  2.1942
   10CHTO  H140 3960   3.405   5.628   1.830 -1.7072  0.0918  2.1647
   10CHTO   C76 3961   3.506   5.726   1.590 -0.1409 -0.5073 -0.7367
   10CHTO  H148 3962   3.597   5.692   1.640  0.1793 -0.4843 -1.3003
   10CHTO   O49 3963   3.524   5.706   1.449  0.1688 -0.3809 -0.1805
   10CHTO   C77 3964   3.551   5.577   1.410  0.5948 -0.4822 -0.5138
   10CHTO  H149 3965   3.648   5.538   1.443  0.6484  0.0738 -0.0041
   10CHTO   C88 3966   3.581   5.577   1.256 -0.5566  0.1277 -0.0581
   10CHTO   O58 3967   3.491   5.639   1.168 -0.3894 -0.1625  0.2790
   10CHTO  H136 3968   3.502   5.732   1.171 -2.0203 -0.0075  2.9267
   10CHTO   O51 3969   3.506   5.902   1.610 -0.0044 -0.4347  0.2654
   10CHTO   C78 3970   3.632   5.960   1.630 -0.3197  0.3798 -0.3705
   10CHTO  H150 3971   3.713   5.902   1.580 -0.7952  1.3242 -2.2928
   10CHTO   C80 3972   3.651   5.967   1.784 -0.4476 -0.0644  0.2161
   10CHTO  H152 3973   3.552   5.985   1.830 -1.4927 -1.7780 -1.3012
   10CHTO   O55 3974   3.694   5.841   1.837 -0.1784  0.0131  0.3212
   10CHTO  H134 3975   3.700   5.839   1.930 -2.5113  0.0102  0.5037
   10CHTO   C84 3976   3.751   6.081   1.835  0.6673 -0.2207  0.6353
   10CHTO  H156 3977   3.851   6.042   1.814  0.0158 -0.8698 -1.4499
   10CHTO   N15 3978   3.755   6.101   1.984  0.2373 -0.1373 -0.4327
   10CHTO  H143 3979   3.741   6.003   2.024  0.5815  0.6850  1.7477
   10CHTO  H144 3980   3.669   6.159   2.009 -1.0086 -1.3901 -1.7526
   10CHTO   C87 3981   3.742   6.211   1.755 -0.1883 -0.9930 -0.3417
   10CHTO  H159 3982   3.672   6.287   1.790  1.3319 -0.0505  0.6849
   10CHTO   O53 3983   3.732   6.176   1.613  0.1961 -0.3562 -0.1092
   10CHTO   C82 3984   3.619   6.101   1.572  0.2383 -0.0454 -0.0230
   10CHTO  H154 3985   3.526   6.152   1.599  0.8845  0.2601  1.6921
   10CHTO   C89 3986   3.612   6.094   1.418 -0.5017  0.4818 -0.3052
   10CHTO   O59 3987   3.605   6.222   1.359  0.3432 -0.8160  0.8197
   10CHTO  H137 3988   3.681   6.275   1.368  0.1004  0.0118 -1.7685
   10CHTO   O45 3989   3.887   6.288   1.779  0.0024 -0.5147 -0.5451
   10CHTO   C67 3990   3.885   6.432   1.751  0.7302 -0.0497 -0.1537
   10CHTO  H124 3991   3.799   6.456   1.689 -0.1422 -1.5291  0.4294
   10CHTO   C65 3992   3.870   6.518   1.881 -0.3095  1.0750  0.4036
   10CHTO  H122 3993   3.873   6.439   1.957 -0.1136  1.2273  0.5548
   10CHTO   O44 3994   3.747   6.584   1.876 -0.6164 -0.2182 -0.1946
   10CHTO  H102 3995   3.761   6.658   1.820  1.2865  0.0971  0.6344
   10CHTO   C63 3996   3.996   6.612   1.903 -0.2146  0.1463  0.8094
   10CHTO  H120 3997   4.086   6.550   1.900 -0.7803 -0.5969 -1.4715
   10CHTO   N11 3998   3.999   6.687   2.036 -0.6723 -0.3345  0.0761
   10CHTO  H108 3999   4.100   6.721   2.050 -1.1158 -0.2659  3.4978
   10CHTO  H109 4000   3.921   6.760   2.043 -1.1821 -1.0159  1.8273
   10CHTO   C61 4001   4.010   6.691   1.771  0.6492 -0.7431 -0.2679
   10CHTO  H118 4002   4.114   6.728   1.775  0.4520 -0.3064  0.8228
   10CHTO   O40 4003   4.002   6.612   1.647  0.3285  0.5723 -0.2769
   10CHTO   C68 4004   4.006   6.469   1.672 -0.2211 -0.2618 -0.3969
   10CHTO  H125 4005   4.103   6.442   1.719  0.3231 -1.0266 -1.9329
   10CHTO   C72 4006   4.009   6.406   1.528  0.9302  0.2636  0.1382
   10CHTO   O48 4007   4.106   6.457   1.437  0.4924 -0.0120 -0.0447
   10CHTO  H105 4008   4.071   6.532   1.392 -0.5299 -0.2019  0.4047
   10CHTO   O38 4009   3.901   6.791   1.753  0.4903 -0.0500  0.2379
   10CHTO   C55 4010   3.900   6.923   1.685  0.1864 -0.5265 -0.3166
   10CHTO  H112 4011   3.817   6.920   1.613 -0.4202  0.8288  0.3127
   10CHTO   C56 4012   4.044   6.950   1.613 -0.0257  0.0070 -0.4016
   10CHTO  H113 4013   4.124   6.908   1.675 -0.3242 -0.3039 -0.2197
   10CHTO   O42 4014   4.050   6.872   1.494 -0.6478  0.0164 -0.0143
   10CHTO  H100 4015   4.108   6.800   1.509  1.0586  1.5475  0.8656
   10CHTO   C57 4016   4.069   7.101   1.580  0.7344 -0.4349  0.0837
   10CHTO  H114 4017   4.002   7.114   1.496 -1.0252  0.1724  1.5571
   10CHTO   N10 4018   4.204   7.140   1.543  0.3712  0.3448 -0.3640
   10CHTO  H106 4019   4.267   7.141   1.631 -0.2414 -1.0112  0.0882
   10CHTO  H107 4020   4.253   7.081   1.467 -0.9498 -1.9656  0.5466
   10CHTO   C58 4021   4.017   7.200   1.687 -0.8154 -0.1462 -0.0573
   10CHTO  H115 4022   4.083   7.195   1.776 -1.7775  0.0153  0.6674
   10CHTO   O37 4023   3.879   7.170   1.724  0.3108  0.3236 -0.3585
   10CHTO   C59 4024   3.860   7.043   1.786  0.3979  0.1201  0.3596
   10CHTO  H116 4025   3.915   7.031   1.879 -0.2295  0.7715  0.8178
   10CHTO   C70 4026   3.712   7.019   1.835  0.5491  0.0157 -0.1446
   10CHTO   O46 4027   3.691   6.909   1.926 -0.0981  0.4565 -0.1917
   10CHTO  H103 4028   3.743   6.837   1.896  1.0188  0.9810  0.4496
   10CHTO   O39 4029   4.013   7.346   1.650 -0.1298 -0.4295 -0.1753
   10CHTO   C60 4030   4.014   7.454   1.747 -0.3731  0.2729  0.3182
   10CHTO  H117 4031   3.948   7.419   1.827  1.5700 -1.8706  1.0609
   10CHTO   C62 4032   4.164   7.475   1.792 -0.2923 -0.5905  0.3942
   10CHTO  H119 4033   4.212   7.383   1.832 -0.6044 -0.9438 -0.0280
   10CHTO   O43 4034   4.241   7.509   1.673 -0.2159  0.0367 -0.0799
   10CHTO  H101 4035   4.244   7.436   1.615 -0.5558 -0.7868  0.9195
   10CHTO   C66 4036   4.178   7.598   1.903  0.7737  0.1911  0.6036
   10CHTO  H123 4037   4.103   7.583   1.981  0.5643 -1.8076  0.0549
   10CHTO   N12 4038   4.313   7.607   1.960 -0.5210  0.3625 -0.5799
   10CHTO  H110 4039   4.390   7.610   1.884 -2.0842 -0.8732 -2.2720
   10CHTO  H111 4040   4.327   7.687   2.032  0.3827  0.5293 -0.9334
   10CHTO   C69 4041   4.126   7.729   1.838 -0.4272 -0.0652  0.4182
   10CHTO  H126 4042   4.196   7.752   1.755 -1.4033  0.2385 -0.3336
   10CHTO   O41 4043   3.980   7.715   1.786 -0.0465 -0.1380  0.6242
   10CHTO   C64 4044   3.958   7.584   1.687  0.2578 -0.3164 -0.2301
   10CHTO  H121 4045   4.015   7.607   1.594  1.4801 -1.1234  0.3113
   10CHTO   C71 4046   3.804   7.572   1.667 -1.4928  0.4779  0.1562
   10CHTO   O47 4047   3.764   7.676   1.578  0.4757  0.0275  0.4454
   10CHTO  H104 4048   3.795   7.754   1.621 -0.9277  1.1754 -0.5614
   10CHTO   O34 4049   4.132   7.860   1.938 -0.3614  0.2666  0.1368
   10CHTO   C49 4050   4.187   8.004   1.919 -0.0075 -0.3499  0.2049
   10CHTO   H91 4051   4.283   8.010   1.970  0.2705 -0.8513 -0.2504
   10CHTO   C47 4052   4.089   8.110   1.983 -0.6452 -0.0929 -0.2091
   10CHTO   H89 4053   4.139   8.209   1.975  0.3264 -0.5627 -0.0044
   10CHTO   O33 4054   4.072   8.066   2.122 -0.0212 -0.3321  0.0510
   10CHTO   H70 4055   4.149   8.030   2.160  0.4535 -0.3741 -0.9499
   10CHTO   C45 4056   3.950   8.118   1.890  0.6011 -0.1820 -0.4704
   10CHTO   H87 4057   3.914   8.014   1.881 -0.4964  0.0929  0.4925
   10CHTO    N8 4058   3.833   8.186   1.948 -0.2102  0.4940  0.0373
   10CHTO   H75 4059   3.750   8.135   1.903  0.3828 -2.0883  1.7319
   10CHTO   H76 4060   3.829   8.284   1.904 -1.3502 -0.0749 -1.1501
   10CHTO   C43 4061   3.994   8.170   1.749  0.1918 -0.2380 -0.3868
   10CHTO   H85 4062   3.905   8.174   1.685  0.8565  1.7222 -1.2154
   10CHTO   O29 4063   4.094   8.090   1.694  0.7791 -0.1642  0.0150
   10CHTO   C50 4064   4.206   8.041   1.772  0.1321 -1.1473  0.1097
   10CHTO   H92 4065   4.239   7.948   1.724  2.6768 -0.7046  0.8756
   10CHTO   C54 4066   4.334   8.133   1.752 -0.2378 -0.0242 -0.1623
   10CHTO   O36 4067   4.397   8.118   1.626  0.1115 -0.3118 -0.0506
   10CHTO   H72 4068   4.435   8.199   1.598 -2.9958  0.7448 -1.3492
   10CHTO   O27 4069   4.042   8.305   1.760  0.0975 -0.4085  0.0168
   10CHTO   C37 4070   4.079   8.431   1.701 -0.4448 -0.3947  0.1298
   10CHTO   H79 4071   4.183   8.429   1.664 -0.1972  0.8649  0.7097
   10CHTO   C38 4072   3.989   8.457   1.579 -0.3915  0.3152 -0.4986
   10CHTO   H80 4073   3.883   8.456   1.610  0.0061  0.8665  0.8981
   10CHTO   O31 4074   4.019   8.347   1.487  0.2794 -0.1130  0.1770
   10CHTO   H68 4075   4.042   8.389   1.406 -2.1373  0.3430 -0.2879
   10CHTO   C39 4076   4.021   8.597   1.517  0.1695 -0.4746  0.5226
   10CHTO   H81 4077   4.119   8.581   1.474  0.7107  0.9669  1.2023
   10CHTO    N7 4078   3.930   8.638   1.405  0.3970  0.5811  0.3343
   10CHTO   H73 4079   3.844   8.572   1.402  1.5037 -1.0818  2.8017
   10CHTO   H74 4080   3.976   8.640   1.308 -0.5371 -1.3938 -0.1690
   10CHTO   C40 4081   4.016   8.709   1.632  0.1528 -0.2272  0.7151
   10CHTO   H82 4082   3.911   8.709   1.662 -0.4709  2.4084 -1.2793
   10CHTO   O26 4083   4.101   8.671   1.741  0.5948 -0.2062  0.5276
   10CHTO   C41 4084   4.067   8.553   1.803  0.5031  0.1681 -0.2644
   10CHTO   H83 4085   3.962   8.562   1.833  0.5287  2.4921 -0.7856
   10CHTO   C52 4086   4.153   8.537   1.929 -0.6286 -0.0152  0.2906
   10CHTO   O35 4087   4.274   8.499   1.911  0.3076 -0.3657  0.3847
   10CHTO   H71 4088   4.311   8.487   1.996  1.9879 -1.8706 -0.5250
   10CHTO   O28 4089   4.054   8.837   1.585 -0.5580  0.0271  0.6094
   10CHTO   C42 4090   3.998   8.960   1.635  0.3520 -0.2720  0.0618
   10CHTO   H84 4091   3.924   8.929   1.709  1.0296 -0.9212  0.4742
   10CHTO   C44 4092   3.915   9.040   1.525 -0.5862 -0.0859  0.1850
   10CHTO   H86 4093   3.983   9.056   1.442 -2.6520  3.3048 -0.9608
   10CHTO   O32 4094   3.801   8.953   1.485 -0.1192 -0.2028 -0.2871
   10CHTO   H69 4095   3.805   8.945   1.392 -0.0609  0.2758 -0.3271
   10CHTO   C48 4096   3.878   9.184   1.575  0.0551 -0.0794 -0.6921
   10CHTO   H90 4097   3.811   9.160   1.657 -0.0607 -3.3991 -1.6619
   10CHTO    N9 4098   3.803   9.257   1.463 -0.0591  0.8660  0.4181
   10CHTO   H77 4099   3.819   9.189   1.380 -2.2233 -0.1376  0.8057
   10CHTO   H78 4100   3.699   9.269   1.485 -0.6054  0.2357 -1.6281
   10CHTO   C51 4101   4.006   9.257   1.623  0.7700  0.5527 -0.0343
   10CHTO   H93 4102   4.077   9.267   1.542 -0.7867 -0.0185 -1.4874
   10CHTO   O30 4103   4.041   9.162   1.730 -0.5860  0.2531  0.1804
   10CHTO   C46 4104   4.101   9.049   1.705 -0.0247  0.0557  0.1270
   10CHTO   H88 4105   4.190   9.068   1.646 -0.2316  0.0866 -0.1728
   10CHTO   C53 4106   4.145   8.988   1.841 -0.0875  0.0424  0.3475
   10CHTO   O72 4107   4.267   9.043   1.888 -1.2941  0.3418  0.2687
   10CHTO  H199 4108   4.275   9.136   1.879  0.9956  0.0818 -0.7560
   10CHTO   O22 4109   3.987   9.383   1.680  0.8187 -0.2456  0.3202
   10CHTO   C31 4110   4.092   9.472   1.691  0.1010  0.5839 -0.1984
   10CHTO   H59 4111   4.062   9.550   1.765  0.4621  1.4800 -0.9856
   10CHTO   C29 4112   4.235   9.431   1.730 -0.1128 -0.3687 -0.0976
   10CHTO   H57 4113   4.274   9.357   1.659 -1.1637 -1.0996  0.0724
   10CHTO   O21 4114   4.210   9.353   1.853 -0.0537 -1.0772  0.1186
   10CHTO   H37 4115   4.195   9.415   1.922  0.7137  0.7309 -1.2832
   10CHTO   C27 4116   4.338   9.550   1.745  0.0984  0.0663  0.1222
   10CHTO   H55 4117   4.314   9.611   1.833  1.5718  0.5689  0.1977
   10CHTO    N5 4118   4.473   9.497   1.769 -0.4476 -0.0560  0.1977
   10CHTO   H43 4119   4.469   9.395   1.802 -2.6680 -0.4459 -1.1582
   10CHTO   H44 4120   4.521   9.560   1.843 -0.4998 -2.0069  1.9296
   10CHTO   C25 4121   4.325   9.630   1.610 -0.0700 -0.0565  0.1595
   10CHTO   H53 4122   4.355   9.584   1.515 -0.5377 -0.1317  0.0487
   10CHTO   O17 4123   4.188   9.670   1.582  0.1656 -0.3848  0.2289
   10CHTO   C32 4124   4.100   9.559   1.559 -0.1139  0.4909  0.7256
   10CHTO   H60 4125   4.154   9.505   1.481 -1.2067 -1.6535  1.4248
   10CHTO   C36 4126   3.956   9.609   1.517 -0.0789  0.4976 -0.7561
   10CHTO   O25 4127   3.945   9.678   1.387  0.2533  0.1142  0.0240
   10CHTO   H40 4128   3.992   9.635   1.318  0.4619  0.8781 -0.3142
   10CHTO   O15 4129   4.396   9.772   1.626 -0.1382 -0.6917  0.5746
   10CHTO   C19 4130   4.433   9.868   1.522 -0.1085 -0.3898  0.0150
   10CHTO   H47 4131   4.388   9.829   1.430 -2.5952  2.8794 -0.2476
   10CHTO   C20 4132   4.373  10.010   1.546 -0.2447  0.3591 -0.4936
   10CHTO   H48 4133   4.390  10.042   1.650 -0.8227 -1.6094  0.2233
   10CHTO   O19 4134   4.235  10.001   1.537  0.3863 -0.1517 -0.0243
   10CHTO   H35 4135   4.197   9.941   1.599 -1.1962  0.4742 -0.3645
   10CHTO   C21 4136   4.427  10.115   1.437 -0.0692 -0.4213  0.3484
   10CHTO   H49 4137   4.374  10.102   1.343  3.0289  0.8236 -1.6410
   10CHTO    N4 4138   4.401  10.260   1.470  0.5351  0.0057  0.2932
   10CHTO   H41 4139   4.493  10.316   1.479 -0.3642  1.4123  0.8964
   10CHTO   H42 4140   4.336  10.305   1.396  0.5788 -0.7688 -0.2244
   10CHTO   C22 4141   4.579  10.100   1.394  0.1340  0.3054 -0.1918
   10CHTO   H50 4142   4.649  10.142   1.467  1.2761 -1.2590 -0.3459
   10CHTO   O14 4143   4.611   9.964   1.381 -0.9585  0.2364  0.5982
   10CHTO   C23 4144   4.585   9.880   1.494 -0.6907 -0.4250  0.1411
   10CHTO   H51 4145   4.636   9.927   1.580 -1.1193  0.1212  0.1027
   10CHTO   C34 4146   4.651   9.743   1.483  0.2001  0.4558  0.1621
   10CHTO   O23 4147   4.786   9.757   1.444  0.8169 -0.4403  0.0715
   10CHTO   H38 4148   4.820   9.676   1.412  0.8010 -0.7382  0.8008
   10CHTO   O16 4149   4.607  10.154   1.264  0.5982  0.1862  0.3739
   10CHTO   C24 4150   4.767  10.174   1.227 -0.2221  0.3262  0.2349
   10CHTO   H52 4151   4.834  10.141   1.306  1.2338  0.5775 -0.8721
   10CHTO   C26 4152   4.786  10.326   1.197 -0.6111  0.7261 -0.1804
   10CHTO   H54 4153   4.723  10.356   1.111 -2.4652 -0.4297  0.7513
   10CHTO   O20 4154   4.742  10.402   1.319 -0.3850 -0.2344  0.2061
   10CHTO   H36 4155   4.748  10.352   1.398  0.6385 -1.8764 -0.8936
   10CHTO   C30 4156   4.935  10.358   1.158  0.2554  0.4914 -0.0722
   10CHTO   H58 4157   5.002  10.341   1.243 -0.5778  1.9970  0.9089
   10CHTO    N6 4158   4.946  10.503   1.130 -0.1274 -0.5077 -0.1620
   10CHTO   H45 4159   4.892  10.527   1.040 -3.3146 -2.2694  1.2214
   10CHTO   H46 4160   5.051  10.528   1.118 -0.9153  2.2625 -1.8745
   10CHTO   C33 4161   4.980  10.270   1.035  0.6898  0.1177 -0.2850
   10CHTO   H61 4162   4.931  10.304   0.942  1.0676 -0.5778 -0.7381
   10CHTO   O18 4163   4.947  10.132   1.060 -0.0205 -0.9196 -0.3973
   10CHTO   C28 4164   4.812  10.093   1.104  0.4019  0.5200 -0.1352
   10CHTO   H56 4165   4.747  10.111   1.018  0.4176  0.8740 -0.0726
   10CHTO   C35 4166   4.819   9.937   1.127  0.8393 -0.4856  0.1749
   10CHTO   O24 4167   4.729   9.854   1.043 -0.2978  0.1147 -0.0974
   10CHTO   H39 4168   4.641   9.882   1.027 -0.2207  0.5913  0.2980
   10CHTO    O9 4169   5.122  10.283   1.010 -0.2718 -0.0463  0.0973
   10CHTO   C13 4170   5.178  10.266   0.866 -0.3574 -0.1348  0.2530
   10CHTO   H26 4171   5.112  10.330   0.803 -1.0369  0.5452  1.6185
   10CHTO   C11 4172   5.174  10.111   0.822 -0.3892  0.3866  0.0046
   10CHTO   H24 4173   5.067  10.088   0.808 -0.7204  1.6369  0.4445
   10CHTO    O8 4174   5.213  10.025   0.931 -0.0680  0.2692 -0.4385
   10CHTO    H3 4175   5.221   9.937   0.899 -0.6790 -0.6038  1.7148
   10CHTO    C9 4176   5.260  10.095   0.694  0.0178 -0.1387 -0.5545
   10CHTO   H22 4177   5.220  10.171   0.626  1.9147  0.6576 -0.8199
   10CHTO    N2 4178   5.223   9.965   0.630  0.9825 -0.1595  0.2337
   10CHTO   H10 4179   5.300   9.934   0.560 -0.1131  0.7086 -1.3737
   10CHTO   H11 4180   5.129   9.983   0.580  0.5477 -3.5361 -0.2880
   10CHTO    C7 4181   5.413  10.113   0.734  0.5996 -0.0386 -0.5787
   10CHTO   H20 4182   5.453  10.149   0.637  3.7358 -1.7382  0.0368
   10CHTO    O4 4183   5.433  10.207   0.839  0.0999 -0.1360 -0.0388
   10CHTO   C14 4184   5.337  10.311   0.852 -0.1951 -0.7986  0.1207
   10CHTO   H27 4185   5.345  10.373   0.761 -2.1935  0.2277  0.6031
   10CHTO   C18 4186   5.378  10.400   0.970 -0.2812 -0.0756  0.3705
   10CHTO   O13 4187   5.306  10.525   0.967 -0.4415  0.4718 -0.2071
   10CHTO    H7 4188   5.361  10.601   0.956  1.4327 -0.6347  1.1287
   10CHTO    O2 4189   5.493   9.976   0.767 -0.0909 -0.3224  0.9418
   10CHTO    C1 4190   5.632   9.988   0.804 -0.1931  0.2506 -0.1430
   10CHTO   H14 4191   5.643  10.063   0.885 -1.6679  2.1262 -1.6090
   10CHTO    C2 4192   5.729  10.030   0.683 -0.1821 -0.1852 -0.5747
   10CHTO   H15 4193   5.713   9.955   0.605  2.1832 -0.8670 -0.4433
   10CHTO    O6 4194   5.696  10.162   0.633 -0.1098  0.0844 -0.3738
   10CHTO    H1 4195   5.689  10.174   0.540 -1.8218  1.8631 -0.0604
   10CHTO    C3 4196   5.881  10.038   0.728  0.5565 -0.1797 -0.2203
   10CHTO   H16 4197   5.899  10.117   0.802 -1.8456 -1.3322  1.6602
   10CHTO    N1 4198   5.979  10.070   0.621 -0.2243 -0.8333 -0.3644
   10CHTO    H8 4199   6.035  10.158   0.648 -1.7211 -0.3611  1.3472
   10CHTO    H9 4200   5.936  10.073   0.522  0.8892  0.4436 -0.8184
   10CHTO    C4 4201   5.914   9.902   0.799  0.0212 -0.0150 -0.2036
   10CHTO   H17 4202   5.921   9.823   0.724  2.9964  0.3894 -0.4159
   10CHTO    O1 4203   5.817   9.870   0.900  0.7280  0.3406 -0.0523
   10CHTO    C5 4204   5.679   9.851   0.856 -0.2792 -0.8053  0.1614
   10CHTO   H18 4205   5.687   9.778   0.776  3.1663  0.6284 -0.8967
   10CHTO   C16 4206   5.592   9.793   0.969 -0.0792 -0.0354 -0.0591
   10CHTO   O11 4207   5.648   9.671   1.023  0.4409 -0.0331  0.5268
   10CHTO    H5 4208   5.622   9.680   1.112 -1.6552 -4.6586  0.5241
   10CHTO    O3 4209   6.041   9.923   0.872  0.4938  0.6047  0.3113
   10CHTO    C6 4210   6.129   9.808   0.881  0.1331  0.3910 -0.2770
   10CHTO   H19 4211   6.067   9.719   0.886 -0.0637  0.6286  1.6236
   10CHTO    C8 4212   6.229   9.789   0.766 -0.2171  0.6004 -0.3487
   10CHTO   H21 4213   6.289   9.878   0.747  0.2569 -0.1943 -2.7260
   10CHTO    O7 4214   6.150   9.763   0.647 -0.6316 -0.1890  0.2119
   10CHTO    H2 4215   6.196   9.752   0.565 -0.2775 -1.1666  0.5417
   10CHTO   C12 4216   6.330   9.669   0.798 -0.1431  0.0059 -0.8627
   10CHTO   H25 4217   6.262   9.582   0.808  2.0050 -1.4955  1.0927
   10CHTO    N3 4218   6.429   9.638   0.690 -0.0565 -0.0364 -0.0297
   10CHTO   H12 4219   6.462   9.536   0.684  0.2502 -0.1033  2.2839
   10CHTO   H13 4220   6.513   9.707   0.690  0.5215 -0.7301  0.7103
   10CHTO   C15 4221   6.390   9.706   0.942  0.4341  0.8438 -0.8420
   10CHTO   H28 4222   6.434   9.806   0.945 -0.3826  1.1940 -0.1687
   10CHTO   O10 4223   6.498   9.603   0.993  0.0179  0.6762 -0.0800
   10CHTO    H4 4224   6.463   9.520   1.019  0.4836  0.5726  0.2182
   10CHTO    O5 4225   6.286   9.705   1.038 -0.3488 -0.5770 -0.2680
   10CHTO   C10 4226   6.201   9.820   1.015 -1.1752 -0.7264 -0.4513
   10CHTO   H23 4227   6.256   9.913   1.029 -2.1049 -0.1669 -0.4142
   10CHTO   C17 4228   6.092   9.825   1.130 -0.2065 -0.1330 -0.5607
   10CHTO   O12 4229   6.013   9.707   1.133 -0.8218  0.1205  0.5186
   10CHTO    H6 4230   5.948   9.715   1.200 -1.8556  0.9065 -0.5779
   11CHTO  H203 4231   7.294   4.598  -0.065  0.0714 -0.0347  0.5985
   11CHTO   O82 4232   7.309   4.622   0.024  0.0740  0.9588  0.3333
   11CHTO  C123 4233   7.270   4.755   0.029  0.1763 -0.4913  0.2495
   11CHTO  H227 4234   7.303   4.807  -0.062  0.9182  0.2110  0.9166
   11CHTO   O77 4235   7.123   4.735   0.031  0.0655 -0.7415 -0.1685
   11CHTO  C118 4236   7.051   4.862   0.025 -0.3216 -0.1551  0.3549
   11CHTO  H222 4237   7.080   4.927  -0.059  0.2080  1.3417  1.6404
   11CHTO  C125 4238   6.889   4.827   0.017 -0.0030 -0.2695  0.2710
   11CHTO   O84 4239   6.863   4.768  -0.110  0.5138  0.1265  0.2125
   11CHTO  H205 4240   6.893   4.679  -0.115  1.0174  0.3080 -0.0184
   11CHTO  C114 4241   7.077   4.929   0.163  0.0137  0.2342 -0.4194
   11CHTO  H218 4242   7.056   4.861   0.245  2.3600 -0.0118  0.0009
   11CHTO  C116 4243   7.233   4.957   0.166 -0.2542 -0.1361  0.0308
   11CHTO  H220 4244   7.260   5.031   0.088  0.3291  1.0223  1.3095
   11CHTO   O79 4245   7.262   5.025   0.287 -0.2793  0.0207  0.2826
   11CHTO  H201 4246   7.212   5.101   0.311  0.7170  0.8506 -0.2098
   11CHTO  C120 4247   7.316   4.829   0.158  0.1376 -0.1695  0.2237
   11CHTO  H224 4248   7.288   4.764   0.244 -0.3416 -1.3709 -0.8308
   11CHTO   N21 4249   7.462   4.846   0.152 -0.7556  0.2736 -0.5038
   11CHTO  H211 4250   7.498   4.872   0.053 -1.4148 -1.7941 -1.3103
   11CHTO  H212 4251   7.489   4.926   0.219  3.0834  0.4056 -2.0663
   11CHTO   O75 4252   7.000   5.050   0.162  0.3062  0.3379 -0.5064
   11CHTO  C112 4253   6.882   5.071   0.270  0.3164 -0.5036  0.1225
   11CHTO  H216 4254   6.863   4.977   0.325  0.4512 -1.1956 -0.9873
   11CHTO   O73 4255   6.766   5.105   0.191 -0.3514 -0.0908 -0.1743
   11CHTO  C113 4256   6.647   5.126   0.266 -0.5242  0.0338  0.1243
   11CHTO  H217 4257   6.633   5.046   0.343 -0.5475  0.3598  0.4618
   11CHTO  C124 4258   6.523   5.113   0.177  0.9201  0.6720 -0.5282
   11CHTO   O83 4259   6.394   5.100   0.241 -0.0831  0.1423  0.3516
   11CHTO  H204 4260   6.379   5.174   0.297 -0.9378  1.4119 -1.4996
   11CHTO  C109 4261   6.671   5.267   0.320  0.0070  0.2904 -0.5099
   11CHTO  H213 4262   6.707   5.328   0.235  1.2318 -2.4170 -2.0204
   11CHTO  C110 4263   6.787   5.253   0.431  0.0496 -1.0567 -0.4582
   11CHTO  H214 4264   6.759   5.183   0.509 -0.4582 -1.0380 -0.6259
   11CHTO   O78 4265   6.810   5.384   0.493 -0.3028  0.1926 -0.0082
   11CHTO  H200 4266   6.820   5.444   0.421  1.9212 -1.1056 -0.8296
   11CHTO  C111 4267   6.917   5.193   0.366  0.2023 -0.0811  0.5158
   11CHTO  H215 4268   6.957   5.270   0.298 -0.9579  1.1564  1.2088
   11CHTO   N19 4269   7.019   5.159   0.462 -1.0926  0.3354  0.1481
   11CHTO  H207 4270   7.001   5.066   0.514  0.5561 -0.7781 -1.1839
   11CHTO  H208 4271   7.026   5.240   0.532  0.1308  1.4024 -1.1765
   11CHTO   O74 4272   6.546   5.323   0.374  0.1236  0.1128  0.1880
   11CHTO  C115 4273   6.507   5.475   0.310 -0.5159 -0.5494 -0.4512
   11CHTO  H219 4274   6.587   5.519   0.251 -0.6148  1.9973  1.2145
   11CHTO   O76 4275   6.377   5.469   0.220 -0.1024  0.7090 -0.2075
   11CHTO  C122 4276   6.254   5.460   0.292  0.0466  0.4816  0.3414
   11CHTO  H226 4277   6.239   5.354   0.316 -1.8623  0.8380  0.8191
   11CHTO  C126 4278   6.137   5.497   0.191  0.5790  0.5387  0.7481
   11CHTO   O85 4279   6.142   5.624   0.123  0.2789 -0.4079  0.3194
   11CHTO  H206 4280   6.088   5.615   0.047  0.0053  0.3679  0.4210
   11CHTO  C121 4281   6.237   5.542   0.422  0.7513  0.0489 -0.3582
   11CHTO  H225 4282   6.141   5.597   0.418  0.3708 -0.5662  0.0910
   11CHTO   O81 4283   6.232   5.458   0.547  0.3310 -0.0076 -0.3754
   11CHTO  H202 4284   6.234   5.511   0.624 -0.7414 -1.5817  0.7621
   11CHTO  C119 4285   6.353   5.641   0.428 -0.4609 -1.0455  0.5030
   11CHTO  H223 4286   6.362   5.699   0.336  0.5971 -0.0214  1.2347
   11CHTO  C117 4287   6.486   5.568   0.442 -0.3043  0.1303  0.2865
   11CHTO  H221 4288   6.495   5.504   0.530  1.5768 -2.7026 -1.8766
   11CHTO   N20 4289   6.611   5.655   0.440  0.6647  0.3585  0.4129
   11CHTO  H209 4290   6.613   5.708   0.534 -1.7397  0.1883  0.5866
   11CHTO  H210 4291   6.616   5.719   0.353  1.2885 -0.7985 -0.4116
   11CHTO   O80 4292   6.327   5.769   0.551  0.0903 -0.2090 -0.3791
   11CHTO  C103 4293   6.279   5.740   0.709  0.1782 -0.2677  0.4090
   11CHTO  H190 4294   6.192   5.674   0.711 -0.2876  0.2495 -1.7644
   11CHTO  C101 4295   6.389   5.680   0.797 -0.7234 -0.4922  0.1583
   11CHTO  H188 4296   6.481   5.738   0.780 -2.7016  2.3739 -1.3225
   11CHTO   O68 4297   6.409   5.537   0.758 -0.3843 -0.5368  0.2725
   11CHTO  H168 4298   6.444   5.536   0.671  1.6933 -0.9773  1.0810
   11CHTO   C99 4299   6.349   5.702   0.951  0.2649  0.3911  0.9116
   11CHTO  H186 4300   6.262   5.640   0.983  0.1534 -0.1627 -0.4169
   11CHTO   N17 4301   6.456   5.669   1.043 -0.2311  0.0003  0.2928
   11CHTO  H174 4302   6.442   5.694   1.147  0.1289  0.3913  0.2461
   11CHTO  H175 4303   6.542   5.716   0.997  0.7198 -0.7989  1.2355
   11CHTO   C97 4304   6.304   5.851   0.977  0.3381  0.0624 -0.2608
   11CHTO  H184 4305   6.387   5.920   0.953  0.3361  0.3380  0.5222
   11CHTO   O64 4306   6.190   5.870   0.886  0.0192  0.0298  0.1911
   11CHTO  C104 4307   6.233   5.878   0.755  0.0818 -0.0065 -0.2077
   11CHTO  H191 4308   6.317   5.948   0.751  1.1949 -1.2154  1.2558
   11CHTO  C108 4309   6.117   5.939   0.686 -0.2696  0.1477 -0.3728
   11CHTO   O71 4310   6.106   6.075   0.713 -0.5049  0.1957 -0.1538
   11CHTO  H171 4311   6.036   6.098   0.772  1.4335  3.4564  1.0018
   11CHTO   O62 4312   6.241   5.883   1.101  0.2391  0.3617  0.2023
   11CHTO   C91 4313   6.240   6.023   1.134  0.5400 -0.0808 -0.0395
   11CHTO  H178 4314   6.241   6.074   1.038 -0.6168  0.4778  0.2268
   11CHTO   C92 4315   6.364   6.061   1.221  0.1867  0.0806  0.8645
   11CHTO  H179 4316   6.358   6.007   1.317 -1.6749  3.0971  2.5387
   11CHTO   O66 4317   6.489   6.013   1.161  0.2026 -0.1328  0.0006
   11CHTO  H166 4318   6.551   6.001   1.230 -0.8318  2.0393  1.3595
   11CHTO   C93 4319   6.371   6.219   1.248 -0.1065 -0.4504  0.0807
   11CHTO  H180 4320   6.421   6.262   1.160 -0.4852  1.4873  0.8045
   11CHTO   N16 4321   6.461   6.242   1.363 -0.3821  0.2693  0.0235
   11CHTO  H172 4322   6.438   6.179   1.448  2.7367 -2.0795 -0.8092
   11CHTO  H173 4323   6.560   6.217   1.328 -0.6250 -0.8579  0.1238
   11CHTO   C94 4324   6.229   6.290   1.280 -0.3692 -0.0305 -0.2837
   11CHTO  H181 4325   6.194   6.274   1.382  0.4977 -1.4980 -0.2073
   11CHTO   O61 4326   6.135   6.234   1.189 -0.0398  0.0465 -0.0183
   11CHTO   C95 4327   6.125   6.089   1.200  0.4465 -0.3471  0.8791
   11CHTO  H182 4328   6.136   6.057   1.303 -1.4481  0.9114  1.5084
   11CHTO  C106 4329   5.980   6.034   1.140 -0.1865 -0.7068 -0.4393
   11CHTO   O69 4330   5.967   6.088   1.008 -0.2098 -0.0730 -0.6275
   11CHTO  H169 4331   6.012   6.027   0.953  0.6934 -0.8768  0.9625
   11CHTO   O63 4332   6.243   6.455   1.247 -0.0309 -0.0201  0.0629
   11CHTO   C96 4333   6.209   6.567   1.358 -0.0419 -0.1432  0.4694
   11CHTO  H183 4334   6.268   6.536   1.444 -0.1281 -0.0340  0.5671
   11CHTO   C98 4335   6.054   6.569   1.383  0.4298 -0.9983 -0.0878
   11CHTO  H185 4336   5.999   6.603   1.294 -0.4088 -0.0151  0.7915
   11CHTO   O67 4337   6.007   6.440   1.416  0.2260  0.2281  0.1971
   11CHTO  H167 4338   6.017   6.377   1.347  1.9047 -0.2060  0.8315
   11CHTO  C102 4339   6.022   6.672   1.501 -1.0676 -0.0772 -0.0925
   11CHTO  H189 4340   6.051   6.617   1.592  1.1812 -2.5157 -2.1932
   11CHTO   N18 4341   5.879   6.708   1.520 -0.1730  0.1664 -0.2127
   11CHTO  H176 4342   5.841   6.763   1.435 -2.8620 -0.7910  0.3402
   11CHTO  H177 4343   5.876   6.765   1.612 -2.2682 -1.4445  0.7351
   11CHTO  C105 4344   6.117   6.800   1.489  0.2414 -0.2483 -0.0321
   11CHTO  H192 4345   6.058   6.890   1.506  0.1022 -0.5359  1.0545
   11CHTO   O65 4346   6.175   6.815   1.357  0.0511  0.4152 -0.6429
   11CHTO  C100 4347   6.252   6.712   1.302 -0.0399  0.0136  0.1194
   11CHTO  H187 4348   6.230   6.715   1.194 -2.4947  0.8440  0.5954
   11CHTO  C107 4349   6.406   6.729   1.317  0.9211  0.3915 -0.5279
   11CHTO   O70 4350   6.443   6.859   1.262 -0.2611  0.2173 -0.3799
   11CHTO  H170 4351   6.529   6.888   1.285 -0.2820  0.1382 -0.2062
   11CHTO   O57 4352   6.240   6.783   1.599 -0.4677  0.0598  0.4994
   11CHTO   C85 4353   6.261   6.879   1.701 -0.3433  0.3507  0.3989
   11CHTO  H157 4354   6.169   6.930   1.735 -0.5626  0.1361  0.1288
   11CHTO   C83 4355   6.341   6.998   1.643  0.7033  0.8241 -0.6182
   11CHTO  H155 4356   6.282   7.052   1.569 -3.0847 -0.9204  1.0056
   11CHTO   O56 4357   6.449   6.933   1.573  0.2992  0.2756 -0.0043
   11CHTO  H135 4358   6.515   6.992   1.542 -0.4762  1.6985  0.9782
   11CHTO   C81 4359   6.384   7.099   1.759 -0.3227 -0.7098  0.0879
   11CHTO  H153 4360   6.295   7.136   1.808  0.5771  1.7535 -0.0367
   11CHTO   N14 4361   6.452   7.228   1.715 -0.2295  0.3383 -0.2659
   11CHTO  H141 4362   6.381   7.288   1.662 -2.0104 -1.0979  0.4595
   11CHTO  H142 4363   6.525   7.203   1.641 -1.4216  0.2859 -1.4436
   11CHTO   C79 4364   6.470   7.022   1.865  0.1274 -0.4171  0.9661
   11CHTO  H151 4365   6.490   7.088   1.949 -0.8842 -0.4556  1.2434
   11CHTO   O52 4366   6.393   6.914   1.915 -0.5343  0.4984  0.0128
   11CHTO   C86 4367   6.337   6.813   1.822 -0.3672  0.1448 -0.5434
   11CHTO  H158 4368   6.427   6.759   1.785  0.4944  0.4308  1.0611
   11CHTO   C90 4369   6.247   6.698   1.898 -0.1913 -0.2229 -1.0894
   11CHTO   O60 4370   6.161   6.622   1.810  0.2414  0.0624  0.1490
   11CHTO  H138 4371   6.201   6.613   1.726 -1.0806 -0.7053 -0.4280
   11CHTO   O50 4372   6.594   6.972   1.822  0.5433  0.1169 -0.0167
   11CHTO   C73 4373   6.687   6.878   1.873  0.5184 -0.4120 -0.5812
   11CHTO  H145 4374   6.640   6.801   1.935  3.7231 -2.0769 -0.0895
   11CHTO   C74 4375   6.791   6.939   1.967  0.5758  0.1489  0.1307
   11CHTO  H146 4376   6.730   6.981   2.050 -0.8004 -1.5760  0.0088
   11CHTO   O54 4377   6.873   6.839   2.027 -0.1940  0.1652  0.6160
   11CHTO  H133 4378   6.959   6.838   1.990 -0.7231  2.0148 -0.7276
   11CHTO   C75 4379   6.875   7.049   1.892  0.4166 -0.2904 -0.3513
   11CHTO  H147 4380   6.803   7.129   1.867  0.0411 -0.9071 -1.2980
   11CHTO   N13 4381   6.976   7.114   1.978 -0.1120 -0.2000  1.0153
   11CHTO  H139 4382   6.962   7.110   2.085 -0.7636  1.2995  1.0081
   11CHTO  H140 4383   7.002   7.214   1.946 -1.3469 -0.2647 -0.2503
   11CHTO   C76 4384   6.931   6.993   1.750  0.5009  0.9241 -0.3636
   11CHTO  H148 4385   7.018   6.933   1.775 -0.4946 -0.0123  0.9571
   11CHTO   O49 4386   6.838   6.905   1.675 -0.0655  0.3082  0.6744
   11CHTO   C77 4387   6.771   6.808   1.762 -0.1891  0.0207  0.4375
   11CHTO  H149 4388   6.844   6.740   1.805 -1.0834 -0.3480  1.3721
   11CHTO   C88 4389   6.682   6.718   1.677 -0.0687 -0.1498 -0.2570
   11CHTO   O58 4390   6.741   6.675   1.572  0.2413  0.0105 -0.5933
   11CHTO  H136 4391   6.701   6.597   1.540  2.8470 -0.5283 -2.6975
   11CHTO   O51 4392   6.964   7.106   1.673 -0.4608 -1.0024  0.2519
   11CHTO   C78 4393   7.103   7.100   1.574 -0.0748  0.1618 -0.1854
   11CHTO  H150 4394   7.163   7.008   1.591  2.3048  1.8470  0.6925
   11CHTO   C80 4395   7.191   7.223   1.612 -1.0051  0.1560 -0.2867
   11CHTO  H152 4396   7.128   7.314   1.614  1.1052  1.6375  0.2350
   11CHTO   O55 4397   7.234   7.203   1.746 -0.4436 -0.7076  0.2818
   11CHTO  H134 4398   7.305   7.258   1.773  0.3049 -0.0740 -2.8399
   11CHTO   C84 4399   7.315   7.242   1.512  0.0301 -0.0718 -0.0179
   11CHTO  H156 4400   7.363   7.146   1.499  0.0079  0.1888 -2.1427
   11CHTO   N15 4401   7.411   7.349   1.552 -0.0974  0.2269  0.0775
   11CHTO  H143 4402   7.473   7.374   1.469 -0.3930  1.1114  0.1155
   11CHTO  H144 4403   7.477   7.312   1.627  2.3244  2.5408 -0.8440
   11CHTO   C87 4404   7.250   7.258   1.376 -0.4483  0.4135 -0.2331
   11CHTO  H159 4405   7.178   7.340   1.371 -0.6629  0.3884  2.0748
   11CHTO   O53 4406   7.180   7.112   1.345  0.2404  0.0798 -0.2132
   11CHTO   C82 4407   7.058   7.103   1.425 -0.1751  0.1526  0.2291
   11CHTO  H154 4408   6.996   7.191   1.404  0.2472  0.6594  1.1085
   11CHTO   C89 4409   6.970   6.981   1.379 -0.2667  0.1376  0.2026
   11CHTO   O59 4410   7.049   6.862   1.388  0.2378  0.5936 -0.5922
   11CHTO  H137 4411   6.998   6.789   1.359  1.1697 -0.0963 -0.5178
   11CHTO   O45 4412   7.352   7.288   1.258  0.1373 -0.0005  0.5377
   11CHTO   C67 4413   7.290   7.299   1.125  0.2975 -0.0394  0.1349
   11CHTO  H124 4414   7.219   7.217   1.121 -0.3945  0.6061 -0.9401
   11CHTO   C65 4415   7.215   7.434   1.095 -0.7001 -0.5711  0.3419
   11CHTO  H122 4416   7.250   7.502   1.172 -0.5990  2.6868 -2.5008
   11CHTO   O44 4417   7.073   7.409   1.122  0.0916 -0.1477 -0.0538
   11CHTO  H102 4418   7.036   7.371   1.045  0.6664 -1.1865  0.1704
   11CHTO   C63 4419   7.255   7.500   0.961  0.3835  0.1672  0.4498
   11CHTO  H120 4420   7.359   7.527   0.974  0.7011  0.2197 -2.0217
   11CHTO   N11 4421   7.186   7.635   0.943 -0.2194 -0.2213 -0.9043
   11CHTO  H108 4422   7.088   7.617   0.905 -0.9282  0.1455  0.7017
   11CHTO  H109 4423   7.246   7.697   0.879  1.2202  1.1012  1.6236
   11CHTO   C61 4424   7.245   7.389   0.852 -0.6516  0.0077 -0.0355
   11CHTO  H118 4425   7.300   7.440   0.771 -1.0751  1.0929  0.3554
   11CHTO   O40 4426   7.331   7.269   0.883  0.1979  0.0952 -0.3437
   11CHTO   C68 4427   7.398   7.271   1.012 -0.1880  0.8503  0.3080
   11CHTO  H125 4428   7.480   7.345   1.022 -1.0609  1.9334 -0.4313
   11CHTO   C72 4429   7.462   7.135   1.029 -0.4255  0.0215  0.3045
   11CHTO   O48 4430   7.555   7.118   0.927  0.2303 -0.5556  0.1970
   11CHTO  H105 4431   7.516   7.050   0.875  0.9124  0.0855 -1.1774
   11CHTO   O38 4432   7.109   7.346   0.810  0.3065  0.4233  0.7165
   11CHTO   C55 4433   7.107   7.237   0.717  0.4347 -0.4422  0.5625
   11CHTO  H112 4434   7.202   7.183   0.709 -1.4086 -3.4619 -2.2167
   11CHTO   C56 4435   7.060   7.297   0.579  0.3241 -0.1636  0.2873
   11CHTO  H113 4436   6.963   7.345   0.595  0.5211  0.1900  0.4266
   11CHTO   O42 4437   7.144   7.402   0.530 -0.0879 -0.0447  0.4794
   11CHTO  H100 4438   7.234   7.379   0.543  0.5711  1.6155 -0.9603
   11CHTO   C57 4439   7.033   7.184   0.472  0.3910  0.1063  0.1312
   11CHTO  H114 4440   7.124   7.137   0.435  1.0820  1.1640  0.4705
   11CHTO   N10 4441   6.963   7.242   0.349 -0.1685  0.3136 -0.1437
   11CHTO  H106 4442   6.904   7.176   0.289 -1.5744  1.3344  0.0967
   11CHTO  H107 4443   6.908   7.332   0.370  0.2017  0.9729 -1.9719
   11CHTO   C58 4444   6.950   7.066   0.533  0.3720  0.2162 -0.1631
   11CHTO  H115 4445   6.846   7.106   0.542  0.1295 -0.1471 -1.2594
   11CHTO   O37 4446   6.995   7.026   0.664  0.0592  0.1279 -0.2087
   11CHTO   C59 4447   7.008   7.127   0.758 -0.7110 -0.5550  0.3233
   11CHTO  H116 4448   6.909   7.173   0.770 -1.4543 -1.9593 -0.3608
   11CHTO   C70 4449   7.063   7.069   0.887 -0.2922  0.3324 -0.1063
   11CHTO   O46 4450   6.986   6.968   0.951  0.3652  0.5419 -0.0466
   11CHTO  H103 4451   7.023   6.952   1.035 -0.1934 -1.4984 -0.1760
   11CHTO   O39 4452   6.949   6.949   0.435  0.2583 -0.4035  0.0429
   11CHTO   C60 4453   6.835   6.860   0.440  0.1584  0.1665 -0.0996
   11CHTO  H117 4454   6.771   6.877   0.526 -0.8511 -3.0044 -0.1667
   11CHTO   C62 4455   6.752   6.881   0.304  0.3935 -0.8993 -0.0458
   11CHTO  H119 4456   6.726   6.989   0.310 -0.4165 -1.1278  0.8144
   11CHTO   O43 4457   6.828   6.862   0.188 -0.3298 -0.0248 -0.4168
   11CHTO  H101 4458   6.875   6.937   0.158  2.1422 -0.9663  0.9337
   11CHTO   C66 4459   6.622   6.793   0.304 -0.2405  0.3669 -0.6028
   11CHTO  H123 4460   6.577   6.803   0.403 -0.6690 -2.0477 -0.5097
   11CHTO   N12 4461   6.522   6.815   0.199 -0.1501  0.3417  0.3069
   11CHTO  H110 4462   6.568   6.825   0.102 -0.2981 -0.1788  0.1812
   11CHTO  H111 4463   6.450   6.734   0.195 -0.1499  0.4273 -2.2887
   11CHTO   C69 4464   6.674   6.642   0.309  0.4587 -0.7496  0.4527
   11CHTO  H126 4465   6.731   6.635   0.214 -0.3059 -2.1853  0.0932
   11CHTO   O41 4466   6.763   6.619   0.441  0.4039  0.2892  0.3244
   11CHTO   C64 4467   6.881   6.711   0.448 -0.7325 -0.4165 -0.2571
   11CHTO  H121 4468   6.948   6.681   0.365 -0.1173  1.7318 -0.5543
   11CHTO   C71 4469   6.962   6.684   0.580  0.1350 -0.5989 -0.3390
   11CHTO   O47 4470   6.874   6.662   0.694 -0.0845 -0.0414 -0.3435
   11CHTO  H104 4471   6.919   6.627   0.769  0.4820  0.7651 -0.3037
   11CHTO   O34 4472   6.561   6.542   0.305 -0.6121  0.4527 -0.1716
   11CHTO   C49 4473   6.491   6.412   0.320 -0.1414  0.3057  0.1872
   11CHTO   H91 4474   6.568   6.336   0.307  0.4831  1.1632 -1.3311
   11CHTO   C47 4475   6.391   6.406   0.195 -1.2072  0.5451  0.0096
   11CHTO   H89 4476   6.351   6.302   0.193 -1.5885  0.6928  0.0098
   11CHTO   O33 4477   6.468   6.423   0.072 -0.0890  0.0959  0.1044
   11CHTO   H70 4478   6.536   6.360   0.059  0.6854  1.2977 -2.0721
   11CHTO   C45 4479   6.274   6.512   0.231  0.4862  0.3994  0.3355
   11CHTO   H87 4480   6.313   6.613   0.250 -1.3112  1.2231 -0.1913
   11CHTO    N8 4481   6.174   6.522   0.124 -0.0710  0.0105  0.3010
   11CHTO   H75 4482   6.128   6.620   0.126 -0.6430 -0.2299 -0.8340
   11CHTO   H76 4483   6.219   6.506   0.027  1.3156 -3.4146  1.4574
   11CHTO   C43 4484   6.201   6.462   0.367  0.3838 -0.5953  0.2266
   11CHTO   H85 4485   6.116   6.527   0.385  0.6767 -0.0169 -0.4000
   11CHTO   O29 4486   6.300   6.466   0.468 -0.0838 -0.2299  0.9625
   11CHTO   C50 4487   6.425   6.391   0.458  0.2763 -0.1218  0.3400
   11CHTO   H92 4488   6.477   6.440   0.540 -1.4436  0.0164  1.3784
   11CHTO   C54 4489   6.413   6.237   0.499 -0.3241 -0.9833 -0.2862
   11CHTO   O36 4490   6.384   6.224   0.640 -0.0632  0.2095 -0.1844
   11CHTO   H72 4491   6.298   6.260   0.651 -0.4198  0.0574 -2.3422
   11CHTO   O27 4492   6.145   6.328   0.340 -0.1502  0.1446 -0.0437
   11CHTO   C37 4493   6.044   6.241   0.401 -0.4291  1.2489  0.2661
   11CHTO   H79 4494   6.083   6.211   0.499  0.0947  1.6840  0.1939
   11CHTO   C38 4495   5.903   6.302   0.415 -0.1765 -0.0915 -0.2609
   11CHTO   H80 4496   5.869   6.342   0.318  1.4688 -0.4636 -1.0076
   11CHTO   O31 4497   5.915   6.412   0.508  0.1726 -0.5828 -0.0873
   11CHTO   H68 4498   5.926   6.498   0.472  2.5132  1.3806  4.7772
   11CHTO   C39 4499   5.799   6.202   0.475  0.4800  0.5223 -0.0880
   11CHTO   H81 4500   5.825   6.173   0.577  1.1317 -2.3990 -1.0063
   11CHTO    N7 4501   5.662   6.256   0.492  0.1030 -0.0681  0.3912
   11CHTO   H73 4502   5.622   6.287   0.397  0.6088 -2.8004 -0.7533
   11CHTO   H74 4503   5.602   6.176   0.534  0.5538 -0.5333  0.1529
   11CHTO   C40 4504   5.802   6.062   0.393 -0.6879  0.1092  0.3910
   11CHTO   H82 4505   5.750   6.070   0.297 -0.3366 -2.0962 -0.0167
   11CHTO   O26 4506   5.945   6.021   0.380  0.1725  0.2826  0.3300
   11CHTO   C41 4507   6.039   6.116   0.316 -0.5291 -0.0756 -0.7697
   11CHTO   H83 4508   6.015   6.143   0.212  0.9722 -0.8915 -1.3456
   11CHTO   C52 4509   6.178   6.047   0.309  0.0721 -0.2028  0.1557
   11CHTO   O35 4510   6.176   5.936   0.220  0.5740  0.0290  0.2826
   11CHTO   H71 4511   6.260   5.928   0.179 -0.0438  1.8107 -1.4314
   11CHTO   O28 4512   5.745   5.951   0.470  0.1695 -0.0633  0.1329
   11CHTO   C42 4513   5.684   5.830   0.411  0.2596 -0.3017  0.2312
   11CHTO   H84 4514   5.728   5.831   0.312 -1.4959  1.8387 -0.5601
   11CHTO   C44 4515   5.532   5.831   0.391 -0.3058  0.1847 -0.7214
   11CHTO   H86 4516   5.487   5.845   0.489  0.4722 -0.4506 -0.2707
   11CHTO   O32 4517   5.498   5.950   0.316  0.2515  0.5372 -0.0402
   11CHTO   H69 4518   5.416   5.949   0.271 -0.4858 -1.2353  1.2832
   11CHTO   C48 4519   5.472   5.695   0.330  0.4063 -0.0359 -0.5641
   11CHTO   H90 4520   5.484   5.680   0.223 -1.2418 -2.9729 -0.3815
   11CHTO    N9 4521   5.322   5.686   0.337  0.3339 -0.1338  0.3767
   11CHTO   H77 4522   5.278   5.784   0.328 -1.1362 -0.7292  1.0069
   11CHTO   H78 4523   5.292   5.645   0.432  0.7876  1.3910  1.1951
   11CHTO   C51 4524   5.533   5.574   0.415 -0.6578  0.4485 -0.0825
   11CHTO   H93 4525   5.500   5.579   0.519  2.6884  0.6312  1.0060
   11CHTO   O30 4526   5.675   5.583   0.411  0.2123 -0.1398 -0.7642
   11CHTO   C46 4527   5.723   5.688   0.483  0.4891 -0.0014  0.3784
   11CHTO   H88 4528   5.679   5.695   0.582 -0.5716 -1.2682  0.0121
   11CHTO   C53 4529   5.870   5.679   0.495 -0.7099 -0.6147 -0.1272
   11CHTO   O72 4530   5.897   5.566   0.583 -0.1544  0.6690  0.5643
   11CHTO  H199 4531   5.973   5.580   0.636  0.2979  1.3485 -0.2649
   11CHTO   O22 4532   5.508   5.447   0.361  0.1611  0.1955  0.3598
   11CHTO   C31 4533   5.510   5.327   0.447 -0.0431 -0.4319  0.1200
   11CHTO   H59 4534   5.558   5.358   0.542 -2.5218  0.7880  1.0197
   11CHTO   C29 4535   5.365   5.283   0.476 -0.1121 -0.4964  0.2878
   11CHTO   H57 4536   5.325   5.259   0.376  1.4487 -2.8855  0.1946
   11CHTO   O21 4537   5.284   5.393   0.533  0.2502  0.4297  0.0994
   11CHTO   H37 4538   5.311   5.463   0.476  2.6112 -1.3920 -1.1221
   11CHTO   C27 4539   5.351   5.163   0.567  0.1596 -0.6232 -0.5274
   11CHTO   H55 4540   5.397   5.198   0.660 -0.9802 -0.0796 -0.1590
   11CHTO    N5 4541   5.210   5.120   0.591 -0.8435  0.0017 -0.1064
   11CHTO   H43 4542   5.161   5.081   0.503 -1.7620  1.9183 -0.4782
   11CHTO   H44 4543   5.195   5.069   0.685  0.0761  0.4034  0.2626
   11CHTO   C25 4544   5.454   5.051   0.522  0.1543 -0.6246  0.2294
   11CHTO   H53 4545   5.417   4.998   0.433  1.3765  1.2708 -1.4488
   11CHTO   O17 4546   5.585   5.100   0.485 -0.6540 -0.4296 -0.1008
   11CHTO   C32 4547   5.586   5.205   0.393 -0.2042 -0.1115 -0.2377
   11CHTO   H60 4548   5.528   5.168   0.309  1.4285 -2.9180 -0.1763
   11CHTO   C36 4549   5.719   5.260   0.346 -0.0577  0.0190  0.1844
   11CHTO   O25 4550   5.796   5.174   0.261 -0.2469  0.4357  0.4718
   11CHTO   H40 4551   5.881   5.212   0.251 -0.3502  0.5165 -0.1245
   11CHTO   O15 4552   5.486   4.939   0.646 -0.3879  0.2205 -0.0120
   11CHTO   C19 4553   5.424   4.806   0.685 -0.1181 -0.0005 -0.6630
   11CHTO   H47 4554   5.509   4.755   0.731 -0.4344 -0.2964 -0.4029
   11CHTO   C20 4555   5.302   4.809   0.788 -0.0082  0.4089  0.3049
   11CHTO   H48 4556   5.229   4.888   0.765 -2.5923 -1.0220  3.1259
   11CHTO   O19 4557   5.367   4.820   0.918  0.3520 -0.6405 -0.0653
   11CHTO   H35 4558   5.346   4.901   0.961 -0.3271 -0.3518 -0.9161
   11CHTO   C21 4559   5.215   4.675   0.789  0.3139  0.7570  0.4046
   11CHTO   H49 4560   5.271   4.600   0.845 -0.4686 -0.2649 -0.1944
   11CHTO    N4 4561   5.086   4.698   0.863  0.0234  0.0924  0.1188
   11CHTO   H41 4562   5.063   4.796   0.902  0.7034 -0.1676  1.1905
   11CHTO   H42 4563   5.002   4.654   0.811 -1.9102  2.8755  0.7276
   11CHTO   C22 4564   5.191   4.623   0.643  0.2376  0.6314 -0.3395
   11CHTO   H50 4565   5.142   4.699   0.583 -0.0131 -0.9594 -2.1971
   11CHTO   O14 4566   5.320   4.600   0.583 -0.0663  0.3594 -0.2903
   11CHTO   C23 4567   5.388   4.721   0.557  0.4335 -0.0521 -0.8085
   11CHTO   H51 4568   5.322   4.777   0.489  0.4316 -1.1095 -1.7003
   11CHTO   C34 4569   5.515   4.683   0.484 -0.8291  0.0559 -1.2014
   11CHTO   O23 4570   5.500   4.595   0.369  0.2446 -0.2298 -0.1278
   11CHTO   H38 4571   5.583   4.552   0.356  0.6233  0.2353  0.7275
   11CHTO   O16 4572   5.128   4.487   0.637 -0.0593  0.4934  0.5233
   11CHTO   C24 4573   5.011   4.470   0.524  0.0960 -0.5156 -0.0016
   11CHTO   H52 4574   5.012   4.554   0.454 -0.5302 -0.8677 -0.4375
   11CHTO   C26 4575   4.865   4.473   0.578 -0.1678 -0.3673 -0.7361
   11CHTO   H54 4576   4.850   4.380   0.636  1.5338 -0.2186 -0.0018
   11CHTO   O20 4577   4.841   4.591   0.661 -0.4450 -0.2694 -0.3209
   11CHTO   H36 4578   4.786   4.570   0.734  0.4994 -0.8092  0.2530
   11CHTO   C30 4579   4.763   4.463   0.462 -0.6817  0.0945  0.0244
   11CHTO   H58 4580   4.764   4.546   0.390  1.4882  0.2003  0.1332
   11CHTO    N6 4581   4.620   4.450   0.507  0.3866 -0.5040  0.3614
   11CHTO   H45 4582   4.588   4.472   0.607 -0.6348  1.4726 -0.3768
   11CHTO   H46 4583   4.552   4.383   0.457  0.5854 -0.6314  0.2590
   11CHTO   C33 4584   4.805   4.350   0.359  0.2885  0.0409 -0.3474
   11CHTO   H61 4585   4.771   4.257   0.407  2.4246  0.3473  1.9085
   11CHTO   O18 4586   4.946   4.339   0.340  0.0173 -0.1660 -0.1781
   11CHTO   C28 4587   5.031   4.345   0.447 -0.0413 -0.7015  0.3322
   11CHTO   H56 4588   5.021   4.263   0.518 -0.4705 -0.8937  0.0519
   11CHTO   C35 4589   5.175   4.340   0.378 -0.6998 -0.4894 -0.2919
   11CHTO   O24 4590   5.233   4.217   0.342 -0.3051  0.5981  0.4393
   11CHTO   H39 4591   5.323   4.237   0.323 -0.0520 -0.6179  0.3183
   11CHTO    O9 4592   4.738   4.350   0.234 -0.8437  0.3077  0.1541
   11CHTO   C13 4593   4.795   4.457   0.123 -0.2663 -0.1146  0.1018
   11CHTO   H26 4594   4.873   4.517   0.176  0.4597 -1.7550  0.9104
   11CHTO   C11 4595   4.676   4.545   0.077  0.3083  0.5600 -0.6752
   11CHTO   H24 4596   4.636   4.583   0.172  0.8720 -3.7701  1.4124
   11CHTO    O8 4597   4.582   4.458   0.007 -0.2880 -0.6102  0.1193
   11CHTO    H3 4598   4.502   4.507   0.012 -1.1535 -1.7633 -1.7165
   11CHTO    C9 4599   4.734   4.668   0.002 -0.3248  0.7178 -0.4546
   11CHTO   H22 4600   4.780   4.720   0.088 -0.8644  1.0012 -0.3355
   11CHTO    N2 4601   4.633   4.758  -0.045 -0.5872 -0.2802 -0.0289
   11CHTO   H10 4602   4.672   4.808  -0.132 -1.6181  0.3305 -0.1503
   11CHTO   H11 4603   4.531   4.722  -0.052 -1.0421  1.3091 -2.5625
   11CHTO    C7 4604   4.844   4.623  -0.102  0.2092  0.5209 -0.6111
   11CHTO   H20 4605   4.933   4.640  -0.040 -0.9830  0.1051  1.2505
   11CHTO    O4 4606   4.843   4.482  -0.129  0.5126 -0.2056 -0.0373
   11CHTO   C14 4607   4.874   4.402  -0.010  0.3435  0.2213  0.1697
   11CHTO   H27 4608   4.983   4.402   0.013  0.4803  0.5708 -0.4675
   11CHTO   C18 4609   4.846   4.251  -0.034 -1.0850 -0.0242  0.2969
   11CHTO   O13 4610   4.940   4.181  -0.113  0.0540 -0.2619  0.2455
   11CHTO    H7 4611   4.904   4.191  -0.199 -0.3389  0.5835  0.4978
   11CHTO    O2 4612   4.849   4.714  -0.254 -0.2477 -0.1729 -0.0048
   11CHTO    C1 4613   4.968   4.795  -0.268  0.4152  0.4773 -0.7162
   11CHTO   H14 4614   5.051   4.758  -0.205 -0.2787  0.1059 -0.0139
   11CHTO    C2 4615   4.943   4.946  -0.237 -0.9619  0.7211 -0.1552
   11CHTO   H15 4616   4.863   4.985  -0.302 -1.5754  0.0377  0.1922
   11CHTO    O6 4617   4.909   4.958  -0.093  0.3613 -0.2855 -0.0993
   11CHTO    H1 4618   4.821   4.929  -0.075  0.7573 -0.5474  1.5121
   11CHTO    C3 4619   5.080   5.023  -0.264  0.2803 -0.3659  0.0672
   11CHTO   H16 4620   5.147   4.993  -0.182  1.9582  2.5977 -0.1362
   11CHTO    N1 4621   5.057   5.169  -0.262 -0.0930  0.7128 -0.3387
   11CHTO    H8 4622   5.148   5.224  -0.244 -0.1763  0.2773  1.4831
   11CHTO    H9 4623   4.987   5.208  -0.189 -1.7319 -1.0418 -0.9473
   11CHTO    C4 4624   5.150   4.984  -0.401 -0.3068  0.4327  0.0002
   11CHTO   H17 4625   5.113   5.046  -0.482  0.4326 -1.5088 -1.8599
   11CHTO    O1 4626   5.142   4.847  -0.444  0.0883  0.5768  0.0526
   11CHTO    C5 4627   5.027   4.771  -0.414  0.2657  0.0747  0.2868
   11CHTO   H18 4628   4.950   4.800  -0.486  0.4409 -0.5471 -0.1508
   11CHTO   C16 4629   5.047   4.622  -0.422 -0.7800 -1.1454  0.0197
   11CHTO   O11 4630   5.136   4.567  -0.325  0.2367 -0.4588 -0.2648
   11CHTO    H5 4631   5.226   4.586  -0.343  0.2407  0.6574  0.8095
   11CHTO    O3 4632   5.288   5.010  -0.393  0.3590  0.4827  0.7298
   11CHTO    C6 4633   5.354   5.042  -0.521  0.1598  0.6660  0.5967
   11CHTO   H19 4634   5.309   5.002  -0.612  1.1148  0.5567  0.1677
   11CHTO    C8 4635   5.359   5.193  -0.535 -0.7664 -0.2321  0.1607
   11CHTO   H21 4636   5.411   5.231  -0.447 -0.1359 -2.7230  0.9211
   11CHTO    O7 4637   5.220   5.231  -0.553  0.4087 -0.2868 -0.7190
   11CHTO    H2 4638   5.174   5.238  -0.472  0.0404 -1.0062 -0.8641
   11CHTO   C12 4639   5.450   5.223  -0.665  0.4176 -0.1485 -0.0716
   11CHTO   H25 4640   5.391   5.184  -0.751 -2.0257 -0.0460  1.4985
   11CHTO    N3 4641   5.473   5.363  -0.707 -0.4375 -0.3113  0.3754
   11CHTO   H12 4642   5.384   5.424  -0.706  1.4242  2.5386 -0.7757
   11CHTO   H13 4643   5.509   5.366  -0.809 -0.0348  3.4969  0.5577
   11CHTO   C15 4644   5.590   5.145  -0.651  0.7066 -0.3681  0.2863
   11CHTO   H28 4645   5.646   5.186  -0.567  0.4919  0.3824  0.0677
   11CHTO   O10 4646   5.677   5.149  -0.781 -0.4711  0.3873 -0.5146
   11CHTO    H4 4647   5.627   5.185  -0.851  0.8532  2.0218 -0.6502
   11CHTO    O5 4648   5.559   5.009  -0.635 -0.5350 -0.0912  0.2903
   11CHTO   C10 4649   5.491   4.977  -0.517  0.3893  0.0836 -0.2175
   11CHTO   H23 4650   5.544   5.014  -0.429 -0.6556 -0.4308  0.6308
   11CHTO   C17 4651   5.499   4.821  -0.501 -0.5020  0.0351 -0.7459
   11CHTO   O12 4652   5.633   4.757  -0.500 -0.1464  0.1346  0.5299
   11CHTO    H6 4653   5.668   4.758  -0.587 -0.1956  1.2768  0.5188
   12CHTO  H203 4654   5.236  11.523  -0.810 -0.8842 -0.1873 -0.7333
   12CHTO   O82 4655   5.258  11.434  -0.826 -0.2735 -0.2555  0.4096
   12CHTO  C123 4656   5.239  11.355  -0.701  0.1347  0.1887 -0.1449
   12CHTO  H227 4657   5.298  11.400  -0.620 -2.6074 -1.8062  3.1278
   12CHTO   O77 4658   5.099  11.375  -0.665 -0.4166 -0.0209  0.1028
   12CHTO  C118 4659   5.044  11.309  -0.549  0.3162 -0.2308  0.0690
   12CHTO  H222 4660   5.096  11.345  -0.459 -2.3109  1.3495  1.0070
   12CHTO  C125 4661   4.884  11.343  -0.541  0.0221  0.0121 -0.0854
   12CHTO   O84 4662   4.822  11.312  -0.417 -0.2447  0.2962 -0.0549
   12CHTO  H205 4663   4.887  11.318  -0.349 -1.6865  1.1322  1.2931
   12CHTO  C114 4664   5.061  11.155  -0.562 -0.3297  0.4544  0.1270
   12CHTO  H218 4665   5.004  11.121  -0.649 -0.1917  1.9450 -0.5698
   12CHTO  C116 4666   5.211  11.119  -0.600 -0.3248  0.8869 -1.2660
   12CHTO  H220 4667   5.274  11.129  -0.509 -0.5671 -1.0522 -0.8470
   12CHTO   O79 4668   5.225  10.976  -0.635  0.3908 -0.0637  0.2068
   12CHTO  H201 4669   5.313  10.946  -0.621  0.6832  0.6012 -0.1718
   12CHTO  C120 4670   5.278  11.203  -0.715  0.2319 -0.4228  0.1583
   12CHTO  H224 4671   5.231  11.172  -0.811 -0.7413 -0.0368  0.5052
   12CHTO   N21 4672   5.426  11.188  -0.739  0.0058  0.7100 -0.0374
   12CHTO  H211 4673   5.436  11.099  -0.799  1.0823 -0.0897  1.3129
   12CHTO  H212 4674   5.464  11.272  -0.795  1.3483 -0.5142 -0.9790
   12CHTO   O75 4675   5.028  11.086  -0.436 -0.2302 -0.0839  0.3240
   12CHTO  C112 4676   4.933  10.948  -0.457  0.0247 -0.0271  0.1237
   12CHTO  H216 4677   4.959  10.902  -0.553  0.4957 -1.6949  1.0321
   12CHTO   O73 4678   4.799  10.994  -0.453 -0.9129  0.3889 -0.2227
   12CHTO  C113 4679   4.706  10.888  -0.482 -0.0572 -0.5719  0.4940
   12CHTO  H217 4680   4.728  10.841  -0.580  2.6850 -0.3047  0.9452
   12CHTO  C124 4681   4.578  10.968  -0.498 -0.3201 -0.1151 -0.2255
   12CHTO   O83 4682   4.511  11.036  -0.385  0.2446  0.4089  0.4737
   12CHTO  H204 4683   4.455  11.102  -0.422  1.2950  1.1123  0.1023
   12CHTO  C109 4684   4.700  10.770  -0.388 -0.5495 -0.5884  0.4351
   12CHTO  H213 4685   4.654  10.811  -0.297 -1.3685  0.3758 -0.4080
   12CHTO  C110 4686   4.848  10.722  -0.363 -0.5592 -0.6252 -0.6699
   12CHTO  H214 4687   4.875  10.656  -0.446  2.5471 -0.6657  0.3120
   12CHTO   O78 4688   4.845  10.640  -0.252 -0.5573 -0.1465  0.3369
   12CHTO  H200 4689   4.863  10.549  -0.266 -1.7195 -0.3317 -0.0049
   12CHTO  C111 4690   4.949  10.842  -0.345 -0.1151  0.1009 -0.1342
   12CHTO  H215 4691   4.930  10.887  -0.246 -2.3516  1.6307 -1.2057
   12CHTO   N19 4692   5.095  10.797  -0.345 -0.3467  0.1404  0.6524
   12CHTO  H207 4693   5.153  10.853  -0.273  1.8924 -0.8980 -0.2908
   12CHTO  H208 4694   5.126  10.798  -0.448 -1.8071 -0.4834  0.2006
   12CHTO   O74 4695   4.619  10.657  -0.442 -0.1604 -0.1003 -0.8203
   12CHTO  C115 4696   4.547  10.569  -0.309  0.3659 -0.9447 -0.6898
   12CHTO  H219 4697   4.614  10.563  -0.224 -0.4726  1.3475  0.1622
   12CHTO   O76 4698   4.421  10.641  -0.258  0.1264 -0.1133  1.1685
   12CHTO  C122 4699   4.355  10.585  -0.143  0.3613  0.4085 -0.1344
   12CHTO  H226 4700   4.255  10.630  -0.144  0.4997  0.7147 -0.2431
   12CHTO  C126 4701   4.419  10.633  -0.009  0.4420  0.0474  0.3725
   12CHTO   O85 4702   4.381  10.761   0.044  0.6316  0.3922 -0.1571
   12CHTO  H206 4703   4.305  10.782  -0.006  0.0078 -2.5639 -0.5472
   12CHTO  C121 4704   4.338  10.429  -0.156  0.2885  0.0055 -0.6355
   12CHTO  H225 4705   4.311  10.391  -0.055 -2.0828  1.8645 -0.5334
   12CHTO   O81 4706   4.213  10.411  -0.226 -0.2597  0.6470  0.2195
   12CHTO  H202 4707   4.196  10.321  -0.245 -0.1772  0.7910 -0.5434
   12CHTO  C119 4708   4.462  10.352  -0.210  0.5652  0.2715  0.4748
   12CHTO  H223 4709   4.542  10.368  -0.138  0.4737  2.3214  0.1284
   12CHTO  C117 4710   4.506  10.423  -0.345 -0.4431  0.0901  0.1911
   12CHTO  H221 4711   4.439  10.423  -0.431 -1.0699  0.2987  0.6713
   12CHTO   N20 4712   4.637  10.354  -0.390 -0.5274  0.1065  0.8697
   12CHTO  H209 4713   4.722  10.383  -0.331 -0.6551  0.3055  0.9549
   12CHTO  H210 4714   4.631  10.249  -0.365 -1.4057  0.1136  0.6864
   12CHTO   O80 4715   4.446  10.190  -0.210  0.1715 -0.4728 -0.2797
   12CHTO  C103 4716   4.326  10.114  -0.299  0.4353  0.1261  0.1535
   12CHTO  H190 4717   4.230  10.165  -0.304 -0.6341 -1.9277 -0.4133
   12CHTO  C101 4718   4.382  10.065  -0.437  0.4691 -0.5514 -0.1104
   12CHTO  H188 4719   4.484  10.032  -0.418  0.9974  1.3966  0.4999
   12CHTO   O68 4720   4.389  10.197  -0.531 -0.0840 -0.0600 -0.4986
   12CHTO  H168 4721   4.372  10.164  -0.617  2.1725 -0.6779 -0.7226
   12CHTO   C99 4722   4.298   9.942  -0.500 -0.2568  0.1934  0.5585
   12CHTO  H186 4723   4.202   9.991  -0.527  0.5680  0.5469 -1.8490
   12CHTO   N17 4724   4.354   9.880  -0.626 -0.8581 -0.9388 -0.5151
   12CHTO  H174 4725   4.300   9.796  -0.667  0.2623 -1.7654 -0.3229
   12CHTO  H175 4726   4.461   9.867  -0.615 -1.1172 -1.5790  1.5627
   12CHTO   C97 4727   4.266   9.839  -0.388  0.4540 -1.0368  0.3366
   12CHTO  H184 4728   4.363   9.798  -0.356  1.4432  0.8175 -0.1852
   12CHTO   O64 4729   4.203   9.907  -0.285  0.0765  0.3126 -0.5283
   12CHTO  C104 4730   4.299   9.989  -0.213 -0.1582 -0.1648 -0.1165
   12CHTO  H191 4731   4.394   9.940  -0.194 -0.4888 -1.8653 -2.5839
   12CHTO  C108 4732   4.233  10.014  -0.077 -0.0318  0.1154  0.1288
   12CHTO   O71 4733   4.216   9.894  -0.001 -0.2929  0.3156 -0.8742
   12CHTO  H171 4734   4.135   9.904   0.046  0.0289 -2.4176  0.3778
   12CHTO   O62 4735   4.169   9.741  -0.420  0.2479  0.1396 -0.3398
   12CHTO   C91 4736   4.176   9.622  -0.336  0.0185  0.0806 -0.8281
   12CHTO  H178 4737   4.244   9.653  -0.257  0.6979 -1.7922 -0.6521
   12CHTO   C92 4738   4.230   9.499  -0.424 -0.1881  0.3311  0.5851
   12CHTO  H179 4739   4.162   9.489  -0.510  1.0391 -1.5668 -0.1916
   12CHTO   O66 4740   4.357   9.526  -0.479  0.2280 -0.6274  0.5206
   12CHTO  H166 4741   4.423   9.531  -0.413  1.0025 -1.4685 -0.1845
   12CHTO   C93 4742   4.229   9.357  -0.342  0.5253 -0.3485 -0.0148
   12CHTO  H180 4743   4.316   9.354  -0.275  0.0008 -0.7141  0.6513
   12CHTO   N16 4744   4.246   9.241  -0.428  0.2041 -0.0042  0.5552
   12CHTO  H172 4745   4.333   9.254  -0.489 -0.2301 -0.1673 -0.1031
   12CHTO  H173 4746   4.250   9.157  -0.360  0.8704  1.8047  2.8090
   12CHTO   C94 4747   4.099   9.347  -0.256 -0.5526 -0.0046 -0.0116
   12CHTO  H181 4748   4.012   9.343  -0.322 -0.5918  1.1329 -0.0364
   12CHTO   O61 4749   4.088   9.467  -0.187 -0.4850  0.8605  0.3049
   12CHTO   C95 4750   4.050   9.578  -0.268 -0.2026  0.1561  0.1717
   12CHTO  H182 4751   3.976   9.548  -0.342 -0.2015  0.6897 -0.0518
   12CHTO  C106 4752   3.982   9.698  -0.183  0.0143 -0.5491  0.4746
   12CHTO   O69 4753   3.893   9.638  -0.085 -0.5827 -0.3122  0.4359
   12CHTO  H169 4754   3.898   9.691  -0.008 -0.8410 -2.6108  2.0473
   12CHTO   O63 4755   4.093   9.224  -0.153  0.4128 -0.2174 -0.0292
   12CHTO   C96 4756   4.196   9.192  -0.050 -0.0345 -0.5663  0.1157
   12CHTO  H183 4757   4.276   9.265  -0.067  0.1023 -0.5265  0.9225
   12CHTO   C98 4758   4.233   9.038  -0.055 -0.7625  0.5963 -1.0899
   12CHTO  H185 4759   4.143   8.976  -0.045  0.3450 -0.7657  0.9104
   12CHTO   O67 4760   4.294   9.009  -0.182 -0.4113  0.4389 -0.1924
   12CHTO  H167 4761   4.279   8.917  -0.192 -3.9876  0.9408 -0.1740
   12CHTO  C102 4762   4.333   8.989   0.060 -0.4267 -0.1210  0.3212
   12CHTO  H189 4763   4.418   9.058   0.046  1.6359 -3.0625 -2.4683
   12CHTO   N18 4764   4.390   8.850   0.051  0.0841  0.5185  0.4276
   12CHTO  H176 4765   4.339   8.789  -0.023 -1.1183  1.1969  0.6854
   12CHTO  H177 4766   4.497   8.847   0.037 -0.2192 -1.1758 -1.8152
   12CHTO  C105 4767   4.248   9.018   0.192 -0.1127  0.9577 -0.2602
   12CHTO  H192 4768   4.154   8.964   0.181  0.8199 -0.6192 -0.6223
   12CHTO   O65 4769   4.226   9.159   0.196 -0.2138 -0.5704 -0.2217
   12CHTO  C100 4770   4.137   9.217   0.096  0.2528 -0.0384  0.1475
   12CHTO  H187 4771   4.043   9.161   0.109  0.0295  0.0018 -1.2661
   12CHTO  C107 4772   4.114   9.356   0.145 -0.3151  0.1892 -0.5404
   12CHTO   O70 4773   4.027   9.434   0.070 -0.1655  0.2395  0.1614
   12CHTO  H170 4774   3.996   9.496   0.133  1.9472  0.6447  0.8570
   12CHTO   O57 4775   4.333   8.974   0.317 -0.4881  0.3519 -0.2185
   12CHTO   C85 4776   4.262   8.918   0.431 -0.2886 -0.3805  0.5565
   12CHTO  H157 4777   4.181   8.866   0.376 -0.1790  1.6474 -1.5986
   12CHTO   C83 4778   4.206   9.020   0.530 -0.0512  0.2504 -0.3106
   12CHTO  H155 4779   4.134   9.087   0.484 -0.1833  2.2518  2.6882
   12CHTO   O56 4780   4.310   9.111   0.560  0.5228  0.3401  0.6899
   12CHTO  H135 4781   4.373   9.073   0.619 -1.7759  1.3043  3.8459
   12CHTO   C81 4782   4.133   8.946   0.647  0.1032 -0.3442 -0.3130
   12CHTO  H153 4783   4.070   8.866   0.608 -0.5855 -1.2738  2.5773
   12CHTO   N14 4784   4.044   9.040   0.722 -0.2866  0.5407 -0.1785
   12CHTO  H141 4785   3.962   9.062   0.657  1.6653  2.7458 -1.9631
   12CHTO  H142 4786   4.006   8.988   0.807 -3.2575  2.0473 -0.5312
   12CHTO   C79 4787   4.249   8.883   0.733  1.0831  0.2104 -0.2959
   12CHTO  H151 4788   4.204   8.826   0.815  1.8751 -1.6401 -1.1259
   12CHTO   O52 4789   4.316   8.784   0.647  0.2391  0.6977  0.6222
   12CHTO   C86 4790   4.359   8.827   0.514  0.3311 -0.8059 -0.4600
   12CHTO  H158 4791   4.452   8.886   0.529  0.5129 -0.8717 -1.2583
   12CHTO   C90 4792   4.403   8.707   0.433  0.4114 -0.6160  0.0352
   12CHTO   O60 4793   4.506   8.629   0.491 -0.4976  0.3423 -0.2593
   12CHTO  H138 4794   4.584   8.680   0.479 -0.2414  0.4160  1.6094
   12CHTO   O50 4795   4.351   8.973   0.772 -0.0992  0.6709  0.2797
   12CHTO   C73 4796   4.429   8.982   0.888  0.2229 -0.4381  0.2294
   12CHTO  H145 4797   4.375   8.952   0.979  2.3478  1.6250  2.2387
   12CHTO   C74 4798   4.457   9.135   0.918 -0.1637 -0.2661  0.5279
   12CHTO  H146 4799   4.357   9.180   0.927 -0.1690 -0.4618  1.4878
   12CHTO   O54 4800   4.519   9.156   1.045 -0.4118  0.5236  0.7973
   12CHTO  H133 4801   4.612   9.160   1.036 -0.5171  0.2791 -0.5097
   12CHTO   C75 4802   4.538   9.188   0.796  0.0868 -0.8039  0.4050
   12CHTO  H147 4803   4.476   9.173   0.707 -3.3110 -1.5383  2.8076
   12CHTO   N13 4804   4.575   9.335   0.806  0.1430 -0.2989  0.0267
   12CHTO  H139 4805   4.537   9.385   0.718  2.1114 -1.1036 -1.3238
   12CHTO  H140 4806   4.530   9.379   0.894 -0.2399  2.1110 -1.3249
   12CHTO   C76 4807   4.673   9.106   0.770  0.1433  0.0300  0.6262
   12CHTO  H148 4808   4.738   9.110   0.858  0.6175 -0.4623  0.3029
   12CHTO   O49 4809   4.629   8.969   0.757 -0.6585 -0.3236 -0.2602
   12CHTO   C77 4810   4.566   8.912   0.869 -0.6158  0.7377  0.0201
   12CHTO  H149 4811   4.628   8.928   0.957 -1.2820 -1.0495  0.8487
   12CHTO   C88 4812   4.557   8.752   0.853  0.5826  0.5468 -0.7384
   12CHTO   O58 4813   4.697   8.680   0.849  0.0918 -0.3240  0.0086
   12CHTO  H136 4814   4.744   8.712   0.923 -0.9547  0.0322  0.5167
   12CHTO   O51 4815   4.750   9.132   0.626  0.1670  0.2867  0.2456
   12CHTO   C78 4816   4.875   9.039   0.615 -0.1495 -0.2879 -0.3290
   12CHTO  H150 4817   4.866   8.945   0.674  1.3341 -0.7365 -0.7899
   12CHTO   C80 4818   5.002   9.114   0.661  0.2521 -0.4032  0.2666
   12CHTO  H152 4819   5.019   9.199   0.592  0.9973 -2.1719 -1.7902
   12CHTO   O55 4820   4.975   9.140   0.800 -0.3638  0.3822  0.5169
   12CHTO  H134 4821   5.051   9.179   0.841 -0.5480  1.0917  0.1879
   12CHTO   C84 4822   5.136   9.030   0.643  0.5869  0.1018 -0.8438
   12CHTO  H156 4823   5.120   8.938   0.698  2.1215  0.4936  0.2714
   12CHTO   N15 4824   5.260   9.108   0.698  0.1870 -0.6827 -0.3276
   12CHTO  H143 4825   5.306   9.049   0.774  0.1106  1.8926  1.8063
   12CHTO  H144 4826   5.221   9.198   0.741  1.0073 -1.2749  1.7278
   12CHTO   C87 4827   5.137   8.988   0.498 -0.1703 -0.0127  0.1670
   12CHTO  H159 4828   5.134   9.086   0.451  0.7673  0.4761  1.0989
   12CHTO   O53 4829   5.008   8.909   0.460  0.0541 -0.4951 -0.1986
   12CHTO   C82 4830   4.893   8.990   0.466  0.3585 -0.5123 -0.3062
   12CHTO  H154 4831   4.900   9.079   0.402 -2.5391  0.0953  0.1307
   12CHTO   C89 4832   4.766   8.915   0.414 -0.5644 -0.2176 -0.6660
   12CHTO   O59 4833   4.791   8.875   0.279 -0.3051 -0.2750 -0.2144
   12CHTO  H137 4834   4.738   8.926   0.221 -1.9574  0.1195  1.5930
   12CHTO   O45 4835   5.292   8.886   0.470  0.3415  0.1245  0.5196
   12CHTO   C67 4836   5.348   8.911   0.337 -0.4992 -0.3745 -0.0260
   12CHTO  H124 4837   5.450   8.871   0.333 -0.2621  0.2092  0.0980
   12CHTO   C65 4838   5.261   8.839   0.230  0.2884 -0.0092 -0.1093
   12CHTO  H122 4839   5.164   8.812   0.271  0.7880 -2.5580 -0.5319
   12CHTO   O44 4840   5.338   8.721   0.194 -0.1505 -0.1467  0.4661
   12CHTO  H102 4841   5.323   8.654   0.258 -1.1201 -0.9886 -0.6170
   12CHTO   C63 4842   5.223   8.932   0.112 -0.4751 -0.3280 -0.4802
   12CHTO  H120 4843   5.156   9.008   0.152  2.4013  2.2990 -0.4422
   12CHTO   N11 4844   5.134   8.873   0.013 -0.0628  0.0874 -0.0060
   12CHTO  H108 4845   5.113   8.948  -0.060 -0.0748 -2.1813 -2.4009
   12CHTO  H109 4846   5.183   8.789  -0.031 -0.6620 -1.5657  2.3733
   12CHTO   C61 4847   5.353   9.005   0.065  0.1297  0.8023  0.1830
   12CHTO  H118 4848   5.328   9.071  -0.019 -2.3188 -1.7511 -1.1937
   12CHTO   O40 4849   5.418   9.081   0.166 -0.7215  0.2527 -0.1468
   12CHTO   C68 4850   5.373   9.063   0.305  0.0941 -0.2394  0.3843
   12CHTO  H125 4851   5.285   9.129   0.320  1.5567  1.1398  3.5280
   12CHTO   C72 4852   5.491   9.122   0.400  0.3893  0.4996 -0.3095
   12CHTO   O48 4853   5.479   9.261   0.417 -0.0828 -0.0685 -0.0387
   12CHTO  H105 4854   5.561   9.298   0.391 -0.1731  1.1937  1.4109
   12CHTO   O38 4855   5.444   8.903   0.012 -0.1277 -0.1526  0.4953
   12CHTO   C55 4856   5.556   8.951  -0.067 -0.2743  0.4663 -0.1967
   12CHTO  H112 4857   5.575   9.056  -0.040 -1.3004  1.6944 -3.9231
   12CHTO   C56 4858   5.527   8.936  -0.229  0.1107  0.6441 -0.1627
   12CHTO  H113 4859   5.483   8.837  -0.251  0.4931  0.3746  0.2866
   12CHTO   O42 4860   5.426   9.031  -0.271 -0.0811  0.5307 -0.1318
   12CHTO  H100 4861   5.463   9.116  -0.282  0.3856  0.6118  1.8366
   12CHTO   C57 4862   5.655   8.954  -0.327  0.5522 -0.3102 -0.4508
   12CHTO  H114 4863   5.661   9.063  -0.326 -1.2313 -0.1598  3.1077
   12CHTO   N10 4864   5.644   8.912  -0.466 -0.1824  0.2693  0.1241
   12CHTO  H106 4865   5.720   8.850  -0.512  0.5957  1.3176 -0.0198
   12CHTO  H107 4866   5.631   8.996  -0.532  1.1718 -1.1089 -1.9871
   12CHTO   C58 4867   5.782   8.895  -0.256 -0.5981  0.0128 -0.2939
   12CHTO  H115 4868   5.783   8.784  -0.262 -1.9126 -0.1419  1.8869
   12CHTO   O37 4869   5.790   8.925  -0.122  0.1908 -0.2805  0.5890
   12CHTO   C59 4870   5.685   8.869  -0.037  0.2439  0.6594 -0.3956
   12CHTO  H116 4871   5.671   8.762  -0.052 -3.4679  1.3580 -2.5634
   12CHTO   C70 4872   5.726   8.883   0.112  0.3946 -0.6236 -0.1882
   12CHTO   O46 4873   5.673   8.789   0.208 -0.0436 -0.0100 -0.3625
   12CHTO  H103 4874   5.656   8.707   0.165 -1.0122 -0.6699  1.2360
   12CHTO   O39 4875   5.914   8.956  -0.325  0.0176 -0.2534  0.1425
   12CHTO   C60 4876   6.026   8.865  -0.309 -0.2115 -0.0301  0.9495
   12CHTO  H117 4877   6.013   8.806  -0.218 -3.2596  0.6444  1.0332
   12CHTO   C62 4878   6.033   8.770  -0.432 -0.4252  0.9238 -0.0810
   12CHTO  H119 4879   5.949   8.697  -0.438 -1.2890  2.0141 -2.2732
   12CHTO   O43 4880   6.023   8.834  -0.562 -0.0910  0.0428  0.1838
   12CHTO  H101 4881   6.087   8.902  -0.562 -2.1981  2.0815  0.6666
   12CHTO   C66 4882   6.173   8.686  -0.425 -0.3111 -1.0475  0.0222
   12CHTO  H123 4883   6.171   8.622  -0.336  0.3390 -1.9071 -0.5721
   12CHTO   N12 4884   6.184   8.588  -0.536  0.5158 -0.1233 -0.2026
   12CHTO  H110 4885   6.095   8.579  -0.596  0.6541  1.0998 -0.6029
   12CHTO  H111 4886   6.220   8.491  -0.505  2.7436 -0.7793 -4.3817
   12CHTO   C69 4887   6.290   8.781  -0.420 -0.5511 -0.1544 -0.0014
   12CHTO  H126 4888   6.290   8.845  -0.511 -2.8222 -0.1031 -0.0083
   12CHTO   O41 4889   6.270   8.871  -0.293 -0.1792  0.3044 -0.6442
   12CHTO   C64 4890   6.151   8.955  -0.295 -0.0730  0.1782 -0.7852
   12CHTO  H121 4891   6.141   9.020  -0.385 -2.1646 -1.1771 -1.5621
   12CHTO   C71 4892   6.157   9.037  -0.158  0.0703  0.0975 -0.1112
   12CHTO   O47 4893   6.076   9.156  -0.163  0.1119 -0.4081  0.0729
   12CHTO  H104 4894   6.077   9.203  -0.081  0.8275  1.6387 -1.0736
   12CHTO   O34 4895   6.412   8.706  -0.401  0.3020  0.6191  0.3691
   12CHTO   C49 4896   6.559   8.730  -0.385  0.5211 -1.1459  0.3919
   12CHTO   H91 4897   6.587   8.768  -0.482  0.5239 -1.2566  0.3488
   12CHTO   C47 4898   6.641   8.606  -0.350 -0.0385 -0.0364  0.6322
   12CHTO   H89 4899   6.745   8.642  -0.360  0.2294 -0.6032  1.3724
   12CHTO   O33 4900   6.620   8.510  -0.453 -0.2804 -0.5909 -0.0004
   12CHTO   H70 4901   6.688   8.447  -0.464  0.3838  0.2745 -0.9290
   12CHTO   C45 4902   6.607   8.544  -0.208 -0.9041 -0.4131  0.1684
   12CHTO   H87 4903   6.540   8.458  -0.226  0.4897 -2.0373  2.4895
   12CHTO    N8 4904   6.730   8.500  -0.146  0.2175  0.0208 -0.3624
   12CHTO   H75 4905   6.739   8.554  -0.052 -0.6618  0.3322 -0.4571
   12CHTO   H76 4906   6.718   8.395  -0.125  1.9618  0.2004  1.7914
   12CHTO   C43 4907   6.525   8.654  -0.114  0.0299 -0.1490 -0.3636
   12CHTO   H85 4908   6.422   8.648  -0.148  0.1746  1.2783 -1.1031
   12CHTO   O29 4909   6.583   8.788  -0.132 -0.0002  0.3777  0.0430
   12CHTO   C50 4910   6.588   8.834  -0.269 -0.3568  0.7753 -0.3309
   12CHTO   H92 4911   6.515   8.914  -0.285 -3.0789 -1.2761  1.3381
   12CHTO   C54 4912   6.722   8.910  -0.284  0.3823  0.6415  0.1213
   12CHTO   O36 4913   6.738   8.967  -0.413 -0.0888  0.0072 -0.2162
   12CHTO   H72 4914   6.671   9.033  -0.413 -0.6573 -0.5595 -1.3964
   12CHTO   O27 4915   6.521   8.629   0.022 -0.0975 -0.1389 -0.2735
   12CHTO   C37 4916   6.459   8.674   0.147  0.2554 -0.3023  0.0374
   12CHTO   H79 4917   6.541   8.699   0.216 -0.0009 -2.0162  0.9854
   12CHTO   C38 4918   6.366   8.802   0.147 -0.8338 -0.4268  0.5029
   12CHTO   H80 4919   6.319   8.818   0.049  0.3280  1.5087  0.2411
   12CHTO   O31 4920   6.455   8.913   0.160 -0.2537  0.0434  0.4063
   12CHTO   H68 4921   6.528   8.922   0.101  1.3550  0.8440  2.4483
   12CHTO   C39 4922   6.267   8.805   0.271  0.1817  0.3915  0.2199
   12CHTO   H81 4923   6.324   8.835   0.359 -1.4072  3.2737  0.3108
   12CHTO    N7 4924   6.164   8.921   0.257 -0.1957 -0.4707  0.5444
   12CHTO   H73 4925   6.139   8.950   0.156  1.1608  0.1062  0.3660
   12CHTO   H74 4926   6.197   8.998   0.325 -0.8176  0.0005  0.3257
   12CHTO   C40 4927   6.196   8.675   0.303  0.3048 -0.3322  0.3050
   12CHTO   H82 4928   6.135   8.650   0.216 -1.3207  1.8273  0.7928
   12CHTO   O26 4929   6.301   8.584   0.322  0.5332  0.2547  0.0641
   12CHTO   C41 4930   6.389   8.548   0.204  0.0426 -0.3529  0.1806
   12CHTO   H83 4931   6.324   8.503   0.129 -0.4329  0.3429  0.1710
   12CHTO   C52 4932   6.495   8.442   0.241  0.2003 -0.4736 -0.0770
   12CHTO   O35 4933   6.433   8.318   0.296  0.2080  0.3202  0.0023
   12CHTO   H71 4934   6.419   8.260   0.224 -0.1993 -1.4491  1.4684
   12CHTO   O28 4935   6.116   8.680   0.425 -0.5318  0.3958  0.1794
   12CHTO   C42 4936   6.004   8.590   0.459  0.1996  0.5225 -0.4475
   12CHTO   H84 4937   6.013   8.570   0.565  0.6115 -1.4424 -0.8362
   12CHTO   C44 4938   6.003   8.446   0.384 -0.4490  1.0473 -0.1475
   12CHTO   H86 4939   6.000   8.465   0.277 -1.5728 -0.2163 -0.3581
   12CHTO   O32 4940   6.129   8.379   0.409  0.3997 -1.2113 -0.7289
   12CHTO   H69 4941   6.137   8.353   0.499  1.1938 -0.8310 -0.6865
   12CHTO   C48 4942   5.878   8.364   0.431  1.0399  0.2340  0.5337
   12CHTO   H90 4943   5.892   8.339   0.536  0.3827 -0.8880  0.3594
   12CHTO    N9 4944   5.864   8.233   0.355 -0.0094  0.3652  0.4419
   12CHTO   H77 4945   5.845   8.143   0.411 -0.3656 -0.4318 -0.9296
   12CHTO   H78 4946   5.784   8.246   0.283 -0.6394  1.0253  1.2474
   12CHTO   C51 4947   5.748   8.446   0.430  0.4229 -0.1960 -0.5645
   12CHTO   H93 4948   5.719   8.463   0.326  1.1310 -1.1746 -0.9232
   12CHTO   O30 4949   5.767   8.567   0.502 -0.6151 -0.1441 -0.0601
   12CHTO   C46 4950   5.867   8.667   0.444  0.2468  0.1531 -0.4433
   12CHTO   H88 4951   5.857   8.680   0.337 -0.0685  0.7446 -0.3461
   12CHTO   C53 4952   5.877   8.794   0.528  0.0031 -0.1974  0.5117
   12CHTO   O72 4953   5.760   8.878   0.491 -0.4356  0.4429 -0.0853
   12CHTO  H199 4954   5.777   8.964   0.457 -0.2756  1.2169  1.8806
   12CHTO   O22 4955   5.641   8.381   0.502 -0.0521  0.0906  0.3254
   12CHTO   C31 4956   5.495   8.400   0.489  0.4018 -0.0205  0.4517
   12CHTO   H59 4957   5.445   8.309   0.529  0.2598  0.0110  0.3428
   12CHTO   C29 4958   5.444   8.521   0.566  0.0097  0.9603 -0.0937
   12CHTO   H57 4959   5.484   8.609   0.512 -1.4661  1.4720 -0.3835
   12CHTO   O21 4960   5.494   8.516   0.700 -0.0947 -0.6078  0.0540
   12CHTO   H37 4961   5.519   8.601   0.731 -3.0929  0.7166 -0.9820
   12CHTO   C27 4962   5.283   8.526   0.579 -0.8555 -0.2592  0.2760
   12CHTO   H55 4963   5.252   8.432   0.626 -1.1683 -0.9997 -1.3552
   12CHTO    N5 4964   5.217   8.642   0.651  0.6522  0.1462 -0.7115
   12CHTO   H43 4965   5.294   8.680   0.716  1.5012 -0.2199 -1.4934
   12CHTO   H44 4966   5.185   8.725   0.589  1.1523 -1.1897 -2.8144
   12CHTO   C25 4967   5.227   8.514   0.430  0.3822 -0.6289  0.0453
   12CHTO   H53 4968   5.247   8.608   0.377 -1.4025 -1.6299 -2.5202
   12CHTO   O17 4969   5.301   8.421   0.346 -0.1782 -0.0637  0.1916
   12CHTO   C32 4970   5.448   8.414   0.347  0.4835 -0.6371  0.1301
   12CHTO   H60 4971   5.480   8.509   0.303 -0.3964 -1.3695 -2.1309
   12CHTO   C36 4972   5.492   8.287   0.266  0.6056 -0.0181 -0.3871
   12CHTO   O25 4973   5.415   8.277   0.144 -0.4563 -0.2153 -0.3877
   12CHTO   H40 4974   5.446   8.202   0.098  1.9145 -1.0782  2.4542
   12CHTO   O15 4975   5.094   8.467   0.430  0.0991 -0.4234  0.1398
   12CHTO   C19 4976   4.975   8.491   0.352 -0.1734 -0.0179  0.2397
   12CHTO   H47 4977   4.979   8.601   0.344  1.8247 -0.1352 -0.7687
   12CHTO   C20 4978   4.975   8.423   0.208 -0.5582 -0.5684 -0.6450
   12CHTO   H48 4979   4.961   8.314   0.217  0.4046 -0.8714 -2.5598
   12CHTO   O19 4980   5.092   8.445   0.132  0.7760  0.2251 -0.6943
   12CHTO   H35 4981   5.079   8.537   0.120  2.4429  0.5163 -0.3611
   12CHTO   C21 4982   4.847   8.475   0.132 -0.7055 -0.2095 -0.0899
   12CHTO   H49 4983   4.860   8.581   0.107 -0.4511 -0.1662  0.2183
   12CHTO    N4 4984   4.828   8.415  -0.000 -0.5966 -0.0949  0.3001
   12CHTO   H41 4985   4.902   8.338  -0.018  0.1222  0.7126 -0.1978
   12CHTO   H42 4986   4.847   8.495  -0.069  0.3414 -0.5243  0.0542
   12CHTO   C22 4987   4.714   8.452   0.215  0.3901  0.1501  0.3568
   12CHTO   H50 4988   4.711   8.344   0.224  1.7319  0.0317 -0.5428
   12CHTO   O14 4989   4.733   8.508   0.350 -0.5545 -0.5048  0.1100
   12CHTO   C23 4990   4.845   8.459   0.422  0.2473 -0.2351  0.3162
   12CHTO   H51 4991   4.832   8.350   0.431  1.9822 -0.5836 -1.2442
   12CHTO   C34 4992   4.827   8.521   0.562  0.4905 -0.8182 -0.0982
   12CHTO   O23 4993   4.750   8.431   0.638 -0.1104 -0.0978 -0.4643
   12CHTO   H38 4994   4.747   8.453   0.729  1.1306 -1.5654 -0.0330
   12CHTO   O16 4995   4.590   8.514   0.172  0.4263 -0.0881 -0.3403
   12CHTO   C24 4996   4.499   8.416   0.110 -0.5352  0.1478 -0.5925
   12CHTO   H52 4997   4.553   8.325   0.084  2.4213  1.5453  0.5218
   12CHTO   C26 4998   4.450   8.470  -0.026  0.1158 -0.3431 -0.0278
   12CHTO   H54 4999   4.377   8.553  -0.012 -0.4745 -0.6852 -1.0254
   12CHTO   O20 5000   4.566   8.522  -0.104  0.5863 -0.6290  0.1682
   12CHTO   H36 5001   4.620   8.449  -0.128  0.7225 -0.5859  0.3505
   12CHTO   C30 5002   4.377   8.352  -0.098 -0.4250 -0.0846  0.0521
   12CHTO   H58 5003   4.449   8.270  -0.111  1.2922  1.1766  1.4828
   12CHTO    N6 5004   4.328   8.389  -0.234  0.1000 -0.1205  0.4730
   12CHTO   H45 5005   4.405   8.389  -0.310 -2.0082  0.5816 -1.7267
   12CHTO   H46 5006   4.273   8.482  -0.237  0.6584  0.2784  1.9352
   12CHTO   C33 5007   4.256   8.294  -0.013  0.0091  0.1865  0.2854
   12CHTO   H61 5008   4.175   8.368  -0.014 -1.5820 -1.4965  1.3645
   12CHTO   O18 5009   4.302   8.272   0.120 -0.1378 -0.4696 -0.1083
   12CHTO   C28 5010   4.371   8.376   0.195 -0.2173 -0.2918 -0.4408
   12CHTO   H56 5011   4.302   8.461   0.199  1.3964  1.0192  0.3689
   12CHTO   C35 5012   4.411   8.318   0.335  0.1707 -0.7714 -0.6106
   12CHTO   O24 5013   4.494   8.202   0.329 -0.7616  0.3799 -0.0456
   12CHTO   H39 5014   4.443   8.135   0.369 -0.8363  0.0771 -0.6306
   12CHTO    O9 5015   4.213   8.171  -0.071 -0.1826 -0.1590  0.4353
   12CHTO   C13 5016   4.306   8.043  -0.041 -0.4330  0.5573  0.1527
   12CHTO   H26 5017   4.405   8.077  -0.006 -0.3818 -1.3454  1.9662
   12CHTO   C11 5018   4.315   7.944  -0.165  0.5588 -0.2531  0.2352
   12CHTO   H24 5019   4.382   7.996  -0.235  0.1230 -0.3023 -0.2174
   12CHTO    O8 5020   4.179   7.934  -0.228 -0.1759  0.5570 -0.0583
   12CHTO    H3 5021   4.187   7.873  -0.299 -0.7779 -0.7765  0.9967
   12CHTO    C9 5022   4.364   7.808  -0.116  0.4877  0.1605  0.5497
   12CHTO   H22 5023   4.462   7.832  -0.074  1.3781  1.4254 -2.1173
   12CHTO    N2 5024   4.398   7.723  -0.232 -0.4449 -0.8506  0.1691
   12CHTO   H10 5025   4.348   7.743  -0.326 -0.0546  0.3323  0.2143
   12CHTO   H11 5026   4.505   7.715  -0.241 -0.4670  0.3748 -1.2957
   12CHTO    C7 5027   4.277   7.740  -0.009  0.3122  0.3311 -0.8696
   12CHTO   H20 5028   4.326   7.642   0.011  2.1803  1.7313  1.5964
   12CHTO    O4 5029   4.272   7.835   0.105 -0.4844  0.5048 -0.0112
   12CHTO   C14 5030   4.237   7.970   0.078  0.0294  0.3381 -0.1106
   12CHTO   H27 5031   4.278   8.018   0.169 -1.3847  0.9019  0.2314
   12CHTO   C18 5032   4.086   7.982   0.088 -0.1541  0.4800  0.4281
   12CHTO   O13 5033   4.044   7.944   0.216  0.5633  0.0849 -0.3798
   12CHTO    H7 5034   4.006   8.015   0.264  0.2468 -1.7132  2.1816
   12CHTO    O2 5035   4.128   7.699  -0.047  0.3505  0.4211 -0.1347
   12CHTO    C1 5036   4.074   7.568  -0.054  0.1949  0.5332  0.4928
   12CHTO   H14 5037   4.135   7.504   0.013  0.2927 -0.6085 -0.6527
   12CHTO    C2 5038   4.076   7.504  -0.196  0.4974 -0.2825 -1.3058
   12CHTO   H15 5039   4.037   7.577  -0.268  1.7373  1.3155 -0.3862
   12CHTO    O6 5040   4.212   7.469  -0.234 -0.2174  0.6897  0.1033
   12CHTO    H1 5041   4.269   7.544  -0.233  2.0330 -0.9949  2.1266
   12CHTO    C3 5042   3.992   7.370  -0.202 -0.2729  0.1507  0.0296
   12CHTO   H16 5043   4.050   7.292  -0.150 -0.4757 -1.0861 -1.5457
   12CHTO    N1 5044   3.976   7.327  -0.347  0.1879 -0.1607 -0.2513
   12CHTO    H8 5045   3.933   7.393  -0.420 -2.3640 -0.5736  0.8143
   12CHTO    H9 5046   3.906   7.244  -0.344  0.1872 -0.1584 -0.1956
   12CHTO    C4 5047   3.851   7.373  -0.122 -0.1905 -0.0618  0.1535
   12CHTO   H17 5048   3.785   7.446  -0.170 -2.5120 -1.9109  0.4980
   12CHTO    O1 5049   3.877   7.428   0.006 -0.4302  0.3707 -0.3497
   12CHTO    C5 5050   3.927   7.568   0.005  0.0676  0.4334 -0.9465
   12CHTO   H18 5051   3.855   7.623  -0.055  0.1625 -0.1930 -1.6405
   12CHTO   C16 5052   3.923   7.627   0.149 -0.2412  0.2832 -0.2837
   12CHTO   O11 5053   3.997   7.545   0.243  0.6082 -0.8706  0.0407
   12CHTO    H5 5054   4.014   7.596   0.320 -1.3372  0.8057 -0.5853
   12CHTO    O3 5055   3.799   7.238  -0.115 -0.1531 -0.2200  0.1944
   12CHTO    C6 5056   3.733   7.196   0.009  0.4986 -0.3705 -0.3379
   12CHTO   H19 5057   3.785   7.229   0.099  1.3100  2.3558 -1.7552
   12CHTO    C8 5058   3.587   7.238   0.033 -0.0867 -0.6660 -0.5434
   12CHTO   H21 5059   3.531   7.209  -0.056  0.5347  1.6836 -1.7150
   12CHTO    O7 5060   3.581   7.380   0.036 -0.0891  0.3884  0.1997
   12CHTO    H2 5061   3.541   7.408  -0.044 -1.5801 -2.9076 -0.2665
   12CHTO   C12 5062   3.524   7.165   0.166  0.3286  0.1719  0.7864
   12CHTO   H25 5063   3.593   7.197   0.247 -1.9099  0.0641  2.8293
   12CHTO    N3 5064   3.384   7.202   0.211  0.0037 -0.3238  0.4368
   12CHTO   H12 5065   3.343   7.136   0.286  1.6794  3.0726  4.6186
   12CHTO   H13 5066   3.316   7.204   0.128 -0.5425 -2.5833  0.8043
   12CHTO   C15 5067   3.537   7.006   0.143 -0.5618 -0.0811 -0.5161
   12CHTO   H28 5068   3.468   6.963   0.070 -1.1358  2.4775 -1.5733
   12CHTO   O10 5069   3.524   6.935   0.282 -0.5623  0.0312 -0.3822
   12CHTO    H4 5070   3.448   6.967   0.328 -0.2501 -0.0982  0.2262
   12CHTO    O5 5071   3.676   6.976   0.122 -0.5332 -0.5205 -0.0829
   12CHTO   C10 5072   3.742   7.039   0.014 -0.0483  0.4455 -0.0587
   12CHTO   H23 5073   3.706   7.003  -0.082  0.4764  3.1513 -1.3284
   12CHTO   C17 5074   3.885   6.987   0.032 -0.0431  0.2269 -0.4156
   12CHTO   O12 5075   3.974   7.009  -0.075 -0.1123 -0.0221  0.3037
   12CHTO    H6 5076   3.981   7.101  -0.095 -2.3436  0.2530  0.6001
   13CHTO  H203 5077   8.255   4.056   1.497 -0.5841  2.8107 -0.7528
   13CHTO   O82 5078   8.270   4.027   1.409 -0.3482 -0.4514  0.3163
   13CHTO  C123 5079   8.189   4.117   1.329 -0.1627  0.2089  0.4296
   13CHTO  H227 5080   8.199   4.086   1.223 -2.3032  0.7863  0.0348
   13CHTO   O77 5081   8.051   4.104   1.370  0.0159  0.2991 -0.3943
   13CHTO  C118 5082   7.967   4.199   1.294  1.0759 -0.1681  0.2358
   13CHTO  H222 5083   7.981   4.159   1.192  0.4469 -2.0938  0.8892
   13CHTO  C125 5084   7.819   4.173   1.343 -0.4382  0.2076  0.1636
   13CHTO   O84 5085   7.806   4.215   1.481 -0.0610  0.1017 -0.0814
   13CHTO  H205 5086   7.713   4.211   1.496 -0.2954 -0.3460 -1.6301
   13CHTO  C114 5087   8.004   4.350   1.290  0.2168 -0.2520  0.0178
   13CHTO  H218 5088   7.983   4.394   1.388 -0.6859 -1.7117  0.4849
   13CHTO  C116 5089   8.153   4.370   1.266 -0.5950  0.8062  0.6730
   13CHTO  H220 5090   8.173   4.346   1.159  1.6048  1.4742  0.9156
   13CHTO   O79 5091   8.181   4.508   1.299  0.1332  0.0328 -0.4723
   13CHTO  H201 5092   8.226   4.555   1.232 -1.0563  1.9308  0.0397
   13CHTO  C120 5093   8.238   4.272   1.351  0.1830 -0.5328 -0.1382
   13CHTO  H224 5094   8.216   4.303   1.455  1.0776 -1.6297  0.3887
   13CHTO   N21 5095   8.384   4.293   1.330  0.6578  0.0291 -0.6991
   13CHTO  H211 5096   8.409   4.349   1.241  0.6108 -0.3612 -0.9591
   13CHTO  H212 5097   8.447   4.207   1.347  1.4009  0.9368  1.2945
   13CHTO   O75 5098   7.913   4.407   1.189  0.2299 -0.2557 -0.3272
   13CHTO  C112 5099   7.808   4.523   1.273 -0.3177 -0.0253  0.1197
   13CHTO  H216 5100   7.870   4.591   1.333  0.7124 -1.9559  1.2684
   13CHTO   O73 5101   7.713   4.451   1.348  0.0515 -0.5240 -0.1681
   13CHTO  C113 5102   7.632   4.540   1.425 -0.5308 -0.2942  0.4624
   13CHTO  H217 5103   7.704   4.610   1.473 -0.9407 -0.8750  1.9418
   13CHTO  C124 5104   7.557   4.456   1.529  0.0063 -0.3990 -0.0599
   13CHTO   O83 5105   7.609   4.422   1.653  0.4286  0.9569  0.1365
   13CHTO  H204 5106   7.701   4.408   1.656  0.2242 -0.2346  0.8687
   13CHTO  C109 5107   7.534   4.617   1.341  0.2786 -0.3491  0.6554
   13CHTO  H213 5108   7.454   4.550   1.305  0.5762 -0.7011  0.6484
   13CHTO  C110 5109   7.611   4.681   1.222 -1.2885  0.0540  0.4762
   13CHTO  H214 5110   7.645   4.780   1.253 -0.3116 -0.1356  0.0275
   13CHTO   O78 5111   7.510   4.707   1.118  0.2910  0.0956 -0.3764
   13CHTO  H200 5112   7.476   4.794   1.113  1.6387  0.6950  0.4622
   13CHTO  C111 5113   7.729   4.601   1.165 -0.3061  0.3924  0.0730
   13CHTO  H215 5114   7.684   4.526   1.097  0.9761  0.4244 -0.8345
   13CHTO   N19 5115   7.821   4.683   1.078 -0.5160 -0.5286  0.1740
   13CHTO  H207 5116   7.817   4.789   1.100 -3.0222  0.0356 -2.6030
   13CHTO  H208 5117   7.807   4.667   0.972 -0.0255 -0.1056  0.0415
   13CHTO   O74 5118   7.457   4.721   1.420 -0.8190  0.2185  0.0036
   13CHTO  C115 5119   7.312   4.802   1.369  0.3849  0.2946  0.1381
   13CHTO  H219 5120   7.323   4.910   1.361 -0.4165  0.5828  2.3022
   13CHTO   O76 5121   7.265   4.744   1.220  0.3484 -0.0751 -0.0234
   13CHTO  C122 5122   7.175   4.627   1.231  0.2560  0.1520 -0.4889
   13CHTO  H226 5123   7.243   4.546   1.256  0.4410  0.4661  0.0270
   13CHTO  C126 5124   7.119   4.604   1.088 -0.1419  0.2115  0.3097
   13CHTO   O85 5125   7.043   4.484   1.084  0.1952  0.0701  0.1457
   13CHTO  H206 5126   6.987   4.487   1.008  1.2936  2.2594 -0.6264
   13CHTO  C121 5127   7.053   4.634   1.339 -0.0448 -0.7702 -0.5165
   13CHTO  H225 5128   6.960   4.638   1.278 -0.3980 -0.8838  0.0091
   13CHTO   O81 5129   7.046   4.512   1.412 -0.2895 -0.0472  0.0266
   13CHTO  H202 5130   7.034   4.433   1.363  2.6975 -0.3664 -0.3317
   13CHTO  C119 5131   7.058   4.752   1.439 -0.5601  0.2096  0.2686
   13CHTO  H223 5132   7.030   4.842   1.384 -0.2699  0.5022  0.5947
   13CHTO  C117 5133   7.208   4.773   1.486 -0.2644  0.2621 -0.1785
   13CHTO  H221 5134   7.255   4.691   1.540  0.3749  2.2937  2.4801
   13CHTO   N20 5135   7.218   4.885   1.584  0.3930  0.0933 -0.7086
   13CHTO  H209 5136   7.140   4.887   1.658 -0.0902 -0.4368 -1.1979
   13CHTO  H210 5137   7.310   4.883   1.640  2.3154  1.3184 -3.6582
   13CHTO   O80 5138   6.938   4.750   1.549  0.1529  0.5268  0.3267
   13CHTO  C103 5139   6.809   4.805   1.504  0.4769  0.1819 -0.4015
   13CHTO  H190 5140   6.757   4.847   1.590  0.9744 -0.8771  0.4253
   13CHTO  C101 5141   6.800   4.916   1.385 -0.1779 -0.6962 -0.0412
   13CHTO  H188 5142   6.853   4.873   1.300  0.1184 -2.5321  1.0460
   13CHTO   O68 5143   6.876   5.051   1.424 -0.3339 -0.2662 -0.5369
   13CHTO  H168 5144   6.812   5.112   1.456  0.9384  0.5043  0.6221
   13CHTO   C99 5145   6.641   4.942   1.354  0.4955 -0.3940  0.3322
   13CHTO  H186 5146   6.584   4.980   1.441 -2.0073  2.0761 -2.3149
   13CHTO   N17 5147   6.608   5.032   1.237 -0.4578 -0.5751 -0.1845
   13CHTO  H174 5148   6.634   4.975   1.149  1.4822 -0.1882  0.1076
   13CHTO  H175 5149   6.505   5.062   1.234 -0.3740 -0.3848 -1.7591
   13CHTO   C97 5150   6.575   4.807   1.326 -0.1537  0.6004 -0.4836
   13CHTO  H184 5151   6.626   4.773   1.235 -0.1606  2.8995 -1.3628
   13CHTO   O64 5152   6.591   4.711   1.438  0.2872  0.3365  0.4625
   13CHTO  C104 5153   6.728   4.678   1.467 -0.0637 -0.2055  0.6331
   13CHTO  H191 5154   6.775   4.632   1.380  0.4769 -0.2969  0.9773
   13CHTO  C108 5155   6.711   4.562   1.571 -0.3206 -0.2086  0.0612
   13CHTO   O71 5156   6.687   4.434   1.505  0.1575  0.5370 -0.3047
   13CHTO  H171 5157   6.702   4.359   1.560 -0.0301 -0.2836 -1.3680
   13CHTO   O62 5158   6.434   4.805   1.332  0.0212  0.4106  0.7371
   13CHTO   C91 5159   6.363   4.704   1.249 -0.7130 -0.6799 -1.2901
   13CHTO  H178 5160   6.438   4.638   1.206 -2.1157 -2.4803 -1.0558
   13CHTO   C92 5161   6.292   4.785   1.128 -0.2415  0.1287 -0.5517
   13CHTO  H179 5162   6.237   4.871   1.170  0.8575  0.8516 -0.5625
   13CHTO   O66 5163   6.410   4.838   1.055 -0.0588  0.7038  0.4887
   13CHTO  H166 5164   6.406   4.931   1.042  2.1060  1.0804  2.2628
   13CHTO   C93 5165   6.193   4.705   1.035  0.3845 -0.0188  0.6158
   13CHTO  H180 5166   6.253   4.632   0.980  0.4876  1.1618 -0.8422
   13CHTO   N16 5167   6.130   4.776   0.921 -0.1272 -0.3601 -0.0509
   13CHTO  H172 5168   6.202   4.853   0.899  0.6161 -1.1837 -0.5486
   13CHTO  H173 5169   6.037   4.816   0.957 -0.1427 -0.1269 -0.3432
   13CHTO   C94 5170   6.094   4.625   1.122 -0.0446  0.0788 -1.0370
   13CHTO  H181 5171   6.023   4.691   1.173  0.3751  1.0036 -1.6246
   13CHTO   O61 5172   6.164   4.551   1.223 -0.0775 -0.2625  0.0658
   13CHTO   C95 5173   6.242   4.623   1.320 -1.1610 -0.5456  0.1247
   13CHTO  H182 5174   6.176   4.690   1.374 -2.0371 -0.7116 -0.7170
   13CHTO  C106 5175   6.289   4.520   1.433 -0.1445  0.3566 -0.1646
   13CHTO   O69 5176   6.386   4.430   1.374  0.2041 -0.4341 -0.0933
   13CHTO  H169 5177   6.448   4.427   1.444 -1.1407  2.6096  1.3197
   13CHTO   O63 5178   6.014   4.520   1.035 -0.4292 -0.6752  0.0196
   13CHTO   C96 5179   5.876   4.474   1.084 -0.6637 -0.5710  0.0471
   13CHTO  H183 5180   5.839   4.408   1.006  0.6864  0.3852 -1.4487
   13CHTO   C98 5181   5.776   4.590   1.102 -0.4814  0.8322  0.0045
   13CHTO  H185 5182   5.821   4.678   1.149 -0.9000  0.3282  1.3837
   13CHTO   O67 5183   5.750   4.626   0.963 -0.1280  0.6950 -0.6502
   13CHTO  H167 5184   5.711   4.711   0.963 -0.1797  0.6826  0.6606
   13CHTO  C102 5185   5.635   4.550   1.169 -0.5481  0.5258 -0.4818
   13CHTO  H189 5186   5.597   4.466   1.108 -0.9606  0.8982 -0.7381
   13CHTO   N18 5187   5.524   4.653   1.172 -0.2588 -0.5714  0.0239
   13CHTO  H176 5188   5.501   4.677   1.070  0.2799 -0.4615 -0.0689
   13CHTO  H177 5189   5.536   4.742   1.231  2.1067 -0.1872 -1.0144
   13CHTO  C105 5190   5.675   4.484   1.304 -0.1776  0.3076 -0.3436
   13CHTO  H192 5191   5.737   4.553   1.362  0.4131  0.2539 -0.9131
   13CHTO   O65 5192   5.743   4.366   1.279 -0.5009  0.5368  0.1083
   13CHTO  C100 5193   5.872   4.391   1.224 -0.5299 -0.7057 -0.1928
   13CHTO  H187 5194   5.931   4.455   1.292  1.4316 -0.3576 -2.1649
   13CHTO  C107 5195   5.947   4.249   1.202 -0.3437  0.1116 -0.4756
   13CHTO   O70 5196   5.861   4.149   1.144  0.2248  0.0176 -0.7887
   13CHTO  H170 5197   5.806   4.186   1.077 -0.2877  0.9447  0.1425
   13CHTO   O57 5198   5.542   4.464   1.407 -0.2857 -0.1338 -0.2681
   13CHTO   C85 5199   5.460   4.350   1.385 -0.7553 -0.2587 -0.2437
   13CHTO  H157 5200   5.508   4.279   1.314  0.9413 -1.3064  1.8795
   13CHTO   C83 5201   5.334   4.399   1.305 -0.1419  1.2038  0.2742
   13CHTO  H155 5202   5.372   4.427   1.207  2.3970  0.1100  0.8864
   13CHTO   O56 5203   5.267   4.515   1.362 -0.0268  0.2075 -0.1735
   13CHTO  H135 5204   5.244   4.495   1.451 -1.9626  2.7042 -0.0604
   13CHTO   C81 5205   5.240   4.278   1.281 -0.3144  0.0691 -0.6143
   13CHTO  H153 5206   5.298   4.199   1.234  0.2819 -1.1938  2.1573
   13CHTO   N14 5207   5.129   4.306   1.187  0.2054 -0.8130  0.6316
   13CHTO  H141 5208   5.038   4.250   1.198 -0.2291 -0.5161 -1.1848
   13CHTO  H142 5209   5.165   4.303   1.086  1.2278  1.9948  0.8845
   13CHTO   C79 5210   5.188   4.227   1.420 -0.4664 -0.0216  0.3470
   13CHTO  H151 5211   5.130   4.137   1.400 -0.4035  0.0510 -0.1590
   13CHTO   O52 5212   5.299   4.182   1.499  0.0140 -0.1280  0.1178
   13CHTO   C86 5213   5.417   4.276   1.513  0.5332  0.4250  0.0666
   13CHTO  H158 5214   5.375   4.352   1.582  2.4622  2.9904 -1.5249
   13CHTO   C90 5215   5.535   4.204   1.583  0.3100  0.0118 -0.5585
   13CHTO   O60 5216   5.593   4.107   1.497  0.0806  0.3667  0.3014
   13CHTO  H138 5217   5.678   4.138   1.470  1.1283  0.5866  3.6138
   13CHTO   O50 5218   5.101   4.318   1.488 -0.2325 -0.1407  0.6652
   13CHTO   C73 5219   4.963   4.319   1.531 -0.5287 -0.1497  0.4115
   13CHTO  H145 5220   4.911   4.235   1.481  0.1421 -0.3588  0.0634
   13CHTO   C74 5221   4.891   4.458   1.498  0.0695 -0.1961  0.0508
   13CHTO  H146 5222   4.899   4.469   1.389  1.6818 -1.0179  0.0777
   13CHTO   O54 5223   4.751   4.444   1.532  0.5203 -0.3209  0.0326
   13CHTO  H133 5224   4.715   4.530   1.520 -0.1972 -0.7802 -1.2399
   13CHTO   C75 5225   4.971   4.569   1.572  0.5744  0.1697 -0.3956
   13CHTO  H147 5226   5.077   4.562   1.542  0.2238 -0.6312 -1.5033
   13CHTO   N13 5227   4.929   4.706   1.548  0.3532 -0.3415  0.3893
   13CHTO  H139 5228   4.830   4.714   1.589  0.6619  0.3952  0.9935
   13CHTO  H140 5229   4.992   4.771   1.606 -1.8594  1.1593  1.1413
   13CHTO   C76 5230   4.970   4.541   1.722 -0.0906 -0.0597 -0.4934
   13CHTO  H148 5231   4.869   4.526   1.761  0.8651 -1.3864  1.5243
   13CHTO   O49 5232   5.025   4.405   1.745  0.4704 -0.1348 -0.8629
   13CHTO   C77 5233   4.949   4.301   1.686  0.2451  0.1613  0.1402
   13CHTO  H149 5234   4.844   4.306   1.715  0.4515  0.1169  0.8974
   13CHTO   C88 5235   5.013   4.175   1.747  0.0791  0.1409  0.0909
   13CHTO   O58 5236   4.983   4.048   1.666  0.0299  0.0999 -0.0675
   13CHTO  H136 5237   4.896   4.042   1.630  0.5193  0.3104 -1.3073
   13CHTO   O51 5238   5.065   4.655   1.814 -0.2107  0.2417  0.6128
   13CHTO   C78 5239   5.220   4.709   1.786 -0.4040  0.2300  0.2253
   13CHTO  H150 5240   5.244   4.761   1.881 -2.2100 -0.2886  0.9861
   13CHTO   C80 5241   5.241   4.812   1.671  0.0280  0.2320  0.3012
   13CHTO  H152 5242   5.187   4.775   1.581  0.8967  0.8489 -0.4848
   13CHTO   O55 5243   5.163   4.922   1.700 -0.1000 -0.3204 -0.1329
   13CHTO  H134 5244   5.167   4.974   1.622 -0.8095  0.2658  0.2145
   13CHTO   C84 5245   5.395   4.845   1.637  0.2698 -0.2129 -0.3664
   13CHTO  H156 5246   5.433   4.893   1.728 -0.8957  0.9426 -0.4755
   13CHTO   N15 5247   5.428   4.943   1.521  0.2786 -0.1559 -0.0243
   13CHTO  H143 5248   5.396   5.040   1.554  0.1945 -0.5563  1.0660
   13CHTO  H144 5249   5.376   4.918   1.431  0.4948 -0.9418  0.0678
   13CHTO   C87 5250   5.488   4.726   1.625  0.1885 -0.3771  0.0729
   13CHTO  H159 5251   5.469   4.683   1.527 -2.2136 -0.0415  0.3592
   13CHTO   O53 5252   5.450   4.621   1.742 -0.2511 -0.5415 -0.6327
   13CHTO   C82 5253   5.316   4.586   1.774 -0.0418  0.6330  0.0968
   13CHTO  H154 5254   5.276   4.525   1.693 -0.6447 -1.5162  1.9620
   13CHTO   C89 5255   5.314   4.513   1.903  0.1448 -0.4254  0.2703
   13CHTO   O59 5256   5.395   4.397   1.906 -0.3355 -0.4640  0.3233
   13CHTO  H137 5257   5.393   4.368   1.995  0.4437 -3.0194 -0.4542
   13CHTO   O45 5258   5.657   4.777   1.636  0.1887 -0.3936 -0.5243
   13CHTO   C67 5259   5.741   4.663   1.640 -0.1942  0.4118  0.8339
   13CHTO  H124 5260   5.690   4.574   1.603  0.3046 -0.4966  2.2668
   13CHTO   C65 5261   5.870   4.700   1.554 -0.0244 -0.5042  0.0469
   13CHTO  H122 5262   5.830   4.722   1.455 -0.6441  0.5126  0.5134
   13CHTO   O44 5263   5.954   4.584   1.539  0.1257 -0.3523 -0.5683
   13CHTO  H102 5264   5.978   4.550   1.624  1.9572 -0.3874 -1.0827
   13CHTO   C63 5265   5.945   4.834   1.618  0.3096  0.4804 -0.8048
   13CHTO  H120 5266   5.878   4.919   1.606  0.4690  0.7148 -0.0464
   13CHTO   N11 5267   6.056   4.877   1.537  0.2505 -0.0352  0.8467
   13CHTO  H108 5268   6.086   4.974   1.572 -0.0567  0.2781  0.2644
   13CHTO  H109 5269   6.139   4.811   1.548  0.5252 -0.1146 -1.3548
   13CHTO   C61 5270   5.975   4.809   1.772  0.0400  1.1110  0.3997
   13CHTO  H118 5271   5.989   4.907   1.819  1.8957  2.0751 -2.0892
   13CHTO   O40 5272   5.865   4.740   1.842  1.0829  0.0648 -0.1623
   13CHTO   C68 5273   5.779   4.633   1.791 -0.7298  0.3187  0.2146
   13CHTO  H125 5274   5.683   4.642   1.847  0.0413  1.4523  1.3947
   13CHTO   C72 5275   5.843   4.489   1.820  0.6806 -0.0606  0.0672
   13CHTO   O48 5276   5.749   4.384   1.784 -0.1478  0.3546  0.0970
   13CHTO  H105 5277   5.662   4.402   1.814  0.1106 -0.5559  1.3884
   13CHTO   O38 5278   6.082   4.715   1.800 -0.0402  0.2960  0.7190
   13CHTO   C55 5279   6.180   4.724   1.903 -0.3792  0.8821 -0.5620
   13CHTO  H112 5280   6.238   4.630   1.899  1.2881  1.8827 -0.6358
   13CHTO   C56 5281   6.108   4.743   2.044  0.4135  0.5576  0.0488
   13CHTO  H113 5282   6.053   4.838   2.034  0.1842  0.8798  3.5287
   13CHTO   O42 5283   6.014   4.628   2.062 -0.0919  0.2735 -0.2550
   13CHTO  H100 5284   5.989   4.616   2.152 -2.6898 -1.6929 -1.1820
   13CHTO   C57 5285   6.211   4.760   2.157  0.7687  0.0714 -0.7389
   13CHTO  H114 5286   6.256   4.660   2.162 -0.4314 -0.4116  0.8767
   13CHTO   N10 5287   6.159   4.791   2.291 -0.1656  0.4884 -0.6326
   13CHTO  H106 5288   6.229   4.766   2.369 -1.1623 -2.0474 -0.5030
   13CHTO  H107 5289   6.062   4.748   2.313 -1.1826  1.8735 -2.2585
   13CHTO   C58 5290   6.317   4.869   2.116  0.5491  0.4154  0.5068
   13CHTO  H115 5291   6.272   4.970   2.123 -1.9607 -0.6639  0.2961
   13CHTO   O37 5292   6.369   4.847   1.982  0.1685 -0.7169  0.8005
   13CHTO   C59 5293   6.276   4.838   1.876 -0.0016  0.4327  0.2302
   13CHTO  H116 5294   6.233   4.937   1.860  1.7177  0.9334 -1.4240
   13CHTO   C70 5295   6.362   4.811   1.750  0.0538  0.0490  0.4347
   13CHTO   O46 5296   6.483   4.884   1.734  0.1004  0.0171 -0.2220
   13CHTO  H103 5297   6.487   4.953   1.797  0.8631  0.9020 -1.2228
   13CHTO   O39 5298   6.451   4.848   2.213 -0.5654 -0.0536 -0.4069
   13CHTO   C60 5299   6.537   4.964   2.215 -0.0552 -0.5515 -0.3125
   13CHTO  H117 5300   6.538   5.010   2.117 -2.0764 -1.6034 -0.8539
   13CHTO   C62 5301   6.482   5.057   2.325 -0.2241  0.1773  0.1738
   13CHTO  H119 5302   6.378   5.069   2.289 -0.5391  0.4273  1.1652
   13CHTO   O43 5303   6.488   4.985   2.451  0.1919 -0.2566  1.2852
   13CHTO  H101 5304   6.474   5.052   2.515  3.0882  1.9524 -0.2775
   13CHTO   C66 5305   6.567   5.192   2.332 -0.2492 -0.3561  0.0177
   13CHTO  H123 5306   6.558   5.234   2.232 -1.8007 -1.2397 -0.2319
   13CHTO   N12 5307   6.514   5.285   2.436 -0.5257  0.0055 -0.6043
   13CHTO  H110 5308   6.520   5.230   2.529  2.8728  0.5289 -0.4421
   13CHTO  H111 5309   6.578   5.371   2.434 -1.9836  1.1832  1.6719
   13CHTO   C69 5310   6.714   5.166   2.359 -0.4435  0.5584 -0.4612
   13CHTO  H126 5311   6.726   5.111   2.455  0.2381  0.4935 -0.5804
   13CHTO   O41 5312   6.762   5.061   2.248 -0.7095 -0.6429  0.1362
   13CHTO   C64 5313   6.684   4.930   2.252  0.8480  0.0408  0.0548
   13CHTO  H121 5314   6.689   4.879   2.350 -4.9443 -0.1115  0.4052
   13CHTO   C71 5315   6.741   4.842   2.139 -0.5964 -0.5433  0.2889
   13CHTO   O47 5316   6.683   4.710   2.149  0.0853  0.2773  0.2647
   13CHTO  H104 5317   6.746   4.642   2.148 -2.0204 -1.7367  0.3174
   13CHTO   O34 5318   6.815   5.298   2.357 -0.0224  0.3709 -0.2038
   13CHTO   C49 5319   6.940   5.393   2.408  0.1367  0.7045  0.2156
   13CHTO   H91 5320   7.027   5.328   2.403 -0.8534 -0.6038 -0.5142
   13CHTO   C47 5321   6.908   5.431   2.558 -0.0528  0.5162 -0.1171
   13CHTO   H89 5322   7.002   5.480   2.593 -0.0735  0.2500  0.3124
   13CHTO   O33 5323   6.888   5.321   2.639 -0.7158  0.1238  0.3334
   13CHTO   H70 5324   6.951   5.257   2.611  0.0644 -0.0408  2.3678
   13CHTO   C45 5325   6.787   5.536   2.567  0.5497  0.1369  0.1804
   13CHTO   H87 5326   6.690   5.484   2.578  2.0108 -2.4658  1.3252
   13CHTO    N8 5327   6.813   5.625   2.681  0.0472  0.5204  0.5925
   13CHTO   H75 5328   6.717   5.656   2.719  0.1703  0.2601  1.1182
   13CHTO   H76 5329   6.868   5.712   2.648  2.0727 -1.0837 -0.3494
   13CHTO   C43 5330   6.757   5.609   2.433  0.3923 -0.2061  0.1136
   13CHTO   H85 5331   6.698   5.538   2.374  0.7056 -0.3093 -0.0758
   13CHTO   O29 5332   6.879   5.643   2.371 -0.2535 -0.3530 -1.0303
   13CHTO   C50 5333   6.953   5.529   2.325 -0.0564  0.0086 -0.0029
   13CHTO   H92 5334   6.908   5.512   2.226  0.8148 -1.4397 -0.1628
   13CHTO   C54 5335   7.102   5.569   2.307  0.7031  0.3469  0.0473
   13CHTO   O36 5336   7.141   5.675   2.215  0.6668  0.3583  0.1429
   13CHTO   H72 5337   7.183   5.632   2.143  0.9015 -1.1589  1.1492
   13CHTO   O27 5338   6.670   5.723   2.436 -0.1638 -0.2115  0.4580
   13CHTO   C37 5339   6.644   5.862   2.454 -0.2245  0.2558 -0.0904
   13CHTO   H79 5340   6.640   5.874   2.563  0.8823  0.2192 -0.0473
   13CHTO   C38 5341   6.757   5.954   2.395  0.6996  0.0221  0.6156
   13CHTO   H80 5342   6.788   5.923   2.294 -1.3254  1.7868 -0.5895
   13CHTO   O31 5343   6.869   5.939   2.480 -0.2855  0.5823  0.0010
   13CHTO   H68 5344   6.901   5.851   2.490  4.8807  2.2146 -0.5126
   13CHTO   C39 5345   6.720   6.111   2.400  0.0062 -0.3593 -0.6378
   13CHTO   H81 5346   6.736   6.130   2.506  1.0912 -1.3706 -0.6094
   13CHTO    N7 5347   6.817   6.213   2.331 -0.3377 -0.1619  0.3819
   13CHTO   H73 5348   6.907   6.164   2.299  0.5167  0.0396  2.4199
   13CHTO   H74 5349   6.774   6.253   2.240  0.4587  1.7613  0.8267
   13CHTO   C40 5350   6.567   6.140   2.365 -0.5391  0.1773  0.0582
   13CHTO   H82 5351   6.552   6.133   2.257 -1.0643 -0.1320  0.1514
   13CHTO   O26 5352   6.484   6.044   2.436 -0.3088 -0.3526  0.0157
   13CHTO   C41 5353   6.504   5.912   2.409  0.0951 -0.7220 -0.1385
   13CHTO   H83 5354   6.490   5.892   2.302 -3.4901 -3.1471  0.6903
   13CHTO   C52 5355   6.400   5.827   2.488 -0.3305 -0.9292  0.3275
   13CHTO   O35 5356   6.269   5.850   2.444  0.4676 -0.0410 -0.3760
   13CHTO   H71 5357   6.241   5.939   2.455  1.1549 -0.0691  1.7485
   13CHTO   O28 5358   6.538   6.272   2.402 -0.1830 -0.3875  0.2572
   13CHTO   C42 5359   6.452   6.363   2.318 -0.3606  0.4002 -0.0499
   13CHTO   H84 5360   6.442   6.319   2.218 -2.7807  1.7604 -0.4389
   13CHTO   C44 5361   6.523   6.500   2.297  0.4173 -0.1354 -0.1174
   13CHTO   H86 5362   6.545   6.538   2.397 -2.7585 -0.6442  0.8516
   13CHTO   O32 5363   6.646   6.475   2.226 -0.1982 -0.3369  0.1196
   13CHTO   H69 5364   6.716   6.520   2.270  0.8670  1.2069 -3.0038
   13CHTO   C48 5365   6.428   6.611   2.231 -0.3473  0.2124 -0.6083
   13CHTO   H90 5366   6.429   6.582   2.126  0.2825 -2.4820  0.1044
   13CHTO    N9 5367   6.489   6.754   2.244  0.1818  0.5244 -0.1453
   13CHTO   H77 5368   6.579   6.746   2.304  0.0852  2.9100  0.3578
   13CHTO   H78 5369   6.503   6.794   2.145 -0.8518 -3.1398 -1.8895
   13CHTO   C51 5370   6.286   6.607   2.301  0.3863 -0.2567 -0.2810
   13CHTO   H93 5371   6.291   6.638   2.405  1.7750 -2.6182  0.4021
   13CHTO   O30 5372   6.234   6.474   2.290  0.3208 -0.8947  0.3330
   13CHTO   C46 5373   6.310   6.375   2.375  0.7762 -0.3755 -0.3212
   13CHTO   H88 5374   6.300   6.412   2.477  1.1644  2.7024 -1.3354
   13CHTO   C53 5375   6.240   6.235   2.361  0.2376  0.6856 -0.2968
   13CHTO   O72 5376   6.222   6.196   2.223 -0.2133  0.0193  0.1719
   13CHTO  H199 5377   6.139   6.231   2.198  0.1657  0.2405 -0.7849
   13CHTO   O22 5378   6.192   6.695   2.230  0.3241  0.0715 -1.2091
   13CHTO   C31 5379   6.048   6.717   2.273  0.3637 -0.3829 -0.1680
   13CHTO   H59 5380   6.014   6.813   2.228 -4.3628  0.3873  4.6030
   13CHTO   C29 5381   5.949   6.608   2.227 -0.2869  0.1732 -0.0783
   13CHTO   H57 5382   5.980   6.520   2.285 -1.1637  0.5670  1.0028
   13CHTO   O21 5383   5.980   6.579   2.094 -0.1958  0.0508  0.4939
   13CHTO   H37 5384   5.959   6.655   2.043 -0.8078  0.1712  0.9226
   13CHTO   C27 5385   5.798   6.628   2.255  0.2097 -0.2968 -0.6298
   13CHTO   H55 5386   5.766   6.716   2.197 -0.0305  0.4406  0.5992
   13CHTO    N5 5387   5.706   6.518   2.219  0.3679 -0.3083  0.1210
   13CHTO   H43 5388   5.641   6.492   2.302  0.7274  0.1837  0.5632
   13CHTO   H44 5389   5.754   6.424   2.196  0.0537 -0.5748  0.5281
   13CHTO   C25 5390   5.787   6.683   2.401  0.3159  0.5504  0.0360
   13CHTO   H53 5391   5.787   6.592   2.464 -0.4722  1.4892  1.4124
   13CHTO   O17 5392   5.877   6.788   2.424  0.2935  0.0868 -0.3936
   13CHTO   C32 5393   6.012   6.743   2.425 -0.1073 -0.1062 -0.1716
   13CHTO   H60 5394   6.023   6.647   2.476  1.0992  0.2654  0.2680
   13CHTO   C36 5395   6.103   6.853   2.483 -0.4736 -0.0553  0.1408
   13CHTO   O25 5396   6.081   6.887   2.621  0.4124 -0.6087 -0.0465
   13CHTO   H40 5397   6.136   6.961   2.640  1.3497 -0.6777 -2.2619
   13CHTO   O15 5398   5.641   6.750   2.420 -0.0937  0.5122  0.1939
   13CHTO   C19 5399   5.533   6.830   2.355 -0.3382  0.2892  0.0975
   13CHTO   H47 5400   5.496   6.887   2.442 -0.8619 -1.8441  1.3200
   13CHTO   C20 5401   5.567   6.925   2.240 -0.0920 -0.3475 -0.1350
   13CHTO   H48 5402   5.608   6.874   2.152 -0.5837  0.7669 -1.0254
   13CHTO   O19 5403   5.662   7.020   2.292  0.2348 -0.1152  0.7916
   13CHTO   H35 5404   5.726   7.058   2.234 -2.4731  0.7710 -1.7158
   13CHTO   C21 5405   5.438   7.001   2.192  0.2851 -0.1883 -0.1042
   13CHTO   H49 5406   5.400   7.068   2.269  1.0161  0.4895 -0.3247
   13CHTO    N4 5407   5.459   7.096   2.084 -0.2349  0.4747  0.3709
   13CHTO   H41 5408   5.537   7.065   2.017  1.6619 -0.9212  3.1218
   13CHTO   H42 5409   5.366   7.115   2.032  0.6720  0.8950 -1.1071
   13CHTO   C22 5410   5.315   6.903   2.178 -0.0070 -0.3708 -0.0846
   13CHTO   H50 5411   5.328   6.851   2.083 -4.6054  1.7011 -2.0036
   13CHTO   O14 5412   5.299   6.819   2.291 -0.1888  0.7443 -0.2800
   13CHTO   C23 5413   5.420   6.740   2.314  0.0323 -0.2999 -0.2534
   13CHTO   H51 5414   5.446   6.688   2.221 -0.5501  0.4989 -0.8754
   13CHTO   C34 5415   5.380   6.624   2.405  0.5118  0.0162 -0.0931
   13CHTO   O23 5416   5.270   6.547   2.357 -1.0581 -0.2415  0.1315
   13CHTO   H38 5417   5.286   6.490   2.284 -0.6648 -1.2271  0.9820
   13CHTO   O16 5418   5.194   6.975   2.160 -0.0285  0.2587 -0.7982
   13CHTO   C24 5419   5.046   6.900   2.180  0.3880  0.1709  0.6562
   13CHTO   H52 5420   5.038   6.847   2.274 -1.2156 -3.9622 -1.6853
   13CHTO   C26 5421   5.021   6.799   2.066 -0.7693 -0.7004 -0.0174
   13CHTO   H54 5422   5.026   6.851   1.968  0.7937 -1.9097 -0.6101
   13CHTO   O20 5423   5.122   6.694   2.077  0.8171 -0.7498  0.2954
   13CHTO   H36 5424   5.208   6.731   2.071  0.1389  0.5667 -1.6891
   13CHTO   C30 5425   4.873   6.742   2.073  0.3405  0.0976 -0.0711
   13CHTO   H58 5426   4.859   6.673   2.156  2.5078  1.0878  1.1710
   13CHTO    N6 5427   4.845   6.660   1.946  0.1245 -0.0368  1.0260
   13CHTO   H45 5428   4.893   6.685   1.852 -1.0417 -0.3588  0.3311
   13CHTO   H46 5429   4.870   6.557   1.965  0.2114 -0.3955 -0.8738
   13CHTO   C33 5430   4.762   6.850   2.092 -0.8403  0.7159 -0.4534
   13CHTO   H61 5431   4.750   6.905   1.998  1.5005  0.1991 -1.0988
   13CHTO   O18 5432   4.805   6.944   2.189 -0.0765 -0.2073 -0.3103
   13CHTO   C28 5433   4.933   7.009   2.177 -0.4514  0.4484 -0.9796
   13CHTO   H56 5434   4.941   7.067   2.086  2.1483 -1.2845 -1.9064
   13CHTO   C35 5435   4.949   7.100   2.301  0.4856 -0.8694 -0.6816
   13CHTO   O24 5436   4.827   7.175   2.318  0.0284  0.1541  0.4338
   13CHTO   H39 5437   4.828   7.218   2.402 -0.1340  0.2495  0.3856
   13CHTO    O9 5438   4.635   6.784   2.127 -0.0782  0.7147 -0.1715
   13CHTO   C13 5439   4.625   6.693   2.283  0.0509  0.1779 -0.8050
   13CHTO   H26 5440   4.729   6.678   2.319 -0.1518  0.2873 -0.1635
   13CHTO   C11 5441   4.559   6.552   2.253 -0.0413  0.5796 -0.2470
   13CHTO   H24 5442   4.630   6.493   2.194 -1.1253  1.9971 -3.0320
   13CHTO    O8 5443   4.435   6.552   2.178  0.4397  0.0866  0.1656
   13CHTO    H3 5444   4.364   6.600   2.216 -1.1859 -0.2938 -2.3079
   13CHTO    C9 5445   4.535   6.481   2.390 -0.3509  0.2781  0.9669
   13CHTO   H22 5446   4.635   6.468   2.434 -0.0576  2.6988  1.0987
   13CHTO    N2 5447   4.497   6.340   2.364  0.9930  0.1054 -0.1575
   13CHTO   H10 5448   4.582   6.276   2.345  0.8016  0.5209 -2.5319
   13CHTO   H11 5449   4.422   6.291   2.426  1.3708 -2.2429 -1.4921
   13CHTO    C7 5450   4.442   6.567   2.489 -0.0704  0.2408  0.4908
   13CHTO   H20 5451   4.497   6.567   2.586  0.2779 -3.0017  0.3252
   13CHTO    O4 5452   4.427   6.702   2.439  0.7250 -0.1760 -0.5259
   13CHTO   C14 5453   4.542   6.775   2.389 -0.5044  0.0973  0.1482
   13CHTO   H27 5454   4.610   6.800   2.473 -1.9187 -0.1567  1.4062
   13CHTO   C18 5455   4.494   6.908   2.334  0.2865  0.6053  0.1075
   13CHTO   O13 5456   4.413   6.986   2.425  0.5345 -1.0340 -0.0317
   13CHTO    H7 5457   4.462   7.005   2.503 -0.2333  0.5154  0.0729
   13CHTO    O2 5458   4.298   6.504   2.499  0.3920  0.1019 -0.0319
   13CHTO    C1 5459   4.225   6.522   2.622 -0.1535 -0.2228 -1.1311
   13CHTO   H14 5460   4.235   6.628   2.655  1.6135 -0.6146 -0.3399
   13CHTO    C2 5461   4.269   6.431   2.745 -0.0877 -0.5827  0.0108
   13CHTO   H15 5462   4.254   6.325   2.718 -0.7182 -0.2342 -1.0465
   13CHTO    O6 5463   4.407   6.455   2.787 -0.1658  0.2209  0.2771
   13CHTO    H1 5464   4.463   6.385   2.756  0.2965  0.2008  1.1593
   13CHTO    C3 5465   4.170   6.452   2.866 -0.0140  0.3568  0.0335
   13CHTO   H16 5466   4.176   6.552   2.910  1.1654  0.9340 -1.3891
   13CHTO    N1 5467   4.195   6.363   2.987 -0.1925 -0.2151  0.0589
   13CHTO    H8 5468   4.213   6.260   2.961 -0.5382 -0.4674  0.8175
   13CHTO    H9 5469   4.285   6.399   3.036 -0.0233 -0.7518  0.1471
   13CHTO    C4 5470   4.020   6.436   2.821  0.5607 -0.3733  0.2629
   13CHTO   H17 5471   3.996   6.333   2.798 -0.1488  0.1478 -1.3604
   13CHTO    O1 5472   3.993   6.514   2.700  0.0215 -0.4694 -0.6683
   13CHTO    C5 5473   4.083   6.489   2.588  0.3467  0.6669  0.2996
   13CHTO   H18 5474   4.079   6.385   2.559 -1.3026  0.8416 -0.1826
   13CHTO   C16 5475   4.034   6.578   2.474 -0.2865 -0.1676 -0.1543
   13CHTO   O11 5476   3.911   6.534   2.414 -0.7373 -0.3326  0.7163
   13CHTO    H5 5477   3.890   6.590   2.341  0.3316 -0.5260  0.2589
   13CHTO    O3 5478   3.928   6.486   2.918  0.6392 -0.0063 -0.1125
   13CHTO    C6 5479   3.813   6.399   2.949 -0.3907  0.8159  0.3402
   13CHTO   H19 5480   3.797   6.323   2.873  3.2430  1.5729 -1.2531
   13CHTO    C8 5481   3.813   6.329   3.087  0.1634 -0.7539  0.3381
   13CHTO   H21 5482   3.840   6.405   3.160 -3.0611  1.0567 -0.2487
   13CHTO    O7 5483   3.909   6.223   3.082  0.5094 -0.1834 -0.2476
   13CHTO    H2 5484   3.996   6.249   3.059  1.5466 -3.0290  0.3215
   13CHTO   C12 5485   3.664   6.279   3.123  0.0121 -0.0307  0.6293
   13CHTO   H25 5486   3.640   6.196   3.053 -0.2124  0.1252  0.5217
   13CHTO    N3 5487   3.660   6.214   3.258 -0.3296  0.2214 -0.8550
   13CHTO   H12 5488   3.689   6.110   3.246  1.3248  0.5143  0.4760
   13CHTO   H13 5489   3.713   6.267   3.336 -0.2056  1.6167 -1.8726
   13CHTO   C15 5490   3.557   6.394   3.106 -0.2248 -0.2436  0.1404
   13CHTO   H28 5491   3.573   6.481   3.169 -0.6102 -0.1286  0.0821
   13CHTO   O10 5492   3.411   6.333   3.119 -0.5237  0.0138  0.6178
   13CHTO    H4 5493   3.389   6.259   3.066  0.2895  0.4160 -0.2765
   13CHTO    O5 5494   3.571   6.448   2.973  0.3138 -0.0871 -0.0674
   13CHTO   C10 5495   3.698   6.503   2.934  0.3844  0.8679  0.3758
   13CHTO   H23 5496   3.711   6.575   3.015 -0.1957  1.9891 -0.5014
   13CHTO   C17 5497   3.690   6.569   2.793  0.3077  0.3286  0.0487
   13CHTO   O12 5498   3.641   6.697   2.815  0.1499 -0.6823 -0.4578
   13CHTO    H6 5499   3.622   6.751   2.740  0.2227  0.5307  0.3750
   14CHTO  H203 5500   6.794   4.261   2.005 -0.7286 -1.8706 -2.1439
   14CHTO   O82 5501   6.708   4.295   2.024  0.6110  0.0129  0.9012
   14CHTO  C123 5502   6.629   4.309   1.905  0.1873  0.2922  0.3507
   14CHTO  H227 5503   6.681   4.377   1.835  1.2159 -3.4026 -2.6646
   14CHTO   O77 5504   6.628   4.171   1.846 -0.5191 -0.1188  0.2511
   14CHTO  C118 5505   6.538   4.167   1.739 -0.0290 -0.4884 -0.1604
   14CHTO  H222 5506   6.561   4.256   1.678 -0.3222 -1.1282 -1.2061
   14CHTO  C125 5507   6.546   4.027   1.653 -0.2778  0.1630  0.1840
   14CHTO   O84 5508   6.475   4.036   1.528  0.0527  0.3124 -0.1414
   14CHTO  H205 5509   6.504   4.104   1.471  0.3505 -0.2232 -0.6338
   14CHTO  C114 5510   6.393   4.189   1.790  0.4675  0.0706 -0.2308
   14CHTO  H218 5511   6.368   4.111   1.862 -0.5419  1.6294  1.1240
   14CHTO  C116 5512   6.366   4.328   1.843 -0.8151 -1.0603  0.1154
   14CHTO  H220 5513   6.342   4.404   1.765  0.1001 -0.1006  0.7626
   14CHTO   O79 5514   6.244   4.321   1.915 -0.1704  0.5824 -0.0442
   14CHTO  H201 5515   6.223   4.397   1.968 -1.6619  2.2165 -2.8685
   14CHTO  C120 5516   6.489   4.373   1.936 -0.2363  0.5133  0.2715
   14CHTO  H224 5517   6.459   4.337   2.036 -0.7946 -1.0312 -0.4294
   14CHTO   N21 5518   6.487   4.517   1.962 -0.6669 -0.5104 -0.1779
   14CHTO  H211 5519   6.505   4.535   2.067  0.8417 -1.0206 -0.3478
   14CHTO  H212 5520   6.563   4.563   1.902  1.2114 -1.3978  1.4679
   14CHTO   O75 5521   6.314   4.176   1.668  0.1197  0.0776  0.2333
   14CHTO  C112 5522   6.176   4.082   1.695  0.4196 -0.3623  0.7878
   14CHTO  H216 5523   6.135   4.111   1.794 -0.0527  1.5051  0.0777
   14CHTO   O73 5524   6.220   3.947   1.686 -0.1649 -0.6110  0.7327
   14CHTO  C113 5525   6.118   3.849   1.712 -0.8295  0.0044 -0.5598
   14CHTO  H217 5526   6.081   3.858   1.817 -0.4621  0.5420 -0.4705
   14CHTO  C124 5527   6.183   3.704   1.716  0.0599 -0.1168 -0.0456
   14CHTO   O83 5528   6.105   3.618   1.802  0.1625  0.0103 -0.7367
   14CHTO  H204 5529   6.136   3.530   1.793 -1.7552 -0.6498 -1.1972
   14CHTO  C109 5530   6.003   3.850   1.607  0.3010 -0.2548 -0.1818
   14CHTO  H213 5531   6.049   3.824   1.511 -1.5372  1.5825 -1.5995
   14CHTO  C110 5532   5.945   3.994   1.607  0.1085  0.4123  0.7823
   14CHTO  H214 5533   5.892   4.018   1.698 -0.7139  0.2430  0.3565
   14CHTO   O78 5534   5.852   3.987   1.493 -0.4089 -0.0811 -0.5284
   14CHTO  H200 5535   5.818   4.072   1.471 -0.9874  0.3457  1.9076
   14CHTO  C111 5536   6.060   4.096   1.581  0.1135 -0.2846  0.9358
   14CHTO  H215 5537   6.099   4.075   1.481  1.6839  1.1747  1.2152
   14CHTO   N19 5538   6.007   4.236   1.577 -0.3342 -0.1981 -0.0895
   14CHTO  H207 5539   5.947   4.247   1.488 -1.6489  0.5683  0.8763
   14CHTO  H208 5540   5.976   4.269   1.675  2.4966 -2.7494  1.7496
   14CHTO   O74 5541   5.898   3.755   1.638  0.5649 -0.2327  0.9275
   14CHTO  C115 5542   5.839   3.676   1.517  0.0992 -1.0004  0.1311
   14CHTO  H219 5543   5.879   3.708   1.421 -0.9572  0.2975  0.1154
   14CHTO   O76 5544   5.879   3.512   1.528 -0.4128  0.1457 -0.1579
   14CHTO  C122 5545   5.822   3.445   1.647 -0.6293  0.0244 -0.1643
   14CHTO  H226 5546   5.907   3.442   1.715  1.1144 -1.0725 -2.3137
   14CHTO  C126 5547   5.799   3.297   1.610 -0.7392 -0.1235  0.1395
   14CHTO   O85 5548   5.781   3.207   1.722  0.5099  0.3154 -0.6322
   14CHTO  H206 5549   5.866   3.168   1.723  0.2968 -0.1602 -1.1170
   14CHTO  C121 5550   5.683   3.516   1.700  0.0339  0.8104  0.0276
   14CHTO  H225 5551   5.623   3.434   1.745 -0.5240  1.4251  0.4065
   14CHTO   O81 5552   5.706   3.611   1.799 -0.1056 -0.3921  0.0515
   14CHTO  H202 5553   5.628   3.660   1.812  0.5606  0.6185  0.2961
   14CHTO  C119 5554   5.615   3.565   1.576 -0.0705  0.0271  0.3203
   14CHTO  H223 5555   5.626   3.487   1.500 -0.3323 -0.2563  0.5725
   14CHTO  C117 5556   5.686   3.692   1.508 -0.2031 -0.0411 -0.3054
   14CHTO  H221 5557   5.668   3.783   1.566  0.6065  0.2407 -0.4934
   14CHTO   N20 5558   5.628   3.706   1.369 -0.0729 -0.5844  0.4798
   14CHTO  H209 5559   5.700   3.671   1.296 -0.0881 -1.6234  0.9571
   14CHTO  H210 5560   5.536   3.652   1.357  0.6846 -1.6852 -0.5088
   14CHTO   O80 5561   5.458   3.557   1.611  0.1204  0.3844  0.1595
   14CHTO  C103 5562   5.340   3.569   1.490 -0.4107 -0.2389 -0.1422
   14CHTO  H190 5563   5.377   3.603   1.394  1.7191 -1.8080  0.0823
   14CHTO  C101 5564   5.271   3.429   1.460  0.3341  0.5560 -0.2697
   14CHTO  H188 5565   5.231   3.392   1.555  1.5411  1.8246  0.7588
   14CHTO   O68 5566   5.391   3.334   1.414 -0.1556 -0.6561 -0.0436
   14CHTO  H168 5567   5.460   3.322   1.477  0.3397  2.8851  0.1386
   14CHTO   C99 5568   5.163   3.447   1.355  0.8531 -1.1496 -1.0922
   14CHTO  H186 5569   5.193   3.491   1.258 -1.0866 -0.1810 -1.2824
   14CHTO   N17 5570   5.101   3.317   1.312  0.2614  0.0445 -0.1554
   14CHTO  H174 5571   5.060   3.343   1.216 -0.0732 -0.2376 -0.0864
   14CHTO  H175 5572   5.018   3.293   1.377 -1.2702  1.5054 -1.5124
   14CHTO   C97 5573   5.059   3.543   1.419 -0.0640  0.0440 -0.1772
   14CHTO  H184 5574   5.010   3.494   1.505 -1.6635 -0.2301 -1.2231
   14CHTO   O64 5575   5.112   3.672   1.452 -0.4816  0.4399  0.2858
   14CHTO  C104 5576   5.232   3.670   1.536  0.6397 -0.6754  0.6608
   14CHTO  H191 5577   5.207   3.638   1.637  3.4193 -2.7582  0.7427
   14CHTO  C108 5578   5.292   3.811   1.553 -0.2396  0.4702  1.4716
   14CHTO   O71 5579   5.390   3.809   1.658  0.2658 -0.2908  0.0371
   14CHTO  H171 5580   5.363   3.838   1.743  0.0725  0.6792 -0.3445
   14CHTO   O62 5581   4.970   3.604   1.326 -0.4961  0.6406  0.1331
   14CHTO   C91 5582   4.830   3.598   1.357 -0.2167  0.4233  0.4128
   14CHTO  H178 5583   4.816   3.507   1.416 -0.5873  1.1047  1.3949
   14CHTO   C92 5584   4.755   3.578   1.220  0.0103  0.3021  0.2668
   14CHTO  H179 5585   4.803   3.495   1.165  0.6073  1.2922 -0.7234
   14CHTO   O66 5586   4.627   3.520   1.241 -0.1386  0.0924 -0.5432
   14CHTO  H166 5587   4.640   3.427   1.237 -0.2425  0.0375  0.2036
   14CHTO   C93 5588   4.749   3.713   1.139  0.1675  0.0138  0.3559
   14CHTO  H180 5589   4.660   3.697   1.076  1.3530  0.1697 -1.3728
   14CHTO   N16 5590   4.860   3.735   1.043  0.4480  0.7188  0.7129
   14CHTO  H172 5591   4.959   3.749   1.085 -0.0302  1.9058  1.4972
   14CHTO  H173 5592   4.862   3.656   0.970 -0.5539  2.7254 -1.5866
   14CHTO   C94 5593   4.724   3.839   1.232  0.4283  0.1463  0.3118
   14CHTO  H181 5594   4.812   3.902   1.239  1.0222 -0.4655 -1.5485
   14CHTO   O61 5595   4.684   3.805   1.360 -0.0859 -0.0252 -0.2992
   14CHTO   C95 5596   4.786   3.729   1.430  0.6867 -0.1079 -0.0265
   14CHTO  H182 5597   4.879   3.785   1.442  0.8450  0.0179 -1.7072
   14CHTO  C106 5598   4.742   3.693   1.582  0.0217  0.4352 -0.1805
   14CHTO   O69 5599   4.849   3.630   1.655 -0.3152 -0.3093 -0.2062
   14CHTO  H169 5600   4.869   3.550   1.611  1.1575 -0.4438  0.6808
   14CHTO   O63 5601   4.620   3.920   1.182 -0.4517  0.3649  0.6516
   14CHTO   C96 5602   4.643   4.083   1.151 -0.4204 -0.1906 -0.3110
   14CHTO  H183 5603   4.545   4.119   1.118 -1.0421 -0.9570  0.6678
   14CHTO   C98 5604   4.752   4.141   1.057 -0.0046  0.1337  0.6480
   14CHTO  H185 5605   4.852   4.110   1.092 -0.4631  0.0373  1.8780
   14CHTO   O67 5606   4.725   4.068   0.936  0.1548  0.7888 -0.1289
   14CHTO  H167 5607   4.741   3.976   0.947 -1.9494  0.4691  0.3753
   14CHTO  C102 5608   4.747   4.301   1.039  0.0755  0.1625  0.1672
   14CHTO  H189 5609   4.650   4.324   0.992  0.6077 -1.1309 -1.6135
   14CHTO   N18 5610   4.849   4.359   0.944  0.3357 -0.0724 -0.1328
   14CHTO  H176 5611   4.810   4.449   0.898 -2.2659 -0.2773  1.5717
   14CHTO  H177 5612   4.944   4.381   0.989  1.2396 -0.2572 -1.8928
   14CHTO  C105 5613   4.750   4.357   1.186 -0.1839  0.3678  0.6549
   14CHTO  H192 5614   4.841   4.322   1.235  0.2272  1.3269  0.5919
   14CHTO   O65 5615   4.649   4.298   1.265 -0.3054  0.4775  0.1935
   14CHTO  C100 5616   4.669   4.159   1.286  0.3369 -0.0338 -0.2397
   14CHTO  H187 5617   4.771   4.127   1.315  0.1645 -0.7308 -0.3990
   14CHTO  C107 5618   4.571   4.117   1.403 -1.5118 -0.4858 -0.3144
   14CHTO   O70 5619   4.438   4.145   1.379 -0.0100 -0.4586 -0.0227
   14CHTO  H170 5620   4.383   4.090   1.433 -0.0205  0.3707  0.8237
   14CHTO   O57 5621   4.750   4.511   1.192 -0.2877 -0.1903 -0.0665
   14CHTO   C85 5622   4.638   4.592   1.165 -0.7230  0.3992 -0.2542
   14CHTO  H157 5623   4.563   4.518   1.131  0.1567 -0.3232 -0.6669
   14CHTO   C83 5624   4.658   4.688   1.046  0.1275  0.3814 -0.0447
   14CHTO  H155 5625   4.682   4.632   0.955 -1.1702 -0.5496  0.1574
   14CHTO   O56 5626   4.775   4.768   1.071  0.4287  0.2235 -0.3322
   14CHTO  H135 5627   4.782   4.807   1.156  1.9843  0.5490 -0.5901
   14CHTO   C81 5628   4.540   4.779   1.018  0.1902 -0.0101 -0.0109
   14CHTO  H153 5629   4.452   4.715   1.007  0.1967  0.3192 -2.1062
   14CHTO   N14 5630   4.560   4.864   0.899  0.5283  0.3707 -0.2285
   14CHTO  H141 5631   4.512   4.960   0.903  0.4255  0.4737 -2.6639
   14CHTO  H142 5632   4.527   4.816   0.809 -2.6406  0.4291  0.8461
   14CHTO   C79 5633   4.515   4.874   1.149  0.1686 -0.1751  0.2769
   14CHTO  H151 5634   4.421   4.929   1.138 -0.4405 -1.2244  0.1185
   14CHTO   O52 5635   4.500   4.787   1.272  0.7237 -0.0187 -0.1062
   14CHTO   C86 5636   4.587   4.674   1.287 -0.1839  0.7079  0.0393
   14CHTO  H158 5637   4.674   4.721   1.336 -1.3520  1.6292  1.2900
   14CHTO   C90 5638   4.515   4.591   1.393  0.9062  0.0349 -0.6783
   14CHTO   O60 5639   4.515   4.650   1.522  0.2625  0.1128  0.3860
   14CHTO  H138 5640   4.470   4.732   1.515  0.4586  0.1992  0.1820
   14CHTO   O50 5641   4.616   4.972   1.175  0.3374  0.3185 -0.0241
   14CHTO   C73 5642   4.617   5.108   1.220 -0.8357 -0.6623  0.4438
   14CHTO  H145 5643   4.529   5.127   1.284 -0.5411 -0.1864  0.7110
   14CHTO   C74 5644   4.614   5.205   1.096 -0.1290  0.2023 -0.5333
   14CHTO  H146 5645   4.526   5.193   1.032 -0.4710 -0.7294  0.1033
   14CHTO   O54 5646   4.613   5.329   1.163  0.0089 -0.1870  0.1541
   14CHTO  H133 5647   4.534   5.331   1.213 -1.2846  0.0825 -1.8532
   14CHTO   C75 5648   4.750   5.187   1.016 -0.4096 -0.6661  0.9527
   14CHTO  H147 5649   4.757   5.085   0.977 -0.6803 -0.9878  1.7280
   14CHTO   N13 5650   4.758   5.266   0.890 -0.4969  0.7360 -0.9132
   14CHTO  H139 5651   4.753   5.207   0.799 -0.7829  0.2557 -0.5909
   14CHTO  H140 5652   4.703   5.359   0.884  1.0402  1.6984 -0.2859
   14CHTO   C76 5653   4.868   5.212   1.117  0.0256 -0.2828 -0.2592
   14CHTO  H148 5654   4.883   5.317   1.143  0.4089 -1.0041  2.6513
   14CHTO   O49 5655   4.864   5.130   1.242  0.6648  0.2414 -0.8937
   14CHTO   C77 5656   4.738   5.129   1.314  0.1002  0.6003 -0.1701
   14CHTO  H149 5657   4.726   5.223   1.369  2.6493 -0.4927  2.3829
   14CHTO   C88 5658   4.755   5.022   1.421 -0.3361  0.4866 -0.0435
   14CHTO   O58 5659   4.613   4.999   1.496  0.3799  0.5811  0.3820
   14CHTO  H136 5660   4.609   4.930   1.560 -2.2157 -1.7343 -2.1142
   14CHTO   O51 5661   5.000   5.157   1.038  0.4263 -0.1052 -0.3721
   14CHTO   C78 5662   5.122   5.193   1.065 -0.4815  0.2996  0.2749
   14CHTO  H150 5663   5.131   5.249   1.160 -0.3413 -1.0911  1.1022
   14CHTO   C80 5664   5.187   5.269   0.954  0.1861 -0.9449  0.2194
   14CHTO  H152 5665   5.173   5.218   0.857 -0.3171 -1.6234  0.6440
   14CHTO   O55 5666   5.098   5.381   0.944 -0.0251 -0.1114 -0.0721
   14CHTO  H134 5667   5.119   5.436   0.871 -0.9213  1.0991  0.5569
   14CHTO   C84 5668   5.338   5.311   0.966 -0.4131 -0.5918 -0.1414
   14CHTO  H156 5669   5.347   5.389   1.042  1.2798  2.7629 -3.6467
   14CHTO   N15 5670   5.391   5.385   0.851 -0.2412  0.0629 -0.8580
   14CHTO  H143 5671   5.379   5.331   0.759 -1.2842  0.5697 -1.0241
   14CHTO  H144 5672   5.358   5.486   0.844 -0.2012  0.2041  0.8267
   14CHTO   C87 5673   5.418   5.177   0.992  0.1454  0.0103 -0.3477
   14CHTO  H159 5674   5.429   5.114   0.904  1.5468  0.7951 -0.7451
   14CHTO   O53 5675   5.341   5.087   1.120  0.1687 -0.6757 -0.5403
   14CHTO   C82 5676   5.201   5.065   1.100 -0.1685 -0.0274  0.5607
   14CHTO  H154 5677   5.185   4.994   1.019  1.1596  1.1699 -0.7730
   14CHTO   C89 5678   5.140   5.003   1.234  0.5444 -0.4174  0.1394
   14CHTO   O59 5679   5.191   4.869   1.251 -0.0879 -0.2066  0.3462
   14CHTO  H137 5680   5.253   4.849   1.319  0.1542  0.1215  0.2236
   14CHTO   O45 5681   5.572   5.214   1.043  0.3591  0.4862  0.0052
   14CHTO   C67 5682   5.665   5.105   1.015  0.1597  0.4660 -0.4448
   14CHTO  H124 5683   5.601   5.018   1.029 -0.5005  0.7600 -1.5981
   14CHTO   C65 5684   5.719   5.116   0.874  0.3511  0.3612  0.2824
   14CHTO  H122 5685   5.634   5.149   0.815 -1.1093  0.3031  2.3100
   14CHTO   O44 5686   5.775   4.990   0.832 -0.1618  0.1098  0.2755
   14CHTO  H102 5687   5.865   4.982   0.857 -0.2600  0.4634  0.7593
   14CHTO   C63 5688   5.814   5.239   0.861 -0.0228  1.0151  0.4629
   14CHTO  H120 5689   5.755   5.330   0.876  0.8580  1.4743  1.2372
   14CHTO   N11 5690   5.858   5.275   0.722  0.1818  0.3432  0.1109
   14CHTO  H108 5691   5.948   5.333   0.724 -0.0130  0.7202 -1.3383
   14CHTO  H109 5692   5.880   5.180   0.678  2.2077  0.5085  0.7575
   14CHTO   C61 5693   5.931   5.232   0.970 -0.3146 -0.4326 -0.0467
   14CHTO  H118 5694   5.968   5.335   0.984 -0.2399 -0.6929  1.8132
   14CHTO   O40 5695   5.880   5.193   1.101  0.3417 -0.0656 -0.8025
   14CHTO   C68 5696   5.773   5.104   1.123  0.1131  0.8141  0.6969
   14CHTO  H125 5697   5.716   5.133   1.213  0.3954  1.0477  0.8016
   14CHTO   C72 5698   5.814   4.955   1.136  0.0256 -0.0288 -0.5678
   14CHTO   O48 5699   5.891   4.925   1.255  0.0697  0.1527 -0.2726
   14CHTO  H105 5700   5.946   4.852   1.235  0.4888 -0.0055  1.3850
   14CHTO   O38 5701   6.037   5.142   0.926  0.1143 -0.2461  0.2575
   14CHTO   C55 5702   6.170   5.183   0.886  0.4208  0.0885  0.2722
   14CHTO  H112 5703   6.170   5.292   0.870  1.2181  0.0255 -0.1901
   14CHTO   C56 5704   6.213   5.104   0.749  0.3488 -0.1235  1.0143
   14CHTO  H113 5705   6.211   4.995   0.765 -1.1185 -0.2386  0.1129
   14CHTO   O42 5706   6.124   5.129   0.640 -0.3496 -0.5729  0.2342
   14CHTO  H100 5707   6.139   5.213   0.601 -0.2950 -1.1075 -0.9101
   14CHTO   C57 5708   6.356   5.144   0.703 -0.4877 -1.0206 -0.6388
   14CHTO  H114 5709   6.349   5.246   0.665 -0.0910 -0.9070 -0.4098
   14CHTO   N10 5710   6.423   5.075   0.591  0.5341  0.2057  0.1670
   14CHTO  H106 5711   6.491   5.138   0.536  0.5777 -0.0191 -0.0427
   14CHTO  H107 5712   6.478   4.992   0.634 -1.3162 -0.7002  0.8621
   14CHTO   C58 5713   6.452   5.139   0.830  0.4040 -0.3569  0.0394
   14CHTO  H115 5714   6.468   5.035   0.867  2.5521 -0.1394 -0.2067
   14CHTO   O37 5715   6.393   5.214   0.936 -0.3706  0.2013 -0.3254
   14CHTO   C59 5716   6.271   5.159   0.994  0.1781 -0.1352  0.4863
   14CHTO  H116 5717   6.281   5.052   1.015 -0.0896  0.0444  1.5403
   14CHTO   C70 5718   6.240   5.237   1.125 -0.1711 -0.6641  0.2118
   14CHTO   O46 5719   6.174   5.148   1.217 -0.1528 -0.6351 -0.5757
   14CHTO  H103 5720   6.149   5.192   1.297  0.6351  0.9365 -1.1681
   14CHTO   O39 5721   6.599   5.211   0.794 -0.0181 -0.0283 -0.4432
   14CHTO   C60 5722   6.712   5.194   0.884 -0.0654 -0.6104 -0.5154
   14CHTO  H117 5723   6.678   5.228   0.982 -1.3560  0.2948 -1.2600
   14CHTO   C62 5724   6.756   5.045   0.882 -0.2474 -0.6717 -0.0434
   14CHTO  H119 5725   6.688   4.988   0.950  1.8155 -1.0052  1.8081
   14CHTO   O43 5726   6.756   4.982   0.747  0.4650  0.3572  0.6510
   14CHTO  H101 5727   6.768   4.890   0.762 -0.1027  0.2289  0.3274
   14CHTO   C66 5728   6.906   5.033   0.948  0.6935  0.0340  0.8781
   14CHTO  H123 5729   6.895   5.053   1.055  1.1657 -2.0289  1.3376
   14CHTO   N12 5730   6.959   4.895   0.939 -0.4432 -0.6093  0.2452
   14CHTO  H110 5731   6.953   4.844   0.844 -1.5272 -0.4237  0.1982
   14CHTO  H111 5732   7.042   4.886   1.006  0.1554  0.7479 -0.2945
   14CHTO   C69 5733   7.008   5.125   0.880  0.3296  0.0762  0.3315
   14CHTO  H126 5734   7.014   5.101   0.771  0.7504 -1.6734  0.7133
   14CHTO   O41 5735   6.955   5.256   0.904 -0.2013  0.9163  0.3594
   14CHTO   C64 5736   6.822   5.291   0.841  0.6358 -0.4082  1.1251
   14CHTO  H121 5737   6.833   5.288   0.730 -1.1307 -3.0867  0.9727
   14CHTO   C71 5738   6.774   5.439   0.878  0.0209 -0.4776  0.0952
   14CHTO   O47 5739   6.881   5.537   0.863 -0.2962 -0.0226  0.0411
   14CHTO  H104 5740   6.864   5.585   0.942 -0.6707  0.9317 -0.6219
   14CHTO   O34 5741   7.162   5.114   0.956 -0.3861  0.0927  0.2076
   14CHTO   C49 5742   7.286   5.179   0.932 -0.6358  0.0640  0.6920
   14CHTO   H91 5743   7.324   5.145   0.836 -0.4969  0.2720  0.6737
   14CHTO   C47 5744   7.383   5.135   1.043 -0.0494 -0.7980 -0.8284
   14CHTO   H89 5745   7.486   5.164   1.015  0.3942 -0.4811  1.0310
   14CHTO   O33 5746   7.379   4.991   1.059 -0.1729  0.2680  0.0195
   14CHTO   H70 5747   7.434   4.950   0.995 -0.5071 -1.7702  0.9985
   14CHTO   C45 5748   7.337   5.199   1.185  0.1285  0.2723  0.4810
   14CHTO   H87 5749   7.269   5.131   1.239  0.3134 -0.9894 -0.8589
   14CHTO    N8 5750   7.460   5.214   1.262 -0.6062 -0.0231 -0.8160
   14CHTO   H75 5751   7.469   5.153   1.350 -1.3292 -1.0904 -1.4599
   14CHTO   H76 5752   7.459   5.317   1.293  2.3671  0.4112 -2.0580
   14CHTO   C43 5753   7.246   5.340   1.160  0.2936 -0.4929 -0.3683
   14CHTO   H85 5754   7.150   5.293   1.142 -1.4658  2.4975  0.8395
   14CHTO   O29 5755   7.292   5.409   1.040 -0.2795 -0.3761  0.2985
   14CHTO   C50 5756   7.284   5.331   0.919 -0.0122 -0.2213  0.3088
   14CHTO   H92 5757   7.191   5.360   0.867 -1.4205 -1.5990  1.9907
   14CHTO   C54 5758   7.402   5.382   0.824 -0.3778 -0.9266 -0.1760
   14CHTO   O36 5759   7.397   5.525   0.817 -0.3414  1.0590  0.0893
   14CHTO   H72 5760   7.485   5.557   0.819 -0.1432  0.7140 -1.9375
   14CHTO   O27 5761   7.228   5.421   1.280  0.3068  0.6875  0.3532
   14CHTO   C37 5762   7.132   5.494   1.349 -0.1411  0.7072  0.1137
   14CHTO   H79 5763   7.179   5.557   1.426  2.0441 -0.5646 -0.1574
   14CHTO   C38 5764   7.058   5.589   1.252  0.2939  0.0877 -0.5466
   14CHTO   H80 5765   7.016   5.529   1.171 -0.2226 -1.5011  0.8721
   14CHTO   O31 5766   7.156   5.678   1.190  0.0671  0.0107  0.3316
   14CHTO   H68 5767   7.237   5.631   1.183  0.2130 -0.5562  4.3001
   14CHTO   C39 5768   6.931   5.651   1.324  0.7795  0.3172 -0.4062
   14CHTO   H81 5769   6.969   5.710   1.407  1.2799 -1.4885  0.6663
   14CHTO    N7 5770   6.848   5.740   1.233  0.2149 -0.5846 -0.3001
   14CHTO   H73 5771   6.803   5.823   1.284 -1.3125 -0.3218 -2.0231
   14CHTO   H74 5772   6.764   5.702   1.177 -0.0916 -0.2386 -0.0741
   14CHTO   C40 5773   6.846   5.547   1.396  0.3188 -0.3581  0.1720
   14CHTO   H82 5774   6.800   5.484   1.319 -0.0152 -0.2788  0.3077
   14CHTO   O26 5775   6.931   5.469   1.489  0.1071 -0.0802 -0.2182
   14CHTO   C41 5776   7.033   5.393   1.417  0.3256 -0.8154 -0.6475
   14CHTO   H83 5777   6.987   5.340   1.332 -1.8294  2.1630 -1.4205
   14CHTO   C52 5778   7.093   5.299   1.524  0.2320  0.2504  0.2274
   14CHTO   O35 5779   7.158   5.208   1.463 -0.3032 -0.5589 -0.3229
   14CHTO   H71 5780   7.222   5.161   1.513  0.1797  0.5143  0.0793
   14CHTO   O28 5781   6.756   5.608   1.487  0.4668 -0.2735 -0.0317
   14CHTO   C42 5782   6.619   5.562   1.512  1.0375  0.4296 -0.1613
   14CHTO   H84 5783   6.608   5.575   1.620 -0.2892 -0.6640 -0.1487
   14CHTO   C44 5784   6.583   5.415   1.475  0.3677 -0.0431  0.2706
   14CHTO   H86 5785   6.577   5.406   1.367  0.4456  3.5151 -0.0975
   14CHTO   O32 5786   6.688   5.327   1.531  0.0203  0.4785 -0.0343
   14CHTO   H69 5787   6.688   5.333   1.625 -3.8713  1.4352 -0.0143
   14CHTO   C48 5788   6.441   5.388   1.529  0.1843  0.8893 -0.3101
   14CHTO   H90 5789   6.430   5.398   1.637 -1.0390 -2.4895 -0.0422
   14CHTO    N9 5790   6.402   5.244   1.502 -0.5513 -0.3408  0.6726
   14CHTO   H77 5791   6.356   5.239   1.405  1.1395  0.2849 -0.1782
   14CHTO   H78 5792   6.493   5.186   1.505 -0.5035 -0.2335  1.2704
   14CHTO   C51 5793   6.340   5.490   1.464  0.3771  0.4426  0.4784
   14CHTO   H93 5794   6.346   5.467   1.358  1.4085  0.5270  0.5112
   14CHTO   O30 5795   6.383   5.620   1.492  0.1496 -0.5080  0.4729
   14CHTO   C46 5796   6.518   5.652   1.443  0.3987 -0.9677  0.3287
   14CHTO   H88 5797   6.520   5.649   1.334  0.0310 -0.5081  0.3090
   14CHTO   C53 5798   6.536   5.803   1.488 -0.1591 -0.8283 -0.2030
   14CHTO   O72 5799   6.525   5.827   1.630 -0.1619  0.4964 -0.2749
   14CHTO  H199 5800   6.438   5.807   1.657 -0.2536  0.9773 -0.1978
   14CHTO   O22 5801   6.213   5.474   1.517  0.2086  0.1041 -0.0529
   14CHTO   C31 5802   6.088   5.448   1.450  0.5010  0.5476  0.4670
   14CHTO   H59 5803   6.115   5.387   1.361  1.0668 -0.1730  1.1244
   14CHTO   C29 5804   5.986   5.363   1.533 -0.6355  0.2244 -0.1854
   14CHTO   H57 5805   5.942   5.432   1.607  0.5006 -2.2423  2.9182
   14CHTO   O21 5806   6.052   5.262   1.610 -0.2367  0.1333 -0.3592
   14CHTO   H37 5807   6.032   5.285   1.698  1.4908  1.4514 -0.3060
   14CHTO   C27 5808   5.873   5.307   1.442 -0.3484  0.0846  0.3780
   14CHTO   H55 5809   5.923   5.250   1.362  0.6252  0.3593  0.7853
   14CHTO    N5 5810   5.774   5.219   1.514 -0.0275 -0.5414  0.1590
   14CHTO   H43 5811   5.770   5.138   1.443  0.8979  0.0183 -0.5456
   14CHTO   H44 5812   5.811   5.182   1.608  0.2812 -2.4578 -0.6949
   14CHTO   C25 5813   5.800   5.430   1.381 -0.1613 -0.0263  0.7955
   14CHTO   H53 5814   5.741   5.486   1.455 -0.2496  1.4313 -0.3621
   14CHTO   O17 5815   5.890   5.533   1.334  0.0139 -0.6987 -0.1896
   14CHTO   C32 5816   6.019   5.574   1.393  0.0827  0.2526 -0.2460
   14CHTO   H60 5817   6.014   5.651   1.470  0.9637  2.4672 -2.3249
   14CHTO   C36 5818   6.107   5.642   1.289  0.2717  0.5399 -0.9649
   14CHTO   O25 5819   6.116   5.570   1.163 -0.2820 -0.6212 -0.5134
   14CHTO   H40 5820   6.031   5.574   1.125 -1.0975 -2.0619  1.0908
   14CHTO   O15 5821   5.705   5.393   1.278 -0.2098  0.4195  0.1062
   14CHTO   C19 5822   5.574   5.459   1.259  0.1827  0.5771  0.5913
   14CHTO   H47 5823   5.530   5.418   1.167  0.8763 -0.8789  0.8789
   14CHTO   C20 5824   5.468   5.441   1.373 -0.7393 -0.0865 -0.3640
   14CHTO   H48 5825   5.507   5.474   1.471  0.9358 -2.0647 -0.3259
   14CHTO   O19 5826   5.453   5.300   1.390  0.5817  0.7400  0.1128
   14CHTO   H35 5827   5.477   5.272   1.476  1.4249 -1.8649 -0.9168
   14CHTO   C21 5828   5.333   5.509   1.338  0.3994  0.0360  0.0772
   14CHTO   H49 5829   5.295   5.467   1.245  0.5673 -2.6298  1.1503
   14CHTO    N4 5830   5.222   5.489   1.435 -0.3746 -0.1363 -0.0911
   14CHTO   H41 5831   5.255   5.452   1.531 -1.3702 -1.1489 -0.1327
   14CHTO   H42 5832   5.135   5.434   1.404 -0.6820 -0.4132  1.2250
   14CHTO   C22 5833   5.357   5.659   1.310  0.4813  0.3776 -0.5109
   14CHTO   H50 5834   5.387   5.722   1.394 -0.9122  1.3964 -0.7630
   14CHTO   O14 5835   5.463   5.671   1.203  0.2948  0.1359 -0.2380
   14CHTO   C23 5836   5.594   5.613   1.228  0.3613 -0.5614  0.0029
   14CHTO   H51 5837   5.636   5.667   1.314 -1.7747  0.1850  0.6107
   14CHTO   C34 5838   5.681   5.646   1.108  0.4244  0.5039 -0.0069
   14CHTO   O23 5839   5.721   5.785   1.123 -0.3686  0.0647  0.3213
   14CHTO   H38 5840   5.690   5.831   1.048  2.0202 -0.1388 -0.8080
   14CHTO   O16 5841   5.260   5.732   1.232  0.1455 -0.2134  0.3913
   14CHTO   C24 5842   5.202   5.877   1.247 -0.4170 -0.0625 -0.2580
   14CHTO   H52 5843   5.174   5.924   1.153 -0.5090 -1.1966 -0.8108
   14CHTO   C26 5844   5.295   5.977   1.325  0.0448 -0.7749 -0.3569
   14CHTO   H54 5845   5.316   5.937   1.427 -0.6802 -0.3546 -0.0409
   14CHTO   O20 5846   5.425   5.952   1.261 -0.0607 -0.1381  0.3738
   14CHTO   H36 5847   5.472   6.031   1.246  0.4525 -0.5364 -0.1235
   14CHTO   C30 5848   5.245   6.126   1.323  0.1491  0.2459  0.8660
   14CHTO   H58 5849   5.227   6.154   1.218  0.8682 -2.3782  0.0159
   14CHTO    N6 5850   5.330   6.232   1.390 -0.6872  0.4106 -0.0127
   14CHTO   H45 5851   5.430   6.192   1.397 -0.3113  1.4635  0.7110
   14CHTO   H46 5852   5.336   6.322   1.332 -1.3706  0.6768  0.3186
   14CHTO   C33 5853   5.109   6.116   1.398 -0.5850  1.1493  0.1712
   14CHTO   H61 5854   5.133   6.093   1.503 -0.3029 -0.1799 -0.1815
   14CHTO   O18 5855   5.018   6.011   1.348 -0.2163 -0.5105 -0.7714
   14CHTO   C28 5856   5.069   5.875   1.330  0.2177  0.6505 -0.4057
   14CHTO   H56 5857   5.081   5.827   1.427 -0.5071 -2.7155 -1.9077
   14CHTO   C35 5858   4.964   5.807   1.243 -0.0225 -0.0975  0.2879
   14CHTO   O24 5859   4.970   5.664   1.217 -0.3093  0.0838  0.5021
   14CHTO   H39 5860   4.884   5.637   1.189 -0.9161 -0.0634  2.4447
   14CHTO    O9 5861   5.042   6.241   1.409  0.2367  0.5310  0.7647
   14CHTO   C13 5862   4.933   6.245   1.526 -0.4298 -0.2217  0.0699
   14CHTO   H26 5863   4.963   6.172   1.604 -1.3792 -0.2655  0.4032
   14CHTO   C11 5864   4.784   6.222   1.479  0.2620  0.4329  0.2124
   14CHTO   H24 5865   4.767   6.113   1.480 -1.2116  0.6521  1.9485
   14CHTO    O8 5866   4.765   6.284   1.348  0.5571 -0.1887 -0.1771
   14CHTO    H3 5867   4.677   6.266   1.323  0.4100  0.6493 -0.2716
   14CHTO    C9 5868   4.687   6.277   1.580  0.2250  0.3603  0.1677
   14CHTO   H22 5869   4.712   6.227   1.675  0.8527 -0.9065 -0.6632
   14CHTO    N2 5870   4.547   6.228   1.565 -0.4827  0.3882 -0.1005
   14CHTO   H10 5871   4.548   6.121   1.549 -2.7444  0.2993  0.1646
   14CHTO   H11 5872   4.483   6.273   1.639 -0.6788 -1.6921  1.0394
   14CHTO    C7 5873   4.706   6.432   1.603  0.3205  0.1461  0.2387
   14CHTO   H20 5874   4.702   6.441   1.713  0.1153  0.6157  0.1913
   14CHTO    O4 5875   4.838   6.473   1.568 -0.3132  0.0561 -0.1940
   14CHTO   C14 5876   4.949   6.381   1.606  0.8462 -1.0153  0.1087
   14CHTO   H27 5877   4.949   6.366   1.716  1.0468 -1.2127  0.0812
   14CHTO   C18 5878   5.080   6.461   1.568  0.0230  0.6552  0.2953
   14CHTO   O13 5879   5.193   6.406   1.633  0.1112  0.2775  0.0778
   14CHTO    H7 5880   5.205   6.313   1.628 -1.8496 -0.0020  0.3294
   14CHTO    O2 5881   4.587   6.533   1.520 -0.7279  0.1184 -0.4617
   14CHTO    C1 5882   4.563   6.664   1.566  0.2798  0.5737 -0.0392
   14CHTO   H14 5883   4.480   6.705   1.504 -0.7844 -2.4988 -0.7463
   14CHTO    C2 5884   4.689   6.766   1.551 -0.0824  0.5699  0.0978
   14CHTO   H15 5885   4.768   6.727   1.616  1.4777  3.5056 -0.0012
   14CHTO    O6 5886   4.730   6.758   1.417 -0.0386 -0.3457  0.8097
   14CHTO    H1 5887   4.688   6.826   1.368 -1.3704  0.0287  2.4325
   14CHTO    C3 5888   4.652   6.913   1.603  0.0725  0.4850 -0.6227
   14CHTO   H16 5889   4.576   6.959   1.538 -0.7352  0.3960  0.2553
   14CHTO    N1 5890   4.771   7.001   1.597  0.3341  0.3942  0.1446
   14CHTO    H8 5891   4.763   7.063   1.509 -0.8205 -1.1656 -0.9032
   14CHTO    H9 5892   4.862   6.945   1.610 -0.0814 -0.4968 -0.6799
   14CHTO    C4 5893   4.581   6.907   1.746  0.2832 -0.8327 -0.5498
   14CHTO   H17 5894   4.653   6.909   1.827 -0.2309 -1.0454 -0.0851
   14CHTO    O1 5895   4.480   6.810   1.758 -0.2110 -0.4611  0.0650
   14CHTO    C5 5896   4.516   6.676   1.717 -0.6122 -0.3135 -0.2869
   14CHTO   H18 5897   4.599   6.644   1.778 -2.1430 -0.7340  1.6143
   14CHTO   C16 5898   4.403   6.583   1.746 -0.0223 -0.1353  0.1864
   14CHTO   O11 5899   4.372   6.571   1.886 -0.0378  0.2148  0.2265
   14CHTO    H5 5900   4.450   6.547   1.931 -0.0516 -1.0344 -0.3853
   14CHTO    O3 5901   4.504   7.026   1.774  0.3833  0.2529 -0.3280
   14CHTO    C6 5902   4.504   7.086   1.911  0.3938 -0.3216 -0.3415
   14CHTO   H19 5903   4.561   7.027   1.984 -1.4929  1.4631  2.7031
   14CHTO    C8 5904   4.572   7.228   1.920 -0.3818  0.4732 -0.0977
   14CHTO   H21 5905   4.512   7.296   1.859 -1.9287 -0.1864  0.6623
   14CHTO    O7 5906   4.712   7.202   1.878 -0.0626  0.0188 -0.6038
   14CHTO    H2 5907   4.737   7.276   1.827  2.9171  0.0654  0.7972
   14CHTO   C12 5908   4.565   7.287   2.068  0.1193 -0.2842 -0.2999
   14CHTO   H25 5909   4.635   7.225   2.128 -1.5716 -0.0632  1.9629
   14CHTO    N3 5910   4.611   7.433   2.079  0.1390  0.2462  0.4260
   14CHTO   H12 5911   4.718   7.439   2.068  0.0502  2.2703  0.5381
   14CHTO   H13 5912   4.587   7.466   2.179  0.5567 -3.4603  1.8240
   14CHTO   C15 5913   4.414   7.256   2.126  0.1408 -0.0944 -0.4612
   14CHTO   H28 5914   4.345   7.331   2.087  0.8021 -0.7227 -2.9142
   14CHTO   O10 5915   4.413   7.249   2.271  0.0593  0.2893  0.6124
   14CHTO    H4 5916   4.441   7.334   2.301 -1.8759  0.9886  0.5224
   14CHTO    O5 5917   4.351   7.127   2.102  0.6238  0.0772  0.2398
   14CHTO   C10 5918   4.352   7.094   1.960  0.2454  0.1553  0.3836
   14CHTO   H23 5919   4.302   7.169   1.898 -0.8093 -1.0220 -0.2096
   14CHTO   C17 5920   4.277   6.961   1.940 -0.0658  0.2061  0.1014
   14CHTO   O12 5921   4.314   6.840   2.006  0.5982 -0.9930  0.4474
   14CHTO    H6 5922   4.369   6.867   2.077 -0.3831 -1.2665  1.3287
   15CHTO  H203 5923   7.323   4.319   1.492 -2.1363  0.2468  1.0648
   15CHTO   O82 5924   7.314   4.228   1.512  0.7442 -0.3570 -0.0686
   15CHTO  C123 5925   7.257   4.166   1.401 -0.4251  0.1920 -0.2560
   15CHTO  H227 5926   7.282   4.059   1.400 -2.0263 -0.1970 -1.5535
   15CHTO   O77 5927   7.119   4.189   1.426  0.3895 -0.2968 -0.0512
   15CHTO  C118 5928   7.027   4.128   1.333  0.0901 -0.5286  0.0700
   15CHTO  H222 5929   7.040   4.019   1.336 -2.2489 -0.8517 -0.5348
   15CHTO  C125 5930   6.879   4.170   1.379 -0.1942  0.1263  0.3620
   15CHTO   O84 5931   6.867   4.136   1.512  0.0708 -0.2939 -0.1456
   15CHTO  H205 5932   6.879   4.212   1.565  1.4953 -0.1661 -0.6173
   15CHTO  C114 5933   7.051   4.193   1.193  0.0662  0.2296  0.8639
   15CHTO  H218 5934   7.032   4.299   1.209 -0.7781  0.2337 -0.0950
   15CHTO  C116 5935   7.200   4.171   1.151  0.9731  0.3495  0.4739
   15CHTO  H220 5936   7.214   4.064   1.127 -3.4860  0.1688 -1.9839
   15CHTO   O79 5937   7.218   4.228   1.014 -0.0360 -0.4623  0.0298
   15CHTO  H201 5938   7.219   4.166   0.944  0.7559  0.3699 -0.7122
   15CHTO  C120 5939   7.297   4.233   1.261 -0.1868  0.2089  0.4042
   15CHTO  H224 5940   7.278   4.342   1.271 -0.1181  0.1943  0.6916
   15CHTO   N21 5941   7.443   4.207   1.240  0.5788  0.3645 -0.1805
   15CHTO  H211 5942   7.450   4.105   1.207  1.1465  0.5249 -0.5710
   15CHTO  H212 5943   7.478   4.265   1.156 -2.9130  0.7522 -1.4135
   15CHTO   O75 5944   6.957   4.144   1.097  0.3631 -0.1850 -0.1307
   15CHTO  C112 5945   6.934   3.967   1.096  0.1581  0.0022 -0.3043
   15CHTO  H216 5946   6.903   3.934   1.196  0.3825 -0.6709 -0.4501
   15CHTO   O73 5947   7.050   3.903   1.052 -0.3862 -0.2123 -0.3655
   15CHTO  C113 5948   7.038   3.759   1.049 -0.0519  0.3007 -0.4685
   15CHTO  H217 5949   7.009   3.721   1.149  2.0993 -0.4719 -0.0945
   15CHTO  C124 5950   7.176   3.699   1.028  0.0365  0.1565  0.2882
   15CHTO   O83 5951   7.266   3.716   1.132  0.3537 -0.1867 -0.2934
   15CHTO  H204 5952   7.269   3.808   1.150  1.7889 -0.7775  2.7714
   15CHTO  C109 5953   6.938   3.708   0.942 -0.4021 -0.7738  0.3891
   15CHTO  H213 5954   6.973   3.732   0.841 -1.1438 -0.4234  0.2132
   15CHTO  C110 5955   6.797   3.773   0.978 -0.0363 -1.3326  0.8379
   15CHTO  H214 5956   6.763   3.730   1.073 -1.0267  1.8826  1.9889
   15CHTO   O78 5957   6.704   3.747   0.876  0.4938  0.1366  0.0710
   15CHTO  H200 5958   6.709   3.656   0.852  0.1386 -0.2629  1.4928
   15CHTO  C111 5959   6.811   3.932   0.992 -0.0934 -0.2835 -0.5645
   15CHTO  H215 5960   6.826   3.980   0.894  2.9842  1.7691  0.8130
   15CHTO   N19 5961   6.692   3.993   1.047 -0.0515 -0.4153  0.2397
   15CHTO  H207 5962   6.628   4.022   0.965  0.6517 -1.0189 -0.5329
   15CHTO  H208 5963   6.635   3.912   1.090  1.9683 -0.5787  2.7263
   15CHTO   O74 5964   6.927   3.564   0.948  0.7210 -0.1844  0.2388
   15CHTO  C115 5965   6.868   3.470   0.830  0.0179 -0.2477 -0.1887
   15CHTO  H219 5966   6.818   3.532   0.755 -1.2206  1.1218  1.7500
   15CHTO   O76 5967   6.971   3.402   0.765  0.3192 -0.3086  0.2920
   15CHTO  C122 5968   7.043   3.320   0.855  0.0681 -0.0015 -0.0269
   15CHTO  H226 5969   7.080   3.379   0.938  2.0439 -1.4423  0.1391
   15CHTO  C126 5970   7.172   3.266   0.782 -0.0249  0.4921  0.2433
   15CHTO   O85 5971   7.274   3.363   0.771 -0.2939 -0.1190  0.8093
   15CHTO  H206 5972   7.347   3.327   0.724 -1.0118  1.1462 -1.3810
   15CHTO  C121 5973   6.957   3.202   0.926 -0.2650 -0.0335  0.4494
   15CHTO  H225 5974   6.997   3.106   0.889 -3.1785 -1.5186  1.0572
   15CHTO   O81 5975   6.974   3.205   1.068 -0.9193  0.0377 -0.4479
   15CHTO  H202 5976   7.062   3.232   1.085  0.3393 -2.9603 -1.8452
   15CHTO  C119 5977   6.810   3.220   0.886  0.3182  0.5111  0.0187
   15CHTO  H223 5978   6.811   3.193   0.780 -0.4894  1.8580 -0.3468
   15CHTO  C117 5979   6.763   3.370   0.893  0.2620 -0.1833  0.0451
   15CHTO  H221 5980   6.746   3.411   0.992 -3.4147  1.7719 -1.3066
   15CHTO   N20 5981   6.633   3.382   0.826 -0.0227  0.2542  0.0496
   15CHTO  H209 5982   6.638   3.365   0.719  2.0585  0.2307  0.1216
   15CHTO  H210 5983   6.569   3.462   0.857  0.5437  1.2805 -1.3586
   15CHTO   O80 5984   6.720   3.106   0.945  0.6721 -0.1734  0.1553
   15CHTO  C103 5985   6.665   2.990   0.851 -0.1423 -0.6896 -0.0839
   15CHTO  H190 5986   6.608   2.924   0.916  3.3776 -2.0482  1.7500
   15CHTO  C101 5987   6.573   3.040   0.731 -0.4637  0.3067 -0.0100
   15CHTO  H188 5988   6.620   3.119   0.674  0.2920 -1.3190 -1.6964
   15CHTO   O68 5989   6.441   3.101   0.808 -0.4399 -0.2079 -0.3960
   15CHTO  H168 5990   6.407   3.167   0.750  1.5121  2.5584  1.5081
   15CHTO   C99 5991   6.536   2.921   0.635  0.0616  0.1265 -0.2464
   15CHTO  H186 5992   6.472   2.852   0.693 -0.2903 -1.2114 -2.1897
   15CHTO   N17 5993   6.454   2.960   0.516 -0.5480 -0.0215  0.2585
   15CHTO  H174 5994   6.430   2.871   0.460 -0.7786  0.6950 -0.8128
   15CHTO  H175 5995   6.517   3.019   0.450 -1.0869 -0.7416 -0.9211
   15CHTO   C97 5996   6.666   2.846   0.596  0.2225  0.6251 -0.3157
   15CHTO  H184 5997   6.727   2.908   0.529  0.4494  2.0211  1.1561
   15CHTO   O64 5998   6.738   2.803   0.716 -0.0578  0.6547  0.4263
   15CHTO  C104 5999   6.787   2.902   0.797  0.6355  0.7273 -0.1010
   15CHTO  H191 6000   6.862   2.968   0.753  1.0521 -0.3148 -0.9721
   15CHTO  C108 6001   6.857   2.829   0.918  0.2880  0.3222 -0.1972
   15CHTO   O71 6002   6.949   2.731   0.867 -0.1873 -0.8075  0.2567
   15CHTO  H171 6003   6.994   2.703   0.945 -0.4271  2.7768  1.7812
   15CHTO   O62 6004   6.634   2.716   0.529 -0.3886  0.0566  0.0509
   15CHTO   C91 6005   6.739   2.665   0.448 -0.4903 -0.2718 -0.4121
   15CHTO  H178 6006   6.831   2.725   0.451  0.2472 -1.4461  0.9055
   15CHTO   C92 6007   6.695   2.668   0.299 -0.1527 -0.7225 -0.6947
   15CHTO  H179 6008   6.663   2.771   0.278 -2.6060 -0.5084  3.4803
   15CHTO   O66 6009   6.808   2.652   0.213 -0.1096  0.4316 -0.0123
   15CHTO  H166 6010   6.780   2.646   0.124  1.2543  0.5480 -0.4476
   15CHTO   C93 6011   6.587   2.563   0.268  0.2425  0.4204  0.4241
   15CHTO  H180 6012   6.598   2.531   0.163 -0.5724  0.6368  0.2680
   15CHTO   N16 6013   6.446   2.607   0.276  0.7034  0.2475  0.0496
   15CHTO  H172 6014   6.387   2.579   0.190 -0.8781 -1.1479  1.5409
   15CHTO  H173 6015   6.408   2.553   0.362  2.9128 -0.4530  0.6087
   15CHTO   C94 6016   6.611   2.438   0.354  0.0255  0.5340 -0.0607
   15CHTO  H181 6017   6.552   2.438   0.446 -0.5944  0.5477 -0.4539
   15CHTO   O61 6018   6.747   2.424   0.402  0.6473  0.1930 -0.1499
   15CHTO   C95 6019   6.783   2.522   0.497 -0.6900  0.2889 -0.3511
   15CHTO  H182 6020   6.729   2.507   0.591 -0.3383  1.0546 -0.0213
   15CHTO  C106 6021   6.938   2.498   0.538 -0.1709 -0.1890  0.4621
   15CHTO   O69 6022   6.970   2.588   0.640  0.2835  0.4490  0.3926
   15CHTO  H169 6023   7.064   2.590   0.643  0.3951 -0.3578 -1.5988
   15CHTO   O63 6024   6.574   2.311   0.270  0.4223  0.0422 -0.4172
   15CHTO   C96 6025   6.521   2.197   0.373 -0.2334  0.0656 -0.3484
   15CHTO  H183 6026   6.525   2.238   0.474  0.1881  0.8303 -0.6801
   15CHTO   C98 6027   6.610   2.071   0.359 -0.6914 -0.0210  0.3794
   15CHTO  H185 6028   6.631   2.054   0.253  3.2020 -0.1630  1.1016
   15CHTO   O67 6029   6.735   2.102   0.425  0.3142 -0.4543 -0.3907
   15CHTO  H167 6030   6.795   2.032   0.410  2.8033  1.4781  0.1975
   15CHTO  C102 6031   6.536   1.936   0.414  0.1239 -0.5813 -0.5301
   15CHTO  H189 6032   6.520   1.955   0.521  1.2620 -1.0937 -0.2651
   15CHTO   N18 6033   6.594   1.802   0.404  0.7791 -0.1078  0.6713
   15CHTO  H176 6034   6.558   1.731   0.477 -1.0845 -1.3866 -1.4401
   15CHTO  H177 6035   6.702   1.804   0.412  0.7722 -1.7434  1.4832
   15CHTO  C105 6036   6.387   1.932   0.353 -0.0010 -1.1873  0.5749
   15CHTO  H192 6037   6.392   1.949   0.245  1.4566 -0.2664  0.7665
   15CHTO   O65 6038   6.317   2.042   0.402 -0.1807  0.5962  0.0977
   15CHTO  C100 6039   6.371   2.162   0.343  0.3913 -0.0542 -0.2849
   15CHTO  H187 6040   6.362   2.156   0.233  1.1025  0.3716 -0.3724
   15CHTO  C107 6041   6.274   2.276   0.399  0.3598 -0.3173 -0.3524
   15CHTO   O70 6042   6.137   2.260   0.354  0.3192 -0.2936  0.2018
   15CHTO  H170 6043   6.138   2.272   0.261  0.3344  0.0436  0.2428
   15CHTO   O57 6044   6.298   1.795   0.383 -0.4818 -0.1343 -0.0538
   15CHTO   C85 6045   6.263   1.773   0.524  0.5394 -0.6216  0.3559
   15CHTO  H157 6046   6.321   1.849   0.582  1.7652 -1.4172  0.1857
   15CHTO   C83 6047   6.310   1.640   0.570  0.7867  0.0933 -0.1587
   15CHTO  H155 6048   6.419   1.646   0.565  1.1074 -1.6969  3.1275
   15CHTO   O56 6049   6.273   1.539   0.474  0.2689 -0.7018 -0.4727
   15CHTO  H135 6050   6.301   1.565   0.389  1.5740 -2.7995 -0.7315
   15CHTO   C81 6051   6.267   1.631   0.719  0.7756 -0.0768 -0.7118
   15CHTO  H153 6052   6.317   1.710   0.776 -1.9402  1.4423 -0.3463
   15CHTO   N14 6053   6.328   1.515   0.780  0.2033 -0.0047 -0.4745
   15CHTO  H141 6054   6.288   1.497   0.877  1.2258  0.8306  0.1140
   15CHTO  H142 6055   6.327   1.425   0.722  0.9237 -0.0494 -0.4280
   15CHTO   C79 6056   6.114   1.648   0.747  0.3877  0.4417  0.4734
   15CHTO  H151 6057   6.103   1.659   0.854 -1.2645 -0.5861  0.4256
   15CHTO   O52 6058   6.062   1.770   0.686  0.3057  0.6260 -0.9123
   15CHTO   C86 6059   6.104   1.786   0.548  0.0096 -0.6765  0.9560
   15CHTO  H158 6060   6.051   1.701   0.501  0.9680  0.4081 -2.1825
   15CHTO   C90 6061   6.045   1.915   0.486 -0.1971  0.2167 -0.1749
   15CHTO   O60 6062   5.903   1.897   0.491  0.4330  0.0868 -0.4014
   15CHTO  H138 6063   5.863   1.971   0.449  1.0538  1.6766  1.7456
   15CHTO   O50 6064   6.049   1.532   0.694  0.3772 -0.9361 -0.4549
   15CHTO   C73 6065   5.929   1.450   0.708 -0.1204 -0.0731  0.7858
   15CHTO  H145 6066   5.840   1.499   0.667  0.3282 -0.0986 -0.2154
   15CHTO   C74 6067   5.913   1.418   0.863 -0.6099  0.1089  0.0140
   15CHTO  H146 6068   5.892   1.507   0.924 -0.4927 -0.1195  0.3923
   15CHTO   O54 6069   5.790   1.344   0.859  0.4567 -0.5303 -0.3487
   15CHTO  H133 6070   5.755   1.346   0.945 -3.6252  2.7373 -1.9276
   15CHTO   C75 6071   6.038   1.335   0.918  0.5653  0.3497  0.8057
   15CHTO  H147 6072   6.121   1.406   0.930 -0.8949  2.1818  0.2273
   15CHTO   N13 6073   6.002   1.266   1.044  0.1410 -0.4045 -0.4844
   15CHTO  H139 6074   5.925   1.191   1.032  0.1332 -0.3447 -0.8247
   15CHTO  H140 6075   6.088   1.223   1.094  1.0835  0.5978 -1.2270
   15CHTO   C76 6076   6.082   1.215   0.802  0.3028  0.3913  0.5943
   15CHTO  H148 6077   6.015   1.129   0.806  0.1113  0.4199 -1.5742
   15CHTO   O49 6078   6.083   1.269   0.665  0.4188 -0.0887 -0.1189
   15CHTO   C77 6079   5.955   1.324   0.629  0.0551  0.3478 -0.5170
   15CHTO  H149 6080   5.874   1.254   0.646 -1.5610  2.2293 -0.1960
   15CHTO   C88 6081   5.955   1.348   0.475  0.6036 -0.4283 -0.3152
   15CHTO   O58 6082   5.849   1.328   0.418 -0.0496 -0.7071 -0.2656
   15CHTO  H136 6083   5.829   1.410   0.377  0.0547  0.7091  2.3812
   15CHTO   O51 6084   6.234   1.160   0.827  0.3622 -0.4624  0.4754
   15CHTO   C78 6085   6.279   1.046   0.749 -0.4777 -0.3349 -0.2465
   15CHTO  H150 6086   6.202   1.027   0.671 -0.0007  1.0191 -1.0633
   15CHTO   C80 6087   6.296   0.923   0.842 -0.1081 -0.2088 -0.5706
   15CHTO  H152 6088   6.348   0.955   0.934 -0.4554  2.5497 -1.2864
   15CHTO   O55 6089   6.168   0.886   0.890  0.3362 -0.2690  0.3794
   15CHTO  H134 6090   6.147   0.922   0.974 -3.6311  0.9077 -0.9858
   15CHTO   C84 6091   6.358   0.803   0.772  0.0635  0.5445 -0.1181
   15CHTO  H156 6092   6.301   0.780   0.682  0.7731 -1.3389 -0.1150
   15CHTO   N15 6093   6.379   0.690   0.868  0.3378  0.1439 -0.0593
   15CHTO  H143 6094   6.417   0.610   0.809 -0.4728 -0.6577  0.4998
   15CHTO  H144 6095   6.280   0.662   0.895  1.3927 -2.6986  1.0445
   15CHTO   C87 6096   6.499   0.855   0.718 -0.2474 -0.0616  0.0178
   15CHTO  H159 6097   6.558   0.899   0.798  0.7439 -0.3053 -0.5697
   15CHTO   O53 6098   6.467   0.962   0.622 -0.1450  0.1692  0.1187
   15CHTO   C82 6099   6.417   1.080   0.683  0.3579  0.3938 -0.4797
   15CHTO  H154 6100   6.487   1.122   0.755 -0.6768 -0.5718  1.1058
   15CHTO   C89 6101   6.411   1.175   0.567 -0.0620  0.5090 -0.7785
   15CHTO   O59 6102   6.541   1.235   0.535 -0.6774  0.0120 -0.0921
   15CHTO  H137 6103   6.568   1.300   0.598  0.7842 -0.6966  0.0337
   15CHTO   O45 6104   6.580   0.768   0.630  0.4039  0.1544  0.5596
   15CHTO   C67 6105   6.728   0.770   0.655  0.1851  0.0363  0.3528
   15CHTO  H124 6106   6.749   0.874   0.678  2.0808  0.4586 -2.8852
   15CHTO   C65 6107   6.774   0.670   0.765  0.4232  0.2040  0.3328
   15CHTO  H122 6108   6.698   0.592   0.758  0.0827  0.5725 -0.0900
   15CHTO   O44 6109   6.753   0.727   0.892  0.6281  0.3147 -1.0201
   15CHTO  H102 6110   6.670   0.769   0.902  0.1563 -1.0623  1.0203
   15CHTO   C63 6111   6.917   0.600   0.730 -0.0836 -0.0575 -0.5509
   15CHTO  H120 6112   6.899   0.517   0.662 -2.7793 -0.7755  0.9671
   15CHTO   N11 6113   6.970   0.521   0.848 -0.4376  0.2796  0.2720
   15CHTO  H108 6114   6.947   0.417   0.833 -0.3074  0.3470 -0.3930
   15CHTO  H109 6115   7.075   0.531   0.860 -0.5870  1.6072  0.5713
   15CHTO   C61 6116   7.008   0.710   0.662 -0.7685 -0.2933  0.3985
   15CHTO  H118 6117   7.091   0.648   0.625  0.1798  1.7934 -1.1124
   15CHTO   O40 6118   6.950   0.766   0.542 -0.1306  0.2258 -0.1683
   15CHTO   C68 6119   6.807   0.747   0.522  0.2588  0.4010  0.2006
   15CHTO  H125 6120   6.786   0.643   0.488  2.5482 -0.0766  0.2059
   15CHTO   C72 6121   6.760   0.849   0.411  0.2765 -0.4886 -0.5545
   15CHTO   O48 6122   6.720   0.985   0.451  0.7742 -0.0353  0.0818
   15CHTO  H105 6123   6.685   0.985   0.538 -1.1452  1.9377 -0.6500
   15CHTO   O38 6124   7.041   0.818   0.762 -0.0477  0.2720  0.0047
   15CHTO   C55 6125   7.147   0.902   0.710 -0.7527 -0.6029  0.5178
   15CHTO  H112 6126   7.162   0.886   0.602 -0.4923 -1.1118  0.6291
   15CHTO   C56 6127   7.288   0.866   0.785  0.1021  0.1552  0.9619
   15CHTO  H113 6128   7.276   0.870   0.894 -2.1935 -1.8596  0.8323
   15CHTO   O42 6129   7.321   0.733   0.747  0.1584 -0.2538 -0.0586
   15CHTO  H100 6130   7.412   0.714   0.760  1.0104  1.5316 -2.9229
   15CHTO   C57 6131   7.396   0.970   0.737  0.2102 -0.6092 -0.3611
   15CHTO  H114 6132   7.420   0.961   0.631 -0.2303 -1.6237 -0.3781
   15CHTO   N10 6133   7.527   0.949   0.808 -0.2373 -0.2836 -0.0151
   15CHTO  H106 6134   7.616   0.962   0.748 -0.2953  3.9953  0.7146
   15CHTO  H107 6135   7.537   1.000   0.903 -3.7066  0.8541 -0.1983
   15CHTO   C58 6136   7.345   1.114   0.758  0.0222  0.7089 -0.8045
   15CHTO  H115 6137   7.319   1.128   0.865 -0.5307  2.3660 -1.1466
   15CHTO   O37 6138   7.221   1.144   0.691  0.8012  0.5239 -0.1545
   15CHTO   C59 6139   7.105   1.058   0.716 -0.3795  0.7495 -0.5094
   15CHTO  H116 6140   7.051   1.080   0.808 -1.2274  1.0404 -1.0631
   15CHTO   C70 6141   7.005   1.090   0.608  0.1733 -0.1445  0.3478
   15CHTO   O46 6142   6.951   1.219   0.630  0.2334 -0.0872 -0.4237
   15CHTO  H103 6143   7.011   1.281   0.594 -0.2467  0.7071  0.1402
   15CHTO   O39 6144   7.475   1.234   0.722 -0.0428  0.1824  0.4116
   15CHTO   C60 6145   7.452   1.291   0.592  0.3079  0.1534 -0.0332
   15CHTO  H117 6146   7.406   1.216   0.527  1.4400 -0.1941 -0.4457
   15CHTO   C62 6147   7.363   1.424   0.616  0.6847 -0.3508 -0.6295
   15CHTO  H119 6148   7.272   1.391   0.670  0.4643  0.2171 -0.6471
   15CHTO   O43 6149   7.433   1.516   0.705  0.4272  0.2893 -0.7248
   15CHTO  H101 6150   7.500   1.568   0.666  1.5470  1.6541  2.8466
   15CHTO   C66 6151   7.321   1.492   0.478  0.0226  0.8254  0.0382
   15CHTO  H123 6152   7.272   1.416   0.417  0.8072  0.8323 -0.6034
   15CHTO   N12 6153   7.240   1.613   0.487 -0.2262  0.3891  0.1921
   15CHTO  H110 6154   7.150   1.601   0.428 -0.3759  2.1859  0.0288
   15CHTO  H111 6155   7.220   1.648   0.587 -0.3937 -0.0844  0.3250
   15CHTO   C69 6156   7.450   1.523   0.405 -0.2817 -0.4799  0.4466
   15CHTO  H126 6157   7.507   1.601   0.458  0.6046 -1.2830  0.6878
   15CHTO   O41 6158   7.539   1.376   0.401 -0.3337 -0.4464  0.2201
   15CHTO   C64 6159   7.581   1.337   0.521 -0.0729 -0.3871 -0.9421
   15CHTO  H121 6160   7.618   1.427   0.573 -1.0835  0.3011 -1.4012
   15CHTO   C71 6161   7.690   1.229   0.513 -0.3675 -0.0967 -0.2684
   15CHTO   O47 6162   7.822   1.272   0.498  0.4510  0.1872  0.4415
   15CHTO  H104 6163   7.827   1.305   0.410 -0.8482 -0.1997  0.2094
   15CHTO   O34 6164   7.421   1.586   0.246 -0.1521  0.1967  0.2081
   15CHTO   C49 6165   7.439   1.675   0.099 -0.1561 -0.1104  0.0245
   15CHTO   H91 6166   7.503   1.616   0.034 -0.5313 -1.3771  0.7896
   15CHTO   C47 6167   7.518   1.806   0.140  0.1907  1.2371  0.2952
   15CHTO   H89 6168   7.542   1.870   0.053 -1.4286 -1.7804 -2.4919
   15CHTO   O33 6169   7.639   1.761   0.207  0.4324 -0.0029  0.7425
   15CHTO   H70 6170   7.688   1.839   0.223 -0.7424  0.3302  2.8471
   15CHTO   C45 6171   7.421   1.889   0.244 -0.3740 -0.2681  1.0992
   15CHTO   H87 6172   7.397   1.826   0.332 -2.2349 -1.5195 -0.2651
   15CHTO    N8 6173   7.485   2.014   0.294  0.2435 -0.5187  0.2457
   15CHTO   H75 6174   7.527   2.062   0.207 -3.7350 -0.1439 -1.6105
   15CHTO   H76 6175   7.414   2.081   0.339  1.3086  0.9595 -0.2561
   15CHTO   C43 6176   7.278   1.912   0.166 -0.2872  0.5308 -0.5166
   15CHTO   H85 6177   7.220   1.958   0.246  2.2867 -1.5536  2.6962
   15CHTO   O29 6178   7.214   1.792   0.114 -0.1041 -0.3505  0.8688
   15CHTO   C50 6179   7.304   1.714   0.033  0.2716  0.5570 -0.2231
   15CHTO   H92 6180   7.256   1.616   0.020 -2.5769  2.0444 -1.1939
   15CHTO   C54 6181   7.323   1.773  -0.113  0.7260  0.1438 -0.0298
   15CHTO   O36 6182   7.195   1.763  -0.187 -0.3158  0.0344 -0.2856
   15CHTO   H72 6183   7.152   1.680  -0.195 -2.9725  1.4453 -1.4596
   15CHTO   O27 6184   7.278   2.012   0.062 -0.5225  0.1038  0.4116
   15CHTO   C37 6185   7.187   2.095  -0.010  0.2217 -0.7435 -0.0790
   15CHTO   H79 6186   7.135   2.038  -0.089 -0.3982 -0.2433 -0.0394
   15CHTO   C38 6187   7.076   2.152   0.079 -0.0885  0.6574 -0.5253
   15CHTO   H80 6188   7.126   2.206   0.161 -0.5180  2.2328 -1.2830
   15CHTO   O31 6189   6.994   2.042   0.129  0.5061 -0.2556 -0.3534
   15CHTO   H68 6190   6.920   2.036   0.072  1.1041  0.2587 -1.1867
   15CHTO   C39 6191   6.984   2.248   0.002  0.5295 -0.4734  0.5851
   15CHTO   H81 6192   6.919   2.181  -0.055 -2.6444 -0.7221  4.3032
   15CHTO    N7 6193   6.884   2.314   0.092  0.1314  0.1738  0.4277
   15CHTO   H73 6194   6.864   2.420   0.084 -0.3708  0.0665  0.2152
   15CHTO   H74 6195   6.893   2.288   0.197  2.8469 -0.1823  0.1389
   15CHTO   C40 6196   7.056   2.344  -0.100  0.5359  0.4781 -0.5099
   15CHTO   H82 6197   7.085   2.433  -0.043  2.0234  0.4021 -1.1296
   15CHTO   O26 6198   7.163   2.282  -0.164  0.4586  0.4826 -0.1439
   15CHTO   C41 6199   7.259   2.213  -0.084  0.2795  0.1644  0.2483
   15CHTO   H83 6200   7.296   2.286  -0.010 -0.1701 -1.3138  1.9795
   15CHTO   C52 6201   7.373   2.155  -0.170  0.3827 -0.5556 -0.3718
   15CHTO   O35 6202   7.459   2.263  -0.239 -0.3114  0.4191  0.5704
   15CHTO   H71 6203   7.544   2.234  -0.212 -1.4863 -1.9012  1.9484
   15CHTO   O28 6204   6.969   2.392  -0.200  0.1593  0.6469  0.4235
   15CHTO   C42 6205   6.979   2.510  -0.291 -0.0599  0.7977  0.6174
   15CHTO   H84 6206   6.927   2.493  -0.385  0.7440  2.1073 -0.0840
   15CHTO   C44 6207   7.123   2.540  -0.333 -0.4862 -0.3906 -0.3655
   15CHTO   H86 6208   7.182   2.549  -0.242 -3.1612  0.0378  1.3843
   15CHTO   O32 6209   7.169   2.424  -0.405  0.4083  0.1042 -0.1055
   15CHTO   H69 6210   7.137   2.420  -0.493  0.8628  0.4477 -0.2933
   15CHTO   C48 6211   7.139   2.664  -0.431 -0.3752  0.7738  0.7743
   15CHTO   H90 6212   7.109   2.626  -0.528  0.5759  0.7902  0.4683
   15CHTO    N9 6213   7.284   2.700  -0.448 -0.4814 -0.4530 -0.1549
   15CHTO   H77 6214   7.292   2.798  -0.493 -0.2517  0.7717  2.4501
   15CHTO   H78 6215   7.335   2.689  -0.354 -1.6024  0.5519  0.5951
   15CHTO   C51 6216   7.059   2.791  -0.369 -0.0617 -0.2468 -0.4450
   15CHTO   H93 6217   7.109   2.833  -0.282  2.1319  0.3002 -1.9201
   15CHTO   O30 6218   6.925   2.748  -0.344 -0.0418 -0.2917 -0.2246
   15CHTO   C46 6219   6.919   2.636  -0.225  0.3404 -0.1726  0.3961
   15CHTO   H88 6220   6.985   2.657  -0.140 -1.3523 -0.5879  1.8292
   15CHTO   C53 6221   6.775   2.617  -0.190 -0.6775 -0.2469  0.3928
   15CHTO   O72 6222   6.729   2.740  -0.123 -0.1920  0.6553 -0.3207
   15CHTO  H199 6223   6.710   2.806  -0.187 -2.9304 -0.3310 -0.5741
   15CHTO   O22 6224   7.052   2.898  -0.470  0.1660 -0.0662  0.2218
   15CHTO   C31 6225   6.992   3.033  -0.438 -0.6233 -0.4019  0.6199
   15CHTO   H59 6226   7.003   3.094  -0.531 -0.2773 -1.6612 -0.1885
   15CHTO   C29 6227   6.839   3.043  -0.395 -0.1060 -0.1619  0.2415
   15CHTO   H57 6228   6.822   2.976  -0.310 -2.1423 -0.0748 -0.0832
   15CHTO   O21 6229   6.764   2.994  -0.510  0.0103 -0.0464 -0.4664
   15CHTO   H37 6230   6.804   3.033  -0.585 -0.5619  1.2085 -0.1254
   15CHTO   C27 6231   6.788   3.187  -0.359 -0.1507 -0.0808 -0.4991
   15CHTO   H55 6232   6.803   3.260  -0.440 -3.1869  1.7008  0.5022
   15CHTO    N5 6233   6.651   3.189  -0.308  0.7963 -0.4350 -0.6534
   15CHTO   H43 6234   6.614   3.093  -0.276 -2.8106  1.0342 -0.1221
   15CHTO   H44 6235   6.646   3.259  -0.226 -1.1475 -0.3656 -0.8129
   15CHTO   C25 6236   6.887   3.245  -0.250 -0.0601  0.1017  0.6239
   15CHTO   H53 6237   6.874   3.176  -0.165  0.9730  0.1082  0.7966
   15CHTO   O17 6238   7.024   3.233  -0.299 -0.2063  0.2180 -0.0248
   15CHTO   C32 6239   7.075   3.103  -0.331 -0.5453 -0.3806  0.1021
   15CHTO   H60 6240   7.081   3.034  -0.247 -0.9662 -0.5880 -0.0392
   15CHTO   C36 6241   7.218   3.132  -0.386  0.1888 -0.0224 -0.1773
   15CHTO   O25 6242   7.300   3.184  -0.286 -0.1812  0.0171 -0.8370
   15CHTO   H40 6243   7.377   3.209  -0.334 -0.0961  1.2654 -0.0755
   15CHTO   O15 6244   6.858   3.370  -0.214  0.2730  0.3500  0.4322
   15CHTO   C19 6245   6.880   3.481  -0.114 -0.5581 -0.1450  0.6224
   15CHTO   H47 6246   6.937   3.554  -0.174 -0.0227  0.6106  2.0398
   15CHTO   C20 6247   6.741   3.530  -0.062 -0.2246 -0.4639 -0.5762
   15CHTO   H48 6248   6.697   3.456   0.007 -1.0684 -2.2597 -2.9637
   15CHTO   O19 6249   6.661   3.557  -0.177 -0.4467  0.1326 -0.2834
   15CHTO   H35 6250   6.591   3.497  -0.191  0.1858 -0.3787 -1.3587
   15CHTO   C21 6251   6.767   3.674   0.007 -0.2115  0.4278 -0.2596
   15CHTO   H49 6252   6.837   3.728  -0.057 -0.2896  1.2081  0.3042
   15CHTO    N4 6253   6.647   3.764   0.027  0.0866 -0.2500  0.2844
   15CHTO   H41 6254   6.563   3.699   0.004 -0.0709 -0.1707  0.6246
   15CHTO   H42 6255   6.630   3.808   0.124  0.9882 -1.4833  1.0273
   15CHTO   C22 6256   6.848   3.626   0.130 -1.0919 -0.2832 -0.2482
   15CHTO   H50 6257   6.778   3.560   0.182 -3.7618  1.8044 -1.0402
   15CHTO   O14 6258   6.975   3.558   0.090 -0.2670 -0.4268 -0.5342
   15CHTO   C23 6259   6.966   3.447   0.004  0.3077  0.1395 -0.2230
   15CHTO   H51 6260   6.931   3.358   0.058  0.0433  0.9217  0.9118
   15CHTO   C34 6261   7.114   3.401  -0.036  0.1126  0.8470  0.4935
   15CHTO   O23 6262   7.164   3.488  -0.132 -0.2364  0.0115  0.4847
   15CHTO   H38 6263   7.185   3.566  -0.085 -0.8827  1.3267 -1.3566
   15CHTO   O16 6264   6.892   3.734   0.218  0.2351  0.7419  0.0671
   15CHTO   C24 6265   6.901   3.699   0.370  0.0969  0.1014  0.4441
   15CHTO   H52 6266   6.868   3.596   0.386  2.0711 -0.6973 -0.5480
   15CHTO   C26 6267   6.804   3.799   0.437  0.0899  0.1457  0.1406
   15CHTO   H54 6268   6.705   3.801   0.387 -0.2724  0.5755  0.8734
   15CHTO   O20 6269   6.763   3.736   0.559 -0.1514  0.5786  0.4671
   15CHTO   H36 6270   6.675   3.761   0.579  0.2270  1.2199  1.3362
   15CHTO   C30 6271   6.853   3.947   0.448  0.7489 -0.1070  0.2568
   15CHTO   H58 6272   6.814   3.996   0.538  0.4385 -0.9828  0.6082
   15CHTO    N6 6273   6.805   4.040   0.339 -0.1749  0.1470 -0.2675
   15CHTO   H45 6274   6.842   4.025   0.239  0.8366  0.4925  0.0554
   15CHTO   H46 6275   6.698   4.029   0.331 -0.2911  1.3910 -0.4624
   15CHTO   C33 6276   7.011   3.961   0.460  0.8219 -0.3723  0.5767
   15CHTO   H61 6277   7.063   3.978   0.365  1.8151  1.9005  1.4977
   15CHTO   O18 6278   7.069   3.840   0.513 -0.4825  0.0238  0.1447
   15CHTO   C28 6279   7.043   3.719   0.431 -0.1248  0.1962 -0.3549
   15CHTO   H56 6280   7.114   3.723   0.349 -0.4946  0.2326 -0.6767
   15CHTO   C35 6281   7.084   3.587   0.498  0.4391 -1.3217  0.4634
   15CHTO   O24 6282   7.224   3.575   0.525  0.1437  0.4243 -1.0311
   15CHTO   H39 6283   7.242   3.599   0.614  3.1019 -4.7932  0.0022
   15CHTO    O9 6284   7.044   4.081   0.543 -0.4421 -0.3588 -0.3592
   15CHTO   C13 6285   7.201   4.144   0.545  0.2249 -0.1562 -0.1232
   15CHTO   H26 6286   7.184   4.253   0.533 -0.9510 -0.4078 -0.7679
   15CHTO   C11 6287   7.303   4.090   0.433  0.2588 -1.2779  0.4035
   15CHTO   H24 6288   7.243   4.105   0.343  1.0743 -0.6461 -0.0458
   15CHTO    O8 6289   7.324   3.951   0.440 -0.2202 -0.2766 -0.1988
   15CHTO    H3 6290   7.265   3.913   0.503 -1.8057 -0.2123 -1.6265
   15CHTO    C9 6291   7.436   4.171   0.431  0.5682 -0.5981 -0.4820
   15CHTO   H22 6292   7.407   4.276   0.423  3.1231  0.0929 -0.9496
   15CHTO    N2 6293   7.526   4.145   0.314  0.0637  0.3207  0.1095
   15CHTO   H10 6294   7.625   4.131   0.354  0.5193  2.0059 -0.4224
   15CHTO   H11 6295   7.497   4.067   0.244  0.4920  2.0761 -2.0511
   15CHTO    C7 6296   7.501   4.153   0.584 -0.0394  0.4622  0.4585
   15CHTO   H20 6297   7.588   4.222   0.589  1.7857 -1.7861  0.5915
   15CHTO    O4 6298   7.406   4.185   0.683  0.4091 -0.2192  0.1988
   15CHTO   C14 6299   7.271   4.138   0.693 -0.3341  0.2808  1.0787
   15CHTO   H27 6300   7.211   4.207   0.756 -2.4178 -1.9102  1.5954
   15CHTO   C18 6301   7.274   4.001   0.764 -0.0894 -0.5206  0.5123
   15CHTO   O13 6302   7.143   3.953   0.787 -0.1527  0.2472  0.5114
   15CHTO    H7 6303   7.083   3.952   0.715  1.6168 -0.4537 -0.9753
   15CHTO    O2 6304   7.584   3.994   0.609  0.2983 -0.4670 -0.1890
   15CHTO    C1 6305   7.653   3.985   0.733 -0.8412  0.4031 -0.1358
   15CHTO   H14 6306   7.594   4.042   0.808 -1.2117  0.2649 -0.3204
   15CHTO    C2 6307   7.803   4.038   0.730  0.5409  0.6562  0.1459
   15CHTO   H15 6308   7.860   3.967   0.667 -0.9592  1.4217 -2.1118
   15CHTO    O6 6309   7.807   4.172   0.666 -0.3314  0.4352 -1.0468
   15CHTO    H1 6310   7.841   4.160   0.579 -0.7619  0.1332 -1.1756
   15CHTO    C3 6311   7.864   4.037   0.883  0.3419 -0.0519 -0.3279
   15CHTO   H16 6312   7.796   4.108   0.934 -2.6874 -0.1574 -4.0118
   15CHTO    N1 6313   8.003   4.090   0.892 -0.1839  0.0154 -0.3998
   15CHTO    H8 6314   8.021   4.151   0.979 -1.0160  2.5448 -1.9493
   15CHTO    H9 6315   8.021   4.144   0.800  0.1241  0.5605 -0.0223
   15CHTO    C4 6316   7.838   3.898   0.950  0.3430 -0.2843  0.3271
   15CHTO   H17 6317   7.916   3.831   0.914  0.4243  0.1160 -0.2508
   15CHTO    O1 6318   7.710   3.845   0.921 -0.8987  0.1561  0.2073
   15CHTO    C5 6319   7.673   3.835   0.783  0.5885  0.4838  0.1973
   15CHTO   H18 6320   7.752   3.788   0.724  0.9766  0.3501  0.8187
   15CHTO   C16 6321   7.545   3.745   0.770 -0.5753  0.0613  0.3125
   15CHTO   O11 6322   7.523   3.711   0.632  0.9368  0.2486 -0.7712
   15CHTO    H5 6323   7.437   3.680   0.615  1.1601 -0.0731 -1.3327
   15CHTO    O3 6324   7.832   3.909   1.096  0.0369 -0.4121  0.1339
   15CHTO    C6 6325   7.831   3.791   1.175  0.3670 -0.5244 -0.0033
   15CHTO   H19 6326   7.796   3.708   1.113 -0.8666  0.1529 -0.2316
   15CHTO    C8 6327   7.971   3.749   1.230  0.2488  0.5578  0.0573
   15CHTO   H21 6328   8.007   3.830   1.294 -1.7301  0.0121  1.9250
   15CHTO    O7 6329   8.061   3.732   1.115 -0.2144 -0.0054 -0.0220
   15CHTO    H2 6330   8.033   3.657   1.067 -0.1506  0.6435 -1.0832
   15CHTO   C12 6331   7.960   3.618   1.313  0.6793  0.1712 -0.2977
   15CHTO   H25 6332   7.922   3.539   1.245  2.4572 -0.8562 -0.1391
   15CHTO    N3 6333   8.094   3.571   1.366 -0.2731 -0.9702  0.7238
   15CHTO   H12 6334   8.129   3.650   1.431 -0.5998  1.1273 -1.5981
   15CHTO   H13 6335   8.077   3.480   1.423 -0.3517 -1.5283 -0.1913
   15CHTO   C15 6336   7.859   3.641   1.428  0.2232  1.3987  0.5729
   15CHTO   H28 6337   7.890   3.725   1.490 -0.0085  0.6264  1.7629
   15CHTO   O10 6338   7.813   3.510   1.497 -0.3491 -0.1893 -0.7693
   15CHTO    H4 6339   7.884   3.457   1.527  0.6779  0.6583 -1.6861
   15CHTO    O5 6340   7.733   3.679   1.364 -0.0462  0.2099  0.0403
   15CHTO   C10 6341   7.728   3.803   1.284 -0.7102  0.5671 -0.2660
   15CHTO   H23 6342   7.745   3.884   1.356  2.7805 -1.1500  0.9806
   15CHTO   C17 6343   7.587   3.812   1.222 -0.4787  0.1173 -0.2863
   15CHTO   O12 6344   7.479   3.809   1.325 -0.7537 -0.2421  0.0517
   15CHTO    H6 6345   7.485   3.888   1.373  1.5288 -0.3833  0.0463
   16CHTO  H203 6346   5.722   3.858  -0.058  0.9609  0.2137  0.1385
   16CHTO   O82 6347   5.769   3.781  -0.030  0.2045 -0.2509  0.1528
   16CHTO  C123 6348   5.858   3.825   0.073  0.0079 -0.2591 -0.1970
   16CHTO  H227 6349   5.813   3.912   0.123 -0.3997 -0.3966 -0.3274
   16CHTO   O77 6350   5.859   3.712   0.166 -0.0361  0.3454  0.0768
   16CHTO  C118 6351   5.951   3.705   0.279  0.2756  0.1158 -0.6864
   16CHTO  H222 6352   5.929   3.779   0.357  1.1322 -1.4334  1.0653
   16CHTO  C125 6353   5.917   3.564   0.331  0.2974 -0.8521  0.4947
   16CHTO   O84 6354   5.955   3.564   0.469 -0.0857  0.4830 -0.0494
   16CHTO  H205 6355   5.897   3.610   0.526  0.6059 -0.7783  1.7393
   16CHTO  C114 6356   6.096   3.708   0.218  0.4945 -0.4974 -0.7064
   16CHTO  H218 6357   6.105   3.622   0.151  0.6748 -1.4657  0.5443
   16CHTO  C116 6358   6.115   3.832   0.130  0.9250 -0.8985  0.1896
   16CHTO  H220 6359   6.124   3.923   0.193 -0.7229  0.1609 -1.0447
   16CHTO   O79 6360   6.244   3.825   0.064  0.1641  0.7523  0.4524
   16CHTO  H201 6361   6.278   3.911   0.049  0.3768  0.4899 -0.6224
   16CHTO  C120 6362   6.007   3.847   0.019 -0.1639 -1.0502  0.0020
   16CHTO  H224 6363   6.020   3.769  -0.058 -2.7345  0.0998 -1.6590
   16CHTO   N21 6364   6.011   3.973  -0.056  0.4759  0.0855  0.7045
   16CHTO  H211 6365   6.049   3.964  -0.157 -2.7481  2.1672 -0.7760
   16CHTO  H212 6366   5.933   4.047  -0.048 -0.7042 -1.1043  0.2347
   16CHTO   O75 6367   6.181   3.696   0.333 -0.3840  0.1118 -0.1439
   16CHTO  C112 6368   6.331   3.625   0.309  0.6603  0.7797  0.5979
   16CHTO  H216 6369   6.397   3.695   0.256  0.0940 -0.6571 -2.0716
   16CHTO   O73 6370   6.307   3.508   0.233  0.0070  0.1069  0.1206
   16CHTO  C113 6371   6.427   3.440   0.200 -0.3691 -0.5579 -0.1663
   16CHTO  H217 6372   6.489   3.505   0.136 -1.1276 -1.1693 -1.5367
   16CHTO  C124 6373   6.382   3.327   0.105 -0.1353 -0.5244  0.2291
   16CHTO   O83 6374   6.294   3.227   0.164 -1.2768  0.5615 -0.1160
   16CHTO  H204 6375   6.236   3.188   0.101  0.1824 -0.5070 -0.8195
   16CHTO  C109 6376   6.510   3.392   0.323 -0.0521  0.0441  0.4498
   16CHTO  H213 6377   6.453   3.311   0.372 -1.6836  1.8719  1.6578
   16CHTO  C110 6378   6.529   3.516   0.414 -0.2277  0.0924  0.1407
   16CHTO  H214 6379   6.606   3.582   0.374  0.7232  0.3035  2.2202
   16CHTO   O78 6380   6.592   3.478   0.545  0.7278  0.0610  0.3427
   16CHTO  H200 6381   6.609   3.552   0.600 -0.4752 -0.1563  1.0337
   16CHTO  C111 6382   6.397   3.588   0.444  0.5092  0.3271  0.0463
   16CHTO  H215 6383   6.331   3.521   0.500 -0.0617 -0.3039 -1.3611
   16CHTO   N19 6384   6.415   3.714   0.522 -0.1488  0.8785 -0.2276
   16CHTO  H207 6385   6.340   3.785   0.492  0.4347  1.6100  0.0428
   16CHTO  H208 6386   6.513   3.757   0.531 -1.5409  4.0131  0.5196
   16CHTO   O74 6387   6.639   3.337   0.282 -0.1369 -0.3530  0.5340
   16CHTO  C115 6388   6.668   3.212   0.331 -0.4221  0.4896 -0.8290
   16CHTO  H219 6389   6.621   3.198   0.428 -1.2456 -0.9955 -1.4212
   16CHTO   O76 6390   6.618   3.098   0.238 -0.0326  0.0840 -0.7376
   16CHTO  C122 6391   6.677   3.081   0.111  0.7563 -0.3835  0.1521
   16CHTO  H226 6392   6.673   3.176   0.059 -0.6803 -2.1549 -3.0868
   16CHTO  C126 6393   6.596   2.980   0.019  0.2983  0.6467 -0.2072
   16CHTO   O85 6394   6.448   2.978  -0.008  0.0709 -0.1874  0.0800
   16CHTO  H206 6395   6.409   2.943   0.070  0.5397  0.2836  0.5284
   16CHTO  C121 6396   6.822   3.030   0.134  0.9606 -0.1688  0.9695
   16CHTO  H225 6397   6.821   2.922   0.109  0.1805 -0.0881  0.6570
   16CHTO   O81 6398   6.909   3.093   0.042  0.1972 -0.5772 -0.1371
   16CHTO  H202 6399   6.892   3.184   0.028  1.1911 -0.2332  0.8884
   16CHTO  C119 6400   6.868   3.049   0.286 -0.2318  0.0391 -0.4939
   16CHTO  H223 6401   6.821   2.972   0.346  0.8787 -0.0287  0.3022
   16CHTO  C117 6402   6.831   3.192   0.332 -0.4536 -0.7013 -0.0300
   16CHTO  H221 6403   6.870   3.279   0.279  1.0806  0.1936  2.4616
   16CHTO   N20 6404   6.876   3.215   0.474  0.0882 -0.3616 -0.0365
   16CHTO  H209 6405   6.951   3.144   0.507 -2.3226 -2.1212  1.8366
   16CHTO  H210 6406   6.870   3.321   0.496  4.0848 -0.5297  2.4101
   16CHTO   O80 6407   7.027   3.007   0.307 -0.7869  0.0193  0.0179
   16CHTO  C103 6408   7.071   2.864   0.306  0.2059  0.0426 -0.1800
   16CHTO  H190 6409   6.980   2.805   0.316  0.4282 -0.5016 -1.2609
   16CHTO  C101 6410   7.146   2.809   0.174  0.2064  0.6463  0.0772
   16CHTO  H188 6411   7.230   2.874   0.152  1.1576 -0.8028 -0.7003
   16CHTO   O68 6412   7.049   2.796   0.050  0.5167  0.5877  0.0473
   16CHTO  H168 6413   7.012   2.709   0.053  3.4000 -0.7266 -0.5508
   16CHTO   C99 6414   7.200   2.660   0.205  0.4641  0.4063 -0.6992
   16CHTO  H186 6415   7.114   2.592   0.219  0.3527  0.8791  1.0626
   16CHTO   N17 6416   7.284   2.605   0.096  0.2660 -0.1965  0.3526
   16CHTO  H174 6417   7.227   2.541   0.030  0.4685  0.6269 -0.6299
   16CHTO  H175 6418   7.347   2.677   0.047  0.4038 -0.8471 -0.4398
   16CHTO   C97 6419   7.272   2.653   0.347 -0.6671 -0.2240  0.1950
   16CHTO  H184 6420   7.371   2.698   0.335 -0.0089 -1.5697  0.4670
   16CHTO   O64 6421   7.198   2.704   0.460 -0.7561 -0.9793  0.3777
   16CHTO  C104 6422   7.159   2.842   0.441  0.1061  0.1631  0.0898
   16CHTO  H191 6423   7.244   2.911   0.440  0.4810 -0.2910 -3.1947
   16CHTO  C108 6424   7.072   2.883   0.562 -0.0897  0.3654 -0.8121
   16CHTO   O71 6425   7.138   2.869   0.686 -0.2880 -0.3101 -0.6350
   16CHTO  H171 6426   7.197   2.937   0.712 -1.4942  0.4923  0.0638
   16CHTO   O62 6427   7.300   2.511   0.377 -0.6608  0.0883 -0.5349
   16CHTO   C91 6428   7.401   2.478   0.479  0.5431 -0.0738  0.5970
   16CHTO  H178 6429   7.487   2.516   0.424  1.5017 -3.4953 -0.3807
   16CHTO   C92 6430   7.430   2.323   0.486  0.0792  0.5354  0.7538
   16CHTO  H179 6431   7.454   2.292   0.383  1.0078  1.9553  0.5344
   16CHTO   O66 6432   7.546   2.297   0.564 -0.1693 -0.7827 -0.1250
   16CHTO  H166 6433   7.536   2.347   0.643 -0.2355  0.4393 -0.8842
   16CHTO   C93 6434   7.313   2.241   0.556  0.4480 -0.9540  0.3901
   16CHTO  H180 6435   7.356   2.140   0.572  1.1246 -0.5902  0.8800
   16CHTO   N16 6436   7.194   2.220   0.466 -0.2688  0.0557  0.4015
   16CHTO  H172 6437   7.104   2.186   0.515 -0.1818  0.4078  0.8193
   16CHTO  H173 6438   7.188   2.304   0.398 -0.1840 -0.4643 -0.2502
   16CHTO   C94 6439   7.283   2.316   0.692  0.1658 -0.3311  0.0012
   16CHTO  H181 6440   7.183   2.361   0.693  0.2253 -0.1961  1.4848
   16CHTO   O61 6441   7.373   2.423   0.727 -0.3064 -0.0800  0.6632
   16CHTO   C95 6442   7.364   2.530   0.630 -0.3486 -1.0457 -0.1137
   16CHTO  H182 6443   7.263   2.572   0.632  0.2163  0.3082  0.8084
   16CHTO  C106 6444   7.463   2.644   0.677 -0.4326 -0.1361  0.1399
   16CHTO   O69 6445   7.478   2.753   0.581 -0.3829  0.2777 -0.1452
   16CHTO  H169 6446   7.560   2.736   0.539 -0.7174  1.4987 -1.3117
   16CHTO   O63 6447   7.295   2.213   0.806 -0.2058 -0.1848  0.0794
   16CHTO   C96 6448   7.149   2.147   0.858  0.0116  0.0383  0.1343
   16CHTO  H183 6449   7.179   2.074   0.933  1.7835  1.0478  0.4468
   16CHTO   C98 6450   7.056   2.073   0.750 -0.1415 -0.6150 -0.1203
   16CHTO  H185 6451   7.050   2.129   0.656  0.7183  0.2750  0.3468
   16CHTO   O67 6452   7.135   1.959   0.719  0.4444  0.3299  0.0041
   16CHTO  H167 6453   7.094   1.924   0.642 -0.7876 -1.2121  1.3594
   16CHTO  C102 6454   6.905   2.038   0.799  0.3029  0.2803 -0.5837
   16CHTO  H189 6455   6.923   1.984   0.894  0.8492 -0.5389 -1.1410
   16CHTO   N18 6456   6.827   1.943   0.715 -0.4519 -0.3300 -0.0474
   16CHTO  H176 6457   6.869   1.848   0.744  0.6358 -0.1382 -0.9558
   16CHTO  H177 6458   6.724   1.947   0.745 -0.1877 -0.9372  0.9449
   16CHTO  C105 6459   6.839   2.168   0.839  0.1152 -0.8006  0.3494
   16CHTO  H192 6460   6.853   2.239   0.757  0.6508  0.2678  1.3484
   16CHTO   O65 6461   6.915   2.222   0.948  0.8187  0.0766 -0.6804
   16CHTO  C100 6462   7.051   2.253   0.930 -0.4167 -0.5607 -1.1027
   16CHTO  H187 6463   7.057   2.341   0.864  2.9646 -0.4216 -0.7174
   16CHTO  C107 6464   7.092   2.294   1.080 -0.4513  0.5578  0.1963
   16CHTO   O70 6465   7.231   2.338   1.082  0.4161 -0.0351  0.0122
   16CHTO  H170 6466   7.249   2.344   1.174  1.3284 -1.3085 -0.0634
   16CHTO   O57 6467   6.693   2.154   0.886 -0.0628  0.4207  0.0945
   16CHTO   C85 6468   6.583   2.214   0.809 -0.2576 -0.4653 -0.6745
   16CHTO  H157 6469   6.614   2.191   0.705  0.0713 -5.0678  0.3394
   16CHTO   C83 6470   6.582   2.371   0.825 -0.6973 -0.1411  0.0469
   16CHTO  H155 6471   6.674   2.403   0.775 -2.0938  0.7307 -2.0240
   16CHTO   O56 6472   6.595   2.416   0.967  0.1443 -0.1154  0.8467
   16CHTO  H135 6473   6.523   2.379   1.014  0.2845 -1.1020  0.3010
   16CHTO   C81 6474   6.464   2.425   0.743  0.0310  0.2016  0.1428
   16CHTO  H153 6475   6.477   2.404   0.637 -1.3010  1.4998 -0.3024
   16CHTO   N14 6476   6.464   2.575   0.746 -0.6633  0.4195  0.4591
   16CHTO  H141 6477   6.561   2.619   0.742 -0.3170 -0.4463 -0.9136
   16CHTO  H142 6478   6.411   2.615   0.662 -0.2014 -0.8589 -0.4491
   16CHTO   C79 6479   6.324   2.355   0.778  0.3092 -0.0623  0.5133
   16CHTO  H151 6480   6.248   2.396   0.712  1.0121 -0.5520 -0.6133
   16CHTO   O52 6481   6.326   2.213   0.772 -0.0409 -0.4334 -0.0457
   16CHTO   C86 6482   6.445   2.153   0.843  0.1397 -0.3707  0.5442
   16CHTO  H158 6483   6.421   2.177   0.948 -0.2742  2.5644 -0.1789
   16CHTO   C90 6484   6.434   2.002   0.812 -0.0881 -0.0340  0.0128
   16CHTO   O60 6485   6.318   1.947   0.877 -0.4628  0.2491  0.1367
   16CHTO  H138 6486   6.344   1.860   0.899 -1.2306 -0.3102 -1.1304
   16CHTO   O50 6487   6.288   2.393   0.912 -0.6733  0.4740  0.2363
   16CHTO   C73 6488   6.167   2.396   0.988  0.0126  0.2048 -0.1116
   16CHTO  H145 6489   6.148   2.294   1.024  0.9519 -0.2639 -0.9486
   16CHTO   C74 6490   6.039   2.461   0.924 -0.0780  0.3846  0.4384
   16CHTO  H146 6491   6.018   2.413   0.827 -2.5859  0.9328  0.6816
   16CHTO   O54 6492   5.922   2.434   1.000 -0.0321 -0.5434  0.4310
   16CHTO  H133 6493   5.926   2.346   1.032 -0.5759 -0.9116 -0.5072
   16CHTO   C75 6494   6.061   2.617   0.904  0.4395  0.2350  0.8130
   16CHTO  H147 6495   6.133   2.633   0.823 -1.2584  2.6385 -0.2821
   16CHTO   N13 6496   5.941   2.688   0.848  0.7317  0.2907  0.0922
   16CHTO  H139 6497   5.916   2.780   0.899 -2.1725  0.4117 -1.4129
   16CHTO  H140 6498   5.852   2.626   0.849  1.0503 -0.1676  0.7042
   16CHTO   C76 6499   6.108   2.686   1.037 -0.3485  0.2168 -0.0512
   16CHTO  H148 6500   6.034   2.691   1.117  2.3080 -0.5527  2.5751
   16CHTO   O49 6501   6.227   2.614   1.066  0.4719 -0.7682  0.5388
   16CHTO   C77 6502   6.207   2.482   1.114 -0.2255 -0.5493 -0.2850
   16CHTO  H149 6503   6.123   2.480   1.184  0.4740 -1.1564  0.5552
   16CHTO   C88 6504   6.336   2.448   1.195  0.6667 -0.1961 -0.3224
   16CHTO   O58 6505   6.324   2.340   1.240  0.5202 -0.0959  0.1243
   16CHTO  H136 6506   6.351   2.283   1.171  1.8601 -0.4148  0.8930
   16CHTO   O51 6507   6.149   2.835   1.013  0.5787  0.2245 -0.1250
   16CHTO   C78 6508   6.138   2.930   1.138  0.2767  0.4937 -0.1083
   16CHTO  H150 6509   6.124   2.864   1.226 -1.0086 -1.7469 -1.9332
   16CHTO   C80 6510   6.019   3.027   1.117  0.2938 -0.3776 -0.0904
   16CHTO  H152 6511   6.034   3.081   1.021  0.3765  0.2394  0.2689
   16CHTO   O55 6512   5.895   2.958   1.127  0.0039  0.5008  0.2553
   16CHTO  H134 6513   5.900   2.873   1.088 -0.3440  0.5032  0.2041
   16CHTO   C84 6514   6.015   3.141   1.231 -0.5870  0.0714  0.4385
   16CHTO  H156 6515   5.993   3.101   1.330 -2.0636 -2.3103 -0.8278
   16CHTO   N15 6516   5.916   3.251   1.198 -0.4185 -0.0013  0.7683
   16CHTO  H143 6517   5.815   3.217   1.185 -0.5552 -0.0484  1.9268
   16CHTO  H144 6518   5.948   3.303   1.110  1.3764 -1.7440  0.3397
   16CHTO   C87 6519   6.151   3.213   1.236 -0.2030 -0.0449 -0.5549
   16CHTO  H159 6520   6.168   3.253   1.136  1.8258 -0.1946 -0.2926
   16CHTO   O53 6521   6.264   3.096   1.264  0.1065  0.2091 -0.5371
   16CHTO   C82 6522   6.275   3.000   1.154  0.0822  0.1996  0.1438
   16CHTO  H154 6523   6.315   3.045   1.064 -0.6510  0.9240  0.1811
   16CHTO   C89 6524   6.375   2.900   1.207  0.4729 -0.9379  0.5592
   16CHTO   O59 6525   6.436   2.825   1.099  0.4260  0.3650  0.4087
   16CHTO  H137 6526   6.522   2.793   1.120  1.6326  2.1944 -1.4760
   16CHTO   O45 6527   6.173   3.329   1.358 -0.2256  0.0282  0.1616
   16CHTO   C67 6528   6.297   3.391   1.359 -0.2832 -0.0855  0.2038
   16CHTO  H124 6529   6.376   3.331   1.313  0.6887  0.7265  0.7852
   16CHTO   C65 6530   6.285   3.531   1.287 -0.7201 -0.6666 -0.1047
   16CHTO  H122 6531   6.182   3.557   1.262 -1.1135 -2.1760 -0.0739
   16CHTO   O44 6532   6.347   3.519   1.161  0.5374 -0.7527  0.1914
   16CHTO  H102 6533   6.440   3.510   1.160  0.9363  2.1120 -3.7928
   16CHTO   C63 6534   6.340   3.646   1.375 -0.3950 -0.3267 -0.4672
   16CHTO  H120 6535   6.266   3.659   1.455  0.2634 -1.4576  0.3426
   16CHTO   N11 6536   6.335   3.785   1.318  0.1844  0.4604  0.1426
   16CHTO  H108 6537   6.241   3.832   1.338 -0.0938  0.9936 -2.1467
   16CHTO  H109 6538   6.416   3.851   1.344 -0.8190  1.3965  0.9177
   16CHTO   C61 6539   6.477   3.603   1.436  0.7642 -0.2280 -0.2655
   16CHTO  H118 6540   6.521   3.683   1.497  1.0511 -0.1891 -0.5216
   16CHTO   O40 6541   6.459   3.494   1.525  0.0038  0.3961  0.3882
   16CHTO   C68 6542   6.333   3.412   1.510  0.0558 -0.2910  0.4053
   16CHTO  H125 6543   6.251   3.468   1.561  0.9261  1.4488 -0.0838
   16CHTO   C72 6544   6.350   3.277   1.586  0.5460  0.0588 -0.1898
   16CHTO   O48 6545   6.233   3.206   1.629  0.1396  0.1800 -0.3909
   16CHTO  H105 6546   6.272   3.145   1.689 -0.3491  0.2414 -0.0079
   16CHTO   O38 6547   6.579   3.580   1.342 -0.0000 -0.1254 -0.2864
   16CHTO   C55 6548   6.715   3.555   1.394  0.4173 -0.2428  0.0056
   16CHTO  H112 6549   6.716   3.511   1.494  2.3072  1.3979  0.7393
   16CHTO   C56 6550   6.812   3.680   1.390  0.2848  0.2470 -0.1691
   16CHTO  H113 6551   6.829   3.715   1.288  1.9331  0.9115  0.3209
   16CHTO   O42 6552   6.753   3.787   1.463 -0.5680  0.0803 -0.1170
   16CHTO  H100 6553   6.806   3.864   1.471 -0.1005 -0.0680 -1.7527
   16CHTO   C57 6554   6.947   3.633   1.452  0.3053  0.6902  0.5104
   16CHTO  H114 6555   6.936   3.604   1.557 -2.3015  0.8122  0.3047
   16CHTO   N10 6556   7.052   3.741   1.458 -0.2045 -0.3443 -0.5154
   16CHTO  H106 6557   6.996   3.833   1.470 -0.5294 -0.7810  1.4378
   16CHTO  H107 6558   7.125   3.734   1.537  0.6082  1.8204 -1.0183
   16CHTO   C58 6559   6.997   3.511   1.367 -0.2319  0.2821  0.0042
   16CHTO  H115 6560   7.015   3.547   1.263 -1.2187 -0.0790 -0.2890
   16CHTO   O37 6561   6.898   3.407   1.360 -0.1248  0.0163 -0.2290
   16CHTO   C59 6562   6.774   3.446   1.308 -0.0226  0.3412  0.4082
   16CHTO  H116 6563   6.787   3.472   1.203 -0.9957 -0.2060  0.1368
   16CHTO   C70 6564   6.685   3.316   1.321  0.2923 -0.3203 -0.4602
   16CHTO   O46 6565   6.700   3.222   1.212  0.8629  0.2498  0.0583
   16CHTO  H103 6566   6.759   3.152   1.232 -1.7649 -1.6671  1.3702
   16CHTO   O39 6567   7.130   3.449   1.430  0.1094  0.4842 -0.1875
   16CHTO   C60 6568   7.196   3.356   1.346  0.0896  0.6440 -0.5048
   16CHTO  H117 6569   7.138   3.333   1.257  0.5830 -0.8195 -0.4632
   16CHTO   C62 6570   7.327   3.425   1.293  0.3074  0.3579 -0.6854
   16CHTO  H119 6571   7.297   3.513   1.232 -0.5789 -0.5607 -1.6064
   16CHTO   O43 6572   7.410   3.467   1.405  0.0515 -0.0473 -0.1981
   16CHTO  H101 6573   7.441   3.385   1.439  0.6992  1.2004  2.3692
   16CHTO   C66 6574   7.395   3.325   1.197 -0.1125 -0.6461 -0.4849
   16CHTO  H123 6575   7.322   3.300   1.121 -0.0544  1.0888 -1.1434
   16CHTO   N12 6576   7.513   3.390   1.126  0.3581 -0.1216 -0.2005
   16CHTO  H110 6577   7.603   3.337   1.152 -0.5273 -1.7767 -0.4820
   16CHTO  H111 6578   7.505   3.385   1.018  3.1826 -0.8831 -0.4276
   16CHTO   C69 6579   7.425   3.195   1.283  0.3698  0.2492 -0.7323
   16CHTO  H126 6580   7.486   3.229   1.369 -0.6994 -1.8740  0.9165
   16CHTO   O41 6581   7.293   3.138   1.331 -0.4395  0.0606  0.2165
   16CHTO   C64 6582   7.219   3.226   1.418  0.0247  0.1172  0.4951
   16CHTO  H121 6583   7.272   3.247   1.514 -0.5035  3.0907  0.2009
   16CHTO   C71 6584   7.085   3.153   1.453  0.5112  0.1273 -0.0030
   16CHTO   O47 6585   7.004   3.097   1.351 -0.5278  0.5022  0.4526
   16CHTO  H104 6586   6.940   3.045   1.395  1.0416 -1.2879  0.6868
   16CHTO   O34 6587   7.508   3.068   1.189 -0.0094 -0.0990  0.0462
   16CHTO   C49 6588   7.500   3.040   1.034  0.0818  0.2921  0.6637
   16CHTO   H91 6589   7.492   3.135   0.982  0.5750  0.3691  0.7247
   16CHTO   C47 6590   7.367   2.962   1.009  0.4533 -0.0539  0.3844
   16CHTO   H89 6591   7.359   2.946   0.900 -1.8920 -1.3630  0.7066
   16CHTO   O33 6592   7.259   3.058   1.039  0.5132 -0.3505  0.1000
   16CHTO   H70 6593   7.277   3.143   1.003 -1.8523 -0.9651 -2.7287
   16CHTO   C45 6594   7.366   2.826   1.091 -0.0565  0.2055 -0.3670
   16CHTO   H87 6595   7.348   2.837   1.199  0.4385 -0.6870 -0.1901
   16CHTO    N8 6596   7.266   2.723   1.032  0.1581 -0.0443 -0.3190
   16CHTO   H75 6597   7.167   2.766   1.034 -0.2941 -1.0052 -1.7892
   16CHTO   H76 6598   7.278   2.624   1.072 -0.5887  0.6576  1.7386
   16CHTO   C43 6599   7.520   2.770   1.101 -0.3448 -0.1123 -0.7688
   16CHTO   H85 6600   7.565   2.812   1.192  0.6904 -4.1163  0.6550
   16CHTO   O29 6601   7.591   2.807   0.981 -0.0836 -0.1772 -0.0999
   16CHTO   C50 6602   7.611   2.945   0.973  0.1085 -0.0227 -0.1622
   16CHTO   H92 6603   7.704   2.951   1.030  0.8907 -0.6149 -1.3495
   16CHTO   C54 6604   7.656   3.007   0.828  0.0637  0.2956  0.1093
   16CHTO   O36 6605   7.556   3.001   0.731 -0.4126 -0.3100 -0.0467
   16CHTO   H72 6606   7.585   2.960   0.652 -3.5428 -1.2851 -0.7607
   16CHTO   O27 6607   7.529   2.626   1.117  0.2259  0.1359 -0.4243
   16CHTO   C37 6608   7.589   2.503   1.150 -0.3050  0.6995  0.3201
   16CHTO   H79 6609   7.693   2.523   1.180  1.0415 -3.8583 -0.8326
   16CHTO   C38 6610   7.519   2.444   1.271 -1.0494  0.7758  0.3512
   16CHTO   H80 6611   7.410   2.459   1.262 -1.3026 -1.2797 -0.4543
   16CHTO   O31 6612   7.555   2.522   1.383  0.3996  0.0918 -0.0986
   16CHTO   H68 6613   7.559   2.611   1.353  1.6165  0.6097  1.4967
   16CHTO   C39 6614   7.538   2.292   1.304  0.0722 -0.4866  0.4700
   16CHTO   H81 6615   7.639   2.292   1.344 -0.2428  2.0657  1.3316
   16CHTO    N7 6616   7.443   2.239   1.412 -0.0508 -0.1978  0.0583
   16CHTO   H73 6617   7.465   2.140   1.449 -0.3980 -0.8267 -1.3806
   16CHTO   H74 6618   7.341   2.240   1.378 -0.3605  1.2704  0.9649
   16CHTO   C40 6619   7.546   2.206   1.168  0.3110 -0.1932 -0.0379
   16CHTO   H82 6620   7.448   2.199   1.122  0.3262  1.1318 -0.2859
   16CHTO   O26 6621   7.641   2.272   1.076  0.3781  0.4381 -0.8197
   16CHTO   C41 6622   7.590   2.401   1.025  0.2043  0.1734  0.0305
   16CHTO   H83 6623   7.490   2.382   0.984 -0.2349 -0.2870  1.2840
   16CHTO   C52 6624   7.699   2.450   0.921 -0.0059 -0.1145  0.0152
   16CHTO   O35 6625   7.708   2.341   0.807  0.7012 -0.3068  0.2503
   16CHTO   H71 6626   7.620   2.308   0.812  0.7857 -0.8732 -1.5746
   16CHTO   O28 6627   7.607   2.078   1.198  0.2536  0.2208  0.7894
   16CHTO   C42 6628   7.557   1.960   1.122 -0.1262  0.6300 -0.0914
   16CHTO   H84 6629   7.644   1.895   1.119  0.7985  1.9489 -2.6520
   16CHTO   C44 6630   7.517   1.986   0.967 -0.0227 -0.3767  0.4201
   16CHTO   H86 6631   7.434   2.056   0.962  0.7025  0.4534 -0.1341
   16CHTO   O32 6632   7.632   2.037   0.894  0.1574  0.4442  0.1689
   16CHTO   H69 6633   7.610   2.054   0.805  0.1918 -1.5657 -0.2591
   16CHTO   C48 6634   7.467   1.861   0.881  0.7862 -0.2682 -0.0614
   16CHTO   H90 6635   7.543   1.783   0.869  0.8035  0.0106 -1.8775
   16CHTO    N9 6636   7.439   1.888   0.734 -0.1955 -0.0925  0.2056
   16CHTO   H77 6637   7.343   1.933   0.717  0.0248  0.9736  1.6426
   16CHTO   H78 6638   7.437   1.793   0.682 -0.1622 -0.4480  0.8417
   16CHTO   C51 6639   7.349   1.799   0.956  0.1770 -0.1706 -0.3383
   16CHTO   H93 6640   7.258   1.858   0.967 -0.2768 -0.6668 -1.3438
   16CHTO   O30 6641   7.405   1.758   1.083 -0.2817  0.0969  0.3786
   16CHTO   C46 6642   7.439   1.877   1.189  0.4818 -0.3727  0.1036
   16CHTO   H88 6643   7.353   1.944   1.187 -0.8117 -1.9984 -0.0439
   16CHTO   C53 6644   7.470   1.813   1.332  0.7276 -0.3114  0.4788
   16CHTO   O72 6645   7.488   1.907   1.434  0.4615  0.5154 -0.3496
   16CHTO  H199 6646   7.578   1.926   1.448  0.7987 -0.4348 -1.1999
   16CHTO   O22 6647   7.317   1.663   0.916  0.3125  0.0719 -0.1740
   16CHTO   C31 6648   7.197   1.605   0.967  0.3906  0.8370 -0.2105
   16CHTO   H59 6649   7.184   1.654   1.065  2.2567 -0.0842  0.5306
   16CHTO   C29 6650   7.064   1.601   0.887 -0.6969 -0.1363 -0.1745
   16CHTO   H57 6651   7.084   1.574   0.782  0.2739 -0.4774  0.0944
   16CHTO   O21 6652   7.018   1.737   0.883 -0.3201 -0.6899  0.0141
   16CHTO   H37 6653   6.924   1.746   0.881 -0.3564 -0.4475  1.8634
   16CHTO   C27 6654   6.952   1.502   0.947  0.0422 -0.1237  0.1071
   16CHTO   H55 6655   6.911   1.550   1.037 -1.4465  1.1532 -1.2208
   16CHTO    N5 6656   6.837   1.470   0.859  0.0196  0.2809  0.3006
   16CHTO   H43 6657   6.741   1.496   0.901  0.4045  1.3856  0.5140
   16CHTO   H44 6658   6.850   1.501   0.757  0.2058  2.0436  0.8412
   16CHTO   C25 6659   7.019   1.366   0.983  0.0681  0.4906  0.1623
   16CHTO   H53 6660   7.061   1.321   0.892  0.8710 -0.5156  1.0073
   16CHTO   O17 6661   7.134   1.383   1.063  0.0782 -0.1684 -0.1440
   16CHTO   C32 6662   7.242   1.460   1.002 -0.2212  0.0153 -0.3823
   16CHTO   H60 6663   7.259   1.400   0.913  0.5031  0.0426 -0.2599
   16CHTO   C36 6664   7.365   1.443   1.097  0.0786 -0.0312 -0.0023
   16CHTO   O25 6665   7.338   1.491   1.234 -0.0956 -0.2736 -0.8220
   16CHTO   H40 6666   7.381   1.442   1.302  0.8294  1.3994 -0.1831
   16CHTO   O15 6667   6.918   1.262   1.064  0.3035  0.0140  0.2374
   16CHTO   C19 6668   6.835   1.223   1.179  0.2764  0.5002  0.2025
   16CHTO   H47 6669   6.845   1.113   1.179 -3.0403  0.1474  1.7981
   16CHTO   C20 6670   6.880   1.281   1.321 -0.2842  0.2323  0.5149
   16CHTO   H48 6671   6.904   1.388   1.317 -0.3509  0.2386  0.2491
   16CHTO   O19 6672   7.003   1.223   1.353 -0.1702  0.0788 -0.3605
   16CHTO   H35 6673   6.997   1.130   1.363 -2.0792  0.0267 -1.7015
   16CHTO   C21 6674   6.777   1.270   1.441 -0.0722 -0.3420 -0.4955
   16CHTO   H49 6675   6.768   1.163   1.461  1.2949 -0.5015 -0.6515
   16CHTO    N4 6676   6.830   1.341   1.566  1.0990  0.9682 -0.3045
   16CHTO   H41 6677   6.747   1.349   1.634  0.1654  0.2407 -1.3355
   16CHTO   H42 6678   6.912   1.286   1.608 -0.7447 -1.1968  0.5381
   16CHTO   C22 6679   6.636   1.314   1.389 -0.5510  0.1511 -0.0753
   16CHTO   H50 6680   6.647   1.419   1.360 -0.3921 -0.5196 -2.6034
   16CHTO   O14 6681   6.597   1.231   1.272 -0.0376  0.1439 -0.4967
   16CHTO   C23 6682   6.685   1.251   1.155 -0.1061  0.1180  0.2939
   16CHTO   H51 6683   6.672   1.355   1.125  1.3699 -0.0632 -1.0783
   16CHTO   C34 6684   6.640   1.172   1.031  0.0636  0.1335  0.2937
   16CHTO   O23 6685   6.631   1.034   1.058  0.0953 -0.2792 -0.8021
   16CHTO   H38 6686   6.694   1.003   1.120 -0.0024 -0.5565 -0.8391
   16CHTO   O16 6687   6.532   1.290   1.483 -0.3006  0.2389 -0.6842
   16CHTO   C24 6688   6.411   1.390   1.465 -0.0380 -0.3885 -0.0703
   16CHTO   H52 6689   6.417   1.442   1.369  0.1246 -2.2159 -1.0708
   16CHTO   C26 6690   6.410   1.493   1.584 -0.3244  0.0477  0.2988
   16CHTO   H54 6691   6.432   1.442   1.680 -1.8429  0.7821  1.0568
   16CHTO   O20 6692   6.519   1.589   1.562 -0.3908  0.4693 -0.6088
   16CHTO   H36 6693   6.598   1.541   1.579 -1.2787 -0.5863  0.6374
   16CHTO   C30 6694   6.281   1.578   1.598  0.0919  0.6990  0.6839
   16CHTO   H58 6695   6.283   1.669   1.537  2.4084  1.1095  1.3082
   16CHTO    N6 6696   6.269   1.649   1.730 -0.2539 -0.4935 -0.5295
   16CHTO   H45 6697   6.252   1.577   1.809  0.2335  1.2207  1.1738
   16CHTO   H46 6698   6.352   1.712   1.759 -2.2484  2.1473 -0.3373
   16CHTO   C33 6699   6.151   1.487   1.572 -0.4022 -0.5606  0.2987
   16CHTO   H61 6700   6.131   1.434   1.666  1.3594  0.2926  1.1890
   16CHTO   O18 6701   6.164   1.392   1.462  0.0210 -0.1828 -0.0270
   16CHTO   C28 6702   6.283   1.308   1.469  0.0147 -0.0814 -0.3950
   16CHTO   H56 6703   6.275   1.253   1.563 -0.9455  0.0270 -0.4054
   16CHTO   C35 6704   6.281   1.202   1.353 -0.5906  0.3968 -0.2026
   16CHTO   O24 6705   6.170   1.121   1.358  0.4166  0.0372 -0.4793
   16CHTO   H39 6706   6.202   1.044   1.401  1.1055  0.0413 -0.9789
   16CHTO    O9 6707   6.037   1.571   1.547  0.1719  0.4702 -0.4362
   16CHTO   C13 6708   5.883   1.513   1.589  0.1507 -0.0772 -0.1703
   16CHTO   H26 6709   5.898   1.482   1.695  0.4694  0.3730 -0.0811
   16CHTO   C11 6710   5.839   1.396   1.499 -0.3332  0.6134  0.3006
   16CHTO   H24 6711   5.902   1.309   1.519 -0.2183  0.6400  0.0568
   16CHTO    O8 6712   5.861   1.432   1.363  0.4090 -0.3607  0.4126
   16CHTO    H3 6713   5.928   1.379   1.324  0.6596 -1.9107  2.8889
   16CHTO    C9 6714   5.693   1.354   1.541  0.7811  0.8230  0.3949
   16CHTO   H22 6715   5.702   1.327   1.648 -1.1817  1.8927  0.8561
   16CHTO    N2 6716   5.647   1.226   1.484  1.0890 -0.3147  0.3694
   16CHTO   H10 6717   5.633   1.146   1.556  1.2980  0.5336  1.3700
   16CHTO   H11 6718   5.552   1.241   1.435  1.4157  1.0413  0.1496
   16CHTO    C7 6719   5.590   1.470   1.531  0.3997  0.7013 -0.2339
   16CHTO   H20 6720   5.532   1.466   1.626  0.5702 -1.0805 -0.1822
   16CHTO    O4 6721   5.663   1.593   1.505  0.8547 -0.0493  0.1298
   16CHTO   C14 6722   5.772   1.624   1.594 -0.7760 -0.5294  0.3114
   16CHTO   H27 6723   5.739   1.643   1.698  0.3297 -1.2760  0.8182
   16CHTO   C18 6724   5.828   1.756   1.534  0.3369  0.2213  0.4898
   16CHTO   O13 6725   5.944   1.807   1.599 -0.1744 -0.4198  0.7035
   16CHTO    H7 6726   5.961   1.889   1.556  0.0445 -0.3218  0.9729
   16CHTO    O2 6727   5.486   1.447   1.393 -0.3547 -0.4415  0.1850
   16CHTO    C1 6728   5.347   1.490   1.413  0.0259  0.4923 -0.4121
   16CHTO   H14 6729   5.343   1.548   1.508  2.0132  0.6628 -0.4042
   16CHTO    C2 6730   5.250   1.358   1.423  0.5337 -0.1247  0.1663
   16CHTO   H15 6731   5.256   1.304   1.328  0.0805  0.8654 -0.4297
   16CHTO    O6 6732   5.304   1.276   1.527 -0.0914  0.3088 -0.0642
   16CHTO    H1 6733   5.235   1.219   1.553 -0.2298  0.4692 -0.0752
   16CHTO    C3 6734   5.098   1.395   1.446 -0.2595  0.1854  0.1354
   16CHTO   H16 6735   5.093   1.449   1.542  1.0882  0.5192  0.0249
   16CHTO    N1 6736   5.003   1.286   1.458 -0.0830 -0.5777  0.0723
   16CHTO    H8 6737   5.028   1.226   1.545 -2.0026 -0.9840  0.3730
   16CHTO    H9 6738   4.904   1.321   1.480  0.3866  0.0893  1.1904
   16CHTO    C4 6739   5.054   1.499   1.332  0.4975  0.1340 -0.1589
   16CHTO   H17 6740   5.038   1.441   1.241 -0.4316  0.3096 -0.1134
   16CHTO    O1 6741   5.149   1.608   1.308  0.2359 -0.2947 -0.2656
   16CHTO    C5 6742   5.292   1.576   1.297 -0.2592 -0.3567  0.0840
   16CHTO   H18 6743   5.320   1.529   1.204  0.2259  2.7123 -1.3911
   16CHTO   C16 6744   5.372   1.712   1.304  0.2043 -0.0636 -0.7123
   16CHTO   O11 6745   5.321   1.791   1.206 -0.1477  0.3108 -0.3249
   16CHTO    H5 6746   5.316   1.738   1.129 -0.3855  0.5589 -0.4842
   16CHTO    O3 6747   4.928   1.565   1.364 -0.2098 -0.0913  0.3286
   16CHTO    C6 6748   4.843   1.602   1.246 -0.4772  0.4541  0.8028
   16CHTO   H19 6749   4.901   1.626   1.157 -1.0193 -0.0197  0.3148
   16CHTO    C8 6750   4.745   1.484   1.218  0.2627  0.0658 -0.4794
   16CHTO   H21 6751   4.696   1.455   1.311  0.6578  0.1804 -0.2351
   16CHTO    O7 6752   4.823   1.381   1.158  0.3667  0.0956 -0.2395
   16CHTO    H2 6753   4.848   1.319   1.224 -0.1678  1.0674  0.8898
   16CHTO   C12 6754   4.632   1.542   1.116  0.4159  1.3475  0.5828
   16CHTO   H25 6755   4.675   1.555   1.015  0.9292  1.8648  0.8627
   16CHTO    N3 6756   4.522   1.446   1.094  0.1430  0.1861  0.3205
   16CHTO   H12 6757   4.553   1.372   1.021  0.4146 -0.8758  1.4898
   16CHTO   H13 6758   4.496   1.408   1.191  1.8890 -0.7053  0.4640
   16CHTO   C15 6759   4.571   1.681   1.162 -0.6311  0.4702 -0.1205
   16CHTO   H28 6760   4.516   1.662   1.254  1.8510 -0.0610  1.3107
   16CHTO   O10 6761   4.486   1.754   1.067 -0.1710  0.4112  0.3497
   16CHTO    H4 6762   4.522   1.767   0.981  2.0263  0.0914  1.1969
   16CHTO    O5 6763   4.675   1.774   1.191 -0.1883 -0.1804  0.0858
   16CHTO   C10 6764   4.765   1.731   1.287  0.7227  0.2497 -0.1134
   16CHTO   H23 6765   4.696   1.711   1.369  1.2473  1.6052  0.6736
   16CHTO   C17 6766   4.858   1.842   1.333  0.5667  0.2709  0.0451
   16CHTO   O12 6767   4.952   1.880   1.232  0.6372  0.3713  0.3027
   16CHTO    H6 6768   5.007   1.809   1.204 -2.0419 -2.4906  1.9498
   17CHTO  H203 6769   5.535   3.807  -0.103  0.3996  1.1745  1.2079
   17CHTO   O82 6770   5.471   3.871  -0.129 -0.3054  0.1216  0.3435
   17CHTO  C123 6771   5.449   3.977  -0.030  0.0957 -0.2422  0.2657
   17CHTO  H227 6772   5.445   3.928   0.069 -0.2675 -1.6591 -0.4391
   17CHTO   O77 6773   5.558   4.076  -0.035 -0.5595 -0.2959  0.3358
   17CHTO  C118 6774   5.550   4.192   0.056 -0.2896  0.0910 -0.3294
   17CHTO  H222 6775   5.525   4.150   0.155 -0.1553 -2.5072 -1.3626
   17CHTO  C125 6776   5.688   4.264   0.066  0.1195 -0.5250 -0.2317
   17CHTO   O84 6777   5.711   4.318  -0.069 -0.5874  0.4356  0.0063
   17CHTO  H205 6778   5.803   4.315  -0.090  0.0003 -0.0472  2.4129
   17CHTO  C114 6779   5.428   4.274   0.001  0.1330 -0.5115  0.2886
   17CHTO  H218 6780   5.453   4.305  -0.100  1.5141 -1.3257  0.3667
   17CHTO  C116 6781   5.295   4.197  -0.005  0.4168 -0.2115 -0.0218
   17CHTO  H220 6782   5.250   4.184   0.096 -1.3977 -2.4190 -1.0633
   17CHTO   O79 6783   5.200   4.275  -0.072  0.2317 -0.1503  0.7673
   17CHTO  H201 6784   5.127   4.233  -0.113  0.3527 -0.5340  0.9477
   17CHTO  C120 6785   5.316   4.051  -0.069  0.1899  0.4420  0.1052
   17CHTO  H224 6786   5.324   4.063  -0.179  0.4949 -1.6315 -0.1213
   17CHTO   N21 6787   5.191   3.973  -0.052  0.3562 -0.4281  0.6333
   17CHTO  H211 6788   5.127   3.984  -0.139  0.7448  1.5062  0.5591
   17CHTO  H212 6789   5.210   3.867  -0.044  1.2564 -0.4270 -1.1114
   17CHTO   O75 6790   5.419   4.396   0.075  1.2228  0.6429 -0.5414
   17CHTO  C112 6791   5.455   4.537  -0.021  0.3461 -0.2765  0.7862
   17CHTO  H216 6792   5.436   4.523  -0.128 -0.3855  0.5174  0.8028
   17CHTO   O73 6793   5.590   4.570   0.001 -1.0412 -0.2665  0.4143
   17CHTO  C113 6794   5.638   4.687  -0.072  0.0049 -0.6905 -0.3360
   17CHTO  H217 6795   5.622   4.679  -0.182  0.1301 -0.6438 -0.3574
   17CHTO  C124 6796   5.789   4.692  -0.048 -0.1439 -0.2947  0.5773
   17CHTO   O83 6797   5.867   4.593  -0.115 -0.6724  0.1167 -0.1679
   17CHTO  H204 6798   5.955   4.617  -0.097 -0.3163 -1.4841  0.3454
   17CHTO  C109 6799   5.565   4.811  -0.020 -0.5110  0.3478 -0.0700
   17CHTO  H213 6800   5.590   4.823   0.087 -0.5254  1.3483 -0.1766
   17CHTO  C110 6801   5.410   4.789  -0.043 -0.2946  0.5578 -1.2772
   17CHTO  H214 6802   5.386   4.777  -0.149 -0.9942  1.7701 -1.2605
   17CHTO   O78 6803   5.339   4.897   0.015 -0.1884 -0.2804 -0.0967
   17CHTO  H200 6804   5.333   4.906   0.108  0.7845 -2.3809  0.2007
   17CHTO  C111 6805   5.364   4.659   0.031 -0.0842 -0.0934  0.4066
   17CHTO  H215 6806   5.377   4.675   0.139  1.3310 -2.7718  0.6644
   17CHTO   N19 6807   5.217   4.632   0.003 -0.4357  0.6543  0.4275
   17CHTO  H207 6808   5.166   4.579   0.083 -1.7852 -2.3844 -2.3573
   17CHTO  H208 6809   5.206   4.566  -0.081  2.6056 -1.4120  1.5761
   17CHTO   O74 6810   5.607   4.926  -0.100  0.1028  0.6397 -0.2433
   17CHTO  C115 6811   5.635   5.067  -0.038 -0.7663  1.0700 -0.3962
   17CHTO  H219 6812   5.599   5.067   0.065 -1.5405 -0.3779 -0.6563
   17CHTO   O76 6813   5.800   5.098  -0.023 -0.1753  0.8762  0.4592
   17CHTO  C122 6814   5.860   5.164  -0.130 -0.2541 -0.1235 -0.1413
   17CHTO  H226 6815   5.873   5.086  -0.205 -0.0870 -0.2544  0.0215
   17CHTO  C126 6816   6.010   5.209  -0.093  0.2460  0.0948 -0.3531
   17CHTO   O85 6817   6.083   5.089  -0.070 -0.6468 -0.3362 -0.1624
   17CHTO  H206 6818   6.086   5.069   0.021  0.4202 -0.3716 -0.2035
   17CHTO  C121 6819   5.778   5.282  -0.198  0.2112  0.1772 -0.5321
   17CHTO  H225 6820   5.830   5.380  -0.209 -1.0562  1.3490  3.1116
   17CHTO   O81 6821   5.754   5.250  -0.333  0.4073  0.8080 -0.1681
   17CHTO  H202 6822   5.829   5.245  -0.389  0.1905 -0.9075 -0.3343
   17CHTO  C119 6823   5.645   5.311  -0.122 -0.1487  0.0570  0.5098
   17CHTO  H223 6824   5.677   5.342  -0.023 -2.7087 -0.7250  1.6069
   17CHTO  C117 6825   5.556   5.186  -0.117  0.0372  0.7410 -0.1921
   17CHTO  H221 6826   5.523   5.144  -0.212 -2.1074 -0.0658  0.8763
   17CHTO   N20 6827   5.423   5.211  -0.046  0.5861 -0.1475 -0.0892
   17CHTO  H209 6828   5.437   5.247   0.055 -0.9611  1.2165 -0.3304
   17CHTO  H210 6829   5.357   5.126  -0.036 -0.9966  1.2045  1.4346
   17CHTO   O80 6830   5.573   5.443  -0.171  0.3559  0.3743  0.6648
   17CHTO  C103 6831   5.565   5.570  -0.067  0.2104 -0.2846 -0.5219
   17CHTO  H190 6832   5.522   5.550   0.031 -0.5442  0.7383 -0.6345
   17CHTO  C101 6833   5.707   5.641  -0.044 -0.1677 -0.0836 -0.1246
   17CHTO  H188 6834   5.764   5.653  -0.136 -1.9956 -0.1599 -1.2714
   17CHTO   O68 6835   5.781   5.550   0.048 -0.0787  0.0557  0.0258
   17CHTO  H168 6836   5.872   5.568   0.034 -0.0086  0.2712  0.7521
   17CHTO   C99 6837   5.698   5.789   0.025  0.0730 -0.3689  0.3051
   17CHTO  H186 6838   5.665   5.772   0.130  1.1409  0.6315  0.8052
   17CHTO   N17 6839   5.831   5.863   0.028  0.2653  0.0540  0.5028
   17CHTO  H174 6840   5.895   5.800   0.088 -1.1361  1.0967  3.1880
   17CHTO  H175 6841   5.815   5.961   0.068  0.3378 -0.5313  1.9820
   17CHTO   C97 6842   5.589   5.869  -0.052 -0.2978 -0.5174  0.3021
   17CHTO  H184 6843   5.630   5.886  -0.153  0.5368  2.6468  1.1174
   17CHTO   O64 6844   5.463   5.800  -0.050  0.4647  0.5695 -0.0074
   17CHTO  C104 6845   5.465   5.672  -0.132 -1.1062 -0.3209 -0.4686
   17CHTO  H191 6846   5.499   5.684  -0.235  2.4896  2.0299  0.8983
   17CHTO  C108 6847   5.320   5.620  -0.140  0.3120  0.8386 -0.4590
   17CHTO   O71 6848   5.302   5.515  -0.236  0.0890 -0.2376 -0.4103
   17CHTO  H171 6849   5.213   5.485  -0.229  0.4791 -0.7616  3.1455
   17CHTO   O62 6850   5.558   5.995   0.010  0.0120 -0.2810 -0.5509
   17CHTO   C91 6851   5.493   6.106  -0.063 -0.5925 -0.3467  0.5093
   17CHTO  H178 6852   5.435   6.055  -0.140  1.5412 -1.9269 -0.0891
   17CHTO   C92 6853   5.599   6.204  -0.118  0.1804  0.1329  0.3229
   17CHTO  H179 6854   5.671   6.143  -0.175 -0.1298 -0.1038  0.1835
   17CHTO   O66 6855   5.523   6.275  -0.220 -0.4750 -0.0009 -0.2392
   17CHTO  H166 6856   5.569   6.341  -0.268 -0.6474 -0.3156 -0.8340
   17CHTO   C93 6857   5.662   6.306  -0.023 -0.0624 -0.1590 -0.2264
   17CHTO  H180 6858   5.704   6.390  -0.081  0.7030 -1.1009 -1.0616
   17CHTO   N16 6859   5.781   6.241   0.038  0.3948 -0.1177 -0.2614
   17CHTO  H172 6860   5.738   6.166   0.102  0.7824  1.4905  1.9497
   17CHTO  H173 6861   5.852   6.211  -0.037  0.7078  3.3598 -1.4236
   17CHTO   C94 6862   5.559   6.364   0.084  0.7491  0.4666 -0.1313
   17CHTO  H181 6863   5.577   6.323   0.183  1.6196 -0.5533 -0.7125
   17CHTO   O61 6864   5.423   6.326   0.046 -0.0408 -0.1301  0.1456
   17CHTO   C95 6865   5.395   6.184   0.039  1.0436 -0.7155  0.2952
   17CHTO  H182 6866   5.408   6.133   0.135 -0.8411  0.4149  1.1757
   17CHTO  C106 6867   5.249   6.167  -0.002 -0.2508 -0.9582 -0.1100
   17CHTO   O69 6868   5.169   6.210   0.116  0.0607  0.2155 -0.0237
   17CHTO  H169 6869   5.081   6.214   0.084 -0.3959 -1.0272  1.0251
   17CHTO   O63 6870   5.581   6.529   0.094 -0.0385  0.0853 -0.0567
   17CHTO   C96 6871   5.534   6.594   0.218  0.9732 -0.7227 -0.0844
   17CHTO  H183 6872   5.525   6.511   0.288  1.9231 -1.8840 -1.3114
   17CHTO   C98 6873   5.402   6.676   0.211  0.1121 -0.7886 -0.3663
   17CHTO  H185 6874   5.399   6.739   0.121 -0.2691  1.5615  1.2216
   17CHTO   O67 6875   5.307   6.570   0.197  0.5473  0.2155  0.7341
   17CHTO  H167 6876   5.266   6.576   0.113  1.3312 -0.1015  0.3209
   17CHTO  C102 6877   5.378   6.771   0.341  0.3078  0.1499  0.1228
   17CHTO  H189 6878   5.356   6.699   0.421 -0.1482 -0.3141 -0.4163
   17CHTO   N18 6879   5.264   6.867   0.330 -0.0310  0.1082  0.0166
   17CHTO  H176 6880   5.231   6.918   0.419 -1.0970  0.1896 -0.4115
   17CHTO  H177 6881   5.179   6.816   0.287  1.5972 -1.7785 -1.0546
   17CHTO  C105 6882   5.505   6.841   0.390 -0.3249 -0.2152 -0.1821
   17CHTO  H192 6883   5.518   6.932   0.333  0.1566 -0.3343 -0.2620
   17CHTO   O65 6884   5.619   6.749   0.391  0.0722  0.0898 -0.4453
   17CHTO  C100 6885   5.650   6.691   0.259 -0.6711 -0.2062 -0.2329
   17CHTO  H187 6886   5.660   6.772   0.185  0.5220 -1.0114 -0.9683
   17CHTO  C107 6887   5.785   6.623   0.290  0.4850  0.3861 -0.5139
   17CHTO   O70 6888   5.892   6.729   0.282 -0.1127  0.0044  0.1447
   17CHTO  H170 6889   5.974   6.684   0.278  1.1081  2.1903 -0.1928
   17CHTO   O57 6890   5.474   6.884   0.550  0.2852  0.1141  0.4728
   17CHTO   C85 6891   5.535   6.991   0.628  0.5881 -0.4235 -0.5713
   17CHTO  H157 6892   5.476   7.079   0.595 -0.6297  0.1186  2.9093
   17CHTO   C83 6893   5.683   7.027   0.585  0.0521 -0.0799  0.3874
   17CHTO  H155 6894   5.682   7.049   0.478 -1.5584  1.3561  0.6682
   17CHTO   O56 6895   5.769   6.910   0.598 -0.3053  0.6554  0.3317
   17CHTO  H135 6896   5.753   6.854   0.524  0.2563 -1.8295  2.0651
   17CHTO   C81 6897   5.726   7.152   0.661  0.3221 -0.1157  0.2410
   17CHTO  H153 6898   5.659   7.233   0.634 -0.5717 -1.2198 -0.9626
   17CHTO   N14 6899   5.866   7.194   0.625  0.3286 -0.2781  0.0239
   17CHTO  H141 6900   5.942   7.129   0.664  1.2555 -0.3109 -1.7773
   17CHTO  H142 6901   5.875   7.204   0.519 -0.4169  0.9946  0.0825
   17CHTO   C79 6902   5.707   7.117   0.820 -1.0076  0.0174  0.0396
   17CHTO  H151 6903   5.731   7.205   0.879 -0.6169 -0.7869  1.0817
   17CHTO   O52 6904   5.573   7.096   0.855  0.3377 -0.1880 -0.3903
   17CHTO   C86 6905   5.529   6.972   0.785  0.4825  0.7963  0.4031
   17CHTO  H158 6906   5.594   6.886   0.814 -0.6835  0.4035  1.9117
   17CHTO   C90 6907   5.391   6.934   0.824 -0.1613 -0.0907  0.3301
   17CHTO   O60 6908   5.372   6.946   0.968  0.4200 -0.1399  0.2744
   17CHTO  H138 6909   5.280   6.945   0.988  0.1713  3.0416 -0.5880
   17CHTO   O50 6910   5.793   7.014   0.875 -0.0759  0.2882  0.4886
   17CHTO   C73 6911   5.892   6.988   0.977 -0.4638  0.2511  0.0929
   17CHTO  H145 6912   5.914   7.085   1.024 -0.2857  0.6967 -0.8812
   17CHTO   C74 6913   6.016   6.925   0.908 -0.1221 -0.2025  0.1780
   17CHTO  H146 6914   6.055   6.992   0.829  0.9144  0.2942  1.0958
   17CHTO   O54 6915   6.120   6.931   1.008 -0.2930 -0.3180 -0.1598
   17CHTO  H133 6916   6.200   6.889   0.982  1.4283  2.2930  0.7863
   17CHTO   C75 6917   5.983   6.784   0.852  0.1928  0.6639  0.2862
   17CHTO  H147 6918   5.907   6.791   0.773 -1.0231 -0.0069  1.3895
   17CHTO   N13 6919   6.100   6.723   0.791  0.1532  0.3535  0.0880
   17CHTO  H139 6920   6.174   6.699   0.867 -1.7562  1.0387  2.2421
   17CHTO  H140 6921   6.076   6.625   0.753 -0.6507  0.9915 -1.0575
   17CHTO   C76 6922   5.901   6.688   0.958 -0.3942 -0.2207 -0.6424
   17CHTO  H148 6923   5.978   6.642   1.020  0.1623  0.7686 -0.5769
   17CHTO   O49 6924   5.799   6.758   1.032 -0.0033 -1.1748 -0.4014
   17CHTO   C77 6925   5.835   6.890   1.086 -0.6819 -0.3939  0.4763
   17CHTO  H149 6926   5.915   6.861   1.155  0.5930 -0.7818 -1.1286
   17CHTO   C88 6927   5.715   6.945   1.163  0.2376  0.1691  0.0906
   17CHTO   O58 6928   5.724   7.094   1.209 -0.6897  0.1402  0.3609
   17CHTO  H136 6929   5.809   7.122   1.237  0.1357 -0.7395 -1.1964
   17CHTO   O51 6930   5.825   6.582   0.882  0.6478  0.1361  0.1914
   17CHTO   C78 6931   5.695   6.506   0.941 -0.2309 -0.0983  0.0938
   17CHTO  H150 6932   5.642   6.567   1.017 -0.1873  0.6435 -0.4748
   17CHTO   C80 6933   5.742   6.381   1.016  0.1031  0.8587  0.3814
   17CHTO  H152 6934   5.811   6.326   0.948 -1.1944 -1.1383  0.6462
   17CHTO   O55 6935   5.813   6.417   1.131  0.1385  0.8531 -0.1874
   17CHTO  H134 6936   5.886   6.474   1.119 -0.5364  1.5551 -1.1086
   17CHTO   C84 6937   5.607   6.293   1.053  0.4468  0.2423  0.3946
   17CHTO  H156 6938   5.538   6.349   1.116  1.0872  1.5189 -0.0265
   17CHTO   N15 6939   5.637   6.161   1.123 -0.6928  0.6863 -0.3391
   17CHTO  H143 6940   5.705   6.162   1.206 -0.5885  3.5373 -0.3901
   17CHTO  H144 6941   5.549   6.110   1.155  0.0324  0.4530  1.2899
   17CHTO   C87 6942   5.530   6.273   0.920  0.4246  1.1307  0.1978
   17CHTO  H159 6943   5.593   6.221   0.848 -0.8853  0.5723 -0.5605
   17CHTO   O53 6944   5.497   6.408   0.867  0.2074 -0.2586  0.0077
   17CHTO   C82 6945   5.610   6.474   0.817  0.3767 -0.7102  0.8287
   17CHTO  H154 6946   5.669   6.417   0.745 -1.3272 -1.0589 -0.2939
   17CHTO   C89 6947   5.570   6.604   0.749  0.0792 -0.2088 -0.1102
   17CHTO   O59 6948   5.463   6.594   0.657  0.0235 -0.2104  0.0237
   17CHTO  H137 6949   5.409   6.668   0.674 -1.5512 -1.0771 -1.1047
   17CHTO   O45 6950   5.388   6.195   0.947 -0.4879  0.1760  0.5903
   17CHTO   C67 6951   5.314   6.134   0.843 -0.1004  0.4158  0.4782
   17CHTO  H124 6952   5.216   6.098   0.876  0.1571 -1.2619 -0.4919
   17CHTO   C65 6953   5.294   6.215   0.708 -0.3185  0.1505 -0.4002
   17CHTO  H122 6954   5.390   6.265   0.695 -1.1282  1.8864  0.0479
   17CHTO   O44 6955   5.192   6.314   0.740  0.2387  0.1862  0.4656
   17CHTO  H102 6956   5.228   6.400   0.727 -0.0890  0.2546 -0.0143
   17CHTO   C63 6957   5.275   6.123   0.585  0.2409 -0.1802  0.4569
   17CHTO  H120 6958   5.375   6.105   0.545  0.1833 -1.5342  0.8718
   17CHTO   N11 6959   5.210   6.183   0.465  0.4425 -0.3035 -0.1901
   17CHTO  H108 6960   5.252   6.277   0.435  0.3661 -0.2650 -0.1775
   17CHTO  H109 6961   5.108   6.209   0.486  0.8917  1.3256  0.0487
   17CHTO   C61 6962   5.223   5.978   0.617 -0.0282 -0.4191  0.6684
   17CHTO  H118 6963   5.229   5.926   0.520  2.4814 -1.4120  1.3153
   17CHTO   O40 6964   5.315   5.910   0.702  0.5148  0.0305 -0.6447
   17CHTO   C68 6965   5.381   5.996   0.804  0.0772 -0.2942  0.4126
   17CHTO  H125 6966   5.482   6.015   0.762  0.0465 -2.9544 -0.9967
   17CHTO   C72 6967   5.400   5.901   0.929 -0.3633 -0.5915 -0.2703
   17CHTO   O48 6968   5.480   5.791   0.900  0.2072 -0.0480  0.1931
   17CHTO  H105 6969   5.420   5.720   0.913  0.4819  0.1076  2.4898
   17CHTO   O38 6970   5.091   5.987   0.665  0.2527 -0.2171  0.0010
   17CHTO   C55 6971   5.028   5.887   0.753  0.0124  0.0657  0.2177
   17CHTO  H112 6972   5.085   5.873   0.846 -2.0369 -0.1310  1.4645
   17CHTO   C56 6973   5.009   5.747   0.680 -0.3023 -0.4929  0.6737
   17CHTO  H113 6974   4.975   5.775   0.580  0.4801 -0.8113  0.3162
   17CHTO   O42 6975   5.138   5.699   0.651  0.3364 -0.1342 -0.7044
   17CHTO  H100 6976   5.179   5.664   0.728 -0.9889  0.9352  0.5360
   17CHTO   C57 6977   4.929   5.633   0.758 -0.3084  0.2769  1.2977
   17CHTO  H114 6978   4.984   5.592   0.842 -0.7534 -2.6417  0.2214
   17CHTO   N10 6979   4.898   5.520   0.665 -0.1413 -0.0227 -0.4561
   17CHTO  H106 6980   4.893   5.419   0.704 -1.5905 -0.5252 -1.8579
   17CHTO  H107 6981   4.818   5.539   0.595 -0.1109  0.6708 -0.3083
   17CHTO   C58 6982   4.800   5.709   0.802 -0.4701 -0.4104 -0.7393
   17CHTO  H115 6983   4.742   5.739   0.711  0.3205 -0.0681 -1.1349
   17CHTO   O37 6984   4.828   5.828   0.881  0.3141  0.3768 -0.0761
   17CHTO   C59 6985   4.880   5.929   0.798  0.5043 -0.0301 -0.8499
   17CHTO  H116 6986   4.818   5.946   0.710 -0.3452  0.0130 -0.2524
   17CHTO   C70 6987   4.891   6.050   0.885  0.2457 -0.6574 -0.5647
   17CHTO   O46 6988   4.760   6.096   0.924 -0.0270 -0.7438  0.0839
   17CHTO  H103 6989   4.737   6.051   1.004  1.5562 -0.9017  0.4779
   17CHTO   O39 6990   4.694   5.607   0.898  0.0959 -0.3514  0.5987
   17CHTO   C60 6991   4.562   5.665   0.895 -0.4154  0.7425  0.5289
   17CHTO  H117 6992   4.567   5.765   0.852  1.1114  0.3668 -0.2425
   17CHTO   C62 6993   4.475   5.600   0.793  0.0923 -0.9033 -0.0932
   17CHTO  H119 6994   4.532   5.616   0.699  0.3792 -0.1190  0.2043
   17CHTO   O43 6995   4.469   5.455   0.818  0.2388  0.2774  0.1530
   17CHTO  H101 6996   4.420   5.413   0.751  1.5741 -0.9048 -0.1125
   17CHTO   C66 6997   4.328   5.670   0.792 -0.4337 -0.2308 -0.1445
   17CHTO  H123 6998   4.340   5.777   0.772 -1.2999 -0.1395 -0.1753
   17CHTO   N12 6999   4.240   5.615   0.685 -0.2206  0.2203  0.3261
   17CHTO  H110 7000   4.293   5.584   0.596 -1.8502 -0.4621 -0.4354
   17CHTO  H111 7001   4.148   5.669   0.666  0.1397  0.5356 -0.5504
   17CHTO   C69 7002   4.266   5.649   0.937  0.1468 -0.1968 -0.0630
   17CHTO  H126 7003   4.282   5.541   0.959 -0.3703 -0.0865  0.8778
   17CHTO   O41 7004   4.350   5.740   1.033 -0.5403  0.7461 -0.7390
   17CHTO   C64 7005   4.496   5.666   1.036  0.1152  0.3899 -0.3654
   17CHTO  H121 7006   4.483   5.561   1.071 -1.7794  0.5939 -0.4238
   17CHTO   C71 7007   4.594   5.725   1.139  0.1317 -0.3557  0.3596
   17CHTO   O47 7008   4.613   5.868   1.116 -0.0434  0.2524  0.3660
   17CHTO  H104 7009   4.531   5.912   1.109 -0.8395 -1.2428 -0.0409
   17CHTO   O34 7010   4.121   5.683   0.958  0.7588  0.1144  0.0899
   17CHTO   C49 7011   4.079   5.832   0.968  0.1217  0.3856  0.4597
   17CHTO   H91 7012   4.161   5.890   1.010 -1.7879  2.5151  1.3771
   17CHTO   C47 7013   3.957   5.858   1.061 -0.5178 -0.2929 -0.3610
   17CHTO   H89 7014   3.952   5.968   1.065 -1.0299 -0.3647  1.9073
   17CHTO   O33 7015   3.986   5.808   1.194 -0.0081  0.1371 -0.3362
   17CHTO   H70 7016   4.052   5.856   1.241 -1.0080  3.0153 -1.7322
   17CHTO   C45 7017   3.813   5.796   1.014 -0.0761 -0.6299  0.0888
   17CHTO   H87 7018   3.804   5.701   1.069 -0.1683 -1.2032 -0.8980
   17CHTO    N8 7019   3.694   5.883   1.051  0.2433  0.1568  0.2752
   17CHTO   H75 7020   3.618   5.827   1.104 -0.3348 -0.1681 -0.8803
   17CHTO   H76 7021   3.646   5.929   0.966  1.4990  1.9786  0.5210
   17CHTO   C43 7022   3.831   5.759   0.863 -0.2401 -0.0584 -0.2559
   17CHTO   H85 7023   3.887   5.665   0.865 -0.4587 -0.1901  2.5003
   17CHTO   O29 7024   3.893   5.860   0.784  0.0131  0.4331 -0.3038
   17CHTO   C50 7025   4.026   5.887   0.828  1.0359  0.3990 -0.8158
   17CHTO   H92 7026   4.092   5.849   0.748  0.5954 -2.3044  0.0485
   17CHTO   C54 7027   4.058   6.039   0.814  0.2659 -0.7726 -0.0586
   17CHTO   O36 7028   3.951   6.124   0.864 -0.3227 -0.1716  0.1930
   17CHTO   H72 7029   3.887   6.131   0.797  0.5429 -2.7856 -0.9660
   17CHTO   O27 7030   3.711   5.721   0.803 -0.2686 -0.0529 -0.1661
   17CHTO   C37 7031   3.656   5.596   0.747 -0.0176 -0.3233 -0.4492
   17CHTO   H79 7032   3.688   5.519   0.819 -1.2299  0.2278  0.6887
   17CHTO   C38 7033   3.497   5.606   0.744  0.3604  0.0946 -0.0110
   17CHTO   H80 7034   3.470   5.694   0.684  0.5195 -0.0339 -0.2748
   17CHTO   O31 7035   3.435   5.618   0.880  0.2624  0.4821  0.1442
   17CHTO   H68 7036   3.454   5.551   0.942 -1.4458 -1.1346 -1.0005
   17CHTO   C39 7037   3.451   5.472   0.668 -0.2854 -0.4376 -0.0410
   17CHTO   H81 7038   3.473   5.390   0.736  0.6806  2.2047  3.0027
   17CHTO    N7 7039   3.298   5.483   0.646 -0.2483  0.1395 -0.5127
   17CHTO   H73 7040   3.253   5.564   0.703  0.3341  0.5489 -0.6314
   17CHTO   H74 7041   3.278   5.512   0.544  2.5085  0.3113 -1.0340
   17CHTO   C40 7042   3.524   5.439   0.530 -0.0512  0.2246 -0.2920
   17CHTO   H82 7043   3.499   5.517   0.458 -0.0303  0.5517  0.0518
   17CHTO   O26 7044   3.664   5.438   0.560 -0.1052  0.7591 -0.2164
   17CHTO   C41 7045   3.717   5.563   0.605  0.0577  0.4189  0.4839
   17CHTO   H83 7046   3.680   5.646   0.543 -0.3156  0.4480  0.7390
   17CHTO   C52 7047   3.872   5.547   0.601  0.6822  0.5166  0.2030
   17CHTO   O35 7048   3.927   5.451   0.683  0.3174 -0.3702 -0.2077
   17CHTO   H71 7049   3.996   5.485   0.738 -1.5985  2.2150  0.6936
   17CHTO   O28 7050   3.479   5.312   0.470  0.2813  0.1364  0.0290
   17CHTO   C42 7051   3.563   5.191   0.481  0.3523 -0.2572  0.3119
   17CHTO   H84 7052   3.499   5.116   0.436  3.1498 -1.9368 -1.0009
   17CHTO   C44 7053   3.602   5.146   0.626  0.4534  0.5772 -0.1305
   17CHTO   H86 7054   3.635   5.231   0.685 -0.8164 -0.5087  2.2331
   17CHTO   O32 7055   3.480   5.109   0.686  0.3067 -0.2300  0.7274
   17CHTO   H69 7056   3.496   5.052   0.759 -1.8722 -0.4967  1.0549
   17CHTO   C48 7057   3.704   5.023   0.639 -0.5629 -0.2409  0.1158
   17CHTO   H90 7058   3.659   4.932   0.599 -2.7395  0.7742  0.2023
   17CHTO    N9 7059   3.752   4.991   0.777  0.5968 -0.1184  0.4430
   17CHTO   H77 7060   3.855   5.014   0.797 -0.1678  1.2095  3.1025
   17CHTO   H78 7061   3.688   5.037   0.852 -0.5324 -0.2473 -0.4198
   17CHTO   C51 7062   3.824   5.073   0.553 -1.2610  0.0349  0.5867
   17CHTO   H93 7063   3.852   5.170   0.595 -0.2192 -0.6171  1.3899
   17CHTO   O30 7064   3.778   5.081   0.417 -0.1918  0.0998 -0.0694
   17CHTO   C46 7065   3.687   5.194   0.391  0.6471 -0.4306  0.4324
   17CHTO   H88 7066   3.738   5.289   0.407 -1.5934  0.9722 -0.5352
   17CHTO   C53 7067   3.644   5.189   0.241 -0.3921  0.1306  0.4821
   17CHTO   O72 7068   3.541   5.286   0.210 -0.2377 -0.2612  0.3139
   17CHTO  H199 7069   3.458   5.253   0.240 -1.2538  1.4261 -0.5553
   17CHTO   O22 7070   3.940   4.993   0.543 -0.1475  0.4081  0.1614
   17CHTO   C31 7071   4.064   5.036   0.479 -0.5344 -0.2884  0.2186
   17CHTO   H59 7072   4.143   4.965   0.511  0.9156  0.9284 -0.6180
   17CHTO   C29 7073   4.064   5.039   0.330  0.1319 -1.1893  0.3218
   17CHTO   H57 7074   3.994   5.117   0.296  3.0664  1.5202  0.2287
   17CHTO   O21 7075   4.020   4.919   0.272  0.0867 -0.3771 -0.5530
   17CHTO   H37 7076   4.032   4.846   0.330 -1.0684 -0.2765 -0.1709
   17CHTO   C27 7077   4.204   5.076   0.275  0.6838 -0.1692 -0.1683
   17CHTO   H55 7078   4.279   5.007   0.318 -0.6920 -1.0178  0.9201
   17CHTO    N5 7079   4.219   5.083   0.130  0.5754  0.2985  0.2199
   17CHTO   H43 7080   4.248   5.180   0.092  0.5400  1.7622  3.7790
   17CHTO   H44 7081   4.133   5.062   0.068  0.7644 -0.4131  0.1853
   17CHTO   C25 7082   4.235   5.219   0.336  0.0276  0.5268 -0.1427
   17CHTO   H53 7083   4.157   5.289   0.304 -0.8064  0.8147  2.3986
   17CHTO   O17 7084   4.238   5.217   0.477  0.3318 -0.5147 -0.0944
   17CHTO   C32 7085   4.110   5.176   0.530 -0.2559 -0.2180 -0.9146
   17CHTO   H60 7086   4.036   5.248   0.499 -0.3393 -1.8298 -4.6815
   17CHTO   C36 7087   4.126   5.183   0.689  0.7652  0.1400 -0.1932
   17CHTO   O25 7088   4.160   5.315   0.739 -0.0512  0.7262  0.3126
   17CHTO   H40 7089   4.153   5.381   0.672  1.0245 -1.7740 -2.3466
   17CHTO   O15 7090   4.381   5.282   0.302 -0.5753 -0.0036  0.3943
   17CHTO   C19 7091   4.418   5.422   0.286  0.7146 -0.3768  0.4082
   17CHTO   H47 7092   4.484   5.434   0.198  1.9083  1.2879  1.4999
   17CHTO   C20 7093   4.304   5.524   0.252  0.0213  0.1221  0.1026
   17CHTO   H48 7094   4.226   5.525   0.329  1.1585 -0.0857  1.2894
   17CHTO   O19 7095   4.253   5.485   0.123  0.5763 -0.2776  0.7214
   17CHTO   H35 7096   4.175   5.433   0.120 -1.2509  2.4285 -1.1914
   17CHTO   C21 7097   4.357   5.673   0.242  0.3279  0.3899  0.4433
   17CHTO   H49 7098   4.419   5.680   0.153  2.0698 -0.0915  1.5865
   17CHTO    N4 7099   4.253   5.776   0.215  0.3323 -0.2467  0.1736
   17CHTO   H41 7100   4.302   5.871   0.224  1.1680 -0.8371  2.1932
   17CHTO   H42 7101   4.169   5.775   0.284 -0.9007 -2.0897 -1.3161
   17CHTO   C22 7102   4.455   5.708   0.353  1.1867  0.4711  0.3926
   17CHTO   H50 7103   4.407   5.720   0.450 -0.8584  0.3708 -0.5745
   17CHTO   O14 7104   4.556   5.608   0.365 -0.0224  0.6422 -0.1048
   17CHTO   C23 7105   4.499   5.479   0.408  0.6960 -0.0988 -0.1077
   17CHTO   H51 7106   4.431   5.507   0.490  0.0465  2.4720 -1.4559
   17CHTO   C34 7107   4.602   5.378   0.453 -0.2276  0.3884 -0.5963
   17CHTO   O23 7108   4.539   5.266   0.523  0.0527 -0.1222 -0.0288
   17CHTO   H38 7109   4.460   5.233   0.484  1.3734 -0.2741 -2.6737
   17CHTO   O16 7110   4.522   5.829   0.331  0.1734 -0.0247  0.5055
   17CHTO   C24 7111   4.583   5.904   0.473  0.1384 -0.2700  0.9230
   17CHTO   H52 7112   4.620   5.829   0.543 -1.6442  0.6420  2.8809
   17CHTO   C26 7113   4.475   5.998   0.535  0.7751  0.3723 -0.0221
   17CHTO   H54 7114   4.444   6.075   0.462 -2.7608 -1.5254 -0.6334
   17CHTO   O20 7115   4.367   5.914   0.577  0.5732 -0.3861  0.2665
   17CHTO   H36 7116   4.293   5.917   0.520  2.0320 -1.0772 -1.7034
   17CHTO   C30 7117   4.539   6.091   0.642  0.3024 -0.6056  0.0760
   17CHTO   H58 7118   4.608   6.036   0.709 -0.2682 -0.5444  0.7188
   17CHTO    N6 7119   4.431   6.162   0.721  0.6832  0.0825  0.6219
   17CHTO   H45 7120   4.435   6.270   0.718  4.2109  0.0194  0.5308
   17CHTO   H46 7121   4.423   6.129   0.824  2.3737  2.3333  1.5084
   17CHTO   C33 7122   4.642   6.178   0.560  0.0164 -0.2092 -1.0786
   17CHTO   H61 7123   4.603   6.230   0.471 -1.1696  1.9029  0.6513
   17CHTO   O18 7124   4.745   6.079   0.519 -0.3532 -0.4229 -0.5078
   17CHTO   C28 7125   4.704   5.981   0.422  0.1690 -0.8750 -0.3025
   17CHTO   H56 7126   4.672   6.033   0.333  1.5753  1.6431  0.6100
   17CHTO   C35 7127   4.807   5.874   0.375 -0.3539  0.2312  0.1550
   17CHTO   O24 7128   4.940   5.917   0.356  0.0641  0.2297  0.1854
   17CHTO   H39 7129   4.972   5.957   0.435  1.4022  2.8643 -1.6013
   17CHTO    O9 7130   4.699   6.282   0.640 -0.5599 -0.3855 -0.0795
   17CHTO   C13 7131   4.769   6.399   0.551 -0.1136 -0.0486 -0.2834
   17CHTO   H26 7132   4.800   6.348   0.458  0.2453 -0.2068 -0.0812
   17CHTO   C11 7133   4.889   6.459   0.634 -0.2910 -0.4152  0.5757
   17CHTO   H24 7134   4.962   6.379   0.658 -0.0756  0.4980  3.1815
   17CHTO    O8 7135   4.853   6.512   0.765 -0.4503 -0.8396  0.2357
   17CHTO    H3 7136   4.786   6.577   0.756  0.1814 -0.0903  0.8339
   17CHTO    C9 7137   4.954   6.563   0.541  0.5949 -0.2342  0.2792
   17CHTO   H22 7138   4.966   6.514   0.444 -0.5188 -0.2997  0.1697
   17CHTO    N2 7139   5.089   6.607   0.579  0.6776  0.4126  0.0982
   17CHTO   H10 7140   5.113   6.696   0.523 -0.0497  0.1353 -0.6766
   17CHTO   H11 7141   5.095   6.615   0.686  1.1234  1.4796 -0.0067
   17CHTO    C7 7142   4.852   6.682   0.517  0.8898  0.0056  0.0348
   17CHTO   H20 7143   4.900   6.753   0.446  1.1935 -1.3000 -1.0879
   17CHTO    O4 7144   4.729   6.632   0.454 -0.0446 -0.4904 -0.5281
   17CHTO   C14 7145   4.666   6.513   0.502  0.6128 -0.1896 -0.0685
   17CHTO   H27 7146   4.615   6.467   0.415  0.5185  0.1393 -0.1868
   17CHTO   C18 7147   4.560   6.545   0.597  0.1443 -0.1940 -0.5915
   17CHTO   O13 7148   4.464   6.620   0.525 -0.4130 -0.1651  0.8945
   17CHTO    H7 7149   4.499   6.703   0.500  1.0893 -1.4763 -1.6189
   17CHTO    O2 7150   4.809   6.762   0.652  0.1433  0.2728  0.1029
   17CHTO    C1 7151   4.801   6.909   0.656 -0.5746  0.1862 -0.0698
   17CHTO   H14 7152   4.755   6.938   0.560  1.1631  2.3848 -0.2784
   17CHTO    C2 7153   4.942   6.984   0.678  0.0401 -0.0811  0.9210
   17CHTO   H15 7154   4.990   6.947   0.770  1.7117  0.9804  0.5132
   17CHTO    O6 7155   5.022   6.958   0.564  0.1100  0.2026  0.4752
   17CHTO    H1 7156   5.104   7.000   0.580  0.4478  0.7257 -2.3888
   17CHTO    C3 7157   4.911   7.138   0.695 -0.1901 -0.9272  0.0526
   17CHTO   H16 7158   4.861   7.163   0.601  2.7950 -0.3051 -1.4269
   17CHTO    N1 7159   5.036   7.218   0.711 -0.1831 -0.0660 -0.0956
   17CHTO    H8 7160   5.094   7.207   0.621 -0.2508  0.5603 -0.2166
   17CHTO    H9 7161   5.081   7.186   0.804  0.7151  0.2562 -0.4121
   17CHTO    C4 7162   4.809   7.158   0.819  0.6059  0.3745 -0.7031
   17CHTO   H17 7163   4.850   7.118   0.912 -0.4516 -1.0218 -0.8304
   17CHTO    O1 7164   4.693   7.081   0.793 -0.6785  0.0122  0.6832
   17CHTO    C5 7165   4.697   6.939   0.770  0.5540  0.1160  0.8976
   17CHTO   H18 7166   4.727   6.877   0.854  1.6809 -0.8612 -0.1963
   17CHTO   C16 7167   4.554   6.890   0.725 -0.0992 -0.5975 -0.7050
   17CHTO   O11 7168   4.450   6.926   0.822  0.6923 -0.8184 -0.4091
   17CHTO    H5 7169   4.377   6.868   0.816  0.5101 -0.6025 -0.2832
   17CHTO    O3 7170   4.762   7.287   0.826 -0.2858 -0.2007 -0.0706
   17CHTO    C6 7171   4.712   7.335   0.961  0.0705 -0.3751  0.1912
   17CHTO   H19 7172   4.644   7.420   0.949  1.1017  0.1741 -2.0913
   17CHTO    C8 7173   4.614   7.239   1.035  0.8040  0.2002  0.5528
   17CHTO   H21 7174   4.656   7.139   1.037 -0.4521 -0.3203  1.1004
   17CHTO    O7 7175   4.496   7.246   0.960 -0.2886  0.6292  0.3743
   17CHTO    H2 7176   4.513   7.200   0.880 -1.1162 -1.1011  1.1712
   17CHTO   C12 7177   4.588   7.282   1.183 -0.2988  0.4796  0.4713
   17CHTO   H25 7178   4.515   7.366   1.176 -0.8178  0.3306  3.6113
   17CHTO    N3 7179   4.524   7.175   1.262 -0.3121 -0.3068 -0.1780
   17CHTO   H12 7180   4.421   7.207   1.261 -0.1542  0.2098  0.1614
   17CHTO   H13 7181   4.559   7.159   1.363 -0.2504  1.9492  0.1858
   17CHTO   C15 7182   4.718   7.330   1.248 -0.9240  0.4318 -0.2311
   17CHTO   H28 7183   4.787   7.246   1.253  0.8589  1.3605 -5.7459
   17CHTO   O10 7184   4.698   7.420   1.373 -0.3927 -0.3647 -0.5131
   17CHTO    H4 7185   4.634   7.377   1.427  0.8468 -2.0205 -0.3267
   17CHTO    O5 7186   4.780   7.429   1.167  0.0394 -0.2292  0.6889
   17CHTO   C10 7187   4.831   7.386   1.041 -0.0670  0.0763 -0.0348
   17CHTO   H23 7188   4.908   7.311   1.062 -0.4907 -0.3688 -0.0777
   17CHTO   C17 7189   4.902   7.499   0.964  0.0287  0.1010  0.3985
   17CHTO   O12 7190   4.828   7.625   0.975  0.0982  0.1548 -0.1910
   17CHTO    H6 7191   4.770   7.639   0.903 -0.8584  0.8320  0.6900
   18CHTO  H203 7192   6.114   7.421   1.728 -1.3414  0.9292 -1.9161
   18CHTO   O82 7193   6.158   7.357   1.676  0.0176 -0.1680  0.5283
   18CHTO  C123 7194   6.166   7.398   1.543 -0.0522  0.2245 -0.6569
   18CHTO  H227 7195   6.260   7.454   1.532 -0.0945  0.7432  1.3670
   18CHTO   O77 7196   6.177   7.283   1.463  0.5641 -0.3223  0.7175
   18CHTO  C118 7197   6.176   7.298   1.324 -0.4506 -0.9240 -0.3305
   18CHTO  H222 7198   6.265   7.356   1.296  1.2358 -1.8545  2.8914
   18CHTO  C125 7199   6.184   7.166   1.259  0.1551  0.0113 -0.6050
   18CHTO   O84 7200   6.063   7.091   1.277 -0.1652 -0.5852  0.1844
   18CHTO  H205 7201   6.078   7.013   1.328  2.0442 -0.0680  0.3790
   18CHTO  C114 7202   6.048   7.376   1.267 -0.0585 -0.5763 -0.6142
   18CHTO  H218 7203   5.955   7.327   1.296 -0.6578  0.7595 -0.2269
   18CHTO  C116 7204   6.048   7.510   1.336 -0.6326 -0.3974  0.0259
   18CHTO  H220 7205   6.135   7.574   1.309 -1.7992  0.8051 -0.9432
   18CHTO   O79 7206   5.934   7.585   1.293 -0.2109 -0.2861  0.3096
   18CHTO  H201 7207   5.855   7.535   1.300 -0.0131 -0.4109  1.8199
   18CHTO  C120 7208   6.049   7.497   1.499  0.5119  0.4558  0.7032
   18CHTO  H224 7209   5.951   7.461   1.537 -0.7898  1.5345 -1.5251
   18CHTO   N21 7210   6.057   7.633   1.565 -0.0973 -0.4012 -0.5273
   18CHTO  H211 7211   5.963   7.672   1.601 -0.7691 -4.0033  1.8266
   18CHTO  H212 7212   6.121   7.630   1.651 -0.6898  1.2385 -0.0132
   18CHTO   O75 7213   6.052   7.382   1.122 -0.8431 -0.0243  0.0135
   18CHTO  C112 7214   6.180   7.451   1.046 -0.1420  0.3474 -0.0621
   18CHTO  H216 7215   6.268   7.401   1.090 -0.1170  2.0334  1.8621
   18CHTO   O73 7216   6.183   7.596   1.071 -0.1643 -0.3062 -0.2946
   18CHTO  C113 7217   6.305   7.662   1.023  0.3765 -0.4962  0.6647
   18CHTO  H217 7218   6.395   7.617   1.070  1.0373  1.0160  0.8858
   18CHTO  C124 7219   6.305   7.806   1.070 -0.2897  0.1770 -0.0743
   18CHTO   O83 7220   6.429   7.879   1.051 -0.7551  0.2635 -0.8428
   18CHTO  H204 7221   6.500   7.856   1.108 -3.0593  0.0184  2.1005
   18CHTO  C109 7222   6.306   7.651   0.872 -0.7149 -0.1489  0.2956
   18CHTO  H213 7223   6.215   7.697   0.830 -0.6052 -0.7368 -0.6182
   18CHTO  C110 7224   6.301   7.498   0.823  0.0154 -0.6406  0.7741
   18CHTO  H214 7225   6.391   7.441   0.848  1.9509  1.4053 -1.4133
   18CHTO   O78 7226   6.291   7.483   0.681 -0.0879 -0.1699  0.1016
   18CHTO  H200 7227   6.378   7.462   0.653  1.1692  2.0829  2.0566
   18CHTO  C111 7228   6.182   7.421   0.891  0.7352 -0.2720 -0.0159
   18CHTO  H215 7229   6.093   7.465   0.843  1.3644  2.6020  1.3686
   18CHTO   N19 7230   6.185   7.272   0.857 -0.0478 -0.0105 -0.1143
   18CHTO  H207 7231   6.084   7.236   0.860  1.0949 -3.4913 -1.6159
   18CHTO  H208 7232   6.260   7.224   0.919  1.3156  0.8663 -1.0432
   18CHTO   O74 7233   6.419   7.724   0.824  0.3646 -0.2611 -0.2871
   18CHTO  C115 7234   6.399   7.787   0.662  0.0534  0.1173 -0.5194
   18CHTO  H219 7235   6.334   7.725   0.600 -0.9566  1.2255 -0.6025
   18CHTO   O76 7236   6.320   7.914   0.668  0.1510 -0.4910  0.3783
   18CHTO  C122 7237   6.296   7.967   0.542 -0.5353  0.5511  0.2645
   18CHTO  H226 7238   6.259   8.067   0.564  2.3246  1.7435 -0.0892
   18CHTO  C126 7239   6.173   7.895   0.474  0.1105 -0.1279 -0.3291
   18CHTO   O85 7240   6.135   7.944   0.342  0.0659  0.2776  0.1805
   18CHTO  H206 7241   6.044   7.925   0.329  0.7545 -2.1110 -1.4483
   18CHTO  C121 7242   6.426   7.965   0.443 -0.4146 -0.8624 -0.2103
   18CHTO  H225 7243   6.402   7.979   0.335 -2.3366 -0.5570  0.2368
   18CHTO   O81 7244   6.490   8.092   0.478  0.9068 -0.4180  0.3656
   18CHTO  H202 7245   6.486   8.117   0.568 -0.9501 -0.3430  0.2762
   18CHTO  C119 7246   6.529   7.853   0.453  0.6697  0.3105  0.2393
   18CHTO  H223 7247   6.489   7.765   0.403 -1.4379  0.3533  1.7915
   18CHTO  C117 7248   6.548   7.811   0.602 -0.2250  0.4036 -0.4674
   18CHTO  H221 7249   6.594   7.892   0.659  0.5015  0.7759 -1.5574
   18CHTO   N20 7250   6.639   7.690   0.616  0.2571  0.0765  0.1170
   18CHTO  H209 7251   6.615   7.600   0.561  0.8707  0.7190 -1.2263
   18CHTO  H210 7252   6.675   7.661   0.713  0.1689  1.4821  0.5921
   18CHTO   O80 7253   6.659   7.890   0.351  0.2129  0.8428 -0.3375
   18CHTO  C103 7254   6.683   7.807   0.214 -0.9389  0.5188 -0.2839
   18CHTO  H190 7255   6.771   7.849   0.166 -0.9117 -0.1220 -0.7913
   18CHTO  C101 7256   6.711   7.652   0.243  0.0856  0.5481  0.0218
   18CHTO  H188 7257   6.633   7.614   0.310 -1.6288  2.6719 -0.7324
   18CHTO   O68 7258   6.865   7.635   0.310 -0.0210 -0.2217 -0.4097
   18CHTO  H168 7259   6.853   7.606   0.399  1.7090  0.1416 -0.0467
   18CHTO   C99 7260   6.692   7.575   0.099  0.1044  0.4510  0.3210
   18CHTO  H186 7261   6.768   7.604   0.025 -1.4133 -0.5797 -1.6914
   18CHTO   N17 7262   6.697   7.423   0.101  0.4197 -0.1076  0.5901
   18CHTO  H174 7263   6.608   7.379   0.143 -0.4562 -2.1449 -3.0988
   18CHTO  H175 7264   6.726   7.398  -0.001  1.7586 -0.1037  0.9604
   18CHTO   C97 7265   6.558   7.614   0.033  0.4394  0.3170  0.7232
   18CHTO  H184 7266   6.478   7.592   0.105 -1.1992  3.3532 -0.0712
   18CHTO   O64 7267   6.566   7.755   0.003  0.7377  0.4967 -0.4322
   18CHTO  C104 7268   6.562   7.833   0.124 -0.3917 -0.3024 -0.2073
   18CHTO  H191 7269   6.470   7.802   0.174  0.3815  0.1141  1.4940
   18CHTO  C108 7270   6.549   7.984   0.091 -0.4955  0.7966  0.5815
   18CHTO   O71 7271   6.655   8.026   0.000 -0.0313 -0.2149  0.5744
   18CHTO  H171 7272   6.626   8.102  -0.045 -0.6529  0.5559  2.2432
   18CHTO   O62 7273   6.530   7.546  -0.092 -0.1482 -0.4834 -0.2932
   18CHTO   C91 7274   6.388   7.533  -0.113 -0.3568 -0.1496 -0.1016
   18CHTO  H178 7275   6.338   7.591  -0.035  0.6554  0.1473  0.3262
   18CHTO   C92 7276   6.337   7.388  -0.122  0.1857  0.6246 -0.1224
   18CHTO  H179 7277   6.366   7.349  -0.220 -0.4410 -1.0344  0.3261
   18CHTO   O66 7278   6.409   7.303  -0.029  0.0893 -0.0367 -0.0163
   18CHTO  H166 7279   6.490   7.347  -0.016 -0.3226  0.9920 -0.8340
   18CHTO   C93 7280   6.184   7.382  -0.096 -0.3802  0.0519  0.7662
   18CHTO  H180 7281   6.158   7.396   0.010  1.1283  3.6128  0.7206
   18CHTO   N16 7282   6.126   7.250  -0.123 -0.1512  0.1960 -0.3276
   18CHTO  H172 7283   6.189   7.183  -0.180 -1.6847 -0.5569 -1.1904
   18CHTO  H173 7284   6.024   7.260  -0.159 -0.2114 -1.1595 -0.5833
   18CHTO   C94 7285   6.110   7.496  -0.183 -0.4717 -0.6228 -0.4350
   18CHTO  H181 7286   6.073   7.461  -0.279 -0.2505 -0.5465 -0.5492
   18CHTO   O61 7287   6.187   7.615  -0.217 -0.7887 -0.2749 -0.0512
   18CHTO   C95 7288   6.326   7.593  -0.244 -0.0945  0.5949  0.9741
   18CHTO  H182 7289   6.331   7.531  -0.333 -0.5344  1.5756  0.2594
   18CHTO  C106 7290   6.395   7.724  -0.280  0.4734  0.7557 -0.0592
   18CHTO   O69 7291   6.359   7.828  -0.184 -0.3688 -0.1156  0.0219
   18CHTO  H169 7292   6.372   7.909  -0.230 -0.8561 -0.9516 -1.6490
   18CHTO   O63 7293   5.976   7.554  -0.078 -0.2523 -0.0428 -0.2493
   18CHTO   C96 7294   5.910   7.678  -0.126 -0.2205  0.2418  0.1356
   18CHTO  H183 7295   5.951   7.677  -0.228  0.4464  1.8001  0.3739
   18CHTO   C98 7296   5.945   7.812  -0.043 -0.4092  0.2234  0.3768
   18CHTO  H185 7297   5.916   7.791   0.061 -0.5047 -1.2171  0.0627
   18CHTO   O67 7298   6.089   7.835  -0.039  0.8452 -0.2665  0.0098
   18CHTO  H167 7299   6.112   7.867   0.046  4.2846  1.4126 -1.4203
   18CHTO  C102 7300   5.864   7.940  -0.098  0.0419  0.3419 -0.3860
   18CHTO  H189 7301   5.920   7.960  -0.191  1.5233 -1.3683  0.1168
   18CHTO   N18 7302   5.874   8.074  -0.030  0.0005 -0.5347 -0.2364
   18CHTO  H176 7303   5.898   8.131  -0.119  0.9862 -1.4152 -0.5409
   18CHTO  H177 7304   5.962   8.074   0.032  0.4683 -1.3359 -0.8880
   18CHTO  C105 7305   5.718   7.903  -0.125  0.5522  0.3965  0.5731
   18CHTO  H192 7306   5.664   7.902  -0.030  1.1470  2.4422  0.9653
   18CHTO   O65 7307   5.704   7.785  -0.199  0.1438  0.3009 -0.1486
   18CHTO  C100 7308   5.754   7.664  -0.138 -0.5273  0.5640  0.3483
   18CHTO  H187 7309   5.721   7.653  -0.034 -1.1653  1.5496  0.2598
   18CHTO  C107 7310   5.700   7.539  -0.218  0.0629  0.4353  0.5135
   18CHTO   O70 7311   5.554   7.532  -0.219 -0.1509  0.2497 -0.4441
   18CHTO  H170 7312   5.508   7.607  -0.251  0.6961  0.8552 -0.2663
   18CHTO   O57 7313   5.652   8.035  -0.231  0.4175  0.0930 -0.0512
   18CHTO   C85 7314   5.522   8.044  -0.277  0.4296  0.3262  0.1515
   18CHTO  H157 7315   5.517   8.135  -0.340  3.3075 -0.8686 -1.8723
   18CHTO   C83 7316   5.418   8.070  -0.157 -0.1947 -0.3684 -0.1462
   18CHTO  H155 7317   5.455   8.157  -0.103 -4.9163  1.2873  0.6946
   18CHTO   O56 7318   5.407   7.967  -0.061 -0.1669 -0.2046 -0.1241
   18CHTO  H135 7319   5.497   7.945  -0.046  0.6500  2.0144 -1.4842
   18CHTO   C81 7320   5.281   8.114  -0.225 -0.4079 -0.4829  0.2093
   18CHTO  H153 7321   5.307   8.199  -0.289  0.5925 -2.6036 -2.3047
   18CHTO   N14 7322   5.176   8.166  -0.134  0.6330 -0.4873 -0.5597
   18CHTO  H141 7323   5.090   8.195  -0.189 -0.9268  0.3359  2.2190
   18CHTO  H142 7324   5.217   8.248  -0.079  0.7622 -1.3692  0.6826
   18CHTO   C79 7325   5.229   7.994  -0.316  0.4709  0.3020 -0.3882
   18CHTO  H151 7326   5.150   8.034  -0.380  0.2006 -1.3471 -1.1029
   18CHTO   O52 7327   5.332   7.932  -0.401  0.2280  0.2266  0.1574
   18CHTO   C86 7328   5.472   7.915  -0.352  0.9899 -0.0519 -0.2459
   18CHTO  H158 7329   5.467   7.822  -0.291 -0.2398 -1.2672 -2.1354
   18CHTO   C90 7330   5.563   7.883  -0.468 -0.3037  0.5299 -0.0761
   18CHTO   O60 7331   5.621   7.989  -0.537  0.4616  0.1151 -0.0268
   18CHTO  H138 7332   5.693   7.953  -0.585  0.4089  2.2803 -1.8309
   18CHTO   O50 7333   5.166   7.896  -0.231  0.3211  0.2668 -0.1265
   18CHTO   C73 7334   5.084   7.779  -0.245  0.3856  0.1545 -0.0373
   18CHTO  H145 7335   5.125   7.712  -0.321  0.5098 -2.1727  2.0250
   18CHTO   C74 7336   4.938   7.821  -0.285  0.4435 -0.6338 -0.9606
   18CHTO  H146 7337   4.930   7.863  -0.386 -0.0073 -0.1664 -0.7329
   18CHTO   O54 7338   4.862   7.704  -0.303  0.7244  0.4901  0.6983
   18CHTO  H133 7339   4.853   7.660  -0.220  1.1917 -0.4494  0.2506
   18CHTO   C75 7340   4.884   7.925  -0.177  0.4367 -0.2769 -0.1683
   18CHTO  H147 7341   4.935   8.021  -0.194 -1.3854  0.6003 -0.9258
   18CHTO   N13 7342   4.751   7.986  -0.188  0.6729 -0.2854  0.1588
   18CHTO  H139 7343   4.747   8.056  -0.270 -0.4395 -0.6045 -0.0647
   18CHTO  H140 7344   4.677   7.908  -0.196  1.9696 -1.2911 -2.6876
   18CHTO   C76 7345   4.905   7.872  -0.024 -0.4646 -0.5438 -0.8614
   18CHTO  H148 7346   4.824   7.811   0.016  2.4683 -3.6228  0.6044
   18CHTO   O49 7347   5.040   7.797  -0.008  1.5593  0.2555  0.5774
   18CHTO   C77 7348   5.080   7.705  -0.106  0.6301 -0.7396  0.3643
   18CHTO  H149 7349   5.000   7.631  -0.102  0.4930 -0.5593  1.1258
   18CHTO   C88 7350   5.212   7.645  -0.067  0.1669 -0.3962 -0.1651
   18CHTO   O58 7351   5.283   7.592  -0.160 -0.5356 -0.3363  0.4283
   18CHTO  H136 7352   5.252   7.506  -0.182 -2.4434  0.7728 -1.4049
   18CHTO   O51 7353   4.937   7.997   0.080  0.0793 -0.8481 -0.4041
   18CHTO   C78 7354   4.940   7.960   0.231 -0.2025 -0.0536 -0.3245
   18CHTO  H150 7355   4.923   7.851   0.228 -0.4210 -0.0193 -0.3733
   18CHTO   C80 7356   4.817   8.029   0.294  0.3174  0.0806  0.7111
   18CHTO  H152 7357   4.818   8.136   0.264  1.3320 -0.5062 -1.4756
   18CHTO   O55 7358   4.702   7.969   0.224 -0.2092 -0.0811  0.9506
   18CHTO  H134 7359   4.621   7.960   0.270 -1.4710 -3.2322 -1.6774
   18CHTO   C84 7360   4.817   8.021   0.451 -0.1783 -0.2027  0.1863
   18CHTO  H156 7361   4.794   7.919   0.479 -0.5230  0.0023  0.6622
   18CHTO   N15 7362   4.709   8.096   0.528 -1.1981 -0.2099  0.4554
   18CHTO  H143 7363   4.615   8.049   0.507 -1.0620 -0.3984  0.2723
   18CHTO  H144 7364   4.724   8.090   0.634 -0.1688  2.0991  0.4688
   18CHTO   C87 7365   4.959   8.051   0.510  0.2021 -0.6200 -0.6658
   18CHTO  H159 7366   4.977   8.158   0.500 -1.4262 -0.2734  0.0717
   18CHTO   O53 7367   5.061   7.957   0.434  0.4443  0.0572  0.1488
   18CHTO   C82 7368   5.069   8.004   0.301  0.5447 -0.5220  0.2410
   18CHTO  H154 7369   5.081   8.111   0.279  2.5348 -0.8572 -0.4313
   18CHTO   C89 7370   5.189   7.940   0.225  0.6450 -0.8180  0.2775
   18CHTO   O59 7371   5.312   7.992   0.276  0.2716  0.0868  0.5663
   18CHTO  H137 7372   5.323   8.084   0.259  3.7112 -0.8796 -3.4565
   18CHTO   O45 7373   4.977   7.997   0.667  0.4146  0.7834 -0.7609
   18CHTO   C67 7374   5.106   8.028   0.727 -0.2540 -0.6321 -0.0452
   18CHTO  H124 7375   5.174   8.049   0.644 -0.7001 -1.6651 -0.6893
   18CHTO   C65 7376   5.097   8.155   0.820 -0.1301 -0.1602 -0.0833
   18CHTO  H122 7377   5.003   8.146   0.874 -0.2434  1.4382  0.0121
   18CHTO   O44 7378   5.105   8.278   0.740 -0.3135  0.5795  0.6389
   18CHTO  H102 7379   5.032   8.333   0.758 -1.4168 -0.6313 -0.0509
   18CHTO   C63 7380   5.207   8.154   0.934  0.0026  0.8517 -0.2422
   18CHTO  H120 7381   5.171   8.093   1.018 -2.5876  0.3114 -1.6782
   18CHTO   N11 7382   5.246   8.281   1.008 -0.4591  0.2509  0.3438
   18CHTO  H108 7383   5.305   8.261   1.095 -0.0748 -0.9422 -0.1801
   18CHTO  H109 7384   5.292   8.343   0.934 -0.0955 -0.2607  0.1363
   18CHTO   C61 7385   5.333   8.077   0.878  0.0133 -0.2405  0.2374
   18CHTO  H118 7386   5.395   8.074   0.969  0.3442 -2.7943 -0.0289
   18CHTO   O40 7387   5.300   7.941   0.850 -0.2971 -0.2573 -0.3394
   18CHTO   C68 7388   5.164   7.909   0.808 -0.2178 -0.3034  0.3120
   18CHTO  H125 7389   5.095   7.889   0.892  0.4431 -0.0375  0.9174
   18CHTO   C72 7390   5.169   7.782   0.729 -0.2374 -0.2332 -0.2524
   18CHTO   O48 7391   5.053   7.702   0.740 -0.3488  0.2962 -0.8980
   18CHTO  H105 7392   4.985   7.725   0.679 -0.0651  1.7237 -0.6987
   18CHTO   O38 7393   5.411   8.136   0.771 -0.4769  0.1597  0.2229
   18CHTO   C55 7394   5.548   8.084   0.773 -0.3676 -0.3947  0.3844
   18CHTO  H112 7395   5.555   7.994   0.836 -0.0224  0.4594  1.5607
   18CHTO   C56 7396   5.651   8.204   0.826 -0.5158  0.0189  0.3626
   18CHTO  H113 7397   5.641   8.288   0.755 -0.5669 -0.0702  0.2619
   18CHTO   O42 7398   5.609   8.270   0.951 -0.5386 -0.4028 -0.1113
   18CHTO  H100 7399   5.575   8.203   1.007 -0.5373 -0.6185 -0.3678
   18CHTO   C57 7400   5.791   8.157   0.832  0.8633  0.7801  0.4390
   18CHTO  H114 7401   5.787   8.091   0.919 -0.1474  0.3837  0.0870
   18CHTO   N10 7402   5.897   8.261   0.849 -0.0411  0.3584  0.0492
   18CHTO  H106 7403   5.992   8.223   0.882  1.2641  2.3346 -1.3218
   18CHTO  H107 7404   5.905   8.317   0.757 -1.0737 -1.8526 -1.4340
   18CHTO   C58 7405   5.825   8.070   0.708 -0.9112 -0.3981  0.4003
   18CHTO  H115 7406   5.887   8.129   0.637 -0.2387 -2.1772 -0.5206
   18CHTO   O37 7407   5.726   7.995   0.637 -0.0623 -0.2076  0.3380
   18CHTO   C59 7408   5.597   8.049   0.628 -0.0415 -0.3262  0.2205
   18CHTO  H116 7409   5.600   8.135   0.561  2.0078 -0.5245  0.0408
   18CHTO   C70 7410   5.508   7.944   0.572  1.0175  0.0528 -0.6502
   18CHTO   O46 7411   5.549   7.890   0.448  0.5150  0.4326 -0.2602
   18CHTO  H103 7412   5.635   7.855   0.461  0.8365  0.9241 -1.0587
   18CHTO   O39 7413   5.919   7.946   0.765 -0.2215 -0.1764 -0.4050
   18CHTO   C60 7414   5.853   7.845   0.840  1.0301  0.5152  0.0956
   18CHTO  H117 7415   5.755   7.883   0.870  0.0467 -0.4371 -1.7511
   18CHTO   C62 7416   5.827   7.724   0.750 -0.4459  0.3047 -0.0336
   18CHTO  H119 7417   5.773   7.765   0.662  0.7070  0.6479 -0.6061
   18CHTO   O43 7418   5.944   7.664   0.696  0.5037  0.3616  0.0588
   18CHTO  H101 7419   5.971   7.603   0.763  0.1562 -0.5078 -0.5896
   18CHTO   C66 7420   5.728   7.629   0.822 -0.4392 -0.1995  0.0107
   18CHTO  H123 7421   5.646   7.685   0.866 -0.0173 -0.2393  0.8528
   18CHTO   N12 7422   5.663   7.532   0.734  0.2069  0.2970 -0.2243
   18CHTO  H110 7423   5.559   7.512   0.757 -0.2153  1.2386 -1.2892
   18CHTO  H111 7424   5.730   7.450   0.713  0.5962  0.5019  0.2163
   18CHTO   C69 7425   5.795   7.559   0.949  0.1429 -0.6326  0.3769
   18CHTO  H126 7426   5.859   7.475   0.914  1.7436  0.5042  0.5246
   18CHTO   O41 7427   5.875   7.664   1.032 -0.2311 -0.2036 -0.2628
   18CHTO   C64 7428   5.927   7.802   0.968 -0.0567  0.2675 -0.6599
   18CHTO  H121 7429   6.032   7.788   0.934 -0.2632  0.6487 -1.4687
   18CHTO   C71 7430   5.937   7.908   1.081 -0.3046  0.7078 -0.3561
   18CHTO   O47 7431   5.811   7.933   1.141 -0.7274 -0.2275  0.0891
   18CHTO  H104 7432   5.813   8.026   1.155  0.2017 -0.2378  0.0790
   18CHTO   O34 7433   5.686   7.481   1.045 -0.1604 -0.3848 -0.3138
   18CHTO   C49 7434   5.597   7.506   1.175 -0.4312  0.1513 -0.1735
   18CHTO   H91 7435   5.650   7.456   1.256 -0.5612 -0.9793 -0.7784
   18CHTO   C47 7436   5.464   7.430   1.153 -0.1587 -0.6920 -0.1403
   18CHTO   H89 7437   5.412   7.415   1.250 -0.8967 -1.0900 -0.5944
   18CHTO   O33 7438   5.497   7.296   1.105  0.3876  0.0948  0.3530
   18CHTO   H70 7439   5.418   7.254   1.076 -0.4900 -0.6267  3.6093
   18CHTO   C45 7440   5.374   7.505   1.047  0.2461  0.2741  0.1009
   18CHTO   H87 7441   5.429   7.521   0.953  0.7112  0.9975  0.4908
   18CHTO    N8 7442   5.244   7.441   1.012  0.0057 -0.3248 -0.0639
   18CHTO   H75 7443   5.259   7.339   0.981  1.1045 -0.1822 -0.0379
   18CHTO   H76 7444   5.187   7.434   1.103 -1.0897  4.1370 -0.2947
   18CHTO   C43 7445   5.351   7.648   1.108  0.7342  0.3055  0.5586
   18CHTO   H85 7446   5.291   7.693   1.029 -1.6254 -2.6574  0.5851
   18CHTO   O29 7447   5.473   7.716   1.128  0.1102 -0.0310  0.4640
   18CHTO   C50 7448   5.578   7.659   1.203  0.0557  0.0589 -0.7612
   18CHTO   H92 7449   5.668   7.712   1.169 -1.0049  2.7439  0.4714
   18CHTO   C54 7450   5.560   7.692   1.347  0.0877  0.4843  0.8450
   18CHTO   O36 7451   5.578   7.828   1.361 -0.3477  0.1700 -0.0007
   18CHTO   H72 7452   5.660   7.843   1.406 -0.6925  0.1127  0.6615
   18CHTO   O27 7453   5.269   7.645   1.228 -0.4194 -0.0873  0.0813
   18CHTO   C37 7454   5.193   7.744   1.301 -0.2415 -0.8087  0.2225
   18CHTO   H79 7455   5.268   7.780   1.373 -0.1853  0.2738 -0.3503
   18CHTO   C38 7456   5.140   7.866   1.216 -0.2126  0.6646  0.6108
   18CHTO   H80 7457   5.105   7.817   1.124  1.8092 -2.0801  1.2442
   18CHTO   O31 7458   5.255   7.941   1.176  0.3454 -0.4782  0.1462
   18CHTO   H68 7459   5.306   7.895   1.112  1.6169  0.0386  0.7702
   18CHTO   C39 7460   5.034   7.960   1.292 -0.4469  0.1661  0.0926
   18CHTO   H81 7461   5.086   8.030   1.358  0.5900  1.8636 -2.4359
   18CHTO    N7 7462   4.963   8.043   1.189 -0.1717 -0.2038 -0.0937
   18CHTO   H73 7463   5.030   8.085   1.115 -0.4528 -0.9746 -0.7978
   18CHTO   H74 7464   4.914   8.119   1.247  1.6510  0.8120  0.1523
   18CHTO   C40 7465   4.925   7.871   1.367  0.7428  0.0071 -0.1251
   18CHTO   H82 7466   4.854   7.830   1.296  0.7374  3.5544 -2.2451
   18CHTO   O26 7467   4.983   7.769   1.449 -0.1134 -0.5330 -0.3253
   18CHTO   C41 7468   5.063   7.677   1.373  0.0492  0.1270 -0.1519
   18CHTO   H83 7469   4.990   7.633   1.304 -2.2342  0.7550  1.7928
   18CHTO   C52 7470   5.104   7.563   1.467  0.5679  0.3942  0.0874
   18CHTO   O35 7471   5.125   7.449   1.397  0.0798  0.0460  0.0282
   18CHTO   H71 7472   5.203   7.413   1.435 -0.1979  0.1269  0.6993
   18CHTO   O28 7473   4.864   7.950   1.468 -0.4698 -0.5872 -0.1566
   18CHTO   C42 7474   4.731   7.917   1.512  0.1597 -1.0727 -0.2036
   18CHTO   H84 7475   4.711   7.983   1.597 -3.2360 -0.3693 -1.4602
   18CHTO   C44 7476   4.702   7.775   1.565 -0.2871 -0.0261  0.0515
   18CHTO   H86 7477   4.734   7.703   1.489 -1.4942 -0.4099 -0.1055
   18CHTO   O32 7478   4.783   7.737   1.678  0.1261  0.5047  0.0132
   18CHTO   H69 7479   4.760   7.784   1.756  1.8304  2.0093 -0.3668
   18CHTO   C48 7480   4.554   7.727   1.586  0.3618  0.0323 -0.5156
   18CHTO   H90 7481   4.530   7.779   1.679 -0.4886 -3.3787  1.2439
   18CHTO    N9 7482   4.530   7.576   1.614 -0.1962 -0.0512 -0.0398
   18CHTO   H77 7483   4.428   7.563   1.645 -0.0349 -3.8168 -0.7973
   18CHTO   H78 7484   4.599   7.531   1.684  0.0418  2.7002  1.5638
   18CHTO   C51 7485   4.462   7.788   1.471  0.1092  0.0200  0.3585
   18CHTO   H93 7486   4.484   7.731   1.381 -0.2088  2.7504 -1.5000
   18CHTO   O30 7487   4.499   7.925   1.453 -0.5447  0.2757  0.2694
   18CHTO   C46 7488   4.624   7.952   1.397 -0.5184  0.6401  0.1997
   18CHTO   H88 7489   4.642   7.884   1.314 -1.5092 -0.9511  1.2643
   18CHTO   C53 7490   4.634   8.101   1.351  0.3763 -0.0589 -0.1271
   18CHTO   O72 7491   4.580   8.113   1.218  0.1329  0.0993 -0.1587
   18CHTO  H199 7492   4.643   8.131   1.151 -2.8472 -0.4944 -3.2632
   18CHTO   O22 7493   4.312   7.795   1.491 -0.1487 -0.0911  0.2048
   18CHTO   C31 7494   4.221   7.808   1.375 -0.2647 -0.3762  0.2446
   18CHTO   H59 7495   4.119   7.806   1.419 -0.0832 -0.4088  0.6681
   18CHTO   C29 7496   4.240   7.942   1.301  0.5338  0.8403  0.1112
   18CHTO   H57 7497   4.348   7.948   1.284  0.4408 -0.8837 -1.2018
   18CHTO   O21 7498   4.199   8.043   1.396 -0.6565 -0.2170  0.6626
   18CHTO   H37 7499   4.105   8.044   1.396 -0.6942  2.4197  4.1764
   18CHTO   C27 7500   4.173   7.954   1.162  0.1104 -0.2268  0.5461
   18CHTO   H55 7501   4.064   7.945   1.177  0.1748 -2.0009  0.0244
   18CHTO    N5 7502   4.197   8.079   1.089 -0.4533  0.1355 -0.1485
   18CHTO   H43 7503   4.167   8.168   1.142 -0.4575  0.7255 -1.1197
   18CHTO   H44 7504   4.289   8.089   1.033 -0.4955  2.2271  0.1242
   18CHTO   C25 7505   4.225   7.830   1.079  0.3941 -0.2514 -0.3299
   18CHTO   H53 7506   4.332   7.823   1.103  0.5807 -1.2287 -1.4327
   18CHTO   O17 7507   4.161   7.717   1.149 -0.0133  0.1541  0.0568
   18CHTO   C32 7508   4.226   7.690   1.275  0.1875  0.1407  0.2018
   18CHTO   H60 7509   4.330   7.670   1.250  0.1514  1.2143 -0.8266
   18CHTO   C36 7510   4.172   7.560   1.332 -0.0862 -0.2196  0.1196
   18CHTO   O25 7511   4.030   7.573   1.334  0.3595  0.5024 -0.0699
   18CHTO   H40 7512   3.996   7.490   1.362 -0.7275  0.4679 -1.4323
   18CHTO   O15 7513   4.190   7.822   0.914  0.2033 -0.3241  0.3431
   18CHTO   C19 7514   4.233   7.731   0.811  0.4097 -0.2321 -0.0770
   18CHTO   H47 7515   4.176   7.637   0.819 -0.3086  0.2821  1.0079
   18CHTO   C20 7516   4.211   7.800   0.672  0.5544  0.4261  0.2027
   18CHTO   H48 7517   4.265   7.895   0.663 -0.6089  1.3153  2.2307
   18CHTO   O19 7518   4.069   7.822   0.658 -0.3373  0.2702  0.4270
   18CHTO   H35 7519   4.053   7.896   0.714 -2.3997  1.0688 -1.1730
   18CHTO   C21 7520   4.260   7.705   0.555  0.0428 -0.4078  0.3763
   18CHTO   H49 7521   4.202   7.613   0.557  0.8152 -0.8781  2.2375
   18CHTO    N4 7522   4.240   7.761   0.421 -0.2653 -0.1688  0.2017
   18CHTO   H41 7523   4.273   7.863   0.434 -1.3271  0.1307  0.6228
   18CHTO   H42 7524   4.294   7.715   0.340 -2.0768 -2.0209 -0.0114
   18CHTO   C22 7525   4.408   7.668   0.576 -0.1297  0.0076  0.3998
   18CHTO   H50 7526   4.462   7.762   0.561 -0.8565  0.5719  1.2683
   18CHTO   O14 7527   4.423   7.611   0.705 -0.0852 -0.0577  0.4739
   18CHTO   C23 7528   4.382   7.695   0.814 -0.4114  0.1382  0.3670
   18CHTO   H51 7529   4.447   7.784   0.807  0.6801 -0.2186  4.5320
   18CHTO   C34 7530   4.434   7.630   0.940 -0.0811 -0.1458  0.1021
   18CHTO   O23 7531   4.375   7.503   0.975  0.2438 -0.0086  0.0404
   18CHTO   H38 7532   4.435   7.457   1.029  2.6514  1.3900 -1.3561
   18CHTO   O16 7533   4.458   7.564   0.484 -0.3920  0.0545  0.1758
   18CHTO   C24 7534   4.603   7.605   0.399  0.1032 -0.2145  0.0375
   18CHTO   H52 7535   4.638   7.703   0.428  0.9520 -0.3351 -0.5668
   18CHTO   C26 7536   4.582   7.596   0.249 -0.1077  0.3563 -0.0337
   18CHTO   H54 7537   4.509   7.514   0.233  3.0877 -1.8529 -4.1776
   18CHTO   O20 7538   4.508   7.713   0.211 -0.1463  0.0340  0.1602
   18CHTO   H36 7539   4.484   7.721   0.121 -1.1113  0.4827  0.4412
   18CHTO   C30 7540   4.712   7.575   0.163 -0.9636  0.6677 -0.5001
   18CHTO   H58 7541   4.761   7.673   0.158  2.4750 -1.0226 -0.9718
   18CHTO    N6 7542   4.682   7.536   0.024 -0.0390  0.6082 -0.0129
   18CHTO   H45 7543   4.705   7.434  -0.002 -3.0584 -0.7665  2.3750
   18CHTO   H46 7544   4.753   7.601  -0.025  1.2644 -0.8098 -0.0288
   18CHTO   C33 7545   4.811   7.468   0.226  0.2835 -0.0858 -0.0985
   18CHTO   H61 7546   4.761   7.370   0.231 -0.4523  0.2977  0.1647
   18CHTO   O18 7547   4.827   7.521   0.360 -0.5174 -0.3710 -0.2114
   18CHTO   C28 7548   4.711   7.502   0.443 -0.9828  0.2296  0.2497
   18CHTO   H56 7549   4.673   7.401   0.429 -1.4216  0.5735 -1.0658
   18CHTO   C35 7550   4.779   7.533   0.581  0.0349  0.2704 -0.0009
   18CHTO   O24 7551   4.689   7.524   0.694 -0.5815 -0.3131  0.4136
   18CHTO   H39 7552   4.605   7.488   0.673 -0.3557 -0.5257 -0.1548
   18CHTO    O9 7553   4.937   7.442   0.164  0.0419 -0.6316 -0.0025
   18CHTO   C13 7554   5.060   7.368   0.280 -0.4584 -0.0843 -0.4186
   18CHTO   H26 7555   5.007   7.301   0.351 -1.0645 -1.0907 -1.8026
   18CHTO   C11 7556   5.149   7.489   0.354 -0.8925  0.5036  0.2204
   18CHTO   H24 7557   5.075   7.528   0.426  0.2285  1.2737  0.9700
   18CHTO    O8 7558   5.161   7.585   0.246  0.7231  0.0210  0.1991
   18CHTO    H3 7559   5.239   7.567   0.197  0.3825 -1.5927  0.2195
   18CHTO    C9 7560   5.267   7.432   0.431  0.2191 -0.4753 -0.2231
   18CHTO   H22 7561   5.229   7.357   0.501  2.6776  0.4258  2.1940
   18CHTO    N2 7562   5.330   7.535   0.514 -0.4805 -0.3958 -0.6719
   18CHTO   H10 7563   5.361   7.621   0.456 -0.5521  0.9855  1.2665
   18CHTO   H11 7564   5.418   7.492   0.558 -0.5103 -0.0520 -0.2694
   18CHTO    C7 7565   5.357   7.349   0.329 -0.2136 -0.1526  0.0056
   18CHTO   H20 7566   5.446   7.320   0.389  0.5027  0.0687 -0.9506
   18CHTO    O4 7567   5.282   7.235   0.288  0.6763 -0.1753 -0.0120
   18CHTO   C14 7568   5.160   7.258   0.217  0.4255  0.1949  0.6911
   18CHTO   H27 7569   5.102   7.164   0.223  1.0841 -0.3272 -0.8763
   18CHTO   C18 7570   5.195   7.274   0.065  0.5310  0.3801 -0.5086
   18CHTO   O13 7571   5.082   7.288  -0.029 -0.3299 -0.5170 -0.1145
   18CHTO    H7 7572   5.050   7.375  -0.016 -3.5093 -1.2057 -2.8705
   18CHTO    O2 7573   5.418   7.429   0.197  0.7184  0.1826 -0.4119
   18CHTO    C1 7574   5.554   7.396   0.169 -0.1176 -0.4969 -0.0841
   18CHTO   H14 7575   5.584   7.449   0.076 -0.0246  2.1513  1.4238
   18CHTO    C2 7576   5.578   7.241   0.142 -0.6790  0.0801  0.0965
   18CHTO   H15 7577   5.551   7.190   0.236  0.9711 -1.3474 -0.1749
   18CHTO    O6 7578   5.492   7.186   0.041 -0.3212  0.0239 -0.2073
   18CHTO    H1 7579   5.481   7.093   0.046  1.6792 -0.2522 -0.4329
   18CHTO    C3 7580   5.737   7.210   0.120 -0.0359 -0.7137  0.1684
   18CHTO   H16 7581   5.761   7.252   0.021 -0.5151 -0.9336 -0.0456
   18CHTO    N1 7582   5.764   7.065   0.121 -0.3971 -0.0794  0.0941
   18CHTO    H8 7583   5.812   7.027   0.032 -0.9322  1.6389 -0.9787
   18CHTO    H9 7584   5.670   7.014   0.137 -0.4363 -0.1402 -0.3045
   18CHTO    C4 7585   5.821   7.292   0.229  0.1017 -0.0047  0.0983
   18CHTO   H17 7586   5.809   7.240   0.324  0.0565  0.3076  0.2624
   18CHTO    O1 7587   5.780   7.426   0.246 -0.3476 -0.2142 -0.1576
   18CHTO    C5 7588   5.644   7.456   0.278  0.2525  0.1186  0.3260
   18CHTO   H18 7589   5.619   7.413   0.375  0.5806 -0.3188  0.2167
   18CHTO   C16 7590   5.631   7.615   0.294  0.1059 -0.0830  0.1966
   18CHTO   O11 7591   5.706   7.658   0.411  0.0302 -0.3936  0.2987
   18CHTO    H5 7592   5.679   7.609   0.486 -1.3826 -0.1225 -0.0122
   18CHTO    O3 7593   5.963   7.298   0.194  0.4683  0.6558  0.1532
   18CHTO    C6 7594   6.051   7.302   0.309  0.0637  0.5272  0.1642
   18CHTO   H19 7595   5.998   7.345   0.394  1.0589  1.3945  0.3539
   18CHTO    C8 7596   6.104   7.157   0.343 -0.7536  0.0826  0.0953
   18CHTO   H21 7597   6.148   7.113   0.254  0.3831  2.0394 -0.3496
   18CHTO    O7 7598   5.992   7.074   0.372  0.3544 -0.2113 -0.6537
   18CHTO    H2 7599   6.012   6.987   0.343  2.5791  0.1907 -0.4670
   18CHTO   C12 7600   6.215   7.165   0.457  0.6785 -0.4814  0.0412
   18CHTO   H25 7601   6.165   7.201   0.550 -0.1750  0.7370 -0.8836
   18CHTO    N3 7602   6.275   7.032   0.489 -0.4042 -0.0569  0.6232
   18CHTO   H12 7603   6.212   6.954   0.450  0.6867 -0.7659  0.2768
   18CHTO   H13 7604   6.369   7.030   0.436  0.3309 -0.3049  1.9024
   18CHTO   C15 7605   6.324   7.264   0.417 -0.2479 -0.6827  0.0065
   18CHTO   H28 7606   6.373   7.238   0.323 -0.4671 -0.6993 -0.1033
   18CHTO   O10 7607   6.444   7.281   0.522 -0.4991 -0.7264  0.0486
   18CHTO    H4 7608   6.505   7.348   0.499  0.0854 -0.3283  2.6128
   18CHTO    O5 7609   6.261   7.395   0.393 -0.2608 -0.4284 -0.1106
   18CHTO   C10 7610   6.170   7.400   0.285 -0.0480  0.3973 -0.0365
   18CHTO   H23 7611   6.223   7.359   0.199  2.0268  0.9415  0.9427
   18CHTO   C17 7612   6.129   7.547   0.258 -0.4602  0.0113 -0.1944
   18CHTO   O12 7613   6.061   7.597   0.373  1.0521  0.1264 -0.3188
   18CHTO    H6 7614   6.016   7.672   0.340 -2.0436 -1.4147  0.2323
   19CHTO  H203 7615   4.679   9.055   1.988 -1.6178 -0.8457 -1.0144
   19CHTO   O82 7616   4.733   8.978   1.992 -0.2123  0.1905  0.0736
   19CHTO  C123 7617   4.661   8.859   1.947  0.1696 -0.3415 -0.5175
   19CHTO  H227 7618   4.579   8.887   1.878 -0.0672 -1.7490 -0.8219
   19CHTO   O77 7619   4.775   8.797   1.886  0.2184 -0.2661  0.7480
   19CHTO  C118 7620   4.747   8.666   1.840 -0.7374 -0.4441  0.5435
   19CHTO  H222 7621   4.667   8.678   1.765  1.4525 -0.3874 -1.8796
   19CHTO  C125 7622   4.872   8.609   1.763  0.1618 -0.2083 -0.1675
   19CHTO   O84 7623   4.897   8.680   1.649 -0.1793 -0.1551 -0.3654
   19CHTO  H205 7624   4.949   8.634   1.587 -0.4368 -1.1914  0.1861
   19CHTO  C114 7625   4.717   8.575   1.961  0.2549 -0.4759 -0.2090
   19CHTO  H218 7626   4.802   8.573   2.029 -0.4989  1.2384  0.8058
   19CHTO  C116 7627   4.602   8.627   2.042 -0.2474  0.4696  0.7918
   19CHTO  H220 7628   4.510   8.609   1.982  0.9199  0.1973 -0.9382
   19CHTO   O79 7629   4.574   8.541   2.159  0.0260  0.2138 -0.0087
   19CHTO  H201 7630   4.561   8.594   2.235  0.0806 -2.0459  1.6259
   19CHTO  C120 7631   4.605   8.781   2.071  0.0941 -0.5305  0.4733
   19CHTO  H224 7632   4.665   8.800   2.163 -1.0375  2.4051  0.6430
   19CHTO   N21 7633   4.471   8.826   2.119 -0.7384  1.1721  0.0243
   19CHTO  H211 7634   4.466   8.895   2.203 -0.0803  1.8046 -0.4515
   19CHTO  H212 7635   4.399   8.846   2.042 -0.8871 -2.2672 -0.7810
   19CHTO   O75 7636   4.699   8.446   1.903 -0.4036  0.5653 -0.2147
   19CHTO  C112 7637   4.792   8.323   1.977 -0.2798  0.1053 -0.6528
   19CHTO  H216 7638   4.795   8.331   2.086  0.7069 -1.4592 -0.5415
   19CHTO   O73 7639   4.928   8.326   1.923  0.3432 -0.3264  0.1532
   19CHTO  C113 7640   5.015   8.224   1.965  0.5363 -0.3921 -0.4369
   19CHTO  H217 7641   5.019   8.228   2.076  0.3980 -2.4473 -0.3337
   19CHTO  C124 7642   5.163   8.255   1.927 -0.0814  0.2373 -0.6348
   19CHTO   O83 7643   5.265   8.163   1.978 -0.0769  0.0964  0.0471
   19CHTO  H204 7644   5.351   8.200   1.983  0.7765 -1.6020 -1.5867
   19CHTO  C109 7645   4.967   8.083   1.926  0.7792 -0.7537  0.2305
   19CHTO  H213 7646   4.956   8.079   1.817 -2.2781  1.3323  0.3675
   19CHTO  C110 7647   4.826   8.069   1.985 -0.4930  0.6535  0.2899
   19CHTO  H214 7648   4.844   8.069   2.092  2.1050  0.2471 -0.1108
   19CHTO   O78 7649   4.766   7.944   1.950  0.5320 -0.3190 -0.2192
   19CHTO  H200 7650   4.830   7.877   1.962  1.0932  0.1567 -0.5587
   19CHTO  C111 7651   4.729   8.178   1.944 -0.3011 -0.5868  0.2676
   19CHTO  H215 7652   4.716   8.174   1.835  0.3128 -2.8920  0.2540
   19CHTO   N19 7653   4.598   8.172   2.004 -0.1677  0.5741 -0.6785
   19CHTO  H207 7654   4.511   8.171   1.940  0.5955 -0.3746 -1.7055
   19CHTO  H208 7655   4.597   8.182   2.112  0.5919  1.2286 -0.7241
   19CHTO   O74 7656   5.063   7.979   1.967 -0.0400 -0.1495 -0.0139
   19CHTO  C115 7657   5.068   7.854   1.857 -0.1279  0.0871 -0.0150
   19CHTO  H219 7658   4.969   7.813   1.839  0.6623 -2.2656  0.7687
   19CHTO   O76 7659   5.115   7.910   1.712 -0.2013 -0.4810 -0.1646
   19CHTO  C122 7660   5.263   7.923   1.704  0.9933  0.2356  0.0822
   19CHTO  H226 7661   5.297   7.988   1.784 -1.6733  0.6804  0.9040
   19CHTO  C126 7662   5.309   7.991   1.575  0.7681  0.6374 -0.4111
   19CHTO   O85 7663   5.336   8.131   1.583  0.0873 -0.1368  0.2815
   19CHTO  H206 7664   5.320   8.167   1.498  1.5480 -1.9394 -0.7821
   19CHTO  C121 7665   5.338   7.788   1.725 -0.1836  0.7402 -0.6140
   19CHTO  H225 7666   5.372   7.742   1.630 -0.0972  0.6674 -0.5479
   19CHTO   O81 7667   5.451   7.803   1.807  0.2996  0.2238 -0.4518
   19CHTO  H202 7668   5.518   7.737   1.800  0.8502  0.5430  1.6361
   19CHTO  C119 7669   5.256   7.682   1.794 -0.7158  0.1540  0.4062
   19CHTO  H223 7670   5.184   7.650   1.720 -0.6652  0.3041  0.2925
   19CHTO  C117 7671   5.168   7.741   1.910 -0.8579 -0.6597  0.6599
   19CHTO  H221 7672   5.220   7.794   1.990 -1.6820 -0.9792  1.4275
   19CHTO   N20 7673   5.090   7.639   1.981  0.0656  0.3592  0.8366
   19CHTO  H209 7674   5.146   7.557   2.023 -0.5630 -0.9729 -0.8526
   19CHTO  H210 7675   5.037   7.691   2.059  0.7467  3.8367 -0.9378
   19CHTO   O80 7676   5.337   7.537   1.816  0.0963 -0.4720  0.2943
   19CHTO  C103 7677   5.382   7.454   1.697  0.1192  0.1569 -0.5859
   19CHTO  H190 7678   5.352   7.499   1.603  0.0600  1.5048  0.0737
   19CHTO  C101 7679   5.534   7.417   1.686  0.1643 -1.1635  0.8387
   19CHTO  H188 7680   5.566   7.363   1.775 -0.5213 -1.1521  1.0958
   19CHTO   O68 7681   5.619   7.565   1.687 -0.4610  0.4818 -0.5305
   19CHTO  H168 7682   5.661   7.567   1.771 -4.7178  0.3024  1.7312
   19CHTO   C99 7683   5.560   7.324   1.558 -0.3271 -0.8499  0.1163
   19CHTO  H186 7684   5.526   7.373   1.464  1.8820  1.1297  0.2820
   19CHTO   N17 7685   5.705   7.294   1.528 -0.0453 -0.2590 -0.4522
   19CHTO  H174 7686   5.757   7.389   1.521 -2.1379  0.8869 -0.9940
   19CHTO  H175 7687   5.759   7.234   1.599 -1.1169 -1.3917 -0.5734
   19CHTO   C97 7688   5.475   7.198   1.578 -0.6972 -0.0057 -0.0572
   19CHTO  H184 7689   5.519   7.138   1.659  0.1451 -1.7503 -1.7623
   19CHTO   O64 7690   5.334   7.222   1.606  0.0870 -0.2955  0.2954
   19CHTO  C104 7691   5.299   7.313   1.711  0.1979  0.4374  0.2269
   19CHTO  H191 7692   5.325   7.266   1.806  1.3557  0.6245  0.0035
   19CHTO  C108 7693   5.139   7.317   1.713 -0.1078  0.0827 -0.2653
   19CHTO   O71 7694   5.081   7.193   1.751  0.8765 -0.1454 -0.2209
   19CHTO  H171 7695   5.095   7.172   1.841 -0.1866 -1.3532 -0.3257
   19CHTO   O62 7696   5.472   7.120   1.458 -0.1150 -0.0334  0.0622
   19CHTO   C91 7697   5.395   7.004   1.434  0.1760  0.0813 -0.2003
   19CHTO  H178 7698   5.322   7.002   1.515 -0.7768 -4.6802 -1.0469
   19CHTO   C92 7699   5.465   6.864   1.459 -0.0988 -0.0711 -0.0792
   19CHTO  H179 7700   5.557   6.862   1.398 -2.2565  1.2729 -3.5797
   19CHTO   O66 7701   5.499   6.847   1.602 -0.3550 -1.0308  1.1905
   19CHTO  H166 7702   5.580   6.801   1.612  1.6418  2.3412  1.5354
   19CHTO   C93 7703   5.375   6.742   1.418 -0.4148  0.4323  0.1291
   19CHTO  H180 7704   5.297   6.723   1.493  1.2975 -2.8409  1.2041
   19CHTO   N16 7705   5.447   6.608   1.433 -0.2686  0.4719  0.6217
   19CHTO  H172 7706   5.429   6.556   1.526  0.0912 -0.4031  0.2146
   19CHTO  H173 7707   5.435   6.546   1.345 -0.7178  0.1094  0.9354
   19CHTO   C94 7708   5.309   6.769   1.277 -0.0846  0.0790 -0.4009
   19CHTO  H181 7709   5.385   6.771   1.199  1.8099 -1.2776  1.3664
   19CHTO   O61 7710   5.241   6.895   1.272 -0.2003  0.0809 -0.5806
   19CHTO   C95 7711   5.325   7.007   1.294 -0.0636 -0.2845  0.4430
   19CHTO  H182 7712   5.402   7.018   1.217 -1.8254  2.3107 -1.0212
   19CHTO  C106 7713   5.243   7.138   1.280 -0.4440 -0.2658 -0.8566
   19CHTO   O69 7714   5.174   7.153   1.159 -0.4534 -0.4373  0.8394
   19CHTO  H169 7715   5.119   7.227   1.143 -0.5051 -0.5807  0.3365
   19CHTO   O63 7716   5.189   6.660   1.247 -0.3691 -0.0778  0.2515
   19CHTO   C96 7717   5.156   6.609   1.104 -0.1912 -0.8373  1.0339
   19CHTO  H183 7718   5.247   6.570   1.057 -0.8867  0.8758 -1.8522
   19CHTO   C98 7719   5.094   6.722   1.010 -0.5392 -0.2077  0.0317
   19CHTO  H185 7720   5.161   6.809   1.012 -0.7311 -0.0418 -0.5647
   19CHTO   O67 7721   5.106   6.675   0.873 -0.3939  0.6006  0.1050
   19CHTO  H167 7722   5.036   6.614   0.859 -0.1559 -0.0778  1.7118
   19CHTO  C102 7723   4.945   6.759   1.044 -0.0115 -0.8209  0.8662
   19CHTO  H189 7724   4.899   6.782   0.947  0.8559 -0.0849  0.6314
   19CHTO   N18 7725   4.930   6.878   1.131  0.8908 -0.1624 -0.2393
   19CHTO  H176 7726   4.923   6.967   1.070  0.0158  0.1422  0.3066
   19CHTO  H177 7727   4.995   6.882   1.217  1.2388 -1.3076 -0.4363
   19CHTO  C105 7728   4.867   6.642   1.114  0.1294  0.2570  0.1339
   19CHTO  H192 7729   4.880   6.656   1.221 -2.4013  2.2323  0.2353
   19CHTO   O65 7730   4.926   6.514   1.071 -0.5765 -0.5493 -0.4499
   19CHTO  C100 7731   5.062   6.492   1.120  0.3099 -0.7405  0.1425
   19CHTO  H187 7732   5.055   6.467   1.227  2.1471 -0.1286  0.4204
   19CHTO  C107 7733   5.107   6.367   1.046 -0.5652  0.2622 -0.3452
   19CHTO   O70 7734   5.016   6.264   1.075  0.1851 -0.1817 -0.1332
   19CHTO  H170 7735   4.946   6.277   1.014 -0.1129 -1.1824 -0.0084
   19CHTO   O57 7736   4.715   6.653   1.053 -0.0114 -0.0334 -0.1692
   19CHTO   C85 7737   4.603   6.597   1.131 -0.5955  0.1332 -0.1210
   19CHTO  H157 7738   4.639   6.590   1.236  0.9534 -0.0680 -0.6541
   19CHTO   C83 7739   4.578   6.456   1.083  0.1845 -0.2401  0.7744
   19CHTO  H155 7740   4.672   6.405   1.104  1.0346  1.2687  0.7204
   19CHTO   O56 7741   4.560   6.457   0.939 -0.1218 -0.0180 -0.0009
   19CHTO  H135 7742   4.639   6.491   0.900  0.1832  2.0080  2.2167
   19CHTO   C81 7743   4.457   6.397   1.167 -0.1082  0.7049  0.5825
   19CHTO  H153 7744   4.479   6.394   1.274  1.5663 -2.1416  0.2285
   19CHTO   N14 7745   4.443   6.254   1.141  0.4614  0.4171 -0.1008
   19CHTO  H141 7746   4.528   6.210   1.188  0.6196 -0.3587 -1.1029
   19CHTO  H142 7747   4.355   6.218   1.192 -0.0061 -1.7386 -2.3358
   19CHTO   C79 7748   4.323   6.477   1.144 -0.6406 -0.1873  0.3141
   19CHTO  H151 7749   4.247   6.439   1.211 -0.7737 -1.0527 -0.3101
   19CHTO   O52 7750   4.350   6.621   1.176  0.0381 -0.3346 -0.0916
   19CHTO   C86 7751   4.467   6.680   1.116 -0.6183 -0.6730  0.2652
   19CHTO  H158 7752   4.429   6.681   1.012  2.2934 -1.2401 -0.8681
   19CHTO   C90 7753   4.478   6.826   1.159 -0.3877 -0.0905 -0.4708
   19CHTO   O60 7754   4.360   6.905   1.123  0.3133 -0.4434 -0.1442
   19CHTO  H138 7755   4.330   6.962   1.192 -0.2545 -1.5423  0.5213
   19CHTO   O50 7756   4.273   6.463   1.006 -0.3970  0.1156  0.3256
   19CHTO   C73 7757   4.169   6.416   0.910 -0.3593 -0.4630 -0.1383
   19CHTO  H145 7758   4.175   6.308   0.895  0.9234 -0.4861  0.5436
   19CHTO   C74 7759   4.182   6.502   0.776  0.2754  0.0629 -0.1523
   19CHTO  H146 7760   4.275   6.469   0.726 -0.0533 -0.1151 -0.6567
   19CHTO   O54 7761   4.071   6.456   0.700  0.1888  0.6213  0.4335
   19CHTO  H133 7762   4.049   6.505   0.623  1.3157 -0.7840 -0.7903
   19CHTO   C75 7763   4.181   6.657   0.807  0.8297  0.1837 -0.3894
   19CHTO  H147 7764   4.273   6.681   0.863 -0.1846 -0.7547  1.7229
   19CHTO   N13 7765   4.190   6.739   0.683  0.4714  0.1087 -0.3925
   19CHTO  H139 7766   4.291   6.763   0.653  0.6351 -0.7537 -0.5508
   19CHTO  H140 7767   4.139   6.834   0.693 -0.3662 -0.2512 -1.1719
   19CHTO   C76 7768   4.058   6.691   0.909 -0.2157 -0.0138  0.2714
   19CHTO  H148 7769   3.965   6.693   0.852 -0.0627  2.0973  0.0683
   19CHTO   O49 7770   4.039   6.594   1.020  0.4736 -0.8266  0.7599
   19CHTO   C77 7771   4.030   6.456   0.978  0.3621  0.2485 -0.3820
   19CHTO  H149 7772   3.946   6.425   0.917 -1.3440 -2.3440  3.1170
   19CHTO   C88 7773   4.007   6.362   1.103  0.6560 -0.3174 -0.0517
   19CHTO   O58 7774   3.858   6.363   1.155  0.2904  0.3777 -0.0536
   19CHTO  H136 7775   3.798   6.373   1.084 -1.0683  0.7916  1.1206
   19CHTO   O51 7776   4.088   6.834   0.993 -0.5656  0.7506 -0.6449
   19CHTO   C78 7777   3.984   6.935   0.985  0.4302 -0.3593  0.2318
   19CHTO  H150 7778   3.916   6.913   0.901 -1.0680  0.7871  1.1263
   19CHTO   C80 7779   4.062   7.066   0.951 -0.0252  0.1073 -0.2748
   19CHTO  H152 7780   4.123   7.091   1.040 -0.3437  1.2757 -0.3772
   19CHTO   O55 7781   4.152   7.059   0.841 -0.1770  0.2770 -0.4036
   19CHTO  H134 7782   4.216   7.127   0.835  0.7134 -0.4270  0.8868
   19CHTO   C84 7783   3.949   7.176   0.922 -0.0425 -0.2603  0.3028
   19CHTO  H156 7784   3.892   7.145   0.834 -1.3423  0.8929  0.7173
   19CHTO   N15 7785   4.006   7.315   0.896  0.0103 -0.0677 -0.6019
   19CHTO  H143 7786   4.074   7.307   0.814  2.1071  1.2073  0.9457
   19CHTO  H144 7787   3.929   7.385   0.871 -0.9714 -0.7243  0.4967
   19CHTO   C87 7788   3.842   7.191   1.033  0.6544  0.2158 -0.1210
   19CHTO  H159 7789   3.884   7.247   1.117  0.6943 -0.3285  0.2231
   19CHTO   O53 7790   3.794   7.050   1.100  0.2846 -0.2217  0.0064
   19CHTO   C82 7791   3.902   6.959   1.116  0.2690 -0.3402  0.3569
   19CHTO  H154 7792   3.967   6.999   1.194 -1.0166 -0.6506  1.6134
   19CHTO   C89 7793   3.845   6.828   1.169 -0.1455 -0.4650  0.0393
   19CHTO   O59 7794   3.776   6.855   1.293  0.3477  0.3360 -0.6142
   19CHTO  H137 7795   3.711   6.789   1.311  0.9264  0.0306  0.4069
   19CHTO   O45 7796   3.711   7.255   0.978 -0.3431 -0.4689  0.4703
   19CHTO   C67 7797   3.634   7.321   1.082 -0.3347 -0.0921 -0.3617
   19CHTO  H124 7798   3.655   7.268   1.175  0.5958  3.0640  1.3111
   19CHTO   C65 7799   3.675   7.473   1.108 -0.2716  0.1882 -0.5228
   19CHTO  H122 7800   3.698   7.513   1.009 -1.6512 -0.1776 -1.0098
   19CHTO   O44 7801   3.789   7.467   1.188  0.1899  0.0886 -0.0421
   19CHTO  H102 7802   3.765   7.468   1.279  0.3179  0.0786 -0.0075
   19CHTO   C63 7803   3.551   7.559   1.151 -1.0238  0.3991 -0.8397
   19CHTO  H120 7804   3.497   7.593   1.063 -1.8417  4.2708  1.0512
   19CHTO   N11 7805   3.589   7.695   1.208  0.5716  0.0893 -0.4169
   19CHTO  H108 7806   3.628   7.686   1.308 -0.3479 -0.8268 -0.1376
   19CHTO  H109 7807   3.498   7.749   1.222 -1.0795 -2.2689 -1.7804
   19CHTO   C61 7808   3.463   7.470   1.245 -0.7227 -0.9231 -0.4278
   19CHTO  H118 7809   3.379   7.535   1.273 -1.4612 -1.1392 -2.0406
   19CHTO   O40 7810   3.407   7.361   1.171  0.2718 -0.8687 -0.5205
   19CHTO   C68 7811   3.480   7.312   1.057  0.5848 -0.3045 -0.3693
   19CHTO  H125 7812   3.454   7.368   0.965  3.4122 -0.8037 -1.5489
   19CHTO   C72 7813   3.439   7.169   1.035 -0.0735 -0.5747  0.1835
   19CHTO   O48 7814   3.293   7.141   1.038 -0.2825  0.1161 -0.2085
   19CHTO  H105 7815   3.260   7.139   1.126  0.3823 -1.2980  0.0143
   19CHTO   O38 7816   3.528   7.424   1.363 -0.3811 -0.1704  0.0282
   19CHTO   C55 7817   3.464   7.336   1.464 -0.0879 -0.1352  0.1496
   19CHTO  H112 7818   3.400   7.267   1.408 -0.3490 -0.1336  0.4462
   19CHTO   C56 7819   3.383   7.412   1.579  0.8015 -0.1128 -1.1059
   19CHTO  H113 7820   3.454   7.484   1.621 -0.6992  0.2503  0.8716
   19CHTO   O42 7821   3.280   7.488   1.511  0.4131 -0.0057  0.5620
   19CHTO  H100 7822   3.322   7.551   1.456  0.2932 -0.8778 -0.5420
   19CHTO   C57 7823   3.325   7.303   1.683  0.6221  0.6233  0.4599
   19CHTO  H114 7824   3.234   7.271   1.634  0.8706 -1.0451  1.0317
   19CHTO   N10 7825   3.271   7.366   1.803  0.0685  0.2588 -0.4032
   19CHTO  H106 7826   3.196   7.437   1.770  0.5955 -0.1842 -2.6343
   19CHTO  H107 7827   3.355   7.418   1.846  1.1031  0.5067 -2.6745
   19CHTO   C58 7828   3.418   7.177   1.716 -0.1340  0.1127 -0.1339
   19CHTO  H115 7829   3.473   7.197   1.810 -0.1030 -0.1575 -0.0947
   19CHTO   O37 7830   3.508   7.150   1.616 -0.0145  0.2828 -0.0596
   19CHTO   C59 7831   3.572   7.254   1.538  0.5198 -0.1940 -0.0182
   19CHTO  H116 7832   3.630   7.313   1.609  0.1986  1.1693 -0.8698
   19CHTO   C70 7833   3.678   7.186   1.448  0.2431 -0.3627 -0.5135
   19CHTO   O46 7834   3.628   7.069   1.368 -0.7835 -0.2928 -0.0234
   19CHTO  H103 7835   3.578   7.015   1.426  0.1037 -0.5055  0.5523
   19CHTO   O39 7836   3.315   7.038   1.732 -0.0157 -0.2080 -0.1834
   19CHTO   C60 7837   3.301   6.943   1.628 -0.7220 -0.1105 -0.0791
   19CHTO  H117 7838   3.291   6.995   1.532  1.3142  1.5905  0.5801
   19CHTO   C62 7839   3.431   6.852   1.618 -0.1277  0.4729 -0.2924
   19CHTO  H119 7840   3.517   6.915   1.587  0.2171  1.1383  1.9448
   19CHTO   O43 7841   3.433   6.786   1.749  0.6284 -0.1102 -0.0780
   19CHTO  H101 7842   3.392   6.838   1.815 -1.3023 -1.4206 -0.2033
   19CHTO   C66 7843   3.416   6.748   1.498 -0.0747  0.0373 -0.6430
   19CHTO  H123 7844   3.397   6.808   1.409  0.7654 -0.4389 -1.1514
   19CHTO   N12 7845   3.542   6.665   1.478  0.0870  0.4170 -0.4827
   19CHTO  H110 7846   3.518   6.583   1.411  1.2234  1.6671 -2.4678
   19CHTO  H111 7847   3.597   6.635   1.566  0.3754  2.3472  0.0171
   19CHTO   C69 7848   3.286   6.661   1.510 -0.2545  0.6062 -0.3938
   19CHTO  H126 7849   3.287   6.595   1.599  1.1608 -0.1920 -0.9997
   19CHTO   O41 7850   3.153   6.758   1.535 -0.2411 -0.0399  0.4543
   19CHTO   C64 7851   3.170   6.855   1.649  0.7060 -0.4972 -0.5337
   19CHTO  H121 7852   3.176   6.795   1.742  1.2621 -0.0482 -0.2780
   19CHTO   C71 7853   3.049   6.949   1.660  0.3581 -0.3402 -0.1952
   19CHTO   O47 7854   2.932   6.913   1.736 -0.1256  0.1387  0.4091
   19CHTO  H104 7855   2.884   6.848   1.688 -0.6837  1.7492 -1.2673
   19CHTO   O34 7856   3.255   6.559   1.390  0.0620  0.5133  0.4400
   19CHTO   C49 7857   3.165   6.586   1.256 -0.3405 -0.2136  0.2028
   19CHTO   H91 7858   3.058   6.580   1.278 -0.8620  1.5330 -1.6668
   19CHTO   C47 7859   3.209   6.479   1.156  0.6018  0.1543  0.0033
   19CHTO   H89 7860   3.154   6.494   1.061  3.4757  0.3334 -1.7132
   19CHTO   O33 7861   3.170   6.350   1.219 -0.2505  0.1917 -0.3207
   19CHTO   H70 7862   3.181   6.283   1.153 -2.1692  1.1516 -1.6397
   19CHTO   C45 7863   3.360   6.488   1.133  0.0576 -1.7008  0.5557
   19CHTO   H87 7864   3.402   6.483   1.235  0.2058 -1.8097  0.4892
   19CHTO    N8 7865   3.415   6.379   1.052 -0.2781  0.5499 -0.4919
   19CHTO   H75 7866   3.521   6.358   1.057 -0.7188 -1.3270  1.4547
   19CHTO   H76 7867   3.384   6.391   0.949  0.5858  2.2119 -0.5804
   19CHTO   C43 7868   3.397   6.643   1.088 -0.1923  0.6389  0.1028
   19CHTO   H85 7869   3.505   6.639   1.107 -0.2884  1.8592  0.9352
   19CHTO   O29 7870   3.333   6.745   1.166  0.2354 -0.1521 -0.1897
   19CHTO   C50 7871   3.193   6.723   1.196  0.1855  0.0543 -0.5650
   19CHTO   H92 7872   3.164   6.794   1.275 -1.0568 -0.2205 -0.7500
   19CHTO   C54 7873   3.104   6.772   1.077 -0.6077 -0.3344 -0.0584
   19CHTO   O36 7874   2.964   6.760   1.086 -0.0367 -0.1831 -0.0320
   19CHTO   H72 7875   2.923   6.825   1.032  3.5343  0.9284 -1.5451
   19CHTO   O27 7876   3.384   6.660   0.944 -0.4793 -0.7716 -0.0419
   19CHTO   C37 7877   3.429   6.718   0.823 -0.5394  0.3797 -0.4389
   19CHTO   H79 7878   3.415   6.652   0.737 -0.5271 -2.9190  1.9852
   19CHTO   C38 7879   3.356   6.851   0.799  0.4014  0.1460  0.0225
   19CHTO   H80 7880   3.375   6.915   0.887 -1.5144  1.2461 -0.3450
   19CHTO   O31 7881   3.216   6.823   0.782 -0.2553  0.3389 -0.6405
   19CHTO   H68 7882   3.174   6.901   0.814 -1.7096 -0.2183 -1.1576
   19CHTO   C39 7883   3.423   6.918   0.665  0.6673 -0.0837  0.9878
   19CHTO   H81 7884   3.393   6.850   0.585 -0.0716  0.7455  0.5599
   19CHTO    N7 7885   3.366   7.050   0.631 -0.1467 -0.4981  0.2450
   19CHTO   H73 7886   3.415   7.145   0.652 -1.0397  0.5397 -2.1572
   19CHTO   H74 7887   3.262   7.069   0.652 -0.3271  0.9168 -1.7294
   19CHTO   C40 7888   3.577   6.925   0.679 -0.2527 -0.3226 -0.5374
   19CHTO   H82 7889   3.603   7.008   0.745  0.2734 -0.9785  0.0988
   19CHTO   O26 7890   3.638   6.800   0.721  0.0773 -0.2938 -0.7835
   19CHTO   C41 7891   3.582   6.754   0.849  0.2024 -0.7391 -0.2599
   19CHTO   H83 7892   3.583   6.827   0.931  1.4146  0.0368 -0.9505
   19CHTO   C52 7893   3.658   6.632   0.897 -0.2626 -0.1185  0.4091
   19CHTO   O35 7894   3.720   6.513   0.787  0.1988 -0.2280  0.1572
   19CHTO   H71 7895   3.802   6.547   0.757  0.1417 -1.4549 -1.4840
   19CHTO   O28 7896   3.645   6.941   0.552 -0.3690  0.0701 -0.2876
   19CHTO   C42 7897   3.756   7.030   0.534 -0.5334  0.3169 -0.3110
   19CHTO   H84 7898   3.819   7.021   0.623  0.3500 -0.5607 -1.0148
   19CHTO   C44 7899   3.720   7.189   0.518  0.2551  0.0606  0.1347
   19CHTO   H86 7900   3.653   7.200   0.433  2.0018  2.5277 -0.9869
   19CHTO   O32 7901   3.655   7.220   0.644  0.4373  0.2316 -0.0805
   19CHTO   H69 7902   3.616   7.305   0.635 -0.1034  0.3265  2.8605
   19CHTO   C48 7903   3.845   7.278   0.503 -0.2735  0.2753  0.1371
   19CHTO   H90 7904   3.900   7.282   0.598 -0.1575  0.8286  0.0510
   19CHTO    N9 7905   3.817   7.419   0.477 -0.0519  0.5468  0.4661
   19CHTO   H77 7906   3.775   7.470   0.562  2.4058 -1.1709  2.8066
   19CHTO   H78 7907   3.760   7.427   0.386  1.7385  0.3722 -0.7010
   19CHTO   C51 7908   3.947   7.213   0.404  0.3345 -0.1619 -0.2365
   19CHTO   H93 7909   3.919   7.229   0.300  1.7153  3.0199 -0.1953
   19CHTO   O30 7910   3.967   7.079   0.432 -0.2605 -0.3982  0.4649
   19CHTO   C46 7911   3.844   6.989   0.411  0.3869 -0.3390 -0.1205
   19CHTO   H88 7912   3.806   7.013   0.312  1.5573 -0.6697 -0.6536
   19CHTO   C53 7913   3.909   6.853   0.415 -0.4781  0.5703 -0.6841
   19CHTO   O72 7914   4.010   6.823   0.320  0.0120  0.0916  0.5127
   19CHTO  H199 7915   3.985   6.819   0.230 -0.6999  1.1742  0.6483
   19CHTO   O22 7916   4.073   7.279   0.418  0.7194 -0.5143  0.2025
   19CHTO   C31 7917   4.196   7.234   0.341  0.1955 -0.0470  0.2719
   19CHTO   H59 7918   4.191   7.124   0.327  4.4004 -0.5063  1.7064
   19CHTO   C29 7919   4.210   7.295   0.201 -0.0113  0.2759 -0.2727
   19CHTO   H57 7920   4.238   7.399   0.220 -2.2510  1.0554 -1.0116
   19CHTO   O21 7921   4.094   7.284   0.119  0.2157 -0.1960 -0.0388
   19CHTO   H37 7922   4.107   7.321   0.034  0.0447 -1.4206 -0.6018
   19CHTO   C27 7923   4.330   7.216   0.134  1.1477 -0.2074  0.0640
   19CHTO   H55 7924   4.293   7.117   0.105  1.1816 -0.4494  0.8249
   19CHTO    N5 7925   4.373   7.285   0.012  0.0503 -0.7137 -0.1248
   19CHTO   H43 7926   4.437   7.221  -0.048  0.8326 -0.4946  0.4630
   19CHTO   H44 7927   4.289   7.328  -0.039 -0.5343  0.7949  2.0343
   19CHTO   C25 7928   4.455   7.203   0.227  0.1219  0.4727  0.7004
   19CHTO   H53 7929   4.516   7.294   0.236 -0.7901  1.0370  1.2093
   19CHTO   O17 7930   4.421   7.164   0.360 -0.3123 -0.3343  0.6107
   19CHTO   C32 7931   4.328   7.251   0.425 -0.1927  0.8360  0.4129
   19CHTO   H60 7932   4.359   7.355   0.411 -3.0350  2.0191  2.5414
   19CHTO   C36 7933   4.320   7.203   0.574 -0.1119  0.4600 -0.4732
   19CHTO   O25 7934   4.442   7.235   0.640 -0.4998  0.0824  0.3311
   19CHTO   H40 7935   4.421   7.234   0.731 -2.4939  0.2347 -0.1220
   19CHTO   O15 7936   4.561   7.094   0.181  0.0822  0.2250 -0.3831
   19CHTO   C19 7937   4.631   6.974   0.143  0.1638 -0.0560 -0.2885
   19CHTO   H47 7938   4.588   6.940   0.048 -0.3350 -1.8227  0.5459
   19CHTO   C20 7939   4.788   6.999   0.128 -0.6881 -0.6422 -0.4058
   19CHTO   H48 7940   4.835   7.025   0.224  2.0779 -1.3719 -1.4947
   19CHTO   O19 7941   4.803   7.110   0.039  0.2814  0.3006  0.3847
   19CHTO   H35 7942   4.766   7.183   0.084 -0.5966  0.1894 -0.1428
   19CHTO   C21 7943   4.852   6.866   0.065  0.3242  1.0823  0.3139
   19CHTO   H49 7944   4.815   6.855  -0.037  2.5496 -0.9474 -0.3158
   19CHTO    N4 7945   4.998   6.869   0.046 -0.0648  0.1622 -0.2743
   19CHTO   H41 7946   5.009   6.840  -0.058  0.8781  1.0677 -0.4328
   19CHTO   H42 7947   5.037   6.969   0.058  1.1267  0.0442 -2.8956
   19CHTO   C22 7948   4.799   6.738   0.124  0.1652  0.5269 -0.1752
   19CHTO   H50 7949   4.866   6.709   0.204  2.2174  1.4906 -1.5021
   19CHTO   O14 7950   4.662   6.742   0.179  0.1367 -0.1371 -0.0775
   19CHTO   C23 7951   4.609   6.865   0.240  0.4720  0.6549 -0.1168
   19CHTO   H51 7952   4.661   6.881   0.336  1.4748 -2.8342  0.0045
   19CHTO   C34 7953   4.460   6.841   0.260 -0.0622 -0.4836 -0.0004
   19CHTO   O23 7954   4.375   6.831   0.142 -0.1339  0.3596  0.3078
   19CHTO   H38 7955   4.346   6.915   0.111  1.3254  0.7723  0.0271
   19CHTO   O16 7956   4.792   6.638   0.022 -0.1680 -0.1364  0.4950
   19CHTO   C24 7957   4.886   6.517   0.002  0.2598 -0.0696  0.4681
   19CHTO   H52 7958   4.980   6.526   0.057 -0.5237  1.0334  1.6630
   19CHTO   C26 7959   4.928   6.517  -0.150  0.0068 -0.6564 -0.0487
   19CHTO   H54 7960   4.834   6.520  -0.210 -0.4311 -0.8499  0.6240
   19CHTO   O20 7961   5.006   6.634  -0.186  0.5155 -0.0281 -0.9069
   19CHTO   H36 7962   5.062   6.604  -0.255 -0.7746 -0.8743 -1.6123
   19CHTO   C30 7963   4.984   6.379  -0.199 -0.1261  0.5464 -0.1110
   19CHTO   H58 7964   5.083   6.356  -0.156 -1.4328 -2.5843  1.3955
   19CHTO    N6 7965   4.992   6.369  -0.351 -0.0660  0.1362 -0.1380
   19CHTO   H45 7966   5.061   6.439  -0.395 -1.4379  0.4238 -1.9019
   19CHTO   H46 7967   4.897   6.393  -0.396  1.3690  1.7709 -2.4396
   19CHTO   C33 7968   4.883   6.268  -0.151  0.0589  0.6208  0.3090
   19CHTO   H61 7969   4.782   6.297  -0.185 -1.1132 -0.6059  2.6179
   19CHTO   O18 7970   4.883   6.265  -0.012  0.3110 -0.0248 -0.0436
   19CHTO   C28 7971   4.823   6.378   0.045  0.6667  0.0040 -0.7758
   19CHTO   H56 7972   4.719   6.378   0.011  0.0460 -0.9368  1.0621
   19CHTO   C35 7973   4.815   6.367   0.194  0.5137 -0.5460  0.5312
   19CHTO   O24 7974   4.708   6.282   0.225  0.1222  0.0337 -0.2911
   19CHTO   H39 7975   4.706   6.255   0.314  1.1954  0.5343 -0.1041
   19CHTO    O9 7976   4.918   6.139  -0.204 -0.6459 -0.1895 -0.1957
   19CHTO   C13 7977   4.798   6.043  -0.216 -0.2654 -0.1187 -0.1277
   19CHTO   H26 7978   4.733   6.093  -0.290  1.5240  0.1215 -1.5849
   19CHTO   C11 7979   4.717   6.024  -0.069 -0.1707 -0.8082 -0.0341
   19CHTO   H24 7980   4.682   6.124  -0.038 -0.5958 -0.6843 -0.8921
   19CHTO    O8 7981   4.811   5.977   0.032 -0.1723  1.2023 -0.0517
   19CHTO    H3 7982   4.800   6.025   0.112 -0.7195  1.7058 -0.4226
   19CHTO    C9 7983   4.594   5.943  -0.114  0.3423  0.8562 -0.4449
   19CHTO   H22 7984   4.547   5.999  -0.196  1.3317  0.2209 -1.4668
   19CHTO    N2 7985   4.494   5.936  -0.007 -0.4508 -0.0900 -0.2673
   19CHTO   H10 7986   4.448   6.033   0.007 -0.9640 -0.3849  0.1008
   19CHTO   H11 7987   4.416   5.869  -0.038  2.2373 -2.7041 -1.6037
   19CHTO    C7 7988   4.638   5.799  -0.160 -0.3867 -0.6816 -0.1329
   19CHTO   H20 7989   4.543   5.748  -0.187  0.1615 -1.8587  0.1067
   19CHTO    O4 7990   4.730   5.811  -0.269  0.4277 -0.3222  0.1653
   19CHTO   C14 7991   4.842   5.901  -0.281  0.6170  0.4040 -0.4156
   19CHTO   H27 7992   4.863   5.932  -0.385  0.0981 -3.0187 -1.6009
   19CHTO   C18 7993   4.971   5.856  -0.219 -0.1525  0.5129  0.3674
   19CHTO   O13 7994   5.028   5.749  -0.292 -0.2775  0.3431  0.4949
   19CHTO    H7 7995   5.097   5.708  -0.244  0.0387  1.1755  0.7486
   19CHTO    O2 7996   4.703   5.715  -0.040 -0.0796  0.4911 -0.0670
   19CHTO    C1 7997   4.743   5.578  -0.056 -0.6135 -0.8527  0.0428
   19CHTO   H14 7998   4.820   5.569  -0.136 -1.7752 -1.3957 -1.0250
   19CHTO    C2 7999   4.626   5.486  -0.090 -0.0653  0.5735  0.5998
   19CHTO   H15 8000   4.544   5.519  -0.025 -0.8762  1.7585 -0.9960
   19CHTO    O6 8001   4.598   5.498  -0.233  0.3342  0.0339  0.0149
   19CHTO    H1 8002   4.598   5.590  -0.251  0.1317  0.1348  0.5109
   19CHTO    C3 8003   4.666   5.335  -0.055  0.2661 -0.7820  0.4407
   19CHTO   H16 8004   4.742   5.315  -0.133 -2.0680  0.7750 -2.3038
   19CHTO    N1 8005   4.548   5.240  -0.065 -0.1569  0.1428  0.0411
   19CHTO    H8 8006   4.552   5.168   0.015  0.3086  0.2099  0.0775
   19CHTO    H9 8007   4.453   5.291  -0.053  0.0931  0.8397 -0.8898
   19CHTO    C4 8008   4.738   5.315   0.086  0.1830  0.3564  0.4556
   19CHTO   H17 8009   4.663   5.342   0.161 -0.8614  2.6542 -1.3531
   19CHTO    O1 8010   4.851   5.400   0.101  0.0342  0.3651 -0.2669
   19CHTO    C5 8011   4.814   5.537   0.083  0.0229  0.2411 -0.6135
   19CHTO   H18 8012   4.736   5.558   0.156  1.1058 -1.9287  1.2307
   19CHTO   C16 8013   4.946   5.621   0.121 -0.2092  0.1215  0.0094
   19CHTO   O11 8014   4.975   5.605   0.263 -0.1626 -0.6483  0.2021
   19CHTO    H5 8015   5.056   5.644   0.289 -1.2749  1.8156  0.1034
   19CHTO    O3 8016   4.787   5.177   0.097  0.9720 -0.3340 -0.2760
   19CHTO    C6 8017   4.820   5.121   0.228 -0.7277  0.5015  0.1340
   19CHTO   H19 8018   4.822   5.201   0.301  1.7322  0.4523  0.1684
   19CHTO    C8 8019   4.702   5.021   0.259 -0.0624 -0.1562  0.2743
   19CHTO   H21 8020   4.706   4.944   0.182  1.5659  0.0486  0.1395
   19CHTO    O7 8021   4.576   5.096   0.271 -0.7836 -0.0066  0.1316
   19CHTO    H2 8022   4.511   5.047   0.224 -1.1906  1.3505 -0.7624
   19CHTO   C12 8023   4.725   4.944   0.396  0.3306  0.2441 -0.4416
   19CHTO   H25 8024   4.701   5.018   0.475 -1.1616  0.0739 -0.7262
   19CHTO    N3 8025   4.620   4.832   0.417  0.8625 -0.5540 -0.2753
   19CHTO   H12 8026   4.606   4.831   0.524 -2.6935 -0.9958 -0.6649
   19CHTO   H13 8027   4.666   4.740   0.386 -0.1214 -0.7063 -1.3038
   19CHTO   C15 8028   4.878   4.894   0.409 -0.2612 -0.1554  0.2628
   19CHTO   H28 8029   4.890   4.806   0.346 -0.1831  0.3570 -0.4472
   19CHTO   O10 8030   4.914   4.877   0.560  0.4081 -0.0982 -0.3958
   19CHTO    H4 8031   4.976   4.809   0.579 -0.1309  0.1321  2.3645
   19CHTO    O5 8032   4.972   4.992   0.368  0.1275 -0.6722  0.0235
   19CHTO   C10 8033   4.952   5.047   0.236  0.7262  0.3286 -0.5925
   19CHTO   H23 8034   4.951   4.967   0.162  0.9646  0.2814 -0.5466
   19CHTO   C17 8035   5.079   5.120   0.198 -0.2932  0.2772 -0.0867
   19CHTO   O12 8036   5.094   5.246   0.262  0.2033 -0.1839 -0.1197
   19CHTO    H6 8037   5.136   5.315   0.213  0.4625  0.3000  0.7807
   20CHTO  H203 8038   4.535   0.743   1.892  0.2864  0.1466  0.0377
   20CHTO   O82 8039   4.589   0.701   1.828  0.0658  0.3923 -0.3063
   20CHTO  C123 8040   4.600   0.768   1.698 -0.1881 -0.5092  0.1409
   20CHTO  H227 8041   4.520   0.844   1.695 -0.9280 -1.0615  3.6694
   20CHTO   O77 8042   4.720   0.839   1.738 -0.3361 -0.0269 -0.2763
   20CHTO  C118 8043   4.776   0.917   1.637  0.7208  0.8573 -0.3812
   20CHTO  H222 8044   4.704   1.000   1.635 -0.5762  0.0396  4.7166
   20CHTO  C125 8045   4.914   0.962   1.697  0.0783 -0.6163  0.2440
   20CHTO   O84 8046   5.000   0.855   1.742 -0.2590 -0.0232 -0.2804
   20CHTO  H205 8047   5.068   0.895   1.792  0.9945 -0.1819 -1.8118
   20CHTO  C114 8048   4.800   0.848   1.505  0.4392 -0.0099  0.7952
   20CHTO  H218 8049   4.875   0.769   1.514  2.8173  1.9576 -0.9506
   20CHTO  C116 8050   4.677   0.764   1.460 -0.1657  0.2079  0.3147
   20CHTO  H220 8051   4.596   0.833   1.428 -0.8307 -1.0573 -0.7523
   20CHTO   O79 8052   4.726   0.686   1.352  0.0150  0.2298  0.0648
   20CHTO  H201 8053   4.662   0.661   1.288 -0.1543  2.8879 -0.8670
   20CHTO  C120 8054   4.615   0.675   1.576  0.0254 -0.6518  0.0809
   20CHTO  H224 8055   4.694   0.602   1.601  1.3375  1.5014  2.4829
   20CHTO   N21 8056   4.486   0.608   1.538 -0.1875  0.1978 -0.2509
   20CHTO  H211 8057   4.477   0.517   1.595 -0.7571  1.1128  1.1221
   20CHTO  H212 8058   4.495   0.580   1.434  2.4276  2.0935 -0.5818
   20CHTO   O75 8059   4.848   0.943   1.409 -0.2082 -0.3718 -0.4117
   20CHTO  C112 8060   4.986   0.900   1.325 -0.0973 -0.2260  0.3126
   20CHTO  H216 8061   4.983   0.791   1.308  0.4014 -0.5659  2.3428
   20CHTO   O73 8062   5.092   0.936   1.409  0.6209  0.1330  0.1906
   20CHTO  C113 8063   5.224   0.907   1.362 -0.3005 -0.0273  0.6059
   20CHTO  H217 8064   5.228   0.797   1.352 -1.5938  0.0817 -1.2620
   20CHTO  C124 8065   5.321   0.945   1.474  1.0865 -0.5349 -0.0681
   20CHTO   O83 8066   5.456   0.902   1.453  0.4397 -0.5022 -0.3326
   20CHTO  H204 8067   5.482   0.928   1.367 -2.4890 -0.5705 -1.3104
   20CHTO  C109 8068   5.250   0.989   1.230  0.1422 -0.3248 -0.2015
   20CHTO  H213 8069   5.253   1.095   1.256 -0.6449 -1.0166  2.8777
   20CHTO  C110 8070   5.130   0.952   1.132  1.5672  0.4519 -0.2923
   20CHTO  H214 8071   5.131   0.845   1.110 -3.1155  0.0728  0.8733
   20CHTO   O78 8072   5.149   1.028   1.016 -0.8150  0.5460  0.2116
   20CHTO  H200 8073   5.093   0.998   0.947  0.9275 -1.3052 -0.4333
   20CHTO  C111 8074   4.986   0.978   1.192 -0.5329 -0.3570 -0.7038
   20CHTO  H215 8075   4.974   1.086   1.209 -0.3227 -0.3863 -0.3617
   20CHTO   N19 8076   4.878   0.939   1.100 -0.4270 -0.1651  0.2048
   20CHTO  H207 8077   4.867   1.024   1.034 -2.0761 -1.0716 -0.7047
   20CHTO  H208 8078   4.789   0.937   1.160 -1.9100  0.8302 -1.8938
   20CHTO   O74 8079   5.377   0.954   1.168 -0.0244  0.4069  0.4106
   20CHTO  C115 8080   5.490   1.064   1.177 -0.0558 -0.7264  0.1899
   20CHTO  H219 8081   5.489   1.114   1.274 -0.3545  3.1237 -1.7020
   20CHTO   O76 8082   5.637   1.001   1.152  0.3125 -0.9261  0.0793
   20CHTO  C122 8083   5.650   0.921   1.037 -0.8508  0.4446 -0.1633
   20CHTO  H226 8084   5.620   0.822   1.071  0.5839  0.6072  1.6366
   20CHTO  C126 8085   5.803   0.910   0.999 -0.3273  0.6585 -0.2746
   20CHTO   O85 8086   5.827   0.819   0.890 -0.1133  0.4251 -0.5834
   20CHTO  H206 8087   5.782   0.739   0.912 -2.5286  2.1846  1.0496
   20CHTO  C121 8088   5.559   0.971   0.915  0.1999  0.7515  0.2594
   20CHTO  H225 8089   5.613   0.948   0.820  0.5819 -0.8068  0.8383
   20CHTO   O81 8090   5.439   0.900   0.916  0.0561  0.1706  0.0814
   20CHTO  H202 8091   5.412   0.881   0.828  3.1818  0.6107 -1.0365
   20CHTO  C119 8092   5.528   1.124   0.916 -0.7014 -0.4922 -0.0663
   20CHTO  H223 8093   5.627   1.169   0.908 -0.2600 -1.8900 -3.0886
   20CHTO  C117 8094   5.465   1.169   1.058  0.1956  0.0111 -0.9285
   20CHTO  H221 8095   5.356   1.176   1.056  0.2146  1.4492  1.0760
   20CHTO   N20 8096   5.510   1.305   1.092  0.7537  0.1899  0.2084
   20CHTO  H209 8097   5.612   1.336   1.109  0.1155  3.4559 -1.4838
   20CHTO  H210 8098   5.463   1.370   1.020 -1.4010 -2.8080 -1.2031
   20CHTO   O80 8099   5.452   1.187   0.791  0.0353 -0.1570  0.0690
   20CHTO  C103 8100   5.520   1.209   0.663 -0.1249  0.0590 -0.5114
   20CHTO  H190 8101   5.628   1.203   0.674 -0.3775 -1.5728  1.2139
   20CHTO  C101 8102   5.477   1.109   0.548 -0.3615  0.4073  0.3195
   20CHTO  H188 8103   5.369   1.106   0.553 -0.4670  1.5391 -0.9122
   20CHTO   O68 8104   5.536   0.959   0.570 -0.1456  0.7582 -0.2786
   20CHTO  H168 8105   5.501   0.943   0.656 -0.6771  1.0800 -0.4332
   20CHTO   C99 8106   5.507   1.166   0.403 -0.1210  0.4589  0.7508
   20CHTO  H186 8107   5.616   1.156   0.382 -0.4180  1.7470 -1.6563
   20CHTO   N17 8108   5.444   1.088   0.302  0.0065  0.3105  0.1857
   20CHTO  H174 8109   5.518   1.018   0.264  0.4371  2.1761 -2.5670
   20CHTO  H175 8110   5.415   1.148   0.217  2.1037  0.2687 -0.5950
   20CHTO   C97 8111   5.464   1.317   0.382 -1.0046 -0.2950  0.2586
   20CHTO  H184 8112   5.354   1.324   0.387 -1.1119 -2.5195  1.7624
   20CHTO   O64 8113   5.529   1.391   0.488  0.0790 -0.1315 -0.3377
   20CHTO  C104 8114   5.485   1.360   0.622  0.2442 -0.7817 -0.2029
   20CHTO  H191 8115   5.378   1.368   0.640 -0.0294 -2.9484 -0.7155
   20CHTO  C108 8116   5.550   1.461   0.714  0.4575  0.1236 -0.6727
   20CHTO   O71 8117   5.464   1.492   0.825  0.0883 -0.0171  0.0593
   20CHTO  H171 8118   5.503   1.568   0.864  1.6238 -0.5113 -0.4818
   20CHTO   O62 8119   5.522   1.373   0.265 -0.4859  1.2074  0.1727
   20CHTO   C91 8120   5.470   1.498   0.215  0.3203  0.3409 -0.5278
   20CHTO  H178 8121   5.433   1.558   0.299  1.8252  0.3417  0.1567
   20CHTO   C92 8122   5.354   1.482   0.105  0.1169  1.0958  0.6258
   20CHTO  H179 8123   5.396   1.414   0.030  1.6322  1.9971  0.6244
   20CHTO   O66 8124   5.240   1.417   0.167  0.0130  0.0242 -0.3354
   20CHTO  H166 8125   5.171   1.410   0.104 -0.5373  0.0175  0.2538
   20CHTO   C93 8126   5.309   1.630   0.056 -0.4675 -0.3401 -0.6627
   20CHTO  H180 8127   5.284   1.679   0.151 -0.8589  1.1023 -1.4997
   20CHTO   N16 8128   5.189   1.638  -0.036 -0.9157 -0.5252 -0.0125
   20CHTO  H172 8129   5.097   1.629   0.020 -0.6304 -0.1490  0.5335
   20CHTO  H173 8130   5.197   1.546  -0.091  2.9820 -0.3017  0.0590
   20CHTO   C94 8131   5.436   1.702  -0.001  0.0691 -0.1537  0.6247
   20CHTO  H181 8132   5.480   1.645  -0.083 -0.9611 -1.7667  1.1752
   20CHTO   O61 8133   5.536   1.714   0.102  0.2270 -0.3062  0.3737
   20CHTO   C95 8134   5.585   1.592   0.159  0.5165 -0.3283 -0.1766
   20CHTO  H182 8135   5.639   1.539   0.080  0.7468  0.4707 -0.5706
   20CHTO  C106 8136   5.694   1.618   0.277 -0.1452 -0.3741 -0.5273
   20CHTO   O69 8137   5.813   1.682   0.216 -0.0916 -0.6299  0.0549
   20CHTO  H169 8138   5.806   1.775   0.222  3.4797 -0.0674 -3.0233
   20CHTO   O63 8139   5.405   1.852  -0.053  0.1755 -0.0474 -0.2643
   20CHTO   C96 8140   5.484   1.894  -0.179 -0.2126 -0.7157 -0.0514
   20CHTO  H183 8141   5.466   1.829  -0.265 -1.3068  1.0138 -1.1556
   20CHTO   C98 8142   5.642   1.907  -0.158  0.3680 -0.7278  0.8832
   20CHTO  H185 8143   5.657   1.959  -0.063 -0.4652  0.7235  0.2342
   20CHTO   O67 8144   5.691   1.769  -0.135  0.3811  0.2564  0.5697
   20CHTO  H167 8145   5.674   1.748  -0.045  1.0546  0.5193  0.7540
   20CHTO  C102 8146   5.716   1.981  -0.271 -0.7389 -0.1813  0.0012
   20CHTO  H189 8147   5.699   1.929  -0.366  1.3563 -0.9608  0.0203
   20CHTO   N18 8148   5.862   1.997  -0.255  1.2387 -0.2781  0.3820
   20CHTO  H176 8149   5.909   2.009  -0.352  0.3233 -0.1646 -0.0524
   20CHTO  H177 8150   5.897   2.081  -0.196 -1.2496  0.8069  0.3667
   20CHTO  C105 8151   5.645   2.115  -0.301 -0.6859 -0.4302  0.5216
   20CHTO  H192 8152   5.671   2.190  -0.226  0.3123  0.7751 -0.9866
   20CHTO   O65 8153   5.503   2.095  -0.316 -0.4439  0.0531  0.3042
   20CHTO  C100 8154   5.430   2.035  -0.212  0.4003  0.3700  0.0543
   20CHTO  H187 8155   5.439   2.087  -0.115 -1.6486  0.3394  0.2841
   20CHTO  C107 8156   5.280   2.030  -0.266 -0.2525  0.2925 -0.6868
   20CHTO   O70 8157   5.191   2.004  -0.161  0.3685 -0.0481 -0.0027
   20CHTO  H170 8158   5.140   2.082  -0.150  0.9536  0.2689  0.4871
   20CHTO   O57 8159   5.702   2.169  -0.445 -0.4196  0.1422  0.1033
   20CHTO   C85 8160   5.738   2.308  -0.460  0.9921  0.9881 -0.0848
   20CHTO  H157 8161   5.795   2.347  -0.373  1.2431 -1.4134  0.8425
   20CHTO   C83 8162   5.602   2.393  -0.454  0.1041  0.0698 -0.0106
   20CHTO  H155 8163   5.559   2.382  -0.354  0.7115  0.4496  0.2955
   20CHTO   O56 8164   5.501   2.334  -0.536 -0.1183 -0.1080  0.6073
   20CHTO  H135 8165   5.509   2.241  -0.535 -0.4927 -0.1312  3.1698
   20CHTO   C81 8166   5.625   2.539  -0.478  0.0066 -0.5724  0.0262
   20CHTO  H153 8167   5.706   2.577  -0.415 -0.1593  2.5816 -1.5351
   20CHTO   N14 8168   5.519   2.627  -0.443 -0.3315 -0.0465  0.5154
   20CHTO  H141 8169   5.472   2.583  -0.358  1.9742  1.1714  2.4777
   20CHTO  H142 8170   5.554   2.723  -0.411  2.9785 -0.7325 -0.8273
   20CHTO   C79 8171   5.675   2.560  -0.636  0.1646 -0.1420 -0.1404
   20CHTO  H151 8172   5.727   2.655  -0.645  0.2787 -0.3667 -2.0428
   20CHTO   O52 8173   5.793   2.478  -0.644 -0.0267  0.0413  0.6113
   20CHTO   C86 8174   5.811   2.338  -0.595  0.5964  1.1038 -0.2776
   20CHTO  H158 8175   5.771   2.275  -0.677 -1.2999  1.7777  0.1073
   20CHTO   C90 8176   5.960   2.309  -0.586  0.2869 -0.5571  0.1056
   20CHTO   O60 8177   5.986   2.179  -0.537  0.9800  0.3093 -0.0750
   20CHTO  H138 8178   5.924   2.151  -0.472  0.8787 -0.2359 -0.4014
   20CHTO   O50 8179   5.575   2.547  -0.741  0.2798  0.7633  0.0024
   20CHTO   C73 8180   5.571   2.572  -0.882 -0.2981 -0.1610 -0.5872
   20CHTO  H145 8181   5.672   2.560  -0.925 -0.1480  0.8460 -0.5211
   20CHTO   C74 8182   5.535   2.726  -0.900 -0.2592 -0.1242 -0.0333
   20CHTO  H146 8183   5.610   2.780  -0.840 -0.3270  0.2398 -0.2796
   20CHTO   O54 8184   5.567   2.763  -1.037  0.1844  0.1899  0.2401
   20CHTO  H133 8185   5.501   2.824  -1.064 -1.1657 -1.3816 -0.0460
   20CHTO   C75 8186   5.388   2.748  -0.844 -0.3484 -0.2046  0.3977
   20CHTO  H147 8187   5.388   2.736  -0.735  1.0641  1.2138  0.5707
   20CHTO   N13 8188   5.335   2.884  -0.855 -0.1138 -0.3824  0.3742
   20CHTO  H139 8189   5.311   2.917  -0.955  2.4958 -0.1803 -0.2315
   20CHTO  H140 8190   5.371   2.966  -0.794 -0.6516  2.1873 -2.6218
   20CHTO   C76 8191   5.284   2.647  -0.906  0.8295 -0.4771  0.1646
   20CHTO  H148 8192   5.280   2.687  -1.007  1.2821  0.4916  0.5279
   20CHTO   O49 8193   5.342   2.513  -0.900  0.1323  0.0634  0.0350
   20CHTO   C77 8194   5.471   2.486  -0.959 -0.4608 -0.5554  0.0337
   20CHTO  H149 8195   5.475   2.508  -1.065 -0.4044  0.3531  0.2128
   20CHTO   C88 8196   5.505   2.336  -0.957 -0.6135  0.5330 -0.5517
   20CHTO   O58 8197   5.404   2.258  -1.023  0.2302 -0.7937  0.2977
   20CHTO  H136 8198   5.441   2.173  -1.032  0.9711 -0.3176 -1.3291
   20CHTO   O51 8199   5.145   2.641  -0.842 -0.2887 -0.0240  1.1627
   20CHTO   C78 8200   5.147   2.573  -0.693  0.0351  0.3393 -0.2089
   20CHTO  H150 8201   5.248   2.570  -0.649  0.2004  0.2395 -0.5916
   20CHTO   C80 8202   5.089   2.431  -0.692 -0.4226 -0.0217 -0.3891
   20CHTO  H152 8203   4.987   2.433  -0.734 -0.8283  1.1923  0.6349
   20CHTO   O55 8204   5.162   2.347  -0.788 -0.2454 -0.0747  0.0554
   20CHTO  H134 8205   5.115   2.266  -0.796  2.0351 -1.4208  0.0481
   20CHTO   C84 8206   5.063   2.361  -0.555  0.5177 -0.6155 -0.7758
   20CHTO  H156 8207   5.160   2.357  -0.503  0.7940  0.9623 -1.1353
   20CHTO   N15 8208   4.988   2.232  -0.551  0.0106  0.6178  0.1101
   20CHTO  H143 8209   4.965   2.195  -0.648 -0.9384  0.3241  0.4392
   20CHTO  H144 8210   4.896   2.240  -0.496 -0.5727 -0.6942 -0.6582
   20CHTO   C87 8211   4.998   2.466  -0.459  0.5313  0.3533 -0.5573
   20CHTO  H159 8212   4.891   2.468  -0.480  0.6025  0.6680 -0.8737
   20CHTO   O53 8213   5.067   2.607  -0.473 -0.4395  0.1203 -0.5297
   20CHTO   C82 8214   5.056   2.660  -0.606 -0.9662 -0.0547 -0.0436
   20CHTO  H154 8215   4.952   2.663  -0.639 -0.4963  1.0593 -1.5254
   20CHTO   C89 8216   5.104   2.803  -0.616  0.1272 -0.2133 -1.0126
   20CHTO   O59 8217   5.038   2.891  -0.524  0.2599 -0.5352 -0.5520
   20CHTO  H137 8218   5.025   2.972  -0.571 -2.3179 -1.2660 -1.1563
   20CHTO   O45 8219   5.003   2.411  -0.303 -0.4832  0.5028 -0.5251
   20CHTO   C67 8220   5.031   2.497  -0.187 -0.2430  0.7949  0.1839
   20CHTO  H124 8221   4.979   2.593  -0.194 -1.5999 -0.0345 -1.4852
   20CHTO   C65 8222   4.984   2.427  -0.057  0.0531 -0.3257 -0.2542
   20CHTO  H122 8223   4.878   2.401  -0.069 -0.2735  0.7539  0.1783
   20CHTO   O44 8224   5.000   2.524   0.049  0.2828  0.2483  0.0510
   20CHTO  H102 8225   4.925   2.510   0.103  1.0140  1.4348  1.4134
   20CHTO   C63 8226   5.068   2.295  -0.032  0.6917  0.2012  0.5294
   20CHTO  H120 8227   5.063   2.237  -0.124 -0.1787  0.3980  0.4515
   20CHTO   N11 8228   5.020   2.194   0.060  0.0204  0.7157  0.8134
   20CHTO  H108 8229   5.093   2.116   0.066 -1.7554 -1.3576 -2.8855
   20CHTO  H109 8230   4.990   2.248   0.147 -1.6569 -1.4717  1.6297
   20CHTO   C61 8231   5.223   2.336  -0.005 -0.8348 -0.1665 -0.0106
   20CHTO  H118 8232   5.275   2.240  -0.017  1.1394  1.1391 -2.4353
   20CHTO   O40 8233   5.267   2.415  -0.117  0.2053 -0.0138 -0.2292
   20CHTO   C68 8234   5.185   2.530  -0.176  0.4842  0.2440 -0.6861
   20CHTO  H125 8235   5.214   2.538  -0.283  0.5721 -0.6140 -0.7354
   20CHTO   C72 8236   5.209   2.658  -0.106  0.1231  0.5630  0.3043
   20CHTO   O48 8237   5.349   2.699  -0.126  0.2282  0.8708 -0.5238
   20CHTO  H105 8238   5.368   2.787  -0.101 -1.5488  1.4706 -1.2164
   20CHTO   O38 8239   5.259   2.404   0.115 -0.5174  0.2670 -0.1505
   20CHTO   C55 8240   5.257   2.351   0.251 -0.7516 -0.1056 -0.3840
   20CHTO  H112 8241   5.181   2.272   0.261  1.7618 -2.4703  0.4707
   20CHTO   C56 8242   5.226   2.473   0.359 -0.3971 -0.5393 -0.3960
   20CHTO  H113 8243   5.301   2.553   0.349  0.9662 -2.0274 -2.4999
   20CHTO   O42 8244   5.102   2.520   0.308 -0.4721 -0.1076  0.7733
   20CHTO  H100 8245   5.087   2.612   0.302 -0.0603 -0.0880 -0.0374
   20CHTO   C57 8246   5.221   2.414   0.501  0.6838 -0.2557 -0.6678
   20CHTO  H114 8247   5.147   2.333   0.498 -0.7840  1.0653 -0.8703
   20CHTO   N10 8248   5.173   2.513   0.602 -0.7331  0.2409  0.2275
   20CHTO  H106 8249   5.132   2.454   0.682  1.2758 -2.2324 -0.4537
   20CHTO  H107 8250   5.101   2.588   0.575 -1.0479  0.1629  0.8465
   20CHTO   C58 8251   5.355   2.352   0.534 -0.0428 -0.0683  0.4411
   20CHTO  H115 8252   5.431   2.432   0.546 -0.8603  0.6595  0.7819
   20CHTO   O37 8253   5.394   2.259   0.435 -0.5941  0.2279  0.6361
   20CHTO   C59 8254   5.400   2.297   0.294  0.6530 -0.0366  0.4131
   20CHTO  H116 8255   5.465   2.383   0.280  0.0377  1.0260  3.7027
   20CHTO   C70 8256   5.442   2.169   0.212  0.3542  0.4103 -0.3269
   20CHTO   O46 8257   5.384   2.049   0.264  0.3375  0.1528  0.2104
   20CHTO  H103 8258   5.444   1.979   0.284  1.2749  1.0353  0.5356
   20CHTO   O39 8259   5.354   2.258   0.682  0.2712  0.0760 -0.3462
   20CHTO   C60 8260   5.301   2.124   0.696  0.0295 -0.3554  0.4719
   20CHTO  H117 8261   5.202   2.127   0.651  1.7615  0.5233 -3.4251
   20CHTO   C62 8262   5.372   2.004   0.623  0.1593  0.4278  0.2241
   20CHTO  H119 8263   5.361   2.026   0.515 -0.2193 -0.2232  0.1254
   20CHTO   O43 8264   5.516   1.985   0.666  0.1759  0.0590  0.4504
   20CHTO  H101 8265   5.522   2.007   0.757  1.1342 -1.5557  0.8036
   20CHTO   C66 8266   5.278   1.877   0.647 -0.4528 -0.3381 -0.3280
   20CHTO  H123 8267   5.178   1.907   0.615 -0.2349  0.6573 -0.0961
   20CHTO   N12 8268   5.327   1.764   0.564 -0.0720 -0.0190  0.0424
   20CHTO  H110 8269   5.340   1.807   0.466  0.3745  1.5690  0.7899
   20CHTO  H111 8270   5.411   1.711   0.605 -0.1820  1.5134  2.2875
   20CHTO   C69 8271   5.279   1.839   0.801  0.7979  0.4591 -0.2212
   20CHTO  H126 8272   5.378   1.830   0.849  0.2107 -3.6530  0.3668
   20CHTO   O41 8273   5.219   1.947   0.866 -0.1438 -0.6703  0.5162
   20CHTO   C64 8274   5.291   2.095   0.841  0.4857 -0.7215 -0.2224
   20CHTO  H121 8275   5.397   2.099   0.875 -0.0799 -0.1366  1.5261
   20CHTO   C71 8276   5.211   2.196   0.925  0.6929 -0.2222  0.2256
   20CHTO   O47 8277   5.239   2.180   1.060 -0.2482  0.2984  0.1748
   20CHTO  H104 8278   5.327   2.210   1.076  0.0516 -1.4329  2.0360
   20CHTO   O34 8279   5.187   1.701   0.840  0.0043  0.3792 -0.1345
   20CHTO   C49 8280   5.034   1.644   0.841 -0.7799 -0.0159 -0.1113
   20CHTO   H91 8281   4.981   1.707   0.913  0.5477  1.8364 -0.7019
   20CHTO   C47 8282   5.034   1.499   0.888  0.1181  0.8821 -0.3482
   20CHTO   H89 8283   4.928   1.469   0.898  0.3133  0.3715  0.1816
   20CHTO   O33 8284   5.101   1.497   1.014 -0.4204  0.4473  0.0122
   20CHTO   H70 8285   5.133   1.414   1.044 -0.8984  0.5247  0.7758
   20CHTO   C45 8286   5.111   1.411   0.766  1.0382 -0.1199  0.5057
   20CHTO   H87 8287   5.210   1.458   0.757 -0.0450  2.5069  1.7896
   20CHTO    N8 8288   5.126   1.269   0.799  0.6909 -0.1918 -0.3744
   20CHTO   H75 8289   5.187   1.264   0.888 -0.2818 -1.8375  0.2120
   20CHTO   H76 8290   5.166   1.210   0.718 -1.4298 -1.4862 -0.5098
   20CHTO   C43 8291   5.025   1.431   0.634  0.3049  0.1427 -0.4481
   20CHTO   H85 8292   5.083   1.386   0.554  2.6024 -0.0504  1.2794
   20CHTO   O29 8293   4.996   1.567   0.601 -0.0759  0.3155  0.1905
   20CHTO   C50 8294   4.965   1.659   0.709  0.8146 -0.0235  0.0142
   20CHTO   H92 8295   4.997   1.752   0.658 -2.2602 -0.2678 -2.5907
   20CHTO   C54 8296   4.815   1.687   0.723  0.3094 -0.0685  0.3739
   20CHTO   O36 8297   4.754   1.751   0.612 -0.2938 -0.6798  0.1147
   20CHTO   H72 8298   4.674   1.703   0.603 -2.5607  2.2971  3.1703
   20CHTO   O27 8299   4.892   1.366   0.628 -0.2313 -0.0232  0.4427
   20CHTO   C37 8300   4.824   1.314   0.513 -0.2011  0.3043  0.7368
   20CHTO   H79 8301   4.719   1.298   0.539 -1.2232  3.8684 -0.8955
   20CHTO   C38 8302   4.822   1.413   0.391  0.0029  0.5297 -0.2387
   20CHTO   H80 8303   4.921   1.458   0.374 -0.8640  1.5360 -2.8947
   20CHTO   O31 8304   4.728   1.519   0.411 -1.0426 -0.2819  0.0425
   20CHTO   H68 8305   4.638   1.494   0.403 -1.1745  0.6698 -1.9118
   20CHTO   C39 8306   4.781   1.340   0.252 -0.2369  0.2621 -0.4285
   20CHTO   H81 8307   4.675   1.319   0.262 -0.3511  0.8230 -0.4870
   20CHTO    N7 8308   4.804   1.428   0.129 -0.5250 -0.2801  0.2286
   20CHTO   H73 8309   4.725   1.423   0.056  0.7386 -0.4151 -1.1714
   20CHTO   H74 8310   4.903   1.415   0.087 -0.1403  0.3455  0.9184
   20CHTO   C40 8311   4.870   1.208   0.232 -0.8768 -0.1530 -0.5164
   20CHTO   H82 8312   4.973   1.240   0.218 -1.0347 -0.3750 -2.2351
   20CHTO   O26 8313   4.855   1.128   0.351  0.0743 -0.0325 -0.3543
   20CHTO   C41 8314   4.893   1.183   0.479  0.0234 -0.3678  0.0548
   20CHTO   H83 8315   5.001   1.202   0.466  0.0526 -1.7511 -1.9764
   20CHTO   C52 8316   4.872   1.074   0.584  0.2805 -0.3063 -0.9613
   20CHTO   O35 8317   4.704   1.057   0.599 -0.1314 -0.0614  0.4008
   20CHTO   H71 8318   4.696   0.981   0.654 -0.1854  0.3821  1.0071
   20CHTO   O28 8319   4.826   1.135   0.118  0.7170 -0.4994  0.4419
   20CHTO   C42 8320   4.931   1.057   0.046  0.6667 -0.0570  0.4557
   20CHTO   H84 8321   4.875   1.006  -0.032  2.0609  0.8239 -1.1578
   20CHTO   C44 8322   5.002   0.947   0.132  0.0347 -0.0154  0.3217
   20CHTO   H86 8323   5.059   0.997   0.211  1.6032  1.7097 -1.8405
   20CHTO   O32 8324   4.895   0.864   0.182  0.2633  0.1178 -0.5048
   20CHTO   H69 8325   4.846   0.816   0.117  2.2510 -0.6802 -1.4441
   20CHTO   C48 8326   5.100   0.871   0.045 -0.2600 -0.9027  0.3361
   20CHTO   H90 8327   5.050   0.832  -0.044 -0.5351 -1.3562  0.6890
   20CHTO    N9 8328   5.166   0.749   0.097  0.8638 -0.0622 -0.1545
   20CHTO   H77 8329   5.140   0.732   0.200 -2.1277 -1.6410 -1.1373
   20CHTO   H78 8330   5.119   0.673   0.037 -0.6941  0.3092  0.5759
   20CHTO   C51 8331   5.209   0.968  -0.018 -0.4535  0.8706 -0.3050
   20CHTO   H93 8332   5.262   1.010   0.067  0.2390 -0.0856 -0.2511
   20CHTO   O30 8333   5.140   1.068  -0.099  0.0981  0.1006  0.2329
   20CHTO   C46 8334   5.039   1.148  -0.028  0.3087 -0.1995  0.5259
   20CHTO   H88 8335   5.087   1.213   0.045  3.2559 -0.2892 -1.2524
   20CHTO   C53 8336   4.980   1.236  -0.134  0.5703 -0.2015  0.3571
   20CHTO   O72 8337   5.078   1.333  -0.160 -0.6179  0.3205  0.1298
   20CHTO  H199 8338   5.075   1.357  -0.251  1.7887 -0.2376 -0.1301
   20CHTO   O22 8339   5.310   0.920  -0.114 -0.1064  0.1325 -0.5814
   20CHTO   C31 8340   5.452   0.947  -0.116  0.0061  0.8491 -0.1483
   20CHTO   H59 8341   5.482   0.928  -0.221  0.5146  0.2836  0.1013
   20CHTO   C29 8342   5.503   1.088  -0.081 -0.1424  0.3960 -0.2379
   20CHTO   H57 8343   5.452   1.118   0.012 -1.1453 -1.8363 -0.0264
   20CHTO   O21 8344   5.449   1.180  -0.179 -0.8192  0.2878  0.0302
   20CHTO   H37 8345   5.357   1.192  -0.167 -0.9898 -2.1018  1.3887
   20CHTO   C27 8346   5.664   1.104  -0.071 -0.2717  0.1137 -0.3034
   20CHTO   H55 8347   5.708   1.098  -0.172 -0.4090 -0.3794 -0.3355
   20CHTO    N5 8348   5.703   1.239  -0.025  0.2076 -0.4010  0.0236
   20CHTO   H43 8349   5.655   1.308  -0.092  0.5907  1.9532  2.0806
   20CHTO   H44 8350   5.810   1.253  -0.023 -0.1838  3.0357 -1.4779
   20CHTO   C25 8351   5.723   0.986   0.015 -0.9734 -0.3427 -0.3079
   20CHTO   H53 8352   5.704   1.006   0.121  1.8637 -1.2399  0.4220
   20CHTO   O17 8353   5.661   0.856  -0.011 -0.5108 -0.4029  0.1102
   20CHTO   C32 8354   5.520   0.835  -0.025  0.8107  0.0194  0.4954
   20CHTO   H60 8355   5.482   0.849   0.077  0.8435  4.0973  0.0378
   20CHTO   C36 8356   5.503   0.694  -0.095  0.0227 -0.4777 -0.8119
   20CHTO   O25 8357   5.569   0.670  -0.221 -0.5790 -0.4516 -0.5704
   20CHTO   H40 8358   5.529   0.721  -0.289  2.6965  0.4473 -1.9050
   20CHTO   O15 8359   5.890   0.976   0.011 -0.5296 -0.2948  0.4088
   20CHTO   C19 8360   5.965   0.915  -0.095 -0.1126  0.0922  0.0122
   20CHTO   H47 8361   5.882   0.877  -0.155 -0.8943  1.5643  0.1388
   20CHTO   C20 8362   6.045   1.012  -0.182 -0.5741  0.4119  0.1730
   20CHTO   H48 8363   6.123   1.064  -0.124  0.8411  0.2978 -1.5773
   20CHTO   O19 8364   5.950   1.106  -0.239  0.2311 -0.0851 -0.6054
   20CHTO   H35 8365   5.985   1.169  -0.299 -2.8094  3.0566  0.7269
   20CHTO   C21 8366   6.137   0.944  -0.297  0.1701  0.1982 -0.1096
   20CHTO   H49 8367   6.070   0.913  -0.376  2.3940 -1.2009 -1.5015
   20CHTO    N4 8368   6.235   1.045  -0.359  0.3252 -0.2169  0.7297
   20CHTO   H41 8369   6.215   1.063  -0.463  2.3011  1.3072  0.6023
   20CHTO   H42 8370   6.242   1.140  -0.308  2.9119  0.4124 -0.7605
   20CHTO   C22 8371   6.212   0.819  -0.238  0.0458 -0.3113 -0.5377
   20CHTO   H50 8372   6.293   0.841  -0.167 -0.3901  0.5009 -0.2970
   20CHTO   O14 8373   6.118   0.736  -0.177 -0.4463 -0.7844  0.1198
   20CHTO   C23 8374   6.058   0.789  -0.057  0.4287 -0.3183  0.4403
   20CHTO   H51 8375   6.134   0.814   0.019  1.2595  2.4188 -1.2372
   20CHTO   C34 8376   5.981   0.685   0.018  0.5060 -0.4383 -0.3016
   20CHTO   O23 8377   5.862   0.655  -0.047  0.1319  0.3128 -0.2937
   20CHTO   H38 8378   5.785   0.693  -0.008 -1.1028 -2.0317 -0.3649
   20CHTO   O16 8379   6.259   0.739  -0.345  0.2694 -0.1635  0.7838
   20CHTO   C24 8380   6.411   0.657  -0.309 -0.2504  0.2354 -0.8970
   20CHTO   H52 8381   6.425   0.651  -0.201  0.6586 -1.2547 -1.0776
   20CHTO   C26 8382   6.537   0.712  -0.385 -0.1322 -0.2895 -0.0779
   20CHTO   H54 8383   6.518   0.697  -0.494  1.5818  0.8115 -0.5360
   20CHTO   O20 8384   6.541   0.854  -0.351  0.0861  0.2875 -0.2601
   20CHTO   H36 8385   6.483   0.908  -0.401  1.6036  4.2678  2.0938
   20CHTO   C30 8386   6.660   0.627  -0.339  0.2509 -0.5631  0.1943
   20CHTO   H58 8387   6.674   0.640  -0.230 -2.2915 -1.1598  0.6280
   20CHTO    N6 8388   6.782   0.690  -0.394  0.6837  0.3107 -0.2453
   20CHTO   H45 8389   6.771   0.796  -0.412 -1.6723 -0.1442 -1.7961
   20CHTO   H46 8390   6.788   0.636  -0.487 -1.2223 -2.8496  1.3918
   20CHTO   C33 8391   6.647   0.477  -0.367  0.4049  0.7354 -0.2375
   20CHTO   H61 8392   6.653   0.450  -0.473  0.3912  0.4606 -0.1704
   20CHTO   O18 8393   6.524   0.434  -0.317  0.1881  0.0154 -0.1238
   20CHTO   C28 8394   6.398   0.504  -0.354  0.1439  0.7213 -0.0198
   20CHTO   H56 8395   6.383   0.498  -0.462 -0.9643  0.6586  0.1332
   20CHTO   C35 8396   6.277   0.431  -0.286  0.0238  0.6535 -0.5768
   20CHTO   O24 8397   6.266   0.293  -0.326 -0.3553  0.5485 -0.5329
   20CHTO   H39 8398   6.209   0.294  -0.400  0.2504  0.1880 -1.0107
   20CHTO    O9 8399   6.758   0.402  -0.306 -0.1343  0.3377 -0.1247
   20CHTO   C13 8400   6.758   0.236  -0.286  0.6353 -0.6588 -0.4029
   20CHTO   H26 8401   6.862   0.203  -0.270 -0.0221 -2.9388 -0.6094
   20CHTO   C11 8402   6.691   0.162  -0.408 -0.5613  0.4578  0.2639
   20CHTO   H24 8403   6.766   0.163  -0.489 -0.2494 -1.6171  0.5168
   20CHTO    O8 8404   6.566   0.204  -0.458 -0.3170  0.1922  0.0271
   20CHTO    H3 8405   6.554   0.297  -0.467  0.4321  0.1743 -1.2365
   20CHTO    C9 8406   6.677   0.010  -0.360 -0.3255 -0.1605  0.6479
   20CHTO   H22 8407   6.778  -0.021  -0.328 -0.5198 -2.7493 -1.1192
   20CHTO    N2 8408   6.652  -0.087  -0.479  0.2690  0.4268  0.0995
   20CHTO   H10 8409   6.701  -0.182  -0.463  1.1336  0.2381 -3.4180
   20CHTO   H11 8410   6.688  -0.040  -0.569  1.2328  1.0180  0.7812
   20CHTO    C7 8411   6.579  -0.002  -0.233  0.0535 -0.1013  0.1299
   20CHTO   H20 8412   6.618  -0.083  -0.168 -1.6117 -1.6384 -0.7424
   20CHTO    O4 8413   6.565   0.125  -0.159 -0.0273 -0.7530  0.4477
   20CHTO   C14 8414   6.693   0.194  -0.147  0.0488 -0.4882  0.1212
   20CHTO   H27 8415   6.765   0.127  -0.095  0.4312  0.6072  1.0063
   20CHTO   C18 8416   6.683   0.317  -0.052 -0.6609 -0.4204 -0.0329
   20CHTO   O13 8417   6.622   0.287   0.072  0.3962  0.0243  0.1849
   20CHTO    H7 8418   6.536   0.251   0.060  1.5058 -2.6809  0.0409
   20CHTO    O2 8419   6.411  -0.054  -0.284 -0.2996 -0.2168 -0.3334
   20CHTO    C1 8420   6.371  -0.178  -0.228 -0.0169  0.1248 -0.4221
   20CHTO   H14 8421   6.405  -0.184  -0.123  0.2372 -0.4834 -0.5371
   20CHTO    C2 8422   6.434  -0.301  -0.307 -0.6778 -0.8581  0.7783
   20CHTO   H15 8423   6.423  -0.288  -0.416  0.5244  0.2271  0.7696
   20CHTO    O6 8424   6.577  -0.317  -0.276  0.5687 -0.0201  0.2018
   20CHTO    H1 8425   6.581  -0.349  -0.188  2.7249  4.1289  1.7346
   20CHTO    C3 8426   6.355  -0.440  -0.264  0.6328  0.7204 -0.0792
   20CHTO   H16 8427   6.366  -0.458  -0.156 -1.5767  0.8484  0.1807
   20CHTO    N1 8428   6.413  -0.559  -0.336 -0.1974 -0.5564  0.5388
   20CHTO    H8 8429   6.491  -0.538  -0.407  0.1163 -0.4595  0.9107
   20CHTO    H9 8430   6.333  -0.616  -0.380 -2.4178  2.3911  0.6084
   20CHTO    C4 8431   6.202  -0.419  -0.292 -0.9982 -0.0936  0.4153
   20CHTO   H17 8432   6.189  -0.396  -0.397 -0.0710 -1.2486  0.0393
   20CHTO    O1 8433   6.169  -0.310  -0.203  0.0659 -0.2512 -0.1420
   20CHTO    C5 8434   6.219  -0.189  -0.251 -0.5207 -0.7689  0.1346
   20CHTO   H18 8435   6.214  -0.178  -0.359  0.6965 -1.8362 -0.0335
   20CHTO   C16 8436   6.140  -0.070  -0.191  0.4099 -0.1162  0.5748
   20CHTO   O11 8437   6.010  -0.049  -0.236  0.1147  0.5964  0.6098
   20CHTO    H5 8438   5.951  -0.094  -0.178 -2.0563  1.7542 -0.6428
   20CHTO    O3 8439   6.107  -0.522  -0.242 -0.4902  0.3169  0.2158
   20CHTO    C6 8440   5.979  -0.525  -0.322 -0.1149 -0.0080  1.3382
   20CHTO   H19 8441   5.965  -0.439  -0.386 -0.2509 -1.6841 -0.9344
   20CHTO    C8 8442   5.979  -0.634  -0.422  0.4059  0.5675  0.0354
   20CHTO   H21 8443   5.986  -0.728  -0.368  0.4353 -0.4962 -1.8009
   20CHTO    O7 8444   6.098  -0.629  -0.505  0.1134  0.1784  0.4657
   20CHTO    H2 8445   6.100  -0.709  -0.553 -0.8404 -1.0855  2.4893
   20CHTO   C12 8446   5.848  -0.647  -0.507 -0.3029  0.4912 -0.2102
   20CHTO   H25 8447   5.846  -0.563  -0.580 -2.7166  0.7231  0.0599
   20CHTO    N3 8448   5.853  -0.771  -0.584 -0.0444  0.6577 -0.1307
   20CHTO   H12 8449   5.785  -0.843  -0.542 -1.6421  2.6908  0.8759
   20CHTO   H13 8450   5.953  -0.813  -0.582 -0.0724  0.6187  0.7736
   20CHTO   C15 8451   5.719  -0.635  -0.406  0.6552  0.3000  0.4930
   20CHTO   H28 8452   5.709  -0.727  -0.348 -0.7634 -0.1621 -0.4515
   20CHTO   O10 8453   5.586  -0.625  -0.472 -0.2488  0.5614 -0.0083
   20CHTO    H4 8454   5.585  -0.697  -0.532 -1.8479  0.4689  0.0970
   20CHTO    O5 8455   5.728  -0.528  -0.309  0.1595  0.6947  0.0828
   20CHTO   C10 8456   5.846  -0.528  -0.233  0.6055  0.2433 -0.3312
   20CHTO   H23 8457   5.842  -0.620  -0.174  0.0716  0.6107  0.2056
   20CHTO   C17 8458   5.831  -0.398  -0.152  0.0867 -0.1475  0.4227
   20CHTO   O12 8459   5.844  -0.281  -0.222  0.5066  0.3543 -0.1009
   20CHTO    H6 8460   5.876  -0.208  -0.172 -0.0190 -0.7947  1.9670
   21GLOH   H03 8461   3.673   4.758   2.358 -0.1672 -0.5919  0.9919
   21GLOH    O1 8462   3.704   4.722   2.274 -1.2536  0.6972  0.0052
   21GLOH    C1 8463   3.785   4.602   2.306  0.0608 -1.0448 -0.1713
   21GLOH   H02 8464   3.711   4.527   2.332 -1.2724  0.0607 -0.7069
   21GLOH   H08 8465   3.843   4.614   2.398 -1.1295 -2.1101  0.7213
   21GLOH    C2 8466   3.869   4.546   2.198 -0.3790  0.5864 -0.0131
   21GLOH   H04 8467   3.939   4.623   2.163 -1.4765  1.7093  0.2166
   21GLOH    O2 8468   3.949   4.436   2.248 -0.0191 -0.3938 -0.1284
   21GLOH   H05 8469   3.899   4.379   2.307 -2.1475  1.3402 -0.1811
   21GLOH    C3 8470   3.779   4.502   2.079 -0.0860  0.1696 -0.5398
   21GLOH   H06 8471   3.730   4.409   2.109  0.8676  0.2463  1.3219
   21GLOH   H07 8472   3.845   4.487   1.994  0.0640  2.5021 -0.8553
   21GLOH    O3 8473   3.684   4.604   2.045  0.0714 -0.7852 -0.4656
   21GLOH   H01 8474   3.689   4.672   2.114 -0.5056 -1.2224  0.0245
   22GLOH   H03 8475   3.144   9.244   0.371  0.8509 -0.3146  2.5821
   22GLOH    O1 8476   3.236   9.274   0.362  0.6736 -0.5201 -0.4956
   22GLOH    C1 8477   3.308   9.228   0.249  0.1040 -0.0888 -0.3383
   22GLOH   H02 8478   3.413   9.256   0.248  0.3363 -0.7610  2.2307
   22GLOH   H08 8479   3.268   9.290   0.168  1.5197  0.9936 -0.2243
   22GLOH    C2 8480   3.294   9.081   0.197  0.2830  0.3190 -0.0348
   22GLOH   H04 8481   3.188   9.070   0.170  0.4903 -0.5642 -0.5059
   22GLOH    O2 8482   3.361   9.055   0.075  0.3914 -0.3833  0.6001
   22GLOH   H05 8483   3.321   8.971   0.046  0.1538 -0.0195 -0.1317
   22GLOH    C3 8484   3.333   8.966   0.296 -0.1801 -0.3132 -0.2218
   22GLOH   H06 8485   3.296   8.995   0.395 -0.6178  0.0111 -0.4750
   22GLOH   H07 8486   3.441   8.951   0.294 -0.5225 -3.1168  0.3579
   22GLOH    O3 8487   3.270   8.841   0.269  0.1560  0.2001  0.3052
   22GLOH   H01 8488   3.300   8.799   0.186 -1.9969  0.4033 -0.6173
   23GLOH   H03 8489   3.245   4.559   0.308  1.1410 -1.3916 -1.9547
   23GLOH    O1 8490   3.202   4.603   0.232 -0.0436 -0.0548 -0.5593
   23GLOH    C1 8491   3.206   4.507   0.129  0.0566  0.4842 -0.3965
   23GLOH   H02 8492   3.105   4.498   0.089  0.5134  0.4263 -1.5581
   23GLOH   H08 8493   3.218   4.405   0.164  0.5667  0.4086 -0.7765
   23GLOH    C2 8494   3.311   4.535   0.020 -0.4235 -0.2759 -0.5247
   23GLOH   H04 8495   3.313   4.451  -0.050 -0.6281  0.8721 -1.9124
   23GLOH    O2 8496   3.267   4.650  -0.059 -0.2336 -0.0669 -0.1979
   23GLOH   H05 8497   3.294   4.653  -0.152 -2.5213  1.4421 -0.8652
   23GLOH    C3 8498   3.450   4.553   0.078  0.2193 -0.1263  0.4483
   23GLOH   H06 8499   3.468   4.469   0.145  2.5470  2.0426  2.6501
   23GLOH   H07 8500   3.459   4.637   0.148 -1.4797 -0.9353  1.6990
   23GLOH    O3 8501   3.537   4.560  -0.036  0.1485 -0.1577  0.0761
   23GLOH   H01 8502   3.556   4.655  -0.049 -1.6012  0.4115  1.3849
   24GLOH   H03 8503   9.896   2.751   1.491  0.5394 -0.6412  0.4580
   24GLOH    O1 8504   9.894   2.683   1.421 -0.1587 -0.3392  0.1796
   24GLOH    C1 8505   9.853   2.563   1.498  0.4369  0.2516  0.4880
   24GLOH   H02 8506   9.838   2.588   1.603  0.2725  1.7679  0.1160
   24GLOH   H08 8507   9.931   2.488   1.498 -0.4688 -0.6961  0.4937
   24GLOH    C2 8508   9.732   2.497   1.433  0.0184  0.3499  0.8614
   24GLOH   H04 8509   9.752   2.468   1.329 -0.4405  1.6261  0.4013
   24GLOH    O2 8510   9.704   2.381   1.515  0.1790 -0.0260 -0.4693
   24GLOH   H05 8511   9.782   2.323   1.513 -0.2552 -0.6234 -0.4147
   24GLOH    C3 8512   9.614   2.597   1.445  0.1195  0.0431  0.4130
   24GLOH   H06 8513   9.523   2.554   1.405  0.5848  1.3999 -2.1882
   24GLOH   H07 8514   9.636   2.684   1.383  0.4849 -0.3133  0.0437
   24GLOH    O3 8515   9.591   2.631   1.581  0.0362  0.2887 -0.0859
   24GLOH   H01 8516   9.495   2.647   1.587 -0.1655 -1.2571  0.9171
   25GLOH   H03 8517   1.727   6.681   0.116 -0.4670  0.5136 -0.3728
   25GLOH    O1 8518   1.753   6.593   0.150  0.3969  0.7184 -0.4976
   25GLOH    C1 8519   1.731   6.505   0.035 -0.5951  0.0041 -0.0151
   25GLOH   H02 8520   1.790   6.414   0.040  0.3990  0.6817  0.9230
   25GLOH   H08 8521   1.767   6.557  -0.054  0.3403  0.9933  0.9259
   25GLOH    C2 8522   1.587   6.460   0.020  0.8273 -0.5441  0.1334
   25GLOH   H04 8523   1.523   6.547  -0.000 -0.1965 -0.9811  1.4797
   25GLOH    O2 8524   1.569   6.360  -0.083 -0.2872  1.0417 -0.1634
   25GLOH   H05 8525   1.561   6.407  -0.168 -0.8604  0.6419 -0.3309
   25GLOH    C3 8526   1.519   6.400   0.143 -0.3174 -0.7179 -0.2192
   25GLOH   H06 8527   1.532   6.292   0.140  0.0386 -0.6607 -0.7138
   25GLOH   H07 8528   1.411   6.412   0.131 -0.1164 -0.1754 -1.6064
   25GLOH    O3 8529   1.568   6.452   0.269 -0.2163 -0.1372 -0.5876
   25GLOH   H01 8530   1.632   6.523   0.249 -2.7466  1.4287 -3.5251
   26GLOH   H03 8531   9.527   3.117   1.566 -1.8100  1.3490 -0.2215
   26GLOH    O1 8532   9.570   3.174   1.499 -0.0499  0.3599  0.0394
   26GLOH    C1 8533   9.620   3.096   1.388 -0.3252  0.0829 -0.1166
   26GLOH   H02 8534   9.706   3.035   1.417  0.0891  0.4142 -0.6432
   26GLOH   H08 8535   9.665   3.168   1.320 -1.1253  1.5368  0.8591
   26GLOH    C2 8536   9.518   3.011   1.319 -0.0316 -0.5194  0.0788
   26GLOH   H04 8537   9.580   2.932   1.274  0.2552 -0.5729  0.5716
   26GLOH    O2 8538   9.416   2.952   1.402  0.1475 -0.0010 -0.8416
   26GLOH   H05 8539   9.364   3.020   1.448 -0.9751 -2.0170  1.0272
   26GLOH    C3 8540   9.450   3.074   1.194 -0.1656  0.6267 -0.2483
   26GLOH   H06 8541   9.396   3.165   1.218 -0.5086  0.0145  1.3777
   26GLOH   H07 8542   9.367   3.007   1.171 -1.7501  1.2145  3.4204
   26GLOH    O3 8543   9.539   3.093   1.088 -0.3762  0.6171 -0.4047
   26GLOH   H01 8544   9.511   3.027   1.021  3.2125 -1.8394  0.3337
   27GLOH   H03 8545   1.961   7.289   0.644  0.2007 -1.2954  0.5759
   27GLOH    O1 8546   1.910   7.222   0.595 -0.8072 -0.2515  0.1573
   27GLOH    C1 8547   1.963   7.226   0.466  0.0825  0.4572  0.2580
   27GLOH   H02 8548   2.041   7.302   0.462 -0.2981  0.8340  0.0053
   27GLOH   H08 8549   1.887   7.253   0.392  0.0700  2.5555  1.0043
   27GLOH    C2 8550   2.029   7.091   0.432  0.2865 -0.4356 -0.3078
   27GLOH   H04 8551   1.943   7.025   0.411 -0.1548 -0.7235  2.2408
   27GLOH    O2 8552   2.124   7.094   0.319 -0.2199  0.0881  0.5951
   27GLOH   H05 8553   2.073   7.122   0.242  2.4323 -0.4469 -1.4141
   27GLOH    C3 8554   2.097   7.028   0.559 -0.0973 -0.5836 -0.8017
   27GLOH   H06 8555   2.018   7.005   0.631  0.6892 -1.0846 -0.0911
   27GLOH   H07 8556   2.159   7.110   0.596 -1.2752 -0.1366  0.2459
   27GLOH    O3 8557   2.180   6.912   0.541 -0.1644  0.1756 -0.0975
   27GLOH   H01 8558   2.128   6.830   0.527 -0.7608  0.5439 -0.0643
   28GLOH   H03 8559   1.800   2.236  -0.076 -0.8881 -0.7447  1.2431
   28GLOH    O1 8560   1.853   2.234   0.006 -0.1539  0.2157  0.7933
   28GLOH    C1 8561   1.884   2.095   0.044  0.6218 -0.0057 -0.0499
   28GLOH   H02 8562   1.933   2.090   0.141  0.6203 -2.5519 -0.1611
   28GLOH   H08 8563   1.942   2.049  -0.037  0.9081 -0.9249  0.6757
   28GLOH    C2 8564   1.756   2.007   0.056  0.4873 -0.4862 -0.7204
   28GLOH   H04 8565   1.720   2.003  -0.048  0.1027  0.4877 -0.6279
   28GLOH    O2 8566   1.782   1.872   0.105 -0.8398  0.6038 -0.2085
   28GLOH   H05 8567   1.701   1.820   0.113  0.0907 -0.4119  3.8754
   28GLOH    C3 8568   1.655   2.078   0.155 -0.0724 -0.3269  0.0567
   28GLOH   H06 8569   1.639   2.181   0.124 -1.6639  0.2456  2.6582
   28GLOH   H07 8570   1.709   2.086   0.249  0.4064 -0.8576 -0.1656
   28GLOH    O3 8571   1.528   2.015   0.175 -0.6487 -0.1152 -0.0083
   28GLOH   H01 8572   1.552   1.942   0.235  0.3629  0.5755  0.4523
   29GLOH   H03 8573   1.165   5.770   2.044 -0.4875 -0.9760  1.6610
   29GLOH    O1 8574   1.259   5.756   2.022 -0.7689  0.4904 -0.6105
   29GLOH    C1 8575   1.319   5.703   2.141 -0.0656 -0.4632  0.6849
   29GLOH   H02 8576   1.354   5.785   2.205  2.2464 -1.0030  0.1747
   29GLOH   H08 8577   1.403   5.642   2.108 -0.8249 -2.8463  3.0649
   29GLOH    C2 8578   1.242   5.618   2.236 -0.1003  0.8286 -0.0690
   29GLOH   H04 8579   1.210   5.525   2.186 -1.7390  2.1785 -1.6085
   29GLOH    O2 8580   1.330   5.585   2.347 -0.3856  0.1174  0.2308
   29GLOH   H05 8581   1.405   5.646   2.347  0.6571 -1.1481  0.8093
   29GLOH    C3 8582   1.114   5.689   2.278 -0.0395  0.7965 -0.0350
   29GLOH   H06 8583   1.141   5.766   2.351  1.7045 -0.1460  0.3560
   29GLOH   H07 8584   1.053   5.611   2.324  1.5236  0.1900  1.0578
   29GLOH    O3 8585   1.040   5.738   2.169  0.0793  0.5736 -0.4118
   29GLOH   H01 8586   0.947   5.724   2.194  0.9333 -1.4555  1.8037
   30GLOH   H03 8587   2.992   7.949   0.717 -2.9333  1.1429  0.2794
   30GLOH    O1 8588   2.980   7.896   0.798  0.8051 -0.5138 -0.1562
   30GLOH    C1 8589   3.030   7.967   0.911 -0.2543 -0.3869 -0.0895
   30GLOH   H02 8590   2.957   7.947   0.990  0.3201 -1.4876  0.1741
   30GLOH   H08 8591   3.026   8.075   0.900 -0.0458 -0.3734 -0.0335
   30GLOH    C2 8592   3.175   7.946   0.959 -0.9562 -0.0520  0.1573
   30GLOH   H04 8593   3.247   7.970   0.879  0.4399  1.4104  1.8020
   30GLOH    O2 8594   3.222   8.020   1.070  0.4922 -0.4050 -0.2365
   30GLOH   H05 8595   3.178   8.105   1.053 -0.1423 -0.4886  0.9398
   30GLOH    C3 8596   3.196   7.794   0.999  0.6437 -0.5281 -0.6022
   30GLOH   H06 8597   3.116   7.765   1.068  0.3002 -1.0268 -1.2119
   30GLOH   H07 8598   3.286   7.797   1.060  0.0315  0.3578  0.2897
   30GLOH    O3 8599   3.210   7.704   0.885  0.1888  0.6331 -0.0847
   30GLOH   H01 8600   3.197   7.614   0.920 -2.7206  1.4473  1.0364
   31GLOH   H03 8601   0.148   1.249   0.494 -0.3877  0.5787 -0.5227
   31GLOH    O1 8602   0.177   1.318   0.557  0.4885 -0.1674 -0.0951
   31GLOH    C1 8603   0.220   1.434   0.487  0.6727  0.8869 -0.1414
   31GLOH   H02 8604   0.197   1.528   0.538  1.9050  1.9835 -1.5629
   31GLOH   H08 8605   0.162   1.442   0.395  1.7531  0.1258 -0.8934
   31GLOH    C2 8606   0.371   1.433   0.456  0.4747  0.0400 -0.0134
   31GLOH   H04 8607   0.385   1.344   0.392 -1.2312 -0.3451  0.1169
   31GLOH    O2 8608   0.398   1.546   0.370  0.3657 -0.3867 -0.3153
   31GLOH   H05 8609   0.397   1.523   0.275  0.6745 -2.9166  0.2460
   31GLOH    C3 8610   0.461   1.427   0.585  0.1250 -0.2966  0.3899
   31GLOH   H06 8611   0.422   1.499   0.657 -1.9023 -0.7947 -0.1532
   31GLOH   H07 8612   0.561   1.461   0.560 -0.6695  2.0413  0.3415
   31GLOH    O3 8613   0.456   1.294   0.646 -0.3096  0.0625  0.0063
   31GLOH   H01 8614   0.427   1.227   0.581  0.4863  2.1981 -2.6333
   32GLOH   H03 8615   0.682   1.365  -0.037  0.3133 -0.4343 -0.3179
   32GLOH    O1 8616   0.681   1.400   0.055  0.2028 -0.1125 -0.4381
   32GLOH    C1 8617   0.605   1.310   0.131  0.1593  0.4096  0.1471
   32GLOH   H02 8618   0.599   1.338   0.237 -0.4500 -1.0106  0.4890
   32GLOH   H08 8619   0.656   1.214   0.128  1.4779  1.1456 -2.1299
   32GLOH    C2 8620   0.463   1.276   0.080 -0.8316  0.1257 -1.0497
   32GLOH   H04 8621   0.469   1.205  -0.004 -2.3533 -0.1994 -0.9031
   32GLOH    O2 8622   0.389   1.210   0.186 -0.7771  0.7453 -0.3167
   32GLOH   H05 8623   0.451   1.186   0.257 -2.7132 -1.3534  0.7234
   32GLOH    C3 8624   0.392   1.399   0.018  0.0729  0.0704 -0.5547
   32GLOH   H06 8625   0.287   1.377  -0.002 -0.1399  0.4590  0.1137
   32GLOH   H07 8626   0.438   1.419  -0.079 -0.0547  0.9776 -0.4354
   32GLOH    O3 8627   0.407   1.503   0.104 -0.2816 -0.4709 -0.4334
   32GLOH   H01 8628   0.373   1.579   0.053 -1.1571  0.1308  1.0089
   33GLOH   H03 8629   0.827   7.662   1.395  0.6066 -0.3959  0.3726
   33GLOH    O1 8630   0.818   7.664   1.492  0.5487 -0.5952  0.3722
   33GLOH    C1 8631   0.731   7.549   1.519 -1.0910  0.4380  0.3212
   33GLOH   H02 8632   0.696   7.560   1.622  2.8274 -1.9936  2.0328
   33GLOH   H08 8633   0.790   7.459   1.534 -0.1925  0.7956 -0.9682
   33GLOH    C2 8634   0.605   7.527   1.431 -0.1407 -0.3540  0.5155
   33GLOH   H04 8635   0.632   7.506   1.326 -0.0519 -1.3271  0.7300
   33GLOH    O2 8636   0.539   7.408   1.476 -0.5619 -0.0003  0.1636
   33GLOH   H05 8637   0.585   7.330   1.442 -0.3157  0.4363 -0.5399
   33GLOH    C3 8638   0.515   7.657   1.444 -0.3033  0.2138  0.4405
   33GLOH   H06 8639   0.429   7.644   1.377  0.6750  2.3473 -1.2767
   33GLOH   H07 8640   0.572   7.735   1.395  1.5871 -0.5154  1.4389
   33GLOH    O3 8641   0.474   7.680   1.578 -0.1212 -0.2234  0.3533
   33GLOH   H01 8642   0.397   7.625   1.601 -1.0092  0.7575 -0.2607
   34GLOH   H03 8643   1.003   0.426   1.185 -1.0906  0.0990  2.8324
   34GLOH    O1 8644   0.989   0.522   1.184  0.1047  0.2894 -0.1460
   34GLOH    C1 8645   1.098   0.586   1.257  0.3460 -0.7160 -0.0821
   34GLOH   H02 8646   1.139   0.669   1.199 -2.8693 -0.8598 -2.6902
   34GLOH   H08 8647   1.175   0.513   1.280  2.1073  1.4413  1.0206
   34GLOH    C2 8648   1.051   0.647   1.388 -0.2613  0.5228  0.4367
   34GLOH   H04 8649   1.133   0.651   1.460  1.7311  0.0513 -1.7363
   34GLOH    O2 8650   0.998   0.779   1.361 -0.2494  0.1265  0.0701
   34GLOH   H05 8651   0.959   0.817   1.441 -1.9880  3.0369 -2.0230
   34GLOH    C3 8652   0.940   0.563   1.455  0.1504 -0.1785  0.2472
   34GLOH   H06 8653   0.993   0.468   1.460 -1.2432 -1.0265 -0.6684
   34GLOH   H07 8654   0.856   0.552   1.386 -0.5330  2.3744  0.6119
   34GLOH    O3 8655   0.903   0.605   1.587 -0.3329 -0.0099  0.2696
   34GLOH   H01 8656   0.807   0.590   1.599 -0.3610  1.6822  2.6255
   35GLOH   H03 8657   0.502   9.929   1.608 -1.2563 -4.1172  2.9932
   35GLOH    O1 8658   0.540   9.875   1.536 -0.3738 -0.2665  0.4295
   35GLOH    C1 8659   0.552   9.741   1.588 -0.1815  0.0431  0.0830
   35GLOH   H02 8660   0.564   9.673   1.505  1.9135  1.9180 -1.2139
   35GLOH   H08 8661   0.465   9.718   1.650 -0.4930 -0.9780 -0.7290
   35GLOH    C2 8662   0.683   9.731   1.663 -0.1724  0.4314 -0.2590
   35GLOH   H04 8663   0.759   9.760   1.590  1.0772  0.6016  1.0891
   35GLOH    O2 8664   0.702   9.810   1.777 -0.0938 -0.0253  0.1412
   35GLOH   H05 8665   0.792   9.824   1.812 -0.4393  3.2687 -0.1423
   35GLOH    C3 8666   0.705   9.587   1.696 -0.4882  0.1984 -0.4383
   35GLOH   H06 8667   0.619   9.569   1.761  0.0583  0.9873  0.5072
   35GLOH   H07 8668   0.794   9.581   1.758  0.3192 -0.0896 -1.6245
   35GLOH    O3 8669   0.713   9.498   1.584  0.0338 -0.2370 -0.6228
   35GLOH   H01 8670   0.778   9.536   1.522  2.5353 -0.8723  1.4812
   36GLOH   H03 8671   9.335   2.671   1.891 -2.1358  1.6900  0.6909
   36GLOH    O1 8672   9.286   2.627   1.819 -0.0817  0.1702  0.1654
   36GLOH    C1 8673   9.208   2.522   1.877 -0.1107 -0.3838  0.4097
   36GLOH   H02 8674   9.141   2.482   1.800  1.6120  0.8792 -1.7899
   36GLOH   H08 8675   9.141   2.559   1.954  1.1714  1.6490  0.5750
   36GLOH    C2 8676   9.295   2.411   1.935  0.4099 -0.5059  0.2330
   36GLOH   H04 8677   9.356   2.454   2.016  1.9798  0.8762 -1.6460
   36GLOH    O2 8678   9.217   2.302   1.988 -0.3585 -0.3334 -0.3070
   36GLOH   H05 8679   9.237   2.288   2.082  1.4823 -0.0976 -0.6426
   36GLOH    C3 8680   9.386   2.362   1.826 -0.4638  0.0751  0.4238
   36GLOH   H06 8681   9.439   2.276   1.867  0.7375  1.0944  1.0469
   36GLOH   H07 8682   9.459   2.442   1.812  1.3434 -1.5260  0.4310
   36GLOH    O3 8683   9.312   2.336   1.707  0.3299  0.3096  0.3290
   36GLOH   H01 8684   9.235   2.277   1.718  2.7806 -3.1238 -0.3402
   37GLOH   H03 8685   2.451   4.464   1.830 -0.9081 -0.3969 -0.5048
   37GLOH    O1 8686   2.542   4.430   1.827 -1.0685 -0.8093 -0.5999
   37GLOH    C1 8687   2.532   4.310   1.900 -0.7697  0.4407  0.3287
   37GLOH   H02 8688   2.540   4.225   1.832  0.0318 -0.9468  2.1155
   37GLOH   H08 8689   2.432   4.298   1.943 -1.0883 -0.2854 -0.6032
   37GLOH    C2 8690   2.645   4.317   2.005  0.0986  0.5312 -0.4409
   37GLOH   H04 8691   2.650   4.420   2.043  2.1143  1.4574 -3.1186
   37GLOH    O2 8692   2.613   4.216   2.111 -0.1998 -0.5749  0.3685
   37GLOH   H05 8693   2.549   4.256   2.173  0.4596  0.5790  0.3179
   37GLOH    C3 8694   2.786   4.294   1.945 -0.2017  0.5026 -0.1720
   37GLOH   H06 8695   2.809   4.189   1.959  1.0720  0.4709 -2.2568
   37GLOH   H07 8696   2.859   4.345   2.008  0.7214  0.1207 -0.9280
   37GLOH    O3 8697   2.792   4.342   1.811 -0.8759 -0.2211 -0.5665
   37GLOH   H01 8698   2.717   4.401   1.793 -0.2733  1.0376  0.8921
   38GLOH   H03 8699   0.572   6.361   2.300 -3.1256 -1.3594  0.0686
   38GLOH    O1 8700   0.589   6.362   2.396  0.0340  0.1100 -0.4089
   38GLOH    C1 8701   0.520   6.467   2.461 -0.3045  0.1551 -0.0659
   38GLOH   H02 8702   0.508   6.448   2.568 -1.8193  1.2173 -0.0359
   38GLOH   H08 8703   0.422   6.485   2.417 -0.1130  0.3999 -0.3909
   38GLOH    C2 8704   0.593   6.604   2.449  0.4126  0.2817 -0.1591
   38GLOH   H04 8705   0.692   6.591   2.496  0.3523 -1.3053 -0.4497
   38GLOH    O2 8706   0.610   6.652   2.315  0.0483  0.0873  0.2825
   38GLOH   H05 8707   0.522   6.650   2.274  0.1245 -0.5150  0.1489
   38GLOH    C3 8708   0.519   6.714   2.532 -0.0876 -0.3103  0.2741
   38GLOH   H06 8709   0.434   6.756   2.479  1.5247  1.7806 -0.7239
   38GLOH   H07 8710   0.593   6.793   2.537 -0.3828 -0.1602  2.9305
   38GLOH    O3 8711   0.486   6.681   2.672  0.1190  0.1524 -0.1685
   38GLOH   H01 8712   0.445   6.756   2.719  1.0513  0.0501  0.8411
   39GLOH   H03 8713   2.222   6.006   2.317 -0.5069 -3.2019  3.3340
   39GLOH    O1 8714   2.319   6.008   2.329 -0.0595  0.0844  0.2513
   39GLOH    C1 8715   2.406   6.060   2.227 -0.6444  0.0279  0.3913
   39GLOH   H02 8716   2.499   6.100   2.269  0.7318 -1.9051 -0.7874
   39GLOH   H08 8717   2.358   6.139   2.169  0.6549  0.0385 -0.6769
   39GLOH    C2 8718   2.447   5.961   2.118  0.1412  0.1674  0.5307
   39GLOH   H04 8719   2.357   5.937   2.060  0.3794  2.7456 -0.9626
   39GLOH    O2 8720   2.540   6.031   2.033  0.3293 -0.0483  0.0945
   39GLOH   H05 8721   2.559   5.970   1.959 -1.5506  1.0551 -1.3571
   39GLOH    C3 8722   2.497   5.830   2.180 -0.7886  0.0794  0.2236
   39GLOH   H06 8723   2.591   5.853   2.231 -0.0764  1.4246 -1.6588
   39GLOH   H07 8724   2.517   5.763   2.096 -0.8628 -1.1209  1.1457
   39GLOH    O3 8725   2.414   5.771   2.278 -0.2125  0.3730 -0.0674
   39GLOH   H01 8726   2.386   5.847   2.332 -2.2475  0.6210 -1.4501
   40GLOH   H03 8727   4.312   3.040   1.155  2.9391 -2.4680 -1.2645
   40GLOH    O1 8728   4.279   3.043   1.063 -0.3028  0.4214 -0.0853
   40GLOH    C1 8729   4.132   3.048   1.059  0.3620 -0.5467 -0.0562
   40GLOH   H02 8730   4.086   3.145   1.076 -1.2391 -1.2833 -0.0899
   40GLOH   H08 8731   4.077   2.986   1.130 -1.1378  1.1134  0.2515
   40GLOH    C2 8732   4.096   3.013   0.917  0.0430  0.0938  0.4253
   40GLOH   H04 8733   4.129   2.910   0.896  0.6825  1.0546 -3.8268
   40GLOH    O2 8734   3.949   3.025   0.899 -0.3786 -0.6377  0.3362
   40GLOH   H05 8735   3.929   3.004   0.806 -0.7384  1.3389 -0.0552
   40GLOH    C3 8736   4.157   3.100   0.807  0.5994 -0.0623  0.0274
   40GLOH   H06 8737   4.103   3.195   0.809  0.3411 -0.2208  0.5974
   40GLOH   H07 8738   4.135   3.055   0.710  0.4309  0.2304 -0.0691
   40GLOH    O3 8739   4.298   3.126   0.831  0.0105  0.0121 -0.5195
   40GLOH   H01 8740   4.321   3.104   0.923 -0.5468  0.2815 -0.3126
   41GLOH   H03 8741   0.847   6.531   2.066  1.1403  0.0713 -0.4250
   41GLOH    O1 8742   0.820   6.567   1.979  0.6640 -0.1530 -0.3742
   41GLOH    C1 8743   0.759   6.468   1.899  0.2181  0.3528  0.3361
   41GLOH   H02 8744   0.688   6.409   1.956 -0.5574  0.4175 -0.5471
   41GLOH   H08 8745   0.836   6.399   1.865 -1.0174 -0.2448 -1.3635
   41GLOH    C2 8746   0.698   6.540   1.781  0.0450  0.5031  0.8881
   41GLOH   H04 8747   0.773   6.605   1.733 -0.3673  0.4922  0.2139
   41GLOH    O2 8748   0.665   6.448   1.673  0.7940  0.5451 -0.3375
   41GLOH   H05 8749   0.693   6.482   1.586  2.2085 -1.2135 -0.5978
   41GLOH    C3 8750   0.582   6.633   1.821 -0.5701  0.0057  0.0186
   41GLOH   H06 8751   0.615   6.676   1.916 -1.4296 -0.4026  0.5051
   41GLOH   H07 8752   0.503   6.564   1.848 -1.7140 -0.2241 -3.7404
   41GLOH    O3 8753   0.551   6.730   1.718 -0.0646  0.3244 -0.4708
   41GLOH   H01 8754   0.479   6.702   1.659 -0.8469  0.1621  0.5516
   42GLOH   H03 8755   3.177   7.646  -0.001  1.4590  1.8491 -2.2013
   42GLOH    O1 8756   3.185   7.709   0.072  0.2336 -0.5951  0.1074
   42GLOH    C1 8757   3.313   7.763   0.066  0.2410 -0.0993 -0.0467
   42GLOH   H02 8758   3.328   7.819   0.158  2.5241 -0.7651  0.0125
   42GLOH   H08 8759   3.322   7.828  -0.022  2.7609  0.4367  0.5791
   42GLOH    C2 8760   3.418   7.654   0.055  0.0197 -0.0286  0.1518
   42GLOH   H04 8761   3.390   7.574   0.126  0.0936 -1.1330 -1.0342
   42GLOH    O2 8762   3.425   7.600  -0.074  0.2656 -0.2193 -0.3308
   42GLOH   H05 8763   3.335   7.581  -0.104  0.7178  0.4253 -2.1645
   42GLOH    C3 8764   3.553   7.704   0.100  0.1346  0.9896 -0.0603
   42GLOH   H06 8765   3.627   7.629   0.073  2.0390  2.2791  1.3734
   42GLOH   H07 8766   3.568   7.707   0.208 -0.3368 -1.2458  0.1000
   42GLOH    O3 8767   3.590   7.830   0.034  0.0065 -0.2971 -0.0917
   42GLOH   H01 8768   3.606   7.821  -0.062  0.6186 -0.3089  0.0130
   43GLOH   H03 8769   4.639   2.907   1.118 -1.7830  2.2502  1.2967
   43GLOH    O1 8770   4.717   2.965   1.110  0.2587 -0.5547 -0.1561
   43GLOH    C1 8771   4.685   3.103   1.112 -0.3130  0.0884  0.0305
   43GLOH   H02 8772   4.768   3.161   1.154 -0.2935  0.2678 -0.2523
   43GLOH   H08 8773   4.605   3.125   1.182  0.7851  2.1535  0.6930
   43GLOH    C2 8774   4.636   3.159   0.971 -0.1517  0.5315 -0.7671
   43GLOH   H04 8775   4.532   3.124   0.957 -0.8666  2.0177  0.6162
   43GLOH    O2 8776   4.624   3.300   0.981 -0.3816  0.1833 -0.3517
   43GLOH   H05 8777   4.633   3.345   0.895 -1.8410  1.7942  0.3152
   43GLOH    C3 8778   4.729   3.115   0.855  0.3362 -0.0507  0.5318
   43GLOH   H06 8779   4.732   3.006   0.862  1.3817 -0.0813 -0.2611
   43GLOH   H07 8780   4.828   3.150   0.883  0.0353 -0.2987  1.9282
   43GLOH    O3 8781   4.691   3.168   0.725 -0.4209 -0.0255 -0.0224
   43GLOH   H01 8782   4.594   3.166   0.712 -0.4914 -0.7814  0.5868
   44GLOH   H03 8783   3.139   4.585   1.876  0.7871  0.6002 -0.3724
   44GLOH    O1 8784   3.201   4.589   1.951  0.1044 -0.0305  0.2347
   44GLOH    C1 8785   3.167   4.693   2.047 -0.4723  0.1791  0.6550
   44GLOH   H02 8786   3.077   4.654   2.096  0.2614 -0.9863  1.0944
   44GLOH   H08 8787   3.135   4.780   1.990  0.0087 -0.8436 -1.2080
   44GLOH    C2 8788   3.276   4.733   2.143  0.5264  0.9768  0.3623
   44GLOH   H04 8789   3.250   4.836   2.171 -1.8002  0.7689 -0.9467
   44GLOH    O2 8790   3.296   4.638   2.250  0.0085  0.1574 -0.2000
   44GLOH   H05 8791   3.325   4.557   2.205  2.1466 -0.5993  2.4121
   44GLOH    C3 8792   3.411   4.758   2.072 -0.1927  0.0840 -0.3240
   44GLOH   H06 8793   3.444   4.664   2.029  0.4660  0.2617 -0.2216
   44GLOH   H07 8794   3.490   4.794   2.138 -1.0062  1.1062  0.1034
   44GLOH    O3 8795   3.401   4.847   1.962  0.3506  0.1156  0.2226
   44GLOH   H01 8796   3.480   4.839   1.905  0.4824 -1.3833  0.5936
   45GLOH   H03 8797   1.390   5.469   1.888  1.6827 -1.9059  0.4794
   45GLOH    O1 8798   1.330   5.393   1.881 -0.2565 -0.3049 -0.6054
   45GLOH    C1 8799   1.201   5.435   1.829  0.4287 -0.3572 -0.7554
   45GLOH   H02 8800   1.222   5.511   1.753 -1.7268  0.4733 -0.5616
   45GLOH   H08 8801   1.138   5.483   1.904 -0.0107 -0.1714 -1.2435
   45GLOH    C2 8802   1.128   5.307   1.777 -0.2653 -0.0233 -0.5115
   45GLOH   H04 8803   1.109   5.234   1.857 -1.0482 -0.3185 -0.9619
   45GLOH    O2 8804   1.002   5.341   1.721  0.1379  0.7863  0.1627
   45GLOH   H05 8805   0.941   5.265   1.723  0.4038  0.6006  2.1178
   45GLOH    C3 8806   1.224   5.236   1.677  0.5538 -0.1913  0.2050
   45GLOH   H06 8807   1.236   5.306   1.595 -3.1159  0.8847  0.4598
   45GLOH   H07 8808   1.175   5.150   1.630 -1.5671  1.8474 -1.4160
   45GLOH    O3 8809   1.354   5.200   1.731 -0.3593  0.0144 -0.7991
   45GLOH   H01 8810   1.362   5.271   1.798  1.4636  0.7572 -1.7601
   46GLOH   H03 8811   1.372   7.058   0.589  0.6719 -0.8667 -0.1860
   46GLOH    O1 8812   1.466   7.081   0.578  0.4944  0.0483  0.1337
   46GLOH    C1 8813   1.517   6.967   0.517  0.0423 -0.1259  0.4073
   46GLOH   H02 8814   1.433   6.930   0.457 -0.8501 -0.3333  1.7714
   46GLOH   H08 8815   1.541   6.884   0.584  1.3178 -1.5312 -1.7018
   46GLOH    C2 8816   1.646   6.992   0.439  0.0044 -0.1654  0.6230
   46GLOH   H04 8817   1.730   7.018   0.505 -0.8130  0.1977  1.5393
   46GLOH    O2 8818   1.688   6.870   0.370 -0.1716  0.3515 -0.2803
   46GLOH   H05 8819   1.691   6.799   0.435 -0.4589  3.1481  2.9225
   46GLOH    C3 8820   1.624   7.097   0.328 -0.1693  0.1294 -0.1069
   46GLOH   H06 8821   1.555   7.058   0.253  0.8171  0.5713 -1.2568
   46GLOH   H07 8822   1.719   7.109   0.276  0.1652  1.4499  0.7912
   46GLOH    O3 8823   1.573   7.222   0.379 -0.3993 -0.7192  0.2950
   46GLOH   H01 8824   1.530   7.209   0.466  1.7403  1.1714  1.7035
   47GLOH   H03 8825   3.156   9.592   2.331  1.8014 -0.6325  0.9758
   47GLOH    O1 8826   3.139   9.521   2.267  0.2047  0.1839  0.4596
   47GLOH    C1 8827   3.244   9.428   2.293  0.2017 -0.3209  0.0069
   47GLOH   H02 8828   3.286   9.445   2.392 -1.0930 -1.0802  0.6899
   47GLOH   H08 8829   3.334   9.442   2.232 -0.4441  2.0345 -0.4834
   47GLOH    C2 8830   3.194   9.283   2.272 -0.9077  0.2504  0.0477
   47GLOH   H04 8831   3.174   9.265   2.165  0.7309  1.8318 -0.5559
   47GLOH    O2 8832   3.289   9.185   2.310 -0.1257  0.2214 -0.2746
   47GLOH   H05 8833   3.229   9.127   2.360 -1.5287  2.0243  0.1908
   47GLOH    C3 8834   3.064   9.264   2.348  0.6414  0.6573  0.1006
   47GLOH   H06 8835   2.987   9.337   2.321 -0.0358  0.5842  1.7991
   47GLOH   H07 8836   3.077   9.271   2.456  1.2274  1.9138 -0.0497
   47GLOH    O3 8837   3.002   9.135   2.308  0.0521  0.1808 -0.3016
   47GLOH   H01 8838   2.950   9.160   2.229 -0.1437 -1.0638 -0.5789
   48GLOH   H03 8839   3.227   2.792   1.670  2.0953 -1.0991  1.5085
   48GLOH    O1 8840   3.203   2.698   1.658 -0.0378 -0.4295  0.1273
   48GLOH    C1 8841   3.059   2.704   1.667  0.9247  0.2447  0.2251
   48GLOH   H02 8842   3.005   2.772   1.602  2.2580  1.4069  0.3170
   48GLOH   H08 8843   3.044   2.745   1.767  1.2260  1.0197 -0.0452
   48GLOH    C2 8844   2.990   2.564   1.648 -0.0398  0.1614  0.0285
   48GLOH   H04 8845   2.881   2.570   1.662 -0.4640  0.0653 -2.9014
   48GLOH    O2 8846   3.025   2.516   1.521 -0.0425 -0.6894  0.1531
   48GLOH   H05 8847   3.110   2.556   1.498  0.0190 -1.2247 -0.5247
   48GLOH    C3 8848   3.033   2.465   1.756  0.1158 -0.7683  0.8434
   48GLOH   H06 8849   3.142   2.459   1.751  0.1621  0.9372 -0.6492
   48GLOH   H07 8850   2.986   2.368   1.737 -0.0896 -0.5701  0.3275
   48GLOH    O3 8851   2.994   2.515   1.889 -0.1104  0.3621  0.0538
   48GLOH   H01 8852   3.014   2.447   1.956 -1.1085  0.2627  0.2583
   49GLOH   H03 8853   0.219   1.366   0.697 -1.9005  0.1128 -0.5128
   49GLOH    O1 8854   0.210   1.390   0.791  0.0791 -1.0758  0.0255
   49GLOH    C1 8855   0.071   1.384   0.816 -1.6818  0.5009 -0.3001
   49GLOH   H02 8856   0.058   1.307   0.892  0.1000  0.4408 -0.0267
   49GLOH   H08 8857   0.017   1.338   0.733 -1.1788 -1.4651  0.4299
   49GLOH    C2 8858   0.014   1.519   0.865  0.1915 -0.4376 -0.2115
   49GLOH   H04 8859   0.033   1.581   0.776 -0.4492 -1.0463 -0.7838
   49GLOH    O2 8860  -0.128   1.502   0.891  0.3990 -0.6830  0.6600
   49GLOH   H05 8861  -0.155   1.409   0.895  1.0445 -1.0715 -2.6363
   49GLOH    C3 8862   0.083   1.581   0.988  0.4678  0.3275 -0.0423
   49GLOH   H06 8863   0.046   1.530   1.077 -2.3734  2.0583 -0.1974
   49GLOH   H07 8864   0.040   1.680   0.999 -1.5885 -0.1472 -3.0805
   49GLOH    O3 8865   0.225   1.581   0.976 -0.1008  0.6884 -0.2293
   49GLOH   H01 8866   0.243   1.499   0.926  0.6981  1.6299 -1.5410
   50GLOH   H03 8867   3.042   9.436   0.917 -0.4447  3.0543 -1.8743
   50GLOH    O1 8868   3.112   9.485   0.963  0.4468 -0.1954  0.3914
   50GLOH    C1 8869   3.086   9.491   1.097 -0.0780 -0.3739 -0.4829
   50GLOH   H02 8870   3.050   9.395   1.134 -2.0977  0.4667 -0.2197
   50GLOH   H08 8871   3.001   9.557   1.113  1.0346  0.9032  0.2658
   50GLOH    C2 8872   3.205   9.547   1.176  0.3736  0.2334  0.1729
   50GLOH   H04 8873   3.295   9.492   1.144  1.3085  0.9186  1.5960
   50GLOH    O2 8874   3.232   9.685   1.143 -0.4958  0.4622 -0.4770
   50GLOH   H05 8875   3.161   9.749   1.156 -2.3324 -1.7711  0.8718
   50GLOH    C3 8876   3.182   9.517   1.324  0.3852  0.3994 -0.6335
   50GLOH   H06 8877   3.079   9.549   1.336  0.4616  0.6811 -0.7157
   50GLOH   H07 8878   3.229   9.589   1.392  0.3082 -1.1847  1.1460
   50GLOH    O3 8879   3.211   9.382   1.364 -0.0674  0.0236  0.4693
   50GLOH   H01 8880   3.299   9.354   1.330 -1.6461 -2.3907 -1.8543
   51GLOH   H03 8881   3.383   8.843   1.204  0.3580 -1.2622  0.6984
   51GLOH    O1 8882   3.476   8.858   1.178 -0.0547 -0.0730 -0.1544
   51GLOH    C1 8883   3.553   8.855   1.301  0.7793 -0.6871 -0.3687
   51GLOH   H02 8884   3.562   8.955   1.344 -2.9991 -0.7221  0.7583
   51GLOH   H08 8885   3.653   8.820   1.276  0.1883 -0.9831 -2.3703
   51GLOH    C2 8886   3.502   8.767   1.422 -0.0753 -0.5101 -0.0013
   51GLOH   H04 8887   3.589   8.747   1.486  1.0081  0.0737 -1.2638
   51GLOH    O2 8888   3.416   8.841   1.506 -0.0561 -0.0155 -0.3795
   51GLOH   H05 8889   3.461   8.901   1.567 -0.9404 -0.3234  0.5821
   51GLOH    C3 8890   3.438   8.629   1.380 -0.5530 -0.2076 -0.2678
   51GLOH   H06 8891   3.398   8.637   1.279  1.6813  2.1730 -1.0170
   51GLOH   H07 8892   3.359   8.601   1.449 -2.5660 -0.0565 -2.4495
   51GLOH    O3 8893   3.533   8.527   1.365 -0.2359 -0.2133  0.2610
   51GLOH   H01 8894   3.543   8.502   1.459 -2.4345 -1.7483  0.1290
   52GLOH   H03 8895   1.222   7.248   1.300 -0.9758 -0.4511 -2.3993
   52GLOH    O1 8896   1.297   7.296   1.260  0.0307 -0.1113 -0.1623
   52GLOH    C1 8897   1.403   7.203   1.297 -0.0328  0.1179  0.0607
   52GLOH   H02 8898   1.391   7.178   1.403  3.1580  1.2657  0.7662
   52GLOH   H08 8899   1.499   7.253   1.283 -0.4633  1.0214  0.3384
   52GLOH    C2 8900   1.410   7.071   1.213  0.8205  0.1519  0.6138
   52GLOH   H04 8901   1.495   7.010   1.247  0.6337 -0.4799 -0.0647
   52GLOH    O2 8902   1.282   7.004   1.229 -0.4121 -0.2737  0.0091
   52GLOH   H05 8903   1.288   6.968   1.319  0.5468 -0.2097 -0.0178
   52GLOH    C3 8904   1.437   7.102   1.063  0.0023 -0.2676 -0.0476
   52GLOH   H06 8905   1.348   7.155   1.029  0.5492  1.3227  0.9556
   52GLOH   H07 8906   1.450   7.009   1.008  1.2817 -0.1628  0.0717
   52GLOH    O3 8907   1.555   7.178   1.037  0.2621 -0.1351  0.1740
   52GLOH   H01 8908   1.564   7.186   0.941  1.4307  1.5961  0.3942
   53GLOH   H03 8909   8.774   4.218   0.531 -1.2345  0.1786 -0.0603
   53GLOH    O1 8910   8.763   4.200   0.436  0.3495  0.5133 -0.3133
   53GLOH    C1 8911   8.873   4.114   0.387  0.4750  0.6186 -0.1772
   53GLOH   H02 8912   8.965   4.141   0.440  0.5942  1.4142 -0.7709
   53GLOH   H08 8913   8.897   4.140   0.284  1.0403  1.5722  0.1813
   53GLOH    C2 8914   8.846   3.968   0.405  0.1326  0.5655  0.7359
   53GLOH   H04 8915   8.937   3.916   0.370  0.3672 -1.1351  3.6951
   53GLOH    O2 8916   8.819   3.930   0.542 -0.2727 -0.2058  0.3085
   53GLOH   H05 8917   8.731   3.960   0.570 -1.4533 -3.1087 -0.1166
   53GLOH    C3 8918   8.724   3.926   0.317  1.0654  0.3790  0.2823
   53GLOH   H06 8919   8.640   3.947   0.383  0.4479 -0.4115 -0.2401
   53GLOH   H07 8920   8.718   3.817   0.320 -0.1714  0.4407  0.6184
   53GLOH    O3 8921   8.707   3.967   0.188 -0.0876  0.4643  0.3701
   53GLOH   H01 8922   8.745   3.910   0.119  1.6446 -0.2736  1.9079
   54GLOH   H03 8923   3.092   1.720   2.040  3.0023  2.1264  0.2659
   54GLOH    O1 8924   3.109   1.729   1.945  0.1793  0.4052 -0.4577
   54GLOH    C1 8925   3.219   1.813   1.911 -0.1918  0.2224 -0.1768
   54GLOH   H02 8926   3.300   1.745   1.886 -1.8963 -0.5496 -4.0478
   54GLOH   H08 8927   3.256   1.869   1.997  2.1690 -3.1090  1.0637
   54GLOH    C2 8928   3.212   1.917   1.802 -0.9012  1.0440 -1.1340
   54GLOH   H04 8929   3.157   1.869   1.719  1.9360 -1.1856 -1.7927
   54GLOH    O2 8930   3.127   2.030   1.851 -0.1794  0.7542  0.5181
   54GLOH   H05 8931   3.031   2.023   1.836 -0.0417  1.0332 -0.5517
   54GLOH    C3 8932   3.345   1.973   1.756 -0.1146  0.3185 -0.1842
   54GLOH   H06 8933   3.393   2.025   1.839 -1.1555 -0.9887  1.2752
   54GLOH   H07 8934   3.328   2.054   1.685 -0.8023 -0.9635 -1.4915
   54GLOH    O3 8935   3.423   1.870   1.698 -0.3009  0.2681  0.5550
   54GLOH   H01 8936   3.484   1.850   1.771 -0.9193 -3.1019  0.2053
   55GLOH   H03 8937   0.619   9.021   1.364 -0.0723 -0.4287  0.0636
   55GLOH    O1 8938   0.596   9.051   1.453  0.3061 -0.0158  0.0216
   55GLOH    C1 8939   0.658   8.954   1.538 -0.1930 -0.2556 -0.8634
   55GLOH   H02 8940   0.604   8.860   1.537 -3.5751  1.6165 -0.3418
   55GLOH   H08 8941   0.668   8.995   1.639 -1.5086 -0.6786 -0.5495
   55GLOH    C2 8942   0.802   8.923   1.488 -1.4178  0.2261  0.5193
   55GLOH   H04 8943   0.857   9.019   1.489 -1.3926  0.2192  0.0228
   55GLOH    O2 8944   0.877   8.838   1.577  0.5847 -1.0064  0.0419
   55GLOH   H05 8945   0.967   8.839   1.540  0.9900 -1.4690  0.9877
   55GLOH    C3 8946   0.807   8.863   1.350 -0.2911 -0.2107  0.5321
   55GLOH   H06 8947   0.768   8.761   1.348 -1.0300  0.0778  0.0095
   55GLOH   H07 8948   0.909   8.864   1.312 -0.4558  0.0377  0.0932
   55GLOH    O3 8949   0.727   8.945   1.264  0.2341  0.4875 -0.0442
   55GLOH   H01 8950   0.765   8.943   1.175  0.3862  0.5201  0.0201
   56GLOH   H03 8951   9.077   4.223   1.805 -2.5988 -0.5290 -3.2555
   56GLOH    O1 8952   9.137   4.274   1.747  0.1226  0.3282  0.1606
   56GLOH    C1 8953   9.109   4.242   1.607  0.0670 -0.2817 -0.5444
   56GLOH   H02 8954   9.175   4.310   1.553  1.7876 -1.7932 -0.4145
   56GLOH   H08 8955   9.006   4.275   1.593  0.2675  0.2559 -0.7682
   56GLOH    C2 8956   9.146   4.103   1.553  0.9567 -0.4621 -0.4000
   56GLOH   H04 8957   9.100   4.095   1.454 -0.1562 -1.7887  0.2123
   56GLOH    O2 8958   9.290   4.086   1.545  0.5198  0.0614 -0.0185
   56GLOH   H05 8959   9.330   4.143   1.478 -1.0523 -2.1796 -2.9536
   56GLOH    C3 8960   9.089   3.992   1.644 -0.2936 -0.1493 -0.0875
   56GLOH   H06 8961   9.141   3.993   1.739 -2.4969 -0.8270  1.1633
   56GLOH   H07 8962   9.118   3.901   1.592 -0.2205  0.7924 -1.7143
   56GLOH    O3 8963   8.947   4.015   1.668 -0.1933 -0.3096  0.2307
   56GLOH   H01 8964   8.928   4.064   1.750  1.1308  0.9010 -0.1666
   57GLOH   H03 8965   2.595   6.720   1.225  0.4988 -1.7947 -1.5712
   57GLOH    O1 8966   2.514   6.749   1.179 -0.3784 -0.3446  0.7906
   57GLOH    C1 8967   2.402   6.719   1.268 -0.3211 -0.4357 -0.6985
   57GLOH   H02 8968   2.436   6.672   1.360  1.7583  0.4577 -0.9774
   57GLOH   H08 8969   2.324   6.658   1.222 -1.4921 -0.2057  0.9689
   57GLOH    C2 8970   2.336   6.847   1.327  0.1083 -0.1063  0.5480
   57GLOH   H04 8971   2.324   6.907   1.236  1.6387  0.8562  0.9645
   57GLOH    O2 8972   2.210   6.825   1.382  0.5356 -0.4578  0.4712
   57GLOH   H05 8973   2.160   6.907   1.373  0.2713 -0.4281  2.1720
   57GLOH    C3 8974   2.427   6.929   1.415 -0.7481  0.0920 -1.0866
   57GLOH   H06 8975   2.518   6.958   1.363 -0.7672  1.5151 -0.3714
   57GLOH   H07 8976   2.443   6.874   1.508 -4.3756  0.6646 -0.0196
   57GLOH    O3 8977   2.370   7.058   1.455 -0.0490  0.0288  0.4269
   57GLOH   H01 8978   2.436   7.104   1.510  0.8393 -0.0267 -0.5842
   58GLOH   H03 8979   0.019   7.052   2.153  0.8991  0.8988 -0.7400
   58GLOH    O1 8980   0.087   6.983   2.139  0.2874  0.1272  0.0273
   58GLOH    C1 8981   0.130   6.998   2.003 -0.2185 -0.1475  0.1684
   58GLOH   H02 8982   0.053   7.024   1.930  0.0094  1.9435  0.6470
   58GLOH   H08 8983   0.161   6.900   1.966 -0.5435  0.1363 -0.8728
   58GLOH    C2 8984   0.253   7.087   1.990 -0.7410  0.1870 -0.1231
   58GLOH   H04 8985   0.252   7.132   1.890  1.5443  0.8689  0.1440
   58GLOH    O2 8986   0.248   7.195   2.091  0.4596  0.2039 -0.0189
   58GLOH   H05 8987   0.286   7.164   2.175  1.3628  2.0511  0.2886
   58GLOH    C3 8988   0.388   7.013   2.009 -0.3461 -0.1063  0.3034
   58GLOH   H06 8989   0.394   6.989   2.115 -2.4494 -1.2131  0.2016
   58GLOH   H07 8990   0.464   7.089   1.993 -0.5902  0.2248  0.7161
   58GLOH    O3 8991   0.412   6.900   1.923  0.0583  0.3697 -0.0081
   58GLOH   H01 8992   0.407   6.916   1.827 -1.3080  1.6719  0.2611
   59GLOH   H03 8993   2.863   4.303   2.592  0.2361 -0.2618 -0.9361
   59GLOH    O1 8994   2.849   4.390   2.549  0.4726  0.5220  0.5346
   59GLOH    C1 8995   2.815   4.375   2.409  0.2483 -0.5836  0.0785
   59GLOH   H02 8996   2.708   4.354   2.404  0.1966 -0.2978  0.0241
   59GLOH   H08 8997   2.867   4.291   2.364  0.4126 -0.5081  0.1292
   59GLOH    C2 8998   2.850   4.493   2.315  0.1634 -0.4302  0.4541
   59GLOH   H04 8999   2.846   4.466   2.209  0.1938 -0.9330  0.5800
   59GLOH    O2 9000   2.764   4.610   2.341  0.1280 -0.1670  0.0780
   59GLOH   H05 9001   2.764   4.614   2.438  0.3670 -1.8974  0.1726
   59GLOH    C3 9002   2.996   4.529   2.346 -0.4988 -0.0722  0.2433
   59GLOH   H06 9003   3.004   4.559   2.450  1.1438  2.6046 -0.6062
   59GLOH   H07 9004   3.026   4.617   2.288  1.4145 -1.7557 -1.4101
   59GLOH    O3 9005   3.090   4.423   2.326 -0.2956 -0.9942  0.7564
   59GLOH   H01 9006   3.089   4.401   2.231 -1.2240 -0.5621  0.6622
   60GLOH   H03 9007   4.515   2.986   0.382  0.6352 -0.9057  0.3648
   60GLOH    O1 9008   4.434   2.960   0.430 -0.1559  0.2794 -0.3246
   60GLOH    C1 9009   4.453   2.820   0.453  0.3358  1.0964  0.1056
   60GLOH   H02 9010   4.544   2.806   0.511 -0.3071  0.6593  1.0322
   60GLOH   H08 9011   4.471   2.775   0.356  0.9075 -0.3844  0.8723
   60GLOH    C2 9012   4.341   2.752   0.527 -0.4221 -0.0303 -0.0506
   60GLOH   H04 9013   4.255   2.764   0.459 -1.4503 -1.5560  0.9424
   60GLOH    O2 9014   4.348   2.609   0.546  0.1111 -0.7320  0.7058
   60GLOH   H05 9015   4.306   2.603   0.634 -1.2300 -0.0253  0.1246
   60GLOH    C3 9016   4.313   2.823   0.661  0.7658 -0.8858 -0.5278
   60GLOH   H06 9017   4.309   2.931   0.643  1.2885 -0.8260 -0.3199
   60GLOH   H07 9018   4.395   2.818   0.734  1.3303  2.4815 -0.8595
   60GLOH    O3 9019   4.184   2.779   0.711  0.0893 -0.5519  0.1665
   60GLOH   H01 9020   4.122   2.813   0.644 -0.1349  0.5015  0.9003
   61GLOH   H03 9021   2.863   4.907   1.444  0.8089  0.0734  2.8497
   61GLOH    O1 9022   2.899   4.996   1.428 -0.6195  0.0971 -0.6799
   61GLOH    C1 9023   2.946   4.998   1.290 -0.3120 -0.6970  0.5506
   61GLOH   H02 9024   2.980   5.100   1.272 -0.9948 -0.9443 -2.3689
   61GLOH   H08 9025   2.865   4.980   1.219  0.6391  1.5365 -1.1682
   61GLOH    C2 9026   3.060   4.898   1.265 -0.1905 -0.1758  0.3156
   61GLOH   H04 9027   3.024   4.798   1.293  0.7526  0.3270  3.4937
   61GLOH    O2 9028   3.086   4.895   1.122  0.2292  0.0842 -0.0583
   61GLOH   H05 9029   3.160   4.832   1.116 -2.0369 -2.5962 -0.8529
   61GLOH    C3 9030   3.169   4.931   1.362 -0.6421  0.5066  0.0609
   61GLOH   H06 9031   3.131   4.944   1.464  0.6476  1.0714  0.4868
   61GLOH   H07 9032   3.217   5.026   1.336  0.1019  0.2234  0.3780
   61GLOH    O3 9033   3.263   4.826   1.373 -0.0299  0.2113 -0.8295
   61GLOH   H01 9034   3.235   4.745   1.419 -0.6950  0.9731  0.1251
   62GLOH   H03 9035   3.074   2.450   0.266  0.1250  0.1872  3.3321
   62GLOH    O1 9036   3.009   2.379   0.281 -0.0907 -0.3164  0.3396
   62GLOH    C1 9037   2.884   2.451   0.302 -0.0234  0.5404 -0.2990
   62GLOH   H02 9038   2.893   2.474   0.409  2.7768  2.8599 -0.9633
   62GLOH   H08 9039   2.797   2.388   0.288 -1.5157  2.6173 -0.5741
   62GLOH    C2 9040   2.869   2.589   0.235  0.0694  0.0678  0.1714
   62GLOH   H04 9041   2.881   2.575   0.127 -0.2244 -1.7488  0.3537
   62GLOH    O2 9042   2.739   2.648   0.272  0.0103  0.8604 -0.1539
   62GLOH   H05 9043   2.682   2.647   0.194  1.3553  3.3134 -1.2427
   62GLOH    C3 9044   2.984   2.685   0.276 -0.1525  0.3632 -0.3926
   62GLOH   H06 9045   2.975   2.709   0.381  0.5006  0.1267 -0.2760
   62GLOH   H07 9046   2.966   2.772   0.213 -0.2345  0.4903 -0.1915
   62GLOH    O3 9047   3.114   2.625   0.250  0.3649  0.2690 -0.4862
   62GLOH   H01 9048   3.158   2.612   0.336 -1.8368  0.3685  0.6787
   63GLOH   H03 9049   9.056   4.787   1.179 -1.9295 -1.1859 -1.7503
   63GLOH    O1 9050   9.110   4.829   1.109  0.1551  0.2343  0.6158
   63GLOH    C1 9051   9.045   4.942   1.042  0.0367  0.5519  0.0712
   63GLOH   H02 9052   9.055   5.038   1.092 -0.8100  0.2176  0.9028
   63GLOH   H08 9053   8.940   4.915   1.030  0.7627 -2.0803 -0.5308
   63GLOH    C2 9054   9.108   4.961   0.902 -0.3863  0.1296 -0.6798
   63GLOH   H04 9055   9.079   4.877   0.838 -2.5741 -0.9881  1.7223
   63GLOH    O2 9056   9.075   5.081   0.830  0.8156 -0.2755  0.4855
   63GLOH   H05 9057   9.134   5.158   0.838 -1.3950  1.8521 -2.5757
   63GLOH    C3 9058   9.263   4.942   0.907  0.1669  0.4805  0.2123
   63GLOH   H06 9059   9.302   4.961   0.807  0.0154  0.1927  0.0984
   63GLOH   H07 9060   9.282   4.840   0.941 -3.9877 -0.1766  0.7144
   63GLOH    O3 9061   9.332   5.030   0.997  0.2125 -0.3681 -0.0780
   63GLOH   H01 9062   9.403   5.061   0.938  1.4848 -1.8606  0.6540
   64GLOH   H03 9063   8.155   2.473  -0.059  0.1589  0.9388 -0.3780
   64GLOH    O1 9064   8.234   2.516  -0.021  0.5742 -0.0021 -0.1674
   64GLOH    C1 9065   8.320   2.403  -0.004  0.7197 -0.0160  0.0052
   64GLOH   H02 9066   8.425   2.432   0.004  0.7812 -0.1029 -0.4557
   64GLOH   H08 9067   8.313   2.345  -0.097 -0.6682  1.8943 -1.1218
   64GLOH    C2 9068   8.267   2.317   0.108 -0.5989  0.2475  0.5084
   64GLOH   H04 9069   8.254   2.388   0.191 -0.2994  0.0881  0.6923
   64GLOH    O2 9070   8.139   2.252   0.069 -0.1731 -0.1066  0.0699
   64GLOH   H05 9071   8.100   2.309   0.001 -5.8033 -1.7500  1.6029
   64GLOH    C3 9072   8.371   2.209   0.152  0.2384  0.7513  0.1089
   64GLOH   H06 9073   8.407   2.138   0.077  0.1701  1.9048 -1.0413
   64GLOH   H07 9074   8.326   2.149   0.231  0.2279  0.0973 -0.3901
   64GLOH    O3 9075   8.483   2.271   0.210 -0.6966 -0.3163  0.1118
   64GLOH   H01 9076   8.561   2.214   0.223 -2.3175 -2.5122  0.4978
   65GLOH   H03 9077   0.851   9.385   2.349  3.2486  1.3537  0.4489
   65GLOH    O1 9078   0.876   9.305   2.398  0.5022 -0.0033 -0.2622
   65GLOH    C1 9079   1.005   9.259   2.362  0.0556  0.0782  0.0920
   65GLOH   H02 9080   1.077   9.307   2.427 -0.4064 -0.0910  0.7396
   65GLOH   H08 9081   1.029   9.289   2.260  1.9735  2.3375  1.1666
   65GLOH    C2 9082   1.025   9.106   2.354 -0.1907  0.6026  0.0305
   65GLOH   H04 9083   0.986   9.064   2.448  1.4700 -0.5035  0.2347
   65GLOH    O2 9084   0.946   9.045   2.254 -0.4958 -0.5602 -0.2907
   65GLOH   H05 9085   0.870   9.003   2.299 -3.4826  1.0732 -3.5160
   65GLOH    C3 9086   1.175   9.065   2.360 -0.5971  0.2870  0.2788
   65GLOH   H06 9087   1.213   9.072   2.258  0.6997 -0.2641  0.7166
   65GLOH   H07 9088   1.182   8.962   2.394  0.9779  0.1355 -0.4761
   65GLOH    O3 9089   1.248   9.146   2.444 -0.0254 -0.4367  0.4343
   65GLOH   H01 9090   1.319   9.089   2.479 -0.6516 -0.3554  1.8806
   66GLOH   H03 9091   3.518   0.107   2.412  1.9876 -0.4660  2.6593
   66GLOH    O1 9092   3.530   0.020   2.371  0.6542  0.3850  0.4008
   66GLOH    C1 9093   3.671   0.009   2.375  0.2787  0.3158 -0.0652
   66GLOH   H02 9094   3.709   0.061   2.287 -1.0293  0.0276 -0.8219
   66GLOH   H08 9095   3.706  -0.091   2.348 -0.5249  0.1208 -0.4000
   66GLOH    C2 9096   3.747   0.059   2.502 -0.2484  0.3987  0.1069
   66GLOH   H04 9097   3.710   0.003   2.589 -0.6978  0.0085 -0.3345
   66GLOH    O2 9098   3.893   0.048   2.484  0.2067  0.4251  0.1034
   66GLOH   H05 9099   3.931  -0.011   2.552 -0.0138 -1.9254 -1.7231
   66GLOH    C3 9100   3.704   0.204   2.535 -0.8641 -0.6081 -0.5884
   66GLOH   H06 9101   3.743   0.280   2.468 -0.2472  0.5480  1.0353
   66GLOH   H07 9102   3.743   0.225   2.635 -0.2109 -0.1216 -0.9395
   66GLOH    O3 9103   3.560   0.223   2.550 -0.4945  0.3607 -0.0505
   66GLOH   H01 9104   3.536   0.275   2.628 -0.3210  0.5093 -0.0958
   67GLOH   H03 9105   9.045   3.776   1.956  3.0736 -0.0670 -0.5228
   67GLOH    O1 9106   9.071   3.788   2.050  0.1881  0.0830  0.2979
   67GLOH    C1 9107   9.170   3.889   2.050  0.5339 -0.6561 -0.0541
   67GLOH   H02 9108   9.146   3.960   2.129  0.5481  2.3618 -2.6932
   67GLOH   H08 9109   9.160   3.942   1.956 -2.7049  0.4814  0.8659
   67GLOH    C2 9110   9.314   3.838   2.070 -1.2323  0.1329  0.1887
   67GLOH   H04 9111   9.328   3.764   1.989 -1.6934 -0.0222  0.2476
   67GLOH    O2 9112   9.402   3.953   2.069  0.0744  0.6667  0.0894
   67GLOH   H05 9113   9.363   4.014   2.004  1.4632  1.6073  0.1112
   67GLOH    C3 9114   9.338   3.751   2.191  0.2456  0.0809  0.0972
   67GLOH   H06 9115   9.318   3.811   2.280 -0.6076 -1.8613  1.2240
   67GLOH   H07 9116   9.444   3.730   2.203  0.2030 -1.0939 -1.4668
   67GLOH    O3 9117   9.251   3.635   2.190  0.0589  0.1678  0.0334
   67GLOH   H01 9118   9.165   3.659   2.151  1.0610  0.9546 -1.7328
   68GLOH   H03 9119   9.318   1.338   1.230  0.6112 -0.6111  0.5118
   68GLOH    O1 9120   9.366   1.297   1.156  0.2963  0.1485 -0.1276
   68GLOH    C1 9121   9.318   1.167   1.131  0.1534  1.0649 -0.5354
   68GLOH   H02 9122   9.367   1.095   1.196  0.2359  1.9237  0.3792
   68GLOH   H08 9123   9.352   1.141   1.031  2.4649  0.0920  0.4614
   68GLOH    C2 9124   9.165   1.160   1.149  0.2923  0.2487  0.2653
   68GLOH   H04 9125   9.130   1.225   1.068  0.4067 -0.5472 -0.4307
   68GLOH    O2 9126   9.120   1.026   1.129 -0.0651 -0.7529 -0.1710
   68GLOH   H05 9127   9.082   1.014   1.040 -1.9324 -2.6482  0.8460
   68GLOH    C3 9128   9.120   1.203   1.291 -0.9285 -0.5917  0.6018
   68GLOH   H06 9129   9.179   1.145   1.361 -1.4066 -0.9122  0.7395
   68GLOH   H07 9130   9.014   1.178   1.294 -0.7165 -1.4503  1.0478
   68GLOH    O3 9131   9.152   1.340   1.311  0.7028  0.1539 -0.2534
   68GLOH   H01 9132   9.144   1.361   1.406 -0.9705  0.5909 -0.4667
   69GLOH   H03 9133   4.379   3.358   1.536  0.9500  0.0744  1.1454
   69GLOH    O1 9134   4.358   3.426   1.603  0.4963  0.5936  0.4718
   69GLOH    C1 9135   4.399   3.356   1.721  0.6088 -0.4812 -0.3280
   69GLOH   H02 9136   4.504   3.329   1.712  0.1737 -2.4305  0.2516
   69GLOH   H08 9137   4.344   3.262   1.729  0.5983 -0.4974 -0.5803
   69GLOH    C2 9138   4.376   3.438   1.846 -0.7347  1.0056 -0.2289
   69GLOH   H04 9139   4.269   3.457   1.862 -0.9833 -0.2433 -0.3667
   69GLOH    O2 9140   4.415   3.357   1.958  0.3525  0.0331  0.5609
   69GLOH   H05 9141   4.444   3.267   1.934  0.4344  0.3621 -0.5605
   69GLOH    C3 9142   4.445   3.579   1.843  0.4265  0.1517  0.1780
   69GLOH   H06 9143   4.553   3.570   1.844  0.2515 -2.2507  0.2138
   69GLOH   H07 9144   4.426   3.629   1.938  0.2212  1.9065 -0.7824
   69GLOH    O3 9145   4.399   3.653   1.728  0.3478 -0.0042 -0.4580
   69GLOH   H01 9146   4.394   3.593   1.652 -0.0601  0.5523 -0.8742
   70GLOH   H03 9147   5.111   3.358   0.001 -2.2113 -0.7617 -0.0137
   70GLOH    O1 9148   5.086   3.398   0.086 -0.2657  0.1996  0.1354
   70GLOH    C1 9149   4.950   3.387   0.129 -0.3566  0.1140 -0.1390
   70GLOH   H02 9150   4.953   3.412   0.236 -0.4372  3.8125 -0.9195
   70GLOH   H08 9151   4.909   3.286   0.134  0.0345 -0.0395 -0.0327
   70GLOH    C2 9152   4.849   3.480   0.057 -0.1994 -0.4371  0.0284
   70GLOH   H04 9153   4.837   3.441  -0.045 -0.6790 -2.7362  0.9451
   70GLOH    O2 9154   4.725   3.465   0.123  0.6691  0.4020  0.3853
   70GLOH   H05 9155   4.676   3.396   0.076  1.6385  1.6338 -2.5277
   70GLOH    C3 9156   4.899   3.623   0.035  0.0285  0.3889 -0.3313
   70GLOH   H06 9157   4.986   3.609  -0.030 -0.5854 -0.6449 -0.9324
   70GLOH   H07 9158   4.934   3.667   0.128 -0.7503  1.0331 -0.3457
   70GLOH    O3 9159   4.799   3.712  -0.025 -0.6088 -0.0386 -0.6528
   70GLOH   H01 9160   4.733   3.729   0.044 -0.0445  2.4528 -0.6864
   71GLOH   H03 9161   8.491   3.658   1.295 -2.8830 -0.7931 -1.1483
   71GLOH    O1 9162   8.472   3.706   1.378  0.2003 -0.7702 -0.3968
   71GLOH    C1 9163   8.469   3.606   1.484  0.2752  0.0756  1.1726
   71GLOH   H02 9164   8.375   3.551   1.478 -0.1589  0.9884 -1.0995
   71GLOH   H08 9165   8.466   3.644   1.586 -2.0840 -1.2217  1.6233
   71GLOH    C2 9166   8.589   3.515   1.472  0.0895  0.0310 -0.4667
   71GLOH   H04 9167   8.686   3.567   1.476  0.1267  0.1654 -2.7141
   71GLOH    O2 9168   8.581   3.420   1.583 -0.8756 -0.2256 -0.2493
   71GLOH   H05 9169   8.636   3.340   1.570 -0.0503  0.6650 -2.5094
   71GLOH    C3 9170   8.578   3.440   1.338 -0.2667  0.0258 -0.0720
   71GLOH   H06 9171   8.503   3.361   1.338 -0.9015  0.6255  0.3926
   71GLOH   H07 9172   8.675   3.394   1.320  0.0135  1.2721 -1.8450
   71GLOH    O3 9173   8.557   3.520   1.220 -0.0215  0.1282 -0.1385
   71GLOH   H01 9174   8.633   3.505   1.161 -0.9824  1.3294 -1.7555
   72GLOH   H03 9175   8.132   1.843   0.514  0.4355 -1.7981 -1.7078
   72GLOH    O1 9176   8.069   1.785   0.561  0.2238 -0.3017 -0.0826
   72GLOH    C1 9177   8.116   1.765   0.691 -0.5439  0.1673 -0.5633
   72GLOH   H02 9178   8.211   1.813   0.715  0.4414 -1.5884 -0.8788
   72GLOH   H08 9179   8.147   1.661   0.700  3.2005  1.2866  0.5216
   72GLOH    C2 9180   8.035   1.793   0.816  0.3458 -0.4989 -0.4313
   72GLOH   H04 9181   8.087   1.754   0.905  1.4295 -0.6165 -1.0998
   72GLOH    O2 9182   8.032   1.936   0.837  0.2205  0.0658 -0.3768
   72GLOH   H05 9183   8.000   1.987   0.762  3.6863  2.0075 -0.6472
   72GLOH    C3 9184   7.894   1.736   0.814  0.5125 -0.1795 -0.2620
   72GLOH   H06 9185   7.839   1.769   0.903  0.6735 -1.5760  0.3783
   72GLOH   H07 9186   7.899   1.627   0.811  0.6754 -0.1331 -1.6774
   72GLOH    O3 9187   7.808   1.780   0.703  0.3426  0.2947 -0.2906
   72GLOH   H01 9188   7.783   1.709   0.642  1.9206  0.4274 -1.1227
   73GLOH   H03 9189   2.650   4.847   0.715 -1.9294 -0.3061  2.2260
   73GLOH    O1 9190   2.580   4.837   0.648  0.2388 -0.4031 -0.1113
   73GLOH    C1 9191   2.627   4.928   0.545 -0.6888 -1.1740  0.3931
   73GLOH   H02 9192   2.732   4.950   0.564 -1.2205  1.5367  0.3583
   73GLOH   H08 9193   2.586   5.026   0.566  0.4058 -0.2969 -1.4700
   73GLOH    C2 9194   2.591   4.872   0.406  0.2188 -0.2063 -0.0367
   73GLOH   H04 9195   2.481   4.864   0.398  0.2205 -0.4115  0.1352
   73GLOH    O2 9196   2.617   4.964   0.297  0.5885  0.5419  0.7173
   73GLOH   H05 9197   2.562   4.940   0.222  1.1799  0.2223  0.3813
   73GLOH    C3 9198   2.644   4.725   0.387 -0.3187  0.0163 -0.4991
   73GLOH   H06 9199   2.620   4.688   0.288  0.7311 -0.0600 -0.7389
   73GLOH   H07 9200   2.593   4.663   0.460  1.9817  0.3600  1.5001
   73GLOH    O3 9201   2.789   4.700   0.399  0.6910 -0.2205 -0.8837
   73GLOH   H01 9202   2.830   4.718   0.313 -1.3755  1.4252 -1.5584
   74GLOH   H03 9203   8.767   4.550   1.436 -0.4343 -1.3730 -2.5985
   74GLOH    O1 9204   8.818   4.473   1.466 -0.2838 -0.4296 -0.2774
   74GLOH    C1 9205   8.865   4.407   1.350 -0.7596  0.1302 -0.3006
   74GLOH   H02 9206   8.915   4.312   1.371  0.3194  0.6910 -0.2693
   74GLOH   H08 9207   8.934   4.477   1.303 -1.3159  0.3548 -0.7918
   74GLOH    C2 9208   8.750   4.379   1.250  0.4176  0.1780  0.0988
   74GLOH   H04 9209   8.682   4.311   1.304 -2.0381 -0.3440 -3.4948
   74GLOH    O2 9210   8.671   4.495   1.216  0.3068 -0.2474  0.7722
   74GLOH   H05 9211   8.718   4.558   1.159  0.5344  0.1869  1.4376
   74GLOH    C3 9212   8.793   4.307   1.124  0.3246  0.7554 -0.4595
   74GLOH   H06 9213   8.873   4.358   1.068  2.2659  0.3935  1.9031
   74GLOH   H07 9214   8.710   4.302   1.054  0.9943  0.3682 -1.2370
   74GLOH    O3 9215   8.848   4.177   1.153 -0.2753  0.4292 -0.1307
   74GLOH   H01 9216   8.782   4.131   1.208 -1.6016 -0.5883 -2.4861
   75GLOH   H03 9217   9.708   3.338   2.051  0.2906 -0.8198  0.9739
   75GLOH    O1 9218   9.643   3.387   2.105 -0.0711  0.0899 -0.2813
   75GLOH    C1 9219   9.561   3.463   2.016 -0.1581  0.6113  0.5839
   75GLOH   H02 9220   9.607   3.559   1.993  3.1531 -1.1514 -0.4096
   75GLOH   H08 9221   9.464   3.474   2.066  0.8664  0.9619  2.5230
   75GLOH    C2 9222   9.528   3.386   1.889  0.6687  0.4891  0.7270
   75GLOH   H04 9223   9.477   3.290   1.903 -1.3726  1.3991 -0.1877
   75GLOH    O2 9224   9.442   3.463   1.810 -0.3173  0.0456 -0.0718
   75GLOH   H05 9225   9.469   3.556   1.816  1.2749 -0.4740  1.1327
   75GLOH    C3 9226   9.661   3.360   1.814  0.4760  0.4863 -0.2955
   75GLOH   H06 9227   9.701   3.454   1.778 -0.1966  1.3737  1.2607
   75GLOH   H07 9228   9.635   3.295   1.730  1.4006 -1.1160  0.6266
   75GLOH    O3 9229   9.750   3.295   1.904  0.1252  0.2500  0.4567
   75GLOH   H01 9230   9.760   3.201   1.878  0.7161  0.0415  1.4085
   76GLOH   H03 9231   1.073  10.056   0.298 -2.8102  0.1124 -1.2588
   76GLOH    O1 9232   1.086   9.960   0.311 -0.4114  0.6068  0.3947
   76GLOH    C1 9233   1.102   9.939   0.455 -0.0392 -0.1719  0.2280
   76GLOH   H02 9234   1.006   9.921   0.502 -1.0614  2.1538 -0.9351
   76GLOH   H08 9235   1.136  10.030   0.503  2.2688 -0.7650 -0.1766
   76GLOH    C2 9236   1.195   9.832   0.500 -0.5009 -0.1154  0.2068
   76GLOH   H04 9237   1.291   9.834   0.445 -0.3100 -1.2974  0.4836
   76GLOH    O2 9238   1.227   9.868   0.639  0.8479  0.0823 -0.4248
   76GLOH   H05 9239   1.147   9.919   0.660  1.5637  1.8360 -1.8343
   76GLOH    C3 9240   1.136   9.691   0.490 -0.1259  0.6280 -0.5562
   76GLOH   H06 9241   1.213   9.617   0.511 -0.1021  1.0405  0.8172
   76GLOH   H07 9242   1.130   9.663   0.385  2.7892 -3.1000  0.1462
   76GLOH    O3 9243   1.015   9.664   0.560  0.2702  0.2551  0.3410
   76GLOH   H01 9244   0.991   9.570   0.545  0.9183  0.7276 -4.4510
   77GLOH   H03 9245   2.030   1.531   1.477  0.0889  2.5471 -1.0788
   77GLOH    O1 9246   2.038   1.497   1.386  0.7792 -0.5281  0.0988
   77GLOH    C1 9247   1.936   1.548   1.297  0.3317  0.4479 -0.1478
   77GLOH   H02 9248   1.976   1.628   1.235  1.0075 -0.7213 -1.2365
   77GLOH   H08 9249   1.846   1.585   1.347 -1.4055 -1.6606 -1.6303
   77GLOH    C2 9250   1.879   1.438   1.204  0.0988  0.4495 -0.2228
   77GLOH   H04 9251   1.957   1.386   1.146 -1.7595 -2.0217 -0.5977
   77GLOH    O2 9252   1.804   1.338   1.267  0.2862 -0.2073 -0.2618
   77GLOH   H05 9253   1.861   1.294   1.332 -0.1009  2.7242  2.1518
   77GLOH    C3 9254   1.801   1.511   1.097 -0.2840  0.2874  0.5595
   77GLOH   H06 9255   1.730   1.577   1.147  1.4404  2.7343 -0.0879
   77GLOH   H07 9256   1.745   1.437   1.040  0.9433 -1.4401  1.5566
   77GLOH    O3 9257   1.886   1.584   1.012  0.2547 -0.7888  0.0446
   77GLOH   H01 9258   1.854   1.567   0.921  2.2037 -1.0839 -0.5934
   78GLOH   H03 9259   3.821   4.089   1.339  0.1970  0.3622 -0.1346
   78GLOH    O1 9260   3.732   4.056   1.360  0.2681  0.2568 -0.0017
   78GLOH    C1 9261   3.733   3.921   1.313 -0.4652 -0.0085  0.6939
   78GLOH   H02 9262   3.780   3.849   1.380  0.2372 -0.9150 -0.7382
   78GLOH   H08 9263   3.768   3.915   1.210  0.1129 -2.6458  1.0023
   78GLOH    C2 9264   3.595   3.863   1.288 -0.5422  0.4158  0.4841
   78GLOH   H04 9265   3.528   3.900   1.367  0.1227  0.8065  0.8759
   78GLOH    O2 9266   3.542   3.907   1.161  0.4068 -1.0257  0.0101
   78GLOH   H05 9267   3.531   4.004   1.160  0.8958 -0.9572  0.6711
   78GLOH    C3 9268   3.593   3.704   1.287 -0.6121  1.0631 -0.3648
   78GLOH   H06 9269   3.655   3.668   1.205 -0.0637  1.6308 -0.2085
   78GLOH   H07 9270   3.494   3.668   1.259 -0.9724 -0.0216  2.1477
   78GLOH    O3 9271   3.636   3.641   1.409 -0.3608 -0.7802  0.1134
   78GLOH   H01 9272   3.707   3.580   1.381  0.7603 -0.3722  1.9332
   79GLOH   H03 9273   4.489   1.275   2.643 -2.4810 -0.3620 -1.7747
   79GLOH    O1 9274   4.452   1.197   2.689 -0.6231  0.0407  0.4813
   79GLOH    C1 9275   4.364   1.122   2.602 -0.7152  0.3731 -0.8847
   79GLOH   H02 9276   4.261   1.149   2.627 -0.7015  0.1272 -0.5568
   79GLOH   H08 9277   4.385   1.017   2.623 -2.6358  0.0438 -0.4594
   79GLOH    C2 9278   4.393   1.160   2.459  0.4046 -0.1034  0.8569
   79GLOH   H04 9279   4.494   1.126   2.432  2.3824  4.3207  2.1048
   79GLOH    O2 9280   4.296   1.105   2.361 -0.3820 -0.1491  0.2192
   79GLOH   H05 9281   4.316   1.139   2.272  0.4407 -1.1390  0.0170
   79GLOH    C3 9282   4.393   1.309   2.431  0.6661  0.9413 -0.2229
   79GLOH   H06 9283   4.288   1.336   2.440  0.4436  1.1508 -3.0687
   79GLOH   H07 9284   4.422   1.340   2.331 -2.2790  1.3994 -0.9637
   79GLOH    O3 9285   4.482   1.380   2.524 -0.6503 -0.1519 -0.4322
   79GLOH   H01 9286   4.444   1.469   2.538  1.1164  0.5895 -0.1959
   80GLOH   H03 9287   2.431   3.386   1.647  0.4921 -0.3809  0.7764
   80GLOH    O1 9288   2.499   3.453   1.665  0.0571  0.2673  0.0334
   80GLOH    C1 9289   2.593   3.404   1.760  0.6116  0.0177 -0.1515
   80GLOH   H02 9290   2.547   3.345   1.840  3.0888  0.2803  1.5245
   80GLOH   H08 9291   2.649   3.487   1.803 -0.0524 -0.6834  2.1580
   80GLOH    C2 9292   2.697   3.302   1.707 -0.2718  0.7768  0.6306
   80GLOH   H04 9293   2.760   3.284   1.795 -0.5426  0.0456  0.6828
   80GLOH    O2 9294   2.658   3.177   1.648 -0.0936 -0.4532  0.2776
   80GLOH   H05 9295   2.725   3.107   1.652 -0.4301 -0.7165  1.4015
   80GLOH    C3 9296   2.794   3.372   1.613 -0.6202 -0.4315  0.3081
   80GLOH   H06 9297   2.728   3.418   1.540 -1.1097 -1.0726  0.3406
   80GLOH   H07 9298   2.857   3.292   1.574  0.2443  1.1520 -1.6260
   80GLOH    O3 9299   2.867   3.470   1.690  0.0084 -0.1617  0.8720
   80GLOH   H01 9300   2.959   3.441   1.696 -0.7616 -3.0906 -0.3864
   81GLOH   H03 9301   9.686   3.142   1.063  0.0486  1.1694  1.2845
   81GLOH    O1 9302   9.779   3.147   1.033 -0.1938 -0.0562  0.2748
   81GLOH    C1 9303   9.868   3.227   1.111  0.2244 -0.2146 -0.5307
   81GLOH   H02 9304   9.971   3.206   1.080  0.4088  1.8652 -1.3412
   81GLOH   H08 9305   9.874   3.179   1.209 -1.4352  1.2681  0.3212
   81GLOH    C2 9306   9.825   3.372   1.135  0.7636 -0.2347  0.5150
   81GLOH   H04 9307   9.726   3.369   1.181  0.3974 -3.3872 -0.3574
   81GLOH    O2 9308   9.916   3.424   1.233  0.5852 -0.1628 -0.0850
   81GLOH   H05 9309   9.898   3.518   1.253  0.7276 -0.3115  0.7470
   81GLOH    C3 9310   9.820   3.459   1.001  0.0138 -0.3307 -1.0083
   81GLOH   H06 9311   9.921   3.443   0.962 -0.0657  0.1424 -1.4072
   81GLOH   H07 9312   9.810   3.562   1.034  0.5496 -0.6933  0.3489
   81GLOH    O3 9313   9.718   3.405   0.913 -0.1170 -0.0374 -0.9108
   81GLOH   H01 9314   9.762   3.330   0.869 -0.9201 -1.5697  0.8053
   82GLOH   H03 9315   9.986   0.979   0.785 -2.2370  1.5261  0.9898
   82GLOH    O1 9316  10.049   1.009   0.853 -0.3717  0.2156 -0.1095
   82GLOH    C1 9317   9.987   1.038   0.986 -0.1220 -0.8822  0.1664
   82GLOH   H02 9318  10.006   1.141   1.016 -2.1313 -0.6006  0.5516
   82GLOH   H08 9319  10.029   0.981   1.069 -0.1434  0.3932  1.0567
   82GLOH    C2 9320   9.832   1.028   0.967 -0.2316  0.2373  0.5798
   82GLOH   H04 9321   9.809   0.934   0.914  1.7804  0.2098 -0.2723
   82GLOH    O2 9322   9.768   1.029   1.098  0.4216 -0.1617  0.2130
   82GLOH   H05 9323   9.777   1.115   1.143 -1.5511  0.4894 -0.5663
   82GLOH    C3 9324   9.768   1.133   0.872  0.3374 -0.7132 -0.0791
   82GLOH   H06 9325   9.663   1.109   0.854 -0.0569 -0.7213  2.1485
   82GLOH   H07 9326   9.802   1.121   0.769 -2.9863  0.3798 -1.3505
   82GLOH    O3 9327   9.787   1.271   0.915 -0.3817  0.4994 -0.0871
   82GLOH   H01 9328   9.701   1.290   0.956 -0.8093  0.0293 -0.7517
   83GLOH   H03 9329   2.937   8.706   0.271  1.2603  1.5885  2.4265
   83GLOH    O1 9330   2.869   8.774   0.254  0.1334 -0.0310  0.1594
   83GLOH    C1 9331   2.928   8.886   0.183 -0.0075 -0.2366  0.1355
   83GLOH   H02 9332   2.988   8.839   0.105 -2.8839 -1.6814 -1.2905
   83GLOH   H08 9333   2.996   8.930   0.255  0.2127  0.0572 -0.2490
   83GLOH    C2 9334   2.837   8.993   0.128 -0.2532 -0.6020  0.5046
   83GLOH   H04 9335   2.751   8.941   0.082  0.2723 -1.9428  1.0278
   83GLOH    O2 9336   2.789   9.086   0.225  0.2887 -0.1976  0.4223
   83GLOH   H05 9337   2.778   9.177   0.191 -2.0449 -0.3868  0.6050
   83GLOH    C3 9338   2.904   9.067   0.011 -0.2732 -0.6953 -0.3209
   83GLOH   H06 9339   3.001   9.107   0.041 -2.0007  1.3353  2.8576
   83GLOH   H07 9340   2.836   9.148  -0.014 -1.3535 -1.1615  1.0426
   83GLOH    O3 9341   2.928   8.977  -0.097  0.0902  0.2498 -0.5331
   83GLOH   H01 9342   2.943   9.041  -0.170 -1.5153  2.7963  1.2745
   84GLOH   H03 9343   8.772   3.149   0.585  1.8794  0.3640 -2.4574
   84GLOH    O1 9344   8.823   3.216   0.634 -0.2208  0.1440  0.1737
   84GLOH    C1 9345   8.963   3.192   0.613 -0.2148 -0.4137 -0.6067
   84GLOH   H02 9346   9.026   3.280   0.625 -3.0346  1.4744  0.8231
   84GLOH   H08 9347   8.970   3.172   0.506  3.5015  2.7317 -1.0320
   84GLOH    C2 9348   9.033   3.080   0.700  0.4878  0.1753 -0.1653
   84GLOH   H04 9349   9.016   3.099   0.807 -1.4446 -0.8277 -0.2689
   84GLOH    O2 9350   8.973   2.956   0.670 -0.0555 -0.3769 -0.0673
   84GLOH   H05 9351   9.033   2.902   0.616  0.3629 -1.2661  1.2639
   84GLOH    C3 9352   9.192   3.075   0.680  0.8086 -0.6558  0.3073
   84GLOH   H06 9353   9.219   3.008   0.599 -2.3991 -1.8004  0.0869
   84GLOH   H07 9354   9.238   3.034   0.770  2.0397  1.0503  0.4542
   84GLOH    O3 9355   9.245   3.205   0.654 -0.1323 -0.4502  0.3220
   84GLOH   H01 9356   9.342   3.207   0.652 -0.1402  2.7491  0.0391
   85GLOH   H03 9357   4.036   3.602   1.523  1.4360 -0.0220  0.1677
   85GLOH    O1 9358   4.043   3.652   1.440 -0.5621 -0.5523 -0.3528
   85GLOH    C1 9359   4.063   3.789   1.486 -0.1391  0.0265 -0.0451
   85GLOH   H02 9360   4.139   3.794   1.563  0.2143  1.8860 -0.4935
   85GLOH   H08 9361   3.974   3.836   1.528 -0.5015 -0.6859 -0.0127
   85GLOH    C2 9362   4.098   3.884   1.369  0.7502 -0.0388 -0.0316
   85GLOH   H04 9363   4.020   3.881   1.291  0.9613 -0.6050 -0.2250
   85GLOH    O2 9364   4.102   4.013   1.435  0.1030  0.2927 -0.5258
   85GLOH   H05 9365   4.070   4.080   1.373 -1.6202  0.0504  0.0881
   85GLOH    C3 9366   4.233   3.858   1.301 -0.0734  0.0194  0.4099
   85GLOH   H06 9367   4.232   3.751   1.279 -0.6693  0.0606  0.2383
   85GLOH   H07 9368   4.303   3.872   1.384  1.1387 -1.7219 -0.2846
   85GLOH    O3 9369   4.268   3.935   1.179 -0.2102 -0.0305  0.3429
   85GLOH   H01 9370   4.295   3.875   1.108  0.6724 -1.2124  1.6376
   86GLOH   H03 9371   2.556   6.801   1.026  0.7994 -1.8790 -0.4081
   86GLOH    O1 9372   2.558   6.825   0.931 -0.1810  0.5060  0.1440
   86GLOH    C1 9373   2.631   6.952   0.927 -0.7106  0.1382  0.7384
   86GLOH   H02 9374   2.653   6.975   0.823 -0.7110 -1.8867  0.2715
   86GLOH   H08 9375   2.722   6.939   0.985 -0.4772  0.5323  0.4607
   86GLOH    C2 9376   2.563   7.078   0.980 -0.5132 -0.1482  0.1952
   86GLOH   H04 9377   2.531   7.066   1.084 -2.9864  2.4437 -0.2116
   86GLOH    O2 9378   2.646   7.196   0.968  0.4841 -0.0835 -0.2169
   86GLOH   H05 9379   2.731   7.172   0.927  0.0093 -0.1060 -1.1980
   86GLOH    C3 9380   2.424   7.104   0.915  0.4869  0.2632  0.0449
   86GLOH   H06 9381   2.379   7.189   0.966  0.2426  0.1884 -0.0461
   86GLOH   H07 9382   2.353   7.025   0.938  1.9712 -0.5307  2.0070
   86GLOH    O3 9383   2.429   7.126   0.773  0.6156 -0.9923 -0.5183
   86GLOH   H01 9384   2.439   7.046   0.717 -3.1791 -0.5114 -2.0067
   87GLOH   H03 9385   9.748   0.273   1.849  0.4590  0.4540  0.5742
   87GLOH    O1 9386   9.757   0.215   1.927  0.1282  0.2895  0.4915
   87GLOH    C1 9387   9.871   0.132   1.900 -0.3451 -0.4784  0.0156
   87GLOH   H02 9388   9.961   0.188   1.876  0.1500 -0.5783  1.6055
   87GLOH   H08 9389   9.850   0.068   1.814 -1.0241  0.6129 -0.6333
   87GLOH    C2 9390   9.908   0.049   2.024 -0.1788 -0.5738  0.5967
   87GLOH   H04 9391   9.827  -0.025   2.038  0.4472 -1.1507  1.2773
   87GLOH    O2 9392  10.031  -0.017   1.994 -0.4092 -0.1291 -0.1584
   87GLOH   H05 9393  10.032  -0.038   1.899  0.1048 -0.6367 -0.0404
   87GLOH    C3 9394   9.937   0.142   2.143  0.2627 -0.7877  0.8378
   87GLOH   H06 9395  10.024   0.198   2.107 -1.0940 -0.8804 -2.7260
   87GLOH   H07 9396   9.963   0.086   2.233  0.4919 -0.8497  0.7349
   87GLOH    O3 9397   9.836   0.244   2.171 -0.4448 -0.6918 -0.3907
   87GLOH   H01 9398   9.783   0.242   2.089 -1.5473  3.5256  0.1358
   88GLOH   H03 9399   3.279   3.756   0.412  0.3386  0.7954  2.1063
   88GLOH    O1 9400   3.233   3.671   0.427  0.0264  0.4326 -0.5372
   88GLOH    C1 9401   3.118   3.663   0.337 -0.0132 -0.2697 -0.1177
   88GLOH   H02 9402   3.037   3.732   0.357 -0.4577 -0.9905  0.5711
   88GLOH   H08 9403   3.070   3.565   0.341 -2.7465  1.0330  0.1237
   88GLOH    C2 9404   3.169   3.678   0.193  0.0250  0.0698 -0.1312
   88GLOH   H04 9405   3.226   3.585   0.182 -2.2530 -1.5619  1.2775
   88GLOH    O2 9406   3.070   3.675   0.087 -0.1311  0.6690 -0.3587
   88GLOH   H05 9407   3.105   3.651  -0.001  3.8258  0.1927  1.2348
   88GLOH    C3 9408   3.267   3.800   0.177 -1.2005 -0.7113 -0.0376
   88GLOH   H06 9409   3.212   3.882   0.224 -0.2951 -1.4453  2.4101
   88GLOH   H07 9410   3.275   3.824   0.071 -1.3994 -1.6531 -0.2710
   88GLOH    O3 9411   3.397   3.796   0.241  0.5108 -0.3979  0.4452
   88GLOH   H01 9412   3.414   3.703   0.267  0.6961 -0.7046 -0.7131
   89GLOH   H03 9413   9.808   5.817   1.444  0.2143  0.1344 -0.2899
   89GLOH    O1 9414   9.898   5.853   1.438  0.0994  0.4251 -0.2833
   89GLOH    C1 9415   9.907   5.996   1.439 -0.0264  0.0338 -0.0124
   89GLOH   H02 9416   9.822   6.045   1.392  0.9362  0.4618 -1.3524
   89GLOH   H08 9417   9.989   6.033   1.377 -1.1442  0.8234 -1.0357
   89GLOH    C2 9418   9.914   6.041   1.585  0.6454 -0.6367  0.7674
   89GLOH   H04 9419   9.819   6.017   1.634 -1.0400  0.8126 -1.6665
   89GLOH    O2 9420  10.022   5.980   1.657 -0.3136  0.3149 -0.3843
   89GLOH   H05 9421  10.011   5.883   1.653 -0.7308  0.3593 -0.3371
   89GLOH    C3 9422   9.931   6.189   1.601 -0.1685 -0.7776  0.1740
   89GLOH   H06 9423  10.022   6.208   1.545 -0.0613 -1.9067 -0.0571
   89GLOH   H07 9424   9.953   6.209   1.706  1.5310 -0.5612 -0.1996
   89GLOH    O3 9425   9.816   6.262   1.559 -0.3212  0.4234 -0.0400
   89GLOH   H01 9426   9.834   6.352   1.592  1.9780  0.6065 -1.6224
   90GLOH   H03 9427   2.646   5.783   1.474  2.4369 -2.3892 -0.3854
   90GLOH    O1 9428   2.668   5.811   1.564 -0.4223  0.0528 -0.3694
   90GLOH    C1 9429   2.782   5.729   1.609 -0.3456 -0.4398  0.2135
   90GLOH   H02 9430   2.878   5.774   1.584 -0.4985 -0.6281 -0.7487
   90GLOH   H08 9431   2.776   5.628   1.568  1.1348 -0.1769 -0.6932
   90GLOH    C2 9432   2.780   5.713   1.759  0.2760 -0.6219  0.3038
   90GLOH   H04 9433   2.709   5.631   1.779 -2.6628  1.3046 -1.9569
   90GLOH    O2 9434   2.909   5.672   1.808 -0.3051  0.2657 -0.3015
   90GLOH   H05 9435   2.899   5.637   1.899 -0.9646 -1.9011 -1.1768
   90GLOH    C3 9436   2.725   5.840   1.830  0.3831  0.2605  0.0685
   90GLOH   H06 9437   2.793   5.923   1.809 -1.3368  1.2612 -1.7667
   90GLOH   H07 9438   2.738   5.827   1.937 -0.4520  1.3323  0.3146
   90GLOH    O3 9439   2.581   5.851   1.798  0.2727  0.3306 -0.6455
   90GLOH   H01 9440   2.574   5.818   1.707  0.5347  0.3534 -0.6735
   91GLOH   H03 9441   4.163   0.648   0.389 -0.5770  0.2110  0.5261
   91GLOH    O1 9442   4.181   0.567   0.440 -0.2955 -0.0961 -0.0526
   91GLOH    C1 9443   4.197   0.455   0.344 -0.4064 -0.0253  0.1827
   91GLOH   H02 9444   4.225   0.367   0.401 -0.9012 -0.2718  0.0497
   91GLOH   H08 9445   4.272   0.469   0.266 -1.8260 -0.8698 -1.3662
   91GLOH    C2 9446   4.067   0.432   0.267 -0.1712 -1.2909 -0.1547
   91GLOH   H04 9447   4.038   0.524   0.215  3.2260 -0.1993 -0.2020
   91GLOH    O2 9448   4.089   0.320   0.180  1.2681  0.0445  0.5180
   91GLOH   H05 9449   4.043   0.344   0.098  2.7583 -0.6395 -0.5405
   91GLOH    C3 9450   3.961   0.401   0.368  0.4274  0.0921  0.4660
   91GLOH   H06 9451   3.968   0.472   0.451  0.1235 -0.6025  1.0954
   91GLOH   H07 9452   3.987   0.305   0.413 -1.9710 -1.2753 -0.9535
   91GLOH    O3 9453   3.834   0.408   0.307 -0.3665  0.2674 -0.1412
   91GLOH   H01 9454   3.822   0.501   0.282 -0.4546  0.0187 -1.0467
   92GLOH   H03 9455   2.503   5.606   2.342  0.9525 -1.0591 -0.8727
   92GLOH    O1 9456   2.549   5.557   2.413  0.5313 -0.3485 -0.0995
   92GLOH    C1 9457   2.463   5.505   2.510 -0.4626 -0.7375 -0.7154
   92GLOH   H02 9458   2.380   5.449   2.468  0.8511 -3.4621  0.1797
   92GLOH   H08 9459   2.425   5.580   2.579 -0.2918 -0.3688 -1.0289
   92GLOH    C2 9460   2.525   5.397   2.599  0.3327  0.3242 -0.4576
   92GLOH   H04 9461   2.451   5.346   2.661  1.3647 -0.9397 -0.2517
   92GLOH    O2 9462   2.588   5.304   2.514  0.2409 -0.2590  0.2448
   92GLOH   H05 9463   2.561   5.329   2.424 -1.7136  1.1133  1.1865
   92GLOH    C3 9464   2.629   5.450   2.691 -0.7205  0.2086  0.1188
   92GLOH   H06 9465   2.721   5.474   2.638 -0.9781  1.2160  0.1106
   92GLOH   H07 9466   2.651   5.365   2.756  0.8521 -0.2492 -0.9918
   92GLOH    O3 9467   2.603   5.569   2.768 -0.3536 -0.2208 -0.5898
   92GLOH   H01 9468   2.521   5.550   2.816  2.1814 -3.0333  2.8652
   93GLOH   H03 9469   9.633   5.754   0.609  0.6482  0.4098  0.1640
   93GLOH    O1 9470   9.657   5.712   0.524 -0.0301  0.2208  0.0640
   93GLOH    C1 9471   9.783   5.648   0.534  0.6560  0.4650  0.8850
   93GLOH   H02 9472   9.805   5.608   0.633 -2.4303 -4.1183 -0.1806
   93GLOH   H08 9473   9.860   5.725   0.526 -0.2941  1.3926  0.6222
   93GLOH    C2 9474   9.815   5.537   0.430 -0.2876 -0.4192 -0.0515
   93GLOH   H04 9475   9.786   5.582   0.334  2.4296 -1.0977 -1.2549
   93GLOH    O2 9476   9.954   5.497   0.436 -0.1217  0.4577  0.1417
   93GLOH   H05 9477   9.980   5.458   0.522  1.2652  3.1358  1.0014
   93GLOH    C3 9478   9.721   5.413   0.445  0.0845 -0.2791  0.5066
   93GLOH   H06 9479   9.732   5.351   0.534  0.5681 -0.8962  0.0142
   93GLOH   H07 9480   9.731   5.352   0.355  1.2690 -1.1758  1.2267
   93GLOH    O3 9481   9.592   5.471   0.447  0.2108 -0.7327 -0.4847
   93GLOH   H01 9482   9.615   5.552   0.496  2.1919 -0.7561 -1.2954
   94GLOH   H03 9483   0.897   7.268   2.157  0.5051 -0.7401 -0.5541
   94GLOH    O1 9484   0.865   7.186   2.198 -0.1934 -0.0536  0.2929
   94GLOH    C1 9485   0.826   7.210   2.336 -0.1495 -0.9087 -0.6741
   94GLOH   H02 9486   0.769   7.303   2.342 -0.2435 -1.1448  3.0799
   94GLOH   H08 9487   0.907   7.227   2.407 -2.1022  0.5254  1.2728
   94GLOH    C2 9488   0.741   7.097   2.396  0.2264 -0.1042  0.3510
   94GLOH   H04 9489   0.710   7.116   2.499 -0.9719 -1.7337  0.2974
   94GLOH    O2 9490   0.622   7.085   2.319  0.4517 -0.3553 -0.5046
   94GLOH   H05 9491   0.649   7.039   2.238 -2.9837 -0.0762 -1.9030
   94GLOH    C3 9492   0.825   6.964   2.407  0.3610 -0.8557 -0.0194
   94GLOH   H06 9493   0.855   6.928   2.308  1.3609 -1.4499  0.4887
   94GLOH   H07 9494   0.748   6.903   2.455  0.8454 -0.6648  1.0120
   94GLOH    O3 9495   0.943   6.976   2.497  0.5034 -0.5045  0.3369
   94GLOH   H01 9496   0.992   6.895   2.475 -0.5043 -0.8003 -0.8092
   95GLOH   H03 9497   8.504   2.393   0.352  0.0144 -3.0411  0.8170
   95GLOH    O1 9498   8.550   2.446   0.420 -0.4596 -0.4978 -0.7610
   95GLOH    C1 9499   8.656   2.516   0.355  0.3110  0.3671  1.1219
   95GLOH   H02 9500   8.645   2.624   0.368 -0.3658  0.9720 -3.4695
   95GLOH   H08 9501   8.651   2.497   0.248 -1.1593  0.6429  1.1307
   95GLOH    C2 9502   8.791   2.455   0.398 -1.1583  0.1701  0.1758
   95GLOH   H04 9503   8.772   2.348   0.382  1.3869 -0.4137  0.8761
   95GLOH    O2 9504   8.902   2.498   0.317  0.2443 -0.4724  0.1540
   95GLOH   H05 9505   8.868   2.531   0.232  0.2430 -1.6974 -0.3323
   95GLOH    C3 9506   8.816   2.494   0.545 -0.1340  0.4496  0.0790
   95GLOH   H06 9507   8.814   2.603   0.549 -1.2128  0.4465 -0.1673
   95GLOH   H07 9508   8.916   2.466   0.577 -1.0581 -3.6765 -0.4260
   95GLOH    O3 9509   8.720   2.429   0.635  0.5061  0.4950 -0.2346
   95GLOH   H01 9510   8.638   2.445   0.584  0.5609  0.3171 -0.3787
   96GLOH   H03 9511   3.707   8.179   0.146 -0.2862  0.0726 -3.0525
   96GLOH    O1 9512   3.637   8.244   0.164  0.6097  0.1234  0.5699
   96GLOH    C1 9513   3.503   8.197   0.126 -0.2114 -0.4134  0.3520
   96GLOH   H02 9514   3.515   8.114   0.057  0.4244 -1.1642  1.3542
   96GLOH   H08 9515   3.444   8.275   0.078  2.1718  0.0005 -1.9897
   96GLOH    C2 9516   3.422   8.149   0.249 -0.2418 -0.0327  0.0736
   96GLOH   H04 9517   3.322   8.115   0.219 -0.8022  0.3585  1.4393
   96GLOH    O2 9518   3.478   8.025   0.298 -0.9187 -0.1517  0.5293
   96GLOH   H05 9519   3.569   7.997   0.277 -0.6017  0.2845  1.2925
   96GLOH    C3 9520   3.414   8.251   0.363 -0.4653 -0.2500  0.1777
   96GLOH   H06 9521   3.512   8.279   0.403 -0.2446 -1.3566  0.4338
   96GLOH   H07 9522   3.366   8.191   0.441  0.5527  0.9435  1.7596
   96GLOH    O3 9523   3.328   8.359   0.339 -0.1182  0.1436  0.1588
   96GLOH   H01 9524   3.239   8.321   0.346 -0.8006  1.6168 -0.3757
   97GLOH   H03 9525   3.977   3.658   0.404  0.8991  1.6128  1.5671
   97GLOH    O1 9526   3.957   3.601   0.481  0.0399 -0.2314  0.0346
   97GLOH    C1 9527   4.043   3.637   0.594  0.0605  0.0038 -0.5323
   97GLOH   H02 9528   4.004   3.603   0.690  0.9260 -0.9804 -0.5219
   97GLOH   H08 9529   4.044   3.745   0.606  3.5395  0.1531 -1.5840
   97GLOH    C2 9530   4.193   3.600   0.593 -0.3684  0.4657 -0.3907
   97GLOH   H04 9531   4.239   3.661   0.514  0.1143  0.4460 -0.1233
   97GLOH    O2 9532   4.258   3.666   0.707 -0.2979  0.5483 -0.2937
   97GLOH   H05 9533   4.355   3.676   0.707 -0.2243  0.1595  2.3983
   97GLOH    C3 9534   4.232   3.453   0.597  0.1117  0.2849 -0.5953
   97GLOH   H06 9535   4.207   3.413   0.695 -0.7056  0.5802 -0.6722
   97GLOH   H07 9536   4.336   3.443   0.567 -0.1766  2.3714 -2.4297
   97GLOH    O3 9537   4.154   3.383   0.499  0.1282 -0.2077 -0.1810
   97GLOH   H01 9538   4.180   3.290   0.490 -3.6682 -1.3814  0.1962
   98GLOH   H03 9539   9.770   4.415   0.282  0.8068 -1.9946  0.1434
   98GLOH    O1 9540   9.858   4.450   0.306  0.0180  0.5426 -0.5052
   98GLOH    C1 9541   9.847   4.513   0.431  0.4227 -0.5875 -0.4718
   98GLOH   H02 9542   9.946   4.509   0.477  0.7489 -0.3789 -1.1494
   98GLOH   H08 9543   9.781   4.460   0.499 -0.5750  1.3619  0.1390
   98GLOH    C2 9544   9.801   4.660   0.438  1.3253  0.1724 -0.4500
   98GLOH   H04 9545   9.798   4.700   0.540  0.2591  0.0801 -0.4351
   98GLOH    O2 9546   9.889   4.743   0.370  0.0230 -1.4439  0.2923
   98GLOH   H05 9547   9.886   4.721   0.275  1.6408  2.0574 -0.6674
   98GLOH    C3 9548   9.656   4.678   0.385 -0.2323  0.2426  0.5686
   98GLOH   H06 9549   9.663   4.684   0.276 -0.8231 -2.0066  0.3914
   98GLOH   H07 9550   9.635   4.779   0.421 -1.6437 -0.3933  1.5574
   98GLOH    O3 9551   9.565   4.575   0.428 -0.0643 -0.0110 -0.2750
   98GLOH   H01 9552   9.591   4.491   0.387  1.0880 -0.3865  1.2025
   99GLOH   H03 9553   8.209   2.163   1.537  1.0146 -1.0431  3.1164
   99GLOH    O1 9554   8.117   2.137   1.555 -0.0186  0.1472  0.0120
   99GLOH    C1 9555   8.086   2.045   1.446  0.2931 -1.0005 -0.0395
   99GLOH   H02 9556   8.019   1.966   1.481 -0.4594  0.3262  1.5594
   99GLOH   H08 9557   8.169   1.980   1.419 -0.9892 -2.3666 -0.7816
   99GLOH    C2 9558   8.033   2.122   1.323 -0.3575  0.2806  1.0380
   99GLOH   H04 9559   8.105   2.200   1.293 -0.3432  0.3979  1.3735
   99GLOH    O2 9560   8.007   2.046   1.209  0.0861  0.0059 -0.3366
   99GLOH   H05 9561   7.997   2.107   1.134  2.4280  1.0581  0.1501
   99GLOH    C3 9562   7.906   2.196   1.371 -0.0913  0.0024 -0.0277
   99GLOH   H06 9563   7.846   2.121   1.423  1.4479 -0.5868  0.9383
   99GLOH   H07 9564   7.851   2.227   1.282 -0.1721 -0.3158 -0.0906
   99GLOH    O3 9565   7.930   2.304   1.459 -0.2083  0.3270  0.4433
   99GLOH   H01 9566   7.999   2.269   1.518 -1.2997 -3.5021 -0.4526
  100GLOH   H03 9567   2.700   7.645   2.384 -2.9569  0.5201 -0.1980
  100GLOH    O1 9568   2.719   7.703   2.308 -0.2730 -0.1622 -0.0939
  100GLOH    C1 9569   2.838   7.784   2.340 -0.2509 -0.5772  0.3767
  100GLOH   H02 9570   2.871   7.759   2.441 -2.1059 -0.4764  1.0326
  100GLOH   H08 9571   2.823   7.890   2.323  3.7277 -0.2849 -1.9340
  100GLOH    C2 9572   2.957   7.747   2.240 -0.0775 -0.1189 -0.0570
  100GLOH   H04 9573   3.044   7.805   2.275  0.2765 -0.1622 -0.8645
  100GLOH    O2 9574   3.003   7.606   2.235  0.2890 -0.0656  0.7469
  100GLOH   H05 9575   2.949   7.559   2.169  0.4966  0.6158  0.0953
  100GLOH    C3 9576   2.923   7.806   2.098  0.0376  0.2272  0.1843
  100GLOH   H06 9577   2.822   7.771   2.075  0.2368  0.1111 -0.5088
  100GLOH   H07 9578   3.000   7.775   2.028 -0.4198 -2.2476  0.7258
  100GLOH    O3 9579   2.917   7.956   2.101  0.2647 -0.0954 -0.1774
  100GLOH   H01 9580   2.837   7.987   2.055  0.6496  0.0907 -0.7216
  101GLOH   H03 9581   2.492   6.379   1.304 -0.6626 -1.2913  0.8972
  101GLOH    O1 9582   2.412   6.363   1.251 -0.4037  0.4312 -0.0506
  101GLOH    C1 9583   2.465   6.321   1.123  0.1188 -0.7408 -0.2641
  101GLOH   H02 9584   2.435   6.218   1.100 -1.6771 -0.0937 -0.9524
  101GLOH   H08 9585   2.572   6.316   1.138 -0.0160  0.0768  1.0162
  101GLOH    C2 9586   2.425   6.406   0.999  0.1639  0.6131 -0.2890
  101GLOH   H04 9587   2.323   6.447   1.008 -0.5166 -0.8062 -1.4118
  101GLOH    O2 9588   2.503   6.526   0.984 -0.1784  0.1786  0.1885
  101GLOH   H05 9589   2.471   6.601   1.037  1.7179  0.2187  1.3501
  101GLOH    C3 9590   2.435   6.314   0.876  0.5584 -0.3332 -0.4232
  101GLOH   H06 9591   2.537   6.279   0.861  0.0215 -1.8795 -0.5719
  101GLOH   H07 9592   2.405   6.368   0.786  0.0928 -2.6101 -1.6641
  101GLOH    O3 9593   2.351   6.205   0.895  0.0323  0.5007  0.5628
  101GLOH   H01 9594   2.264   6.226   0.858 -0.4193 -1.4566  0.4703
  102GLOH   H03 9595   3.667   2.023   0.204  1.9154  0.7749 -1.1860
  102GLOH    O1 9596   3.691   1.929   0.188 -0.1868 -0.0106  0.0126
  102GLOH    C1 9597   3.666   1.858   0.308 -0.2686 -0.2792 -0.4312
  102GLOH   H02 9598   3.732   1.892   0.388  0.1955 -0.3828 -0.7687
  102GLOH   H08 9599   3.690   1.753   0.289 -2.0442 -1.2460  2.3444
  102GLOH    C2 9600   3.526   1.852   0.361 -0.0290  0.4250 -0.2875
  102GLOH   H04 9601   3.493   1.956   0.377 -1.4524 -0.2848  1.5800
  102GLOH    O2 9602   3.448   1.798   0.251  0.6347 -1.0468 -0.0767
  102GLOH   H05 9603   3.451   1.853   0.171 -0.6484 -0.0728  0.5115
  102GLOH    C3 9604   3.510   1.768   0.487 -0.4941 -0.4566 -0.2347
  102GLOH   H06 9605   3.542   1.666   0.465  0.5588  0.3091 -2.4948
  102GLOH   H07 9606   3.405   1.757   0.514 -0.2784 -2.3191 -0.1024
  102GLOH    O3 9607   3.578   1.819   0.601 -0.0071 -0.4208 -0.4861
  102GLOH   H01 9608   3.674   1.800   0.601 -0.2437 -1.6649 -1.5551
  103GLOH   H03 9609   3.213   1.927   2.603  1.1581 -0.2156 -0.7664
  103GLOH    O1 9610   3.255   2.014   2.591  0.3030  0.2454 -0.4012
  103GLOH    C1 9611   3.190   2.122   2.656 -0.5887  0.3153 -0.2454
  103GLOH   H02 9612   3.250   2.155   2.740 -0.4035 -1.8467  0.5268
  103GLOH   H08 9613   3.093   2.091   2.696  0.1453  0.0464  1.3722
  103GLOH    C2 9614   3.160   2.246   2.566  0.3168 -0.8713 -0.0475
  103GLOH   H04 9615   3.069   2.294   2.605 -0.1525 -2.6762  1.1267
  103GLOH    O2 9616   3.270   2.343   2.578 -0.5350 -0.0803  0.1683
  103GLOH   H05 9617   3.348   2.286   2.572 -0.6029 -0.0728 -0.8295
  103GLOH    C3 9618   3.127   2.202   2.420 -0.4634  0.6621  0.0214
  103GLOH   H06 9619   3.224   2.181   2.375 -0.4269  2.5345 -0.8272
  103GLOH   H07 9620   3.096   2.291   2.365  0.0221 -0.4604 -2.1138
  103GLOH    O3 9621   3.020   2.097   2.408 -0.2092 -0.4755  0.1139
  103GLOH   H01 9622   3.065   2.012   2.390  1.1291  0.0702  0.8112
  104GLOH   H03 9623   2.332   7.731   1.388 -1.6041 -0.2727  2.3134
  104GLOH    O1 9624   2.282   7.667   1.334  0.2229 -0.3081  0.6097
  104GLOH    C1 9625   2.371   7.574   1.285  0.1072  0.1158  0.6618
  104GLOH   H02 9626   2.389   7.593   1.180  2.0180  0.2398  0.9933
  104GLOH   H08 9627   2.319   7.478   1.287 -1.3492  0.7514 -3.3773
  104GLOH    C2 9628   2.514   7.576   1.337  0.4250  0.2791 -0.1511
  104GLOH   H04 9629   2.510   7.555   1.445  2.9165  1.4236  0.1925
  104GLOH    O2 9630   2.605   7.487   1.271 -0.1635 -0.0713 -0.3186
  104GLOH   H05 9631   2.580   7.490   1.177 -0.1479 -0.3427 -0.3314
  104GLOH    C3 9632   2.563   7.720   1.318 -0.1324  0.6019 -0.4564
  104GLOH   H06 9633   2.551   7.736   1.211 -1.7713  1.2809 -0.1787
  104GLOH   H07 9634   2.666   7.724   1.354  0.0011 -1.2335 -0.5833
  104GLOH    O3 9635   2.479   7.819   1.383 -0.7256  0.3152 -0.2619
  104GLOH   H01 9636   2.510   7.909   1.363  0.0615 -0.2748 -1.7407
  105GLOH   H03 9637   2.930   7.483   1.661 -1.1320  2.0878 -2.2121
  105GLOH    O1 9638   2.948   7.404   1.606  0.1024  0.9013 -0.1842
  105GLOH    C1 9639   2.870   7.441   1.489  0.1570  0.1244  0.4124
  105GLOH   H02 9640   2.887   7.542   1.451  2.3831 -0.1885  0.4969
  105GLOH   H08 9641   2.763   7.435   1.511 -0.4456  0.4986 -2.3366
  105GLOH    C2 9642   2.908   7.348   1.374  1.1100 -0.7144  1.0911
  105GLOH   H04 9643   2.883   7.244   1.399 -1.3353  0.2650  2.9041
  105GLOH    O2 9644   2.834   7.392   1.257 -0.0154  0.2133 -0.6233
  105GLOH   H05 9645   2.742   7.412   1.280  0.1661 -0.1532  0.4588
  105GLOH    C3 9646   3.058   7.358   1.341  0.4964  0.3237  0.6592
  105GLOH   H06 9647   3.103   7.310   1.428  1.4675  1.0756  0.5761
  105GLOH   H07 9648   3.081   7.464   1.352 -1.0292  0.6657  0.7215
  105GLOH    O3 9649   3.090   7.290   1.223 -0.3208 -0.0770 -0.0349
  105GLOH   H01 9650   3.004   7.258   1.188  0.2936 -2.0611  0.2102
  106GLOH   H03 9651   1.192   6.880   1.186 -3.5706  3.5370 -0.6206
  106GLOH    O1 9652   1.120   6.815   1.197 -0.4275 -0.0135  0.0445
  106GLOH    C1 9653   1.143   6.716   1.298 -0.2272 -0.3978  0.4065
  106GLOH   H02 9654   1.249   6.692   1.309  0.6168  2.0304 -1.8897
  106GLOH   H08 9655   1.099   6.621   1.268  1.4502 -0.8174 -0.7938
  106GLOH    C2 9656   1.079   6.751   1.433 -0.3624  0.2908 -0.0016
  106GLOH   H04 9657   0.969   6.753   1.420 -0.3181  1.5643 -0.2821
  106GLOH    O2 9658   1.106   6.639   1.517  0.2273 -0.1980 -0.1055
  106GLOH   H05 9659   1.128   6.668   1.607  0.5451 -0.1182 -0.2100
  106GLOH    C3 9660   1.125   6.892   1.479  0.0676  0.5124 -0.5732
  106GLOH   H06 9661   1.071   6.924   1.568 -0.8635  1.3891 -1.4429
  106GLOH   H07 9662   1.075   6.960   1.411 -0.0113  1.0235 -0.0139
  106GLOH    O3 9663   1.268   6.908   1.470  0.2035 -0.0488 -0.1271
  106GLOH   H01 9664   1.292   6.976   1.535  0.8012 -1.6689  1.3661
  107GLOH   H03 9665   3.065   1.705   1.249  0.0228 -0.2763  0.1647
  107GLOH    O1 9666   3.108   1.782   1.207 -0.5190  0.2805  0.6096
  107GLOH    C1 9667   3.202   1.845   1.301 -0.3741 -0.7595 -0.1928
  107GLOH   H02 9668   3.253   1.923   1.244 -0.3937 -1.2493 -0.8915
  107GLOH   H08 9669   3.267   1.770   1.346  1.4310  2.2967  2.5254
  107GLOH    C2 9670   3.121   1.921   1.412  0.2686  0.1093 -0.3785
  107GLOH   H04 9671   3.050   1.987   1.360  1.3526 -0.0712 -2.1256
  107GLOH    O2 9672   3.055   1.829   1.500 -0.9381  0.1017 -0.6388
  107GLOH   H05 9673   2.979   1.875   1.541 -0.1459  0.0349  0.9198
  107GLOH    C3 9674   3.217   2.011   1.481 -0.2127  0.2679 -0.5966
  107GLOH   H06 9675   3.307   1.950   1.494  0.3264  1.4060  1.3641
  107GLOH   H07 9676   3.172   2.046   1.574  0.9933 -0.1405  0.1506
  107GLOH    O3 9677   3.257   2.126   1.407  0.2626  0.7545 -0.0532
  107GLOH   H01 9678   3.268   2.199   1.472 -0.1367  0.6514  0.1332
  108GLOH   H03 9679   1.394   9.691   2.670 -0.7540  2.2842 -0.3096
  108GLOH    O1 9680   1.490   9.698   2.654 -0.5174 -0.5477 -0.3466
  108GLOH    C1 9681   1.512   9.816   2.574  0.0282 -0.3659  1.2765
  108GLOH   H02 9682   1.588   9.880   2.619 -1.8352  1.0855  2.4548
  108GLOH   H08 9683   1.417   9.868   2.579  0.7350  1.5291 -2.6886
  108GLOH    C2 9684   1.534   9.793   2.421 -0.3698  0.2618 -1.1767
  108GLOH   H04 9685   1.449   9.739   2.378 -0.0740 -0.0522 -1.3632
  108GLOH    O2 9686   1.548   9.914   2.352 -0.0633 -0.1746  0.2701
  108GLOH   H05 9687   1.615   9.926   2.283  0.0522  1.7757  0.6764
  108GLOH    C3 9688   1.662   9.710   2.394 -0.1373  0.5976  0.1720
  108GLOH   H06 9689   1.756   9.755   2.425  0.6528  0.9156 -2.6144
  108GLOH   H07 9690   1.676   9.710   2.286  0.5707 -3.4961  0.1887
  108GLOH    O3 9691   1.652   9.574   2.443  0.2499 -0.1200  0.1580
  108GLOH   H01 9692   1.612   9.575   2.532  0.3289 -1.0312  0.2078
  109GLOH   H03 9693   4.192   3.593   0.898  1.6717 -0.1082 -0.1808
  109GLOH    O1 9694   4.177   3.532   0.972 -0.0014  0.3902 -0.0909
  109GLOH    C1 9695   4.303   3.492   1.026  0.5142  0.1986 -0.5560
  109GLOH   H02 9696   4.354   3.568   1.085  2.0216 -0.5896 -0.8048
  109GLOH   H08 9697   4.375   3.466   0.948 -1.8081 -1.1373 -2.2985
  109GLOH    C2 9698   4.297   3.357   1.108  0.3658 -0.2554 -0.1890
  109GLOH   H04 9699   4.280   3.278   1.034 -1.9620 -0.0239  0.0576
  109GLOH    O2 9700   4.419   3.322   1.169 -0.0581  0.2049 -0.3873
  109GLOH   H05 9701   4.495   3.318   1.107  1.8987 -0.2968  1.9623
  109GLOH    C3 9702   4.185   3.361   1.214  0.0346  0.1367  0.6037
  109GLOH   H06 9703   4.204   3.441   1.286  0.6820  1.8338 -1.3748
  109GLOH   H07 9704   4.176   3.271   1.275  1.2594  0.1655  0.8453
  109GLOH    O3 9705   4.058   3.382   1.151 -0.5502  0.3797  0.3630
  109GLOH   H01 9706   4.076   3.423   1.065 -2.2606 -2.8740 -1.6662
  110GLOH   H03 9707   0.841   0.627  -0.051  3.5912 -0.1200 -0.5238
  110GLOH    O1 9708   0.831   0.684   0.027  0.0214 -0.9838 -0.2894
  110GLOH    C1 9709   0.720   0.647   0.113 -0.7346 -0.5798  0.4061
  110GLOH   H02 9710   0.747   0.634   0.218  0.7700  1.3747  0.2821
  110GLOH   H08 9711   0.687   0.549   0.078  1.3186 -1.2089  0.1881
  110GLOH    C2 9712   0.604   0.746   0.082  1.1183  0.1111  0.6051
  110GLOH   H04 9713   0.583   0.738  -0.025 -4.6593  0.2214  1.5734
  110GLOH    O2 9714   0.483   0.730   0.156  0.1734 -0.1758  0.0320
  110GLOH   H05 9715   0.425   0.801   0.126 -0.6314 -0.8384  0.0233
  110GLOH    C3 9716   0.648   0.898   0.090  0.0059 -0.0675  0.0426
  110GLOH   H06 9717   0.663   0.921   0.196 -1.0633  0.0953  0.1579
  110GLOH   H07 9718   0.567   0.956   0.047  0.5974  0.8531  0.1444
  110GLOH    O3 9719   0.768   0.928   0.013 -0.8983  0.7415  0.2736
  110GLOH   H01 9720   0.828   0.854   0.033 -0.9549  1.0842  1.7351
  111GLOH   H03 9721   8.256   2.825   1.722 -0.4773 -1.2225  1.2887
  111GLOH    O1 9722   8.220   2.804   1.634  0.0936  0.0247  0.7415
  111GLOH    C1 9723   8.151   2.669   1.642  0.4030  0.3588 -0.6336
  111GLOH   H02 9724   8.065   2.659   1.577 -1.0653  0.6189  1.2138
  111GLOH   H08 9725   8.119   2.639   1.742  0.1079 -1.2240 -1.1963
  111GLOH    C2 9726   8.244   2.559   1.605 -0.4549  0.5234  0.7849
  111GLOH   H04 9727   8.334   2.577   1.666 -0.0127  1.7238 -0.1843
  111GLOH    O2 9728   8.186   2.429   1.640 -0.6253  0.4342  0.0738
  111GLOH   H05 9729   8.254   2.370   1.602  1.4554  3.0202 -0.3397
  111GLOH    C3 9730   8.273   2.568   1.453  0.3825 -0.4084 -0.4062
  111GLOH   H06 9731   8.185   2.523   1.408  0.2436 -0.4113 -0.1351
  111GLOH   H07 9732   8.348   2.496   1.418  0.8094  0.6322 -1.6698
  111GLOH    O3 9733   8.308   2.701   1.405 -0.0291  0.7974  0.7777
  111GLOH   H01 9734   8.289   2.759   1.481  1.7423  2.7602 -0.2334
  112GLOH   H03 9735   3.469   4.653   0.419  0.2049 -0.4665 -2.0413
  112GLOH    O1 9736   3.503   4.563   0.411  0.0974 -0.7033 -0.1832
  112GLOH    C1 9737   3.639   4.556   0.367 -0.1046 -0.1481  0.9005
  112GLOH   H02 9738   3.649   4.545   0.259 -1.7030  1.3474  0.5809
  112GLOH   H08 9739   3.668   4.465   0.420 -2.4698  0.1316  2.7615
  112GLOH    C2 9740   3.739   4.667   0.416  0.2697 -0.4346 -0.0048
  112GLOH   H04 9741   3.838   4.636   0.380 -0.3498 -2.7337  0.1966
  112GLOH    O2 9742   3.710   4.792   0.358  0.2938 -0.2869 -0.0240
  112GLOH   H05 9743   3.617   4.811   0.379  0.1347 -1.0255 -0.0417
  112GLOH    C3 9744   3.733   4.664   0.569  0.1088 -0.5470 -0.4704
  112GLOH   H06 9745   3.629   4.682   0.594  0.2494  2.2414 -1.6824
  112GLOH   H07 9746   3.792   4.750   0.600  0.5236 -1.2467  0.7057
  112GLOH    O3 9747   3.788   4.556   0.634  0.4014 -0.4440 -0.3587
  112GLOH   H01 9748   3.810   4.490   0.566 -0.1449 -1.1018  0.0941
  113GLOH   H03 9749   3.976   1.837   1.047 -1.8697 -0.8360  1.2047
  113GLOH    O1 9750   3.907   1.907   1.043 -0.7473  0.2461  0.3514
  113GLOH    C1 9751   3.882   1.965   1.172  0.1054 -0.8100 -0.1303
  113GLOH   H02 9752   3.897   1.888   1.247  1.1712  0.1574  0.6718
  113GLOH   H08 9753   3.781   1.997   1.197  0.3137 -0.4877  0.3196
  113GLOH    C2 9754   3.980   2.080   1.202 -0.0969 -0.0947  0.4689
  113GLOH   H04 9755   3.965   2.098   1.309  1.1482 -1.5295  0.9035
  113GLOH    O2 9756   4.116   2.045   1.191 -0.1784  0.1014  0.4568
  113GLOH   H05 9757   4.124   1.955   1.226 -0.4432 -0.7703 -1.6571
  113GLOH    C3 9758   3.935   2.200   1.115 -0.0112 -0.3021 -0.4041
  113GLOH   H06 9759   3.918   2.170   1.011 -0.8557  0.5546 -0.5274
  113GLOH   H07 9760   4.017   2.272   1.122 -0.5040  0.2714 -0.4374
  113GLOH    O3 9761   3.811   2.258   1.165 -0.4127  0.0105 -0.5664
  113GLOH   H01 9762   3.777   2.318   1.096 -0.3424 -0.5000 -1.0407
  114GLOH   H03 9763   8.203   2.462   0.936 -2.5390 -0.3907 -1.1133
  114GLOH    O1 9764   8.244   2.540   0.895 -0.1622 -0.7362  0.4903
  114GLOH    C1 9765   8.379   2.561   0.920  0.0426  0.0481  0.2910
  114GLOH   H02 9766   8.440   2.472   0.932  2.2503  1.0482 -2.8608
  114GLOH   H08 9767   8.387   2.608   1.018  1.6450  0.4775 -0.0402
  114GLOH    C2 9768   8.448   2.659   0.821 -0.1127 -0.5055 -0.3633
  114GLOH   H04 9769   8.390   2.752   0.820 -1.0175 -1.0565 -0.0129
  114GLOH    O2 9770   8.579   2.680   0.876 -0.3730  0.3386  0.3185
  114GLOH   H05 9771   8.644   2.729   0.823 -1.8794  0.2594 -1.6448
  114GLOH    C3 9772   8.439   2.604   0.677 -0.0926 -0.4992 -1.1528
  114GLOH   H06 9773   8.488   2.507   0.670  3.1558  1.0076 -0.4455
  114GLOH   H07 9774   8.494   2.670   0.609 -1.4404  2.4144  0.4707
  114GLOH    O3 9775   8.301   2.588   0.640  0.0808 -0.2033 -0.1678
  114GLOH   H01 9776   8.251   2.584   0.724  2.1383 -0.7511  1.0420
  115GLOH   H03 9777   2.891   5.498   2.054  0.8670  0.7153  3.3984
  115GLOH    O1 9778   2.844   5.582   2.040  0.4860  0.0103  0.0742
  115GLOH    C1 9779   2.777   5.621   2.165  0.1283  0.1703  0.8345
  115GLOH   H02 9780   2.676   5.580   2.167  0.7598 -1.4397  0.3843
  115GLOH   H08 9781   2.773   5.729   2.175  0.1356  0.0201  2.4804
  115GLOH    C2 9782   2.851   5.579   2.292 -0.3627  0.6359 -0.3458
  115GLOH   H04 9783   2.949   5.629   2.280  0.5001 -0.8991  0.1905
  115GLOH    O2 9784   2.793   5.624   2.413 -0.1197 -0.4938  0.3497
  115GLOH   H05 9785   2.701   5.595   2.419  0.1659 -1.5365 -0.1952
  115GLOH    C3 9786   2.884   5.426   2.290 -0.5238  0.0400 -0.0022
  115GLOH   H06 9787   2.796   5.362   2.287  0.0591 -0.7655 -0.1348
  115GLOH   H07 9788   2.935   5.397   2.382 -0.1861 -0.3385 -0.3070
  115GLOH    O3 9789   2.952   5.381   2.171 -0.5444 -0.3433  0.4159
  115GLOH   H01 9790   2.925   5.290   2.150  0.4653 -0.4823 -0.3280
  116GLOH   H03 9791   3.561   3.172   2.088 -2.8018 -0.9905  0.0600
  116GLOH    O1 9792   3.571   3.112   2.164  0.1597 -0.2027  0.3578
  116GLOH    C1 9793   3.574   2.978   2.107 -0.1729 -0.5768 -0.6159
  116GLOH   H02 9794   3.648   2.986   2.027  0.3073  0.7187 -0.0600
  116GLOH   H08 9795   3.476   2.952   2.066 -0.6513  3.8961 -2.6087
  116GLOH    C2 9796   3.627   2.879   2.214 -0.5544  0.1969  0.5140
  116GLOH   H04 9797   3.646   2.792   2.150  0.6549  0.6297  0.2660
  116GLOH    O2 9798   3.757   2.913   2.276 -0.6358 -0.1076  0.0171
  116GLOH   H05 9799   3.782   3.005   2.256 -0.8952 -0.3016 -1.2746
  116GLOH    C3 9800   3.523   2.833   2.316  0.7184  0.1297  0.0038
  116GLOH   H06 9801   3.489   2.912   2.383  0.0043  0.3493 -0.6106
  116GLOH   H07 9802   3.563   2.757   2.383  0.5843  0.7230  0.7626
  116GLOH    O3 9803   3.404   2.769   2.264 -0.3150 -0.7672  0.1259
  116GLOH   H01 9804   3.436   2.681   2.237 -0.0893 -1.2603  1.9357
  117GLOH   H03 9805   1.427   6.708   2.301 -0.1398  1.3719  0.9745
  117GLOH    O1 9806   1.356   6.718   2.235  0.2288 -0.0551  0.3449
  117GLOH    C1 9807   1.328   6.587   2.188  0.0597  0.3881  0.1437
  117GLOH   H02 9808   1.282   6.594   2.089 -1.0473 -2.8892  0.3638
  117GLOH   H08 9809   1.257   6.549   2.261 -1.9141  1.1354 -1.3503
  117GLOH    C2 9810   1.454   6.503   2.184  0.1018  0.1130  0.6907
  117GLOH   H04 9811   1.511   6.521   2.092 -1.1433  0.0215 -0.1109
  117GLOH    O2 9812   1.541   6.521   2.290  0.1042  0.4545 -0.0674
  117GLOH   H05 9813   1.628   6.543   2.254 -0.2265 -1.0709 -1.8749
  117GLOH    C3 9814   1.407   6.354   2.189  0.2086 -0.2213 -0.0000
  117GLOH   H06 9815   1.328   6.347   2.263  0.0282  0.9419 -0.0673
  117GLOH   H07 9816   1.489   6.288   2.217  0.0214 -1.0744 -1.4207
  117GLOH    O3 9817   1.348   6.323   2.060 -0.3456 -0.2321 -0.1054
  117GLOH   H01 9818   1.263   6.365   2.042 -0.4676  0.6669  2.3235
  118GLOH   H03 9819   3.849   0.665   1.284 -0.2019  1.5126  0.2838
  118GLOH    O1 9820   3.874   0.660   1.378  0.6242 -0.1444 -0.0129
  118GLOH    C1 9821   3.916   0.789   1.422  0.5280  0.3326  0.4898
  118GLOH   H02 9822   3.897   0.805   1.528  0.0907 -2.0964  0.7899
  118GLOH   H08 9823   3.854   0.866   1.375 -2.6677 -3.2364 -1.3300
  118GLOH    C2 9824   4.068   0.814   1.401  0.4766  0.5560 -0.6324
  118GLOH   H04 9825   4.085   0.741   1.320 -0.9707 -0.2366 -0.2377
  118GLOH    O2 9826   4.092   0.946   1.364 -0.2530 -0.7772 -0.0459
  118GLOH   H05 9827   4.055   1.008   1.429 -1.6207 -0.3347 -1.2486
  118GLOH    C3 9828   4.150   0.775   1.524  0.0781 -0.0944  0.5643
  118GLOH   H06 9829   4.257   0.777   1.503 -0.2350 -1.1049 -1.2053
  118GLOH   H07 9830   4.122   0.671   1.543 -0.2215 -0.5389 -2.1929
  118GLOH    O3 9831   4.122   0.850   1.644 -0.2707 -0.0518 -0.4741
  118GLOH   H01 9832   4.086   0.936   1.614 -1.4233 -0.6853 -0.9347
  119GLOH   H03 9833   3.676   8.373   1.533  3.2286  2.0369 -0.9104
  119GLOH    O1 9834   3.631   8.446   1.579  0.3479 -0.0597 -0.3276
  119GLOH    C1 9835   3.619   8.409   1.720 -0.4671 -1.1653  0.2594
  119GLOH   H02 9836   3.709   8.355   1.750  0.9977  0.0269 -1.8578
  119GLOH   H08 9837   3.540   8.334   1.733 -0.2834 -1.5530 -0.7847
  119GLOH    C2 9838   3.582   8.520   1.816 -0.2710 -0.4862  0.2186
  119GLOH   H04 9839   3.482   8.560   1.797  0.2685  0.8449  0.1026
  119GLOH    O2 9840   3.584   8.472   1.951 -0.1515 -0.1559 -0.1871
  119GLOH   H05 9841   3.669   8.494   1.993 -1.3420 -0.6874  2.6221
  119GLOH    C3 9842   3.674   8.640   1.790  0.3977  0.0090 -0.3972
  119GLOH   H06 9843   3.666   8.678   1.689  1.3886  1.4022  0.0372
  119GLOH   H07 9844   3.777   8.604   1.800 -0.3215 -2.5279 -1.5552
  119GLOH    O3 9845   3.644   8.747   1.882 -0.4503 -0.5289  0.3179
  119GLOH   H01 9846   3.553   8.781   1.882 -0.6731 -1.1030  1.1422
  120GLOH   H03 9847   1.871   0.797   0.218  0.2408  1.0169  0.5814
  120GLOH    O1 9848   1.950   0.846   0.189  0.1178  0.8489 -0.0473
  120GLOH    C1 9849   1.931   0.914   0.062 -0.2410 -0.9045  0.3283
  120GLOH   H02 9850   1.865   0.859  -0.005  1.5008 -2.0191 -0.5212
  120GLOH   H08 9851   2.027   0.922   0.010 -0.2713  1.4889  0.6000
  120GLOH    C2 9852   1.873   1.056   0.078  0.0319 -0.3618 -0.2422
  120GLOH   H04 9853   1.852   1.107  -0.017  2.1758 -0.0264 -0.5639
  120GLOH    O2 9854   1.743   1.038   0.140 -0.6613 -0.5989 -0.4315
  120GLOH   H05 9855   1.747   0.978   0.217  1.3996  0.2765  0.1886
  120GLOH    C3 9856   1.966   1.145   0.163 -0.0729 -0.4791  0.4615
  120GLOH   H06 9857   1.980   1.095   0.259 -1.7777 -1.9506 -0.0299
  120GLOH   H07 9858   1.913   1.238   0.183 -0.7449 -0.5260 -1.0254
  120GLOH    O3 9859   2.084   1.155   0.087  0.2855 -0.4095 -0.0019
  120GLOH   H01 9860   2.150   1.098   0.131  1.3624  0.4525 -0.4840
  121ACOH    H4 9861   4.059   0.044   0.634 -0.3247  0.8667 -0.0997
  121ACOH    O2 9862   4.143   0.092   0.636 -0.2774  0.7662  0.3375
  121ACOH    C2 9863   4.139   0.174   0.747  0.1900  0.6656  0.7309
  121ACOH    O1 9864   4.048   0.182   0.826 -0.1109 -0.0624 -0.1241
  121ACOH    C1 9865   4.269   0.242   0.765 -0.3676  0.1728 -0.1010
  121ACOH    H1 9866   4.322   0.246   0.670  2.7850 -0.6578  1.5819
  121ACOH    H2 9867   4.327   0.198   0.845 -1.4643 -0.0431  0.5919
  121ACOH    H3 9868   4.259   0.348   0.787  0.4707  0.3547 -0.5745
  122ACOH    H4 9869   2.898   6.883   2.482 -0.5221  0.3245 -1.6386
  122ACOH    O2 9870   2.974   6.925   2.438  0.0059  0.3967 -0.6797
  122ACOH    C2 9871   3.068   6.929   2.535 -1.0367  0.6611 -0.3063
  122ACOH    O1 9872   3.051   6.959   2.650  0.3236 -0.2880  0.0525
  122ACOH    C1 9873   3.203   6.933   2.479  0.3780  0.7444 -0.4856
  122ACOH    H1 9874   3.273   6.895   2.553 -2.1859  0.5250  1.9231
  122ACOH    H2 9875   3.234   7.033   2.448  1.4708  0.8750  0.9633
  122ACOH    H3 9876   3.205   6.866   2.393  0.3829  1.4663 -1.0590
  123ACOH    H4 9877   3.648   9.423   0.183 -3.3499 -1.3886  0.9848
  123ACOH    O2 9878   3.606   9.510   0.172  0.1565  0.2087 -0.3153
  123ACOH    C2 9879   3.687   9.606   0.213 -0.2209  0.3393  0.7929
  123ACOH    O1 9880   3.801   9.607   0.259 -0.0286  0.7374  0.2612
  123ACOH    C1 9881   3.619   9.725   0.157  0.4943 -0.3875  0.2436
  123ACOH    H1 9882   3.528   9.743   0.214  1.4417 -0.4625  1.8138
  123ACOH    H2 9883   3.589   9.707   0.054 -0.3035  2.1890  0.0004
  123ACOH    H3 9884   3.677   9.818   0.157 -1.0263  0.5756  0.8424
  124ACOH    H4 9885   8.065   2.150   0.130  0.2829 -0.4550 -2.2201
  124ACOH    O2 9886   8.004   2.075   0.142  0.1647  0.0130  0.3496
  124ACOH    C2 9887   8.040   1.969   0.075  0.1538 -0.3323  0.1409
  124ACOH    O1 9888   8.141   1.961   0.012  0.1886 -0.7612 -0.2708
  124ACOH    C1 9889   7.942   1.860   0.094  0.4076  0.4633  0.3454
  124ACOH    H1 9890   7.921   1.856   0.201 -1.7197 -2.1502 -0.1328
  124ACOH    H2 9891   7.975   1.760   0.066 -4.1395 -0.5642 -1.7007
  124ACOH    H3 9892   7.847   1.883   0.045  0.6814 -1.9318 -1.3733
  125ACOH    H4 9893   8.595   5.282   0.496  0.1504  3.5046  1.3497
  125ACOH    O2 9894   8.500   5.278   0.475  0.6092  0.4443 -0.5362
  125ACOH    C2 9895   8.473   5.166   0.407  0.1125  0.6553 -0.1984
  125ACOH    O1 9896   8.532   5.067   0.434  0.2010 -0.1672 -0.2489
  125ACOH    C1 9897   8.349   5.163   0.332  0.1894  0.0721  0.5625
  125ACOH    H1 9898   8.276   5.218   0.390  1.7658  2.4449  0.3838
  125ACOH    H2 9899   8.308   5.062   0.332 -1.7243  0.8235  1.8175
  125ACOH    H3 9900   8.355   5.209   0.234  0.5408 -0.1864  0.4587
  126ACOH    H4 9901   1.322   5.316   2.016 -1.2048 -1.7190 -1.3600
  126ACOH    O2 9902   1.299   5.251   2.084 -0.0093 -0.2425  0.5040
  126ACOH    C2 9903   1.394   5.256   2.182  0.0907 -0.0099 -0.5702
  126ACOH    O1 9904   1.487   5.332   2.173  0.0850  0.0308  0.0816
  126ACOH    C1 9905   1.360   5.191   2.307 -0.0741  0.6275  0.3026
  126ACOH    H1 9906   1.255   5.206   2.331 -0.6966  0.8669 -2.4784
  126ACOH    H2 9907   1.426   5.211   2.391 -0.7665  2.0119  0.5209
  126ACOH    H3 9908   1.360   5.082   2.293  1.2428  0.6235  0.2832
  127ACOH    H4 9909   8.205   2.956   1.600  4.0905 -0.4728 -2.5793
  127ACOH    O2 9910   8.170   3.044   1.580  0.9142 -0.9176  0.4508
  127ACOH    C2 9911   8.278   3.122   1.590 -0.4333  0.5926  0.8649
  127ACOH    O1 9912   8.374   3.098   1.662  0.6185 -0.5270  0.6343
  127ACOH    C1 9913   8.265   3.261   1.534 -0.0342  0.5677  0.2176
  127ACOH    H1 9914   8.212   3.331   1.599 -1.0277 -2.4347  2.7539
  127ACOH    H2 9915   8.207   3.248   1.443  0.5568  1.2778 -0.2685
  127ACOH    H3 9916   8.364   3.296   1.504  0.2829  2.7202  3.5380
  128ACOH    H4 9917   3.124   9.754   0.121 -2.2041  2.8035 -0.5252
  128ACOH    O2 9918   3.056   9.693   0.154  0.5352  0.0136  0.2370
  128ACOH    C2 9919   3.047   9.596   0.062  0.1730 -0.7330  0.0600
  128ACOH    O1 9920   3.114   9.590  -0.038 -0.1124 -0.0076 -0.1060
  128ACOH    C1 9921   2.938   9.493   0.098  0.2265 -0.1662  0.0600
  128ACOH    H1 9922   2.843   9.542   0.118  0.3002  0.3092 -0.6926
  128ACOH    H2 9923   2.970   9.439   0.186 -0.2756  2.4741  1.9161
  128ACOH    H3 9924   2.921   9.424   0.015  1.0812  1.7037 -1.7479
  129ACOH    H4 9925   3.701   9.019   2.159  0.3821  0.8913  2.2699
  129ACOH    O2 9926   3.786   9.061   2.136  0.1176  0.3646  0.2007
  129ACOH    C2 9927   3.779   9.122   2.018 -0.4063 -0.6040  0.6043
  129ACOH    O1 9928   3.690   9.118   1.935  0.3741 -0.0738 -0.2078
  129ACOH    C1 9929   3.891   9.215   2.016  0.9816 -0.1094  0.7858
  129ACOH    H1 9930   3.877   9.308   2.071  0.8254 -0.1566  0.8260
  129ACOH    H2 9931   3.916   9.247   1.914 -2.0696  3.0395  0.9358
  129ACOH    H3 9932   3.983   9.169   2.052  2.2050  2.9737  1.8046
  130ACOH    H4 9933   9.535   3.315   1.439  1.2016 -0.1275 -1.0965
  130ACOH    O2 9934   9.507   3.390   1.384  0.1277  0.4659  0.2490
  130ACOH    C2 9935   9.573   3.500   1.433  0.0734 -0.3906  0.0509
  130ACOH    O1 9936   9.635   3.502   1.538  0.4448  0.8474 -0.0404
  130ACOH    C1 9937   9.563   3.612   1.336 -0.3219 -0.0543 -0.2736
  130ACOH    H1 9938   9.461   3.641   1.311 -0.7594  0.0105  1.5220
  130ACOH    H2 9939   9.619   3.589   1.245  0.8009  0.2493  0.3258
  130ACOH    H3 9940   9.597   3.709   1.373 -0.5095  0.6463 -1.9329
  131ACOH    H4 9941   4.954   8.807   1.497 -0.1643 -0.2312  0.1952
  131ACOH    O2 9942   4.911   8.877   1.446 -0.2903 -0.6161 -0.2289
  131ACOH    C2 9943   4.876   8.966   1.532 -0.1332 -0.3881 -0.6570
  131ACOH    O1 9944   4.866   8.954   1.650  0.4299 -0.3931  0.1251
  131ACOH    C1 9945   4.805   9.073   1.454 -0.7991  0.3616  0.2836
  131ACOH    H1 9946   4.778   9.157   1.519 -0.5648  0.1744  0.6258
  131ACOH    H2 9947   4.709   9.030   1.425 -1.5226  0.6261  2.1903
  131ACOH    H3 9948   4.860   9.106   1.367 -1.1329 -0.1321 -0.1176
  132ACOH    H4 9949   3.967   0.411   1.591 -0.1498 -1.0158  0.7932
  132ACOH    O2 9950   4.036   0.421   1.658  0.2067  0.1220  0.2768
  132ACOH    C2 9951   4.075   0.295   1.687 -0.3011 -0.4696 -0.4191
  132ACOH    O1 9952   4.009   0.196   1.661 -0.4001  0.2121  0.4456
  132ACOH    C1 9953   4.184   0.305   1.788 -0.1982  0.0996 -0.4336
  132ACOH    H1 9954   4.191   0.219   1.855  0.3730 -0.0068 -0.6242
  132ACOH    H2 9955   4.170   0.390   1.855  0.9046 -0.1789  0.1729
  132ACOH    H3 9956   4.283   0.318   1.745  0.2952  0.9221  0.9086
  133ACOH    H4 9957   8.862   3.555   1.096 -3.1822  2.6983  1.1174
  133ACOH    O2 9958   8.790   3.490   1.089 -0.0835 -0.8091  0.5708
  133ACOH    C2 9959   8.830   3.400   0.994  0.3908 -0.1172  0.0632
  133ACOH    O1 9960   8.933   3.396   0.931  0.4198  0.3839 -0.6221
  133ACOH    C1 9961   8.723   3.299   0.967  0.3778 -0.2866  0.3998
  133ACOH    H1 9962   8.718   3.292   0.859  1.9245  1.6650  0.1669
  133ACOH    H2 9963   8.624   3.326   1.001  0.9694 -1.4036  3.1738
  133ACOH    H3 9964   8.758   3.208   1.016  1.3698 -0.6985 -1.0226
  134ACOH    H4 9965   0.231   6.997   0.890 -0.5007  0.1564 -0.6220
  134ACOH    O2 9966   0.183   7.052   0.954 -0.6786 -0.1192 -0.5178
  134ACOH    C2 9967   0.052   7.034   0.944 -0.1954  0.1987 -0.6614
  134ACOH    O1 9968  -0.003   6.928   0.923 -0.3740  0.4476 -0.4140
  134ACOH    C1 9969  -0.016   7.150   1.007 -0.0750  0.4628 -0.5974
  134ACOH    H1 9970   0.012   7.239   0.952  1.6541  1.0509  1.1477
  134ACOH    H2 9971   0.037   7.163   1.102  0.2301 -0.2454 -0.6678
  134ACOH    H3 9972  -0.123   7.147   1.026 -0.0723  0.1124 -0.6360
  135ACOH    H4 9973   5.470   2.788   0.846  0.7390  2.7016  0.8760
  135ACOH    O2 9974   5.522   2.778   0.764 -0.2802 -0.1311  0.5363
  135ACOH    C2 9975   5.422   2.785   0.671 -0.4948  0.3435 -0.2922
  135ACOH    O1 9976   5.307   2.812   0.701 -0.3267  0.5146  0.0606
  135ACOH    C1 9977   5.468   2.730   0.542 -0.7777 -0.6193  0.2884
  135ACOH    H1 9978   5.555   2.790   0.514 -0.5973 -0.7767  0.5005
  135ACOH    H2 9979   5.392   2.730   0.464 -1.5333  0.8198  1.0125
  135ACOH    H3 9980   5.500   2.627   0.561  0.8259 -0.1377  0.3021
  136ACOH    H4 9981   8.212   2.604   0.503 -0.4252 -1.5972 -0.0557
  136ACOH    O2 9982   8.153   2.625   0.428 -0.1117  0.1503  0.1764
  136ACOH    C2 9983   8.044   2.546   0.417  0.2219 -0.1938 -1.1582
  136ACOH    O1 9984   8.015   2.450   0.492  0.3883  0.6346  0.1543
  136ACOH    C1 9985   7.965   2.565   0.295 -0.2587  0.1873  0.0329
  136ACOH    H1 9986   7.954   2.673   0.282 -0.2626  0.0521 -1.1994
  136ACOH    H2 9987   7.867   2.518   0.302 -0.4531  0.0422 -3.0338
  136ACOH    H3 9988   8.027   2.529   0.212  2.1263 -1.0681  2.2700
  137ACOH    H4 9989   4.745   1.864   2.081 -0.8345  1.1399  1.2461
  137ACOH    O2 9990   4.688   1.814   2.021  0.2398  0.6197  0.6480
  137ACOH    C2 9991   4.694   1.867   1.898  0.1466 -0.0318  0.0973
  137ACOH    O1 9992   4.733   1.978   1.867  0.5135  0.0174  0.2316
  137ACOH    C1 9993   4.615   1.798   1.791 -0.5034 -0.5080 -0.4405
  137ACOH    H1 9994   4.675   1.801   1.700  1.9497  0.3166  1.1283
  137ACOH    H2 9995   4.522   1.846   1.762 -0.6489  0.3876  1.4102
  137ACOH    H3 9996   4.589   1.696   1.820 -1.6141  0.4265  2.0034
  138ACOH    H4 9997   0.721   3.469   0.466  1.9273 -0.4601 -0.1215
  138ACOH    O2 9998   0.755   3.556   0.440  0.1223  0.4058  0.2832
  138ACOH    C2 9999   0.672   3.602   0.343  0.1922 -0.3295  0.6042
  138ACOH    O110000   0.594   3.539   0.267 -0.2896 -0.1718 -0.1272
  138ACOH    C110001   0.716   3.733   0.305 -0.9195 -0.1283  0.2711
  138ACOH    H110002   0.653   3.782   0.230 -1.0452 -0.4615  0.1596
  138ACOH    H210003   0.812   3.712   0.256 -1.1999  0.0820 -0.3797
  138ACOH    H310004   0.737   3.796   0.391 -0.4932  1.9207 -1.2906
  139ACOH    H410005   3.332   2.340   0.352  1.5432  0.4068 -0.2250
  139ACOH    O210006   3.312   2.428   0.315 -0.3571 -0.1591 -0.5665
  139ACOH    C210007   3.434   2.483   0.311 -0.0854 -0.3018  0.3893
  139ACOH    O110008   3.536   2.458   0.367  0.2593 -0.3205 -0.4377
  139ACOH    C110009   3.435   2.589   0.209  0.3199  0.1500  0.5526
  139ACOH    H110010   3.370   2.574   0.123  0.8923  0.6582  0.0261
  139ACOH    H210011   3.536   2.604   0.172  0.9509 -0.5139  1.9667
  139ACOH    H310012   3.404   2.685   0.253  2.1131  1.3304 -0.6923
  140ACOH    H410013   7.986   1.898   1.187 -0.7484  0.8626 -2.4250
  140ACOH    O210014   7.965   1.814   1.142 -0.2540 -0.6043 -0.0217
  140ACOH    C210015   8.018   1.704   1.199 -0.9816 -0.2596 -0.0860
  140ACOH    O110016   8.033   1.700   1.319  0.1735 -0.4805  0.1919
  140ACOH    C110017   7.994   1.584   1.112 -0.4886  0.1241  0.1514
  140ACOH    H110018   8.064   1.568   1.030 -0.1462  0.5962  0.3527
  140ACOH    H210019   7.905   1.597   1.050  0.8054 -2.6276 -2.4377
  140ACOH    H310020   8.000   1.491   1.168  1.1916 -0.1646 -0.4705
  141ACOH    H410021   2.673   0.207   0.868  1.3384 -1.6200  1.0751
  141ACOH    O210022   2.583   0.182   0.896  0.3538  0.6329  0.0060
  141ACOH    C210023   2.493   0.256   0.832  0.3470  0.9530  0.4505
  141ACOH    O110024   2.511   0.323   0.735 -0.3611 -0.2463  0.0751
  141ACOH    C110025   2.356   0.212   0.860 -0.4279  0.0148  0.2034
  141ACOH    H110026   2.336   0.152   0.949 -1.0980  0.9933  0.7230
  141ACOH    H210027   2.322   0.163   0.769 -1.9107  0.7118  0.3536
  141ACOH    H310028   2.305   0.307   0.877  0.2382  0.3195  0.5056
  142ACOH    H410029   3.872   8.115   2.638 -1.7645  1.5690  1.4246
  142ACOH    O210030   3.865   8.188   2.574 -0.3981  0.3660 -0.1634
  142ACOH    C210031   3.839   8.140   2.451  0.6741 -0.3816  0.1688
  142ACOH    O110032   3.809   8.024   2.431 -0.0263  0.2529 -0.1455
  142ACOH    C110033   3.892   8.226   2.346 -0.4542  0.1496  0.2256
  142ACOH    H110034   3.995   8.195   2.326 -0.7226 -1.0549  0.6663
  142ACOH    H210035   3.885   8.332   2.371  0.9457  0.8547 -2.1712
  142ACOH    H310036   3.842   8.205   2.251 -1.8067 -1.3781  1.2460
  143ACOH    H410037   5.222   2.689   1.067 -1.1913  1.5669 -0.0209
  143ACOH    O210038   5.245   2.728   1.153 -0.2952 -0.6184  0.7481
  143ACOH    C210039   5.360   2.795   1.136  0.6029  0.9559 -0.1042
  143ACOH    O110040   5.427   2.795   1.037 -0.5290 -0.0010 -0.1719
  143ACOH    C110041   5.391   2.885   1.247 -0.0609  0.4843 -0.0158
  143ACOH    H110042   5.482   2.944   1.239 -0.0609  0.5134  0.2008
  143ACOH    H210043   5.393   2.829   1.341  2.6549  0.8169  0.1511
  143ACOH    H310044   5.307   2.954   1.244 -2.2436 -2.1388 -2.1377
  144ACOH    H410045   4.538   1.079   0.175  1.4381 -0.9448 -3.4063
  144ACOH    O210046   4.583   1.003   0.215  0.1903 -0.0130 -0.0999
  144ACOH    C210047   4.515   0.951   0.319 -0.3694  0.1198  0.1307
  144ACOH    O110048   4.393   0.972   0.330 -0.0672  0.4551 -0.4369
  144ACOH    C110049   4.576   0.836   0.390 -0.0441  0.5524  0.0821
  144ACOH    H110050   4.684   0.832   0.376 -0.3762 -2.5832 -2.1607
  144ACOH    H210051   4.531   0.743   0.353 -0.1104  1.4547 -2.1616
  144ACOH    H310052   4.555   0.852   0.496  2.0034 -2.4571  1.0129
  145ACOH    H410053   3.308   4.958   1.992 -0.3083 -0.8875  2.1421
  145ACOH    O210054   3.250   5.034   2.010 -0.1090 -0.1600 -0.1378
  145ACOH    C210055   3.291   5.142   1.943  0.4122 -0.3372 -0.4334
  145ACOH    O110056   3.383   5.134   1.861 -0.5089 -0.4462 -0.9201
  145ACOH    C110057   3.204   5.256   1.965  0.2067 -0.1260  0.1230
  145ACOH    H110058   3.104   5.213   1.965  1.9473 -4.4612 -0.3961
  145ACOH    H210059   3.223   5.338   1.897  0.5449 -0.0828  0.2673
  145ACOH    H310060   3.217   5.303   2.063 -0.2799 -0.7157  0.4737
  146ACOH    H410061   4.670   2.694   0.745  0.7882 -0.9739  0.1633
  146ACOH    O210062   4.723   2.737   0.675  0.2478 -0.1452  0.2598
  146ACOH    C210063   4.840   2.768   0.725  0.5430  0.4406 -0.2245
  146ACOH    O110064   4.892   2.701   0.812 -0.2061 -0.4195 -0.4243
  146ACOH    C110065   4.918   2.866   0.639 -0.3611 -0.7885  0.3317
  146ACOH    H110066   4.991   2.815   0.576 -1.8268 -0.9588 -1.2588
  146ACOH    H210067   4.973   2.940   0.697 -1.1181  0.3627 -0.4069
  146ACOH    H310068   4.850   2.911   0.567 -2.3112  0.4640  2.8964
  147ACOH    H410069   9.666   0.958   1.475 -0.0842 -0.0525  0.7103
  147ACOH    O210070   9.594   1.015   1.443 -0.4561 -0.7377  0.3362
  147ACOH    C210071   9.585   1.131   1.511 -0.2720 -0.2407 -0.2156
  147ACOH    O110072   9.605   1.140   1.632 -0.3094 -0.8219  0.1468
  147ACOH    C110073   9.495   1.228   1.441 -0.5335  0.0955 -0.0514
  147ACOH    H110074   9.425   1.172   1.379  0.2892  1.4385 -2.2442
  147ACOH    H210075   9.551   1.298   1.379 -0.4343 -0.2264 -0.3245
  147ACOH    H310076   9.429   1.272   1.515 -2.7367 -1.1106 -1.2619
  148ACOH    H410077   2.966   2.228   0.254  2.2687 -1.1326 -0.0504
  148ACOH    O210078   2.916   2.146   0.261  0.1389  0.1558  0.2898
  148ACOH    C210079   2.962   2.077   0.364  0.5449  0.3228 -0.0660
  148ACOH    O110080   3.071   2.090   0.420  0.1287 -0.3306 -0.0390
  148ACOH    C110081   2.866   1.965   0.392  0.3371 -0.3989 -0.1948
  148ACOH    H110082   2.920   1.894   0.456 -0.6092 -1.1350 -0.2034
  148ACOH    H210083   2.837   1.926   0.294  1.8412  0.1409 -0.8711
  148ACOH    H310084   2.784   2.010   0.447  1.5791 -0.2151  1.5351
  149ACOH    H410085   3.699   9.088   0.458 -0.9649 -3.4448  1.2605
  149ACOH    O210086   3.770   9.052   0.402 -0.0796  0.2001 -0.0999
  149ACOH    C210087   3.785   8.915   0.418 -0.5323  0.3274 -0.6113
  149ACOH    O110088   3.729   8.848   0.500 -0.1241  0.1656 -0.2691
  149ACOH    C110089   3.888   8.861   0.324 -0.6772 -0.0531 -0.8341
  149ACOH    H110090   3.915   8.759   0.349 -2.2476 -0.2535  0.1339
  149ACOH    H210091   3.979   8.922   0.319 -0.4543 -0.4110 -1.1429
  149ACOH    H310092   3.838   8.863   0.227 -3.2609 -1.0890  0.4511
  150ACOH    H410093   9.447   5.589   0.148  1.2812  0.7102  0.4858
  150ACOH    O210094   9.406   5.628   0.227 -0.0810  0.4720 -0.0895
  150ACOH    C210095   9.325   5.544   0.295 -0.1518 -0.4431  0.5210
  150ACOH    O110096   9.250   5.455   0.251 -0.1995 -0.0446  0.2824
  150ACOH    C110097   9.303   5.604   0.429 -1.0336 -0.0755 -0.1830
  150ACOH    H110098   9.246   5.533   0.489 -0.7764  1.5071  1.9873
  150ACOH    H210099   9.250   5.699   0.427 -0.3445  0.3146  0.0634
  150ACOH    H310100   9.397   5.617   0.482 -0.4797  0.8551 -1.3716
  151ACOH    H410101   4.054   8.521   0.271 -0.6991  0.4143  0.2811
  151ACOH    O210102   4.060   8.595   0.208  0.1900  0.0463 -0.0639
  151ACOH    C210103   3.952   8.570   0.133 -0.3702  0.1132  0.2509
  151ACOH    O110104   3.855   8.526   0.190  0.1834  0.1098 -0.0373
  151ACOH    C110105   3.950   8.655   0.007 -0.0333 -0.1457 -0.5625
  151ACOH    H110106   4.041   8.626  -0.046  0.8659  1.3099  0.1628
  151ACOH    H210107   3.941   8.759   0.037  0.4273  0.8706 -3.6944
  151ACOH    H310108   3.865   8.616  -0.050 -0.6153  1.4315 -0.7888
  152ACOH    H410109   4.582   1.281   1.763 -1.6705  1.9213 -1.3696
  152ACOH    O210110   4.639   1.354   1.790 -0.1818  0.3182 -0.0433
  152ACOH    C210111   4.678   1.407   1.671  1.3846  0.2531  0.0179
  152ACOH    O110112   4.651   1.367   1.566 -0.1389  0.2152  0.4141
  152ACOH    C110113   4.789   1.504   1.688 -0.0989  0.2417 -0.1449
  152ACOH    H110114   4.886   1.457   1.671  0.9824  1.8474  1.3748
  152ACOH    H210115   4.790   1.544   1.789 -0.1870 -0.4033  0.1124
  152ACOH    H310116   4.785   1.584   1.614  1.7068  0.1816 -0.3415
  153ACOH    H410117   3.211   7.539   0.401  2.0023 -0.1591 -2.3095
  153ACOH    O210118   3.245   7.458   0.442 -0.3640  0.1169  0.3242
  153ACOH    C210119   3.369   7.503   0.481  0.6806  0.6502  0.1565
  153ACOH    O110120   3.423   7.602   0.446 -0.5214 -0.4068 -0.0162
  153ACOH    C110121   3.435   7.423   0.583 -0.3727 -0.5991  0.9527
  153ACOH    H110122   3.533   7.465   0.603 -0.5310  0.7432 -0.9807
  153ACOH    H210123   3.442   7.318   0.554 -0.8950 -0.6680  1.0605
  153ACOH    H310124   3.374   7.423   0.674 -0.4917 -2.0570  0.8865
  154ACOH    H410125   9.500   4.759   1.146  1.7891  0.8532  0.1191
  154ACOH    O210126   9.527   4.747   1.053  0.7064  0.0496 -0.0987
  154ACOH    C210127   9.603   4.852   1.017 -0.2595 -0.3798 -0.5154
  154ACOH    O110128   9.616   4.954   1.074  0.4077 -0.5854  0.0434
  154ACOH    C110129   9.666   4.849   0.884  0.0702 -0.4548 -0.1666
  154ACOH    H110130   9.610   4.911   0.814  0.7976 -1.5919 -1.7991
  154ACOH    H210131   9.673   4.752   0.834  2.3000 -0.8720  0.8880
  154ACOH    H310132   9.763   4.898   0.894 -0.7578  1.8838 -2.8315
  155ACOH    H410133   9.722   4.076   2.168 -2.4330  2.2941  1.5008
  155ACOH    O210134   9.790   4.117   2.225  0.7646 -0.0964 -0.4130
  155ACOH    C210135   9.789   4.050   2.345  0.3359 -0.0301  0.3085
  155ACOH    O110136   9.701   3.973   2.374 -0.1744  0.5334 -0.4539
  155ACOH    C110137   9.902   4.088   2.430 -0.5538 -0.1713  0.5964
  155ACOH    H110138   9.892   4.196   2.447  0.1483 -0.0321  0.1438
  155ACOH    H210139   9.996   4.066   2.380 -0.4586  1.3002  0.1094
  155ACOH    H310140   9.894   4.026   2.519 -0.8435  1.0695  1.4615
  156ACOH    H410141   3.869   7.897   2.336  1.6582  0.2114  0.6049
  156ACOH    O210142   3.894   7.820   2.281 -0.1622  0.4789 -0.6551
  156ACOH    C210143   3.822   7.826   2.173 -0.7162 -0.1265  0.7019
  156ACOH    O110144   3.746   7.909   2.128  0.1507 -0.3200 -0.0902
  156ACOH    C110145   3.831   7.687   2.128 -0.5953  0.2858 -0.1394
  156ACOH    H110146   3.804   7.672   2.023  0.5875 -2.7626 -0.0530
  156ACOH    H210147   3.772   7.621   2.192  1.4053 -0.5880  0.8482
  156ACOH    H310148   3.932   7.648   2.140 -0.9094 -0.0181  1.6815
  157ACOH    H410149   8.845   3.182   0.311  0.2598 -0.0783 -0.6869
  157ACOH    O210150   8.906   3.108   0.292  0.5140  0.0022 -0.1940
  157ACOH    C210151   8.839   2.995   0.338 -0.6094 -0.9582 -1.0345
  157ACOH    O110152   8.749   2.992   0.421  0.3397  0.0548 -0.0349
  157ACOH    C110153   8.917   2.879   0.305  0.4762  0.2861  0.0139
  157ACOH    H110154   9.006   2.868   0.368  0.1187  0.8512  0.6340
  157ACOH    H210155   8.951   2.897   0.203  0.7964 -0.6991 -0.0619
  157ACOH    H310156   8.861   2.786   0.312  2.0525 -0.7640 -1.0704
  158ACOH    H410157   7.957   2.033   2.210  0.5172 -2.0206 -0.3216
  158ACOH    O210158   7.881   2.001   2.262  0.0266  0.0104  0.2381
  158ACOH    C210159   7.784   1.964   2.181 -0.2358  0.2395 -0.1280
  158ACOH    O110160   7.799   1.968   2.059 -0.2251  0.0113 -0.2477
  158ACOH    C110161   7.654   1.922   2.237 -0.3094 -0.3292  0.3790
  158ACOH    H110162   7.570   1.988   2.215  0.5561  1.1853  1.4965
  158ACOH    H210163   7.667   1.921   2.345  0.9681 -0.2659  0.2393
  158ACOH    H310164   7.632   1.820   2.205  2.3068 -0.6668 -0.5256
  159ACOH    H410165   8.565   4.594   0.049 -0.4175 -0.1149  0.0671
  159ACOH    O210166   8.486   4.638   0.012 -0.3605  0.4104  0.5685
  159ACOH    C210167   8.408   4.661   0.120 -0.3470  0.4396  0.2553
  159ACOH    O110168   8.450   4.663   0.233  0.6889 -0.0044 -0.4159
  159ACOH    C110169   8.286   4.729   0.071 -0.5112  0.4108  0.1478
  159ACOH    H110170   8.304   4.836   0.073 -0.0452  0.3347  0.0944
  159ACOH    H210171   8.207   4.710   0.144 -0.8860  0.2223 -0.3085
  159ACOH    H310172   8.256   4.691  -0.026  0.8744 -2.5792  0.8082
  160ACOH    H410173   3.171   5.028   2.181 -1.2371 -0.0942  0.4487
  160ACOH    O210174   3.167   5.025   2.278 -0.1665 -0.0727  0.5022
  160ACOH    C210175   3.054   4.956   2.298 -0.0836 -0.4709  0.3150
  160ACOH    O110176   3.000   4.885   2.214  0.3255 -0.3457  0.3098
  160ACOH    C110177   2.995   4.981   2.432  0.0909  0.1554  1.0504
  160ACOH    H110178   2.972   4.894   2.493 -2.1619  1.4561  2.1177
  160ACOH    H210179   2.904   5.037   2.411 -0.3644 -0.4247  1.4725
  160ACOH    H310180   3.063   5.045   2.488 -0.9863  1.4050  0.9411
  161ACOH    H410181   4.181   4.421   0.082 -1.5890  0.7750  1.3666
  161ACOH    O210182   4.238   4.474   0.140  0.2907  0.3103 -0.0274
  161ACOH    C210183   4.198   4.601   0.148 -0.5749 -0.4732 -0.8482
  161ACOH    O110184   4.095   4.652   0.112 -0.0110  0.1865 -0.4631
  161ACOH    C110185   4.283   4.672   0.250 -0.0262 -0.6629  0.4511
  161ACOH    H110186   4.326   4.766   0.216 -2.2955 -0.2936 -1.4990
  161ACOH    H210187   4.371   4.612   0.276  0.2644 -1.8674 -3.0399
  161ACOH    H310188   4.221   4.702   0.335 -0.0101 -2.1275  0.9989
  162ACOH    H410189   0.629   0.903   1.967 -2.9109 -0.9109  0.3462
  162ACOH    O210190   0.637   0.996   1.993 -0.5953 -0.9643 -0.1155
  162ACOH    C210191   0.717   1.050   1.901  0.1482  0.0180  0.0045
  162ACOH    O110192   0.785   0.982   1.827  0.8369 -0.0464 -0.1430
  162ACOH    C110193   0.743   1.196   1.914 -0.5315  0.9056  0.7312
  162ACOH    H110194   0.810   1.229   1.834  1.2159 -0.5683  1.5385
  162ACOH    H210195   0.792   1.210   2.011 -0.2397  1.0294  0.5660
  162ACOH    H310196   0.651   1.251   1.897 -0.8840  0.4414  1.1035
  163ACOH    H410197   2.360   2.011   2.662 -1.2699 -0.1020  2.1593
  163ACOH    O210198   2.324   2.082   2.606  0.4029 -0.4279  0.6330
  163ACOH    C210199   2.412   2.175   2.553  0.1151 -0.7608 -0.6595
  163ACOH    O110200   2.528   2.186   2.590 -0.0662 -0.1395  0.4450
  163ACOH    C110201   2.359   2.254   2.441  0.0521 -0.3894  0.5312
  163ACOH    H110202   2.332   2.181   2.365  3.6081  0.6716 -1.8858
  163ACOH    H210203   2.426   2.330   2.400  0.6592 -1.5830 -0.7407
  163ACOH    H310204   2.268   2.302   2.477  0.5421  0.7026  0.3371
  164ACOH    H410205   0.121   8.524   1.810 -1.1445  0.6766 -0.6686
  164ACOH    O210206   0.041   8.472   1.832 -0.2088 -0.5210 -0.0153
  164ACOH    C210207   0.067   8.395   1.947  0.1032 -0.1142 -0.3279
  164ACOH    O110208   0.174   8.362   1.987  0.0690  0.2202 -0.1308
  164ACOH    C110209  -0.057   8.362   2.024 -0.7246  0.4380  0.4697
  164ACOH    H110210  -0.105   8.451   2.064  0.5832  0.6545  1.5903
  164ACOH    H210211  -0.031   8.299   2.109  1.7661  1.2096  0.3297
  164ACOH    H310212  -0.122   8.311   1.953  1.5913 -0.1175 -1.3424
  165ACOH    H410213   8.353   2.693   2.061  0.7612 -0.8436  0.8848
  165ACOH    O210214   8.392   2.779   2.082 -0.4239 -0.1005  0.0907
  165ACOH    C210215   8.375   2.860   1.979 -0.4741  0.0205 -0.5354
  165ACOH    O110216   8.303   2.856   1.882  0.2398  0.6233 -0.3380
  165ACOH    C110217   8.446   2.992   2.015 -0.4672  1.1065 -0.3401
  165ACOH    H110218   8.414   3.060   1.936 -2.4637 -0.1143 -0.5998
  165ACOH    H210219   8.553   2.971   2.006 -0.6053  0.0186  0.5064
  165ACOH    H310220   8.417   3.032   2.112 -0.4989  0.3759 -0.0459
  166ACOH    H410221   3.800   8.091   0.505 -0.3092 -0.9251 -1.0329
  166ACOH    O210222   3.817   8.019   0.567  0.3465 -0.0251 -0.1576
  166ACOH    C210223   3.753   7.903   0.532 -0.2524 -0.3764  0.0433
  166ACOH    O110224   3.734   7.865   0.421 -0.3873  0.1555  0.0343
  166ACOH    C110225   3.739   7.818   0.659 -0.1233 -0.1362  0.7613
  166ACOH    H110226   3.808   7.734   0.664 -1.3798 -1.1216  1.9334
  166ACOH    H210227   3.638   7.777   0.671  0.4314 -2.0513 -0.7828
  166ACOH    H310228   3.757   7.872   0.752  0.1935  1.0720  0.0147
  167ACOH    H410229   4.973   2.527   1.192 -0.1206 -1.9596  0.3079
  167ACOH    O210230   5.049   2.538   1.252 -0.2846  0.0332  0.1605
  167ACOH    C210231   5.048   2.427   1.322  0.3956  0.1679  0.0185
  167ACOH    O110232   4.977   2.325   1.309 -0.3673 -0.7738  0.4400
  167ACOH    C110233   5.132   2.443   1.444 -0.0019 -0.4343 -0.0559
  167ACOH    H110234   5.171   2.343   1.462 -1.9805 -1.3356 -0.6397
  167ACOH    H210235   5.096   2.476   1.541  1.2884  1.1512 -0.0938
  167ACOH    H310236   5.213   2.511   1.415 -1.1673  1.6347  1.4203
  168ACOH    H410237   9.974   9.007   1.560 -0.4107 -0.1297  0.7823
  168ACOH    O210238   9.935   8.919   1.543 -0.2021 -0.1061  0.1693
  168ACOH    C210239   9.812   8.939   1.491  0.4907  0.9335 -0.9852
  168ACOH    O110240   9.761   9.043   1.464  0.3396  0.0131  0.4599
  168ACOH    C110241   9.756   8.808   1.443  0.6290  0.4975 -0.0302
  168ACOH    H110242   9.719   8.824   1.342 -1.3121 -0.4362  0.5091
  168ACOH    H210243   9.676   8.774   1.509  1.6775 -3.3414 -0.6451
  168ACOH    H310244   9.836   8.735   1.441 -0.3168 -0.5889  1.3101
  169ACOH    H410245   2.817   5.781   2.426  2.3564 -0.9266  0.9706
  169ACOH    O210246   2.853   5.869   2.447 -0.0797  0.2709  0.3065
  169ACOH    C210247   2.753   5.951   2.477  0.6257 -0.0500 -0.6891
  169ACOH    O110248   2.637   5.924   2.475  0.2423 -0.6380 -0.1510
  169ACOH    C110249   2.806   6.081   2.525  0.7924 -0.1633  0.3552
  169ACOH    H110250   2.722   6.139   2.563  0.3039  0.8830 -2.1923
  169ACOH    H210251   2.849   6.142   2.446 -1.8949  0.7643 -0.4270
  169ACOH    H310252   2.876   6.058   2.606 -0.7149  0.9537  1.9964
  170ACOH    H410253   4.250   0.540   1.087 -0.9644 -0.0355  1.5245
  170ACOH    O210254   4.239   0.637   1.094 -0.2743  0.2001 -0.2285
  170ACOH    C210255   4.193   0.682   0.975 -0.7444 -0.1337 -0.5901
  170ACOH    O110256   4.151   0.611   0.888  0.3139 -0.7994 -0.0989
  170ACOH    C110257   4.178   0.830   0.985 -0.5202  0.1626 -0.0556
  170ACOH    H110258   4.102   0.856   1.059  1.1010 -0.0134  1.7076
  170ACOH    H210259   4.151   0.883   0.893 -1.3095 -1.9228 -1.0726
  170ACOH    H310260   4.274   0.863   1.024 -0.8016 -0.8681  1.5435
  171ACOH    H410261   3.252   4.344   2.330  1.1801  1.4937  0.6871
  171ACOH    O210262   3.312   4.268   2.325 -0.1905  0.4170  0.3546
  171ACOH    C210263   3.415   4.294   2.237  0.2127 -0.1942  0.6283
  171ACOH    O110264   3.435   4.401   2.180 -0.0180 -0.3538 -0.2026
  171ACOH    C110265   3.516   4.183   2.223  0.0005  0.0464 -0.0598
  171ACOH    H110266   3.602   4.209   2.162  1.3862  2.7335  2.8648
  171ACOH    H210267   3.463   4.097   2.182  0.6215  0.0022 -0.7714
  171ACOH    H310268   3.554   4.159   2.323 -0.3571  1.8889  0.5372
  172ACOH    H410269   7.803   1.877   0.575  1.0559 -1.3787 -1.4745
  172ACOH    O210270   7.799   1.935   0.497  0.6921  0.5060 -0.0781
  172ACOH    C210271   7.863   2.045   0.536 -0.3777 -0.2003  0.9091
  172ACOH    O110272   7.903   2.081   0.645  0.2356  0.5440 -0.5869
  172ACOH    C110273   7.878   2.135   0.418 -0.1975 -0.4565  0.0220
  172ACOH    H110274   7.900   2.238   0.446 -3.3297  0.6967 -1.4856
  172ACOH    H210275   7.788   2.120   0.358 -0.7869 -0.5686  0.9150
  172ACOH    H310276   7.965   2.095   0.367 -0.0194 -0.5745  0.4184
  173ACOH    H410277   3.067   9.531   0.548  1.0450 -2.3227  0.6957
  173ACOH    O210278   3.114   9.519   0.464 -0.0051 -0.0606 -0.2656
  173ACOH    C210279   3.239   9.579   0.465  0.1516  0.6451  0.1157
  173ACOH    O110280   3.304   9.610   0.567  0.0183 -0.0713 -0.0955
  173ACOH    C110281   3.285   9.591   0.323 -0.4425  0.0226  0.1821
  173ACOH    H110282   3.392   9.571   0.324 -0.2571  0.9899  0.7032
  173ACOH    H210283   3.273   9.686   0.270  0.7254  0.6039  0.9628
  173ACOH    H310284   3.238   9.515   0.260  0.7345  0.1640 -0.8986
  174ACOH    H410285   0.880   2.544   1.550  0.1463  1.1110 -0.0488
  174ACOH    O210286   0.839   2.547   1.461  0.2262 -0.6676 -0.1514
  174ACOH    C210287   0.854   2.671   1.401 -0.2723 -0.1068  0.0303
  174ACOH    O110288   0.892   2.772   1.459 -0.3256 -0.5360 -0.5006
  174ACOH    C110289   0.827   2.653   1.255  0.5991 -0.9032 -0.2794
  174ACOH    H110290   0.894   2.725   1.207 -0.6117  0.7810  0.4885
  174ACOH    H210291   0.727   2.688   1.229  1.4188  1.2693 -0.6531
  174ACOH    H310292   0.858   2.552   1.228  0.8868 -1.8485  3.4291
  175ACOH    H410293   4.642   2.071   0.827  1.8352 -0.0543  1.5480
  175ACOH    O210294   4.704   2.114   0.765 -0.1839  0.5703 -0.0683
  175ACOH    C210295   4.823   2.076   0.798 -0.3591  0.5958  0.4288
  175ACOH    O110296   4.847   2.056   0.911 -0.3772 -0.1240  0.2732
  175ACOH    C110297   4.922   2.101   0.695 -0.0497  0.0013 -0.6697
  175ACOH    H110298   4.882   2.067   0.599 -1.5562 -1.6066  0.4841
  175ACOH    H210299   5.018   2.056   0.718  0.5382  2.5424  2.1388
  175ACOH    H310300   4.931   2.208   0.677 -0.6498  0.4848  1.7041
  176ACOH    H410301   4.160   1.058   2.426  1.6901 -3.0496  1.4149
  176ACOH    O210302   4.077   1.023   2.461 -0.2737  0.0859  0.0173
  176ACOH    C210303   4.031   1.126   2.537 -0.0898 -0.2413 -0.3104
  176ACOH    O110304   4.058   1.239   2.524 -0.3717  0.2272  0.1595
  176ACOH    C110305   3.928   1.079   2.629 -0.5910  0.3160 -0.6158
  176ACOH    H110306   3.841   1.046   2.573  0.8995 -0.1342 -2.7319
  176ACOH    H210307   3.894   1.151   2.704 -1.2620 -0.5817 -0.0469
  176ACOH    H310308   3.967   0.992   2.683 -0.1039 -0.1203 -1.6614
  177ACOH    H410309   4.818   2.970   1.225 -0.3734  1.4676 -0.0910
  177ACOH    O210310   4.875   2.989   1.302  0.0880 -0.0241 -0.0484
  177ACOH    C210311   4.908   2.866   1.345 -0.4044  0.4400 -0.0620
  177ACOH    O110312   4.836   2.770   1.355  0.0761 -0.2569 -0.9475
  177ACOH    C110313   5.041   2.863   1.409  0.4609  0.1479  0.5018
  177ACOH    H110314   5.111   2.928   1.357 -0.5708  1.6604  0.9383
  177ACOH    H210315   5.083   2.764   1.392 -0.4649 -0.3859  1.2532
  177ACOH    H310316   5.037   2.877   1.518 -0.7200 -1.6588  0.7160
  178ACOH    H410317   4.190   0.736   1.740  0.1769 -0.1519 -0.3354
  178ACOH    O210318   4.232   0.676   1.804  0.0262  0.3817  0.2630
  178ACOH    C210319   4.211   0.733   1.926 -0.2448 -0.3362 -0.3703
  178ACOH    O110320   4.165   0.843   1.955  0.1934  0.2593  0.1122
  178ACOH    C110321   4.258   0.647   2.039 -0.1157  0.1962  0.0669
  178ACOH    H110322   4.366   0.644   2.050 -0.1394 -1.3542 -0.0075
  178ACOH    H210323   4.224   0.544   2.032  0.6166 -0.1055  0.8022
  178ACOH    H310324   4.210   0.686   2.129 -0.0173 -0.1076  0.2521
  179ACOH    H410325   8.856   5.153   1.715  1.7942  4.6775 -2.4267
  179ACOH    O210326   8.795   5.203   1.771 -0.2750  0.0127 -0.2657
  179ACOH    C210327   8.735   5.302   1.695 -0.5237  0.1644 -0.7598
  179ACOH    O110328   8.798   5.359   1.611 -0.0739 -0.1007  0.0017
  179ACOH    C110329   8.608   5.355   1.756 -0.4212 -0.5158  0.2236
  179ACOH    H110330   8.612   5.364   1.865 -0.2511  0.5149  0.1395
  179ACOH    H210331   8.524   5.290   1.734 -2.0700  1.3734  0.7301
  179ACOH    H310332   8.591   5.453   1.711  0.5960 -0.4136  0.0544
  180ACOH    H410333   3.478   7.976   0.715  0.1782 -0.8211 -1.0417
  180ACOH    O210334   3.533   8.048   0.679 -0.1169 -0.0635  0.0371
  180ACOH    C210335   3.593   8.102   0.788  0.7062 -0.0355  0.2805
  180ACOH    O110336   3.605   8.058   0.900  0.4909 -0.6466 -0.1067
  180ACOH    C110337   3.663   8.229   0.754 -0.1338  0.1009 -0.3615
  180ACOH    H110338   3.747   8.219   0.685  1.1112  2.4391  0.7541
  180ACOH    H210339   3.710   8.277   0.840  2.3368  0.8809 -2.0808
  180ACOH    H310340   3.592   8.302   0.715  0.2907  1.4060  1.2368
  181ACOH    H410341   8.314   1.608   0.880 -0.2132  0.5765 -0.9549
  181ACOH    O210342   8.266   1.526   0.864  0.3840  0.0342 -0.0226
  181ACOH    C210343   8.342   1.415   0.838 -0.0554  0.1983 -0.6682
  181ACOH    O110344   8.459   1.392   0.846 -0.3755  0.4163 -0.2997
  181ACOH    C110345   8.248   1.301   0.802 -0.1451 -0.2478 -0.1744
  181ACOH    H110346   8.224   1.301   0.695 -0.8276 -3.2217 -0.0598
  181ACOH    H210347   8.151   1.313   0.850 -0.0356 -0.5905  0.1310
  181ACOH    H310348   8.285   1.204   0.831 -0.2427 -0.1258  0.3602
  182ACOH    H410349  -0.065   2.261   1.254  0.6158  0.2678 -0.6101
  182ACOH    O210350  -0.033   2.270   1.345 -0.7195 -0.0052 -0.0927
  182ACOH    C210351   0.094   2.247   1.357  0.4056 -0.4414 -0.3992
  182ACOH    O110352   0.165   2.206   1.270  1.1420  0.4455 -0.1730
  182ACOH    C110353   0.130   2.283   1.497  0.4382 -0.2509  0.3320
  182ACOH    H110354   0.231   2.248   1.520  0.3049 -0.1280  1.1048
  182ACOH    H210355   0.055   2.237   1.561  0.9154 -1.4818  0.0218
  182ACOH    H310356   0.140   2.391   1.500 -1.4773 -0.0500  0.0543
  183ACOH    H410357   3.517   9.056   2.603 -0.1743  2.5857 -2.5209
  183ACOH    O210358   3.614   9.065   2.614 -0.1521  0.3057 -0.3800
  183ACOH    C210359   3.676   8.997   2.522 -0.6153 -0.4258 -0.0916
  183ACOH    O110360   3.630   8.892   2.486  0.0203  0.1961 -0.1979
  183ACOH    C110361   3.824   9.015   2.525 -0.1988 -0.1677  0.0003
  183ACOH    H110362   3.845   9.121   2.517 -2.8985  0.4820  1.1843
  183ACOH    H210363   3.863   8.961   2.438  1.4118  1.3594 -0.2453
  183ACOH    H310364   3.871   8.972   2.613 -0.3461 -2.4082 -0.9577
  184ACOH    H410365   4.593   4.156   2.429 -1.3803  0.1236 -1.9286
  184ACOH    O210366   4.533   4.228   2.451  0.1374  0.6040  0.8440
  184ACOH    C210367   4.423   4.204   2.367 -0.3895  0.4678  0.4499
  184ACOH    O110368   4.391   4.092   2.325  0.0728  0.2142 -0.0610
  184ACOH    C110369   4.345   4.321   2.326 -0.2559 -0.3186  0.3220
  184ACOH    H110370   4.356   4.335   2.218  0.1256 -0.9217  0.2768
  184ACOH    H210371   4.380   4.415   2.369 -0.9223 -0.8003  1.9236
  184ACOH    H310372   4.239   4.306   2.343 -0.1599  0.0589  1.2812
  185ACOH    H410373   3.907   5.222   1.157  0.7385  3.3431 -1.1429
  185ACOH    O210374   3.819   5.232   1.198  0.4472  0.3391 -0.8888
  185ACOH    C210375   3.816   5.185   1.321  0.4725 -0.0768  0.4858
  185ACOH    O110376   3.877   5.085   1.352  0.7752 -0.2261 -0.1750
  185ACOH    C110377   3.688   5.215   1.373 -0.2339  0.1459  0.4730
  185ACOH    H110378   3.684   5.214   1.482 -0.5097  1.8959  0.4988
  185ACOH    H210379   3.614   5.145   1.336  0.4163 -0.6163  0.6083
  185ACOH    H310380   3.656   5.317   1.350 -1.8222 -0.5600 -0.4980
  186ACOH    H410381   2.886   7.263   1.652 -0.7394  0.3079 -0.2828
  186ACOH    O210382   2.811   7.203   1.661 -0.2754 -0.2677 -0.2632
  186ACOH    C210383   2.796   7.180   1.794 -0.5931 -0.0102 -0.2336
  186ACOH    O110384   2.865   7.242   1.875  0.8518 -0.1911 -0.7572
  186ACOH    C110385   2.680   7.089   1.828  0.5109 -0.5961  0.7039
  186ACOH    H110386   2.658   7.031   1.739 -2.2924  1.8741 -0.3063
  186ACOH    H210387   2.598   7.152   1.863  0.8533 -0.2379  0.8666
  186ACOH    H310388   2.703   7.031   1.917  1.5647 -1.6223 -0.2318
  187ACOH    H410389   9.967   7.318   2.315 -1.1445 -1.9986 -3.7987
  187ACOH    O210390   9.882   7.290   2.353 -0.6383  0.6774 -0.4407
  187ACOH    C210391   9.911   7.225   2.470 -0.2710  0.8093  0.1600
  187ACOH    O110392  10.016   7.252   2.525 -0.1726 -0.0608 -0.0671
  187ACOH    C110393   9.789   7.173   2.539 -0.4730  0.5575 -0.6074
  187ACOH    H110394   9.736   7.251   2.594 -0.8368  0.8345 -1.3382
  187ACOH    H210395   9.823   7.090   2.600 -1.2548 -0.5190 -1.6286
  187ACOH    H310396   9.716   7.138   2.466 -1.1943 -3.2679  1.8257
  188ACOH    H410397   4.543   1.493   0.722  0.4402  1.2243  1.0694
  188ACOH    O210398   4.596   1.444   0.786  0.1342 -0.5720 -0.0207
  188ACOH    C210399   4.561   1.310   0.773 -0.2175 -0.6713  0.1975
  188ACOH    O110400   4.482   1.267   0.692 -0.4182  0.0344 -0.3028
  188ACOH    C110401   4.623   1.221   0.871  0.1575  0.3343  0.2530
  188ACOH    H110402   4.546   1.212   0.948 -0.3155  1.2719 -0.1146
  188ACOH    H210403   4.711   1.273   0.910 -0.3461  0.6874  0.9361
  188ACOH    H310404   4.636   1.121   0.830  0.2468  0.2461  0.4905
  189ACOH    H410405   8.248   2.642   0.081 -1.6743  0.0181  0.3107
  189ACOH    O210406   8.253   2.682   0.169 -0.4974  0.2795  0.1224
  189ACOH    C210407   8.386   2.696   0.197  0.1751  0.2049  0.3422
  189ACOH    O110408   8.483   2.671   0.124  0.1485 -0.0144 -0.4229
  189ACOH    C110409   8.401   2.778   0.317  0.9800  0.1213 -0.8171
  189ACOH    H110410   8.502   2.820   0.323  0.4778  1.2370 -0.0247
  189ACOH    H210411   8.390   2.717   0.406 -2.0317  0.7420 -0.7056
  189ACOH    H310412   8.332   2.863   0.317 -0.2685 -0.8750  0.7019
  190ACOH    H410413   5.039   3.212   0.522 -1.0813 -0.1959 -1.2387
  190ACOH    O210414   5.135   3.205   0.508 -0.8648 -0.1604  0.2038
  190ACOH    C210415   5.147   3.092   0.440  0.7086 -0.1180  0.3135
  190ACOH    O110416   5.071   3.022   0.374  0.8003 -0.3259  1.0561
  190ACOH    C110417   5.283   3.045   0.446 -0.2048 -0.7105 -0.3705
  190ACOH    H110418   5.357   3.107   0.395 -1.0513  0.0973 -0.6416
  190ACOH    H210419   5.295   2.944   0.408 -0.4420 -1.8978  2.6140
  190ACOH    H310420   5.312   3.048   0.551  0.1210  0.3058 -0.4806
  191ACOH    H410421   2.385   2.609   1.669 -1.9632 -1.6352 -2.0271
  191ACOH    O210422   2.417   2.661   1.593  0.2785 -0.3194 -0.2398
  191ACOH    C210423   2.550   2.642   1.591 -0.3553  0.1382  0.0942
  191ACOH    O110424   2.608   2.545   1.634 -0.3530  0.1045 -0.6551
  191ACOH    C110425   2.614   2.741   1.495  0.0005  0.7400 -0.7909
  191ACOH    H110426   2.643   2.826   1.556 -1.3724  0.3259  0.4622
  191ACOH    H210427   2.535   2.758   1.421 -1.5945  1.4454  1.0399
  191ACOH    H310428   2.700   2.702   1.441  0.1933 -1.1182  0.8230
  192ACOH    H410429   2.793   2.923   2.208 -2.0460  0.0985  0.0806
  192ACOH    O210430   2.762   3.013   2.227 -0.4216  0.6199  0.3335
  192ACOH    C210431   2.818   3.080   2.121  0.0986 -0.3612 -0.3783
  192ACOH    O110432   2.873   3.040   2.021  0.7379 -0.4017  0.0275
  192ACOH    C110433   2.796   3.228   2.149 -0.5369  0.5904 -0.4876
  192ACOH    H110434   2.842   3.259   2.243 -0.3156 -0.9875 -0.0698
  192ACOH    H210435   2.692   3.258   2.162 -0.1506  1.9086 -0.3153
  192ACOH    H310436   2.837   3.292   2.070 -0.3387 -0.7010 -1.4585
  193ACOH    H410437   8.353   1.486   0.469  0.3909 -0.4364 -0.5175
  193ACOH    O210438   8.351   1.394   0.503 -0.1971 -0.2712 -0.0991
  193ACOH    C210439   8.402   1.321   0.409  0.8203  0.0765 -0.0234
  193ACOH    O110440   8.434   1.356   0.298  0.2517 -0.5316 -0.0591
  193ACOH    C110441   8.411   1.176   0.454 -0.3232  0.8605 -0.2153
  193ACOH    H110442   8.513   1.154   0.486 -0.2122  0.6729 -0.7083
  193ACOH    H210443   8.385   1.112   0.370 -0.5476  1.9031 -0.9457
  193ACOH    H310444   8.342   1.151   0.535  0.2344  1.9979  0.6185
  194ACOH    H410445   3.985   4.524   1.206  4.7656 -4.2101 -1.4660
  194ACOH    O210446   3.965   4.476   1.287  0.5249 -0.3317 -0.0102
  194ACOH    C210447   3.876   4.548   1.358 -0.0971  0.2400 -0.2835
  194ACOH    O110448   3.847   4.657   1.335 -0.1592  0.7073 -0.4547
  194ACOH    C110449   3.846   4.489   1.490  0.6803 -0.4129 -0.8055
  194ACOH    H110450   3.737   4.487   1.493  0.7003 -1.5399 -0.3094
  194ACOH    H210451   3.884   4.549   1.573 -0.3100  2.9369 -2.7006
  194ACOH    H310452   3.878   4.385   1.502 -1.7435 -0.9758  1.1926
  195ACOH    H410453   3.079   5.055   1.717 -0.4848 -0.9775 -2.8119
  195ACOH    O210454   3.072   5.151   1.701  0.1242 -0.3285  0.3042
  195ACOH    C210455   2.946   5.186   1.719  0.8018  0.7945 -0.3418
  195ACOH    O110456   2.862   5.110   1.762  0.7552 -0.3988 -0.0547
  195ACOH    C110457   2.924   5.321   1.663  0.6672  0.2968  0.0423
  195ACOH    H110458   2.920   5.319   1.554 -0.6575 -1.3155  0.1099
  195ACOH    H210459   3.004   5.386   1.699  0.2070  0.1837  1.2937
  195ACOH    H310460   2.830   5.361   1.701 -0.5121 -1.5962 -0.7802
  196ACOH    H410461   5.197   3.507   0.113  0.9122  0.5422 -3.7206
  196ACOH    O210462   5.273   3.562   0.140  0.2274  0.0807 -0.6665
  196ACOH    C210463   5.220   3.634   0.238 -1.1360 -0.7959  0.0603
  196ACOH    O110464   5.119   3.618   0.307  0.5913 -0.5218  0.5166
  196ACOH    C110465   5.318   3.739   0.281 -0.4812  0.3430  0.9407
  196ACOH    H110466   5.417   3.709   0.248 -0.1415  0.0466  2.2014
  196ACOH    H210467   5.314   3.748   0.390 -1.2197  0.4585  0.9087
  196ACOH    H310468   5.284   3.836   0.244 -2.4443 -1.0316 -1.0022
  197ACOH    H410469   7.973   1.613   0.247  0.3297 -2.0167 -0.8768
  197ACOH    O210470   7.881   1.584   0.245 -0.1992 -0.4335 -0.2949
  197ACOH    C210471   7.870   1.502   0.136 -0.5818  0.3323 -0.0996
  197ACOH    O110472   7.953   1.480   0.051 -0.0555  0.2316  0.5453
  197ACOH    C110473   7.734   1.445   0.142  0.2254  0.3675 -0.0637
  197ACOH    H110474   7.682   1.457   0.047 -0.4154 -0.9173  0.1188
  197ACOH    H210475   7.676   1.493   0.221  0.1088 -0.5019  0.3831
  197ACOH    H310476   7.745   1.339   0.165 -3.6978  0.3045  1.7924
  198ACOH    H410477   2.980   6.871   0.446  0.2174 -0.6531 -2.7170
  198ACOH    O210478   2.910   6.812   0.480  0.5313  0.6360  0.2551
  198ACOH    C210479   2.887   6.835   0.612  0.1052 -0.5012  0.4962
  198ACOH    O110480   2.951   6.904   0.689  0.3161  0.3519  0.2319
  198ACOH    C110481   2.775   6.748   0.652 -0.1852 -0.5983  0.2202
  198ACOH    H110482   2.780   6.657   0.593 -0.6537 -2.0747  2.3936
  198ACOH    H210483   2.684   6.797   0.619  0.4632 -0.6062 -1.6508
  198ACOH    H310484   2.775   6.712   0.755  1.0548 -0.0580  0.4258
  199ACOH    H410485   3.802   9.547   1.911 -0.4196  0.7440  1.4966
  199ACOH    O210486   3.880   9.600   1.933  0.4555  0.0322  0.1676
  199ACOH    C210487   3.862   9.722   1.872  0.1113  0.7346  0.0696
  199ACOH    O110488   3.772   9.748   1.792 -0.6833  0.1465  0.1045
  199ACOH    C110489   3.976   9.815   1.898 -0.5576 -0.4480 -0.2899
  199ACOH    H110490   4.070   9.771   1.865  0.2267  0.3087  0.9220
  199ACOH    H210491   3.971   9.827   2.006 -1.9093 -2.3250 -0.1036
  199ACOH    H310492   3.962   9.912   1.850  1.3476 -1.7679 -3.6960
  200ACOH    H410493   3.906   9.715   0.319  0.8367 -0.5821  1.3423
  200ACOH    O210494   3.937   9.804   0.345 -0.6289  0.4773 -0.3741
  200ACOH    C210495   3.965   9.884   0.240  0.0245 -0.2867 -0.5091
  200ACOH    O110496   3.938   9.866   0.126  0.3101  0.4444  0.0008
  200ACOH    C110497   4.008  10.014   0.293  0.2088  0.2509 -0.0937
  200ACOH    H110498   4.114   9.992   0.306  0.2450  0.5492  0.1159
  200ACOH    H210499   3.943  10.033   0.378  0.1947 -0.8531  0.1461
  200ACOH    H310500   3.997  10.100   0.226  2.9267  0.8918  0.2061
  201ACOH    H410501   3.817   3.884   2.226 -0.3699 -0.3083 -0.4732
  201ACOH    O210502   3.732   3.846   2.255 -0.1600 -0.1916  0.3177
  201ACOH    C210503   3.716   3.897   2.380 -0.1300  0.9822  0.4425
  201ACOH    O110504   3.783   3.972   2.443  0.8938  0.4206 -0.3464
  201ACOH    C110505   3.575   3.862   2.418 -0.4093  0.1486  0.3734
  201ACOH    H110506   3.525   3.924   2.344 -3.2973  0.4185  2.4691
  201ACOH    H210507   3.551   3.901   2.517  1.6364  0.9511  0.5654
  201ACOH    H310508   3.559   3.755   2.406  2.0191  0.0485 -2.5195
  202ACOH    H410509   4.816   3.007   1.658 -4.1731 -1.4056  2.0937
  202ACOH    O210510   4.826   2.914   1.633 -0.0117 -0.4992 -0.1449
  202ACOH    C210511   4.750   2.842   1.716  0.6015  0.5565 -0.4228
  202ACOH    O110512   4.673   2.881   1.803  0.3342 -0.4650 -0.2222
  202ACOH    C110513   4.767   2.694   1.689  0.0334 -0.1623 -0.8776
  202ACOH    H110514   4.758   2.666   1.584  1.4531 -2.0153 -0.5273
  202ACOH    H210515   4.688   2.640   1.741  0.4563 -0.3725 -0.4529
  202ACOH    H310516   4.866   2.674   1.730  0.1499  2.0554  0.0023
  203ACOH    H410517   8.810   3.365   0.613 -1.7189  0.5806 -0.6318
  203ACOH    O210518   8.828   3.457   0.586 -0.1178  0.4859  0.0652
  203ACOH    C210519   8.822   3.462   0.451  0.4774 -0.3491  0.0722
  203ACOH    O110520   8.816   3.372   0.372  0.0953  0.5444  0.5771
  203ACOH    C110521   8.853   3.601   0.408 -0.0660 -0.0776  0.1065
  203ACOH    H110522   8.960   3.614   0.391 -0.4965  0.1525 -2.6664
  203ACOH    H210523   8.814   3.669   0.484 -4.0903 -1.3098 -0.7224
  203ACOH    H310524   8.802   3.620   0.313  2.4646 -1.5041 -1.5850
  204ACOH    H410525   3.426   7.942   2.080 -3.2143 -0.4579 -1.5341
  204ACOH    O210526   3.436   7.850   2.108 -0.0766  0.1620 -0.3300
  204ACOH    C210527   3.343   7.786   2.033  0.0027  0.1680 -0.1802
  204ACOH    O110528   3.260   7.828   1.954 -0.2146 -0.2085 -0.7362
  204ACOH    C110529   3.341   7.645   2.081 -0.5727 -0.2509 -0.0027
  204ACOH    H110530   3.274   7.585   2.019 -1.1412  1.5021 -1.1347
  204ACOH    H210531   3.305   7.640   2.184 -2.8301 -0.7713 -0.7737
  204ACOH    H310532   3.439   7.601   2.067 -0.0412  0.2171  2.0441
  205ACOH    H410533   3.550   5.107   1.734 -3.4127 -0.1654 -1.7807
  205ACOH    O210534   3.600   5.081   1.655 -0.3338 -0.3520  0.1258
  205ACOH    C210535   3.624   4.948   1.660  0.0956 -0.2822 -0.2880
  205ACOH    O110536   3.601   4.875   1.751  0.2789  0.4729  0.7025
  205ACOH    C110537   3.703   4.898   1.550  0.4678  0.4721  0.1883
  205ACOH    H110538   3.810   4.914   1.566  1.1359 -2.1096 -1.3614
  205ACOH    H210539   3.674   4.963   1.468 -0.8924 -1.2532 -0.7375
  205ACOH    H310540   3.690   4.794   1.519  2.7690  0.7757 -1.9636
  206ACOH    H410541   8.444   4.286   0.674 -1.2632  1.2879 -0.1397
  206ACOH    O210542   8.398   4.268   0.590 -0.3717 -1.0465 -0.1605
  206ACOH    C210543   8.419   4.387   0.525  0.9890 -0.8321 -0.5493
  206ACOH    O110544   8.482   4.483   0.568  0.3117  0.0603  0.2299
  206ACOH    C110545   8.356   4.383   0.390 -0.0148 -0.6958 -0.0693
  206ACOH    H110546   8.427   4.352   0.313  0.8595  1.7178 -0.2588
  206ACOH    H210547   8.322   4.486   0.379 -1.1098 -0.9125  1.1095
  206ACOH    H310548   8.270   4.316   0.390 -0.4694 -0.1231  0.8426
  207ACOH    H410549   0.001   4.446   0.232 -1.6667 -2.6302 -2.4088
  207ACOH    O210550   0.093   4.421   0.217 -0.4243  0.1574  0.1691
  207ACOH    C210551   0.078   4.355   0.103 -0.0691  0.7352  0.4117
  207ACOH    O110552  -0.012   4.370   0.020  0.1981 -0.5022  0.3457
  207ACOH    C110553   0.190   4.257   0.076  0.3403 -0.4892  0.2092
  207ACOH    H110554   0.156   4.160   0.116 -1.9429 -0.0202 -0.4869
  207ACOH    H210555   0.276   4.292   0.132  0.1325  0.3232  0.0153
  207ACOH    H310556   0.213   4.245  -0.030 -3.0633  2.1207 -0.9112
  208ACOH    H410557   4.212   0.962   1.289 -0.6702  1.7677 -1.1585
  208ACOH    O210558   4.302   0.960   1.251 -0.3808 -0.4634 -0.4028
  208ACOH    C210559   4.390   1.022   1.332  0.2226 -0.6440 -0.3723
  208ACOH    O110560   4.364   1.051   1.447 -0.0904  0.1606 -0.0581
  208ACOH    C110561   4.504   1.081   1.261 -1.2107 -0.1670  0.5109
  208ACOH    H110562   4.582   1.121   1.326  1.0817 -1.1526 -1.5561
  208ACOH    H210563   4.464   1.155   1.193  0.7959  0.2616 -0.2289
  208ACOH    H310564   4.556   1.004   1.204 -0.0466  0.6789  0.4093
  209ACOH    H410565   2.725   5.095   0.305 -0.1240  0.2320  0.0211
  209ACOH    O210566   2.763   5.184   0.312  0.3674  0.0160  0.1431
  209ACOH    C210567   2.865   5.185   0.225  0.3286 -0.3262 -0.1864
  209ACOH    O110568   2.915   5.083   0.180  0.0971 -0.7600  0.0324
  209ACOH    C110569   2.932   5.313   0.206 -0.1037 -0.5551 -0.6235
  209ACOH    H110570   2.869   5.392   0.245  0.2002 -0.0513 -1.1403
  209ACOH    H210571   2.938   5.334   0.099 -1.5328 -1.3940 -0.8903
  209ACOH    H310572   3.026   5.312   0.262 -1.5441  1.5736  1.9028
  210ACOH    H410573   1.363   1.729   1.534  0.6596 -0.4507 -2.0899
  210ACOH    O210574   1.400   1.819   1.531  0.2572 -0.1942  0.2726
  210ACOH    C210575   1.357   1.897   1.632 -0.4672  0.1060 -1.0114
  210ACOH    O110576   1.306   1.864   1.733 -0.0518  1.0202  0.2350
  210ACOH    C110577   1.412   2.033   1.606  0.0689  0.1224 -0.8630
  210ACOH    H110578   1.435   2.078   1.702 -0.2023  0.4512 -0.9517
  210ACOH    H210579   1.324   2.081   1.563 -0.5325 -0.4582 -0.3000
  210ACOH    H310580   1.504   2.034   1.548  0.3883 -2.1902 -0.4420
  211ACOH    H410581   0.582   9.901   1.876  1.0094  1.4056  1.3289
  211ACOH    O210582   0.510   9.918   1.939 -0.7314 -0.1646 -0.1735
  211ACOH    C210583   0.419   9.973   1.857  0.1818 -0.5332  0.1643
  211ACOH    O110584   0.436  10.003   1.740 -0.0195 -0.3500  0.2440
  211ACOH    C110585   0.313  10.044   1.930 -0.7386  0.1603 -0.3037
  211ACOH    H110586   0.293   9.997   2.027 -0.9966  2.0194  0.5588
  211ACOH    H210587   0.225  10.050   1.867  0.1988 -0.0707 -1.6419
  211ACOH    H310588   0.356  10.142   1.952  1.6440 -0.8483 -0.2454
  212ACOH    H410589   2.700   6.838   1.574 -1.1650  0.1483 -1.4934
  212ACOH    O210590   2.743   6.907   1.520 -0.2296  0.4603 -0.3631
  212ACOH    C210591   2.790   6.862   1.402 -0.4163  0.1879 -0.6797
  212ACOH    O110592   2.759   6.756   1.348 -0.0123  0.3794 -0.7468
  212ACOH    C110593   2.864   6.974   1.333  0.1212  0.2662  0.9555
  212ACOH    H110594   2.894   7.048   1.407 -2.1421  2.3377 -0.1255
  212ACOH    H210595   2.811   7.029   1.255 -0.2709 -0.4413  0.7227
  212ACOH    H310596   2.953   6.932   1.287  0.8807  1.0431  1.6917
  213ACOH    H410597   4.160   4.973   1.005  0.8023 -1.3568 -0.4605
  213ACOH    O210598   4.225   5.039   1.034 -0.5237 -0.2508  0.0958
  213ACOH    C210599   4.162   5.160   1.055 -0.4942 -0.1024  0.2688
  213ACOH    O110600   4.045   5.189   1.068  0.0017  0.0332 -0.0097
  213ACOH    C110601   4.271   5.264   1.060 -0.5522  0.0362 -0.5547
  213ACOH    H110602   4.229   5.365   1.063 -0.6082 -0.0245  1.1984
  213ACOH    H210603   4.342   5.264   0.978  0.1949 -2.8819  0.0600
  213ACOH    H310604   4.325   5.260   1.155 -2.6887  0.8388  0.7373
  214ACOH    H410605   8.504   1.939   0.452 -1.3771 -0.6216 -1.2567
  214ACOH    O210606   8.487   2.033   0.467 -0.8805 -0.7031 -0.1579
  214ACOH    C210607   8.356   2.056   0.479 -0.3890 -0.0019 -1.0924
  214ACOH    O110608   8.267   1.971   0.475  0.5887 -0.2725  0.0319
  214ACOH    C110609   8.346   2.199   0.516  0.1856 -0.4790  0.6020
  214ACOH    H110610   8.412   2.238   0.594  0.2689  0.9025 -0.1304
  214ACOH    H210611   8.244   2.218   0.550 -0.7292 -3.6291 -0.2893
  214ACOH    H310612   8.376   2.258   0.429  2.3909  0.0292  1.6532
  215ACOH    H410613   3.611   8.373   2.662  0.2250 -2.3815 -3.4304
  215ACOH    O210614   3.623   8.457   2.615  0.6554 -0.5339 -0.1669
  215ACOH    C210615   3.595   8.423   2.486 -0.0163  0.2978 -0.4319
  215ACOH    O110616   3.565   8.315   2.442 -0.2130  0.4865 -0.0777
  215ACOH    C110617   3.599   8.544   2.400  0.2086 -0.1777 -0.2139
  215ACOH    H110618   3.606   8.629   2.468  0.2076 -1.8643  1.9385
  215ACOH    H210619   3.523   8.550   2.322  0.9588  1.2403 -0.8629
  215ACOH    H310620   3.692   8.537   2.343  1.6654  1.5701  1.8643
  216ACOH    H410621   8.692   3.839   1.033 -1.1248  1.6630 -1.7201
  216ACOH    O210622   8.603   3.814   1.064  0.0678 -0.2934  0.2073
  216ACOH    C210623   8.505   3.886   1.006 -0.3411  0.2854 -0.5135
  216ACOH    O110624   8.509   3.980   0.925 -0.3492 -0.1996  0.1092
  216ACOH    C110625   8.374   3.830   1.046  0.0941 -0.4515 -0.1885
  216ACOH    H110626   8.302   3.851   0.967 -0.9104 -0.9627  0.5833
  216ACOH    H210627   8.325   3.863   1.137  1.1141  0.2754  0.0994
  216ACOH    H310628   8.374   3.721   1.052  0.9586 -0.2533  5.2118
  217ACOH    H410629   3.737   8.752   1.995  0.0479 -1.3374  1.0213
  217ACOH    O210630   3.815   8.777   2.048 -0.1193  0.5643  0.3935
  217ACOH    C210631   3.858   8.667   2.118  0.7650  0.4186 -0.0526
  217ACOH    O110632   3.827   8.555   2.079  0.2789 -0.3323  0.5768
  217ACOH    C110633   3.955   8.684   2.230 -0.5400 -0.0932  0.3435
  217ACOH    H110634   3.955   8.783   2.274  1.3478 -0.2622  0.7490
  217ACOH    H210635   4.056   8.664   2.194 -0.4588 -0.9304  1.0183
  217ACOH    H310636   3.937   8.608   2.307  0.7993 -0.4843  0.2857
  218ACOH    H410637   5.109   3.192   2.015 -0.2390 -0.7192  1.2723
  218ACOH    O210638   5.203   3.199   1.995 -0.6464  0.4025 -0.3507
  218ACOH    C210639   5.215   3.243   1.870 -1.1733  0.3794 -0.6109
  218ACOH    O110640   5.135   3.231   1.781  0.1478 -0.1553 -0.2932
  218ACOH    C110641   5.353   3.277   1.834 -0.0229 -0.3805  1.0464
  218ACOH    H110642   5.382   3.379   1.855 -1.4045  0.1511  0.4581
  218ACOH    H210643   5.361   3.255   1.727  0.7741 -0.9738  1.2216
  218ACOH    H310644   5.424   3.207   1.879  2.5011  2.6056  1.8433
  219ACOH    H410645   2.802   9.058   0.367  2.5222 -0.0139 -0.6475
  219ACOH    O210646   2.834   9.039   0.457 -0.3310  0.2358  0.4469
  219ACOH    C210647   2.949   9.112   0.475 -0.2426  0.5403 -0.0461
  219ACOH    O110648   3.007   9.170   0.385  0.9227 -0.0518  0.2716
  219ACOH    C110649   3.003   9.088   0.611  0.3252  0.5774 -0.1539
  219ACOH    H110650   2.957   9.161   0.678 -0.4392  0.3229 -0.3935
  219ACOH    H210651   3.110   9.096   0.630  0.4164 -3.7535  1.6420
  219ACOH    H310652   2.976   8.986   0.637 -0.0781  0.2932 -1.6580
  220ACOH    H410653   8.652   4.722   2.066 -0.2925  1.5853 -0.0963
  220ACOH    O210654   8.622   4.725   2.159 -0.3422 -0.4105 -0.0360
  220ACOH    C210655   8.649   4.849   2.205  0.5488 -0.8245  0.0147
  220ACOH    O110656   8.650   4.947   2.133 -0.3213 -0.2325 -0.3446
  220ACOH    C110657   8.632   4.862   2.355 -0.0407  0.4341 -0.1039
  220ACOH    H110658   8.548   4.801   2.388  0.1903  0.4413  0.5075
  220ACOH    H210659   8.617   4.968   2.376  0.2131  0.9701 -2.5238
  220ACOH    H310660   8.726   4.822   2.392  0.6489  0.8040 -1.4376
  221ACOH    H410661   3.456   9.192   2.338  0.6217  0.6948 -0.9663
  221ACOH    O210662   3.532   9.223   2.390  0.3921 -0.5246  0.1411
  221ACOH    C210663   3.592   9.313   2.314  0.0083  0.2265 -0.1247
  221ACOH    O110664   3.583   9.339   2.196 -0.1054  0.1160  0.3193
  221ACOH    C110665   3.693   9.382   2.397 -0.0495  0.6763 -0.9698
  221ACOH    H110666   3.681   9.361   2.503 -0.6566 -0.6039 -1.2824
  221ACOH    H210667   3.680   9.489   2.382 -3.7894  0.4762  0.2922
  221ACOH    H310668   3.789   9.350   2.356 -0.2222  0.7271 -1.4232
  222ACOH    H410669   1.019   9.941   0.169  0.1881  0.9544 -0.0344
  222ACOH    O210670   0.979   9.937   0.080  0.4050 -0.1385 -0.1010
  222ACOH    C210671   0.849   9.921   0.096 -0.2647  0.8042 -0.6327
  222ACOH    O110672   0.793   9.889   0.204  0.3487 -0.1392  0.2844
  222ACOH    C110673   0.766   9.927  -0.025  0.0738  0.2312 -0.4635
  222ACOH    H110674   0.677   9.864  -0.019  0.0580  0.2785 -0.1952
  222ACOH    H210675   0.826   9.883  -0.105 -0.2690 -1.1392  0.0068
  222ACOH    H310676   0.748  10.031  -0.050  2.8014  1.0975  0.8715
  223ACOH    H410677   3.237   4.791   0.021  2.5331  1.0520 -0.3611
  223ACOH    O210678   3.203   4.882   0.027  0.3038  0.2740 -0.4671
  223ACOH    C210679   3.314   4.949   0.073 -0.0496 -0.0766  0.0570
  223ACOH    O110680   3.387   4.919   0.168  0.0774  0.0522 -0.8141
  223ACOH    C110681   3.315   5.084   0.026 -0.4896  0.0819 -0.0731
  223ACOH    H110682   3.306   5.093  -0.082  1.4370 -1.2298 -0.3550
  223ACOH    H210683   3.408   5.122   0.069 -0.1680 -0.8415  0.0568
  223ACOH    H310684   3.230   5.135   0.071 -1.5138  0.3334 -2.2425
  224ACOH    H410685   4.008   0.139   2.345 -0.3492  0.6173  0.3899
  224ACOH    O210686   3.994   0.222   2.296  0.0206  0.4303 -0.0322
  224ACOH    C210687   4.009   0.221   2.160  0.0962  0.1938 -0.2075
  224ACOH    O110688   3.992   0.117   2.096 -0.3977  0.6397  0.0179
  224ACOH    C110689   3.978   0.356   2.105  0.3824  0.3741 -0.0727
  224ACOH    H110690   3.959   0.351   1.998 -0.9622 -2.9250  0.2790
  224ACOH    H210691   4.060   0.425   2.124  0.9219 -0.2628 -0.0731
  224ACOH    H310692   3.893   0.398   2.159 -0.6388 -0.0246 -1.3316
  225ACOH    H410693   4.699   4.044   0.207 -0.7644 -1.7272 -1.4089
  225ACOH    O210694   4.789   4.011   0.198 -0.1365 -0.2517 -0.7506
  225ACOH    C210695   4.835   3.973   0.321  0.4969 -0.0197 -0.1441
  225ACOH    O110696   4.773   3.962   0.423 -0.1662 -0.8314  0.1861
  225ACOH    C110697   4.976   3.936   0.316  0.2598 -0.2529  0.0231
  225ACOH    H110698   5.029   4.001   0.385 -1.6516 -1.1180  2.3754
  225ACOH    H210699   5.022   3.954   0.219  1.0461 -2.3528 -0.0385
  225ACOH    H310700   4.989   3.833   0.350  0.8691 -1.4762 -3.7163
  226ACOH    H410701   4.826   2.008   0.307 -0.3718 -0.3679  0.5432
  226ACOH    O210702   4.906   1.953   0.320  0.0726  0.0322 -0.4075
  226ACOH    C210703   4.898   1.834   0.259  0.2857  0.6320  0.5739
  226ACOH    O110704   4.809   1.798   0.182  0.3485 -0.0748  0.1277
  226ACOH    C110705   5.018   1.759   0.296  0.5383  0.6344 -0.0562
  226ACOH    H110706   4.996   1.724   0.397 -1.3039 -2.4227 -1.4250
  226ACOH    H210707   5.104   1.825   0.305 -0.6290  2.3186 -1.0510
  226ACOH    H310708   5.027   1.671   0.232 -2.9567 -1.0415  1.5824
  227ACOH    H410709   4.011   9.786   1.026 -0.3051 -1.9164  0.8161
  227ACOH    O210710   4.100   9.804   0.992 -0.6630 -1.1805  0.2556
  227ACOH    C210711   4.159   9.892   1.077 -0.4682  0.1363 -0.0010
  227ACOH    O110712   4.117   9.923   1.186  0.1062 -0.2821  0.0422
  227ACOH    C110713   4.283   9.951   1.020 -0.4910  0.2831  0.2204
  227ACOH    H110714   4.360   9.877   0.999 -0.5490  0.6343 -1.3219
  227ACOH    H210715   4.320  10.033   1.082  1.9117  1.4484 -2.6372
  227ACOH    H310716   4.251   9.993   0.924 -0.1360  0.1525  0.0436
  228ACOH    H410717   4.027   8.410   0.978 -0.4202 -0.3213  0.6356
  228ACOH    O210718   4.122   8.392   0.981 -0.2179  0.5466 -0.3477
  228ACOH    C210719   4.163   8.454   0.864 -0.5691 -0.0244  0.1981
  228ACOH    O110720   4.093   8.526   0.797 -0.4424  0.3522 -0.0004
  228ACOH    C110721   4.311   8.445   0.848  0.1633 -0.5788  0.4109
  228ACOH    H110722   4.335   8.339   0.852 -0.9729 -0.9646 -1.8240
  228ACOH    H210723   4.368   8.494   0.927  1.5881  0.9639 -1.5276
  228ACOH    H310724   4.350   8.481   0.753 -0.2078  0.2814  0.5760
  229SOL     OW10725   0.071   5.844   2.060 -0.3690  0.3747  0.2553
  229SOL    HW110726   0.143   5.909   2.082 -0.3193 -0.3068  2.2114
  229SOL    HW210727   0.033   5.806   2.145 -1.1022 -1.3626 -0.8156
  230SOL     OW10728   1.468   0.876   1.184 -0.2168  0.0936  0.1207
  230SOL    HW110729   1.560   0.915   1.176  0.0605 -0.5105  0.3173
  230SOL    HW210730   1.423   0.913   1.266  0.2090 -0.3324  0.5473
  231SOL     OW10731   8.843   4.796   0.594  0.4151  0.1559  0.1057
  231SOL    HW110732   8.757   4.781   0.544  1.6040  0.9682 -2.2610
  231SOL    HW210733   8.891   4.709   0.604 -0.2269 -0.1480  0.5814
  232SOL     OW10734   1.788   0.709   2.198  0.7359 -0.4838  0.7559
  232SOL    HW110735   1.738   0.791   2.171 -1.4948 -1.2745  2.3274
  232SOL    HW210736   1.769   0.689   2.294 -0.4663 -4.0423 -0.1588
  233SOL     OW10737   1.570   1.247   1.170 -0.6365  0.3630  0.1305
  233SOL    HW110738   1.651   1.299   1.199 -0.3663  0.2018 -0.3251
  233SOL    HW210739   1.555   1.171   1.233 -1.0085  0.9770  0.7732
  234SOL     OW10740   3.432   0.831   1.646  0.3054 -0.3505 -0.2234
  234SOL    HW110741   3.337   0.856   1.631 -0.0626 -0.8330  1.2395
  234SOL    HW210742   3.469   0.886   1.722  1.1010 -0.3904 -0.5737
  235SOL     OW10743   0.413   2.733   2.506 -0.3472  0.3659 -0.0207
  235SOL    HW110744   0.484   2.687   2.453  0.0422  2.4973 -1.4108
  235SOL    HW210745   0.387   2.818   2.460 -0.6675  1.8100  2.7439
  236SOL     OW10746   0.475   9.491   0.980 -0.1542 -0.0706 -0.1344
  236SOL    HW110747   0.522   9.535   1.057 -1.6632 -0.0865  0.8217
  236SOL    HW210748   0.457   9.558   0.909  0.5102  0.1283 -0.1187
  237SOL     OW10749   2.005   6.331   2.378 -0.7379 -0.4304 -0.0909
  237SOL    HW110750   1.931   6.267   2.396 -3.0453  1.2466 -3.1512
  237SOL    HW210751   2.033   6.324   2.282 -0.0885  2.1573 -0.1345
  238SOL     OW10752   3.621   8.694   0.190 -0.1006 -0.9868 -0.1775
  238SOL    HW110753   3.695   8.644   0.145  0.8791 -0.0477  0.3793
  238SOL    HW210754   3.610   8.660   0.283  0.3072 -0.4463  0.0724
  239SOL     OW10755   9.279   1.514   0.196 -0.5730  0.3706 -0.2276
  239SOL    HW110756   9.208   1.579   0.169  1.5531  2.9180  0.0473
  239SOL    HW210757   9.286   1.511   0.296 -0.5840 -0.2121 -0.2427
  240SOL     OW10758   1.492   3.689   2.257 -0.0933 -0.8693  0.2919
  240SOL    HW110759   1.566   3.739   2.302  1.1285 -2.1314 -0.2956
  240SOL    HW210760   1.503   3.694   2.158 -1.6558  0.1932  0.1398
  241SOL     OW10761   9.526   4.477   1.257  0.1178  0.0496  0.0479
  241SOL    HW110762   9.502   4.574   1.248  1.8219  0.4404 -0.3835
  241SOL    HW210763   9.625   4.467   1.257 -0.0459 -1.8117 -1.2158
  242SOL     OW10764   0.279   4.888   2.012 -0.3805  0.2095 -0.1336
  242SOL    HW110765   0.227   4.835   1.945 -0.9981  0.3801  0.2096
  242SOL    HW210766   0.251   4.861   2.104  1.4679 -1.0374  0.0835
  243SOL     OW10767   0.960   3.366   0.755 -0.3927 -0.0941  0.1403
  243SOL    HW110768   0.928   3.298   0.688 -0.0405 -0.3408  0.2190
  243SOL    HW210769   1.007   3.319   0.830  1.0163  0.3240 -0.4597
  244SOL     OW10770   2.582   9.291   1.423  0.2302 -0.4901 -0.5973
  244SOL    HW110771   2.589   9.218   1.491  1.0198  0.9085  0.8464
  244SOL    HW210772   2.663   9.290   1.365 -0.5367 -1.8144 -1.6785
  245SOL     OW10773   2.848   9.679   0.364  0.2496  0.1430 -0.6648
  245SOL    HW110774   2.934   9.693   0.314  1.0297 -1.3913  0.1900
  245SOL    HW210775   2.827   9.760   0.418  0.2000  1.2252 -2.2872
  246SOL     OW10776   9.200   3.605   2.443 -0.5365  0.0998 -0.2824
  246SOL    HW110777   9.268   3.662   2.489  0.4587 -1.6160  0.4381
  246SOL    HW210778   9.205   3.620   2.344  0.9905 -0.0738 -0.2479
  247SOL     OW10779   2.797   4.025   1.393  0.5634 -0.2564  0.4230
  247SOL    HW110780   2.791   4.093   1.466 -0.6309 -0.6051  0.6623
  247SOL    HW210781   2.776   3.934   1.430  1.0252 -0.5912 -0.1275
  248SOL     OW10782   9.620   4.334   0.325 -0.9717  0.7894  0.2239
  248SOL    HW110783   9.619   4.236   0.346 -1.0807  0.8332  0.4258
  248SOL    HW210784   9.587   4.348   0.232 -2.2718  0.7386  0.6655
  249SOL     OW10785   9.104   1.242   0.380  0.3190 -0.4744  0.2148
  249SOL    HW110786   9.092   1.259   0.282  0.3658 -0.5077  0.2030
  249SOL    HW210787   9.084   1.146   0.400  0.2144 -0.4445  0.2535
  250SOL     OW10788   0.022   4.072   0.368 -0.4382  0.5791  0.6474
  250SOL    HW110789   0.023   4.021   0.454  1.1857 -0.8664 -0.1966
  250SOL    HW210790   0.076   4.156   0.378 -1.1945  0.9795  1.3661
  251SOL     OW10791   9.240   4.063   0.329  0.4441 -0.3902  0.0685
  251SOL    HW110792   9.247   4.162   0.316 -1.0600 -0.0096  1.8255
  251SOL    HW210793   9.166   4.027   0.272 -1.1364  0.0479  1.7917
  252SOL     OW10794   9.658   0.804   1.765 -0.0486 -0.1065  0.3264
  252SOL    HW110795   9.747   0.851   1.760  0.7923 -1.6180  0.7708
  252SOL    HW210796   9.653   0.752   1.851 -0.2596 -2.1933 -0.9152
  253SOL     OW10797   2.706   3.486   2.462  0.2485  0.7643  0.6609
  253SOL    HW110798   2.788   3.469   2.407 -0.2249 -0.5460  0.3433
  253SOL    HW210799   2.631   3.515   2.402 -0.5604 -1.6712  0.4522
  254SOL     OW10800   1.438   0.293   1.810 -0.0881  0.2379  0.0895
  254SOL    HW110801   1.445   0.290   1.909  0.3296 -1.8672  0.0011
  254SOL    HW210802   1.474   0.209   1.770  2.5788  2.2472 -2.0198
  255SOL     OW10803   3.598   7.974   1.427  0.4850  0.1411  0.4520
  255SOL    HW110804   3.530   7.991   1.497 -0.0112  1.0719 -0.2352
  255SOL    HW210805   3.556   7.984   1.336  0.7645 -2.4766  0.0082
  256SOL     OW10806   0.552   1.173   2.213  0.0144 -0.2650 -0.1638
  256SOL    HW110807   0.480   1.242   2.215 -0.3321 -0.6373  0.1859
  256SOL    HW210808   0.567   1.143   2.118 -0.9071 -0.8391 -0.1306
  257SOL     OW10809   0.560   4.799   0.520  0.4771  0.1599 -0.9237
  257SOL    HW110810   0.599   4.717   0.478  1.3675 -0.3774  0.8939
  257SOL    HW210811   0.631   4.868   0.531 -0.0605  0.8175 -1.5843
  258SOL     OW10812   0.494   6.134   0.964 -0.0615 -0.2947 -0.3490
  258SOL    HW110813   0.440   6.117   1.046  1.0086 -1.5278  0.1226
  258SOL    HW210814   0.502   6.050   0.910  0.0050  0.2778 -1.2595
  259SOL     OW10815   2.224   8.016   2.392  0.0658 -0.1129 -0.4576
  259SOL    HW110816   2.317   7.981   2.407 -0.4386 -1.3804 -0.2169
  259SOL    HW210817   2.225   8.116   2.396  1.4678 -0.1054 -0.7290
  260SOL     OW10818   0.824   2.839   0.606 -0.1046 -0.2680  0.3986
  260SOL    HW110819   0.803   2.777   0.682  0.1065 -0.8239  0.0088
  260SOL    HW210820   0.897   2.798   0.550 -1.4727 -0.6750 -1.1023
  261SOL     OW10821   0.848   4.611   2.131  0.0135 -0.4499 -0.3552
  261SOL    HW110822   0.787   4.687   2.151  2.8008  1.4941  0.9769
  261SOL    HW210823   0.895   4.628   2.045  0.8644 -0.5432  0.0914
  262SOL     OW10824   2.586   1.962   1.766 -0.0750  0.5552 -0.3631
  262SOL    HW110825   2.571   2.052   1.724  0.7059  0.9277  0.1594
  262SOL    HW210826   2.605   1.895   1.694 -0.9873  0.7273 -0.7804
  263SOL     OW10827   2.217   2.484   0.050  0.4680 -0.2965  0.0666
  263SOL    HW110828   2.242   2.570   0.095  1.1051 -0.0794 -0.6862
  263SOL    HW210829   2.136   2.445   0.094  0.1278  0.7337  0.3597
  264SOL     OW10830   3.155   9.763   2.002 -0.3688 -0.4582  0.3981
  264SOL    HW110831   3.179   9.794   2.094 -0.4721 -0.1134  0.3103
  264SOL    HW210832   3.150   9.664   2.001  1.9307 -0.5983  0.1925
  265SOL     OW10833   9.556   1.334   2.200 -0.0619 -0.1691 -0.1549
  265SOL    HW110834   9.480   1.310   2.260 -0.6398  0.1817 -0.7373
  265SOL    HW210835   9.536   1.304   2.107  1.8163 -2.7735  0.2254
  266SOL     OW10836   9.258   4.681   0.574  0.8571 -0.1525 -0.3600
  266SOL    HW110837   9.270   4.780   0.561  3.3561 -0.2126  1.2187
  266SOL    HW210838   9.260   4.636   0.485 -0.0480  1.1748 -1.0774
  267SOL     OW10839   0.789   4.007   0.080 -0.1166 -0.2067 -0.1277
  267SOL    HW110840   0.721   3.960   0.025 -1.3251  1.9516 -0.5575
  267SOL    HW210841   0.760   4.006   0.176  0.3533 -1.1867  0.0014
  268SOL     OW10842   3.633   1.839   1.854 -0.0682 -0.2718  0.1384
  268SOL    HW110843   3.703   1.904   1.885 -0.0333  0.0022 -0.5128
  268SOL    HW210844   3.662   1.746   1.879  0.5351 -0.1611 -0.1393
  269SOL     OW10845   2.030   7.617   0.387  0.3650  0.2187  0.0671
  269SOL    HW110846   1.971   7.599   0.308 -0.0577  0.4740  0.3212
  269SOL    HW210847   2.069   7.709   0.379  1.1970 -0.1680 -0.3931
  270SOL     OW10848   1.150   7.206   0.465 -0.2921  0.5891  0.3886
  270SOL    HW110849   1.202   7.205   0.551 -0.4020 -0.0164  0.4499
  270SOL    HW210850   1.150   7.299   0.428  3.2020  0.1073 -1.0552
  271SOL     OW10851   1.033   2.364   0.628  0.5798 -0.1526 -0.0360
  271SOL    HW110852   1.110   2.337   0.571 -0.1677  1.2330 -1.7487
  271SOL    HW210853   1.059   2.442   0.685  0.8712 -0.5947  0.4407
  272SOL     OW10854   3.901   2.731   1.603  0.6129  0.6200 -0.0754
  272SOL    HW110855   3.813   2.736   1.556  1.0816  1.1687 -0.9109
  272SOL    HW210856   3.933   2.636   1.605  0.2749  0.5022 -0.2774
  273SOL     OW10857   2.035   5.209   0.069 -0.6743 -0.0663  0.2042
  273SOL    HW110858   2.118   5.159   0.093 -0.3508  0.8011  0.9122
  273SOL    HW210859   2.019   5.282   0.136  0.0634  2.1703 -1.9979
  274SOL     OW10860   0.330   2.644   0.165  0.1601  0.2694  0.2027
  274SOL    HW110861   0.377   2.674   0.082 -1.7692  0.2605 -0.9243
  274SOL    HW210862   0.391   2.586   0.220  1.1260 -0.5456 -1.7071
  275SOL     OW10863   0.438   0.406   1.011  0.1594  0.0659  0.6131
  275SOL    HW110864   0.404   0.322   1.053 -0.4819  0.2014  0.3616
  275SOL    HW210865   0.515   0.441   1.065  0.5725 -0.8009  0.5947
  276SOL     OW10866   9.418   1.626   2.449  0.5133 -0.7582 -0.3550
  276SOL    HW110867   9.338   1.568   2.458  0.6815 -1.2446 -1.8363
  276SOL    HW210868   9.475   1.618   2.531 -0.8995 -0.4512  0.6798
  277SOL     OW10869   1.584   5.272   0.727  0.0993 -0.2635 -0.0041
  277SOL    HW110870   1.484   5.263   0.733  0.2180 -2.8009 -1.3820
  277SOL    HW210871   1.627   5.206   0.788  0.9853  1.7583  1.6367
  278SOL     OW10872   0.794   7.577   2.300  0.1404  0.4276 -0.4070
  278SOL    HW110873   0.884   7.534   2.291 -1.0308 -2.0037 -0.9107
  278SOL    HW210874   0.783   7.646   2.228  1.1985  0.0323 -0.9632
  279SOL     OW10875   1.462   3.112   1.142  0.4317 -0.0674 -0.5029
  279SOL    HW110876   1.394   3.142   1.075 -0.2479  1.0242  0.6363
  279SOL    HW210877   1.541   3.074   1.096 -0.0525  0.6187 -1.9163
  280SOL     OW10878   1.931   3.863   1.124  0.0616 -0.7953 -0.0014
  280SOL    HW110879   1.909   3.899   1.033  1.7355 -0.4431 -0.2910
  280SOL    HW210880   1.904   3.767   1.129 -1.7007 -0.3252 -0.2498
  281SOL     OW10881   2.501   0.877   2.030 -0.0330  0.0390 -0.1769
  281SOL    HW110882   2.427   0.901   1.967  1.7614  2.6799 -1.3877
  281SOL    HW210883   2.494   0.934   2.112  0.1224 -0.3635  0.1154
  282SOL     OW10884   3.281   1.500   2.391 -0.1048 -0.4799 -0.5096
  282SOL    HW110885   3.311   1.412   2.427 -0.6778  0.0146  1.2252
  282SOL    HW210886   3.233   1.550   2.463  0.7103  1.4847 -1.3205
  283SOL     OW10887   8.100   2.016   2.102  0.0984 -0.1790 -0.5448
  283SOL    HW110888   8.150   1.937   2.137  1.4759  0.2789 -1.4507
  283SOL    HW210889   8.117   2.026   2.004  1.9660  2.6401 -0.0117
  284SOL     OW10890   2.269   1.004   1.355  0.1562  0.0614 -0.2324
  284SOL    HW110891   2.245   1.099   1.373 -1.4898 -0.1939 -1.0177
  284SOL    HW210892   2.367   0.998   1.337  0.1730  1.6978 -0.7938
  285SOL     OW10893   1.574   9.143   1.141 -0.4646 -0.0791  0.4874
  285SOL    HW110894   1.620   9.056   1.120 -2.2289 -0.8805 -0.1220
  285SOL    HW210895   1.567   9.153   1.241 -2.1930 -1.7024  0.5640
  286SOL     OW10896   7.869   1.577   0.522  0.0729 -0.6778  0.0246
  286SOL    HW110897   7.839   1.580   0.427 -0.0856  3.4032  0.1344
  286SOL    HW210898   7.954   1.628   0.532 -0.2900 -0.4430  2.2106
  287SOL     OW10899   1.401   0.667   2.206 -0.0422  0.8899 -0.1296
  287SOL    HW110900   1.350   0.745   2.169 -0.5720 -0.2182 -1.7728
  287SOL    HW210901   1.338   0.590   2.219  0.7412  0.3117  0.2644
  288SOL     OW10902   0.929   9.721   1.905  0.1539  0.1976  0.0742
  288SOL    HW110903   0.969   9.630   1.896  0.2045  0.3178 -0.9542
  288SOL    HW210904   0.994   9.790   1.873 -0.2296  0.5222 -0.0116
  289SOL     OW10905   9.925   2.686   2.212 -0.5136 -0.5325 -0.4637
  289SOL    HW110906   9.891   2.749   2.281 -0.6076 -1.0093 -0.0697
  289SOL    HW210907  10.003   2.727   2.164 -2.2813  1.0015 -2.0992
  290SOL     OW10908   3.623   3.098   1.493 -0.2192  0.3191 -0.5945
  290SOL    HW110909   3.644   3.082   1.589 -0.5181 -0.7276 -0.6979
  290SOL    HW210910   3.708   3.100   1.440 -0.0289  1.2460 -0.2646
  291SOL     OW10911   3.420   2.336   1.807  0.2924  0.1285  0.5224
  291SOL    HW110912   3.435   2.433   1.827 -2.0835  0.9671 -1.5169
  291SOL    HW210913   3.364   2.295   1.880  1.1009  0.3405  1.2662
  292SOL     OW10914   4.103   4.471   0.518  0.0461 -0.0462 -0.0328
  292SOL    HW110915   4.176   4.410   0.550  0.1136  0.4346  0.7430
  292SOL    HW210916   4.015   4.424   0.527 -0.1524  0.7279  2.6720
  293SOL     OW10917   9.794   2.112   0.614 -0.3790  0.7253  0.0086
  293SOL    HW110918   9.891   2.088   0.608 -0.1041  1.9146 -0.4612
  293SOL    HW210919   9.779   2.201   0.572 -2.0373 -0.3602 -1.7858
  294SOL     OW10920   1.906   1.207   1.472 -0.7412  0.5306  0.0699
  294SOL    HW110921   1.853   1.123   1.486  0.1363  0.2574  1.9122
  294SOL    HW210922   2.003   1.185   1.467 -0.7216  1.0626 -3.0438
  295SOL     OW10923   3.737   3.738   0.537 -0.1229  0.5020 -0.0780
  295SOL    HW110924   3.719   3.811   0.471  1.7926  1.8558  0.8523
  295SOL    HW210925   3.823   3.693   0.514 -0.9893 -1.0598 -0.2801
  296SOL     OW10926   0.372   7.257   0.243 -0.3643 -0.3580 -0.2071
  296SOL    HW110927   0.342   7.183   0.304 -1.2756  2.0428  2.3753
  296SOL    HW210928   0.297   7.322   0.231 -0.1037 -0.5973 -3.7572
  297SOL     OW10929   9.516   4.241   1.401 -0.1248 -0.0863 -0.1125
  297SOL    HW110930   9.566   4.272   1.482  0.7255 -2.3799  0.2744
  297SOL    HW210931   9.527   4.309   1.328  0.7714  1.0374  1.0362
  298SOL     OW10932   0.194   5.311   2.354 -0.3671 -0.1508  0.2066
  298SOL    HW110933   0.188   5.212   2.357  0.9905 -0.2158  1.2625
  298SOL    HW210934   0.173   5.349   2.445  1.1449  0.3893  0.3434
  299SOL     OW10935   9.627   2.694   0.519  0.0622  0.3757  0.0213
  299SOL    HW110936   9.632   2.606   0.566 -1.7729 -0.4190 -1.2171
  299SOL    HW210937   9.683   2.690   0.436  0.4137  0.5692  0.2458
  300SOL     OW10938   1.646   2.436   2.240  0.3302  0.6445 -0.0488
  300SOL    HW110939   1.683   2.512   2.293 -0.6570  0.3371  1.1122
  300SOL    HW210940   1.547   2.448   2.230  0.4596  0.5010 -1.5086
  301SOL     OW10941   0.528   7.234   1.725 -0.1720 -0.0261 -0.3153
  301SOL    HW110942   0.518   7.257   1.628 -0.2551 -0.2125 -0.3519
  301SOL    HW210943   0.469   7.156   1.746  0.2021 -0.2845 -0.2205
  302SOL     OW10944   2.045   3.378   0.261 -0.8349 -0.1148 -0.2157
  302SOL    HW110945   2.122   3.337   0.310 -0.6749  0.4536  0.0037
  302SOL    HW210946   2.076   3.415   0.173 -0.4457  1.9846  0.7852
  303SOL     OW10947   2.756   0.913   1.182 -0.2173 -0.2350  0.8511
  303SOL    HW110948   2.721   0.983   1.244  0.2090  0.0975  0.7158
  303SOL    HW210949   2.853   0.898   1.200 -0.0137  0.1094  0.0329
  304SOL     OW10950   1.047   6.568   0.060  0.1629  0.1541 -0.2194
  304SOL    HW110951   1.015   6.606   0.147 -1.8694 -0.8739 -0.4831
  304SOL    HW210952   1.099   6.484   0.078 -0.6058 -0.2824 -0.0132
  305SOL     OW10953   2.763   7.448   0.590  0.1377 -0.3153  0.4097
  305SOL    HW110954   2.812   7.530   0.620  0.1847 -0.4165  0.6128
  305SOL    HW210955   2.818   7.367   0.612 -0.5256 -0.4875  1.4450
  306SOL     OW10956   9.925   5.814   1.170 -0.6201  0.5445  1.0161
  306SOL    HW110957   9.839   5.779   1.132  0.2035 -0.9760  0.4849
  306SOL    HW210958   9.915   5.828   1.269 -0.9227 -1.4323  1.2804
  307SOL     OW10959   4.089   4.372   0.838 -0.1056 -0.6022 -0.1088
  307SOL    HW110960   4.042   4.285   0.850  0.7535 -1.1368 -0.5571
  307SOL    HW210961   4.186   4.355   0.821 -0.0972  0.4020 -1.1055
  308SOL     OW10962   9.076   3.953   0.118  0.2047  0.2244 -0.4185
  308SOL    HW110963   9.065   3.854   0.116 -0.0500  0.2451 -0.1247
  308SOL    HW210964   9.029   3.994   0.040  1.5094  0.0057 -1.3421
  309SOL     OW10965   1.227   7.354   0.832  0.2533 -0.1619  0.1218
  309SOL    HW110966   1.279   7.380   0.751 -0.0532  1.1914  0.3353
  309SOL    HW210967   1.275   7.384   0.914  0.9874 -2.3058  0.4927
  310SOL     OW10968   4.799   1.954   2.207 -0.4623 -0.1387 -0.3935
  310SOL    HW110969   4.877   2.016   2.215 -1.3815  0.9672  0.1166
  310SOL    HW210970   4.794   1.897   2.289 -1.2277  1.0281  0.3866
  311SOL     OW10971   3.150   3.279   0.924  0.2112  0.2702 -0.3602
  311SOL    HW110972   3.191   3.348   0.983  0.7104  1.0639 -1.6096
  311SOL    HW210973   3.069   3.316   0.880  0.5458  0.1116 -1.1249
  312SOL     OW10974   3.795   0.664   0.522  0.1175  0.1966  0.1282
  312SOL    HW110975   3.862   0.723   0.566  1.3393 -2.4840  2.0484
  312SOL    HW210976   3.807   0.668   0.423  1.1583  1.9857  0.3094
  313SOL     OW10977   1.610   5.698   1.227  0.7808 -0.7704 -0.0436
  313SOL    HW110978   1.603   5.731   1.133 -0.4784  3.1256  1.3339
  313SOL    HW210979   1.701   5.717   1.263  0.9710 -1.4470 -0.1540
  314SOL     OW10980   1.789   5.378   1.965  0.8600 -0.0190  0.4309
  314SOL    HW110981   1.690   5.392   1.973  0.6781 -0.0019 -1.6654
  314SOL    HW210982   1.823   5.424   1.882  2.3215 -1.5318  0.1700
  315SOL     OW10983   0.140   7.622   0.582  0.4733 -0.6149  0.1133
  315SOL    HW110984   0.222   7.602   0.528  0.8121  1.8237 -0.3716
  315SOL    HW210985   0.154   7.708   0.631 -2.1821  0.3730 -0.7840
  316SOL     OW10986   1.896   4.116   1.640 -0.1895  0.0550  0.8299
  316SOL    HW110987   1.821   4.062   1.603  2.0938 -0.3982 -3.5749
  316SOL    HW210988   1.895   4.208   1.599  1.0352  0.3602  1.4449
  317SOL     OW10989   1.701   2.212   2.383 -0.7723 -0.0150  0.4364
  317SOL    HW110990   1.702   2.297   2.330  1.1904  0.3735  1.0502
  317SOL    HW210991   1.704   2.133   2.320 -2.1238  0.3598 -0.1179
  318SOL     OW10992   0.227   9.987   1.095 -0.0564 -0.8589  0.4833
  318SOL    HW110993   0.130   9.971   1.111  0.0111 -1.4645  0.2936
  318SOL    HW210994   0.281   9.925   1.152  0.2194 -0.7030  0.3937
  319SOL     OW10995   9.413   2.165   1.237 -0.3122  0.1615  0.1486
  319SOL    HW110996   9.404   2.222   1.318  0.6465  1.3951 -0.5973
  319SOL    HW210997   9.469   2.085   1.259  1.1279  1.2047  0.3622
  320SOL     OW10998   0.265   6.336   0.622  0.0141  0.1260  0.0294
  320SOL    HW110999   0.312   6.424   0.612  0.7229 -0.2468  0.0483
  320SOL    HW211000   0.180   6.337   0.570 -1.3532  1.7907  2.1691
  321SOL     OW11001   1.233   7.803   1.226 -0.0090 -0.0287 -0.1548
  321SOL    HW111002   1.250   7.887   1.277  0.1888  0.2553 -0.6813
  321SOL    HW211003   1.274   7.726   1.274  0.3040  0.2571  0.0378
  322SOL     OW11004   0.471   5.521   1.928  0.0868  0.3559  0.0001
  322SOL    HW111005   0.506   5.431   1.899 -0.9061 -0.2959  0.7740
  322SOL    HW211006   0.441   5.516   2.023  1.2244  1.8770  0.4582
  323SOL     OW11007   9.441   2.425   0.747 -0.1143  0.2059 -0.3163
  323SOL    HW111008   9.415   2.392   0.837 -0.3645  0.9716 -0.0968
  323SOL    HW211009   9.540   2.421   0.736 -0.1694 -0.8661 -0.4012
  324SOL     OW11010   2.723   7.263   2.429  0.3167  0.3442  0.4248
  324SOL    HW111011   2.735   7.307   2.518  0.4920  0.8691  0.1473
  324SOL    HW211012   2.812   7.237   2.392  0.4178  1.9563 -0.5023
  325SOL     OW11013   3.010   1.192   0.064  0.1498 -0.4560 -0.2390
  325SOL    HW111014   2.913   1.178   0.044  0.3299 -0.1137 -1.4029
  325SOL    HW211015   3.063   1.117   0.024  0.1720 -1.9115  2.3910
  326SOL     OW11016   8.771   4.024   2.108 -0.2334  0.2421  0.2428
  326SOL    HW111017   8.719   3.939   2.097 -1.2946  0.9443 -0.3295
  326SOL    HW211018   8.761   4.079   2.025 -1.6977  2.0594  1.5878
  327SOL     OW11019   9.523   5.313   2.339  0.8753 -0.1113 -0.3804
  327SOL    HW111020   9.602   5.374   2.344  0.9115 -0.2086  0.3022
  327SOL    HW211021   9.439   5.365   2.354  0.7782  0.0492 -1.4307
  328SOL     OW11022   2.196   1.411   1.011  0.0471 -0.0498  0.3069
  328SOL    HW111023   2.195   1.405   0.912  0.3930 -1.6915  0.3862
  328SOL    HW211024   2.186   1.506   1.039 -1.0214  0.3213 -1.2783
  329SOL     OW11025   1.702   1.316   1.571 -0.3946  0.3889 -0.2320
  329SOL    HW111026   1.631   1.245   1.569  0.2793 -0.3186  0.8152
  329SOL    HW211027   1.785   1.282   1.526  0.5796 -0.2067  1.9757
  330SOL     OW11028   0.914   6.778   1.055  0.1242 -0.2383 -0.2093
  330SOL    HW111029   1.004   6.781   1.100 -0.0226 -0.9918  0.1364
  330SOL    HW211030   0.914   6.842   0.978  1.0061 -0.3319 -0.2982
  331SOL     OW11031   3.674   1.098   0.970  0.1986 -0.4469  0.2883
  331SOL    HW111032   3.576   1.092   0.986  0.4954  1.2928  2.9842
  331SOL    HW211033   3.712   1.006   0.958 -1.4484 -1.2289  1.0697
  332SOL     OW11034   0.739   0.100   1.555 -0.7475 -0.5961  0.1260
  332SOL    HW111035   0.792   0.137   1.478  0.0563 -1.2704  0.3415
  332SOL    HW211036   0.691   0.017   1.525  2.1686 -2.7438  1.1679
  333SOL     OW11037   2.391   9.002   2.436 -0.3986  0.5308  0.3566
  333SOL    HW111038   2.392   8.945   2.518 -0.2438  1.2166  0.8357
  333SOL    HW211039   2.470   8.980   2.379 -1.3383 -1.0628 -0.3987
  334SOL     OW11040   2.467   8.559   0.438  0.4914  0.4660 -0.3573
  334SOL    HW111041   2.480   8.656   0.420 -0.2027  0.4929 -0.7412
  334SOL    HW211042   2.555   8.512   0.438  0.7543  0.9601 -0.9700
  335SOL     OW11043   1.333   8.824   1.811  0.4175  0.2430 -0.2010
  335SOL    HW111044   1.362   8.770   1.733 -1.8132 -0.7113 -0.4073
  335SOL    HW211045   1.358   8.777   1.896  0.4322 -0.0338 -0.3590
  336SOL     OW11046   4.078   1.624   1.468 -0.0034  0.1646 -0.5974
  336SOL    HW111047   3.984   1.655   1.469 -0.5390 -1.3727  2.2259
  336SOL    HW211048   4.087   1.546   1.406 -0.6728  0.1147 -0.6288
  337SOL     OW11049   0.452   3.188   1.348  0.1093 -0.3620 -0.0575
  337SOL    HW111050   0.415   3.235   1.428  0.1546 -0.8889  0.2708
  337SOL    HW211051   0.518   3.248   1.302  1.3422 -0.6816  1.2456
  338SOL     OW11052   0.160   9.275   2.519 -0.1595  0.1953 -0.2924
  338SOL    HW111053   0.146   9.366   2.481 -1.7209  0.2017  0.2807
  338SOL    HW211054   0.188   9.283   2.615  0.3865  0.0811 -0.4374
  339SOL     OW11055   0.761   1.920   0.088 -0.0603  0.5285  0.4796
  339SOL    HW111056   0.765   1.908   0.187  0.9706  0.1457  0.4037
  339SOL    HW211057   0.854   1.917   0.051 -0.4585  0.4326 -0.5232
  340SOL     OW11058   3.201   0.604   1.501  0.7324 -0.5233  0.0507
  340SOL    HW111059   3.130   0.573   1.565 -0.1032 -1.8757 -1.4765
  340SOL    HW211060   3.234   0.694   1.529 -2.0225  0.4131  0.4802
  341SOL     OW11061   0.944   2.895   0.045  0.5124 -0.3629 -0.1962
  341SOL    HW111062   0.991   2.872  -0.041 -1.0470 -2.6064 -0.4948
  341SOL    HW211063   0.853   2.932   0.025  0.3586 -0.3669  0.4727
  342SOL     OW11064   0.242   7.227   0.638  0.2970 -0.3397  0.2739
  342SOL    HW111065   0.303   7.259   0.710 -1.1113 -1.6043  2.0961
  342SOL    HW211066   0.151   7.267   0.652 -0.1426 -1.0786 -0.4454
  343SOL     OW11067   3.415   9.169   1.942 -0.1214 -0.2313 -0.0783
  343SOL    HW111068   3.515   9.169   1.939 -0.1428 -0.7197 -0.8035
  343SOL    HW211069   3.383   9.076   1.961 -0.4917 -0.4046 -1.5229
  344SOL     OW11070   2.423   9.218   2.016 -0.0301 -0.3798  0.4159
  344SOL    HW111071   2.454   9.312   2.028  1.2344 -0.6910 -0.3134
  344SOL    HW211072   2.356   9.195   2.087 -0.8864  1.2916  0.1574
  345SOL     OW11073   0.091   7.371   2.225  0.1062  0.0371 -0.2113
  345SOL    HW111074   0.158   7.392   2.296 -0.8053 -0.5141  0.8281
  345SOL    HW211075   0.134   7.318   2.152  1.0440  0.5925 -0.0689
  346SOL     OW11076   1.358   2.322   1.044  0.0505  0.0018  0.1307
  346SOL    HW111077   1.311   2.355   1.126  0.7950 -0.1657  0.6228
  346SOL    HW211078   1.416   2.244   1.068 -0.2948 -0.5155 -0.6880
  347SOL     OW11079   2.508   8.149   0.277  0.0022  0.1489 -0.1884
  347SOL    HW111080   2.583   8.215   0.278 -0.4653  0.6828 -0.2488
  347SOL    HW211081   2.442   8.175   0.206  0.5147 -1.1715 -1.1640
  348SOL     OW11082   9.108   2.895   1.497 -0.2899 -0.5597  0.1284
  348SOL    HW111083   9.165   2.966   1.455 -0.2444 -0.0016  1.1213
  348SOL    HW211084   9.012   2.917   1.484 -0.2767 -0.7949 -0.3666
  349SOL     OW11085   0.996   7.896   2.128  1.1235  0.2098 -0.3188
  349SOL    HW111086   0.913   7.840   2.118  0.9310  0.8285 -2.6229
  349SOL    HW211087   0.975   7.977   2.183  0.0673  0.5399 -1.1744
  350SOL     OW11088   0.944   5.030   1.768  0.1848 -0.2183 -0.2424
  350SOL    HW111089   0.950   5.034   1.668  1.4482  1.7757 -0.1233
  350SOL    HW211090   1.026   4.985   1.804  0.3514  0.2294 -0.0556
  351SOL     OW11091   1.162   4.105   1.886  0.3749 -0.0284 -0.3837
  351SOL    HW111092   1.214   4.049   1.950 -0.8736 -0.2824  0.4225
  351SOL    HW211093   1.108   4.172   1.937  0.6971  0.9156 -1.2636
  352SOL     OW11094   1.218   4.788   0.416  0.3605 -0.1004  0.2744
  352SOL    HW111095   1.263   4.875   0.435 -1.6173  0.6088  1.9543
  352SOL    HW211096   1.209   4.776   0.317 -0.6436  2.3290  0.0368
  353SOL     OW11097   3.639   4.554   1.773 -1.1108 -0.1065  0.0062
  353SOL    HW111098   3.634   4.570   1.872  2.7648 -0.7904  0.3961
  353SOL    HW211099   3.669   4.638   1.728 -2.0850 -0.0342 -0.5174
  354SOL     OW11100   0.354   5.026   0.705  0.2200  0.0357  0.1015
  354SOL    HW111101   0.264   5.069   0.706  0.4393  0.5175 -0.7298
  354SOL    HW211102   0.399   5.043   0.793 -0.1554  0.5107  0.2045
  355SOL     OW11103   0.059   2.993   2.229 -0.2155 -0.3762  0.0588
  355SOL    HW111104   0.084   2.898   2.245 -0.6888 -0.5127 -0.0234
  355SOL    HW211105   0.052   3.010   2.131 -0.9959 -0.4807  0.0928
  356SOL     OW11106   4.340   3.852   0.237  0.3203  0.3381 -0.5894
  356SOL    HW111107   4.316   3.869   0.142 -1.3680  0.9345 -0.0653
  356SOL    HW211108   4.272   3.893   0.297  0.7209 -1.0459  0.8568
  357SOL     OW11109   0.092   3.600   0.266  0.0232  0.0903  0.1871
  357SOL    HW111110   0.124   3.654   0.344 -0.0778 -0.4741  0.6291
  357SOL    HW211111   0.168   3.584   0.203  0.4217 -0.5658  0.8312
  358SOL     OW11112   9.725   0.716   1.166  0.2805 -0.2720  0.3486
  358SOL    HW111113   9.658   0.767   1.112  0.4246 -0.9116 -0.4598
  358SOL    HW211114   9.688   0.696   1.256 -0.3875 -0.1062  0.1129
  359SOL     OW11115   9.213   4.124   2.417  0.1806 -0.0764 -0.4698
  359SOL    HW111116   9.220   4.181   2.500  1.3312 -0.2328 -0.4520
  359SOL    HW211117   9.131   4.067   2.423 -0.2356  0.5645  0.1457
  360SOL     OW11118   1.245   8.218   0.954 -0.0640  0.0968  0.5128
  360SOL    HW111119   1.228   8.220   0.855  0.2598  1.7274  0.4820
  360SOL    HW211120   1.258   8.311   0.988 -0.9718 -0.3877  2.2455
  361SOL     OW11121   1.481   8.995   1.509 -0.1603 -0.3233  0.4875
  361SOL    HW111122   1.450   8.900   1.496 -2.6521  0.6664 -1.2389
  361SOL    HW211123   1.404   9.050   1.541  1.1188  1.2735  0.8595
  362SOL     OW11124   2.691   7.952   0.306 -0.0046  0.2077  0.9725
  362SOL    HW111125   2.757   7.966   0.232 -0.1022 -0.1265  0.8201
  362SOL    HW211126   2.608   8.004   0.287  0.3148  0.8443  1.2983
  363SOL     OW11127   0.918   3.456   1.041  0.4905  0.5432  0.0785
  363SOL    HW111128   0.911   3.555   1.036 -1.2116  0.4425  0.0724
  363SOL    HW211129   0.860   3.415   0.970  1.1267 -0.4537  0.1210
  364SOL     OW11130   2.175   0.635   0.103  0.0924  0.3412  0.0163
  364SOL    HW111131   2.091   0.685   0.082 -0.2225 -0.4267 -0.5683
  364SOL    HW211132   2.198   0.573   0.028 -0.8980 -2.2497  1.7544
  365SOL     OW11133   0.250   9.301   0.608 -0.1299  0.9502  0.1678
  365SOL    HW111134   0.278   9.223   0.553 -1.4408  0.8228 -0.3366
  365SOL    HW211135   0.329   9.336   0.659  0.4909 -0.6126  0.2997
  366SOL     OW11136   9.763   4.903   2.228 -0.0089  0.5413  0.3492
  366SOL    HW111137   9.842   4.941   2.278 -0.7665  0.8176  1.3539
  366SOL    HW211138   9.679   4.928   2.275 -0.6339 -0.7617 -0.0543
  367SOL     OW11139   2.559   3.182   0.301 -0.2230 -0.0339 -0.2035
  367SOL    HW111140   2.605   3.121   0.365 -0.8065  1.1964  1.3969
  367SOL    HW211141   2.608   3.180   0.213  1.3660 -0.6993  0.6755
  368SOL     OW11142   8.585   3.525   1.860  0.2247 -0.3383 -0.1747
  368SOL    HW111143   8.534   3.470   1.795  1.8434 -0.5041 -1.3258
  368SOL    HW211144   8.646   3.467   1.914 -0.5822 -0.1105  1.0058
  369SOL     OW11145   2.046   5.406   1.218  0.0525  0.7343 -0.3985
  369SOL    HW111146   2.108   5.484   1.230  1.2888 -0.3196  0.1698
  369SOL    HW211147   2.076   5.352   1.139  1.3567 -1.1507  1.3347
  370SOL     OW11148   0.287   9.284   0.173 -0.5093  0.4338  0.1358
  370SOL    HW111149   0.384   9.289   0.151 -0.2794 -0.1359  0.9998
  370SOL    HW211150   0.257   9.372   0.212 -0.8949  1.4121 -2.2622
  371SOL     OW11151   3.160   1.117   0.923  0.0107 -0.5963 -0.3597
  371SOL    HW111152   3.174   1.133   0.825 -0.1472 -3.2062 -0.8336
  371SOL    HW211153   3.072   1.156   0.950  0.4367  0.8978 -1.0419
  372SOL     OW11154   0.149   9.765   0.118  0.0804 -0.0152 -0.1944
  372SOL    HW111155   0.123   9.678   0.160 -0.8950  0.6751  0.6882
  372SOL    HW211156   0.074   9.831   0.129  0.1319  0.4318 -2.3431
  373SOL     OW11157   4.691   3.215   2.325 -0.6270  0.2309  0.2297
  373SOL    HW111158   4.660   3.280   2.256 -1.7352 -0.8571 -0.3053
  373SOL    HW211159   4.666   3.248   2.416  0.4972  1.4776  0.1114
  374SOL     OW11160   2.489   6.003   0.774  0.4541  0.3118  0.0635
  374SOL    HW111161   2.567   6.059   0.745  0.0752  0.3913 -0.8167
  374SOL    HW211162   2.413   6.062   0.799  0.2118  0.2145 -0.4194
  375SOL     OW11163   4.234   1.815   2.302 -0.1297 -0.1297  0.3982
  375SOL    HW111164   4.286   1.768   2.230 -0.0919  1.4684 -0.6359
  375SOL    HW211165   4.291   1.825   2.383 -0.0215 -1.5483  0.5169
  376SOL     OW11166   0.849   9.401   0.277 -0.3230 -0.0897  0.0798
  376SOL    HW111167   0.792   9.324   0.249 -0.5531 -0.2033  0.8664
  376SOL    HW211168   0.793   9.483   0.283  0.2724  0.5528 -2.5774
  377SOL     OW11169   0.377   3.989   0.052  0.0040 -0.6694  0.4711
  377SOL    HW111170   0.336   3.907   0.012 -1.5826 -0.0441  0.7771
  377SOL    HW211171   0.415   4.046  -0.021 -0.6555 -0.7353  0.0662
  378SOL     OW11172   1.999   7.473   2.416 -0.0592 -0.2376 -0.0657
  378SOL    HW111173   2.094   7.447   2.430 -0.4258 -0.7758  1.5774
  378SOL    HW211174   1.990   7.572   2.427  0.5270 -0.0154 -1.5467
  379SOL     OW11175   1.630   3.530   2.449  0.6577  0.7422  0.6873
  379SOL    HW111176   1.625   3.558   2.545 -0.6433  3.2039 -0.0442
  379SOL    HW211177   1.717   3.559   2.409  0.8000  0.5703  0.8742
  380SOL     OW11178   4.174   1.814   1.298  0.0182 -0.0359  0.3607
  380SOL    HW111179   4.133   1.751   1.364 -1.5108  1.0813  0.4969
  380SOL    HW211180   4.172   1.772   1.207 -0.9142 -0.2416  0.4668
  381SOL     OW11181   3.471   8.030   2.350 -0.5779  0.1782  0.2677
  381SOL    HW111182   3.515   7.950   2.390 -1.9280 -0.3660  0.7009
  381SOL    HW211183   3.529   8.111   2.364  1.2142 -0.8541 -0.9563
  382SOL     OW11184   0.478   9.254   0.792  0.3708 -0.3390 -0.1004
  382SOL    HW111185   0.501   9.330   0.852 -0.5252 -0.2358  0.1245
  382SOL    HW211186   0.533   9.260   0.709 -0.1301  0.9305 -0.3636
  383SOL     OW11187   4.487   3.110   1.888 -0.5497  0.0862  0.1867
  383SOL    HW111188   4.484   3.092   1.790  0.0319  1.3111 -0.0673
  383SOL    HW211189   4.449   3.032   1.938  1.5180 -1.6108 -0.8703
  384SOL     OW11190   0.365   5.185   0.280 -0.8887 -0.1081  0.4570
  384SOL    HW111191   0.444   5.142   0.324 -1.2450  0.0867  1.3016
  384SOL    HW211192   0.300   5.215   0.350 -1.8317 -0.4930 -0.2466
  385SOL     OW11193   9.874   8.833   0.785 -0.0841 -0.8065  0.3283
  385SOL    HW111194   9.880   8.756   0.722  1.1609 -0.8725  0.5248
  385SOL    HW211195   9.835   8.912   0.737 -0.9642 -1.4272  0.0155
  386SOL     OW11196   3.050   9.842   1.285 -0.2809  0.1668 -0.3719
  386SOL    HW111197   3.077   9.929   1.242 -1.7665  0.5244 -0.5915
  386SOL    HW211198   3.082   9.841   1.380  0.0734  0.7984 -0.4808
  387SOL     OW11199   9.239   3.367   2.113 -0.1451  0.2462  0.0413
  387SOL    HW111200   9.241   3.366   2.013 -0.0370  0.7686  0.0407
  387SOL    HW211201   9.259   3.459   2.146 -0.0881  0.0510  0.5461
  388SOL     OW11202   4.476   1.168   1.728 -0.2942 -0.5010 -0.3992
  388SOL    HW111203   4.504   1.135   1.638 -0.4267 -1.4965 -0.0826
  388SOL    HW211204   4.383   1.137   1.747 -0.0957 -0.6923  0.2688
  389SOL     OW11205   1.081   1.765   1.116 -0.2013  0.0035 -0.1396
  389SOL    HW111206   1.039   1.831   1.178  0.4861 -1.8038  2.3430
  389SOL    HW211207   1.017   1.691   1.098  0.5181 -0.8131  0.5869
  390SOL     OW11208   2.472   7.900   0.847 -0.4698  0.3861  0.1393
  390SOL    HW111209   2.453   7.962   0.771 -1.5288 -0.6599 -0.4491
  390SOL    HW211210   2.560   7.926   0.889 -0.1701  1.3446 -1.0415
  391SOL     OW11211   2.908   3.883   2.358  0.1932 -0.4812  0.1856
  391SOL    HW111212   2.863   3.812   2.412 -0.0766  0.4958  1.2563
  391SOL    HW211213   2.843   3.920   2.292 -0.4477  0.5598  1.3747
  392SOL     OW11214   9.319   0.915   0.799  0.3497  0.7603 -0.0690
  392SOL    HW111215   9.344   0.848   0.728  0.1278  0.4770  0.1181
  392SOL    HW211216   9.401   0.944   0.847  0.5548  1.2587 -0.7057
  393SOL     OW11217   0.688   2.606   1.744  0.8887  0.3732  0.2747
  393SOL    HW111218   0.774   2.585   1.697  0.8526 -0.2577  0.4895
  393SOL    HW211219   0.694   2.574   1.839  0.0252 -0.6154 -0.0024
  394SOL     OW11220   9.502   3.937   0.703 -0.1008  0.4896  0.6547
  394SOL    HW111221   9.419   3.982   0.671  0.9250  0.8480 -1.6062
  394SOL    HW211222   9.574   4.005   0.715  0.0727  0.0889  1.9849
  395SOL     OW11223   3.051   8.053   0.580  0.4455  0.4848 -0.3666
  395SOL    HW111224   3.137   8.040   0.530  0.4143  2.3232 -0.9611
  395SOL    HW211225   3.018   8.147   0.565 -0.7998  0.3217  1.2090
  396SOL     OW11226   2.176   3.697   0.808  0.5651  0.3777  0.1900
  396SOL    HW111227   2.211   3.677   0.900 -2.6298 -1.9155  1.0238
  396SOL    HW211228   2.178   3.796   0.792 -0.6803  1.0129  3.5536
  397SOL     OW11229   1.272   7.666   0.727  0.3836  0.0670 -0.5976
  397SOL    HW111230   1.249   7.679   0.823  0.5899 -1.6602 -0.3094
  397SOL    HW211231   1.197   7.620   0.680  0.1848  1.1157 -1.3278
  398SOL     OW11232   2.204   7.531   1.618 -0.0164 -1.0640 -0.4341
  398SOL    HW111233   2.289   7.492   1.655  0.3083  0.5909  0.5705
  398SOL    HW211234   2.186   7.490   1.528  0.5566 -3.1947  0.3812
  399SOL     OW11235   3.392   2.624   0.928  0.3261 -0.2237 -0.1785
  399SOL    HW111236   3.307   2.621   0.980  0.7890 -0.6774  0.5590
  399SOL    HW211237   3.434   2.534   0.926  0.8500  0.0213 -0.4457
  400SOL     OW11238   1.896   0.400   0.317 -0.0095 -0.0885 -0.3392
  400SOL    HW111239   1.919   0.303   0.324  2.4363  0.4028 -1.0999
  400SOL    HW211240   1.965   0.454   0.364  0.7374  1.4903 -3.1675
  401SOL     OW11241   9.793   1.875   1.912  0.1231 -0.3699 -0.2988
  401SOL    HW111242   9.831   1.863   2.004 -0.3605 -0.4098 -0.1018
  401SOL    HW211243   9.770   1.971   1.898  1.1371 -0.1831 -0.7526
  402SOL     OW11244   3.406   0.444   1.893  0.4538 -0.2154 -0.1911
  402SOL    HW111245   3.336   0.475   1.956  0.0611 -0.5125 -0.4797
  402SOL    HW211246   3.382   0.353   1.858  1.3352 -0.6301  0.2680
  403SOL     OW11247   4.375   4.296   0.356 -0.0830 -0.3891  0.0451
  403SOL    HW111248   4.319   4.331   0.281 -2.1808 -1.4321  1.0727
  403SOL    HW211249   4.323   4.303   0.442  1.6624 -0.7038  1.1430
  404SOL     OW11250   0.465   2.700   1.250  0.0441  0.1728  0.2026
  404SOL    HW111251   0.530   2.696   1.326  0.5484 -0.0314 -0.2345
  404SOL    HW211252   0.406   2.780   1.261  2.1795  1.9682 -0.8281
  405SOL     OW11253   0.422   8.263   2.157  0.4307  0.1424 -0.0092
  405SOL    HW111254   0.343   8.281   2.099  0.4901 -0.6047 -0.3291
  405SOL    HW211255   0.484   8.342   2.155 -1.7378  1.9939  2.6348
  406SOL     OW11256   9.507   1.840   1.921  0.0188  0.6177  0.8468
  406SOL    HW111257   9.604   1.829   1.940 -0.0997  0.4272  1.3461
  406SOL    HW211258   9.481   1.936   1.934  0.3265  0.8517 -0.1703
  407SOL     OW11259   1.177   0.185   0.062 -0.2554 -0.6220  0.1592
  407SOL    HW111260   1.196   0.168   0.158  1.6458  1.3595  0.1795
  407SOL    HW211261   1.256   0.159   0.007  0.1897  1.7888 -0.4295
  408SOL     OW11262   1.056   2.619   0.075  0.4355 -0.6121  0.3349
  408SOL    HW111263   1.116   2.595   0.151  0.6589 -1.2300 -0.0408
  408SOL    HW211264   1.023   2.713   0.088  1.2135 -0.3840  0.7097
  409SOL     OW11265   2.302   8.937   1.399  0.2107  0.3256  0.8482
  409SOL    HW111266   2.211   8.897   1.412 -0.2481  1.5438  1.4637
  409SOL    HW211267   2.307   8.979   1.308  0.1076  0.3950  0.8753
  410SOL     OW11268   9.299   3.017   1.897 -0.2222 -0.6342 -0.0051
  410SOL    HW111269   9.203   3.020   1.923  0.0184  1.2474  0.7649
  410SOL    HW211270   9.356   3.036   1.977  0.6753  0.7750 -0.9442
  411SOL     OW11271   3.120   9.878   0.405 -0.0397  0.1341 -0.2757
  411SOL    HW111272   3.212   9.906   0.430  0.0925 -0.7676  0.2683
  411SOL    HW211273   3.088   9.933   0.328  1.7214 -0.9444 -1.7951
  412SOL     OW11274   8.866   0.914   0.692 -0.0556  0.0530 -0.1008
  412SOL    HW111275   8.934   0.934   0.762 -0.2367  0.0819  0.0673
  412SOL    HW211276   8.778   0.894   0.736  0.0161 -0.6700 -0.2867
  413SOL     OW11277   0.249   0.378   0.402 -0.6457  0.0498  0.2144
  413SOL    HW111278   0.336   0.416   0.372 -1.6406  0.0147 -2.9092
  413SOL    HW211279   0.241   0.284   0.369 -2.1998  0.3361 -0.2745
  414SOL     OW11280   2.363   9.225   2.562 -0.2472  0.3896 -0.9356
  414SOL    HW111281   2.445   9.280   2.548  0.0583  0.1206 -0.2375
  414SOL    HW211282   2.369   9.141   2.509  0.1156  0.1778 -0.5610
  415SOL     OW11283   3.733   2.438   1.016  0.2465  0.7341 -0.2308
  415SOL    HW111284   3.785   2.502   0.961 -0.0906  0.7848 -0.4894
  415SOL    HW211285   3.650   2.410   0.967  0.1762  0.4294  0.0546
  416SOL     OW11286   0.639   3.539   1.746  0.1132 -0.0641  0.2955
  416SOL    HW111287   0.702   3.498   1.812  0.1245  0.1968  0.4446
  416SOL    HW211288   0.648   3.491   1.658  1.6950  1.0394 -0.1647
  417SOL     OW11289   0.682   0.519   1.731  0.1710  0.3053 -0.3111
  417SOL    HW111290   0.596   0.503   1.780  0.5256  0.9075  0.5215
  417SOL    HW211291   0.739   0.438   1.738  0.1960  0.3694  0.2264
  418SOL     OW11292   8.820   2.297   2.234  0.0483 -0.5233 -0.0974
  418SOL    HW111293   8.721   2.278   2.239 -0.4054  1.2283 -1.9467
  418SOL    HW211294   8.854   2.317   2.326 -0.9053 -2.9975  0.8571
  419SOL     OW11295   0.191   2.847   1.161  0.1417 -0.6113 -0.0368
  419SOL    HW111296   0.280   2.889   1.177  1.5896 -3.4409 -0.4263
  419SOL    HW211297   0.169   2.850   1.063  0.0263 -0.3173 -0.0008
  420SOL     OW11298   9.769   2.945   2.088 -0.7186 -0.2313 -0.9899
  420SOL    HW111299   9.810   3.021   2.140  1.8294 -2.4125  0.3237
  420SOL    HW211300   9.683   2.918   2.131 -0.1191 -0.0601  0.3680
  421SOL     OW11301   8.948   4.057   2.465  0.2232  0.0264  0.1481
  421SOL    HW111302   8.886   4.135   2.467  0.1120 -0.0482 -0.4427
  421SOL    HW211303   8.902   3.978   2.423  0.1669 -0.5008  1.1790
  422SOL     OW11304   2.702   2.894   0.308  0.1055 -0.6597  0.2734
  422SOL    HW111305   2.709   2.932   0.400 -0.9327 -0.9636  0.4906
  422SOL    HW211306   2.714   2.795   0.312  0.0817 -0.6709  0.0772
  423SOL     OW11307   3.344   0.154   1.800 -0.0983  0.6528 -0.1937
  423SOL    HW111308   3.426   0.154   1.743 -1.0093  0.9517 -1.5199
  423SOL    HW211309   3.344   0.072   1.858 -0.1407 -0.7293 -2.0806
  424SOL     OW11310   0.955   8.532   1.654 -0.4423 -0.5322  0.2116
  424SOL    HW111311   0.899   8.502   1.732  0.2601 -0.3195  0.8003
  424SOL    HW211312   0.930   8.625   1.629  1.5608  0.6207  2.2855
  425SOL     OW11313   2.262   1.518   2.512 -0.0925 -0.9563  0.2358
  425SOL    HW111314   2.321   1.448   2.551 -0.8890 -2.8055 -1.7935
  425SOL    HW211315   2.310   1.564   2.437  0.6329  1.0969  1.9086
  426SOL     OW11316   8.357   1.816   2.114  0.7584  0.2818  0.2024
  426SOL    HW111317   8.340   1.805   2.016  1.4737  0.4657  0.0587
  426SOL    HW211318   8.373   1.727   2.156 -1.6020 -0.0179  0.5376
  427SOL     OW11319   0.605   8.604   0.189  0.1581 -0.0543  0.3283
  427SOL    HW111320   0.534   8.637   0.251 -0.1586 -2.2154  1.1360
  427SOL    HW211321   0.694   8.618   0.231  0.1552  1.3104 -0.0707
  428SOL     OW11322   8.296   2.555   2.020 -0.0652 -0.1130 -0.2564
  428SOL    HW111323   8.218   2.511   1.976 -0.7907 -1.0128  1.8522
  428SOL    HW211324   8.350   2.486   2.069  0.9046  0.8001 -0.0083
  429SOL     OW11325   9.925   2.702   1.875  0.7058  0.4856  0.3174
  429SOL    HW111326   9.945   2.781   1.932 -0.8029  2.0170 -1.2086
  429SOL    HW211327   9.826   2.684   1.876  1.0250 -1.3361  0.5889
  430SOL     OW11328   1.409   1.379   1.810 -0.3797 -0.1922 -0.2455
  430SOL    HW111329   1.377   1.373   1.904 -1.1422  1.5240 -0.3774
  430SOL    HW211330   1.507   1.401   1.809 -0.1154 -1.3275  0.1387
  431SOL     OW11331   4.422   2.120   1.856 -0.5102  0.1408 -0.1465
  431SOL    HW111332   4.404   2.095   1.761  1.2575  1.2258 -0.7761
  431SOL    HW211333   4.493   2.190   1.860 -0.0703 -0.3947  2.0177
  432SOL     OW11334   2.135   6.371   0.508 -0.3845 -0.1679  0.5345
  432SOL    HW111335   2.119   6.286   0.458  0.3353  0.4477 -0.7845
  432SOL    HW211336   2.142   6.352   0.606 -0.6915 -1.5561  0.2985
  433SOL     OW11337   8.578   2.335   1.153 -0.0898  0.3744 -0.3621
  433SOL    HW111338   8.660   2.366   1.201 -0.1383  0.9926 -0.6928
  433SOL    HW211339   8.599   2.318   1.057  0.0102 -0.8969 -0.1260
  434SOL     OW11340   0.667   2.124   0.503  0.1396  0.2888  0.0872
  434SOL    HW111341   0.602   2.081   0.566  0.9326  0.6310  1.1564
  434SOL    HW211342   0.758   2.085   0.518  1.1983  3.3998  2.1730
  435SOL     OW11343   0.411   2.820   1.819 -0.3547  0.5068 -0.3393
  435SOL    HW111344   0.452   2.774   1.898 -1.7542  0.0677  0.1522
  435SOL    HW211345   0.329   2.770   1.791 -0.5943  1.4078 -1.2579
  436SOL     OW11346   2.152   4.790   1.289 -0.1328  0.4212 -0.1672
  436SOL    HW111347   2.235   4.737   1.303  0.0819  1.1429  1.3963
  436SOL    HW211348   2.165   4.883   1.325 -0.4746  1.5856 -2.9001
  437SOL     OW11349   0.303   9.999   0.074  0.2144  0.0311 -1.1508
  437SOL    HW111350   0.273  10.049  -0.007 -0.6268  0.9800 -0.2492
  437SOL    HW211351   0.246   9.918   0.086  1.0226 -0.7116 -2.1002
  438SOL     OW11352   0.589   2.884   2.317 -0.4166 -0.0142  0.3089
  438SOL    HW111353   0.657   2.826   2.274 -0.8175 -0.0052 -0.3519
  438SOL    HW211354   0.514   2.900   2.253 -0.6676  0.6086  0.7515
  439SOL     OW11355   3.092   2.974   0.370  0.0232  0.2910  0.4991
  439SOL    HW111356   3.138   2.911   0.434 -0.8202  0.8465  1.6690
  439SOL    HW211357   3.095   3.067   0.407 -2.7717  0.2195  1.0226
  440SOL     OW11358   0.323   0.944   0.083 -0.4045 -0.3378  0.8075
  440SOL    HW111359   0.315   0.956  -0.016 -2.2531  0.0996  0.9802
  440SOL    HW211360   0.260   1.007   0.129 -0.2413 -1.1900  2.2280
  441SOL     OW11361   3.402   1.021   0.477 -0.0602 -0.5761  0.0385
  441SOL    HW111362   3.353   0.952   0.424 -1.8792  1.3781 -0.8940
  441SOL    HW211363   3.339   1.071   0.535  1.4768 -0.6597  1.8519
  442SOL     OW11364   1.013   4.550   2.496 -0.2216 -0.1669  0.0042
  442SOL    HW111365   0.969   4.562   2.585  0.2962  1.2550  0.0816
  442SOL    HW211366   0.983   4.623   2.435 -0.2042 -0.8633 -0.8426
  443SOL     OW11367   1.064   7.335   0.089  0.2207  0.1854 -0.0090
  443SOL    HW111368   0.967   7.350   0.070  0.2693  0.0232 -0.3825
  443SOL    HW211369   1.093   7.248   0.048  0.1380 -0.5357  1.4300
  444SOL     OW11370   0.991   7.243   0.855  0.3972 -0.0506 -0.0958
  444SOL    HW111371   0.999   7.144   0.867  0.7728  0.1738  1.5639
  444SOL    HW211372   1.081   7.282   0.836 -0.1771 -0.4045 -4.0065
  445SOL     OW11373   3.684   1.576   0.786  0.4310  0.3393 -0.6441
  445SOL    HW111374   3.692   1.477   0.776  0.0136  0.1472  0.8378
  445SOL    HW211375   3.751   1.621   0.726  0.4700 -0.8254 -1.4884
  446SOL     OW11376   0.958   0.810   0.639  0.2235  0.1758 -0.1299
  446SOL    HW111377   0.920   0.805   0.547 -2.2886  0.5041  0.8659
  446SOL    HW211378   1.057   0.794   0.635 -0.1061 -1.4844 -2.6866
  447SOL     OW11379   1.489   4.044   0.514 -0.7037 -0.0605 -0.7384
  447SOL    HW111380   1.452   4.022   0.424 -0.2776  0.9179 -1.1674
  447SOL    HW211381   1.475   4.141   0.532  0.2225 -0.0134 -0.2404
  448SOL     OW11382   2.744   9.871   0.535  0.1328  0.3847 -0.1657
  448SOL    HW111383   2.672   9.937   0.557 -2.0533 -1.4156 -1.6459
  448SOL    HW211384   2.765   9.817   0.616  0.4768  1.5313  0.5168
  449SOL     OW11385   0.440   9.468   1.625 -0.3351  0.1511 -0.4443
  449SOL    HW111386   0.389   9.442   1.543 -1.7577 -1.8607  1.0251
  449SOL    HW211387   0.536   9.484   1.602 -0.6559 -0.7108 -2.4404
  450SOL     OW11388   2.022   6.442   0.169 -0.4542 -0.2993 -0.0725
  450SOL    HW111389   2.103   6.457   0.225 -0.5253 -2.2488  0.6160
  450SOL    HW211390   1.994   6.528   0.127  1.6605  0.4954  0.0744
  451SOL     OW11391   2.786   8.301   1.964 -0.1491 -0.8487 -0.3957
  451SOL    HW111392   2.714   8.336   2.025 -0.8769 -1.7932 -0.6952
  451SOL    HW211393   2.791   8.202   1.972  1.3128 -0.7557 -0.1882
  452SOL     OW11394   2.751   8.130   0.569  0.1182  0.6210 -0.3471
  452SOL    HW111395   2.849   8.135   0.548  0.4060 -0.8047  0.5840
  452SOL    HW211396   2.708   8.061   0.511 -0.0974  0.3842  0.0950
  453SOL     OW11397   1.789   6.507   1.482 -0.7373  0.5779 -0.2090
  453SOL    HW111398   1.779   6.606   1.481 -0.6048  0.6049  0.7712
  453SOL    HW211399   1.796   6.475   1.576  1.3468 -0.1485 -0.5858
  454SOL     OW11400   0.370   3.613   0.994  0.0745 -0.2956 -0.1666
  454SOL    HW111401   0.431   3.553   1.047  0.3543 -0.8056 -1.0650
  454SOL    HW211402   0.282   3.621   1.042  1.2051  1.3200  1.6862
  455SOL     OW11403   1.882   8.095   2.497 -0.2420 -0.4106 -0.3670
  455SOL    HW111404   1.927   8.057   2.416 -0.5903 -1.5295 -0.0419
  455SOL    HW211405   1.890   8.194   2.496  1.9124 -0.5595 -0.5116
  456SOL     OW11406   1.025   4.443   0.353 -0.2508 -0.3913  0.4513
  456SOL    HW111407   1.028   4.355   0.307 -1.2615  0.1700 -0.7295
  456SOL    HW211408   1.036   4.430   0.452 -0.5213 -1.8360  0.3026
  457SOL     OW11409   4.333   3.633   2.182 -0.2322 -0.2357  0.5133
  457SOL    HW111410   4.246   3.587   2.198  0.3701 -1.5120  0.2319
  457SOL    HW211411   4.317   3.727   2.153 -1.5718 -0.8727 -0.9114
  458SOL     OW11412   0.617   4.453   2.091  0.0573 -0.4345 -0.1084
  458SOL    HW111413   0.674   4.403   2.025 -0.7521  1.0266 -1.9562
  458SOL    HW211414   0.676   4.506   2.152  0.7674 -0.3815 -0.8325
  459SOL     OW11415   9.960   9.967   0.151 -0.2470 -0.5144  0.6894
  459SOL    HW111416   9.937  10.037   0.219 -0.1170  0.5501 -0.3367
  459SOL    HW211417   9.891   9.967   0.078 -0.6045 -1.9220  1.0247
  460SOL     OW11418   2.157   1.415   2.079  0.3057  0.3656 -0.1829
  460SOL    HW111419   2.124   1.473   2.004 -0.9200  0.4348  0.3943
  460SOL    HW211420   2.091   1.417   2.154  1.3076 -0.0650  0.7177
  461SOL     OW11421   2.331   1.848   0.514  0.2653  0.4317 -0.3835
  461SOL    HW111422   2.414   1.807   0.475  0.4461  2.0757 -1.7950
  461SOL    HW211423   2.251   1.805   0.473  0.4240 -0.4980  0.2745
  462SOL     OW11424   1.500   6.566   0.712  0.6179  0.2342 -0.3023
  462SOL    HW111425   1.468   6.626   0.785  0.3362  0.5519 -0.6868
  462SOL    HW211426   1.521   6.476   0.751  0.0418  0.2648  0.0978
  463SOL     OW11427   3.310   8.273   1.586 -0.0752 -0.1481  0.0204
  463SOL    HW111428   3.362   8.193   1.616 -2.1839 -0.9268  1.7540
  463SOL    HW211429   3.342   8.303   1.496  0.6736 -3.0052 -0.6884
  464SOL     OW11430   0.761   6.862   1.650 -0.1410  0.3691  0.1233
  464SOL    HW111431   0.834   6.851   1.717 -1.0531 -0.3673  0.9985
  464SOL    HW211432   0.687   6.798   1.669 -0.7953  0.7379 -1.0758
  465SOL     OW11433   2.766   0.668   1.926 -0.1242  0.2801 -0.0514
  465SOL    HW111434   2.688   0.657   1.865 -1.1055  0.8074  1.0950
  465SOL    HW211435   2.836   0.723   1.880 -1.1698  1.3260 -0.4066
  466SOL     OW11436   1.375   6.859   1.859 -0.4442  0.3807  0.2467
  466SOL    HW111437   1.437   6.861   1.937  1.8718  0.2445 -1.5315
  466SOL    HW211438   1.362   6.952   1.824 -0.8542  0.3501  0.3139
  467SOL     OW11439   3.591   3.187   0.409 -0.1893 -0.4556 -0.1964
  467SOL    HW111440   3.657   3.238   0.354 -0.9441 -1.2089 -1.8467
  467SOL    HW211441   3.597   3.216   0.505  2.0696 -0.0541 -0.4372
  468SOL     OW11442   1.499   5.471   0.513  0.5272  0.1321  0.5350
  468SOL    HW111443   1.587   5.482   0.558  0.6944  1.5370 -0.1130
  468SOL    HW211444   1.426   5.483   0.580  0.8121 -1.0150  1.0667
  469SOL     OW11445   0.298   7.809   2.374  0.3557 -0.5122 -0.2761
  469SOL    HW111446   0.309   7.902   2.340  1.4993 -1.0752 -1.4775
  469SOL    HW211447   0.259   7.751   2.302  0.9808 -1.2709 -0.0188
  470SOL     OW11448   3.608   4.026   0.449  0.3551  0.1541 -0.0907
  470SOL    HW111449   3.543   3.958   0.482 -0.4744  0.6160 -0.7540
  470SOL    HW211450   3.581   4.116   0.482  1.1134  0.2441  0.2898
  471SOL     OW11451   0.624   2.816   0.407  0.6269 -0.4208  0.4947
  471SOL    HW111452   0.537   2.773   0.430  1.4275 -2.4780 -0.1899
  471SOL    HW211453   0.685   2.812   0.486  0.2744  0.6323  0.8347
  472SOL     OW11454   2.742   8.607   0.744  0.0201 -0.5019  0.2673
  472SOL    HW111455   2.707   8.515   0.729  1.8188 -1.2682  0.6398
  472SOL    HW211456   2.751   8.654   0.656 -1.5112 -0.4423  0.1363
  473SOL     OW11457   0.574   1.481   1.667  0.1320 -0.0297  0.1608
  473SOL    HW111458   0.620   1.504   1.581  0.0822 -0.0702  0.1234
  473SOL    HW211459   0.556   1.382   1.670 -0.0145 -0.0034  0.1449
  474SOL     OW11460   2.455   2.569   1.011 -0.2607  0.0559 -0.1122
  474SOL    HW111461   2.356   2.582   1.001 -0.4016 -1.3705 -0.7201
  474SOL    HW211462   2.482   2.483   0.967  1.3246  0.6515 -0.3299
  475SOL     OW11463   0.951   0.796   0.364  0.3171  0.2465 -0.3302
  475SOL    HW111464   1.051   0.796   0.351  0.4035 -1.9328  0.1258
  475SOL    HW211465   0.914   0.709   0.333 -1.5538  1.3034 -1.1026
  476SOL     OW11466   1.905   4.395   1.595 -0.2360  0.1246 -0.1788
  476SOL    HW111467   1.961   4.437   1.667 -0.1658  1.3923 -0.9440
  476SOL    HW211468   1.824   4.452   1.579 -1.2518 -1.1917  0.2557
  477SOL     OW11469   0.097   9.702   1.008  0.5043 -0.3477  0.5570
  477SOL    HW111470   0.168   9.718   1.076 -0.0478  0.0186  1.0492
  477SOL    HW211471   0.032   9.634   1.042  0.8154 -0.9516 -0.0403
  478SOL     OW11472   1.912   2.359   1.021  0.0798  0.0583  0.2484
  478SOL    HW111473   1.983   2.394   0.960  0.5593  0.3793  0.9936
  478SOL    HW211474   1.860   2.436   1.058 -1.3003 -0.2125 -1.0573
  479SOL     OW11475   9.679   6.781   0.353 -0.2836  0.1138 -0.3773
  479SOL    HW111476   9.723   6.800   0.265 -0.0031 -0.4726 -0.3685
  479SOL    HW211477   9.655   6.867   0.398  1.1788  0.4489 -0.2166
  480SOL     OW11478   9.742   4.333   1.838 -0.2990  0.3131  0.3004
  480SOL    HW111479   9.722   4.418   1.887 -2.5084  1.4601 -2.4708
  480SOL    HW211480   9.835   4.304   1.860  1.0356  4.2305  0.2844
  481SOL     OW11481   9.833   5.796   1.938  0.0351 -0.3090 -0.7520
  481SOL    HW111482   9.801   5.701   1.945  2.1156 -0.9527  0.3748
  481SOL    HW211483   9.932   5.799   1.943 -0.0842  2.1223  2.1032
  482SOL     OW11484   9.900   8.570   0.654 -0.1711  0.5082 -0.1889
  482SOL    HW111485   9.844   8.489   0.642 -1.1064  0.9722  0.9558
  482SOL    HW211486   9.991   8.554   0.616 -1.2123 -0.0714 -2.5508
  483SOL     OW11487   2.124   0.089   0.626  0.5807 -0.0922  0.7502
  483SOL    HW111488   2.104   0.057   0.533  1.8797  0.1354  0.3705
  483SOL    HW211489   2.219   0.065   0.649  0.7073  1.0616  1.4924
  484SOL     OW11490   8.517   4.284   0.824 -0.9535 -0.0893 -0.1020
  484SOL    HW111491   8.505   4.188   0.851  0.5728 -0.4988 -0.8296
  484SOL    HW211492   8.493   4.343   0.901 -0.5473 -1.1061  0.8243
  485SOL     OW11493   0.842   9.210   2.080 -0.4081 -0.6551 -0.0081
  485SOL    HW111494   0.743   9.201   2.086 -0.4830  0.5066  0.7143
  485SOL    HW211495   0.885   9.165   2.158 -0.3913 -0.7178 -0.0531
  486SOL     OW11496   0.194   2.733   2.180 -0.4729 -0.3090 -0.1068
  486SOL    HW111497   0.279   2.776   2.211 -0.0211  0.5026 -2.3684
  486SOL    HW211498   0.189   2.640   2.217  0.2641  0.4233  1.9284
  487SOL     OW11499   9.929   0.588   1.899  0.0781  0.4165 -0.5719
  487SOL    HW111500   9.955   0.665   1.842  3.2949  0.4058  0.7666
  487SOL    HW211501   9.953   0.503   1.853  0.4282  0.3420 -0.2545
  488SOL     OW11502   0.767   3.410   1.945  0.8439 -0.1883 -0.2367
  488SOL    HW111503   0.809   3.338   1.890 -0.3143  1.0929 -2.8513
  488SOL    HW211504   0.835   3.480   1.966  1.4665 -1.0298  0.6368
  489SOL     OW11505   0.591   5.151   1.652 -0.2852  0.0849  0.5306
  489SOL    HW111506   0.557   5.103   1.571  2.3163  0.2584 -0.6981
  489SOL    HW211507   0.675   5.201   1.629  0.2200  0.5440  3.2188
  490SOL     OW11508   2.358   5.818   1.261 -0.7149 -0.5933  0.2401
  490SOL    HW111509   2.282   5.867   1.303 -0.2017 -0.2774  0.8283
  490SOL    HW211510   2.355   5.828   1.162 -1.6925 -0.9687  0.2335
  491SOL     OW11511   1.314   2.200   0.210 -0.3090  0.1026  0.3269
  491SOL    HW111512   1.388   2.135   0.196  1.5485  2.1620  0.3440
  491SOL    HW211513   1.331   2.283   0.157 -1.1392  1.7380  2.5183
  492SOL     OW11514   2.346   6.932   1.887 -0.0952  0.4748  0.1543
  492SOL    HW111515   2.268   6.875   1.911  0.5661  0.4482  2.4050
  492SOL    HW211516   2.430   6.879   1.895  0.1784  0.5147 -2.2134
  493SOL     OW11517   2.980   2.998   1.436  0.4570 -0.3068  0.6083
  493SOL    HW111518   2.915   2.966   1.367 -0.1315 -0.4336  1.2165
  493SOL    HW211519   3.036   3.071   1.397 -0.5449  0.3076  0.2946
  494SOL     OW11520   2.672   9.893   1.544  0.4561  0.1803  0.2822
  494SOL    HW111521   2.665   9.800   1.582 -2.2958  0.5036  0.6913
  494SOL    HW211522   2.748   9.897   1.479  2.1050 -1.7129  2.0127
  495SOL     OW11523   8.324   1.779   1.828 -0.0363  0.4037  0.3488
  495SOL    HW111524   8.234   1.822   1.826 -0.0529  0.3256 -0.8424
  495SOL    HW211525   8.336   1.724   1.745  0.3917 -1.0387  1.3560
  496SOL     OW11526   0.266   6.335   0.911  0.3124 -0.1506 -0.1643
  496SOL    HW111527   0.266   6.334   0.811 -1.6583  1.0320 -0.2122
  496SOL    HW211528   0.347   6.288   0.945  0.3392 -1.7490 -2.3110
  497SOL     OW11529   1.276   4.622   0.753 -0.0508  0.1013 -0.4030
  497SOL    HW111530   1.343   4.644   0.682 -0.1478 -0.2657 -0.6125
  497SOL    HW211531   1.287   4.685   0.830  1.1164 -0.5078 -0.0602
  498SOL     OW11532   8.731   4.728   1.933 -0.2922  0.4693  0.5084
  498SOL    HW111533   8.737   4.772   1.843  0.1296  0.1226  0.3677
  498SOL    HW211534   8.821   4.727   1.976  0.0791 -1.8844 -0.2610
  499SOL     OW11535   9.291   4.176   1.978  0.1263  0.3276  0.1810
  499SOL    HW111536   9.227   4.188   2.054 -0.8205 -2.1069 -0.1801
  499SOL    HW211537   9.291   4.257   1.921 -2.6923  0.3463  0.1785
  500SOL     OW11538   9.493   5.785   0.018 -0.1701  0.4205 -0.2935
  500SOL    HW111539   9.477   5.801   0.116  0.3678  1.1867 -0.3256
  500SOL    HW211540   9.504   5.687   0.002  1.9333  0.4614  0.7510
  501SOL     OW11541   1.926   0.186   1.773  0.1260 -0.1307  0.2049
  501SOL    HW111542   2.024   0.179   1.751  0.0611 -0.1416 -0.0929
  501SOL    HW211543   1.898   0.282   1.767  0.7904  0.2886  3.2919
  502SOL     OW11544   1.058   2.261   1.269 -0.1126 -0.3573 -0.0805
  502SOL    HW111545   1.100   2.176   1.237 -1.5891 -1.1569  0.0511
  502SOL    HW211546   0.965   2.242   1.301 -0.2858  1.2310  0.3903
  503SOL     OW11547   0.198   0.513   0.184 -0.2645 -0.0786 -0.0298
  503SOL    HW111548   0.207   0.464   0.270  1.1080  2.5773  1.4088
  503SOL    HW211549   0.105   0.502   0.149  0.0588 -3.8054  0.1062
  504SOL     OW11550   2.006   4.643   1.071  0.7911 -0.6669  0.5443
  504SOL    HW111551   2.034   4.664   1.165  2.1000  1.6707 -0.3028
  504SOL    HW211552   2.076   4.678   1.008 -1.2460  0.0169 -1.3912
  505SOL     OW11553   1.921   6.063   0.824  0.0791 -0.0450  0.6944
  505SOL    HW111554   1.863   6.057   0.743 -0.1278  1.1476  0.7441
  505SOL    HW211555   1.982   5.984   0.827  0.5519  0.2207 -0.9949
  506SOL     OW11556   9.448   1.001   0.418  0.5292 -0.2969  0.5504
  506SOL    HW111557   9.478   0.913   0.382  0.2179 -0.4122  0.5647
  506SOL    HW211558   9.352   1.016   0.394  1.4869  1.5688 -2.3904
  507SOL     OW11559   9.356   1.622   1.947 -0.1245  0.1613 -0.1646
  507SOL    HW111560   9.293   1.650   2.019 -1.2081 -0.8200 -0.6961
  507SOL    HW211561   9.429   1.689   1.937  0.0746  0.2703  1.8787
  508SOL     OW11562   3.383   3.149   2.400  0.2866  0.1044  0.1238
  508SOL    HW111563   3.467   3.137   2.348  1.1872 -0.1437  1.6006
  508SOL    HW211564   3.322   3.071   2.384  0.7294 -0.1660 -0.2471
  509SOL     OW11565   1.349   2.425   0.023  0.0898 -0.4429 -0.1141
  509SOL    HW111566   1.297   2.474  -0.047 -0.6213 -0.2139  0.5764
  509SOL    HW211567   1.391   2.490   0.085 -1.2380 -0.7128  1.0814
  510SOL     OW11568   2.028   8.318   1.450  0.3363 -0.4389  0.0676
  510SOL    HW111569   2.072   8.352   1.367 -1.0532  1.4475  0.0811
  510SOL    HW211570   2.032   8.218   1.451  0.9698 -0.4535 -1.9224
  511SOL     OW11571   3.133   8.094   2.185 -0.2276  0.5285 -0.3600
  511SOL    HW111572   3.049   8.048   2.160 -0.3986  0.6198  0.0350
  511SOL    HW211573   3.195   8.098   2.106  0.4831 -1.8664  0.0327
  512SOL     OW11574   9.652   2.645   1.838  0.0449  0.3996  0.1650
  512SOL    HW111575   9.618   2.671   1.748  0.0634  1.0928  0.3614
  512SOL    HW211576   9.578   2.653   1.905  0.3592  1.0755  0.4354
  513SOL     OW11577   3.110   2.157   1.165 -0.3631  0.3256 -0.2538
  513SOL    HW111578   3.022   2.174   1.210  0.5668  5.4161 -0.1144
  513SOL    HW211579   3.184   2.169   1.231  0.6069 -1.7914 -0.9117
  514SOL     OW11580   2.873   1.382   2.328  0.1953 -0.1659  0.0331
  514SOL    HW111581   2.775   1.369   2.340  0.0666 -0.3767 -1.1124
  514SOL    HW211582   2.893   1.391   2.230  1.2444  0.4697  0.2943
  515SOL     OW11583   2.492   8.830   0.053 -0.0245 -0.0490  0.1087
  515SOL    HW111584   2.554   8.775  -0.003  1.3332  0.3498  1.1906
  515SOL    HW211585   2.510   8.813   0.149 -2.5376 -0.9382  0.4558
  516SOL     OW11586   2.696   8.747   1.953 -0.2159  0.5015 -0.9487
  516SOL    HW111587   2.618   8.690   1.978 -0.1375  1.2159  1.0960
  516SOL    HW211588   2.780   8.695   1.964 -0.3088  0.2370 -1.5160
  517SOL     OW11589   3.374   3.241   0.271 -0.0390 -0.1677 -0.2551
  517SOL    HW111590   3.328   3.163   0.229  0.6684 -0.9786  0.4570
  517SOL    HW211591   3.459   3.210   0.313 -0.6561  0.6718  1.6363
  518SOL     OW11592   2.020   0.896   1.437  0.4175  0.5050  0.1230
  518SOL    HW111593   2.068   0.867   1.519  0.1441  1.4404  0.6250
  518SOL    HW211594   2.081   0.950   1.379 -0.5187  3.3152  1.6631
  519SOL     OW11595   0.814   6.186   1.707  0.5850  0.3591  0.1539
  519SOL    HW111596   0.781   6.121   1.775 -0.3915  0.1249 -0.5280
  519SOL    HW211597   0.745   6.258   1.693 -0.1626 -0.7389 -2.0806
  520SOL     OW11598   1.555   9.126   2.335 -0.0844 -0.1031 -0.1560
  520SOL    HW111599   1.611   9.083   2.265 -0.4863 -0.1707 -0.4382
  520SOL    HW211600   1.514   9.056   2.393 -2.2841 -0.2308 -1.7899
  521SOL     OW11601   1.036   0.394   1.914 -0.3280 -0.2003 -0.1601
  521SOL    HW111602   1.076   0.457   1.847  0.2840  0.3497  0.7218
  521SOL    HW211603   0.960   0.344   1.871 -1.4343  1.8065 -0.5904
  522SOL     OW11604   4.049   4.351   2.569  0.1293 -0.1621  0.1050
  522SOL    HW111605   3.995   4.319   2.492  2.3558 -0.6865 -1.2640
  522SOL    HW211606   4.080   4.273   2.623 -0.3773  0.1342  0.8351
  523SOL     OW11607   1.592   9.789   0.301 -0.5441 -0.2252 -0.1143
  523SOL    HW111608   1.521   9.770   0.233  0.0140 -3.2261  0.0733
  523SOL    HW211609   1.668   9.725   0.289  1.6282  2.1543  0.4623
  524SOL     OW11610   3.538   3.527   0.978 -0.0934  0.2759  0.2782
  524SOL    HW111611   3.506   3.620   0.996 -0.9441  0.9052 -3.8382
  524SOL    HW211612   3.621   3.530   0.923 -0.6371 -1.3875 -0.6813
  525SOL     OW11613   1.474   2.518   1.574  0.5107 -0.2088 -0.0071
  525SOL    HW111614   1.499   2.609   1.606  1.3661 -1.0667  1.8816
  525SOL    HW211615   1.399   2.524   1.508 -0.0630  1.7761  0.8075
  526SOL     OW11616   2.220   8.714   2.099  0.0394  0.2593  0.0194
  526SOL    HW111617   2.138   8.663   2.126 -0.2112 -0.3868 -1.8575
  526SOL    HW211618   2.195   8.807   2.073 -0.1127  0.0816 -0.4917
  527SOL     OW11619   1.876   2.741   0.944  0.2506  0.5138 -0.6288
  527SOL    HW111620   1.874   2.698   1.034 -0.9068 -0.2120 -0.9853
  527SOL    HW211621   1.970   2.753   0.914  0.6489  1.0505  0.8121
  528SOL     OW11622   1.512   2.948   0.708  0.3405 -0.3615 -0.2534
  528SOL    HW111623   1.457   2.995   0.776  3.3480 -0.4460  2.3557
  528SOL    HW211624   1.598   2.998   0.694  0.2675 -0.9648 -3.1711
  529SOL     OW11625   2.668   4.423   0.780 -0.7465  0.1248 -0.3652
  529SOL    HW111626   2.639   4.427   0.684 -0.9702 -1.6234 -0.3816
  529SOL    HW211627   2.767   4.411   0.784 -0.7374  0.1950 -0.3839
  530SOL     OW11628   2.102   4.542   0.691  0.3803 -0.2223 -0.4387
  530SOL    HW111629   2.050   4.624   0.667 -1.0615 -0.9104  0.2566
  530SOL    HW211630   2.199   4.564   0.696 -0.1330  1.8301  1.3741
  531SOL     OW11631   3.105   3.192   2.238 -0.4263  0.4440  0.0807
  531SOL    HW111632   3.087   3.167   2.143 -0.4544  0.4767  0.0774
  531SOL    HW211633   3.137   3.112   2.289  0.0471  0.5316 -0.0722
  532SOL     OW11634   4.419   2.087   0.532  0.4214 -0.2227  0.1649
  532SOL    HW111635   4.386   2.149   0.603  1.9727  0.9960 -0.1622
  532SOL    HW211636   4.508   2.118   0.499  0.0639 -1.1900 -1.7939
  533SOL     OW11637   0.419   3.974   1.484 -0.4514  0.4154  0.4072
  533SOL    HW111638   0.516   3.949   1.479 -0.5972  0.0367 -0.7381
  533SOL    HW211639   0.370   3.931   1.409 -1.0400  2.6969 -0.5623
  534SOL     OW11640   1.039   8.404   1.425  0.4168 -0.2087  0.1932
  534SOL    HW111641   1.019   8.319   1.474 -0.5001 -0.4333 -0.5595
  534SOL    HW211642   1.008   8.482   1.479 -2.2077 -0.5325 -0.7793
  535SOL     OW11643   0.465   1.007   1.308  0.0239 -0.6404 -0.2414
  535SOL    HW111644   0.486   0.972   1.400  0.6409 -1.0611 -0.5339
  535SOL    HW211645   0.421   1.096   1.316  1.9792  0.2984  0.4248
  536SOL     OW11646   0.534   4.798   1.657 -0.0682 -0.3139 -0.0089
  536SOL    HW111647   0.477   4.717   1.663 -1.0191  0.4025  0.6800
  536SOL    HW211648   0.549   4.835   1.748 -0.3761  0.7994 -0.4058
  537SOL     OW11649   2.219   7.299   1.152 -0.2542  0.1138  0.1504
  537SOL    HW111650   2.136   7.258   1.114 -1.3071  3.0145 -0.7714
  537SOL    HW211651   2.266   7.351   1.082  0.9240  0.6891  1.3500
  538SOL     OW11652   1.334   4.824   0.942  0.6340 -0.0157 -0.3335
  538SOL    HW111653   1.384   4.805   1.027 -1.5561 -0.9165  0.7950
  538SOL    HW211654   1.319   4.923   0.933  0.7875  0.0724  0.3697
  539SOL     OW11655   3.605   9.167   0.561 -0.0868 -0.3785  0.0389
  539SOL    HW111656   3.647   9.207   0.642  0.0395 -0.7394  0.1494
  539SOL    HW211657   3.506   9.178   0.565 -0.1030 -0.6568  0.3792
  540SOL     OW11658   0.009   2.277   2.516 -0.7900  0.2044  0.1448
  540SOL    HW111659  -0.089   2.285   2.495 -0.5003 -0.4802 -1.5778
  540SOL    HW211660   0.053   2.365   2.500 -0.6409 -0.2100 -1.8866
  541SOL     OW11661   1.358   6.574   0.424  0.1823 -0.0508 -0.3061
  541SOL    HW111662   1.434   6.523   0.383  1.4204  0.9177  0.7256
  541SOL    HW211663   1.368   6.573   0.523 -0.2843  1.4078 -0.2363
  542SOL     OW11664   9.019   4.561   0.601  0.0337  0.4472 -0.1377
  542SOL    HW111665   9.095   4.624   0.585 -1.3718  2.4119  0.6418
  542SOL    HW211666   9.023   4.526   0.695 -0.2617  0.8835  0.0379
  543SOL     OW11667   0.486   9.496   2.084 -0.1032  0.2759  0.4540
  543SOL    HW111668   0.547   9.575   2.089 -1.5653  1.4623 -0.3334
  543SOL    HW211669   0.471   9.460   2.177  0.6359  0.8616  0.8039
  544SOL     OW11670   3.585   9.915   2.113 -0.0778 -0.2453 -0.2713
  544SOL    HW111671   3.540   9.948   2.196 -0.2245  0.9890 -0.8287
  544SOL    HW211672   3.655   9.981   2.085  1.4699 -1.7002  0.0720
  545SOL     OW11673   8.961   3.784   1.816 -0.7101  0.0502 -0.2879
  545SOL    HW111674   8.939   3.696   1.777 -1.3556  1.3542 -2.9362
  545SOL    HW211675   8.930   3.857   1.756  3.6335  2.0646 -0.2983
  546SOL     OW11676   3.341   1.610   0.096  0.1397 -0.1439  0.0619
  546SOL    HW111677   3.373   1.671   0.168 -0.0173 -1.4021  1.2140
  546SOL    HW211678   3.363   1.515   0.120 -1.1187 -0.6942 -0.8978
  547SOL     OW11679   3.750   7.998   0.164  0.7103 -0.3055 -0.1193
  547SOL    HW111680   3.698   7.941   0.101 -0.5687  0.6452  0.0462
  547SOL    HW211681   3.787   7.942   0.238  0.9799 -1.1906 -0.9163
  548SOL     OW11682   3.829   1.988   2.364  0.0642 -0.1205  0.0004
  548SOL    HW111683   3.798   2.083   2.373 -1.1025 -0.4955 -0.0876
  548SOL    HW211684   3.755   1.926   2.389  1.1915 -0.9995  1.1785
  549SOL     OW11685   4.150   1.610   1.760  0.0360 -0.2105  0.0519
  549SOL    HW111686   4.082   1.660   1.814 -0.1319  0.0764 -0.4243
  549SOL    HW211687   4.111   1.583   1.672  0.6803  0.3733 -0.4224
  550SOL     OW11688   0.601   1.649   1.896  0.2673  0.2948  0.4039
  550SOL    HW111689   0.520   1.701   1.926  0.1293  0.5953 -0.4762
  550SOL    HW211690   0.579   1.599   1.812  1.1666  0.8219 -0.1444
  551SOL     OW11691   0.362   6.188   1.214 -0.4092 -0.2518  0.4964
  551SOL    HW111692   0.273   6.143   1.213 -0.6353  0.1480  1.6838
  551SOL    HW211693   0.358   6.268   1.275  0.1547  1.0166 -1.1159
  552SOL     OW11694   0.093   1.586   0.204 -0.5153 -0.0059  0.0478
  552SOL    HW111695   0.164   1.635   0.255 -0.6477  0.2112  0.0210
  552SOL    HW211696   0.003   1.621   0.229 -0.5633  0.3538 -0.6070
  553SOL     OW11697   0.975   5.902   0.833 -0.5222 -0.0047  0.3195
  553SOL    HW111698   0.880   5.872   0.836 -0.6236 -0.1811 -2.6312
  553SOL    HW211699   1.034   5.825   0.807  0.1818  0.5462  0.2570
  554SOL     OW11700   2.314   9.292   1.272 -0.4088  0.3680 -0.1686
  554SOL    HW111701   2.390   9.255   1.325  1.0432  1.6886 -1.2774
  554SOL    HW211702   2.228   9.276   1.321  0.5873 -0.9805  1.1852
  555SOL     OW11703   0.623   5.125   2.382  0.8095 -0.0483 -0.3470
  555SOL    HW111704   0.600   5.185   2.459  3.0038 -1.9220  1.8201
  555SOL    HW211705   0.679   5.176   2.316 -0.8646  1.4915 -0.6185
  556SOL     OW11706   1.385   2.700   0.082 -0.4193  0.7411 -0.1987
  556SOL    HW111707   1.454   2.660   0.143  0.9324 -0.2885 -2.3386
  556SOL    HW211708   1.313   2.742   0.137  0.2377 -1.0206  2.1142
  557SOL     OW11709   9.902   2.888   2.459  0.4046  0.5498 -0.1811
  557SOL    HW111710   9.986   2.891   2.513  1.5876  0.8190 -1.9807
  557SOL    HW211711   9.910   2.951   2.381 -0.9863 -0.2947 -1.0410
  558SOL     OW11712   0.052   4.348   1.745 -0.0672 -0.1638 -0.7219
  558SOL    HW111713   0.099   4.261   1.736  1.0654  0.4273 -0.6487
  558SOL    HW211714   0.051   4.395   1.656  0.8652  0.5149 -0.3797
  559SOL     OW11715   2.648   8.892   0.866 -0.1641 -0.1442 -0.1665
  559SOL    HW111716   2.693   8.825   0.807  1.2319  1.2011 -0.6744
  559SOL    HW211717   2.709   8.915   0.942 -0.1330  1.4353 -0.6626
  560SOL     OW11718   2.209   1.853   1.818  0.3243 -0.1847 -0.0568
  560SOL    HW111719   2.243   1.902   1.737  2.3269 -0.2770  0.6826
  560SOL    HW211720   2.196   1.918   1.893 -0.0450 -0.3240 -0.0018
  561SOL     OW11721   1.318   9.784   1.231  0.7117 -0.0126  0.0893
  561SOL    HW111722   1.351   9.693   1.205  0.1105 -0.6949  1.6803
  561SOL    HW211723   1.289   9.834   1.149  1.6542 -1.0028 -0.8621
  562SOL     OW11724   2.020   8.862   1.141  0.3243  0.0537  0.0051
  562SOL    HW111725   2.041   8.797   1.067  0.1712  1.0154 -0.8968
  562SOL    HW211726   2.092   8.932   1.145 -0.3259  0.7291 -0.0720
  563SOL     OW11727   4.272   2.656   0.934  0.2755  0.5181 -0.2814
  563SOL    HW111728   4.259   2.708   1.018 -0.2669 -0.7743  0.4578
  563SOL    HW211729   4.232   2.706   0.857 -1.2309  0.6744  0.5905
  564SOL     OW11730   0.458   3.848   1.184  0.0908 -0.0933 -0.4194
  564SOL    HW111731   0.360   3.870   1.193  0.5642  1.8422  0.0780
  564SOL    HW211732   0.470   3.749   1.192 -1.8845 -0.3937 -0.9133
  565SOL     OW11733   0.825   8.681   2.294  0.3328 -0.3144  0.0036
  565SOL    HW111734   0.925   8.685   2.299  0.3417  0.7818 -0.7612
  565SOL    HW211735   0.797   8.661   2.201 -0.1501 -2.3010  0.5501
  566SOL     OW11736   1.096   6.530   0.347  0.0476  0.2932 -0.2197
  566SOL    HW111737   1.189   6.520   0.382 -0.3556  0.7239  0.9949
  566SOL    HW211738   1.046   6.445   0.362 -0.5771  0.9807  1.6254
  567SOL     OW11739   1.688   4.534   0.427 -0.0726  0.0598 -0.1808
  567SOL    HW111740   1.709   4.499   0.518  0.2504  0.4054 -0.1236
  567SOL    HW211741   1.605   4.589   0.431 -0.2211 -0.1665 -0.1493
  568SOL     OW11742   2.471   9.979   2.312 -0.0638 -0.6528  0.1833
  568SOL    HW111743   2.384   9.934   2.331 -0.1790 -0.2800  0.5231
  568SOL    HW211744   2.457  10.052   2.245 -0.1853  0.0723  0.9970
  569SOL     OW11745   0.990   7.369   2.061  0.2552  0.0916 -0.1314
  569SOL    HW111746   1.002   7.468   2.073  2.4740 -0.0616 -0.8159
  569SOL    HW211747   1.027   7.342   1.972 -0.2539 -1.3699  0.0912
  570SOL     OW11748   2.247   9.655   1.797 -0.0013 -0.2156  0.3457
  570SOL    HW111749   2.261   9.736   1.740  1.1113 -0.3116  0.4624
  570SOL    HW211750   2.268   9.676   1.892 -0.1587 -0.5110  0.4484
  571SOL     OW11751   1.177   3.744   0.250 -0.1699 -0.5479  0.5163
  571SOL    HW111752   1.126   3.713   0.169  0.2078  0.6347 -0.1807
  571SOL    HW211753   1.128   3.715   0.332 -1.6526  0.0285 -0.1375
  572SOL     OW11754   0.684   4.162   1.229 -0.3076  0.1414 -0.1868
  572SOL    HW111755   0.596   4.167   1.182 -0.1944 -1.7018 -0.6328
  572SOL    HW211756   0.681   4.088   1.296  1.2905 -0.7185 -1.0527
  573SOL     OW11757   0.388   0.187   1.192 -0.2900  0.0847 -0.0686
  573SOL    HW111758   0.307   0.139   1.158 -0.4080  0.5596 -0.4653
  573SOL    HW211759   0.359   0.261   1.252 -0.1196 -0.1514  0.3050
  574SOL     OW11760   8.635   1.551   2.155  0.3463  0.2178 -0.1162
  574SOL    HW111761   8.721   1.591   2.185  0.9197 -0.8086 -0.3771
  574SOL    HW211762   8.560   1.587   2.210  1.0205  0.6385  0.5291
  575SOL     OW11763   8.612   4.024   1.235  0.0125  0.4095  0.2553
  575SOL    HW111764   8.603   4.003   1.332  4.8525  1.2883  1.0376
  575SOL    HW211765   8.623   3.940   1.183  1.4763  0.1258  1.0157
  576SOL     OW11766   9.672   3.978   2.042  0.2943  0.6049 -0.1026
  576SOL    HW111767   9.576   3.950   2.042  0.2788  0.6361  0.5999
  576SOL    HW211768   9.699   4.007   1.950  0.0063 -0.6796 -0.5970
  577SOL     OW11769   8.821   3.932   1.438 -0.1245 -0.1616 -0.1340
  577SOL    HW111770   8.877   3.984   1.502 -0.5217  0.5510 -0.3558
  577SOL    HW211771   8.730   3.918   1.478 -0.0431 -0.6131 -0.1093
  578SOL     OW11772   0.715   5.438   1.416 -0.1977  0.2769 -0.2363
  578SOL    HW111773   0.813   5.419   1.421 -0.1567  0.6270  0.2595
  578SOL    HW211774   0.698   5.533   1.441 -0.8869 -0.3445  1.6945
  579SOL     OW11775   2.864   7.128   0.862 -0.2146 -0.6072 -0.1672
  579SOL    HW111776   2.901   7.043   0.824  0.9518 -0.5785  0.8716
  579SOL    HW211777   2.917   7.205   0.826 -0.2084 -0.4467  0.1932
  580SOL     OW11778   2.718   8.676   1.618  0.0937  0.0664  0.1705
  580SOL    HW111779   2.813   8.676   1.587  0.5867  0.3611  1.6063
  580SOL    HW211780   2.704   8.753   1.680 -0.6736 -0.8240  1.1228
  581SOL     OW11781   1.788   4.845   2.475  0.1148  0.3801  0.1600
  581SOL    HW111782   1.693   4.851   2.507 -0.4726  0.5745 -1.5919
  581SOL    HW211783   1.827   4.937   2.469  0.4927  0.2891  1.0455
  582SOL     OW11784   2.597   4.983   1.832 -0.2020 -0.1206  0.1485
  582SOL    HW111785   2.673   5.042   1.804  0.6471 -0.1454  2.2966
  582SOL    HW211786   2.550   4.949   1.751  0.6419  1.7487 -1.1734
  583SOL     OW11787   2.794   1.921   1.229 -0.1059  0.0156 -0.0423
  583SOL    HW111788   2.709   1.887   1.189  0.5478  0.2313 -1.6449
  583SOL    HW211789   2.866   1.852   1.217  0.2267  0.2977  0.3050
  584SOL     OW11790   1.986   6.021   2.573  0.4790 -0.4995  0.3062
  584SOL    HW111791   1.926   6.082   2.522 -0.4881 -1.0813  0.7299
  584SOL    HW211792   2.016   5.947   2.514  1.4995  0.2751 -0.1551
  585SOL     OW11793   3.692   2.727   1.434  0.3334 -0.2714 -0.1158
  585SOL    HW111794   3.618   2.794   1.441  0.0584 -0.8102  2.9333
  585SOL    HW211795   3.660   2.647   1.384 -0.7476  0.0439  0.0581
  586SOL     OW11796   2.485   2.869   0.899  0.0121 -0.0023  0.7860
  586SOL    HW111797   2.558   2.801   0.897  1.0346  1.0969  0.0960
  586SOL    HW211798   2.482   2.917   0.811  0.9793  2.5751  2.1267
  587SOL     OW11799   2.946   4.342   1.105  0.5840  0.4745  0.1840
  587SOL    HW111800   2.978   4.274   1.039 -0.7217  1.4398 -1.5082
  587SOL    HW211801   2.859   4.312   1.145 -1.4381  2.3071 -2.6182
  588SOL     OW11802   0.795   7.205   0.633  0.9574  0.4375  0.2503
  588SOL    HW111803   0.772   7.289   0.585 -0.6204 -0.6959 -1.0333
  588SOL    HW211804   0.849   7.226   0.714 -0.3423  2.7608  0.5380
  589SOL     OW11805   4.074   2.333   2.259  0.2074  0.4855  0.0100
  589SOL    HW111806   4.094   2.238   2.284  0.2602  0.1260 -1.3752
  589SOL    HW211807   3.977   2.342   2.238  0.9481 -0.2132 -3.9462
  590SOL     OW11808   0.238   6.081   1.767 -0.1033 -0.1628  0.3568
  590SOL    HW111809   0.267   6.126   1.683 -2.6726  0.9916  0.0377
  590SOL    HW211810   0.146   6.043   1.754 -0.6099  0.2039  2.6950
  591SOL     OW11811   4.526   2.026   1.203 -0.4698 -0.2379  0.1171
  591SOL    HW111812   4.599   2.087   1.236 -1.4939  1.1724 -0.1728
  591SOL    HW211813   4.484   1.981   1.281  1.2718 -1.7413  0.2278
  592SOL     OW11814   2.633   6.234   1.852 -0.2736 -0.6373  0.0961
  592SOL    HW111815   2.614   6.182   1.935 -2.5136 -1.9112 -1.1831
  592SOL    HW211816   2.594   6.187   1.773 -0.8770  2.1282 -1.3098
  593SOL     OW11817   0.337   2.451   0.828  0.5903 -0.1600 -0.0592
  593SOL    HW111818   0.396   2.403   0.763  0.4815  1.1767 -1.1943
  593SOL    HW211819   0.280   2.386   0.878  0.6891 -1.2198 -1.3155
  594SOL     OW11820   0.670   6.967   2.074  1.3410 -0.2251 -0.2254
  594SOL    HW111821   0.699   7.052   2.031 -0.9223  0.7407  0.0791
  594SOL    HW211822   0.600   6.923   2.017 -0.5202  0.2624  1.6097
  595SOL     OW11823   3.658   3.232   1.175 -0.4214 -0.1924 -0.9482
  595SOL    HW111824   3.751   3.226   1.139  0.3876  2.9410  0.4507
  595SOL    HW211825   3.593   3.240   1.100  0.6804 -0.0254 -1.8899
  596SOL     OW11826   1.520   8.715   1.314  0.4275 -0.3682 -0.6788
  596SOL    HW111827   1.566   8.627   1.301 -2.1504 -1.2364 -4.8809
  596SOL    HW211828   1.570   8.786   1.265  0.9941  0.0555  0.4736
  597SOL     OW11829   2.964   7.836   1.587 -0.0418 -0.3068 -0.5496
  597SOL    HW111830   2.910   7.920   1.590  0.1894 -0.1089 -1.7573
  597SOL    HW211831   2.970   7.803   1.492 -1.5901 -2.6377  0.1011
  598SOL     OW11832   0.683   7.516   0.340 -0.7962 -0.4897  0.0903
  598SOL    HW111833   0.680   7.593   0.404 -1.2637 -0.5847  0.1808
  598SOL    HW211834   0.654   7.433   0.387  0.7064 -0.9221  0.2767
  599SOL     OW11835   8.543   2.850   1.680 -0.0267 -0.7146 -0.0835
  599SOL    HW111836   8.605   2.816   1.750  1.1823  2.0258  0.2287
  599SOL    HW211837   8.490   2.926   1.716  0.0326  0.2247 -1.8824
  600SOL     OW11838   9.130   3.051   2.532 -0.1089 -0.2204  0.3546
  600SOL    HW111839   9.161   3.136   2.491 -2.0416  0.9932  1.3383
  600SOL    HW211840   9.125   3.061   2.631 -0.1594 -1.5395  0.4980
  601SOL     OW11841   9.693   1.048   0.541  0.1505  0.2961  0.4589
  601SOL    HW111842   9.757   1.108   0.492 -0.5612 -0.3844 -1.3630
  601SOL    HW211843   9.619   1.021   0.479  1.5949 -4.1934  0.5697
  602SOL     OW11844   0.371   9.043   0.494 -0.1249 -0.5392  0.1200
  602SOL    HW111845   0.359   8.962   0.551 -0.3365 -1.4669 -1.2431
  602SOL    HW211846   0.300   9.046   0.424  1.0612 -0.2309 -1.0793
  603SOL     OW11847   3.180   0.555   1.221 -0.3995 -0.8070 -0.1200
  603SOL    HW111848   3.256   0.534   1.160  0.8306 -2.5406  1.9257
  603SOL    HW211849   3.216   0.579   1.311 -2.2070  0.8377  0.1989
  604SOL     OW11850   2.441   3.766   2.095 -0.1698  0.6426  0.3963
  604SOL    HW111851   2.491   3.802   2.174  1.3365 -1.0474  0.2433
  604SOL    HW211852   2.424   3.841   2.030  1.6488  1.3921  0.7311
  605SOL     OW11853   1.652   4.032   1.917  0.0451 -0.1710 -0.3586
  605SOL    HW111854   1.585   3.991   1.856  0.2886  0.1924 -0.8760
  605SOL    HW211855   1.692   4.112   1.873 -1.5741  1.5790  1.2667
  606SOL     OW11856   3.729   0.834   0.885  0.3970 -0.2000  0.3212
  606SOL    HW111857   3.810   0.817   0.829  0.9685  2.2740  0.3135
  606SOL    HW211858   3.657   0.874   0.828  0.3695  0.7167  0.9894
  607SOL     OW11859   2.031   4.254   2.381  0.0480 -1.0852 -0.1790
  607SOL    HW111860   2.105   4.314   2.350  0.5752 -2.4626 -1.6758
  607SOL    HW211861   1.945   4.306   2.381  0.5540 -0.2091 -1.0895
  608SOL     OW11862   8.934   4.156   1.890  0.1915  0.1354 -0.3302
  608SOL    HW111863   8.850   4.210   1.889 -0.1707 -0.4170  0.0399
  608SOL    HW211864   8.976   4.161   1.981 -1.3764 -2.5432  0.5892
  609SOL     OW11865   0.273   8.360   2.570 -0.2068  0.2647  0.0895
  609SOL    HW111866   0.333   8.373   2.649  1.8448 -0.9357 -1.2306
  609SOL    HW211867   0.281   8.438   2.508  1.1921 -0.5942 -0.8345
  610SOL     OW11868   3.580   8.865   2.194 -0.6234 -0.0103 -0.5199
  610SOL    HW111869   3.573   8.854   2.294 -1.3661  0.9180 -0.4580
  610SOL    HW211870   3.489   8.882   2.157 -0.5428 -1.7071 -1.5407
  611SOL     OW11871   1.705   6.029   1.165 -0.1141 -0.2411 -0.5687
  611SOL    HW111872   1.693   5.963   1.091 -0.0575  0.0922 -0.8759
  611SOL    HW211873   1.770   5.993   1.232 -2.0873 -1.6603  0.6377
  612SOL     OW11874   0.760   6.782   0.579 -0.3359 -0.2708  0.4863
  612SOL    HW111875   0.800   6.728   0.505 -2.9433 -2.0400  0.2801
  612SOL    HW211876   0.687   6.839   0.543 -0.0818  0.6072  1.3343
  613SOL     OW11877   3.580   0.622   1.522 -0.3578  0.0480 -0.0674
  613SOL    HW111878   3.659   0.664   1.478 -0.3753  0.0016 -0.1417
  613SOL    HW211879   3.529   0.692   1.573  1.2893 -0.3988  2.2917
  614SOL     OW11880   9.966   0.035   1.207  0.1254  0.2794 -0.2157
  614SOL    HW111881   9.876   0.057   1.169 -0.3401  1.4613  1.5008
  614SOL    HW211882   9.960  -0.051   1.258  0.4969 -0.7495 -1.8680
  615SOL     OW11883   8.310   2.274   1.229 -0.1227 -0.3757  0.2650
  615SOL    HW111884   8.408   2.272   1.209  0.0336  1.8608  0.7403
  615SOL    HW211885   8.259   2.289   1.144  0.1654  2.1247  0.5047
  616SOL     OW11886   1.008   2.840   2.312 -0.5572 -0.0942  0.0417
  616SOL    HW111887   1.095   2.806   2.349 -0.4828  1.4298  1.3063
  616SOL    HW211888   1.012   2.839   2.212  0.2840 -1.6066  0.0677
  617SOL     OW11889   1.967   3.640   2.268  0.3223  0.1455 -0.4394
  617SOL    HW111890   2.012   3.729   2.264 -0.8354  0.7115 -1.2375
  617SOL    HW211891   1.893   3.637   2.200 -0.4091 -0.9808  0.3872
  618SOL     OW11892   4.285   2.228   1.139 -0.7982  0.5000  0.6371
  618SOL    HW111893   4.374   2.194   1.169  0.2341  0.3877 -2.3779
  618SOL    HW211894   4.216   2.156   1.151  0.0869 -0.4183  0.3275
  619SOL     OW11895   3.406   1.145   1.043  0.4527 -0.4094  0.7768
  619SOL    HW111896   3.314   1.124   1.011  0.8206  0.5655 -0.9952
  619SOL    HW211897   3.409   1.239   1.078  1.2289  0.2841 -1.0914
  620SOL     OW11898   9.947   8.836   2.315 -0.2842  0.2863  0.4084
  620SOL    HW111899   9.944   8.921   2.262 -2.1904  0.2892  0.4727
  620SOL    HW211900   9.978   8.856   2.408  0.6532  0.6763  0.0207
  621SOL     OW11901   1.385   3.173   0.785 -0.3705  0.7311 -0.4599
  621SOL    HW111902   1.462   3.236   0.799  1.9790 -1.5951 -2.3959
  621SOL    HW211903   1.348   3.186   0.693 -1.4778  0.9475  0.0097
  622SOL     OW11904   9.911   4.072   0.942 -0.4574  0.0242 -0.3087
  622SOL    HW111905   9.992   4.014   0.944  0.0593  0.7323 -0.3887
  622SOL    HW211906   9.874   4.075   0.849  0.6283  1.3231 -0.7241
  623SOL     OW11907   0.276   3.902   1.944 -0.1728 -0.2180  0.2462
  623SOL    HW111908   0.321   3.959   1.874 -1.0032  0.2720  0.1062
  623SOL    HW211909   0.178   3.923   1.945 -0.5824 -2.0679 -0.2108
  624SOL     OW11910   8.702   2.115   0.260 -0.7190 -0.2695 -0.2096
  624SOL    HW111911   8.766   2.062   0.203  0.4826  0.9158  0.0194
  624SOL    HW211912   8.724   2.100   0.356 -0.8509  0.0846 -0.1266
  625SOL     OW11913   2.005   4.222   1.892  0.0121 -0.0917 -0.5254
  625SOL    HW111914   1.986   4.156   1.965  0.4853 -0.4848 -0.7587
  625SOL    HW211915   2.006   4.175   1.804  0.6130  0.1807 -0.6655
  626SOL     OW11916   2.081   1.838   1.473 -0.2499 -0.1419  0.7821
  626SOL    HW111917   2.174   1.809   1.450 -0.4034 -1.6361  1.9561
  626SOL    HW211918   2.049   1.786   1.552 -0.6992  2.9751  2.7396
  627SOL     OW11919   2.108   2.477   2.371  0.0562 -0.4276  0.1428
  627SOL    HW111920   2.147   2.498   2.460 -0.5549  0.9863  0.0891
  627SOL    HW211921   2.018   2.435   2.383  0.5948 -1.5885  0.2114
  628SOL     OW11922   0.475   0.443   0.679 -0.7566  0.2910 -0.3849
  628SOL    HW111923   0.445   0.509   0.611  0.4960 -0.0499 -1.2971
  628SOL    HW211924   0.396   0.406   0.728 -1.5225  1.8084 -0.4639
  629SOL     OW11925   0.316   4.737   0.875  0.1802 -0.1080  0.4093
  629SOL    HW111926   0.337   4.787   0.790  0.5288  0.6333  0.9292
  629SOL    HW211927   0.400   4.720   0.926  0.0494 -1.1713  0.2698
  630SOL     OW11928   3.790   0.693   1.114 -0.3909  0.2581  0.7817
  630SOL    HW111929   3.763   0.760   1.045  0.7579  0.1790  0.2371
  630SOL    HW211930   3.740   0.607   1.098  2.0687 -0.7733 -1.8747
  631SOL     OW11931   2.930   3.130   0.675 -0.2767 -0.2941 -0.0910
  631SOL    HW111932   2.960   3.158   0.583 -1.4257 -0.9378 -0.6801
  631SOL    HW211933   2.910   3.211   0.730 -0.2681  0.0884 -0.6476
  632SOL     OW11934   0.116   0.947   0.540 -0.1219 -0.4342 -0.3280
  632SOL    HW111935   0.036   0.936   0.599  0.2441  0.0537  0.2676
  632SOL    HW211936   0.093   1.005   0.462 -0.3434 -0.2783 -0.1487
  633SOL     OW11937   8.264   1.506   0.037  0.4511 -0.1103  0.1918
  633SOL    HW111938   8.187   1.461  -0.008  1.0970 -0.4951 -0.5297
  633SOL    HW211939   8.348   1.455   0.019  0.4605 -1.3012  3.3151
  634SOL     OW11940   2.930   9.627   1.584  0.2676 -0.4536 -0.4383
  634SOL    HW111941   2.892   9.633   1.676 -1.0835  1.2676 -1.0760
  634SOL    HW211942   3.008   9.689   1.575 -0.8771  0.9419 -1.0205
  635SOL     OW11943   1.191   9.136   0.772 -0.3124  0.3846  0.0639
  635SOL    HW111944   1.091   9.140   0.776 -0.2423  0.4779  2.2687
  635SOL    HW211945   1.228   9.122   0.864  1.6853 -0.3391 -0.8192
  636SOL     OW11946   0.391   7.591   0.799 -0.3234 -0.6606  1.2235
  636SOL    HW111947   0.418   7.641   0.716 -0.2380 -0.6212  1.2746
  636SOL    HW211948   0.438   7.630   0.878 -2.1154  0.7315  1.6192
  637SOL     OW11949   1.009   4.878   0.618 -0.4030 -0.0919 -0.3622
  637SOL    HW111950   1.093   4.852   0.569  0.1643  0.3452  0.3588
  637SOL    HW211951   0.944   4.803   0.616  0.3466 -0.7491 -0.2053
  638SOL     OW11952   0.151   3.308   1.235  0.1716  0.0820 -0.5445
  638SOL    HW111953   0.063   3.354   1.225 -0.1740 -0.3623  0.4498
  638SOL    HW211954   0.200   3.310   1.148 -0.4571  1.0772 -0.8754
  639SOL     OW11955   9.489   3.239   0.601  0.2329 -0.0404  0.5636
  639SOL    HW111956   9.532   3.325   0.576 -0.4396  0.0085 -0.4427
  639SOL    HW211957   9.518   3.167   0.537 -1.1978  0.0013 -0.1521
  640SOL     OW11958   4.858   2.547   1.089  0.9267  0.1538 -0.1046
  640SOL    HW111959   4.772   2.499   1.105  1.1853  0.0276  0.9905
  640SOL    HW211960   4.842   2.628   1.032 -0.1008  0.7136  0.9665
  641SOL     OW11961   0.228   5.198   1.163 -0.0961  0.2784  0.3845
  641SOL    HW111962   0.263   5.272   1.220 -0.2611 -0.6202  1.6778
  641SOL    HW211963   0.304   5.149   1.121  0.0179  1.0628 -0.3305
  642SOL     OW11964   3.296   8.496   0.100 -0.1380  0.5245 -0.1331
  642SOL    HW111965   3.259   8.435   0.030 -0.1387  1.5404 -1.0212
  642SOL    HW211966   3.319   8.443   0.182 -1.0136 -0.5199 -0.5605
  643SOL     OW11967   9.459   2.023   0.335  0.1487 -0.0307 -0.1222
  643SOL    HW111968   9.516   2.094   0.294  1.0237 -1.2958 -1.1282
  643SOL    HW211969   9.410   2.061   0.414  1.0998  1.5109 -0.2564
  644SOL     OW11970   1.666   8.522   1.608 -0.1981  0.0094 -0.4123
  644SOL    HW111971   1.698   8.608   1.648  0.9696 -0.4728 -0.2872
  644SOL    HW211972   1.566   8.519   1.612 -0.2569  1.4076 -0.5288
  645SOL     OW11973   2.625   0.134   0.546 -0.2028 -0.6409 -0.2939
  645SOL    HW111974   2.585   0.201   0.608 -0.1155 -0.3376 -0.5677
  645SOL    HW211975   2.569   0.127   0.464 -0.6473 -1.4707  0.0649
  646SOL     OW11976   0.630   6.323   0.810 -0.9416 -0.1515  0.1569
  646SOL    HW111977   0.589   6.247   0.860 -1.7262  0.0388 -0.1880
  646SOL    HW211978   0.678   6.288   0.729  0.9621 -0.5357  1.4044
  647SOL     OW11979   9.665   6.879   2.265  0.0818 -0.1171 -0.0452
  647SOL    HW111980   9.730   6.811   2.297  0.4586  0.5281  0.5530
  647SOL    HW211981   9.590   6.887   2.330  0.9974  1.4056  0.8500
  648SOL     OW11982   1.361   7.680   2.065 -0.3687  0.0551  0.0641
  648SOL    HW111983   1.424   7.624   2.118  2.1713  2.7965  0.0465
  648SOL    HW211984   1.408   7.717   1.986 -2.9355 -0.4212 -1.7707
  649SOL     OW11985   2.277   7.490   0.356 -0.1847 -0.1795  0.6512
  649SOL    HW111986   2.290   7.442   0.443 -0.1934  0.7585  1.1865
  649SOL    HW211987   2.191   7.541   0.359 -0.0467  0.0832  0.2036
  650SOL     OW11988   2.060   1.687   0.695  0.4297 -0.2019  0.2086
  650SOL    HW111989   2.081   1.689   0.597  0.0589  0.2003  0.1333
  650SOL    HW211990   2.103   1.765   0.741 -1.9562  1.3959 -0.1813
  651SOL     OW11991   0.633   9.172   0.560 -0.3626  0.0989  0.1814
  651SOL    HW111992   0.648   9.239   0.488  1.4384 -0.9232 -0.4103
  651SOL    HW211993   0.553   9.116   0.537 -0.3471  0.3775 -0.5657
  652SOL     OW11994   0.832   4.138   2.260 -0.4844 -0.5481 -0.2222
  652SOL    HW111995   0.835   4.233   2.290 -2.7278 -0.1570 -1.1323
  652SOL    HW211996   0.922   4.095   2.273  0.3183  1.4532  0.9308
  653SOL     OW11997   0.979   0.198   0.336 -0.1225  0.2409 -0.5214
  653SOL    HW111998   0.932   0.217   0.423  1.9408 -1.9411  1.1393
  653SOL    HW211999   0.929   0.241   0.261 -4.1850 -1.1130  1.2702
  654SOL     OW12000   2.577   3.083   2.450 -0.1217 -0.5286 -0.5000
  654SOL    HW112001   2.479   3.065   2.454  0.0597 -1.3775  0.0673
  654SOL    HW212002   2.611   3.056   2.360  0.2219 -3.4592  0.4635
  655SOL     OW12003   2.536   5.023   2.460 -0.7157  0.4792 -0.8752
  655SOL    HW112004   2.558   5.119   2.477 -2.7362  0.7283  0.5290
  655SOL    HW212005   2.567   4.997   2.368  2.1240  1.7302 -0.3051
  656SOL     OW12006   2.615   0.032   2.532 -0.0618 -0.1553  0.1318
  656SOL    HW112007   2.555   0.084   2.593  2.3081  1.3532  1.2661
  656SOL    HW212008   2.563   0.001   2.453 -2.0077  2.2714  0.3841
  657SOL     OW12009   2.709   4.813   2.182 -0.4914  0.2647  0.0130
  657SOL    HW112010   2.708   4.735   2.245  0.6251 -0.2953 -0.6588
  657SOL    HW212011   2.799   4.856   2.184 -0.7012  0.7366 -0.6094
  658SOL     OW12012   9.883   0.900   0.673  0.0079  0.2823  0.3675
  658SOL    HW112013   9.818   0.952   0.616  0.5619  0.4342 -0.1333
  658SOL    HW212014   9.842   0.812   0.698  0.8350 -1.0110 -2.6365
  659SOL     OW12015   2.903   7.583   1.075  0.4902  0.1058 -0.0854
  659SOL    HW112016   2.845   7.659   1.048 -0.6581 -0.2835  1.2370
  659SOL    HW212017   2.850   7.518   1.130  1.3942 -1.7351 -1.3028
  660SOL     OW12018   0.643   5.418   1.129  0.0991 -0.7546 -0.5906
  660SOL    HW112019   0.577   5.492   1.143  1.5098  0.2672  0.6837
  660SOL    HW212020   0.669   5.379   1.217  1.5972 -0.8064 -1.0539
  661SOL     OW12021   2.472   7.185   2.411 -0.0248  0.0681 -0.0773
  661SOL    HW112022   2.461   7.087   2.424 -1.2528  0.0701 -1.0626
  661SOL    HW212023   2.569   7.206   2.400  0.1214 -1.2990 -1.7473
  662SOL     OW12024   1.851   9.630   0.641 -0.4531  0.6415  0.2525
  662SOL    HW112025   1.772   9.682   0.609 -1.3393  0.3484  1.8975
  662SOL    HW212026   1.847   9.621   0.741  2.7001  2.2956  0.5932
  663SOL     OW12027   2.162   8.894   0.070  0.1174  0.9432  0.4309
  663SOL    HW112028   2.259   8.902   0.092  0.7225 -1.1881 -1.3182
  663SOL    HW212029   2.140   8.954  -0.006 -0.0516  1.7806  1.1344
  664SOL     OW12030   1.514   3.584   0.467  0.1469  0.1416 -0.2797
  664SOL    HW112031   1.440   3.646   0.492 -0.9847 -0.8297 -1.1758
  664SOL    HW212032   1.481   3.517   0.400  1.5986 -0.8469 -0.0401
  665SOL     OW12033   1.383   8.667   0.781  0.5214  0.1925  0.3444
  665SOL    HW112034   1.454   8.601   0.756  1.0006  1.6761 -2.5010
  665SOL    HW212035   1.423   8.740   0.836  0.7751 -0.0620  0.4966
  666SOL     OW12036   0.542   1.196   1.638 -0.5682  0.2037  0.3753
  666SOL    HW112037   0.487   1.134   1.694 -0.6660 -1.9429 -2.0091
  666SOL    HW212038   0.622   1.147   1.603 -0.3554  1.5781 -1.1318
  667SOL     OW12039   9.938   9.342   0.281  0.0708  0.3682  0.4007
  667SOL    HW112040   9.955   9.243   0.275  1.9226  0.6842  0.1925
  667SOL    HW212041   9.844   9.361   0.252 -0.2869 -1.3209  0.3826
  668SOL     OW12042   2.488   7.946   2.422 -0.3745  0.4048  0.3083
  668SOL    HW112043   2.492   7.946   2.522 -0.6699  0.7514  0.3213
  668SOL    HW212044   2.487   7.852   2.388 -0.1989  0.2872  0.6275
  669SOL     OW12045   1.541   2.242   0.595 -0.7232 -0.5314 -0.2009
  669SOL    HW112046   1.589   2.281   0.516  0.2496 -2.1993 -0.4594
  669SOL    HW212047   1.595   2.257   0.678 -1.4275  0.6338  0.0574
  670SOL     OW12048   1.892   8.821   2.091  0.1046  0.4636  0.0527
  670SOL    HW112049   1.891   8.734   2.141  1.2877  0.1096 -0.5171
  670SOL    HW212050   1.951   8.812   2.011  1.2734  2.1906  0.7000
  671SOL     OW12051   2.860   2.165   1.278  0.0502 -0.6956  0.2934
  671SOL    HW112052   2.842   2.224   1.357 -1.4332 -0.0064 -0.5250
  671SOL    HW212053   2.806   2.081   1.286 -0.2932 -0.5160 -0.0965
  672SOL     OW12054   9.158   5.312   0.573  0.1874  0.0697 -0.0462
  672SOL    HW112055   9.106   5.227   0.566 -0.3119  0.3630  0.0687
  672SOL    HW212056   9.099   5.390   0.551  0.7699  0.3493 -0.6427
  673SOL     OW12057   3.558   9.680   2.230 -0.1798 -0.3393 -0.1585
  673SOL    HW112058   3.585   9.595   2.184  0.4537 -0.6507  0.7814
  673SOL    HW212059   3.576   9.757   2.169 -0.8032 -0.8742 -1.0395
  674SOL     OW12060   3.131   1.348   1.198  0.1726  0.2144 -0.1869
  674SOL    HW112061   3.124   1.433   1.250 -0.2874  0.5911 -0.8465
  674SOL    HW212062   3.059   1.346   1.129 -0.1995 -1.0084  0.2350
  675SOL     OW12063   3.283   2.316   1.571 -0.2759 -0.5368 -0.1948
  675SOL    HW112064   3.329   2.307   1.659  0.2562  1.1431 -0.2943
  675SOL    HW212065   3.252   2.410   1.558 -0.0153 -0.6753 -1.9723
  676SOL     OW12066   0.141   4.097   1.620  0.0594  0.5924 -0.2917
  676SOL    HW112067   0.227   4.047   1.631  1.0255  2.1267 -0.7184
  676SOL    HW212068   0.095   4.066   1.537  1.5638  1.7139 -1.5656
  677SOL     OW12069   2.512   0.591   2.138  0.4289  0.0528  0.4779
  677SOL    HW112070   2.529   0.598   2.040  1.0958  0.5872  0.6227
  677SOL    HW212071   2.511   0.683   2.178  2.8669 -0.2913  1.4039
  678SOL     OW12072   0.845   3.120   0.568 -0.4744 -0.1109  0.1367
  678SOL    HW112073   0.929   3.136   0.516  0.5084 -0.8901  1.4536
  678SOL    HW212074   0.824   3.022   0.566  0.1518 -0.2978  2.0629
  679SOL     OW12075   0.578   0.351   0.180  0.0594  0.2049  0.3364
  679SOL    HW112076   0.571   0.257   0.213 -0.2433  1.4549  4.0931
  679SOL    HW212077   0.525   0.412   0.240  3.0163  3.2019  0.0760
  680SOL     OW12078   0.293   7.430   1.354 -0.3546  0.3993 -0.3593
  680SOL    HW112079   0.379   7.415   1.403 -1.0358 -0.8550  0.4832
  680SOL    HW212080   0.312   7.470   1.264  1.1971 -1.0349 -0.6920
  681SOL     OW12081   3.950   2.742   2.227  0.1857  0.2323 -0.2754
  681SOL    HW112082   3.992   2.715   2.314  0.5752 -0.5994 -0.7102
  681SOL    HW212083   3.879   2.811   2.244  1.1891  1.0776  0.5491
  682SOL     OW12084   4.378   1.612   1.484 -0.5408  0.2038  0.0475
  682SOL    HW112085   4.419   1.523   1.505  0.4440  0.4375 -0.8436
  682SOL    HW212086   4.280   1.600   1.467 -0.3448 -0.7741 -0.4441
  683SOL     OW12087   8.638   4.232   0.195 -0.0430  0.8268 -0.0921
  683SOL    HW112088   8.690   4.223   0.280 -0.7223 -0.1076  0.2321
  683SOL    HW212089   8.637   4.144   0.147 -0.3218  1.1505 -0.6814
  684SOL     OW12090   0.961   4.640   0.180  0.0523  0.6540 -0.9912
  684SOL    HW112091   1.040   4.698   0.159  0.7541 -0.2905 -1.0432
  684SOL    HW212092   0.985   4.577   0.254 -0.1636 -0.6157 -1.9855
  685SOL     OW12093   2.301   5.771   0.529  0.4803 -0.0094 -0.1521
  685SOL    HW112094   2.274   5.866   0.544 -0.5553 -0.3209  0.0295
  685SOL    HW212095   2.335   5.731   0.614  2.6807  0.7362 -0.6518
  686SOL     OW12096   0.826   0.203   1.320  0.0479 -0.0391 -0.0450
  686SOL    HW112097   0.777   0.178   1.237  0.5650 -0.5087 -0.2097
  686SOL    HW212098   0.921   0.222   1.298  0.5541 -1.6899  0.6838
  687SOL     OW12099   1.786   8.992   0.922  0.7225  0.0431 -0.0231
  687SOL    HW112100   1.865   9.039   0.961  0.2477  0.6405  0.2336
  687SOL    HW212101   1.743   9.050   0.853  0.3111 -0.1293  0.0822
  688SOL     OW12102   3.209   7.874   1.669 -0.0568 -0.6841 -0.1619
  688SOL    HW112103   3.206   7.840   1.763  1.1119 -0.0609  0.1141
  688SOL    HW212104   3.132   7.836   1.617  0.4304 -2.6083  0.5035
  689SOL     OW12105   1.698   9.033   2.117  0.1159 -0.6371 -0.6501
  689SOL    HW112106   1.767   8.961   2.124 -2.0266 -2.5300  2.4484
  689SOL    HW212107   1.634   9.011   2.043 -1.4936 -2.8904  1.3307
  690SOL     OW12108   2.457   1.889   0.173  0.0590  0.0697  0.0809
  690SOL    HW112109   2.507   1.873   0.257 -0.9187  1.0503  0.8725
  690SOL    HW212110   2.518   1.880   0.094  0.6999 -2.0721  0.8095
  691SOL     OW12111   1.525   2.679   0.553  0.2754  0.6911  0.4718
  691SOL    HW112112   1.445   2.673   0.613 -0.4036 -1.7208 -0.6078
  691SOL    HW212113   1.608   2.663   0.606 -0.0517  1.7493  1.3276
  692SOL     OW12114   2.749   2.415   0.728 -0.3403 -0.1310  0.1878
  692SOL    HW112115   2.739   2.494   0.668 -1.7188  0.4841  1.2123
  692SOL    HW212116   2.659   2.379   0.751  0.2219 -1.0102  1.0370
  693SOL     OW12117   1.022   5.154   0.524  0.3433 -0.7021 -0.0746
  693SOL    HW112118   1.018   5.064   0.567 -1.4855 -0.4818  0.2335
  693SOL    HW212119   1.067   5.147   0.435  1.3530 -1.6864  0.5040
  694SOL     OW12120   0.143   7.400   0.151 -0.2793 -0.1997 -0.1692
  694SOL    HW112121   0.170   7.482   0.100 -4.1262  1.2662  0.0253
  694SOL    HW212122   0.101   7.334   0.088 -0.7404 -0.3813  0.3261
  695SOL     OW12123   1.054   6.393   1.479  0.5850 -0.0373  0.0212
  695SOL    HW112124   1.077   6.489   1.494 -0.8383  0.2424  0.5453
  695SOL    HW212125   0.954   6.383   1.481  0.7122 -1.4359 -0.5815
  696SOL     OW12126   0.854   6.217   0.667 -0.4624 -0.1685  0.2873
  696SOL    HW112127   0.940   6.227   0.717  1.0895  1.7187 -2.5618
  696SOL    HW212128   0.856   6.133   0.612  0.1238  0.5068 -0.7441
  697SOL     OW12129   9.510   0.759   0.295  0.3917 -0.4385  0.2430
  697SOL    HW112130   9.421   0.728   0.262  0.1030  1.0995 -0.4642
  697SOL    HW212131   9.582   0.706   0.251 -0.1030 -0.3562 -0.6756
  698SOL     OW12132   1.570   7.565   2.242  0.1877 -0.1923  0.2089
  698SOL    HW112133   1.657   7.558   2.194  0.6062  0.0713  0.9308
  698SOL    HW212134   1.583   7.547   2.339 -0.1587  2.0354  0.7171
  699SOL     OW12135   2.596   0.661   0.869  0.5219  0.1572  0.2279
  699SOL    HW112136   2.596   0.653   0.770  0.1097  1.4919  0.1116
  699SOL    HW212137   2.648   0.743   0.896 -1.0879  0.9443  1.0075
  700SOL     OW12138   0.290   0.463   2.061  0.1532 -0.2952 -0.0894
  700SOL    HW112139   0.198   0.428   2.079 -0.2169 -0.0065 -1.3608
  700SOL    HW212140   0.296   0.558   2.091 -0.9038  0.6447 -2.7157
  701SOL     OW12141   9.002   2.408   2.446  0.2686 -0.5615  0.0506
  701SOL    HW112142   8.938   2.466   2.496  1.1312 -1.2501  2.0042
  701SOL    HW212143   9.092   2.451   2.445  0.0393 -0.0813 -1.8085
  702SOL     OW12144   1.585   7.525   1.180  0.2444 -0.0476  0.9834
  702SOL    HW112145   1.586   7.527   1.280  2.2930  0.1489  0.9853
  702SOL    HW212146   1.679   7.533   1.146 -0.6353  2.2522 -1.0093
  703SOL     OW12147   1.445   9.232   0.710 -0.0641  0.2868  0.5949
  703SOL    HW112148   1.468   9.165   0.640  0.1981  0.9435  0.0489
  703SOL    HW212149   1.348   9.224   0.733  0.1081 -0.7081  0.9971
  704SOL     OW12150   4.824   3.154   1.690  0.5011 -0.2693 -0.0684
  704SOL    HW112151   4.919   3.177   1.707  0.8164 -0.9273 -0.9561
  704SOL    HW212152   4.766   3.207   1.752  1.3608  1.0565 -0.3969
  705SOL     OW12153   2.005   5.687   2.096  0.6010  0.3867 -0.2115
  705SOL    HW112154   1.955   5.694   2.009  0.7026  3.0956 -0.1135
  705SOL    HW212155   2.026   5.592   2.116 -0.5211 -0.3722 -2.5500
  706SOL     OW12156   0.825   4.590   0.832  0.1712 -0.2109 -0.3346
  706SOL    HW112157   0.738   4.608   0.787  0.0289  2.3238  0.8877
  706SOL    HW212158   0.833   4.648   0.914  2.2964 -1.5834  0.4700
  707SOL     OW12159   2.343   8.322   1.938 -1.0240  0.0241 -0.6426
  707SOL    HW112160   2.371   8.418   1.928  1.8230 -0.9000 -2.1782
  707SOL    HW212161   2.248   8.312   1.909 -1.2240  2.3019 -0.8998
  708SOL     OW12162   3.271   1.198   2.074 -0.2157 -0.1762  0.2297
  708SOL    HW112163   3.203   1.139   2.116 -1.1867  0.1365 -0.8714
  708SOL    HW212164   3.251   1.294   2.097 -1.0974  0.0451 -1.3930
  709SOL     OW12165   2.258   6.029   0.577 -0.3240 -0.1226  0.5033
  709SOL    HW112166   2.339   6.085   0.564 -0.1078 -0.1922  1.4754
  709SOL    HW212167   2.184   6.061   0.518  0.1268  0.5131  0.2898
  710SOL     OW12168   1.157   2.557   0.322  0.0565  0.7086 -0.4017
  710SOL    HW112169   1.187   2.468   0.356  0.3140  1.5675  1.6452
  710SOL    HW212170   1.219   2.628   0.355 -1.9653  2.0398  0.6158
  711SOL     OW12171   8.355   1.823   2.444  0.2845 -0.4829 -0.5721
  711SOL    HW112172   8.278   1.879   2.475  0.3296  0.4461 -2.1034
  711SOL    HW212173   8.441   1.862   2.479  0.2137 -0.3910 -0.4985
  712SOL     OW12174   1.938   9.663   1.679 -0.3184  0.2845  0.0111
  712SOL    HW112175   2.014   9.666   1.743 -0.9335 -1.2044  0.8373
  712SOL    HW212176   1.972   9.635   1.589  0.2760  0.6964  0.1038
  713SOL     OW12177   9.228   4.406   2.261  0.0826 -0.4571 -0.0140
  713SOL    HW112178   9.228   4.346   2.340  0.3105  0.5488  0.7534
  713SOL    HW212179   9.303   4.472   2.268 -0.9355  0.7440 -0.2126
  714SOL     OW12180   1.975   5.547   0.179  0.5516 -0.4778 -0.0687
  714SOL    HW112181   1.939   5.465   0.222 -0.0205  0.4295  1.2118
  714SOL    HW212182   2.007   5.611   0.249  1.6833  0.0838 -1.0748
  715SOL     OW12183   0.769   1.920   2.225  0.0622  0.1406  0.3722
  715SOL    HW112184   0.732   1.947   2.136 -2.6407 -0.1289  1.3697
  715SOL    HW212185   0.701   1.868   2.275  2.3364 -1.5968  1.7604
  716SOL     OW12186   3.663   2.257   1.824  0.3757  0.0805 -0.7878
  716SOL    HW112187   3.574   2.288   1.792  0.2417 -0.0692 -0.5551
  716SOL    HW212188   3.730   2.267   1.750  0.1320  0.0366 -1.0150
  717SOL     OW12189   0.567   9.335   0.106  0.1437 -0.4297 -0.7578
  717SOL    HW112190   0.584   9.433   0.119  0.1042 -0.5383  0.1502
  717SOL    HW212191   0.646   9.294   0.061  0.8523 -0.2815  0.3215
  718SOL     OW12192   9.913   5.533   1.793  0.1505 -0.1516  0.1069
  718SOL    HW112193   9.831   5.518   1.738  1.3037  0.4084 -1.7983
  718SOL    HW212194   9.904   5.485   1.880 -2.5991  0.6933  0.3195
  719SOL     OW12195   9.683   5.685   2.256 -0.0429 -0.2423 -0.0581
  719SOL    HW112196   9.701   5.666   2.353  0.0694  1.3398  0.2547
  719SOL    HW212197   9.722   5.612   2.200  0.7465 -0.6844  1.0362
  720SOL     OW12198   0.759   0.188   2.052  0.0585 -0.3425  0.0734
  720SOL    HW112199   0.802   0.263   2.102  0.7667 -0.2505 -0.6644
  720SOL    HW212200   0.825   0.113   2.042  0.5110  0.3506 -2.2797
  721SOL     OW12201   0.462   3.066   1.707 -0.4641  0.1964 -0.0929
  721SOL    HW112202   0.419   2.995   1.764 -1.8238  0.6539 -0.5218
  721SOL    HW212203   0.441   3.156   1.746 -0.5520  0.4611 -0.7562
  722SOL     OW12204   0.967   8.132   1.814  0.6863  0.6296  0.0508
  722SOL    HW112205   0.889   8.090   1.862  1.3384 -0.0773  0.4921
  722SOL    HW212206   1.051   8.082   1.836  1.1792  1.0366 -0.8825
  723SOL     OW12207   3.310   4.159   1.165 -0.4418 -0.1855 -0.1159
  723SOL    HW112208   3.410   4.160   1.164 -0.4192  0.1329 -2.9411
  723SOL    HW212209   3.278   4.111   1.246  2.0226 -2.2333 -0.2779
  724SOL     OW12210   0.229   6.376   2.537 -0.4864 -0.0712  0.5754
  724SOL    HW112211   0.300   6.311   2.563 -0.2364 -0.2114 -0.4524
  724SOL    HW212212   0.188   6.349   2.450 -0.9787  0.6721  0.5631
  725SOL     OW12213   0.802   5.527   2.472  0.0694  0.3163  0.6325
  725SOL    HW112214   0.808   5.623   2.499  0.3147  0.2754  0.7204
  725SOL    HW212215   0.800   5.521   2.373 -0.6400  0.4551  0.6346
  726SOL     OW12216   2.691   9.333   0.158 -0.3078 -0.0682 -0.2867
  726SOL    HW112217   2.637   9.377   0.086 -1.4316 -0.9153  0.0100
  726SOL    HW212218   2.704   9.397   0.234 -0.0926  0.4564 -0.7696
  727SOL     OW12219   0.702   2.495   1.990 -0.4899 -0.2228 -0.2369
  727SOL    HW112220   0.687   2.407   1.945 -2.3225 -0.6975  1.2321
  727SOL    HW212221   0.729   2.478   2.085 -0.8802  0.8158  0.0553
  728SOL     OW12222   2.229   5.045   1.389 -0.2471 -0.3867  0.1808
  728SOL    HW112223   2.139   5.058   1.432  0.2400  1.2828  0.7407
  728SOL    HW212224   2.295   5.108   1.430  0.3294  1.0008 -2.7539
  729SOL     OW12225   3.802   3.234   0.901 -0.0288  0.1789  0.1715
  729SOL    HW112226   3.834   3.140   0.905 -0.6717 -0.0347  0.3405
  729SOL    HW212227   3.860   3.286   0.839 -0.7348 -0.7564 -1.3037
  730SOL     OW12228   1.656   4.045   2.190  0.5650  0.2947  0.5778
  730SOL    HW112229   1.648   4.037   2.090  0.1345 -1.3172  0.7313
  730SOL    HW212230   1.583   4.105   2.224 -0.6170 -0.8525  0.1325
  731SOL     OW12231   0.462   6.193   0.020 -0.6626 -0.0311  0.4494
  731SOL    HW112232   0.533   6.242  -0.030 -0.6363  1.2973  1.7813
  731SOL    HW212233   0.505   6.135   0.090 -0.8525  0.1922  0.7489
  732SOL     OW12234   0.534   2.656   1.531 -0.5133  0.0067  0.1260
  732SOL    HW112235   0.488   2.743   1.511  1.8678  0.7667 -2.3303
  732SOL    HW212236   0.578   2.661   1.620 -1.3233  0.9216  0.4859
  733SOL     OW12237   8.539   1.610   0.057  0.4284 -0.4623  0.0015
  733SOL    HW112238   8.475   1.648  -0.009  0.2846 -1.2099 -0.2948
  733SOL    HW212239   8.495   1.535   0.107  0.3775  0.3854  1.2751
  734SOL     OW12240   4.459   1.858   0.710 -0.4227  0.0617  0.1457
  734SOL    HW112241   4.467   1.924   0.635  0.7953  0.1690  0.3641
  734SOL    HW212242   4.473   1.905   0.797  1.5290 -0.6847  0.2419
  735SOL     OW12243   9.193   2.556   1.131 -0.2268  0.3473 -0.8014
  735SOL    HW112244   9.094   2.573   1.130 -0.1676  0.7708  0.3733
  735SOL    HW212245   9.235   2.604   1.208  0.5816 -1.5578 -0.0120
  736SOL     OW12246   1.291   1.323   2.053 -0.0336 -0.2620 -0.3749
  736SOL    HW112247   1.291   1.246   2.117 -0.6404  0.6808  0.7806
  736SOL    HW212248   1.222   1.389   2.081  1.1859  1.2003 -0.7722
  737SOL     OW12249   2.276   4.671   0.270 -0.3017  0.2129 -0.4099
  737SOL    HW112250   2.241   4.588   0.313 -0.0135  0.3995  0.1902
  737SOL    HW212251   2.370   4.655   0.238 -1.0082 -0.3847 -2.2936
  738SOL     OW12252   0.079   0.463   0.709  0.0864  0.0860  0.2392
  738SOL    HW112253   0.135   0.537   0.747 -0.6213  0.9780 -0.4209
  738SOL    HW212254   0.023   0.423   0.782  1.1302 -0.4017  0.7761
  739SOL     OW12255   1.736   9.956   2.176 -0.0582  0.2089 -0.6144
  739SOL    HW112256   1.722   9.879   2.114 -1.0573  0.0854 -0.2537
  739SOL    HW212257   1.766  10.036   2.124  1.9803 -0.6859 -0.8560
  740SOL     OW12258   9.861   3.260   0.755  0.0276  0.0370 -0.0888
  740SOL    HW112259   9.910   3.187   0.804  1.2335  1.2502  0.5636
  740SOL    HW212260   9.928   3.326   0.719 -1.1031  1.2876  0.0883
  741SOL     OW12261   2.988   8.312   0.611 -0.0266  0.6319  0.4722
  741SOL    HW112262   3.055   8.381   0.583  0.5956 -0.1524 -0.0016
  741SOL    HW212263   2.976   8.316   0.710  0.0359  1.3833  0.4580
  742SOL     OW12264   2.504   1.479   0.442  0.9348  0.1822 -0.0005
  742SOL    HW112265   2.523   1.381   0.441  0.2042  0.0390  0.2438
  742SOL    HW212266   2.431   1.500   0.377  0.4209  0.4297  0.6579
  743SOL     OW12267   9.911   2.802   1.197  0.4381 -0.1581 -0.9239
  743SOL    HW112268   9.994   2.858   1.200  1.1443 -1.2197  0.1183
  743SOL    HW212269   9.905   2.748   1.282 -1.6843  0.4296 -0.6818
  744SOL     OW12270   1.785   1.471   2.036 -0.0906  0.6248  0.1961
  744SOL    HW112271   1.745   1.474   1.944 -0.3425  1.7679  0.3379
  744SOL    HW212272   1.766   1.382   2.077  0.1034  0.0635 -0.8887
  745SOL     OW12273   1.322   0.895   2.060  1.2858 -0.6197 -0.7138
  745SOL    HW112274   1.257   0.906   2.135  1.2319  0.5704 -0.9218
  745SOL    HW212275   1.274   0.860   1.979  0.4337  2.2629 -1.5198
  746SOL     OW12276   0.189   4.349   1.438  0.3614 -0.4693  0.2098
  746SOL    HW112277   0.164   4.259   1.473 -1.0628 -0.1602 -0.0036
  746SOL    HW212278   0.212   4.343   1.341  0.9041 -0.7134  0.3523
  747SOL     OW12279   0.766   6.980   0.934 -0.3046 -0.2255  0.0906
  747SOL    HW112280   0.718   7.012   0.852 -0.0977 -1.3878 -0.4928
  747SOL    HW212281   0.700   6.936   0.996 -0.2282 -0.5730 -0.0750
  748SOL     OW12282   9.725   2.488   0.997  0.0764 -0.1849  0.4689
  748SOL    HW112283   9.817   2.485   1.035  1.0145 -1.9172 -1.8201
  748SOL    HW212284   9.676   2.403   1.020  0.4446 -0.9847 -1.5704
  749SOL     OW12285   9.932   4.964   1.417  0.2137  0.6735  0.6603
  749SOL    HW112286   9.960   4.967   1.513 -0.0805  2.0780  0.7232
  749SOL    HW212287   9.995   4.907   1.365 -0.1320 -0.8095  1.8434
  750SOL     OW12288   1.120   0.683   0.031  0.1281 -0.0720  0.0157
  750SOL    HW112289   1.157   0.592   0.014 -2.1090 -0.7182 -1.8112
  750SOL    HW212290   1.020   0.677   0.034  0.0075  2.1805  0.7925
  751SOL     OW12291   0.302   6.725   0.563 -0.0274 -0.2214 -0.6096
  751SOL    HW112292   0.376   6.659   0.574 -0.5999 -0.4803  2.1516
  751SOL    HW212293   0.320   6.806   0.620 -2.1404 -0.5943  0.6631
  752SOL     OW12294   3.130   3.412   1.653  0.3977  0.1615 -0.3282
  752SOL    HW112295   3.199   3.405   1.582  0.6948 -2.1719  0.1310
  752SOL    HW212296   3.172   3.399   1.743 -0.2255  1.4253  0.1648
  753SOL     OW12297   8.890   3.666   0.754 -0.0220  0.2362 -0.5488
  753SOL    HW112298   8.956   3.619   0.812 -2.1660 -0.0315  1.7873
  753SOL    HW212299   8.856   3.603   0.685  1.2813  0.0339 -1.0139
  754SOL     OW12300   0.791   9.126   0.286 -0.5371 -0.2648 -0.1225
  754SOL    HW112301   0.765   9.144   0.192  0.1608  0.2667 -0.2130
  754SOL    HW212302   0.891   9.121   0.293 -0.5375  0.8175  0.7886
  755SOL     OW12303   1.790   2.660   2.402 -0.1018  0.1233 -0.6257
  755SOL    HW112304   1.715   2.714   2.440 -1.7447 -1.5623 -1.3884
  755SOL    HW212305   1.872   2.672   2.458 -2.4809 -2.4708  3.6595
  756SOL     OW12306   1.144   0.210   0.945  0.2283 -0.6059 -0.2835
  756SOL    HW112307   1.107   0.161   0.866  1.2371 -1.4468 -0.2449
  756SOL    HW212308   1.240   0.184   0.959  1.5503  3.1154 -1.7043
  757SOL     OW12309   1.760   0.872   1.378  0.1879 -0.1551 -0.0628
  757SOL    HW112310   1.858   0.873   1.399  0.4352 -0.2196 -1.1681
  757SOL    HW212311   1.745   0.913   1.289 -0.7172 -0.8082 -0.2205
  758SOL     OW12312   9.549   5.502   0.039  0.0087  0.2313 -0.3489
  758SOL    HW112313   9.571   5.405   0.033 -0.7752  0.0131  0.0964
  758SOL    HW212314   9.631   5.556   0.022  0.3513 -0.4969 -1.0769
  759SOL     OW12315   2.414   1.710   0.906  0.6780 -0.5571  0.2607
  759SOL    HW112316   2.335   1.754   0.863 -0.1783 -0.1097  2.2311
  759SOL    HW212317   2.464   1.657   0.838  1.0351  2.4844 -1.9400
  760SOL     OW12318   0.693   9.799   1.286 -0.1600  0.1741  0.0049
  760SOL    HW112319   0.788   9.770   1.292 -0.2647 -0.3724 -0.8722
  760SOL    HW212320   0.660   9.826   1.376  0.8961  0.5938  0.2653
  761SOL     OW12321   0.144   8.998   1.333 -0.2854  0.1006  0.1427
  761SOL    HW112322   0.210   8.926   1.310  0.2452  0.5042  0.4024
  761SOL    HW212323   0.052   8.959   1.333 -0.2182 -0.0633 -1.9315
  762SOL     OW12324   2.274   6.560   1.958  0.1516  0.1726 -0.1784
  762SOL    HW112325   2.278   6.523   1.865 -3.7728  1.6764 -1.0541
  762SOL    HW212326   2.206   6.634   1.961  1.0717  0.9495  3.6349
  763SOL     OW12327   9.638   3.546   0.291 -0.1945 -0.1041 -0.0463
  763SOL    HW112328   9.574   3.610   0.248  2.1988  2.0055 -0.5619
  763SOL    HW212329   9.593   3.501   0.368 -1.7500  2.6727  0.7323
  764SOL     OW12330   9.826   2.213   1.124 -0.7181  0.3021 -0.5641
  764SOL    HW112331   9.730   2.209   1.097 -0.3454 -1.2340 -1.7637
  764SOL    HW212332   9.871   2.127   1.099 -0.1213 -0.9357  4.2420
  765SOL     OW12333   2.000   3.363   2.217 -0.0332 -0.0687 -0.2720
  765SOL    HW112334   1.903   3.350   2.195 -0.2427  1.9713 -0.6492
  765SOL    HW212335   2.010   3.439   2.281  1.3169 -0.3582 -0.1166
  766SOL     OW12336   1.609   2.231   1.864 -0.6668 -0.1309  0.3827
  766SOL    HW112337   1.541   2.298   1.838 -0.5369 -0.0780  0.1788
  766SOL    HW212338   1.684   2.276   1.913 -0.0467  0.0522 -0.7003
  767SOL     OW12339   0.264   8.598   1.757  0.1028 -0.1792 -0.5181
  767SOL    HW112340   0.353   8.572   1.720 -0.8834 -1.0641 -2.2995
  767SOL    HW212341   0.254   8.697   1.753  1.0916 -0.0517 -0.0881
  768SOL     OW12342   8.901   5.595   0.866 -0.1136  0.5210  0.3343
  768SOL    HW112343   8.853   5.508   0.856  0.9128 -0.1217  0.7875
  768SOL    HW212344   8.999   5.577   0.878  0.2738  1.7979 -0.7719
  769SOL     OW12345   0.121   3.305   2.111  0.4227 -0.9165 -0.0201
  769SOL    HW112346   0.139   3.316   2.208  2.3192 -0.8301 -0.3590
  769SOL    HW212347   0.109   3.395   2.068  0.4866 -0.9119 -0.0290
  770SOL     OW12348   1.518   1.088   1.388  0.7510  0.2290  0.4463
  770SOL    HW112349   1.572   1.010   1.417 -0.4551 -0.4860  0.8335
  770SOL    HW212350   1.469   1.126   1.466 -1.6440 -1.0123 -0.3849
  771SOL     OW12351   0.616   1.684   1.162 -0.3543 -0.4623 -0.1660
  771SOL    HW112352   0.670   1.740   1.100 -1.4329 -1.1330 -1.7385
  771SOL    HW212353   0.613   1.727   1.252  0.2078  1.1568 -0.9103
  772SOL     OW12354   8.616   2.051   0.787 -0.2709 -0.0232 -0.2235
  772SOL    HW112355   8.611   1.962   0.742  0.3011  0.2906 -0.9084
  772SOL    HW212356   8.653   2.039   0.879  0.0738 -0.4572 -0.4150
  773SOL     OW12357   3.262   3.055   0.856 -0.2444  0.0903 -0.3416
  773SOL    HW112358   3.217   3.144   0.864 -2.7366 -1.1195 -0.3072
  773SOL    HW212359   3.194   2.985   0.832  1.6969 -1.7752 -0.5936
  774SOL     OW12360   0.029   5.065   2.376 -0.2663 -0.5632 -0.3044
  774SOL    HW112361   0.090   4.990   2.351  0.3619  0.0211 -0.5508
  774SOL    HW212362  -0.001   5.054   2.471  1.8498  0.2108  0.4958
  775SOL     OW12363   2.201   3.990   0.384  0.2104  0.2766  0.0129
  775SOL    HW112364   2.282   4.000   0.325 -0.4903  0.7006 -0.8902
  775SOL    HW212365   2.167   3.896   0.378  1.3775 -0.2478  1.3807
  776SOL     OW12366   0.196   2.550   0.609 -0.3707 -0.1334 -0.2661
  776SOL    HW112367   0.106   2.586   0.633 -0.9765 -2.6584  1.4695
  776SOL    HW212368   0.239   2.509   0.690  2.1977  0.6943 -1.1481
  777SOL     OW12369   9.831   7.210   1.381 -0.5661  0.4658  0.2066
  777SOL    HW112370   9.812   7.293   1.327 -0.2731  0.8096  0.6332
  777SOL    HW212371   9.865   7.236   1.471  2.3943 -0.1232 -0.6800
  778SOL     OW12372   3.202   8.942   2.433  0.4449 -0.3927  0.2370
  778SOL    HW112373   3.216   8.847   2.405  0.3902 -0.1946 -0.4886
  778SOL    HW212374   3.104   8.959   2.446  0.5973 -0.9683  2.3402
  779SOL     OW12375   4.627   1.611   2.441 -0.4987 -0.5693 -0.4642
  779SOL    HW112376   4.623   1.530   2.501 -0.7961  0.4217  0.8833
  779SOL    HW212377   4.589   1.587   2.352 -3.4941 -1.1205  0.8764
  780SOL     OW12378   5.148   2.633   0.929 -0.2921 -0.2908 -0.1286
  780SOL    HW112379   5.148   2.702   0.857 -0.3458  0.1672  0.3150
  780SOL    HW212380   5.057   2.591   0.934 -0.5256  0.2545  0.2294
  781SOL     OW12381   2.500   5.493   1.640  0.0310  0.0571 -0.3890
  781SOL    HW112382   2.471   5.579   1.681 -0.7126 -0.2599 -0.2323
  781SOL    HW212383   2.442   5.472   1.562  0.6930  0.0721 -0.8852
  782SOL     OW12384   9.995   4.043   1.398  0.5189  0.4976  0.0506
  782SOL    HW112385   9.914   4.007   1.445  1.5023  0.8786  2.0993
  782SOL    HW212386   9.967   4.117   1.336 -0.6922  0.7206  0.8386
  783SOL     OW12387   3.118   0.290   1.743 -0.2692  0.0932  0.1015
  783SOL    HW112388   3.127   0.355   1.667  0.8662  0.9883  0.9949
  783SOL    HW212389   3.206   0.247   1.761 -0.6839 -0.5916  0.4922
  784SOL     OW12390   0.494   2.673   0.958 -0.2335  0.1603  0.1897
  784SOL    HW112391   0.474   2.668   1.056 -2.2562  3.9168  0.0699
  784SOL    HW212392   0.446   2.599   0.910 -0.2188 -0.9676  1.8663
  785SOL     OW12393   1.612   5.548   0.799  0.0864 -0.3007  0.1540
  785SOL    HW112394   1.626   5.452   0.773 -0.5603 -0.5837  0.8257
  785SOL    HW212395   1.544   5.552   0.872 -0.6492  0.7539 -0.5759
  786SOL     OW12396   4.046   8.358   0.382  0.1588 -0.6936 -0.6988
  786SOL    HW112397   4.083   8.328   0.469 -1.0409  3.4892  1.3883
  786SOL    HW212398   3.963   8.306   0.361  0.9092 -2.2797  0.2226
  787SOL     OW12399   1.594   7.518   0.793 -0.4526  0.7172  0.0719
  787SOL    HW112400   1.691   7.508   0.774 -0.2393 -0.3385  1.6137
  787SOL    HW212401   1.581   7.583   0.869 -0.6347 -2.2425  2.6858
  788SOL     OW12402   9.491   5.217   1.675  0.0286  0.6002 -0.2875
  788SOL    HW112403   9.438   5.155   1.617  0.2918 -0.4452  0.5938
  788SOL    HW212404   9.574   5.245   1.627 -0.6685  1.2184 -1.1559
  789SOL     OW12405   1.050   0.271   1.190 -1.0907 -0.1413  0.1731
  789SOL    HW112406   1.111   0.229   1.256 -1.8219 -1.6963 -0.1161
  789SOL    HW212407   1.068   0.233   1.099 -1.6888  0.2615 -0.1182
  790SOL     OW12408   2.047   1.762   2.556  0.1134 -0.1110  0.2425
  790SOL    HW112409   2.122   1.735   2.496 -0.9522  0.6234 -1.4576
  790SOL    HW212410   1.976   1.807   2.502 -2.4786 -2.5605  1.4729
  791SOL     OW12411   9.318   1.501   0.715 -0.0949  0.3165 -0.3036
  791SOL    HW112412   9.392   1.436   0.700 -1.8429 -1.4469 -1.5559
  791SOL    HW212413   9.349   1.593   0.691  2.0019 -0.2194  0.2157
  792SOL     OW12414   9.076   4.202   2.133  0.1862  0.2557  0.5967
  792SOL    HW112415   8.985   4.222   2.170 -0.2066  0.5404 -0.4991
  792SOL    HW212416   9.144   4.256   2.181 -0.4959  1.7942 -0.1265
  793SOL     OW12417   3.981   4.133   0.680  0.1699 -0.4209 -0.4150
  793SOL    HW112418   3.885   4.105   0.680 -0.1884  0.7268  2.4213
  793SOL    HW212419   4.039   4.052   0.686 -0.6180 -1.0679 -1.3446
  794SOL     OW12420   9.708   0.349   0.573  0.0505  0.0089  0.0654
  794SOL    HW112421   9.746   0.264   0.610  0.1126 -1.4112 -3.0807
  794SOL    HW212422   9.776   0.422   0.584  0.4386 -0.5695  1.8017
  795SOL     OW12423   0.089   4.731   1.876  0.2886  0.0880 -0.7280
  795SOL    HW112424   0.101   4.652   1.935  0.1639  0.6947  0.1104
  795SOL    HW212425  -0.007   4.758   1.874  0.1224 -0.5497 -2.0189
  796SOL     OW12426   2.312   3.333   1.396 -0.3210  0.0720  0.2218
  796SOL    HW112427   2.291   3.322   1.494  1.3653  1.1291  0.7246
  796SOL    HW212428   2.353   3.249   1.362  0.1539  0.0993  0.7151
  797SOL     OW12429   1.128   2.344   1.539 -0.0948  0.0950 -0.4424
  797SOL    HW112430   1.097   2.302   1.454  2.0038 -1.2364 -0.5699
  797SOL    HW212431   1.143   2.273   1.608 -0.1518  1.0043  0.5209
  798SOL     OW12432   1.783   0.160   0.779  0.2824  0.2795 -0.0514
  798SOL    HW112433   1.821   0.253   0.784 -0.9049  0.7581  0.4715
  798SOL    HW212434   1.796   0.115   0.867  0.2808  0.1906 -0.0971
  799SOL     OW12435   2.098   7.366   0.762 -0.1855 -0.6934  0.2530
  799SOL    HW112436   2.171   7.382   0.695 -0.1249  0.8114  0.6569
  799SOL    HW212437   2.139   7.349   0.852 -0.3134 -0.7635  0.2983
  800SOL     OW12438   2.219   2.324   1.525  0.6890  0.5031 -0.1484
  800SOL    HW112439   2.256   2.372   1.604  0.0983  1.5415 -0.4914
  800SOL    HW212440   2.260   2.359   1.441  0.1663  0.5003 -0.4124
  801SOL     OW12441   0.011   5.769   0.023  0.0738  0.3296 -0.0335
  801SOL    HW112442  -0.016   5.849   0.076 -0.4441 -1.7095  2.8894
  801SOL    HW212443   0.111   5.761   0.024  0.0515  0.1574  0.8444
  802SOL     OW12444   8.742   5.212   1.346  0.0273  0.2797  0.5390
  802SOL    HW112445   8.791   5.258   1.420 -0.9583  1.0384  0.7364
  802SOL    HW212446   8.688   5.279   1.296 -1.8892 -0.7471  1.1909
  803SOL     OW12447   4.367   2.946   2.406 -0.0332  0.8317  0.0238
  803SOL    HW112448   4.435   2.899   2.461 -0.6358  1.0306  0.9494
  803SOL    HW212449   4.360   2.902   2.317  1.7119  1.1624 -0.2978
  804SOL     OW12450   0.535   0.073   0.214  0.2325 -0.0180 -0.0096
  804SOL    HW112451   0.606   0.002   0.217  0.2454  0.0020  0.1807
  804SOL    HW212452   0.459   0.042   0.158  0.3148 -0.1120 -0.0701
  805SOL     OW12453   0.392   5.077   0.962  0.6882  0.3685  0.0650
  805SOL    HW112454   0.476   5.028   0.983  0.7543  0.8151  0.8365
  805SOL    HW212455   0.411   5.175   0.949  0.0523  0.7400  1.8338
  806SOL     OW12456   0.659   2.883   1.045  0.5282 -0.0698  0.2910
  806SOL    HW112457   0.590   2.815   1.021 -0.7886  1.0795  0.7104
  806SOL    HW212458   0.614   2.962   1.087  1.9429  1.3712 -0.8600
  807SOL     OW12459   1.561   1.511   1.422  0.4253  0.3311  0.3640
  807SOL    HW112460   1.614   1.467   1.494 -1.1680 -0.6716  0.9481
  807SOL    HW212461   1.470   1.535   1.458 -1.2313 -2.2948 -1.9439
  808SOL     OW12462   2.953   7.643   0.702  0.6814  0.1097 -0.2888
  808SOL    HW112463   3.044   7.627   0.663  0.6699 -1.4546  0.2762
  808SOL    HW212464   2.957   7.720   0.766  1.5191  0.2784 -0.5362
  809SOL     OW12465   1.411   0.693   1.713 -0.1691 -0.2790  0.0511
  809SOL    HW112466   1.327   0.640   1.703 -0.0733 -0.4730  0.2668
  809SOL    HW212467   1.473   0.646   1.775  1.7908 -2.2204 -3.2243
  810SOL     OW12468   1.109   8.806   1.463  0.0959 -0.1848  0.5999
  810SOL    HW112469   1.116   8.763   1.373 -0.6457  0.4602  0.2191
  810SOL    HW212470   1.191   8.786   1.516  0.2454 -1.1393  0.0312
  811SOL     OW12471   2.186   2.788   2.378 -0.4804 -0.4230  0.1538
  811SOL    HW112472   2.173   2.811   2.281 -1.8707  1.2742  0.7221
  811SOL    HW212473   2.099   2.762   2.418 -0.0366 -0.4076  1.1405
  812SOL     OW12474   9.054   0.979   0.445 -0.0374 -0.1255  0.2899
  812SOL    HW112475   9.093   0.890   0.424  2.6916  1.2404 -0.6408
  812SOL    HW212476   9.002   0.974   0.531  0.6459 -2.4186  0.5812
  813SOL     OW12477   2.224   3.315   2.488  0.5600  0.4485 -0.4352
  813SOL    HW112478   2.282   3.388   2.524 -1.4190 -0.0516  4.0898
  813SOL    HW212479   2.129   3.346   2.487 -0.3034 -2.0119  1.5402
  814SOL     OW12480   0.629   4.809   0.201 -0.1003 -0.2780  0.3189
  814SOL    HW112481   0.533   4.806   0.175  0.3673 -1.5586 -1.3798
  814SOL    HW212482   0.668   4.717   0.196  1.9249  0.6380 -1.8971
  815SOL     OW12483   2.827   0.257   0.861  0.0872 -0.2831  0.1595
  815SOL    HW112484   2.916   0.216   0.881  1.2746  1.4727 -1.3345
  815SOL    HW212485   2.840   0.350   0.827 -2.1487 -0.9099 -2.6256
  816SOL     OW12486   0.782   2.707   0.865  0.3982  0.1416 -0.0356
  816SOL    HW112487   0.804   2.740   0.957 -1.4430  0.2315  0.3798
  816SOL    HW212488   0.704   2.645   0.870 -0.8977  1.6167 -1.7920
  817SOL     OW12489   3.220   8.886   1.259 -0.1887 -0.2080  0.6139
  817SOL    HW112490   3.202   8.832   1.341  0.8589 -0.4170  0.7125
  817SOL    HW212491   3.187   8.836   1.178  0.7662 -0.9967  0.7039
  818SOL     OW12492   2.633   4.063   0.124 -0.5437  0.4322 -0.1617
  818SOL    HW112493   2.622   3.984   0.063  1.0284  0.4829 -0.5280
  818SOL    HW212494   2.728   4.093   0.122 -1.1275  2.3307  0.0020
  819SOL     OW12495   1.035   8.154   1.087  0.5435 -0.7291  0.7098
  819SOL    HW112496   0.998   8.239   1.124 -0.2354 -0.5633 -0.4003
  819SOL    HW212497   1.121   8.174   1.039  0.9776 -0.7651  1.4679
  820SOL     OW12498   2.117   3.861   2.281  0.4296 -0.0351  0.0414
  820SOL    HW112499   2.059   3.942   2.274  0.7471  0.0484 -2.0168
  820SOL    HW212500   2.206   3.887   2.318  0.0285  0.3049  0.7553
  821SOL     OW12501   3.177   3.591   0.709 -0.8245 -0.2558 -0.0993
  821SOL    HW112502   3.241   3.600   0.785 -2.0596  1.1511  0.7872
  821SOL    HW212503   3.204   3.652   0.635 -0.7189 -0.2223 -0.0336
  822SOL     OW12504   9.112   5.706   1.860  0.6273  0.4130  0.2085
  822SOL    HW112505   9.190   5.674   1.807  2.0057  1.6747  1.4040
  822SOL    HW212506   9.119   5.671   1.954  0.1084  1.0421  0.4904
  823SOL     OW12507   8.820   3.809   0.032  0.4665 -0.0689  0.0841
  823SOL    HW112508   8.888   3.741   0.060  1.1703 -0.3782 -2.3012
  823SOL    HW212509   8.815   3.812  -0.067 -0.5391  2.4209  0.1804
  824SOL     OW12510   1.964   6.695   1.243 -0.4829  0.1061  0.3836
  824SOL    HW112511   2.019   6.772   1.211 -0.8582  0.2534  0.0891
  824SOL    HW212512   2.021   6.634   1.298  0.0706  0.0499 -0.2458
  825SOL     OW12513   3.555   3.558   0.254  0.4685  0.0312  0.4588
  825SOL    HW112514   3.615   3.635   0.235  0.3702 -0.2554 -1.1196
  825SOL    HW212515   3.609   3.480   0.286  0.9263 -0.1465 -0.7156
  826SOL     OW12516   0.516   5.197   0.573 -0.8435 -0.1358 -0.6922
  826SOL    HW112517   0.557   5.141   0.500 -1.0292 -0.3734 -0.6171
  826SOL    HW212518   0.457   5.139   0.630  1.1503 -0.4515  1.0977
  827SOL     OW12519   9.933   0.875   1.280  0.2427  0.3688 -0.1164
  827SOL    HW112520   9.965   0.960   1.239 -1.5907  1.5462  0.8228
  827SOL    HW212521   9.846   0.848   1.240  0.9427 -1.2506 -0.6184
  828SOL     OW12522   0.265   6.689   1.277 -0.6186 -0.8362  0.0171
  828SOL    HW112523   0.260   6.789   1.276 -0.9447 -0.8004  1.9217
  828SOL    HW212524   0.312   6.657   1.196 -2.9989  0.7076 -2.0669
  829SOL     OW12525   3.718   1.693   1.042  0.1109 -0.1114 -0.5716
  829SOL    HW112526   3.710   1.658   0.949 -1.6665  1.8863 -1.2028
  829SOL    HW212527   3.780   1.772   1.043  0.4448 -0.3745  0.0170
  830SOL     OW12528   3.594   1.257   1.351  0.0222 -0.0969 -0.3664
  830SOL    HW112529   3.651   1.261   1.269 -0.2962  0.2180 -0.5706
  830SOL    HW212530   3.504   1.297   1.332 -0.6035 -1.4407 -0.3256
  831SOL     OW12531   0.330   9.607   1.854  0.2909  0.2879  0.5731
  831SOL    HW112532   0.373   9.585   1.767  0.7620 -1.2077  1.1708
  831SOL    HW212533   0.393   9.587   1.929 -1.0927 -1.0515  1.4081
  832SOL     OW12534   0.185   4.259   0.435 -0.5906 -0.5174 -0.2986
  832SOL    HW112535   0.283   4.238   0.438 -0.0192  1.9175 -0.9736
  832SOL    HW212536   0.167   4.341   0.489 -1.6860  1.0464 -2.9414
  833SOL     OW12537   1.539   1.719   0.061  0.1256 -0.6509  0.4342
  833SOL    HW112538   1.534   1.681  -0.031  0.3418  1.1934 -0.3490
  833SOL    HW212539   1.475   1.671   0.121 -0.7721 -1.1459 -0.9270
  834SOL     OW12540   2.942   3.301   0.214 -0.4056  0.3237 -0.0182
  834SOL    HW112541   3.019   3.300   0.150 -1.0725  1.1692 -0.8378
  834SOL    HW212542   2.859   3.271   0.167 -0.2710 -2.3041  1.3017
  835SOL     OW12543   3.382   8.758   0.047  0.2049 -0.9626 -0.2160
  835SOL    HW112544   3.357   8.663   0.065  1.1263 -1.0687  0.5686
  835SOL    HW212545   3.482   8.766   0.044  0.1384  0.0280  0.0348
  836SOL     OW12546   9.977   2.824   0.459 -0.1150  0.3849 -0.0342
  836SOL    HW112547  10.009   2.756   0.392  2.1786  0.7432  0.6678
  836SOL    HW212548   9.904   2.879   0.418  0.4271 -0.1969 -1.8264
  837SOL     OW12549   0.278   7.515   1.686  0.5521  0.1224  0.1384
  837SOL    HW112550   0.299   7.452   1.761 -0.4869 -2.3253 -1.5552
  837SOL    HW212551   0.204   7.477   1.631 -0.4170  3.0924 -0.6827
  838SOL     OW12552   1.178   6.108   1.957  0.0442 -0.4577 -0.3688
  838SOL    HW112553   1.180   6.152   1.867 -0.6155 -2.5173 -1.4364
  838SOL    HW212554   1.249   6.147   2.015  0.6709  0.7079 -1.8861
  839SOL     OW12555   0.575   8.640   2.457 -0.3000  0.1044 -0.2910
  839SOL    HW112556   0.671   8.632   2.429 -0.6088  0.8743 -1.6329
  839SOL    HW212557   0.570   8.668   2.553  0.8393  0.9377 -0.4610
  840SOL     OW12558   9.009   4.699   2.015  0.3515 -0.0999 -0.0977
  840SOL    HW112559   9.023   4.646   2.099  1.7807  0.0968 -0.2093
  840SOL    HW212560   9.016   4.638   1.936  1.1961  0.1074 -0.1844
  841SOL     OW12561   1.642   0.587   0.678 -0.2662  1.0644 -0.0180
  841SOL    HW112562   1.671   0.682   0.668 -0.8435  1.1868 -0.5612
  841SOL    HW212563   1.667   0.536   0.596 -0.5981  0.9109 -0.0214
  842SOL     OW12564   2.550   1.909   1.055 -0.2070 -0.3055 -0.4761
  842SOL    HW112565   2.462   1.913   1.103  0.0657  0.1296 -0.0104
  842SOL    HW212566   2.541   1.850   0.974 -1.1941  0.5362 -0.9934
  843SOL     OW12567   1.406   7.399   0.625  0.5937  0.0318  0.3410
  843SOL    HW112568   1.457   7.468   0.676  0.4556  0.1909  0.2645
  843SOL    HW212569   1.372   7.439   0.540  1.6710 -0.5059 -0.3600
  844SOL     OW12570   9.756   4.762   1.997 -0.3627 -0.3518  0.7340
  844SOL    HW112571   9.771   4.810   2.084 -3.0228  1.0232  0.4831
  844SOL    HW212572   9.689   4.690   2.010  0.0030 -0.8235  0.0282
  845SOL     OW12573   1.388   8.440   0.183  0.3810 -0.4300  0.3984
  845SOL    HW112574   1.408   8.398   0.271  1.2050  1.8560  1.3402
  845SOL    HW212575   1.330   8.379   0.129  1.8265 -2.9101  1.5416
  846SOL     OW12576   1.778   7.576   2.082 -0.0436 -0.2146  0.0403
  846SOL    HW112577   1.797   7.484   2.049  0.0591 -0.2224  0.1199
  846SOL    HW212578   1.862   7.631   2.079 -0.1509 -0.0652 -0.1928
  847SOL     OW12579   0.909   6.785   1.878  0.0361  0.2608 -0.1579
  847SOL    HW112580   0.924   6.854   1.949 -0.4213 -1.1087  1.3011
  847SOL    HW212581   0.860   6.707   1.918 -0.2966 -0.4864 -2.0088
  848SOL     OW12582   2.285   5.100   0.829  0.6791  0.5343  0.1907
  848SOL    HW112583   2.228   5.081   0.749  0.8328 -0.4943  0.3190
  848SOL    HW212584   2.264   5.034   0.901  0.6518  1.3625  0.9474
  849SOL     OW12585   0.208   2.870   0.647 -0.1155 -0.0871 -0.0657
  849SOL    HW112586   0.281   2.803   0.632 -1.0541 -1.3637  0.9118
  849SOL    HW212587   0.129   2.845   0.591 -1.0322 -0.7231  1.4978
  850SOL     OW12588   4.022   1.669   2.511  0.4575 -0.5069 -0.0309
  850SOL    HW112589   4.023   1.768   2.505 -1.4056 -0.4858 -0.2990
  850SOL    HW212590   4.056   1.629   2.426  0.4275 -0.0956 -0.2346
  851SOL     OW12591   2.754   1.111   0.610 -0.5228 -0.2587 -0.1585
  851SOL    HW112592   2.794   1.020   0.619 -1.6997 -0.9965 -2.0674
  851SOL    HW212593   2.675   1.118   0.671 -0.4061 -0.4931  0.0225
  852SOL     OW12594   1.959   9.096   1.542 -0.0649 -0.1439  0.2146
  852SOL    HW112595   1.943   9.020   1.480  1.7173  2.3167 -3.4273
  852SOL    HW212596   1.871   9.130   1.576 -1.0972 -1.2127 -1.3303
  853SOL     OW12597   0.154   6.727   2.181 -0.5915 -0.0079 -0.6726
  853SOL    HW112598   0.130   6.820   2.152  0.8128  0.5708 -0.0057
  853SOL    HW212599   0.164   6.725   2.280 -1.2349 -1.0325 -0.6153
  854SOL     OW12600   9.555   1.908   1.254 -0.2249 -0.2746 -0.1684
  854SOL    HW112601   9.653   1.925   1.268 -0.4971  0.7326  0.5819
  854SOL    HW212602   9.539   1.810   1.249  0.6209 -0.4993  1.2853
  855SOL     OW12603   1.066   4.111   0.644 -0.3985 -0.6824 -0.7595
  855SOL    HW112604   1.089   4.140   0.736  1.0288 -0.4671 -1.1784
  855SOL    HW212605   1.130   4.152   0.579 -0.8069 -1.5930 -1.7466
  856SOL     OW12606   2.736   0.631   1.201  0.2159 -0.4390  0.1344
  856SOL    HW112607   2.823   0.591   1.173 -0.6822  0.5091 -4.2527
  856SOL    HW212608   2.731   0.726   1.170 -1.7354  0.0475  1.8095
  857SOL     OW12609   3.655   4.421   0.852  0.2779 -0.2555  0.2294
  857SOL    HW112610   3.665   4.487   0.927 -1.7797  0.7501 -0.3376
  857SOL    HW212611   3.703   4.455   0.771  1.1257 -0.5541  0.6031
  858SOL     OW12612   8.677   5.001   1.048  0.0574  0.5622  0.4683
  858SOL    HW112613   8.601   4.981   1.109 -0.0890 -1.7510 -0.4083
  858SOL    HW212614   8.655   4.969   0.955  1.6464  0.8373 -0.0233
  859SOL     OW12615   0.304   5.331   1.650 -0.5037 -0.3640  0.1554
  859SOL    HW112616   0.239   5.339   1.725 -0.6411  0.1803 -0.0248
  859SOL    HW212617   0.395   5.312   1.687 -0.5490  0.0217  0.4657
  860SOL     OW12618   1.798   7.938   1.224 -0.2444 -0.4810 -0.0124
  860SOL    HW112619   1.833   7.858   1.273 -3.3124 -1.2096  1.0857
  860SOL    HW212620   1.766   7.911   1.134 -0.1376 -0.2657 -0.1147
  861SOL     OW12621   9.376   0.991   2.232  0.3882  0.1077 -0.1139
  861SOL    HW112622   9.346   0.975   2.138 -1.2054 -0.4189  0.4568
  861SOL    HW212623   9.352   1.084   2.260 -0.0724 -0.0802  0.1144
  862SOL     OW12624   2.012   1.162   2.248  0.2754  0.5085 -0.2775
  862SOL    HW112625   2.038   1.212   2.331  0.4491 -0.4603  0.2589
  862SOL    HW212626   2.019   1.063   2.265 -0.4186  0.2942 -1.2108
  863SOL     OW12627   0.643   4.507   0.376  0.4502  0.1888 -0.0640
  863SOL    HW112628   0.662   4.429   0.315  1.6220  0.3522  0.0688
  863SOL    HW212629   0.729   4.553   0.398  0.0937 -0.1848  2.1654
  864SOL     OW12630   1.941   9.512   2.371  0.3995 -0.3147  0.7124
  864SOL    HW112631   1.916   9.513   2.274 -0.6293 -0.6495  0.9692
  864SOL    HW212632   2.031   9.470   2.382  1.2354  1.1552 -0.2589
  865SOL     OW12633   3.262   4.317   1.582 -0.3825  0.5610 -0.2609
  865SOL    HW112634   3.166   4.345   1.590  0.0175  1.7490  0.6412
  865SOL    HW212635   3.319   4.381   1.634  0.7034 -1.2245  0.7880
  866SOL     OW12636   0.653   7.898   2.318  0.3663 -0.5476  0.5611
  866SOL    HW112637   0.667   7.993   2.291  1.2892 -0.7511  0.3093
  866SOL    HW212638   0.607   7.895   2.407 -0.5722  0.1304  0.1039
  867SOL     OW12639   9.160   5.568   2.119 -0.0788 -0.2999  0.5209
  867SOL    HW112640   9.231   5.590   2.187  0.0392 -0.0418  0.3116
  867SOL    HW212641   9.195   5.498   2.057 -0.0040 -0.1632  0.4097
  868SOL     OW12642   9.772   4.983   0.522 -0.5011  0.0010  0.1947
  868SOL    HW112643   9.858   4.983   0.471 -0.9031 -1.0139 -0.5210
  868SOL    HW212644   9.774   5.053   0.593  0.3196  1.0355 -0.8230
  869SOL     OW12645   0.894   5.542   1.102  0.1331  0.4426  0.0368
  869SOL    HW112646   0.811   5.494   1.130  0.3945  0.0380  0.1262
  869SOL    HW212647   0.913   5.617   1.165 -0.2234  0.6050 -0.0483
  870SOL     OW12648   2.973   9.566   0.669  0.2797 -0.1852  0.7206
  870SOL    HW112649   2.948   9.500   0.740 -0.8228  1.5935  2.0595
  870SOL    HW212650   2.932   9.655   0.691  1.6174  0.9178 -1.0917
  871SOL     OW12651   1.842   3.888   0.868 -0.0406 -0.4619 -0.2719
  871SOL    HW112652   1.863   3.842   0.782  1.5420  0.9340 -0.6531
  871SOL    HW212653   1.763   3.947   0.856  0.0239 -0.4611 -0.7042
  872SOL     OW12654   4.345   3.035   1.311  0.1774  0.1883 -0.0781
  872SOL    HW112655   4.359   3.104   1.382  0.8104 -0.2480  0.2408
  872SOL    HW212656   4.284   2.963   1.346 -1.4864  1.2070 -0.8509
  873SOL     OW12657   1.414   1.360   0.633 -0.6490 -0.0911 -0.1815
  873SOL    HW112658   1.353   1.438   0.642  0.3358  0.6935 -0.2691
  873SOL    HW212659   1.431   1.321   0.723 -1.2315 -0.2812 -0.1508
  874SOL     OW12660   0.731   2.349   2.480 -0.1234  0.4625  0.1813
  874SOL    HW112661   0.778   2.389   2.558  0.0122 -0.8220  0.7696
  874SOL    HW212662   0.670   2.276   2.511  0.9135 -0.9662 -1.0173
  875SOL     OW12663   0.156   8.510   0.581  0.7535 -0.2303 -0.5081
  875SOL    HW112664   0.243   8.533   0.624  1.4974  0.4542 -2.3558
  875SOL    HW212665   0.170   8.440   0.512  0.0143  0.6556 -1.5697
  876SOL     OW12666   1.793   8.718   0.913 -0.6759  0.0544 -0.3309
  876SOL    HW112667   1.888   8.706   0.944 -0.1273 -0.2122 -2.0811
  876SOL    HW212668   1.776   8.815   0.897 -0.9971  0.2071  0.9026
  877SOL     OW12669   1.810   0.827   0.638 -0.7597  0.5400  0.1882
  877SOL    HW112670   1.898   0.798   0.600 -1.5879 -1.8020 -0.0528
  877SOL    HW212671   1.822   0.857   0.732  0.2602 -0.0697  0.2599
  878SOL     OW12672   2.845   2.046   1.837  0.3576 -0.0225  0.2713
  878SOL    HW112673   2.762   1.991   1.828  0.4947 -0.0337 -1.0048
  878SOL    HW212674   2.828   2.121   1.902 -0.0747 -1.0723  1.3881
  879SOL     OW12675   1.358   6.265   1.033  0.1320 -0.0083  0.2370
  879SOL    HW112676   1.425   6.284   0.961  0.1431 -0.3192  0.1655
  879SOL    HW212677   1.399   6.204   1.101 -0.4864 -1.2062 -0.4480
  880SOL     OW12678   2.717   1.793   1.941  0.5364 -0.0335 -0.0549
  880SOL    HW112679   2.650   1.840   1.884  0.6631 -0.9579 -0.9758
  880SOL    HW212680   2.792   1.761   1.884  1.2162  0.0215  0.8076
  881SOL     OW12681   1.350   1.544   0.167 -0.5169  0.1989 -0.0683
  881SOL    HW112682   1.385   1.487   0.093  0.5994  1.5434 -0.5931
  881SOL    HW212683   1.251   1.532   0.175 -0.7898  0.7355 -2.3909
  882SOL     OW12684   1.780   2.024   1.693  0.1819 -0.6364 -0.4779
  882SOL    HW112685   1.868   2.068   1.708  0.2124 -0.0224 -2.3501
  882SOL    HW212686   1.706   2.091   1.703  0.0296 -0.8142 -0.4015
  883SOL     OW12687   8.482   4.499   1.010 -0.5784  0.1802 -0.1141
  883SOL    HW112688   8.518   4.571   0.950  0.4354  0.1551  0.4523
  883SOL    HW212689   8.531   4.501   1.097  0.2529 -1.9393 -0.5077
  884SOL     OW12690   3.450   0.967   2.461 -0.1973  0.4885 -0.5243
  884SOL    HW112691   3.467   1.026   2.382  0.8243  1.2757  0.2636
  884SOL    HW212692   3.499   0.881   2.449  2.7934  1.9124  0.7550
  885SOL     OW12693   2.387   0.893   0.485 -0.0093  0.1156 -0.1649
  885SOL    HW112694   2.289   0.885   0.466 -0.0440 -2.5051  0.9672
  885SOL    HW212695   2.400   0.915   0.581  0.5446 -0.1047 -0.1907
  886SOL     OW12696   9.335   4.594   0.302 -0.1581  0.7100  0.4186
  886SOL    HW112697   9.426   4.603   0.341  0.4267  1.0246 -0.9653
  886SOL    HW212698   9.339   4.613   0.203 -1.8004  1.2060  0.4225
  887SOL     OW12699   3.335   9.266   0.609  0.0894 -0.1167 -0.1637
  887SOL    HW112700   3.355   9.339   0.674  1.2488 -0.1450 -0.4794
  887SOL    HW212701   3.288   9.303   0.529 -0.5260  0.0604  0.2753
  888SOL     OW12702   1.449   4.702   0.536 -0.1832 -0.0660  0.7591
  888SOL    HW112703   1.365   4.728   0.489 -1.9186 -0.1303  3.7334
  888SOL    HW212704   1.510   4.781   0.540 -0.5141  0.2601 -0.5603
  889SOL     OW12705   2.179   1.272   1.377 -0.2228  0.5481  0.1504
  889SOL    HW112706   2.130   1.357   1.399 -1.2187  0.0099  0.0345
  889SOL    HW212707   2.182   1.260   1.278 -0.0453  0.4580  0.1660
  890SOL     OW12708   1.461   8.627   2.550  0.4725 -0.1009  0.1092
  890SOL    HW112709   1.412   8.714   2.543  1.9591  0.7396 -0.0073
  890SOL    HW212710   1.396   8.551   2.541 -0.7167  0.9944 -0.6451
  891SOL     OW12711   1.778   9.379   1.081 -0.1921  0.4855 -0.5977
  891SOL    HW112712   1.784   9.377   1.180  0.7122 -0.6399 -0.6581
  891SOL    HW212713   1.682   9.371   1.053 -0.3277 -0.8066  0.1702
  892SOL     OW12714   2.007   1.053   0.988  0.2302 -0.4299 -0.5463
  892SOL    HW112715   2.056   1.012   0.911  2.1698 -0.0778  0.4808
  892SOL    HW212716   1.946   1.125   0.954 -1.3616 -2.4581 -2.0865
  893SOL     OW12717   2.023   6.704   0.480 -0.4245  0.6264  0.1714
  893SOL    HW112718   2.093   6.646   0.437 -1.6837 -0.7187 -0.1117
  893SOL    HW212719   1.941   6.705   0.423 -0.1113  3.4848 -0.2999
  894SOL     OW12720   0.464   0.433   1.856  0.2031  0.2004  0.0387
  894SOL    HW112721   0.413   0.440   1.942  1.2320  2.3012  0.5281
  894SOL    HW212722   0.400   0.434   1.779 -0.5970  0.9778  0.6968
  895SOL     OW12723   1.271   8.426   2.499 -0.3094  0.1150  0.1689
  895SOL    HW112724   1.231   8.358   2.561  2.2528 -0.3656  1.3297
  895SOL    HW212725   1.284   8.385   2.409 -0.8701 -0.2124  0.2294
  896SOL     OW12726   3.423   2.519   2.198 -0.1499 -0.2063  0.2257
  896SOL    HW112727   3.444   2.527   2.101 -0.7083 -0.5933  0.0746
  896SOL    HW212728   3.431   2.424   2.227 -0.9679 -0.2497  0.3321
  897SOL     OW12729   2.460   2.372   1.972 -0.0936 -0.2973  0.2115
  897SOL    HW112730   2.405   2.300   2.014 -1.4735 -0.5414 -1.9461
  897SOL    HW212731   2.503   2.338   1.889 -0.5649  1.2946 -0.7053
  898SOL     OW12732   2.896   1.471   2.585 -0.4006 -0.0753  0.6012
  898SOL    HW112733   2.980   1.418   2.593 -0.0725  0.4264  0.5522
  898SOL    HW212734   2.852   1.452   2.497  0.2399  0.4836  0.1574
  899SOL     OW12735   1.574   8.098   0.604 -0.0466 -0.2864  0.7492
  899SOL    HW112736   1.569   7.999   0.616  1.2848 -0.3928  0.5338
  899SOL    HW212737   1.551   8.122   0.510 -0.3352 -0.3944  0.7921
  900SOL     OW12738   2.406   4.309   1.083 -0.1004 -0.1616 -0.1463
  900SOL    HW112739   2.381   4.255   1.003 -1.0112  0.8435 -0.5525
  900SOL    HW212740   2.408   4.250   1.164  2.0369 -1.4359 -1.0858
  901SOL     OW12741   9.990   4.347   2.186 -0.0189  0.0359  0.2237
  901SOL    HW112742   9.966   4.416   2.255 -1.3253 -0.3383  0.1521
  901SOL    HW212743   9.931   4.267   2.196  0.9343 -0.7388 -0.2331
  902SOL     OW12744   2.667   0.932   0.932  0.4113  0.5512 -0.3581
  902SOL    HW112745   2.631   1.017   0.895 -1.9859 -0.2622  0.0386
  902SOL    HW212746   2.689   0.944   1.029 -0.5277  0.5332 -0.1445
  903SOL     OW12747   1.829   4.884   0.233 -0.3029  0.7635 -0.2838
  903SOL    HW112748   1.833   4.845   0.326 -1.5032  1.0565 -0.0999
  903SOL    HW212749   1.921   4.886   0.194  0.2341  0.7494  0.9490
  904SOL     OW12750   0.235   3.310   0.199  0.6572  0.2093 -0.4095
  904SOL    HW112751   0.142   3.294   0.167  0.7039 -1.1888  0.1404
  904SOL    HW212752   0.264   3.402   0.172 -0.5336  0.3022 -1.4090
  905SOL     OW12753   1.054   6.070   1.258 -0.2398  0.7947 -0.3254
  905SOL    HW112754   1.068   6.137   1.184 -0.8077  1.2499 -0.0281
  905SOL    HW212755   0.994   6.110   1.327 -1.2808 -0.3479 -0.5591
  906SOL     OW12756   0.052   1.985   0.536  0.2707  0.4133 -0.0623
  906SOL    HW112757   0.063   2.054   0.465  1.5019 -1.5462 -1.8232
  906SOL    HW212758   0.095   1.899   0.507 -0.7299 -0.9488  2.3058
  907SOL     OW12759   3.497   1.132   2.266 -0.1846 -0.2813 -0.1039
  907SOL    HW112760   3.500   1.208   2.331  0.7402 -0.2480 -0.1788
  907SOL    HW212761   3.423   1.147   2.201 -3.2762 -1.9351  2.8743
  908SOL     OW12762   2.029   8.053   1.342  0.4404 -0.1243 -0.1160
  908SOL    HW112763   2.110   8.070   1.285 -0.3569 -0.3940 -1.3323
  908SOL    HW212764   1.956   8.015   1.286 -0.7241  0.6296  0.8670
  909SOL     OW12765   0.811   0.496   2.433  0.0548 -0.0683  0.1786
  909SOL    HW112766   0.717   0.470   2.412 -0.6319  0.3969  2.5287
  909SOL    HW212767   0.860   0.417   2.470  1.0360 -0.6910 -2.3684
  910SOL     OW12768   4.239   4.375   1.224  0.2251  0.3714  0.8069
  910SOL    HW112769   4.199   4.464   1.204  0.1392  0.3393  0.8361
  910SOL    HW212770   4.255   4.368   1.323  2.0967  1.1457  0.5923
  911SOL     OW12771   3.477   2.898   1.397 -0.2537  0.2299  0.6389
  911SOL    HW112772   3.491   2.888   1.298 -0.4643 -0.3408  0.6626
  911SOL    HW212773   3.522   2.981   1.428 -1.2909  1.1035 -0.1516
  912SOL     OW12774   9.426   5.018   1.505  0.5578 -0.1513  0.3909
  912SOL    HW112775   9.367   5.019   1.424  1.3622  1.4147 -0.2040
  912SOL    HW212776   9.520   4.999   1.477  0.7523 -0.1223  1.0295
  913SOL     OW12777   3.088   2.744   2.036  0.0353  0.0217  0.1498
  913SOL    HW112778   3.062   2.682   1.962  0.2026  0.8438 -0.6174
  913SOL    HW212779   3.092   2.694   2.122  1.3183 -1.3014 -0.6402
  914SOL     OW12780   3.992   3.979   1.053  0.1416 -0.1695 -0.2349
  914SOL    HW112781   3.980   3.892   1.004  1.2273 -0.0685 -0.6901
  914SOL    HW212782   4.086   3.986   1.086 -0.1449  0.5031  0.4571
  915SOL     OW12783   2.436   7.977   1.864  0.3407 -0.3747 -0.5697
  915SOL    HW112784   2.435   7.904   1.795  0.4262  1.1568 -2.2102
  915SOL    HW212785   2.389   8.057   1.828 -0.3783  0.1425  1.5111
  916SOL     OW12786   1.452   0.409   0.185 -0.3023 -0.1322  0.9418
  916SOL    HW112787   1.466   0.311   0.169 -0.3316  0.2718 -1.7206
  916SOL    HW212788   1.526   0.460   0.141 -2.1628  1.2183 -0.6935
  917SOL     OW12789   9.805   2.380   0.511 -0.0574  0.1799 -0.7838
  917SOL    HW112790   9.780   2.433   0.592 -0.4156 -1.7898  0.4455
  917SOL    HW212791   9.762   2.420   0.430 -0.7565  1.4287  0.1852
  918SOL     OW12792   0.804   3.493   1.310 -0.1197 -0.1714 -0.1555
  918SOL    HW112793   0.834   3.454   1.222 -0.1929  1.3252 -0.8549
  918SOL    HW212794   0.884   3.507   1.368 -0.0632 -1.1223  0.0044
  919SOL     OW12795   2.224   9.542   1.257 -0.6950 -0.6328 -0.2146
  919SOL    HW112796   2.198   9.578   1.167  1.1802 -0.1456 -0.5775
  919SOL    HW212797   2.243   9.445   1.249 -0.0488 -0.4880 -0.4453
  920SOL     OW12798   3.213   2.951   2.359 -0.0311  0.3730  0.4013
  920SOL    HW112799   3.141   2.899   2.405  0.2111  0.0984  0.4704
  920SOL    HW212800   3.281   2.888   2.323 -1.1078  0.4783 -1.8944
  921SOL     OW12801   2.535   6.632   0.236 -0.5567 -0.3633  0.0454
  921SOL    HW112802   2.542   6.732   0.227  1.4284 -0.6233 -1.3371
  921SOL    HW212803   2.533   6.608   0.333 -1.8870  1.0657  0.3949
  922SOL     OW12804   0.521   5.676   1.039 -0.7680  0.1175 -0.0581
  922SOL    HW112805   0.454   5.686   1.112 -0.4611 -1.3865  0.4601
  922SOL    HW212806   0.475   5.655   0.953 -1.0851  1.1026 -0.1241
  923SOL     OW12807   4.529   1.738   0.233 -0.1866 -0.1787 -0.0292
  923SOL    HW112808   4.620   1.748   0.192 -0.5201 -0.4016 -0.8317
  923SOL    HW212809   4.523   1.650   0.280  0.6872  0.6909  1.7788
  924SOL     OW12810   9.846   7.789   0.882 -0.1950 -0.3894 -0.0907
  924SOL    HW112811   9.819   7.710   0.827 -0.8765  0.8836 -1.6290
  924SOL    HW212812   9.816   7.873   0.836  1.1260  0.7919  1.1804
  925SOL     OW12813   9.381   4.884   2.173  0.4770  0.0327 -0.4864
  925SOL    HW112814   9.402   4.981   2.167 -0.2542  0.2189 -0.1471
  925SOL    HW212815   9.285   4.872   2.201  0.5956 -0.7793 -0.3983
  926SOL     OW12816   8.030   2.383   2.446 -0.2639 -0.4722 -0.1901
  926SOL    HW112817   8.057   2.350   2.356  0.9613 -2.7543  0.9939
  926SOL    HW212818   7.936   2.418   2.441 -0.2762 -0.7292 -2.2976
  927SOL     OW12819   1.280   1.706   2.394  0.0869  0.1007  0.8444
  927SOL    HW112820   1.365   1.654   2.401  0.1464  0.2467  1.2540
  927SOL    HW212821   1.292   1.796   2.436 -0.9347 -0.7279  3.0227
  928SOL     OW12822   1.544   0.060   1.746 -0.2604 -0.2306 -0.0300
  928SOL    HW112823   1.540  -0.039   1.744  1.2319 -0.4071  2.9522
  928SOL    HW212824   1.630   0.091   1.705 -0.5484 -0.1884 -0.6033
  929SOL     OW12825   0.145   3.914   0.865  0.3450  0.4470 -0.0622
  929SOL    HW112826   0.236   3.873   0.863  0.6719  1.1708 -0.3696
  929SOL    HW212827   0.127   3.959   0.778  0.5009  2.0161  0.6862
  930SOL     OW12828   1.428   9.006   2.562 -0.3787 -0.4685  0.1462
  930SOL    HW112829   1.487   9.064   2.618 -2.2865  1.8666 -0.1833
  930SOL    HW212830   1.386   8.936   2.619  1.5159 -1.2146  0.6581
  931SOL     OW12831   3.645   1.942   1.537  0.1709 -0.4693 -0.4529
  931SOL    HW112832   3.559   1.954   1.588 -0.6999 -0.5678 -1.8589
  931SOL    HW212833   3.651   2.012   1.465  1.3676 -0.3467 -0.2426
  932SOL     OW12834   3.819   1.770   0.653 -0.6409  0.0228  0.6021
  932SOL    HW112835   3.833   1.857   0.702 -0.8789  0.7746 -0.6327
  932SOL    HW212836   3.898   1.753   0.595 -0.6346 -0.5591  0.7827
  933SOL     OW12837   0.883   1.564   1.100 -0.3425  1.0768 -0.9553
  933SOL    HW112838   0.796   1.589   1.141 -1.1576  2.3695 -3.4198
  933SOL    HW212839   0.869   1.490   1.034  1.0584 -1.4234  1.3945
  934SOL     OW12840   0.097   3.646   1.124 -0.2466  0.0749  0.3052
  934SOL    HW112841   0.062   3.641   1.217  1.3016  0.5491  0.9220
  934SOL    HW212842   0.021   3.663   1.061 -1.2628  0.0235  1.5026
  935SOL     OW12843   3.196   4.516   0.705  0.4042 -0.1276  0.3161
  935SOL    HW112844   3.285   4.496   0.747  0.6665 -0.9893 -0.6288
  935SOL    HW212845   3.170   4.610   0.726  1.3307 -0.0103  0.9761
  936SOL     OW12846   0.142   8.851   0.840 -0.4010 -0.0674  0.6020
  936SOL    HW112847   0.044   8.852   0.818 -0.3261 -1.2047  0.1857
  936SOL    HW212848   0.168   8.761   0.874  0.6086  0.0790  0.2365
  937SOL     OW12849   1.805   9.702   1.204 -0.0045  0.0216  0.2776
  937SOL    HW112850   1.742   9.735   1.134 -1.3255  0.6300  1.7222
  937SOL    HW212851   1.884   9.763   1.209  1.0268 -1.0860 -1.9552
  938SOL     OW12852   2.508   1.347   1.083 -0.1462  0.6019  0.0842
  938SOL    HW112853   2.408   1.340   1.086 -0.0784 -0.0655  1.1412
  938SOL    HW212854   2.536   1.442   1.094 -0.6704  0.7856 -0.1855
  939SOL     OW12855   2.449   1.335   0.029  0.1062  0.4043  0.2756
  939SOL    HW112856   2.505   1.381   0.098 -0.0463  1.3267 -0.2051
  939SOL    HW212857   2.377   1.282   0.074 -0.4236  1.5546  0.8191
  940SOL     OW12858   0.948   1.923   0.836 -0.1256  0.4079 -0.0117
  940SOL    HW112859   0.950   2.022   0.847  0.7729  0.3514  0.3649
  940SOL    HW212860   1.039   1.886   0.854 -0.3399 -0.4324 -0.6299
  941SOL     OW12861   1.536   1.009   0.533 -0.3379 -0.4599 -0.6038
  941SOL    HW112862   1.517   1.082   0.467  1.3901  0.7981  0.2588
  941SOL    HW212863   1.499   1.033   0.622 -0.4678 -1.0034 -0.5091
  942SOL     OW12864   0.263   3.463   2.407 -0.2195 -0.1066  0.1489
  942SOL    HW112865   0.294   3.514   2.326  1.2420 -0.5421  0.4095
  942SOL    HW212866   0.341   3.413   2.446 -0.4877  1.4353  2.8168
  943SOL     OW12867   1.124   4.747   1.633 -0.3218  0.0327  0.1450
  943SOL    HW112868   1.188   4.673   1.612  0.8559  1.1628 -0.2514
  943SOL    HW212869   1.091   4.788   1.548  0.2002  0.9707  0.3943
  944SOL     OW12870   2.238   6.572   0.292  0.5203  0.3000  0.1291
  944SOL    HW112871   2.236   6.664   0.253  0.3842  0.0476 -0.4726
  944SOL    HW212872   2.286   6.511   0.228  0.3221 -0.1135  0.3763
  945SOL     OW12873   0.839   4.357   1.478 -0.1800 -0.4973  0.2110
  945SOL    HW112874   0.840   4.328   1.382  1.4502 -1.9553  0.6531
  945SOL    HW212875   0.866   4.281   1.536 -0.6131  0.5419  1.8008
  946SOL     OW12876   2.726   7.356   0.113  0.1845 -0.6166 -0.4341
  946SOL    HW112877   2.725   7.441   0.166  1.2319 -0.7911 -0.1188
  946SOL    HW212878   2.755   7.280   0.173  1.3191 -0.8242 -1.2311
  947SOL     OW12879   0.911   3.112   2.379 -0.1312 -0.0505 -0.3154
  947SOL    HW112880   0.950   3.023   2.356 -0.2668 -0.3814  0.7130
  947SOL    HW212881   0.830   3.129   2.323 -0.0542 -0.5331 -0.5729
  948SOL     OW12882   1.154   9.981   2.385 -0.2192  0.1195  0.4045
  948SOL    HW112883   1.137   9.925   2.466 -1.3939 -0.0150  0.0725
  948SOL    HW212884   1.225  10.049   2.406 -0.5949  0.1629  1.5887
  949SOL     OW12885   3.585   2.504   1.276  0.0715 -0.2815 -0.1730
  949SOL    HW112886   3.500   2.462   1.244 -0.7334  0.1551  1.3228
  949SOL    HW212887   3.650   2.509   1.201 -1.4104 -0.1683 -1.4875
  950SOL     OW12888   4.017   2.464   1.623  0.1722 -0.2923  0.0771
  950SOL    HW112889   3.977   2.440   1.535 -2.0574  1.0852  0.6495
  950SOL    HW212890   4.063   2.384   1.662  1.3836 -0.8402 -2.4104
  951SOL     OW12891   4.304   2.148   0.234 -0.2385 -0.0259 -0.3090
  951SOL    HW112892   4.371   2.149   0.159  0.9860 -0.5849  0.7570
  951SOL    HW212893   4.307   2.237   0.281 -0.4833  0.0639 -0.4616
  952SOL     OW12894   0.904   3.845   1.761  0.3037 -0.0719 -0.0656
  952SOL    HW112895   0.827   3.882   1.813  0.8343 -0.0861  0.7375
  952SOL    HW212896   0.929   3.910   1.690  1.0891  1.0427  1.1971
  953SOL     OW12897   9.977   5.565   1.403  0.1213  0.2684  0.1116
  953SOL    HW112898   9.977   5.629   1.479 -0.8432 -0.1043  0.4298
  953SOL    HW212899   9.932   5.607   1.324 -2.6698 -0.8236  1.0394
  954SOL     OW12900   9.367   2.707   0.438 -0.0946  0.6341  0.4263
  954SOL    HW112901   9.302   2.659   0.497 -1.2104  1.9519  0.2940
  954SOL    HW212902   9.457   2.709   0.482 -0.4070 -0.2404  1.1138
  955SOL     OW12903   0.210   8.369   1.585 -0.2251 -0.0417 -0.0360
  955SOL    HW112904   0.166   8.430   1.650 -0.5784 -0.8769  0.5192
  955SOL    HW212905   0.262   8.299   1.634  2.9160  1.7318 -0.6686
  956SOL     OW12906   0.765   9.172   0.012 -0.7914  0.8258 -0.5656
  956SOL    HW112907   0.820   9.213  -0.061 -1.7072  1.6685 -0.8061
  956SOL    HW212908   0.687   9.123  -0.028 -1.2746  1.2566 -0.1647
  957SOL     OW12909   9.108   1.407   1.566  0.0593 -0.1956 -0.2250
  957SOL    HW112910   9.062   1.354   1.638 -0.0115 -0.7243 -0.6523
  957SOL    HW212911   9.156   1.484   1.607  1.2062 -1.3093  0.5672
  958SOL     OW12912   2.258   0.672   1.859 -0.4473 -0.1150  0.1295
  958SOL    HW112913   2.200   0.590   1.860  0.6611 -0.9077  2.6417
  958SOL    HW212914   2.237   0.729   1.938  2.5846 -0.7248  1.4353
  959SOL     OW12915   1.822   5.795   0.449  0.4084 -0.0299  0.0718
  959SOL    HW112916   1.806   5.873   0.510 -0.1522 -0.1491  0.0730
  959SOL    HW212917   1.921   5.783   0.437  0.4994  0.7928 -0.0674
  960SOL     OW12918   1.772   0.027   1.025 -0.1136 -0.7208 -0.6102
  960SOL    HW112919   1.738   0.094   1.092  1.8545  1.0484 -1.3479
  960SOL    HW212920   1.832  -0.038   1.071 -0.2000 -0.5984 -0.3235
  961SOL     OW12921   9.896   5.919   0.792 -0.0384  0.3080  0.1449
  961SOL    HW112922   9.879   5.863   0.873 -2.4391  0.9123  0.1096
  961SOL    HW212923   9.929   6.009   0.820 -0.2069  0.2819  0.4351
  962SOL     OW12924   4.222   1.440   0.739 -0.8440 -0.2549 -0.6633
  962SOL    HW112925   4.299   1.412   0.683 -0.8153  0.5319 -1.0237
  962SOL    HW212926   4.140   1.447   0.682 -0.6648  1.2249 -0.7544
  963SOL     OW12927   3.436   4.122   0.752 -0.1287  0.3265 -0.2180
  963SOL    HW112928   3.390   4.035   0.770  1.9145 -0.2464  2.6126
  963SOL    HW212929   3.414   4.187   0.825  1.2828  0.9655 -0.3536
  964SOL     OW12930   4.009   2.122   0.248 -0.4848  0.0983  0.0431
  964SOL    HW112931   4.000   2.104   0.346 -0.4825  2.2813  0.4735
  964SOL    HW212932   4.106   2.124   0.224 -0.4810 -0.2950  0.0263
  965SOL     OW12933   8.624   2.667   2.246 -0.4562  0.0686 -0.2059
  965SOL    HW112934   8.712   2.715   2.245  0.6236 -1.7915  1.7445
  965SOL    HW212935   8.554   2.725   2.203  1.7754  1.4161 -2.1346
  966SOL     OW12936   8.948   3.683   1.089 -0.0300  0.0584  0.2360
  966SOL    HW112937   8.907   3.747   1.025  0.5358  1.5730  1.3546
  966SOL    HW212938   9.028   3.725   1.132 -0.2253 -1.0129  1.7112
  967SOL     OW12939   2.355   5.691   1.779 -0.5190  0.1936 -0.3964
  967SOL    HW112940   2.275   5.749   1.765 -0.4765  0.7639  1.5804
  967SOL    HW212941   2.415   5.733   1.846  0.4515 -1.2284 -0.3581
  968SOL     OW12942   2.162   2.156   0.330 -0.1645 -0.1434 -0.3688
  968SOL    HW112943   2.198   2.062   0.328 -0.7038 -0.3698  0.2313
  968SOL    HW212944   2.238   2.221   0.329  0.2757 -0.6144  0.7093
  969SOL     OW12945   8.666   2.119   1.988 -0.5315  0.0674 -0.0788
  969SOL    HW112946   8.635   2.080   1.902  0.5135 -0.3452 -0.2801
  969SOL    HW212947   8.602   2.094   2.061 -2.0721  1.4446 -0.9418
  970SOL     OW12948   9.745   2.651   2.549  0.8092  0.0229 -0.1035
  970SOL    HW112949   9.675   2.686   2.611  2.6890 -0.2036  2.2387
  970SOL    HW212950   9.784   2.727   2.496  0.9869  0.6513  0.9039
  971SOL     OW12951   3.275   9.832   0.068 -0.0898  0.4135 -0.1791
  971SOL    HW112952   3.283   9.775  -0.014 -0.4239  0.0529  0.0403
  971SOL    HW212953   3.272   9.928   0.040 -0.6476  0.2722 -0.6213
  972SOL     OW12954   3.626   9.425   0.918 -0.2695 -0.7099  0.1424
  972SOL    HW112955   3.532   9.448   0.893 -1.0971 -1.5730  2.3354
  972SOL    HW212956   3.640   9.443   1.015  2.4418  1.3140 -0.5514
  973SOL     OW12957   2.110   4.970   1.729  0.3311 -0.3884 -0.0886
  973SOL    HW112958   2.155   4.947   1.815  0.3554  0.7866  0.2303
  973SOL    HW212959   2.048   5.047   1.745  1.1804  0.5774 -1.3481
  974SOL     OW12960   1.984   2.773   2.568  0.0688 -0.4874  0.1168
  974SOL    HW112961   1.959   2.867   2.545  0.3263 -0.5214 -0.3104
  974SOL    HW212962   2.016   2.768   2.662  1.5525  0.1247 -0.3548
  975SOL     OW12963   1.435   3.996   2.540 -0.5065  0.4410 -0.0491
  975SOL    HW112964   1.433   3.949   2.629 -1.4596  1.3657  0.4223
  975SOL    HW212965   1.495   4.075   2.546 -0.8321  0.6926 -0.1355
  976SOL     OW12966   9.645   4.703   1.533  0.2061 -0.2668 -0.0537
  976SOL    HW112967   9.724   4.641   1.532  0.1934 -0.2996  0.7308
  976SOL    HW212968   9.577   4.669   1.598  0.7584  1.2590  1.3547
  977SOL     OW12969   8.917   1.451   0.167  0.4862 -0.0666  0.7631
  977SOL    HW112970   8.936   1.403   0.081  0.7061  0.7177  0.3698
  977SOL    HW212971   8.980   1.528   0.176  1.4078 -0.9803  2.3174
  978SOL     OW12972   2.368   6.143   2.541  0.0663 -0.0606 -0.5490
  978SOL    HW112973   2.372   6.089   2.458  0.4383  0.2242 -0.7181
  978SOL    HW212974   2.383   6.239   2.519 -3.8362  0.6086 -0.7027
  979SOL     OW12975   1.599   4.419   1.120  0.4052 -0.5862  0.0653
  979SOL    HW112976   1.523   4.454   1.175  0.1948 -0.6842 -0.1623
  979SOL    HW212977   1.686   4.450   1.159  0.2479 -0.4794  0.3287
  980SOL     OW12978   1.131   9.453   0.863  0.2452  0.0537  0.2859
  980SOL    HW112979   1.106   9.548   0.843 -3.1371 -1.2403 -2.0520
  980SOL    HW212980   1.142   9.403   0.777  1.7098 -1.7655  1.4999
  981SOL     OW12981   2.140   1.975   2.094 -0.3767  0.0528  0.0398
  981SOL    HW112982   2.158   1.891   2.146 -1.6822 -1.3116 -1.6433
  981SOL    HW212983   2.043   1.997   2.099 -0.3051  0.5750 -0.8359
  982SOL     OW12984   8.651   3.832   1.801 -0.1483 -0.1682 -0.7337
  982SOL    HW112985   8.722   3.859   1.866  0.0499  1.8749 -1.7702
  982SOL    HW212986   8.618   3.740   1.824  1.2110 -0.2156  1.1225
  983SOL     OW12987   9.999   9.532   1.560  0.0952  0.3897  0.3922
  983SOL    HW112988   9.912   9.579   1.569 -0.0530 -0.1084  1.7760
  983SOL    HW212989  10.003   9.456   1.626  0.9463 -0.5594 -0.7309
  984SOL     OW12990   1.231   1.128   2.274 -0.1045 -0.1570 -0.1343
  984SOL    HW112991   1.212   1.058   2.343  2.0482 -0.4974  0.1516
  984SOL    HW212992   1.151   1.186   2.263 -0.2570  0.3572  3.1696
  985SOL     OW12993   3.305   1.324   0.146 -0.1013 -0.2310 -0.3175
  985SOL    HW112994   3.237   1.342   0.217 -1.2153 -0.8926 -1.1961
  985SOL    HW212995   3.264   1.270   0.073  1.6087 -1.3356 -0.4935
  986SOL     OW12996   8.891   5.671   1.680  0.2395  0.1809 -0.4684
  986SOL    HW112997   8.796   5.656   1.708  0.9289 -2.6363  0.5067
  986SOL    HW212998   8.938   5.726   1.749  0.2849 -1.5889  0.9623
  987SOL     OW12999   1.125   2.454   2.175  0.5322  0.7455  0.1106
  987SOL    HW113000   1.129   2.543   2.128 -0.0819  0.2464 -0.8999
  987SOL    HW213001   1.139   2.468   2.273 -1.8311  2.2543  0.2820
  988SOL     OW13002   3.367   4.367   0.865 -0.2865 -0.2009 -0.6728
  988SOL    HW113003   3.464   4.385   0.886 -0.5546  0.1572  0.3121
  988SOL    HW213004   3.311   4.400   0.941 -1.1688 -0.5877 -1.1582
  989SOL     OW13005   1.918   6.023   1.367  0.1983 -0.2659 -0.5086
  989SOL    HW113006   1.965   6.095   1.316  3.1677 -1.0229  1.0590
  989SOL    HW213007   1.865   6.063   1.442  0.4320  0.3946 -0.6952
  990SOL     OW13008   4.736   3.061   0.354  0.1112  0.5105  0.1727
  990SOL    HW113009   4.803   3.117   0.402  1.2558  0.2228 -1.0576
  990SOL    HW213010   4.782   2.981   0.315 -1.0158  0.1232 -0.3799
  991SOL     OW13011   2.472   5.742   0.734 -0.0936  0.3024  0.2136
  991SOL    HW113012   2.552   5.726   0.677  0.3599 -0.6328  1.1030
  991SOL    HW213013   2.467   5.840   0.757  1.2102  0.2500  0.7641
  992SOL     OW13014   4.125   3.070   1.829 -0.1827 -0.3980 -0.8052
  992SOL    HW113015   4.206   3.016   1.854  0.1084  0.1434 -0.5506
  992SOL    HW213016   4.113   3.144   1.896  0.9254  1.4133 -2.5446
  993SOL     OW13017   0.215   6.075   2.161 -0.1038 -0.3430  0.6062
  993SOL    HW113018   0.246   6.040   2.250  3.0604  0.2997 -0.1662
  993SOL    HW213019   0.288   6.063   2.094 -1.0933  2.5049 -1.0457
  994SOL     OW13020   3.533   2.925   0.280  0.2898 -0.0237  0.7678
  994SOL    HW113021   3.569   3.010   0.318 -0.5787  0.3837  0.6862
  994SOL    HW213022   3.538   2.927   0.181 -0.0431  0.0784  0.7508
  995SOL     OW13023   9.792   2.848   0.217  0.1221  0.3409 -0.4442
  995SOL    HW113024   9.798   2.940   0.178 -1.8673  0.9175  0.5887
  995SOL    HW213025   9.859   2.788   0.172 -0.0438  1.7506 -2.5809
  996SOL     OW13026   3.036   7.348   0.740 -0.3197  0.3092  0.0873
  996SOL    HW113027   3.001   7.440   0.722 -2.2145  0.1233  2.4897
  996SOL    HW213028   3.103   7.352   0.814  0.1678 -0.1589 -0.3258
  997SOL     OW13029   1.814   7.310   2.285 -0.0432 -0.4429  0.4958
  997SOL    HW113030   1.890   7.365   2.320  0.0035  1.0193 -1.7741
  997SOL    HW213031   1.801   7.331   2.188 -2.0965 -2.1287  0.3909
  998SOL     OW13032   9.193   1.974   2.122  0.1722  0.3990 -0.6387
  998SOL    HW113033   9.204   1.916   2.041  0.3164 -0.6955  0.1612
  998SOL    HW213034   9.099   2.005   2.128 -0.7784 -2.6433  0.8661
  999SOL     OW13035   1.328   0.432   2.350 -0.1015 -0.4430 -0.0163
  999SOL    HW113036   1.271   0.483   2.414  2.2562  1.3398  0.7657
  999SOL    HW213037   1.273   0.363   2.303 -2.5744  0.3759  1.5828
 1000SOL     OW13038   3.391   8.118   2.081  0.2792 -0.0111 -0.1191
 1000SOL    HW113039   3.389   8.210   2.041  1.9641  0.1806  0.1864
 1000SOL    HW213040   3.423   8.124   2.176  4.2825 -1.2512 -1.2794
 1001SOL     OW13041   1.700   6.769   0.857 -0.1642  0.7864 -0.2709
 1001SOL    HW113042   1.763   6.845   0.875  0.8721 -0.4432  1.4526
 1001SOL    HW213043   1.739   6.708   0.789  0.6875 -0.1465  1.0302
 1002SOL     OW13044   0.854   9.226   1.033  0.1942  0.3159 -0.2838
 1002SOL    HW113045   0.889   9.311   0.995 -0.8533  0.2773 -1.3722
 1002SOL    HW213046   0.757   9.235   1.053  0.0725 -0.6119 -0.4002
 1003SOL     OW13047   1.066   1.927   0.051  0.1232  0.0709 -0.4865
 1003SOL    HW113048   1.163   1.952   0.045  0.4055 -0.6597  0.6998
 1003SOL    HW213049   1.023   1.936  -0.039  1.2060  0.7434 -0.9466
 1004SOL     OW13050   1.265   2.565   1.407 -0.2132  0.0173  0.3493
 1004SOL    HW113051   1.248   2.556   1.308  0.4926 -0.3561  0.2548
 1004SOL    HW213052   1.218   2.491   1.456 -0.6518  0.2651  0.3021
 1005SOL     OW13053   2.124   3.970   0.816 -0.2229 -0.5668  0.2967
 1005SOL    HW113054   2.103   4.016   0.730 -0.4952  1.0052  1.1830
 1005SOL    HW213055   2.039   3.940   0.859 -0.1261 -0.8776  0.2693
 1006SOL     OW13056   1.651   2.281   0.856 -0.8383 -0.2711 -0.1113
 1006SOL    HW113057   1.631   2.215   0.928 -1.4082 -0.0032 -0.0204
 1006SOL    HW213058   1.689   2.364   0.895 -0.9752 -0.1972 -0.1321
 1007SOL     OW13059   1.580   3.727   1.196 -0.2662 -0.5097 -0.7486
 1007SOL    HW113060   1.521   3.805   1.178 -1.5899 -1.7973 -2.1464
 1007SOL    HW213061   1.544   3.675   1.274 -0.1232 -0.4507 -0.6432
 1008SOL     OW13062   3.044   1.569   0.586  0.3358  0.1659 -0.3561
 1008SOL    HW113063   3.047   1.654   0.639  0.4901  0.7252 -1.2527
 1008SOL    HW213064   2.984   1.581   0.507 -1.7470 -1.4090  0.9452
 1009SOL     OW13065   9.348   2.730   1.590 -0.2410  0.1651  0.3225
 1009SOL    HW113066   9.295   2.666   1.646 -0.2296 -0.1581 -0.0288
 1009SOL    HW213067   9.289   2.769   1.520 -0.2985  0.7070  0.6729
 1010SOL     OW13068   1.090   1.656   0.159 -0.1521  0.1506  0.0033
 1010SOL    HW113069   1.014   1.613   0.207  0.2766 -1.2622 -0.5677
 1010SOL    HW213070   1.067   1.751   0.139 -0.9786  0.2838  1.5623
 1011SOL     OW13071   2.451   1.010   0.239 -0.4238  0.1010  0.0066
 1011SOL    HW113072   2.427   0.960   0.321  0.5230 -0.4067 -0.0226
 1011SOL    HW213073   2.545   1.044   0.246 -0.9779  1.7007 -0.0519
 1012SOL     OW13074   3.958   1.380   0.684 -0.4219  0.3489 -0.3058
 1012SOL    HW113075   3.969   1.397   0.586 -0.6251 -0.9347 -0.5606
 1012SOL    HW213076   3.861   1.367   0.704 -0.3714  0.5407  0.0488
 1013SOL     OW13077   1.456   5.486   1.322 -0.0988 -0.0234  0.1837
 1013SOL    HW113078   1.492   5.395   1.306 -2.0468 -0.6053 -1.1770
 1013SOL    HW213079   1.511   5.553   1.272  0.9433 -0.5230  0.6570
 1014SOL     OW13080   1.433   9.389   2.367 -0.1325  0.0158 -0.6183
 1014SOL    HW113081   1.462   9.294   2.360  1.0629  0.3404 -0.1877
 1014SOL    HW213082   1.514   9.449   2.363 -0.5817  0.8712  2.0180
 1015SOL     OW13083   0.461   2.625   2.003  0.1354  0.1940  0.3917
 1015SOL    HW113084   0.554   2.591   1.986 -0.1046 -0.0445 -0.4241
 1015SOL    HW213085   0.395   2.554   1.982 -0.2767  0.6166  0.2705
 1016SOL     OW13086   3.183   0.001   1.097  0.0132  0.0083 -0.7010
 1016SOL    HW113087   3.238  -0.033   1.020  1.8082  0.0405  0.5490
 1016SOL    HW213088   3.243   0.037   1.168 -1.6523  0.4072  0.5377
 1017SOL     OW13089   9.945   0.148   0.365 -0.3120  0.0242 -0.5576
 1017SOL    HW113090   9.904   0.121   0.452  1.6905 -1.2689  0.0271
 1017SOL    HW213091  10.043   0.126   0.366  0.1515  1.8154 -2.3900
 1018SOL     OW13092   0.423   3.813   0.788  0.2186 -0.3421 -0.0123
 1018SOL    HW113093   0.434   3.754   0.868  2.0156 -1.1407 -0.8398
 1018SOL    HW213094   0.415   3.757   0.706  0.4510  0.5393 -0.6440
 1019SOL     OW13095   0.907   5.147   1.030  0.3880  0.1548  0.2677
 1019SOL    HW113096   0.810   5.139   1.054 -0.1130  2.3619 -0.8380
 1019SOL    HW213097   0.927   5.242   1.006  2.8744 -0.2605  0.6138
 1020SOL     OW13098   3.162   8.722   1.518 -0.4069  0.2266 -0.5364
 1020SOL    HW113099   3.138   8.627   1.536 -0.1789  0.2277 -0.2312
 1020SOL    HW213100   3.250   8.744   1.560 -0.6208  0.6680 -0.3097
 1021SOL     OW13101   0.197   1.684   2.145  0.4045 -0.6798 -0.4524
 1021SOL    HW113102   0.192   1.621   2.223  0.1166 -1.8466 -1.3892
 1021SOL    HW213103   0.125   1.661   2.080 -0.1753  1.1263 -0.4513
 1022SOL     OW13104   2.540   2.192   1.441  0.0677  0.3935 -0.0243
 1022SOL    HW113105   2.471   2.237   1.385  1.2121 -1.5377 -3.0717
 1022SOL    HW213106   2.618   2.254   1.454 -0.2398  0.8735 -0.4642
 1023SOL     OW13107   3.604   0.388   2.132 -0.2866  0.3477  0.5022
 1023SOL    HW113108   3.618   0.469   2.076 -1.2181 -1.7670 -2.9217
 1023SOL    HW213109   3.657   0.311   2.094 -1.2172 -1.2448  2.3133
 1024SOL     OW13110   8.398   2.496   2.315  0.3912  0.0881  0.4542
 1024SOL    HW113111   8.481   2.544   2.286 -0.3502  0.1245 -1.6666
 1024SOL    HW213112   8.338   2.559   2.363  0.8300  0.4908  0.4805
 1025SOL     OW13113   3.714   3.356   1.697  0.4413 -0.3406  0.1922
 1025SOL    HW113114   3.747   3.299   1.772  0.2968 -1.7137 -0.7631
 1025SOL    HW213115   3.614   3.357   1.697  0.4435  0.3975  0.5535
 1026SOL     OW13116   3.722   3.744   0.146  1.0331 -0.0602 -0.0274
 1026SOL    HW113117   3.811   3.746   0.191  2.2185 -0.9572 -2.3007
 1026SOL    HW213118   3.725   3.685   0.066 -1.1381  1.2479 -1.1445
 1027SOL     OW13119   2.382   5.309   0.707 -0.6261 -0.0976 -0.3484
 1027SOL    HW113120   2.348   5.231   0.760 -0.3356  0.3847  0.5655
 1027SOL    HW213121   2.456   5.278   0.647 -1.8812 -0.9231 -1.5192
 1028SOL     OW13122   1.004   3.671   0.476 -0.3635  1.0409  0.0595
 1028SOL    HW113123   0.927   3.613   0.449 -1.1504  1.2250  1.8387
 1028SOL    HW213124   1.019   3.663   0.574  3.6922 -1.1745 -0.6149
 1029SOL     OW13125   1.835   8.600   1.408 -0.1177  0.1445  0.3091
 1029SOL    HW113126   1.817   8.556   1.321 -0.1534  0.1226  0.3267
 1029SOL    HW213127   1.772   8.565   1.477  0.0162  0.0412  0.3799
 1030SOL     OW13128   0.840   1.542   0.216 -0.1902  0.2090  0.5186
 1030SOL    HW113129   0.767   1.523   0.151  0.5621  1.7851 -0.8316
 1030SOL    HW213130   0.882   1.457   0.246 -0.1022 -0.5283 -1.5994
 1031SOL     OW13131   1.001   9.178   1.876  0.4753 -0.3688  0.5337
 1031SOL    HW113132   0.942   9.223   1.942 -0.9470  0.5261 -1.3192
 1031SOL    HW213133   0.996   9.079   1.889 -1.2884 -0.2855  0.4951
 1032SOL     OW13134   0.736   3.313   2.437 -0.1942 -0.1281  0.5240
 1032SOL    HW113135   0.823   3.264   2.437 -0.2335 -0.2013 -0.0688
 1032SOL    HW213136   0.703   3.322   2.530  0.6643  0.2771  0.8009
 1033SOL     OW13137   8.611   1.988   2.480 -0.4119  0.5016 -0.2575
 1033SOL    HW113138   8.588   2.085   2.469  1.9453  0.8425 -2.6244
 1033SOL    HW213139   8.698   1.980   2.528  0.2359 -0.3726 -1.5595
 1034SOL     OW13140   1.521   6.976   2.085  0.2585  0.2320 -0.2333
 1034SOL    HW113141   1.482   7.021   2.165 -0.9577  0.0792 -0.7313
 1034SOL    HW213142   1.562   7.045   2.025 -0.0336  0.4887 -0.1392
 1035SOL     OW13143   1.596   7.210   0.774  1.0017  0.1791  0.2293
 1035SOL    HW113144   1.556   7.299   0.751  0.2932  0.2761  1.7571
 1035SOL    HW213145   1.570   7.143   0.705  2.3325  1.3522 -1.4588
 1036SOL     OW13146   9.261   1.431   2.541 -0.0538  0.6965  0.2005
 1036SOL    HW113147   9.285   1.455   2.635 -1.2849  0.6177  0.5437
 1036SOL    HW213148   9.162   1.432   2.531  0.0592  0.4048 -1.0233
 1037SOL     OW13149   0.610   5.415   0.708 -0.1883  0.2098  0.2063
 1037SOL    HW113150   0.617   5.496   0.649 -0.3749  1.5285  1.9383
 1037SOL    HW213151   0.586   5.336   0.653 -0.0087  1.3305 -1.5393
 1038SOL     OW13152   9.685   4.337   0.848  0.2848 -0.7594 -0.3366
 1038SOL    HW113153   9.672   4.286   0.932  1.1235 -0.3873  0.0284
 1038SOL    HW213154   9.751   4.411   0.864 -0.6641  0.2240 -0.9389
 1039SOL     OW13155   3.381   7.817   0.708  0.2674  0.2940 -0.2929
 1039SOL    HW113156   3.314   7.764   0.759  0.3801 -0.0876 -0.5385
 1039SOL    HW213157   3.355   7.820   0.611  0.2830  0.6513 -0.2867
 1040SOL     OW13158   1.444   6.722   0.943 -0.3182  0.2617 -0.2312
 1040SOL    HW113159   1.533   6.737   0.898 -0.3558 -0.8427 -0.6833
 1040SOL    HW213160   1.454   6.736   1.041  0.3603  0.1339 -0.2785
 1041SOL     OW13161   1.397   4.620   1.844  0.0248 -0.1490  0.4424
 1041SOL    HW113162   1.385   4.718   1.855  0.1282 -0.2033  1.0887
 1041SOL    HW213163   1.340   4.572   1.911  0.5708 -0.5049  0.6571
 1042SOL     OW13164   4.542   2.841   1.435 -0.3748 -0.8509  0.7264
 1042SOL    HW113165   4.641   2.838   1.421 -0.4183 -1.4190  0.5175
 1042SOL    HW213166   4.507   2.930   1.406 -0.1727 -1.2940 -0.9776
 1043SOL     OW13167   3.682   0.293   1.305  0.2635  0.0275 -0.5248
 1043SOL    HW113168   3.761   0.302   1.366  0.6492 -0.3348 -0.9750
 1043SOL    HW213169   3.690   0.209   1.252 -0.1802  0.2421 -0.9330
 1044SOL     OW13170   8.342   2.238   1.498 -0.0450 -0.0559  0.3120
 1044SOL    HW113171   8.436   2.202   1.503  0.3199  0.9625  0.8968
 1044SOL    HW213172   8.323   2.268   1.405  0.2910 -0.0430  0.2453
 1045SOL     OW13173   9.892   9.817   1.574  0.1377 -0.2396 -0.1434
 1045SOL    HW113174   9.934   9.823   1.484 -1.0081 -2.6514 -0.8620
 1045SOL    HW213175   9.818   9.884   1.582  1.4861  1.3160 -0.2510
 1046SOL     OW13176   0.375   6.898   0.179  0.6253  0.1918 -0.1066
 1046SOL    HW113177   0.453   6.960   0.190  0.0978  0.7638  0.3920
 1046SOL    HW213178   0.299   6.947   0.137 -0.4306  0.3832  1.9882
 1047SOL     OW13179   2.992   8.463   1.141  0.1670 -0.0801 -0.6418
 1047SOL    HW113180   2.907   8.453   1.193  0.2658 -0.9610 -0.6350
 1047SOL    HW213181   2.996   8.554   1.100 -0.1374  0.4500  0.4946
 1048SOL     OW13182   4.695   4.008   2.366 -0.0096 -0.0640  0.4865
 1048SOL    HW113183   4.759   3.976   2.436  1.8781  0.1684 -1.0953
 1048SOL    HW213184   4.645   3.929   2.329  0.2371 -0.4076  0.8735
 1049SOL     OW13185   2.583   7.369   2.086  0.0737  0.1785 -0.4442
 1049SOL    HW113186   2.496   7.332   2.054 -0.6969  1.5029  0.0966
 1049SOL    HW213187   2.577   7.468   2.091  1.3268  0.2177  0.4748
 1050SOL     OW13188   0.691   6.065   0.456 -0.6778 -0.0056  0.0686
 1050SOL    HW113189   0.775   6.047   0.405 -0.7089  0.6850 -0.2394
 1050SOL    HW213190   0.649   6.150   0.422 -0.3949  0.7734  1.6183
 1051SOL     OW13191   9.968   1.571   2.035 -0.9284  0.1290 -0.0581
 1051SOL    HW113192   9.919   1.643   2.084 -0.7128  1.4077 -1.7001
 1051SOL    HW213193   9.953   1.581   1.937  1.9971  0.0984 -0.5410
 1052SOL     OW13194   3.602   3.047   0.011  0.2729 -0.5774 -0.1671
 1052SOL    HW113195   3.520   3.078  -0.037 -0.4712 -1.6200  0.4087
 1052SOL    HW213196   3.680   3.103  -0.016 -0.9132  1.3654  0.3571
 1053SOL     OW13197   3.713   0.959   2.217 -0.7148  0.0341 -0.1512
 1053SOL    HW113198   3.651   1.032   2.246 -0.1222  0.6240 -0.3687
 1053SOL    HW213199   3.794   0.999   2.175 -0.1331 -0.7385  0.2357
 1054SOL     OW13200   2.804   4.671   1.917  0.2853  0.8104  0.0913
 1054SOL    HW113201   2.776   4.669   2.013 -1.2583  0.4003 -0.3544
 1054SOL    HW213202   2.747   4.735   1.867  0.7786  0.6782 -0.6451
 1055SOL     OW13203   9.360   0.562   1.493 -0.2839 -0.4411 -0.1865
 1055SOL    HW113204   9.378   0.541   1.396 -0.1113 -0.4249 -0.1587
 1055SOL    HW213205   9.275   0.614   1.501 -0.0493 -0.0306 -0.3724
 1056SOL     OW13206   9.132   2.080   1.354  0.3151  0.7632 -0.1681
 1056SOL    HW113207   9.112   2.169   1.396 -1.7716  0.6579 -0.8650
 1056SOL    HW213208   9.046   2.030   1.341  1.6557 -2.5537  2.7876
 1057SOL     OW13209   8.657   4.182   1.916 -0.8025 -0.2614 -0.0463
 1057SOL    HW113210   8.610   4.157   1.832  0.8223  0.9613 -1.3659
 1057SOL    HW213211   8.613   4.263   1.956 -1.2193 -0.4863 -0.0540
 1058SOL     OW13212   0.673   6.117   2.211 -0.5651 -0.0450 -0.5662
 1058SOL    HW113213   0.740   6.187   2.233 -0.7178  0.6284 -2.1755
 1058SOL    HW213214   0.581   6.154   2.224 -0.6448  0.0453 -1.3670
 1059SOL     OW13215   1.188   8.656   0.962  0.0296 -0.3656  0.1226
 1059SOL    HW113216   1.243   8.640   0.880  1.1574 -2.3631  1.2473
 1059SOL    HW213217   1.093   8.631   0.943 -0.5201  2.8385 -1.7362
 1060SOL     OW13218   1.995   1.429   0.370  0.5391  0.0089 -0.3447
 1060SOL    HW113219   1.949   1.448   0.283  0.9181 -0.4195 -0.6419
 1060SOL    HW213220   2.054   1.506   0.394 -0.6478  0.7463  0.2513
 1061SOL     OW13221   2.178   1.183   1.132  0.2714 -0.0014 -0.0046
 1061SOL    HW113222   2.114   1.115   1.096  1.9768 -0.7195 -1.7593
 1061SOL    HW213223   2.178   1.263   1.072  0.2035  0.4597  0.6099
 1062SOL     OW13224   1.832   5.330   0.305  0.5415 -0.1136  0.3307
 1062SOL    HW113225   1.794   5.307   0.216 -0.4844  0.1859  0.6842
 1062SOL    HW213226   1.806   5.260   0.372  1.9975 -0.7777  0.2280
 1063SOL     OW13227   1.083   8.788   1.931  0.2457 -0.1947  0.2631
 1063SOL    HW113228   0.992   8.816   1.900  0.2582 -0.3299  0.1073
 1063SOL    HW213229   1.153   8.833   1.876  0.2469 -2.5202 -1.6899
 1064SOL     OW13230   1.440   7.825   2.360  0.3318 -0.0434  0.1704
 1064SOL    HW113231   1.533   7.795   2.339  0.0602  0.8090 -2.3219
 1064SOL    HW213232   1.391   7.844   2.275 -1.2802  2.0673  1.5349
 1065SOL     OW13233   1.643   9.777   0.574  0.4111 -0.2420  0.1734
 1065SOL    HW113234   1.581   9.790   0.652 -0.2611  2.2685 -0.7260
 1065SOL    HW213235   1.593   9.793   0.489  1.6454 -0.9383 -0.7008
 1066SOL     OW13236   0.407   4.566   2.501 -0.2116  0.0022  0.1740
 1066SOL    HW113237   0.485   4.567   2.564  0.1607  2.0531 -0.2886
 1066SOL    HW213238   0.422   4.495   2.431 -0.3165 -1.8268  1.9790
 1067SOL     OW13239   1.252   2.944   1.976  0.0529 -0.1412  0.3102
 1067SOL    HW113240   1.308   2.911   2.051  1.5619  0.7114 -0.4150
 1067SOL    HW213241   1.291   2.914   1.889 -0.8215  0.1642 -0.2041
 1068SOL     OW13242   3.739   2.239   2.449  0.1564 -0.3633  0.6443
 1068SOL    HW113243   3.721   2.330   2.413 -1.7105 -0.2633  1.7726
 1068SOL    HW213244   3.660   2.207   2.500  0.5320 -2.9039 -0.2949
 1069SOL     OW13245   0.609   4.038   0.495 -0.5864 -0.6174  0.1130
 1069SOL    HW113246   0.692   4.014   0.545  0.3621  0.8026 -0.7388
 1069SOL    HW213247   0.567   4.119   0.536  0.2918  0.6575 -1.4273
 1070SOL     OW13248   0.507   4.130   2.453  0.2541 -0.0079 -0.2279
 1070SOL    HW113249   0.547   4.212   2.493  0.1191 -0.8106  1.6113
 1070SOL    HW213250   0.467   4.152   2.364  2.7435  1.2783 -1.0586
 1071SOL     OW13251   1.649   4.277   1.421 -0.1751 -0.1964 -0.7109
 1071SOL    HW113252   1.642   4.264   1.520  0.4916 -0.1277 -0.6478
 1071SOL    HW213253   1.694   4.197   1.381  0.6723  0.3064 -0.7902
 1072SOL     OW13254   3.924   2.569   0.348 -0.3640 -0.2519 -0.1537
 1072SOL    HW113255   3.953   2.572   0.444 -0.2295 -0.8657 -0.1737
 1072SOL    HW213256   3.849   2.633   0.334  0.6949  1.0504 -0.0006
 1073SOL     OW13257   9.897   8.820   0.195 -0.0931 -0.2035  0.1945
 1073SOL    HW113258   9.873   8.772   0.279  1.7734 -0.6389  0.5035
 1073SOL    HW213259   9.866   8.766   0.116 -0.2678 -0.6626  0.5715
 1074SOL     OW13260   1.610   3.377   1.595 -0.3774 -0.3194  0.0096
 1074SOL    HW113261   1.605   3.355   1.498 -1.6826  2.4973 -0.6161
 1074SOL    HW213262   1.520   3.367   1.637  0.2224 -1.7325  0.9969
 1075SOL     OW13263   1.246   4.211   0.472 -0.1353 -0.1842  0.1906
 1075SOL    HW113264   1.331   4.235   0.519 -0.2132 -0.1399  0.3081
 1075SOL    HW213265   1.241   4.262   0.386 -0.2202  0.0950  0.3605
 1076SOL     OW13266   1.683   8.574   0.717  0.2197  0.1404  0.1368
 1076SOL    HW113267   1.714   8.636   0.789 -1.1678  1.3474 -0.2746
 1076SOL    HW213268   1.698   8.479   0.745  0.9293  0.6252  1.4368
 1077SOL     OW13269   3.506   2.115   2.027  0.6151  0.3557  0.3822
 1077SOL    HW113270   3.550   2.032   2.062  1.5851  0.2973 -0.9126
 1077SOL    HW213271   3.567   2.159   1.961 -0.9040  0.8001 -0.7415
 1078SOL     OW13272   1.926   2.698   1.885 -0.4759 -0.1260 -0.2287
 1078SOL    HW113273   1.857   2.755   1.840  0.2970  0.2897 -0.9015
 1078SOL    HW213274   1.922   2.712   1.984 -0.0757  1.3532 -0.4065
 1079SOL     OW13275   1.745   6.242   0.965 -0.0652  0.0145 -0.1720
 1079SOL    HW113276   1.808   6.196   0.903 -1.1666 -0.3750 -1.0168
 1079SOL    HW213277   1.718   6.179   1.037  1.4998  0.5790  0.9336
 1080SOL     OW13278   4.178   4.143   0.152 -0.5028 -0.1815 -0.0214
 1080SOL    HW113279   4.180   4.056   0.103 -2.9908  0.6790 -1.7686
 1080SOL    HW213280   4.120   4.134   0.233  0.9696 -0.7158  0.9825
 1081SOL     OW13281   0.497   4.657   1.125  0.0181 -0.0694 -0.3305
 1081SOL    HW113282   0.416   4.691   1.174  0.1393  1.4035 -1.1113
 1081SOL    HW213283   0.575   4.653   1.188 -0.9115 -2.6596  0.7395
 1082SOL     OW13284   1.029   5.393   0.623  0.1132 -0.3977 -0.6347
 1082SOL    HW113285   0.981   5.395   0.711 -0.4481  1.2423 -0.9685
 1082SOL    HW213286   1.040   5.298   0.593 -0.7152 -0.9089  0.6422
 1083SOL     OW13287   8.568   1.269   1.791 -0.2051  0.1528 -0.4750
 1083SOL    HW113288   8.580   1.187   1.848 -0.4332  1.2061  1.1306
 1083SOL    HW213289   8.483   1.315   1.817  0.4171  1.4311 -0.6992
 1084SOL     OW13290   2.611   9.116   0.730 -0.4258 -0.1920 -0.4683
 1084SOL    HW113291   2.549   9.174   0.781  0.3179  1.6472 -1.6072
 1084SOL    HW213292   2.646   9.044   0.790 -1.2917  0.5866  0.9969
 1085SOL     OW13293   1.354   7.596   1.332  0.0444  0.3415 -0.3502
 1085SOL    HW113294   1.287   7.551   1.390  0.2595  0.2935 -0.1348
 1085SOL    HW213295   1.379   7.536   1.256  2.4515 -1.1145  1.4981
 1086SOL     OW13296   2.446   8.640   1.951 -0.6104 -0.0226  0.5384
 1086SOL    HW113297   2.459   8.653   1.853 -0.4001 -4.2101 -0.0630
 1086SOL    HW213298   2.349   8.647   1.973 -0.7464  0.0591 -0.0907
 1087SOL     OW13299   0.173   1.266   1.681  0.0701  0.4287  0.0764
 1087SOL    HW113300   0.074   1.282   1.685  0.1778  0.9492  0.7610
 1087SOL    HW213301   0.219   1.352   1.657  0.5416  0.7876  2.2244
 1088SOL     OW13302   1.525   0.222   0.422 -0.5239  0.0498  0.2003
 1088SOL    HW113303   1.601   0.178   0.376 -1.1434 -0.6394 -0.1744
 1088SOL    HW213304   1.539   0.221   0.521 -1.6157 -3.0470  0.3613
 1089SOL     OW13305   0.316   6.921   0.767 -0.2052  0.1356 -0.6722
 1089SOL    HW113306   0.388   6.875   0.819 -1.0644  1.6399  1.9693
 1089SOL    HW213307   0.355   7.000   0.719 -0.0448  1.0730  0.9193
 1090SOL     OW13308   9.827   9.216   2.530  0.1802 -0.5362  0.6207
 1090SOL    HW113309   9.866   9.218   2.438 -1.2471  1.3220  0.0263
 1090SOL    HW213310   9.818   9.309   2.565  0.4973 -1.2045  2.5709
 1091SOL     OW13311   1.712   5.710   2.115  0.3529 -0.2887  0.2226
 1091SOL    HW113312   1.808   5.740   2.119 -0.0022  1.1042 -1.0589
 1091SOL    HW213313   1.665   5.742   2.197  0.8514 -0.4848  0.5906
 1092SOL     OW13314   0.896   8.870   0.515 -0.3375 -0.8356 -0.3170
 1092SOL    HW113315   0.952   8.951   0.499  1.8462 -2.4808 -1.3009
 1092SOL    HW213316   0.840   8.851   0.434 -0.5739 -0.5237 -0.2268
 1093SOL     OW13317   2.969   0.835   1.774  0.7027  0.2366 -0.5471
 1093SOL    HW113318   3.056   0.847   1.822 -0.3658 -0.8112  1.7272
 1093SOL    HW213319   2.947   0.918   1.723  1.2186  1.9310  1.9100
 1094SOL     OW13320   3.371   1.188   1.823 -0.1527  0.0919  0.5323
 1094SOL    HW113321   3.333   1.227   1.907 -0.0112  0.2575  0.5186
 1094SOL    HW213322   3.326   1.230   1.744  2.0541  2.3822  0.4388
 1095SOL     OW13323   1.551   5.597   1.892  0.4323 -0.0061  0.1487
 1095SOL    HW113324   1.612   5.642   1.958  0.2151 -0.5950  0.7540
 1095SOL    HW213325   1.581   5.618   1.799  0.7607  0.8006  0.4393
 1096SOL     OW13326   2.098   0.697   1.207 -0.1689 -0.2661 -0.3273
 1096SOL    HW113327   2.057   0.713   1.296 -1.6253  0.0846 -1.0415
 1096SOL    HW213328   2.148   0.779   1.178  0.1142 -0.2992  0.0667
 1097SOL     OW13329   3.610   3.235   0.703  0.0753  0.1899  0.2272
 1097SOL    HW113330   3.620   3.326   0.662  1.1895  0.1100  0.3082
 1097SOL    HW213331   3.634   3.240   0.800  0.4673 -0.2684  0.1518
 1098SOL     OW13332   8.823   5.330   0.932 -0.1642  0.0738  0.3265
 1098SOL    HW113333   8.746   5.371   0.980  0.4005  0.1571  1.1719
 1098SOL    HW213334   8.843   5.240   0.972  0.6427  0.3695  0.5897
 1099SOL     OW13335   1.637   4.919   0.581  0.2794  0.0760 -0.0804
 1099SOL    HW113336   1.652   4.931   0.679  0.1735 -0.7364  0.0324
 1099SOL    HW213337   1.723   4.897   0.536 -0.0729 -1.9719  0.1901
 1100SOL     OW13338   2.948   0.493   2.531 -0.1303  0.0282  0.0609
 1100SOL    HW113339   3.037   0.483   2.486 -0.6136 -1.8600 -0.5232
 1100SOL    HW213340   2.896   0.408   2.521 -1.8110  0.9447  0.8151
 1101SOL     OW13341   3.194   2.990   0.126 -0.1219 -0.1120  0.1867
 1101SOL    HW113342   3.161   2.973   0.219 -0.7647 -0.4699 -0.1085
 1101SOL    HW213343   3.117   3.002   0.064  0.3061  0.2582 -0.2845
 1102SOL     OW13344   2.439   5.195   1.159 -0.0837  0.9302 -0.7150
 1102SOL    HW113345   2.359   5.171   1.104  0.0349 -2.2035  0.4098
 1102SOL    HW213346   2.415   5.195   1.256  0.6529  2.6487 -0.5080
 1103SOL     OW13347   2.203   0.810   1.637 -0.2017 -0.3653 -0.1090
 1103SOL    HW113348   2.227   0.744   1.566  1.4647 -0.2429  0.3322
 1103SOL    HW213349   2.234   0.777   1.726 -2.1770 -0.4697  0.5809
 1104SOL     OW13350   2.830   1.471   0.821  0.1166 -0.3425  0.2235
 1104SOL    HW113351   2.734   1.479   0.796  0.1266 -4.2944 -1.4032
 1104SOL    HW213352   2.881   1.548   0.784 -1.9647  0.3495 -1.2689
 1105SOL     OW13353   1.694   0.988   1.138 -0.2956  0.0549  0.1594
 1105SOL    HW113354   1.678   1.086   1.140  3.7150  0.7656  1.2854
 1105SOL    HW213355   1.731   0.962   1.048  0.3114 -0.0925  0.4442
 1106SOL     OW13356   2.280   7.360   2.347 -0.4004  0.2923  0.4713
 1106SOL    HW113357   2.317   7.420   2.276  0.0054 -1.1972 -0.5874
 1106SOL    HW213358   2.353   7.301   2.382 -0.8871  0.1239  1.2210
 1107SOL     OW13359   2.490   1.054   2.247 -0.1294 -0.5526  0.1017
 1107SOL    HW113360   2.462   1.133   2.192 -0.2209 -1.1135 -0.6599
 1107SOL    HW213361   2.409   1.010   2.285 -0.1627 -0.9965 -0.4729
 1108SOL     OW13362   3.125   1.784   0.046  0.4865 -0.2688  0.2439
 1108SOL    HW113363   3.040   1.759   0.093  1.4219 -0.5484  1.8006
 1108SOL    HW213364   3.196   1.718   0.069  1.7041  1.1655  0.6457
 1109SOL     OW13365   4.867   3.514   0.560 -0.3062  0.1545 -0.4604
 1109SOL    HW113366   4.795   3.518   0.491 -1.2477  1.4372  0.5700
 1109SOL    HW213367   4.945   3.570   0.529  0.6515 -1.9493 -1.9816
 1110SOL     OW13368   2.048   0.057   0.870 -0.2077  0.0861 -0.0813
 1110SOL    HW113369   2.001  -0.029   0.892 -1.6338  0.8100 -0.2541
 1110SOL    HW213370   2.046   0.072   0.771 -1.4318  1.1381  0.0945
 1111SOL     OW13371   2.446   7.890   0.099  0.0759  0.2361  0.2284
 1111SOL    HW113372   2.448   7.806   0.154  0.1319  0.3367  0.3804
 1111SOL    HW213373   2.449   7.970   0.160  1.4146  0.3450  0.0347
 1112SOL     OW13374   9.133   1.456   0.931  0.2048  0.0590 -0.1937
 1112SOL    HW113375   9.208   1.500   0.881  1.4537 -1.6575  0.1210
 1112SOL    HW213376   9.125   1.361   0.901  1.4268 -1.2366  3.2720
 1113SOL     OW13377   1.591   7.617   1.460  0.1883  0.4107  0.4014
 1113SOL    HW113378   1.630   7.707   1.478  0.1762  0.5668 -0.3234
 1113SOL    HW213379   1.506   7.627   1.407  0.6895 -0.0606 -0.5118
 1114SOL     OW13380   2.733   8.057   0.926 -0.2735  0.1692  0.7177
 1114SOL    HW113381   2.748   8.150   0.891  0.1136 -0.5989 -1.2522
 1114SOL    HW213382   2.700   8.061   1.020 -0.9109  2.3198  0.4235
 1115SOL     OW13383   2.835   0.890   2.111 -0.5406  0.0809  0.6028
 1115SOL    HW113384   2.806   0.803   2.071  0.2740  0.6153 -1.2102
 1115SOL    HW213385   2.756   0.937   2.150 -1.0672 -1.2353  1.1508
 1116SOL     OW13386   1.270   9.290   1.820  0.1213 -0.1448  0.4417
 1116SOL    HW113387   1.199   9.223   1.842 -0.0835 -0.1635 -0.2588
 1116SOL    HW213388   1.273   9.304   1.721  0.6270  0.3704  0.5272
 1117SOL     OW13389   8.563   3.913   1.537 -0.4323 -0.1454 -0.1281
 1117SOL    HW113390   8.517   3.850   1.475  0.0604 -0.8723  0.2315
 1117SOL    HW213391   8.581   3.866   1.624 -0.1771  0.5321  0.1878
 1118SOL     OW13392   2.136   2.079   1.651 -0.1278  0.1729  0.1096
 1118SOL    HW113393   2.087   2.016   1.590  2.6599 -2.1566  0.1730
 1118SOL    HW213394   2.178   2.152   1.596  2.1624 -1.7739 -0.8163
 1119SOL     OW13395   2.190   3.579   1.429 -0.3899 -0.5279 -0.3288
 1119SOL    HW113396   2.272   3.530   1.400  0.2484  0.0843  0.4227
 1119SOL    HW213397   2.125   3.514   1.469 -1.1664 -1.3371 -2.8429
 1120SOL     OW13398   3.779   0.923   0.298  0.0681 -0.1964  0.2625
 1120SOL    HW113399   3.703   0.957   0.244  2.3762  1.8329 -1.7965
 1120SOL    HW213400   3.812   0.996   0.359  1.7246 -0.3740 -0.4121
 1121SOL     OW13401   2.861   0.846   0.671  0.0820 -0.6227 -0.0560
 1121SOL    HW113402   2.794   0.782   0.633  0.4484 -0.6992 -0.5709
 1121SOL    HW213403   2.868   0.830   0.770 -0.7542 -0.5228  0.0260
 1122SOL     OW13404   1.097   6.282   1.734 -0.3613 -0.6141  0.3484
 1122SOL    HW113405   1.114   6.314   1.641  2.0898 -1.3455  0.5184
 1122SOL    HW213406   1.014   6.225   1.734 -2.6027  2.5116 -0.6272
 1123SOL     OW13407   2.776   3.602   1.181 -0.7663  0.6068  0.2119
 1123SOL    HW113408   2.701   3.536   1.177 -0.5206  0.3968 -1.6945
 1123SOL    HW213409   2.846   3.576   1.114  0.6656  1.2185  1.4404
 1124SOL     OW13410   0.226   8.616   0.972 -0.0863  0.1550  0.4134
 1124SOL    HW113411   0.322   8.591   0.958  0.3227 -0.2693  3.4999
 1124SOL    HW213412   0.166   8.545   0.935  0.8593 -0.6647  0.4445
 1125SOL     OW13413   4.578   2.552   1.404  0.2706 -0.2458  0.6318
 1125SOL    HW113414   4.486   2.517   1.421  0.4119 -0.6849  0.4880
 1125SOL    HW213415   4.577   2.652   1.410 -0.6912 -0.0922 -1.6395
 1126SOL     OW13416   3.880   3.758   1.814 -0.1129 -0.4114  0.1086
 1126SOL    HW113417   3.918   3.836   1.763 -2.6076  0.0194 -1.2096
 1126SOL    HW213418   3.844   3.691   1.749 -0.0845 -1.5745  1.2890
 1127SOL     OW13419   3.558   3.983   0.175  0.0411 -0.0245 -0.2152
 1127SOL    HW113420   3.647   3.946   0.150  0.3581  0.4464  0.1982
 1127SOL    HW213421   3.502   3.911   0.216  0.2070 -0.3380 -0.5412
 1128SOL     OW13422   1.804   1.039   1.676  0.9762  0.1230  0.2907
 1128SOL    HW113423   1.874   1.016   1.744  0.9234 -0.3466  0.1890
 1128SOL    HW213424   1.741   0.962   1.667  2.2087 -0.6976 -1.8470
 1129SOL     OW13425   2.108   9.709   0.606  0.1118  0.2150 -0.1159
 1129SOL    HW113426   2.155   9.752   0.530  2.1202  0.0102  0.9630
 1129SOL    HW213427   2.014   9.689   0.581  0.5986  0.6438 -2.3349
 1130SOL     OW13428   1.630   1.747   2.178  0.7019 -0.0307  0.4583
 1130SOL    HW113429   1.673   1.673   2.125  1.9182  1.2505 -0.4145
 1130SOL    HW213430   1.532   1.751   2.158  0.9304 -0.3697 -0.7598
 1131SOL     OW13431   2.557   4.817   1.244  0.4371 -0.2472 -0.1130
 1131SOL    HW113432   2.633   4.834   1.308  0.1378 -0.3330  0.2674
 1131SOL    HW213433   2.515   4.729   1.265 -1.8590  1.2298  1.8138
 1132SOL     OW13434   0.711   2.443   1.017 -0.3969 -0.3447 -0.8000
 1132SOL    HW113435   0.626   2.397   1.041 -0.3900 -0.7894 -1.6142
 1132SOL    HW213436   0.737   2.419   0.924  0.2328  0.3733 -0.8183
 1133SOL     OW13437   3.242   1.198   0.649  0.2524 -0.5432  0.4976
 1133SOL    HW113438   3.145   1.217   0.629  0.0693  0.2552  2.0554
 1133SOL    HW213439   3.294   1.283   0.646  1.2621 -1.2079 -2.0638
 1134SOL     OW13440   9.390   2.936   0.330  0.3628 -0.2556 -0.1572
 1134SOL    HW113441   9.470   2.991   0.354  0.1269 -0.4263  1.0379
 1134SOL    HW213442   9.392   2.850   0.381 -0.7864 -0.0967  0.1667
 1135SOL     OW13443   2.211   0.304   1.778 -0.0510 -0.0446 -0.3511
 1135SOL    HW113444   2.202   0.303   1.679 -0.7676 -2.1462 -0.2849
 1135SOL    HW213445   2.306   0.319   1.803  0.3853 -1.0138 -1.3805
 1136SOL     OW13446   1.755   0.121   0.332  0.0842  0.1134  0.0358
 1136SOL    HW113447   1.816   0.088   0.259 -1.0355  1.9010 -1.7469
 1136SOL    HW213448   1.775   0.070   0.416  1.8517 -1.5519 -1.3147
 1137SOL     OW13449   9.617   3.078   0.407 -0.0915 -1.0381 -0.0247
 1137SOL    HW113450   9.680   3.061   0.331  1.5909  3.0385  0.3397
 1137SOL    HW213451   9.655   3.037   0.491  2.1438  1.3500  0.1865
 1138SOL     OW13452   8.526   2.589   1.272 -0.5789  0.2806  0.4273
 1138SOL    HW113453   8.510   2.504   1.222  0.9047  0.8488 -1.0629
 1138SOL    HW213454   8.439   2.633   1.292 -1.2317 -0.3537 -0.9926
 1139SOL     OW13455   0.228   6.041   0.096 -0.4627 -0.2677 -0.9064
 1139SOL    HW113456   0.167   6.084   0.162 -0.9257 -2.5329  0.1862
 1139SOL    HW213457   0.306   6.101   0.079 -0.6567  0.6269  1.2131
 1140SOL     OW13458   1.870   5.375   1.006 -0.2729  0.1279  0.5518
 1140SOL    HW113459   1.918   5.413   1.085 -0.2604 -0.7476  0.9702
 1140SOL    HW213460   1.776   5.353   1.032  0.4822 -2.7070  1.1283
 1141SOL     OW13461   0.867   9.648   0.975 -0.3012 -0.2584 -0.3042
 1141SOL    HW113462   0.814   9.715   1.026 -2.2591  0.1910 -2.7938
 1141SOL    HW213463   0.959   9.682   0.961 -0.2026  0.2793  1.5425
 1142SOL     OW13464   3.476   0.694   0.459  0.5365  0.3990  0.7961
 1142SOL    HW113465   3.562   0.696   0.509  1.1854  0.4380 -0.2979
 1142SOL    HW213466   3.491   0.725   0.365 -0.2828 -1.3963  0.0350
 1143SOL     OW13467   0.665   3.914   1.386  0.5778 -0.1487 -0.2003
 1143SOL    HW113468   0.763   3.898   1.371  0.6596 -2.2492  2.2379
 1143SOL    HW213469   0.612   3.863   1.319  1.1461  0.4138 -1.0795
 1144SOL     OW13470   4.520   2.018   0.922  0.8206  0.6107  0.1515
 1144SOL    HW113471   4.439   2.074   0.943  0.7045 -0.1606  1.8659
 1144SOL    HW213472   4.562   1.987   1.008  2.3294  0.1329 -0.7451
 1145SOL     OW13473   9.650   3.734   2.541 -0.1550 -0.0136  0.3795
 1145SOL    HW113474   9.743   3.728   2.578 -0.1609 -0.2009  0.3655
 1145SOL    HW213475   9.645   3.808   2.474  0.2539 -0.7251 -0.4290
 1146SOL     OW13476   1.136   9.865   2.122  0.2386 -0.4267  0.2411
 1146SOL    HW113477   1.037   9.872   2.111  0.4518  0.8873 -0.9027
 1146SOL    HW213478   1.159   9.867   2.219 -0.6896  1.5652  0.4423
 1147SOL     OW13479   9.160   2.084   1.067  0.4272 -0.2553  0.8211
 1147SOL    HW113480   9.187   2.124   1.155 -1.0760  0.8319  0.8209
 1147SOL    HW213481   9.063   2.102   1.052  0.3316 -1.7402 -0.3815
 1148SOL     OW13482   2.312   3.967   2.488 -0.0729  0.4705  0.2669
 1148SOL    HW113483   2.263   3.910   2.554  1.0694  0.4867  1.1288
 1148SOL    HW213484   2.410   3.962   2.505  0.0970  2.0653 -0.1524
 1149SOL     OW13485   8.769   1.670   0.178 -0.4063  0.8473 -0.0058
 1149SOL    HW113486   8.687   1.644   0.128  0.4485  0.7926 -1.4053
 1149SOL    HW213487   8.815   1.588   0.211  0.5077  0.7402 -1.5316
 1150SOL     OW13488   0.199   9.657   0.481 -0.0838 -0.8562  0.2704
 1150SOL    HW113489   0.171   9.637   0.575 -0.8446 -0.7389  0.0787
 1150SOL    HW213490   0.258   9.737   0.480 -0.2542 -0.7245  0.6315
 1151SOL     OW13491   1.656   2.986   1.748  0.3190  0.1847 -0.1365
 1151SOL    HW113492   1.662   3.003   1.847 -0.5840 -1.1157  0.1643
 1151SOL    HW213493   1.571   3.026   1.713  0.1175 -0.2729 -0.1765
 1152SOL     OW13494   2.787   0.339   1.536  0.4938  0.3375 -0.2442
 1152SOL    HW113495   2.808   0.334   1.438  0.5589 -0.4224 -0.1882
 1152SOL    HW213496   2.766   0.248   1.571  0.4784  0.6061  0.4556
 1153SOL     OW13497   9.635   1.420   0.704 -0.2852 -0.4089  0.3818
 1153SOL    HW113498   9.618   1.341   0.763 -0.1655  0.0678  1.0733
 1153SOL    HW213499   9.634   1.503   0.760 -1.8831  0.2264 -0.5577
 1154SOL     OW13500   9.566   6.536   0.475 -0.0925 -0.6498 -0.3749
 1154SOL    HW113501   9.598   6.630   0.460  0.5424 -0.9489 -0.9144
 1154SOL    HW213502   9.541   6.495   0.387 -1.3312 -0.6418 -0.0277
 1155SOL     OW13503   0.052   0.374   1.746 -0.0051 -0.1705 -0.3634
 1155SOL    HW113504   0.141   0.386   1.703 -0.6712 -1.6468 -2.2266
 1155SOL    HW213505   0.004   0.298   1.702 -1.7278 -0.1190  1.3694
 1156SOL     OW13506   0.820   1.069   0.416 -0.0116 -0.3605 -0.1308
 1156SOL    HW113507   0.863   1.005   0.352  0.4637 -0.8476  0.6661
 1156SOL    HW213508   0.887   1.140   0.441 -1.0561  1.5023 -2.3726
 1157SOL     OW13509   1.818   4.671   0.714  0.1636  0.0615  0.0068
 1157SOL    HW113510   1.804   4.577   0.685 -0.6332  0.5320 -1.1664
 1157SOL    HW213511   1.777   4.685   0.804  0.4409 -0.7595  0.2575
 1158SOL     OW13512   3.241   3.945   0.729  0.4369  0.1848  0.4005
 1158SOL    HW113513   3.213   3.883   0.802 -1.0108 -0.3721 -0.6058
 1158SOL    HW213514   3.160   3.985   0.686  1.2477  0.3917 -0.9755
 1159SOL     OW13515   1.928   4.079   2.186 -0.6035 -0.6633  0.5527
 1159SOL    HW113516   1.831   4.075   2.206 -0.4398  0.7507  1.7223
 1159SOL    HW213517   1.974   4.139   2.252  0.7667  0.1237 -1.0593
 1160SOL     OW13518   1.840   3.446   0.099 -0.1608  0.2822 -0.3297
 1160SOL    HW113519   1.870   3.398   0.181 -2.6633 -2.8997 -1.1597
 1160SOL    HW213520   1.768   3.511   0.123  0.6779  1.0034  0.2787
 1161SOL     OW13521   2.267   3.235   0.369  0.6966  0.0532  0.2210
 1161SOL    HW113522   2.238   3.246   0.464  1.0355 -2.1618  0.6110
 1161SOL    HW213523   2.366   3.222   0.366  1.0370  2.5375 -0.6738
 1162SOL     OW13524   0.533   5.721   0.154  0.0784  0.3627  0.3069
 1162SOL    HW113525   0.620   5.726   0.203  0.5380 -0.3959 -0.4260
 1162SOL    HW213526   0.550   5.702   0.057 -0.9790 -2.0820  0.5554
 1163SOL     OW13527   0.862   5.383   0.854 -0.6850 -0.1150  0.0515
 1163SOL    HW113528   0.873   5.454   0.923  0.2388 -0.6603  0.4719
 1163SOL    HW213529   0.777   5.399   0.803 -0.5670  1.1910  0.2488
 1164SOL     OW13530   2.022   9.039   2.434 -0.7365  0.2720 -0.3002
 1164SOL    HW113531   2.040   9.027   2.336  0.3958  1.9768 -0.3124
 1164SOL    HW213532   1.989   9.132   2.451  0.0723  0.3179  1.0757
 1165SOL     OW13533   0.059   5.357   0.999 -0.8053 -0.0112  0.8843
 1165SOL    HW113534   0.064   5.453   1.029 -2.2324 -0.3572  2.2653
 1165SOL    HW213535   0.119   5.301   1.057  0.8808  0.1803 -0.6138
 1166SOL     OW13536   2.353   4.633   1.377  0.2437  0.4130  0.1295
 1166SOL    HW113537   2.318   4.677   1.459 -0.3594 -0.5599  0.4041
 1166SOL    HW213538   2.365   4.535   1.394  2.2618  0.5602 -0.2315
 1167SOL     OW13539   9.650   0.978   2.272  0.4647 -0.4825  0.1124
 1167SOL    HW113540   9.663   0.952   2.368 -0.4099  1.2858  0.7099
 1167SOL    HW213541   9.553   0.988   2.252  0.6789 -0.0361 -0.7506
 1168SOL     OW13542   0.418   9.478   0.419  0.5857 -0.5526  0.7183
 1168SOL    HW113543   0.355   9.555   0.425  0.3234 -0.8396  1.6956
 1168SOL    HW213544   0.461   9.477   0.328  0.2995  0.5063  0.5686
 1169SOL     OW13545   4.584   3.298   2.567  0.7941  0.0562 -0.4356
 1169SOL    HW113546   4.566   3.226   2.634 -0.7846 -0.6917 -1.6215
 1169SOL    HW213547   4.506   3.361   2.564  1.3224  0.6980 -0.7958
 1170SOL     OW13548   0.621   9.589   0.156  0.4564  0.3231 -0.2019
 1170SOL    HW113549   0.637   9.642   0.239  0.4492 -1.6984  1.1394
 1170SOL    HW213550   0.536   9.618   0.113 -1.2584 -0.7978  2.3255
 1171SOL     OW13551   2.018   8.776   1.870  0.0940  0.2784 -0.0195
 1171SOL    HW113552   2.046   8.845   1.803  2.2763 -1.0471 -0.5364
 1171SOL    HW213553   2.056   8.687   1.843 -3.1595 -1.2778  0.2836
 1172SOL     OW13554   2.273   9.805   0.386  0.1015 -0.1843 -0.1656
 1172SOL    HW113555   2.193   9.860   0.360 -0.1418 -0.6811 -0.4783
 1172SOL    HW213556   2.285   9.731   0.320  0.8894 -0.0464 -0.1862
 1173SOL     OW13557   1.364   7.951   1.007 -0.5119 -0.8307  0.3625
 1173SOL    HW113558   1.319   8.000   0.933  0.4401 -1.5912 -0.7355
 1173SOL    HW213559   1.398   8.016   1.075 -0.3776 -0.0614 -0.4370
 1174SOL     OW13560   0.800   1.138   1.517  0.1561  0.1221 -0.0923
 1174SOL    HW113561   0.879   1.176   1.565  0.1417 -0.4566  0.3893
 1174SOL    HW213562   0.805   1.163   1.420  0.8839  0.1588 -0.0453
 1175SOL     OW13563   0.282   7.877   1.356 -0.0667  0.4185 -0.3603
 1175SOL    HW113564   0.313   7.911   1.444  0.9013  0.8371 -0.8607
 1175SOL    HW213565   0.222   7.798   1.370  0.8909 -0.1404  0.6261
 1176SOL     OW13566   1.284   1.575   1.562 -0.1832  0.5312  0.6509
 1176SOL    HW113567   1.309   1.525   1.645 -0.3600  1.4554  1.2720
 1176SOL    HW213568   1.199   1.539   1.525  0.1969 -0.2638  0.5519
 1177SOL     OW13569   4.055   4.854   0.963 -0.2790  0.0692 -0.5139
 1177SOL    HW113570   4.057   4.818   0.870 -0.5597 -0.5502 -0.2909
 1177SOL    HW213571   3.961   4.879   0.987 -0.0597  1.0736 -0.7109
 1178SOL     OW13572   3.496   8.017   1.165 -0.2490  0.3325 -0.0311
 1178SOL    HW113573   3.537   8.014   1.074 -0.0371 -0.5764  0.0817
 1178SOL    HW213574   3.406   8.061   1.160 -0.2279  0.3075 -0.6754
 1179SOL     OW13575   0.211   5.952   0.904  0.4104  0.1287  0.3108
 1179SOL    HW113576   0.187   6.003   0.987  1.2878  0.5396  0.3132
 1179SOL    HW213577   0.193   5.855   0.919  2.7303 -0.1143  1.8181
 1180SOL     OW13578   2.259   1.599   0.203  0.5241  0.2364  0.6513
 1180SOL    HW113579   2.191   1.578   0.133  0.9133  0.0150  0.3382
 1180SOL    HW213580   2.319   1.673   0.171  2.6092 -1.8831 -0.5251
 1181SOL     OW13581   4.024   1.082   1.577 -0.2849  0.2652 -0.4492
 1181SOL    HW113582   3.924   1.077   1.575 -0.3417  0.3594  1.3168
 1181SOL    HW213583   4.052   1.162   1.630  0.7247 -0.4936  0.1797
 1182SOL     OW13584   2.610   1.768   0.423 -0.6326  0.0639  0.2486
 1182SOL    HW113585   2.641   1.676   0.402  1.3039  0.9720 -1.0578
 1182SOL    HW213586   2.659   1.803   0.503  0.2889  0.7691 -0.6132
 1183SOL     OW13587   3.200   8.282   1.053 -0.0593 -0.1081  0.0249
 1183SOL    HW113588   3.259   8.338   0.994 -0.9647 -0.7091 -1.4764
 1183SOL    HW213589   3.123   8.337   1.084  0.8017  0.4247  1.2958
 1184SOL     OW13590   0.349   1.373   2.154 -0.1543  0.3097 -0.0982
 1184SOL    HW113591   0.424   1.437   2.138 -1.0320  1.6270  0.9714
 1184SOL    HW213592   0.321   1.376   2.250 -1.3355 -0.4197 -0.4007
 1185SOL     OW13593   0.626   4.876   0.886  0.2930  0.3966  0.0609
 1185SOL    HW113594   0.664   4.940   0.820  0.0061  1.5716  1.0069
 1185SOL    HW213595   0.700   4.821   0.925  0.6947  0.9320  0.0580
 1186SOL     OW13596   4.406   2.454   1.656 -0.0077 -0.1041  0.4594
 1186SOL    HW113597   4.454   2.500   1.730  0.7304  0.9662 -0.6659
 1186SOL    HW213598   4.348   2.382   1.694  1.6216 -0.6865  1.9408
 1187SOL     OW13599   0.735   4.136   0.842  0.1939 -0.5478  0.5358
 1187SOL    HW113600   0.652   4.083   0.857 -0.8028  1.2230  1.4915
 1187SOL    HW213601   0.804   4.079   0.797 -0.7399 -2.7051  1.7604
 1188SOL     OW13602   2.112   8.952   0.822  0.4120 -0.2839 -0.4632
 1188SOL    HW113603   2.097   9.001   0.908  1.5180 -0.9371  0.1115
 1188SOL    HW213604   2.200   8.981   0.782 -0.5252  0.7129 -1.8608
 1189SOL     OW13605   8.807   1.497   1.928  0.0267  0.2088  0.0992
 1189SOL    HW113606   8.900   1.503   1.966  0.8783 -2.8009 -1.4199
 1189SOL    HW213607   8.743   1.477   2.002  0.8731  0.1608  0.8370
 1190SOL     OW13608   2.808   1.777   2.192  0.2759  0.0635  0.4354
 1190SOL    HW113609   2.750   1.792   2.112  1.6474  1.3052 -0.3431
 1190SOL    HW213610   2.811   1.860   2.248 -1.0712 -0.9472  2.0745
 1191SOL     OW13611   2.355   8.699   1.685  0.0610  0.2853 -0.2702
 1191SOL    HW113612   2.366   8.784   1.633 -0.7104  0.7208  0.2617
 1191SOL    HW213613   2.258   8.672   1.682  0.2028 -0.2517  0.0668
 1192SOL     OW13614   1.200   5.147   0.315  0.7957  0.2098  0.0545
 1192SOL    HW113615   1.267   5.219   0.295 -0.4509  1.4605  0.3388
 1192SOL    HW213616   1.151   5.125   0.231  1.1024 -0.2412 -0.0077
 1193SOL     OW13617   4.264   2.729   1.212  0.1659 -0.3500  0.1814
 1193SOL    HW113618   4.212   2.775   1.284  2.6031 -1.1015  2.5203
 1193SOL    HW213619   4.267   2.630   1.231 -0.5674 -0.7802 -1.8736
 1194SOL     OW13620   9.206   2.330   0.627 -0.0905 -0.1901 -0.2248
 1194SOL    HW113621   9.146   2.344   0.705  0.8839  0.6145  0.4032
 1194SOL    HW213622   9.300   2.356   0.653  0.4243 -0.9247 -1.3342
 1195SOL     OW13623   0.034   4.009   1.863 -0.0636  0.1950 -0.7010
 1195SOL    HW113624  -0.043   3.947   1.851  0.7699 -1.1205  0.5779
 1195SOL    HW213625   0.063   4.045   1.774 -0.9176 -0.7930 -1.3791
 1196SOL     OW13626   9.866   6.798   2.449 -0.2403  0.2428 -0.1559
 1196SOL    HW113627   9.961   6.817   2.424 -0.1253  0.9424  0.7982
 1196SOL    HW213628   9.853   6.699   2.456  0.8562  0.1878  1.3700
 1197SOL     OW13629   1.455   7.951   1.582  0.2517  0.3287  0.1708
 1197SOL    HW113630   1.543   7.923   1.543 -0.2805 -0.2825 -0.6030
 1197SOL    HW213631   1.467   7.973   1.679  0.8378 -1.8359  0.6080
 1198SOL     OW13632   2.673   8.342   0.737  0.2977 -0.5574  0.3455
 1198SOL    HW113633   2.585   8.381   0.709  1.7811  2.4765 -0.3203
 1198SOL    HW213634   2.704   8.275   0.669 -0.8041 -0.5646 -0.1471
 1199SOL     OW13635   2.235   0.452   2.490 -0.9369  0.7181  0.1123
 1199SOL    HW113636   2.228   0.357   2.461 -2.2666  0.6659  0.5946
 1199SOL    HW213637   2.331   0.475   2.505 -0.7394 -1.1162  1.8692
 1200SOL     OW13638   3.015   4.609   1.762  0.0730  0.2275 -0.1328
 1200SOL    HW113639   2.925   4.632   1.799 -0.2275  1.0015 -1.3120
 1200SOL    HW213640   3.004   4.545   1.686  0.5106  0.4037 -0.3472
 1201SOL     OW13641   4.138   3.025   2.544  0.1186 -0.1498 -0.2832
 1201SOL    HW113642   4.210   2.977   2.493 -1.1562 -1.5070 -0.8406
 1201SOL    HW213643   4.094   2.961   2.607 -2.5096 -0.0948 -2.0184
 1202SOL     OW13644   9.626   0.673   1.423  0.0559 -0.2596  0.1888
 1202SOL    HW113645   9.526   0.684   1.430  0.2585  1.4648  0.6580
 1202SOL    HW213646   9.668   0.706   1.508  0.8884 -3.1357  0.9384
 1203SOL     OW13647   1.724   9.526   0.257 -0.3044 -0.2069 -0.1833
 1203SOL    HW113648   1.808   9.539   0.311  0.9379 -1.8841 -1.6354
 1203SOL    HW213649   1.662   9.465   0.305 -0.5162  0.6893  0.6994
 1204SOL     OW13650   1.830   9.142   1.859 -0.0572  0.0107  0.0143
 1204SOL    HW113651   1.780   9.089   1.791 -0.8332  0.1046  0.5031
 1204SOL    HW213652   1.787   9.130   1.949  0.3908  0.6343  0.3142
 1205SOL     OW13653   1.211   3.667   1.079  0.1012  0.1392  0.1420
 1205SOL    HW113654   1.178   3.581   1.118 -1.6716 -0.0167 -1.5849
 1205SOL    HW213655   1.263   3.649   0.995 -1.8351  0.7853 -1.2575
 1206SOL     OW13656   2.183   3.550   2.069 -0.0693  0.6107  0.0562
 1206SOL    HW113657   2.105   3.571   2.128  1.6208  0.1020  2.5453
 1206SOL    HW213658   2.231   3.635   2.047 -0.9386  0.8514 -0.9916
 1207SOL     OW13659   3.372   9.922   1.933 -0.1048 -0.1018 -0.7200
 1207SOL    HW113660   3.450   9.902   1.991 -0.4932  1.0748  0.2412
 1207SOL    HW213661   3.299   9.856   1.951  0.3068 -0.6111 -0.9155
 1208SOL     OW13662   1.568   6.592   1.804  0.0804  0.0407 -0.5811
 1208SOL    HW113663   1.507   6.659   1.762  1.7146  1.3989 -0.8584
 1208SOL    HW213664   1.605   6.629   1.889  0.7927 -0.6046 -0.6040
 1209SOL     OW13665   0.535   2.398   1.448 -0.3700  0.2254  0.1276
 1209SOL    HW113666   0.489   2.375   1.362 -1.6463  0.1851  0.8210
 1209SOL    HW213667   0.544   2.497   1.455  1.2862  0.1722 -0.8436
 1210SOL     OW13668   0.647   8.415   1.304 -0.4500  0.4805  0.2207
 1210SOL    HW113669   0.671   8.363   1.386  1.5954 -1.0297 -1.2674
 1210SOL    HW213670   0.551   8.400   1.281 -0.1005 -2.0037  0.2897
 1211SOL     OW13671   4.741   2.527   0.466  0.1845 -0.3861  0.5645
 1211SOL    HW113672   4.724   2.440   0.512  0.0363 -0.2424  0.7819
 1211SOL    HW213673   4.739   2.601   0.533  0.5788 -0.2448  0.4212
 1212SOL     OW13674   1.982   3.422   0.524  0.0532 -0.3620  0.2849
 1212SOL    HW113675   2.032   3.505   0.549 -0.7332  0.7110 -1.6407
 1212SOL    HW213676   1.994   3.404   0.427 -1.3382 -1.4490  0.3075
 1213SOL     OW13677   9.020   2.999   1.138  0.4372  0.0024 -0.3911
 1213SOL    HW113678   9.089   3.049   1.085  1.0754 -0.8416 -0.3638
 1213SOL    HW213679   8.999   2.913   1.092 -0.5462  0.2156 -0.3575
 1214SOL     OW13680   9.753   4.859   1.738  0.6067  0.7954  0.2442
 1214SOL    HW113681   9.713   4.809   1.661  1.4753  2.3684 -1.2673
 1214SOL    HW213682   9.741   4.807   1.822 -1.1455 -0.5447 -0.8196
 1215SOL     OW13683   3.843   0.447   1.510  0.2677 -0.2790 -0.2896
 1215SOL    HW113684   3.750   0.413   1.523 -0.0800  1.6355  2.8612
 1215SOL    HW213685   3.842   0.525   1.448 -0.2014 -0.4917 -0.5460
 1216SOL     OW13686   1.673   2.596   0.763  0.3055 -0.6114 -0.6916
 1216SOL    HW113687   1.592   2.581   0.819  0.6075 -1.5371 -0.4885
 1216SOL    HW213688   1.744   2.641   0.817  0.2265 -0.5636 -0.6286
 1217SOL     OW13689   1.546   7.316   1.581 -0.0183 -0.3020  0.3060
 1217SOL    HW113690   1.643   7.298   1.564  0.4518  1.4432  0.9572
 1217SOL    HW213691   1.512   7.383   1.515 -0.4728 -0.0645  0.7685
 1218SOL     OW13692   0.446   1.349   1.428 -0.5799 -0.1551 -0.1726
 1218SOL    HW113693   0.391   1.416   1.478  2.3905  1.2923  1.2471
 1218SOL    HW213694   0.476   1.277   1.490  1.5183  0.6114 -0.2794
 1219SOL     OW13695   1.279   0.357   1.614  0.6048  0.8956  0.1766
 1219SOL    HW113696   1.320   0.364   1.523  2.6463 -0.9398  0.9062
 1219SOL    HW213697   1.351   0.344   1.682 -1.0159  0.3806  1.8454
 1220SOL     OW13698   3.470   0.246   0.421  0.1801 -0.1971  0.0721
 1220SOL    HW113699   3.482   0.301   0.338  1.4795 -0.2959  0.1855
 1220SOL    HW213700   3.548   0.258   0.481 -0.5289 -0.5197  1.0679
 1221SOL     OW13701   0.413   2.161   1.962  0.2961 -0.2039  0.3189
 1221SOL    HW113702   0.504   2.183   1.928  0.1083  0.6424  0.3651
 1221SOL    HW213703   0.410   2.177   2.061 -0.2736  0.9869  0.1101
 1222SOL     OW13704   9.258   4.012   0.592 -0.0285 -0.1198 -0.2014
 1222SOL    HW113705   9.244   4.035   0.496 -0.5916 -0.5048 -0.2117
 1222SOL    HW213706   9.180   3.960   0.626  1.4648 -2.5241 -0.3307
 1223SOL     OW13707   4.547   4.083   0.209 -0.0744  0.4272  0.2790
 1223SOL    HW113708   4.496   4.169   0.207  1.4586  1.3669  0.9731
 1223SOL    HW213709   4.484   4.007   0.226 -1.3402  1.4910  0.3866
 1224SOL     OW13710   9.817   2.065   1.557 -0.5047  0.0378 -0.0366
 1224SOL    HW113711   9.746   2.016   1.607  0.0785 -1.2091 -0.4291
 1224SOL    HW213712   9.839   2.016   1.473 -0.5634  1.4452 -0.9012
 1225SOL     OW13713   2.288   9.816   2.410  0.1180  0.1337  0.0200
 1225SOL    HW113714   2.197   9.788   2.379 -0.0820  0.4836  0.2893
 1225SOL    HW213715   2.299   9.793   2.506 -0.1541  1.2379  0.3145
 1226SOL     OW13716   2.134   1.411   0.738 -0.1188 -0.3175  0.3775
 1226SOL    HW113717   2.106   1.506   0.727  1.7080  0.3671  1.3507
 1226SOL    HW213718   2.057   1.356   0.769 -1.0026  1.0010  0.5408
 1227SOL     OW13719   1.591   2.686   1.208  0.5815 -0.3012  0.0799
 1227SOL    HW113720   1.568   2.753   1.137  0.6931 -0.5137 -0.1531
 1227SOL    HW213721   1.581   2.730   1.298 -1.9491 -0.7213  0.0489
 1228SOL     OW13722   2.183   5.056   2.131  0.0880 -0.0610  0.4947
 1228SOL    HW113723   2.241   5.079   2.209  0.6431 -2.5277  0.8352
 1228SOL    HW213724   2.088   5.052   2.161 -0.0559  1.9288  0.3795
 1229SOL     OW13725   4.246   1.717   0.805  0.2437 -0.3667  0.0139
 1229SOL    HW113726   4.258   1.625   0.769  3.9070 -0.4381  1.2101
 1229SOL    HW213727   4.311   1.779   0.761 -1.2686  1.3772  0.1836
 1230SOL     OW13728   8.581   4.652   0.789 -0.3494  0.9355 -0.0110
 1230SOL    HW113729   8.551   4.609   0.703  1.9988  1.6827 -1.2400
 1230SOL    HW213730   8.608   4.746   0.771 -1.8971  1.7859  1.9900
 1231SOL     OW13731   0.311   4.750   1.287  0.2154 -0.1399 -1.1514
 1231SOL    HW113732   0.247   4.783   1.218  0.3039 -2.3750 -2.3739
 1231SOL    HW213733   0.263   4.734   1.373 -0.4386  0.2107 -1.4488
 1232SOL     OW13734   9.901   1.309   1.646 -1.0631 -0.2490  0.0939
 1232SOL    HW113735   9.830   1.379   1.658 -1.3273  0.2743 -4.0773
 1232SOL    HW213736   9.858   1.220   1.632 -0.9442 -0.0161 -1.9087
 1233SOL     OW13737   2.661   1.849   2.582 -0.0990 -0.5217 -0.0191
 1233SOL    HW113738   2.653   1.764   2.530  1.4609 -1.5666  1.4205
 1233SOL    HW213739   2.679   1.925   2.518 -1.9377 -1.1812 -1.3443
 1234SOL     OW13740   0.138   9.520   0.243 -0.2543 -0.2847 -0.1209
 1234SOL    HW113741   0.162   9.555   0.333  0.1405 -0.3268 -0.2087
 1234SOL    HW213742   0.058   9.460   0.251 -1.0042  0.7252  0.0076
 1235SOL     OW13743   3.233   0.887   0.269 -0.1099 -0.4542  0.3291
 1235SOL    HW113744   3.163   0.931   0.214  0.4129 -1.8523 -1.5220
 1235SOL    HW213745   3.190   0.832   0.341 -0.8556 -0.2629  0.0339
 1236SOL     OW13746   0.054   5.149   0.386 -0.4345 -0.2416  0.2758
 1236SOL    HW113747   0.001   5.206   0.323  0.6534 -0.1965 -0.6226
 1236SOL    HW213748   0.100   5.207   0.453 -0.9573 -0.2250  0.6194
 1237SOL     OW13749   0.849   2.557   0.350 -0.0989 -0.3770 -0.2150
 1237SOL    HW113750   0.947   2.543   0.335  0.1275 -0.4480  1.2962
 1237SOL    HW213751   0.831   2.655   0.358  0.0540 -0.4340  0.8601
 1238SOL     OW13752   9.499   0.433   0.829 -0.1408 -0.2923  0.3427
 1238SOL    HW113753   9.513   0.396   0.921 -0.5804 -1.0834  0.0902
 1238SOL    HW213754   9.550   0.379   0.762  1.4087  1.1923  0.2870
 1239SOL     OW13755   1.654   1.571   0.314  0.1904 -0.3991  0.2575
 1239SOL    HW113756   1.741   1.522   0.304  0.4376  0.2490 -0.8250
 1239SOL    HW213757   1.601   1.564   0.230  0.4668  1.6422 -0.1150
 1240SOL     OW13758   2.357   0.628   1.460  0.1472  0.9722 -0.5048
 1240SOL    HW113759   2.427   0.577   1.511 -0.5940  1.1289  0.6971
 1240SOL    HW213760   2.341   0.584   1.372 -0.6852 -1.0747  0.6215
 1241SOL     OW13761   3.389   0.875   0.890 -0.4120  0.1979  0.7383
 1241SOL    HW113762   3.363   0.802   0.827  0.2260  1.0457 -0.5302
 1241SOL    HW213763   3.346   0.961   0.862  0.5861  0.7717  0.9382
 1242SOL     OW13764   2.659   0.102   1.710  0.2023  0.0372 -0.7291
 1242SOL    HW113765   2.642   0.020   1.656  2.4193 -0.1433 -1.2254
 1242SOL    HW213766   2.712   0.079   1.791  1.5662  1.0591 -1.2968
 1243SOL     OW13767   0.948   2.557   1.697  0.2760  0.3419 -0.0415
 1243SOL    HW113768   0.964   2.491   1.770  2.5325  1.6157  0.6571
 1243SOL    HW213769   1.028   2.616   1.687 -1.5704  2.7885 -0.8634
 1244SOL     OW13770   0.113   4.706   0.177 -0.0061 -0.1036  0.2840
 1244SOL    HW113771   0.179   4.743   0.243 -1.2453 -0.4176  1.7397
 1244SOL    HW213772   0.108   4.606   0.188 -0.6158 -0.0962  0.0831
 1245SOL     OW13773   1.008   1.937   1.299  0.0366  0.4583 -0.1837
 1245SOL    HW113774   0.979   1.901   1.388 -0.4868  0.1602 -0.4730
 1245SOL    HW213775   0.927   1.971   1.250  0.2148 -0.1509 -0.8989
 1246SOL     OW13776   1.620   3.250   1.307 -0.5073 -0.2399  0.4041
 1246SOL    HW113777   1.683   3.187   1.353  0.3533  0.8180  0.6933
 1246SOL    HW213778   1.556   3.197   1.251 -0.8148 -1.4711  1.8716
 1247SOL     OW13779   3.325   0.694   0.709 -0.1030  0.3147  0.2702
 1247SOL    HW113780   3.269   0.613   0.719  1.1064 -0.5330  0.2653
 1247SOL    HW213781   3.369   0.694   0.619  0.6157  0.4983  0.6108
 1248SOL     OW13782   0.132   5.522   2.240  0.1274 -0.1807  0.1720
 1248SOL    HW113783   0.156   5.444   2.298 -0.3957 -0.2287  0.3270
 1248SOL    HW213784   0.049   5.565   2.275  1.3425  1.4783  1.0818
 1249SOL     OW13785   9.471   3.137   0.081  0.1673  0.0760 -0.1326
 1249SOL    HW113786   9.381   3.121   0.122  0.0079 -0.1998 -0.6013
 1249SOL    HW213787   9.474   3.230   0.044  0.4171  0.4431  0.7704
 1250SOL     OW13788   9.055   2.628   1.465  0.1173  0.1915 -0.4400
 1250SOL    HW113789   9.091   2.722   1.466 -0.2978  0.3742 -1.4541
 1250SOL    HW213790   8.956   2.630   1.475  0.3082 -0.2834  1.8062
 1251SOL     OW13791   3.361   2.914   1.814  0.0924 -0.9633  0.1775
 1251SOL    HW113792   3.322   2.987   1.870 -0.1608 -0.6197 -0.4327
 1251SOL    HW213793   3.342   2.934   1.717 -0.1254 -1.9340  0.0224
 1252SOL     OW13794   3.213   8.624   1.838 -0.2306 -0.0590 -0.0096
 1252SOL    HW113795   3.201   8.579   1.750  1.6955  1.5039 -1.1094
 1252SOL    HW213796   3.286   8.692   1.831 -1.5635  1.6665  2.2024
 1253SOL     OW13797   3.474   9.339   1.320  0.1788 -0.5814 -0.0025
 1253SOL    HW113798   3.501   9.320   1.415 -2.0541 -1.3495  0.5162
 1253SOL    HW213799   3.553   9.369   1.268  1.3456  0.3715  2.2532
 1254SOL     OW13800   0.437   1.961   0.346 -0.6695  0.2003 -0.1468
 1254SOL    HW113801   0.531   1.927   0.344 -0.5728  0.4672 -0.1654
 1254SOL    HW213802   0.419   2.014   0.264 -0.8431  0.1318 -0.1529
 1255SOL     OW13803   2.265   2.299   0.760 -0.3220  0.0748 -0.6288
 1255SOL    HW113804   2.219   2.244   0.691  0.9955  0.2829 -1.7015
 1255SOL    HW213805   2.225   2.282   0.849  1.3664 -4.2037 -0.5770
 1256SOL     OW13806   9.690   1.632   0.516 -0.2677 -0.2123  0.2066
 1256SOL    HW113807   9.623   1.664   0.449 -0.7704  0.6164  1.1011
 1256SOL    HW213808   9.654   1.552   0.564 -0.8469  0.5777  1.0844
 1257SOL     OW13809   0.759   6.479   1.437  0.2803 -0.4172 -0.0604
 1257SOL    HW113810   0.722   6.402   1.386 -2.3453 -0.1057  1.2724
 1257SOL    HW213811   0.774   6.556   1.375 -0.5684 -0.8211 -0.7866
 1258SOL     OW13812   0.570   2.556   2.356  0.6013 -0.2303 -0.2738
 1258SOL    HW113813   0.631   2.617   2.306 -0.4060  1.0944  0.0810
 1258SOL    HW213814   0.623   2.492   2.410  1.6740  0.3266 -0.6596
 1259SOL     OW13815   0.528   0.484   1.305 -0.5286  0.1385 -0.7563
 1259SOL    HW113816   0.606   0.476   1.244 -2.0646  0.5707 -2.8517
 1259SOL    HW213817   0.464   0.552   1.270 -2.4364 -1.0793  0.2234
 1260SOL     OW13818   8.956   4.768   2.366  0.1489 -0.1263 -0.0608
 1260SOL    HW113819   9.003   4.840   2.314 -2.2932 -0.5287 -2.9452
 1260SOL    HW213820   8.955   4.683   2.312 -1.5013 -0.8588  1.0772
 1261SOL     OW13821   0.905   4.997   1.489  0.4362  0.1903 -0.0581
 1261SOL    HW113822   0.974   5.000   1.417  0.2536  3.3834 -0.1616
 1261SOL    HW213823   0.815   4.985   1.449  0.3967  1.3888 -0.3494
 1262SOL     OW13824   1.452   0.793   2.434  0.1945 -0.0102 -0.6864
 1262SOL    HW113825   1.407   0.764   2.349  0.3938  2.6367 -1.7410
 1262SOL    HW213826   1.387   0.843   2.491  0.2306 -1.2599  0.4606
 1263SOL     OW13827   9.462   2.104   2.037 -0.2128 -0.4940  0.3306
 1263SOL    HW113828   9.515   2.085   2.119  1.7711  3.8078  0.1883
 1263SOL    HW213829   9.369   2.130   2.062  0.7222  2.0059  1.4080
 1264SOL     OW13830   9.003   5.672   0.641 -0.1053  0.0236  0.5000
 1264SOL    HW113831   8.946   5.684   0.722  2.7584 -0.5606  2.6872
 1264SOL    HW213832   8.947   5.638   0.566 -3.0203  1.4807  1.9167
 1265SOL     OW13833   3.295   0.274   0.980 -0.3032 -0.3581 -0.6875
 1265SOL    HW113834   3.270   0.371   0.989  1.9868  0.2188 -0.1423
 1265SOL    HW213835   3.290   0.247   0.884  0.9575  0.8635 -1.1170
 1266SOL     OW13836   1.724   7.418   0.477 -0.0907 -0.3015  0.2939
 1266SOL    HW113837   1.662   7.362   0.422 -0.6872  0.3896  0.2414
 1266SOL    HW213838   1.775   7.360   0.540  1.6887 -1.3089 -1.9785
 1267SOL     OW13839   1.082   8.718   1.202  0.0252 -0.4760 -0.2018
 1267SOL    HW113840   1.143   8.744   1.127 -0.9955 -0.2390 -0.9612
 1267SOL    HW213841   1.038   8.632   1.180 -3.2956  1.5303 -1.7181
 1268SOL     OW13842   2.308   7.934   2.094 -0.2017 -0.1166  0.6453
 1268SOL    HW113843   2.360   7.921   2.010  0.6682  2.7872  0.6532
 1268SOL    HW213844   2.372   7.940   2.171 -0.9059 -1.4920  1.3441
 1269SOL     OW13845   3.748   8.193   1.194 -0.4202 -0.1365  0.1890
 1269SOL    HW113846   3.709   8.115   1.146  0.8633 -0.0707 -0.9900
 1269SOL    HW213847   3.848   8.188   1.191 -0.3221  0.4779  1.8644
 1270SOL     OW13848   9.941   7.570   0.376  0.3437  1.0398 -0.5334
 1270SOL    HW113849  10.015   7.531   0.322 -0.3573 -1.9761  0.5942
 1270SOL    HW213850   9.977   7.601   0.465  0.1715 -1.1392  0.3273
 1271SOL     OW13851   9.263   2.209   2.250  0.1010 -0.2106  0.6020
 1271SOL    HW113852   9.263   2.119   2.205  2.1170 -0.9349  1.9436
 1271SOL    HW213853   9.223   2.200   2.341  0.7176  0.1292  0.9121
 1272SOL     OW13854   0.905   9.195   0.713  0.5956 -0.1395 -0.0795
 1272SOL    HW113855   0.846   9.267   0.749  0.4396 -0.5041  0.4048
 1272SOL    HW213856   0.849   9.130   0.661  0.3533 -1.2007  1.4839
 1273SOL     OW13857   0.035   7.967   1.076  0.4587 -0.0118  0.0992
 1273SOL    HW113858  -0.033   7.914   1.126  0.1116  0.4803  0.1528
 1273SOL    HW213859   0.012   8.064   1.081 -0.0024 -0.0192 -1.6870
 1274SOL     OW13860   2.128   5.882   1.366  0.1607  0.3024 -0.0697
 1274SOL    HW113861   2.136   5.819   1.443  0.3306  0.2018 -0.1708
 1274SOL    HW213862   2.047   5.940   1.379  0.1742  0.2685  0.1705
 1275SOL     OW13863   2.097   4.862   0.177 -0.3655 -0.2922  0.3226
 1275SOL    HW113864   2.159   4.788   0.204 -0.6633 -0.5084  0.4165
 1275SOL    HW213865   2.138   4.950   0.203  0.4955 -0.3531 -0.8059
 1276SOL     OW13866   0.451   3.907   2.285  0.4022  0.2551  0.0859
 1276SOL    HW113867   0.496   3.935   2.200  1.0252 -0.8936  0.0217
 1276SOL    HW213868   0.457   3.981   2.352  1.0092  0.6995 -0.4490
 1277SOL     OW13869   0.064   0.065   1.624 -0.2114 -0.2364 -0.8807
 1277SOL    HW113870   0.071  -0.033   1.643  2.5227  0.1695  0.4693
 1277SOL    HW213871   0.141   0.093   1.567 -0.6093  1.2627 -0.6874
 1278SOL     OW13872   1.254   2.802   2.439  0.1885 -0.1087 -0.0798
 1278SOL    HW113873   1.272   2.755   2.526  0.1859  0.0491  0.0055
 1278SOL    HW213874   1.328   2.866   2.419  1.9184 -2.5785 -1.8691
 1279SOL     OW13875   9.275   5.295   0.853  0.8239  0.7804 -0.0002
 1279SOL    HW113876   9.363   5.341   0.841  1.7110 -0.9221 -0.1709
 1279SOL    HW213877   9.214   5.319   0.777  2.6567 -1.3834 -2.2351
 1280SOL     OW13878   8.875   3.535   1.723 -0.0689  0.0564  0.4534
 1280SOL    HW113879   8.910   3.552   1.631  1.4715 -0.2251  0.9684
 1280SOL    HW213880   8.775   3.537   1.722 -0.2469 -3.9816 -2.0442
 1281SOL     OW13881   1.464   4.302   0.601 -0.0148 -0.0284  0.1082
 1281SOL    HW113882   1.506   4.391   0.588  3.1527 -1.6990 -1.4425
 1281SOL    HW213883   1.455   4.283   0.699  1.3971  1.0226  0.4435
 1282SOL     OW13884   3.920   3.751   0.946 -0.4426 -0.1607 -0.9563
 1282SOL    HW113885   3.826   3.768   0.915 -1.3631 -0.4364  1.5723
 1282SOL    HW213886   3.942   3.654   0.934 -1.6819 -0.7736  1.4840
 1283SOL     OW13887   2.437   6.952   0.574  0.0269  0.1725  0.2407
 1283SOL    HW113888   2.338   6.955   0.564  0.0984 -0.2137 -0.6312
 1283SOL    HW213889   2.478   7.016   0.508  0.3287  0.8159  1.0485
 1284SOL     OW13890   3.838   8.455   0.941 -0.1455  0.3056  0.0442
 1284SOL    HW113891   3.823   8.515   0.862 -0.0165  0.0567 -0.1734
 1284SOL    HW213892   3.767   8.472   1.010 -0.9448 -0.2709 -0.6174
 1285SOL     OW13893   0.570   6.077   1.364 -0.2643  0.4155 -0.4176
 1285SOL    HW113894   0.606   5.992   1.327  0.1278  0.7191 -0.7358
 1285SOL    HW213895   0.493   6.108   1.307 -0.6118  0.1068 -0.1160
 1286SOL     OW13896   0.686   3.619   2.346  0.1652 -0.2909 -0.1087
 1286SOL    HW113897   0.693   3.522   2.371  0.9693 -0.5436 -1.2733
 1286SOL    HW213898   0.678   3.627   2.247 -0.6192  0.8114  0.0330
 1287SOL     OW13899   1.837   7.888   0.383  0.0407 -0.2157 -0.4098
 1287SOL    HW113900   1.869   7.851   0.295  0.1390 -1.4480  0.1382
 1287SOL    HW213901   1.765   7.829   0.420  1.3002 -0.7512  1.2449
 1288SOL     OW13902   1.306   4.426   0.292  0.2415 -0.5383 -0.1567
 1288SOL    HW113903   1.345   4.500   0.238 -0.1979 -0.5954 -0.5561
 1288SOL    HW213904   1.213   4.450   0.320  1.0627  0.2366  2.0543
 1289SOL     OW13905   1.467   6.070   1.273 -0.7003 -0.4576 -0.1516
 1289SOL    HW113906   1.453   5.983   1.321 -0.5628 -0.0511  0.6433
 1289SOL    HW213907   1.552   6.066   1.221 -0.0969 -0.3946  0.8178
 1290SOL     OW13908   1.676   0.765   1.618  0.2674  0.1405 -0.0638
 1290SOL    HW113909   1.709   0.795   1.528  0.5581 -1.5733 -0.5475
 1290SOL    HW213910   1.577   0.758   1.617  0.2453  0.4515 -0.1401
 1291SOL     OW13911   3.050   3.250   0.472 -0.3041 -0.1204 -0.3446
 1291SOL    HW113912   3.124   3.314   0.491 -3.0596  2.3278  2.6143
 1291SOL    HW213913   3.011   3.269   0.382  1.3584 -0.1639 -1.0896
 1292SOL     OW13914   2.981   3.452   2.317 -0.2374 -0.1706  0.0816
 1292SOL    HW113915   3.015   3.361   2.295  0.7389 -0.0598  1.1099
 1292SOL    HW213916   3.051   3.503   2.367 -0.1985  1.6662 -1.7576
 1293SOL     OW13917   2.413   7.411   1.738  0.9762 -0.4936 -0.4345
 1293SOL    HW113918   2.480   7.483   1.757 -0.7938  0.8386  0.9377
 1293SOL    HW213919   2.402   7.353   1.818 -0.2198 -0.0955 -0.2962
 1294SOL     OW13920   0.218   5.413   1.380 -0.2439  0.3746  0.1441
 1294SOL    HW113921   0.243   5.388   1.473 -1.2881  0.1146  0.3638
 1294SOL    HW213922   0.131   5.462   1.381  0.2984  1.3870 -0.5821
 1295SOL     OW13923   9.318   5.022   2.512  0.1150  0.7869 -0.3668
 1295SOL    HW113924   9.249   5.082   2.471 -0.7337  0.7560  0.9488
 1295SOL    HW213925   9.331   5.049   2.608  0.5501 -0.4172 -0.0824
 1296SOL     OW13926   9.913   9.889   0.716  0.8275 -0.0059 -0.4747
 1296SOL    HW113927   9.840   9.841   0.766  1.9619  0.4688  1.7223
 1296SOL    HW213928   9.990   9.827   0.702  2.0154  0.8943  1.7539
 1297SOL     OW13929   9.687   5.257   1.159 -0.0076  0.1413  0.4243
 1297SOL    HW113930   9.642   5.180   1.114  2.4024 -0.0359 -1.7996
 1297SOL    HW213931   9.767   5.225   1.209 -1.7291  0.5829  3.5963
 1298SOL     OW13932   2.651   3.931   2.215  0.2950  0.0998  0.3727
 1298SOL    HW113933   2.638   4.029   2.204  1.2419  0.1655 -0.1095
 1298SOL    HW213934   2.689   3.892   2.132 -1.1289 -0.8675  0.1496
 1299SOL     OW13935   1.256   8.672   0.282  0.3629 -0.3275  0.1061
 1299SOL    HW113936   1.324   8.618   0.232  0.8157 -0.2918  0.6633
 1299SOL    HW213937   1.216   8.740   0.221  1.8281  0.5612  0.1018
 1300SOL     OW13938   8.879   2.645   0.076  0.2111  0.1083 -0.0318
 1300SOL    HW113939   8.943   2.699   0.021  2.0446 -1.3856  0.6241
 1300SOL    HW213940   8.796   2.629   0.023  1.7428 -0.8589 -2.1854
 1301SOL     OW13941   1.204   3.378   0.066  0.7261  0.2695  0.4225
 1301SOL    HW113942   1.216   3.360  -0.032  0.0937  0.4898  0.3071
 1301SOL    HW213943   1.134   3.317   0.102  0.3747  0.7588  0.5661
 1302SOL     OW13944   0.860   6.482   0.870  0.0760 -0.1436 -0.5501
 1302SOL    HW113945   0.841   6.401   0.814  0.9831 -0.3052 -0.6281
 1302SOL    HW213946   0.855   6.459   0.967 -0.0046 -0.2089 -0.5698
 1303SOL     OW13947   2.266   4.211   2.116 -0.1278 -0.2963  0.7794
 1303SOL    HW113948   2.309   4.247   2.199  0.7708  0.9572 -0.1938
 1303SOL    HW213949   2.229   4.287   2.062 -0.0218 -1.0127 -0.3235
 1304SOL     OW13950   3.799   0.656   0.247  0.2927  0.2073 -0.3063
 1304SOL    HW113951   3.774   0.635   0.152 -1.5287  1.7319 -0.2019
 1304SOL    HW213952   3.779   0.753   0.265  1.3254  0.1033  1.4155
 1305SOL     OW13953   1.701   7.473   2.496 -0.4964 -0.0127  0.4820
 1305SOL    HW113954   1.659   7.382   2.505 -1.1322  0.2931  0.6307
 1305SOL    HW213955   1.799   7.463   2.482 -0.7350 -0.7590 -0.6974
 1306SOL     OW13956   3.887   2.699   0.662 -0.2339  0.0758 -0.2069
 1306SOL    HW113957   3.925   2.660   0.746  2.6461 -2.2559 -2.4704
 1306SOL    HW213958   3.798   2.658   0.644  0.9694 -2.5154 -0.4241
 1307SOL     OW13959   0.540   1.150   0.390  0.0585  0.0409 -0.1303
 1307SOL    HW113960   0.499   1.112   0.473 -0.2962  0.9836  0.1244
 1307SOL    HW213961   0.639   1.154   0.402 -0.0095  0.3802  0.3315
 1308SOL     OW13962   1.527   1.577   2.404  0.3219  0.5666  0.0043
 1308SOL    HW113963   1.529   1.544   2.309  0.6180 -1.8895  0.8356
 1308SOL    HW213964   1.583   1.517   2.461 -1.6263  0.7536  2.1381
 1309SOL     OW13965   2.257   1.346   1.725  0.3998 -0.7061 -0.1799
 1309SOL    HW113966   2.159   1.352   1.709  0.3001 -0.6340  0.4506
 1309SOL    HW213967   2.286   1.250   1.720 -0.2003 -1.0676  2.4659
 1310SOL     OW13968   9.351   4.532   0.883  0.2788  0.0664 -0.0397
 1310SOL    HW113969   9.428   4.592   0.861 -0.0736  0.9034  0.9773
 1310SOL    HW213970   9.294   4.521   0.802  1.0346  0.0990 -0.5769
 1311SOL     OW13971   1.109   6.197   0.183  0.1501  0.8948  0.2359
 1311SOL    HW113972   1.173   6.166   0.252  0.9520  1.5356 -0.2122
 1311SOL    HW213973   1.031   6.241   0.227  0.6297  1.2473  0.7341
 1312SOL     OW13974   0.261   3.781   2.510  0.9507 -0.1831  0.4506
 1312SOL    HW113975   0.189   3.716   2.485  0.8322 -0.9636  2.7234
 1312SOL    HW213976   0.316   3.802   2.429 -1.6580  0.2334 -1.2686
 1313SOL     OW13977   2.438   4.206   2.354  0.4026 -0.1262  0.0488
 1313SOL    HW113978   2.482   4.256   2.429  1.7275  0.4010 -1.0592
 1313SOL    HW213979   2.365   4.149   2.391 -0.6672  2.0500  1.4680
 1314SOL     OW13980   9.132   2.349   1.421 -0.6310  0.6375 -0.1410
 1314SOL    HW113981   9.100   2.443   1.435 -0.0685  1.1465 -2.0652
 1314SOL    HW213982   9.232   2.348   1.424 -0.6749 -0.2762  1.9234
 1315SOL     OW13983   2.108   6.788   1.910 -0.9848 -0.1568  0.3915
 1315SOL    HW113984   2.060   6.775   1.823 -1.1739 -1.6150  0.6947
 1315SOL    HW213985   2.057   6.853   1.967  0.5738  2.9454 -1.6366
 1316SOL     OW13986   0.164   2.724   1.717 -0.0774 -0.2622 -0.6958
 1316SOL    HW113987   0.165   2.816   1.678 -2.5856  1.2651  2.6248
 1316SOL    HW213988   0.074   2.706   1.756  1.5124 -2.7278  1.9340
 1317SOL     OW13989   2.196   6.089   1.984  0.1070  0.1087 -0.0238
 1317SOL    HW113990   2.145   6.124   2.062 -0.0341  0.5723 -0.3296
 1317SOL    HW213991   2.239   6.164   1.935 -0.9502 -0.0504 -1.2164
 1318SOL     OW13992   9.408   2.868   2.509  0.2430 -0.0940 -0.0546
 1318SOL    HW113993   9.370   2.950   2.552 -0.1000 -0.8223  1.0350
 1318SOL    HW213994   9.462   2.817   2.575  0.0493 -1.0162 -0.5951
 1319SOL     OW13995   0.654   3.346   0.530  0.3590 -0.1473 -0.3439
 1319SOL    HW113996   0.692   3.254   0.543  0.4448  0.0719  1.0655
 1319SOL    HW213997   0.555   3.340   0.523  0.2407 -0.2296  1.1722
 1320SOL     OW13998   0.587   8.487   2.196 -0.5595  0.6672 -0.0791
 1320SOL    HW113999   0.670   8.478   2.140 -1.0934  0.6946 -0.8838
 1320SOL    HW214000   0.603   8.553   2.269  1.1659 -1.5972  1.6844
 1321SOL     OW14001   1.365   1.757   1.196  0.1997 -0.0117 -0.2319
 1321SOL    HW114002   1.361   1.854   1.219  1.8551  0.1641 -0.6478
 1321SOL    HW214003   1.276   1.728   1.162 -0.8890  0.8685  1.7956
 1322SOL     OW14004   0.719   1.476   1.440  0.4655  0.8577  0.0341
 1322SOL    HW114005   0.669   1.394   1.412  0.2475  0.6445  1.0552
 1322SOL    HW214006   0.716   1.543   1.366  0.6831 -0.0698 -0.8238
 1323SOL     OW14007   2.365   8.665   1.201 -0.1925  0.3794  0.3148
 1323SOL    HW114008   2.386   8.710   1.114 -1.2024 -0.2953 -0.2818
 1323SOL    HW214009   2.425   8.701   1.273  0.1961  1.4080 -0.5240
 1324SOL     OW14010   0.090   7.656   1.390  0.2239 -0.5502 -0.0849
 1324SOL    HW114011   0.015   7.663   1.324 -0.3414 -0.0363  0.6041
 1324SOL    HW214012   0.111   7.559   1.406 -2.4094 -0.8424  2.0437
 1325SOL     OW14013   9.545   2.558   2.222  0.3014  0.0149 -0.6996
 1325SOL    HW114014   9.643   2.547   2.206  0.1059 -1.6344 -0.7969
 1325SOL    HW214015   9.512   2.485   2.282 -1.0368  0.0649 -1.3443
 1326SOL     OW14016   9.872   3.665   0.108 -0.5962  0.2237 -0.1341
 1326SOL    HW114017   9.798   3.638   0.170 -0.2173 -2.0749 -0.6390
 1326SOL    HW214018   9.958   3.669   0.159 -0.5418 -0.1953 -0.1876
 1327SOL     OW14019   0.343   5.156   2.037 -0.1543  0.2806 -0.6147
 1327SOL    HW114020   0.316   5.061   2.018 -0.7707  0.2594  0.3224
 1327SOL    HW214021   0.261   5.214   2.037  0.3767  1.0528 -2.5458
 1328SOL     OW14022   2.838   5.166   2.076 -0.0049 -0.5207 -0.3197
 1328SOL    HW114023   2.739   5.174   2.065  0.1872  0.6308 -1.3776
 1328SOL    HW214024   2.872   5.092   2.018 -0.2333 -0.8417 -0.0440
 1329SOL     OW14025   0.920   3.804   1.355 -0.1960 -0.3303  0.0213
 1329SOL    HW114026   0.961   3.722   1.395 -1.1541 -0.6328  0.4168
 1329SOL    HW214027   0.933   3.804   1.256  1.0261 -0.2550  0.1827
 1330SOL     OW14028   9.911   3.543   0.464 -0.0766  0.5586  0.2548
 1330SOL    HW114029   9.942   3.525   0.371 -1.3239  0.4525 -0.1398
 1330SOL    HW214030   9.988   3.531   0.527  0.9710  1.4041 -0.8309
 1331SOL     OW14031   0.897   9.957   2.168  0.2926  0.0731 -0.3959
 1331SOL    HW114032   0.966   9.989   2.234 -0.8183  0.2774  0.6848
 1331SOL    HW214033   0.806   9.974   2.205 -0.3458  0.0344 -1.9304
 1332SOL     OW14034   2.401   4.132   1.557 -0.2497 -0.4486 -0.0016
 1332SOL    HW114035   2.306   4.122   1.588 -0.0948  0.5304  0.8585
 1332SOL    HW214036   2.459   4.067   1.606  0.0382  1.2838  2.0797
 1333SOL     OW14037   4.026   3.012   0.293  0.1076  0.4375  0.2898
 1333SOL    HW114038   3.962   3.076   0.251 -0.6621  1.2861  2.6953
 1333SOL    HW214039   4.043   2.935   0.230 -3.9216 -0.2428 -0.0599
 1334SOL     OW14040   2.066   5.145   0.525  0.0317 -0.4788  0.3074
 1334SOL    HW114041   2.090   5.052   0.496  1.2940 -0.1552  0.3077
 1334SOL    HW214042   1.967   5.156   0.520 -0.0060 -1.3237 -1.1961
 1335SOL     OW14043   3.520   1.869   1.288 -0.6850 -0.5706  0.0464
 1335SOL    HW114044   3.513   1.823   1.200  0.5779 -0.9393  0.1224
 1335SOL    HW214045   3.574   1.813   1.351  2.0832  1.5542 -0.2987
 1336SOL     OW14046   3.658   3.045   1.757  0.8901  0.2102  0.2959
 1336SOL    HW114047   3.583   3.068   1.819  0.7478  2.4611 -0.6327
 1336SOL    HW214048   3.744   3.077   1.795  0.9404  0.6244 -0.1583
 1337SOL     OW14049   4.303   2.875   1.882 -0.2212 -0.2264 -0.3478
 1337SOL    HW114050   4.242   2.856   1.959 -0.7271 -0.4693 -0.8115
 1337SOL    HW214051   4.320   2.791   1.831 -0.5135  0.0884 -0.9633
 1338SOL     OW14052   3.327   1.026   1.324 -0.5389 -0.5361 -0.0164
 1338SOL    HW114053   3.387   1.106   1.320  0.3651 -1.1554  0.9518
 1338SOL    HW214054   3.356   0.959   1.255  0.4808 -1.2304  1.0652
 1339SOL     OW14055   9.869   8.247   0.621 -0.5093 -0.0590  0.1605
 1339SOL    HW114056   9.881   8.217   0.716  1.0057  0.0196  0.0018
 1339SOL    HW214057   9.941   8.207   0.565  0.4434  2.3692 -0.3991
 1340SOL     OW14058   4.871   2.835   0.214  0.3791 -0.8618  0.4556
 1340SOL    HW114059   4.894   2.870   0.123 -1.8433 -0.4776  0.0023
 1340SOL    HW214060   4.951   2.841   0.274  1.1898  1.1053 -0.7861
 1341SOL     OW14061   2.908   1.712   1.768 -0.3802  0.2809 -0.7220
 1341SOL    HW114062   2.982   1.700   1.835 -0.1707  1.2598 -0.7686
 1341SOL    HW214063   2.947   1.744   1.682 -0.8318  0.6107 -0.8031
 1342SOL     OW14064   0.392   7.404   1.906 -0.4474 -0.1685  0.1102
 1342SOL    HW114065   0.369   7.357   1.991 -0.9049  1.3124  0.8359
 1342SOL    HW214066   0.476   7.367   1.869  0.5133  0.0952  1.9600
 1343SOL     OW14067   1.439   7.529   0.121 -0.4037 -0.0178  0.3814
 1343SOL    HW114068   1.528   7.574   0.112 -1.0013  1.4675  1.6253
 1343SOL    HW214069   1.452   7.430   0.125  1.2130  0.1986  0.8322
 1344SOL     OW14070   4.373   2.799   2.184  0.6896  0.2670 -0.0199
 1344SOL    HW114071   4.334   2.709   2.203 -0.4573  0.5405 -1.0104
 1344SOL    HW214072   4.304   2.857   2.141  0.7846  2.2870  2.4368
 1345SOL     OW14073   3.269   1.475   1.990  0.9410  0.4202 -0.2371
 1345SOL    HW114074   3.202   1.504   1.922 -0.5925 -0.7210  0.7377
 1345SOL    HW214075   3.290   1.551   2.052  0.1885  0.6647 -0.2788
 1346SOL     OW14076   1.164   8.533   0.508 -0.5185 -0.4578 -0.3521
 1346SOL    HW114077   1.179   8.574   0.418 -0.3593  0.3200  0.0179
 1346SOL    HW214078   1.095   8.586   0.557  0.8535  0.3479  0.7606
 1347SOL     OW14079   3.284   7.922   0.433 -0.6077 -0.7587  0.0553
 1347SOL    HW114080   3.295   7.824   0.420 -1.9797 -0.6492 -2.2264
 1347SOL    HW214081   3.362   7.971   0.393  0.1956 -0.9075  1.4075
 1348SOL     OW14082   0.048   2.714   0.916  0.3387  0.3324 -0.0124
 1348SOL    HW114083  -0.003   2.795   0.947  2.2041  1.1323  1.0955
 1348SOL    HW214084   0.044   2.643   0.987  0.1266  0.1182 -0.2410
 1349SOL     OW14085   1.355   2.599   2.033  0.2635  0.6247 -0.2256
 1349SOL    HW114086   1.334   2.523   1.971  0.1397  0.5503 -0.0912
 1349SOL    HW214087   1.421   2.660   1.989  0.4825  0.3564 -0.2699
 1350SOL     OW14088   0.610   0.979   0.863  0.3074 -0.0632  0.3544
 1350SOL    HW114089   0.511   0.975   0.862  0.3693 -2.1252  0.7405
 1350SOL    HW214090   0.644   0.955   0.954  1.1728  0.2696  0.1242
 1351SOL     OW14091   3.754   2.751   0.244  0.1088  0.3181  0.1451
 1351SOL    HW114092   3.734   2.706   0.157  0.0431 -0.4969  0.5729
 1351SOL    HW214093   3.674   2.801   0.275 -0.8929 -1.8464  1.2032
 1352SOL     OW14094   0.348   9.425   1.362  0.2677  0.8910 -0.0826
 1352SOL    HW114095   0.307   9.376   1.285 -0.0747  2.3329 -0.8311
 1352SOL    HW214096   0.426   9.478   1.330  0.4803  1.0455  0.6777
 1353SOL     OW14097   1.120   0.552   1.716 -0.3324  0.1767 -0.2766
 1353SOL    HW114098   1.173   0.479   1.673 -1.4313 -0.1842 -1.0357
 1353SOL    HW214099   1.029   0.555   1.676 -0.4685  1.6306  0.1124
 1354SOL     OW14100   0.230   4.295   1.180 -0.1397 -0.4575  0.4396
 1354SOL    HW114101   0.319   4.251   1.185  0.4085  0.7406  1.4570
 1354SOL    HW214102   0.226   4.353   1.098  0.0408 -0.4410  0.4429
 1355SOL     OW14103   2.460   0.572   2.574  0.0328  0.1635 -0.1073
 1355SOL    HW114104   2.466   0.668   2.548 -1.2756 -0.1421 -1.5922
 1355SOL    HW214105   2.519   0.517   2.514 -0.3012 -0.1323 -0.1680
 1356SOL     OW14106   0.911   6.984   0.198  0.0580 -0.1597  0.2787
 1356SOL    HW114107   0.884   7.008   0.104 -0.9134  2.3676  1.1598
 1356SOL    HW214108   1.011   6.988   0.206 -0.0071  3.3388  0.2410
 1357SOL     OW14109   9.567   5.044   2.422 -0.0945  0.3974 -0.4710
 1357SOL    HW114110   9.472   5.014   2.428  0.3773 -1.2040 -0.8844
 1357SOL    HW214111   9.570   5.143   2.405 -1.6865  0.3303 -1.1558
 1358SOL     OW14112   1.500   7.805   0.614 -0.4925  0.1515  0.3775
 1358SOL    HW114113   1.572   7.748   0.574 -1.2444 -1.0432  0.7002
 1358SOL    HW214114   1.438   7.748   0.668 -1.3416  1.2581  0.5988
 1359SOL     OW14115   9.264   5.818   1.184  0.3275  0.4565  0.0123
 1359SOL    HW114116   9.256   5.876   1.103 -0.3680 -1.5201 -1.3506
 1359SOL    HW214117   9.201   5.851   1.255  1.3989  2.5788  0.0426
 1360SOL     OW14118   1.069   1.348   0.849 -0.1140  0.4755  0.3807
 1360SOL    HW114119   0.973   1.361   0.874 -0.2646  0.2571 -0.0656
 1360SOL    HW214120   1.082   1.254   0.815  0.5973 -0.0088  1.9732
 1361SOL     OW14121   2.396   3.529   2.524  0.0129  0.5260  0.0916
 1361SOL    HW114122   2.381   3.621   2.490  1.4908  0.4692 -0.7565
 1361SOL    HW214123   2.456   3.532   2.604  1.4107  0.1829 -0.9276
 1362SOL     OW14124   9.867   8.218   0.894 -0.4160 -0.6275  0.0331
 1362SOL    HW114125   9.966   8.201   0.892 -0.4557 -1.0918  1.2489
 1362SOL    HW214126   9.850   8.315   0.906 -0.1104 -0.4979 -0.5795
 1363SOL     OW14127   3.415   9.831   1.656 -0.3843  0.0812  0.6911
 1363SOL    HW114128   3.402   9.890   1.736  0.1298  0.7276  0.2962
 1363SOL    HW214129   3.505   9.848   1.616 -0.9980  0.4235 -0.5765
 1364SOL     OW14130   4.201   1.921   0.485 -0.0926 -1.1006  0.1304
 1364SOL    HW114131   4.269   1.986   0.520 -1.9877  0.7518  0.4486
 1364SOL    HW214132   4.218   1.904   0.388  0.5632 -0.3101  0.1009
 1365SOL     OW14133   9.846   1.784   2.168  0.4140  0.0275 -0.0736
 1365SOL    HW114134   9.875   1.830   2.252  0.0030  2.5487 -1.2647
 1365SOL    HW214135   9.763   1.732   2.185  0.2590  0.6276  1.0441
 1366SOL     OW14136   1.645   3.870   2.408  0.1789 -0.2530 -0.3238
 1366SOL    HW114137   1.681   3.921   2.330  0.3304  1.1940  0.6883
 1366SOL    HW214138   1.562   3.914   2.442  0.5993 -0.3889  0.8918
 1367SOL     OW14139   1.437   2.976   0.449  0.1933  0.2578  0.2282
 1367SOL    HW114140   1.503   3.031   0.398  0.0288  1.0875  0.9050
 1367SOL    HW214141   1.480   2.937   0.530 -0.4184  1.7544  1.3097
 1368SOL     OW14142   2.987   7.283   0.471  0.5429 -0.4652 -0.3597
 1368SOL    HW114143   3.042   7.356   0.430 -0.1854  0.1417 -0.2610
 1368SOL    HW214144   3.024   7.261   0.561  1.0471 -0.5409 -0.5834
 1369SOL     OW14145   1.860   8.814   0.066 -0.8276  0.3432 -0.5328
 1369SOL    HW114146   1.928   8.883   0.040 -0.2200  0.8341  2.2481
 1369SOL    HW214147   1.792   8.855   0.126 -0.9716 -1.2622  0.4251
 1370SOL     OW14148   9.564   0.232   2.432  0.0909  0.0422  0.4143
 1370SOL    HW114149   9.471   0.260   2.452 -0.2261 -0.7458  0.0777
 1370SOL    HW214150   9.612   0.306   2.384 -0.1418  0.7018  1.1886
 1371SOL     OW14151   2.747   6.804   2.512 -0.8033 -0.3823 -0.1542
 1371SOL    HW114152   2.722   6.742   2.587 -2.9119 -0.1289 -0.6251
 1371SOL    HW214153   2.671   6.866   2.493  0.5445  1.0301 -1.0364
 1372SOL     OW14154   3.686   0.213   1.757 -0.0307  0.4542  0.1993
 1372SOL    HW114155   3.634   0.290   1.721  0.7100  1.8440  2.0194
 1372SOL    HW214156   3.772   0.204   1.707 -0.4947  0.2874 -0.5657
 1373SOL     OW14157   0.114   3.556   1.966 -0.6196 -0.1201  0.5173
 1373SOL    HW114158   0.207   3.580   1.941 -0.3659  0.4531  1.9535
 1373SOL    HW214159   0.082   3.617   2.039 -1.3651 -1.6386  1.4863
 1374SOL     OW14160   9.371   3.760   0.024  0.6745  0.3267 -0.6107
 1374SOL    HW114161   9.340   3.854   0.035 -0.6146 -0.1470 -0.1660
 1374SOL    HW214162   9.471   3.757   0.027  0.6300  1.1762  3.2732
 1375SOL     OW14163   0.693   4.026   1.849 -0.5254 -0.9201  0.0572
 1375SOL    HW114164   0.656   4.118   1.846 -0.5438 -0.8808  1.2209
 1375SOL    HW214165   0.618   3.959   1.843 -0.3403 -0.9163 -3.3171
 1376SOL     OW14166   2.205   7.442   0.101  0.9124  0.5124 -0.2276
 1376SOL    HW114167   2.250   7.427   0.190  0.2690 -0.0189  0.0118
 1376SOL    HW214168   2.235   7.530   0.063  1.0759  0.8158  0.5864
 1377SOL     OW14169   3.928   2.894   1.825  0.3882 -0.3661  0.7247
 1377SOL    HW114170   4.014   2.945   1.813  0.2501 -0.4469 -0.5914
 1377SOL    HW214171   3.913   2.835   1.747 -2.2575  1.6704 -0.3609
 1378SOL     OW14172   9.856   0.685   2.316 -0.4025 -0.1568  0.3464
 1378SOL    HW114173   9.857   0.687   2.416 -1.2257 -1.1276  0.3770
 1378SOL    HW214174   9.861   0.779   2.281  0.6444  0.1547  1.2829
 1379SOL     OW14175   2.581   3.893   2.475 -0.5825  0.1612  0.3187
 1379SOL    HW114176   2.627   3.808   2.505  0.2602  0.3147 -0.5087
 1379SOL    HW214177   2.613   3.917   2.383 -0.3695  1.6915  0.7767
 1380SOL     OW14178   1.316   1.106   0.076 -0.1056 -0.0025  0.2906
 1380SOL    HW114179   1.322   1.198   0.038  0.1147 -0.0905  0.1149
 1380SOL    HW214180   1.282   1.111   0.170  0.7493  0.3272  0.5860
 1381SOL     OW14181   9.531   1.217   1.928 -0.1169  0.8166  0.0488
 1381SOL    HW114182   9.578   1.169   1.854  3.3732  1.6158  1.6781
 1381SOL    HW214183   9.467   1.153   1.972 -0.6362 -0.2890 -2.1923
 1382SOL     OW14184   2.348   1.645   1.303 -0.1167  0.2786  0.3615
 1382SOL    HW114185   2.263   1.636   1.252  0.3798 -0.3290 -0.3631
 1382SOL    HW214186   2.333   1.617   1.398 -0.6652 -0.0756  0.1724
 1383SOL     OW14187   0.218   9.720   0.758  0.3688  0.8129  0.0511
 1383SOL    HW114188   0.316   9.706   0.771  0.4757  1.6094  0.1089
 1383SOL    HW214189   0.174   9.735   0.846  0.2370  0.7304 -0.0001
 1384SOL     OW14190   0.856   5.460   0.368 -0.2458 -0.1447  0.1311
 1384SOL    HW114191   0.922   5.454   0.443 -1.5993  0.2297  1.3774
 1384SOL    HW214192   0.830   5.368   0.338 -0.2170 -0.3024  0.5896
 1385SOL     OW14193   1.707   7.816   2.276  0.2600 -0.2177  0.5261
 1385SOL    HW114194   1.709   7.734   2.219 -2.5136  0.4787 -0.6377
 1385SOL    HW214195   1.754   7.890   2.228  1.7450 -0.7759  1.0760
 1386SOL     OW14196   2.112   7.028   0.903  0.3548 -0.1483 -0.6384
 1386SOL    HW114197   2.185   7.062   0.844  0.5398  0.0059 -0.3220
 1386SOL    HW214198   2.144   6.948   0.953  1.0286  1.2193  1.1348
 1387SOL     OW14199   0.159   7.194   1.380 -0.5396 -0.3925  0.3881
 1387SOL    HW114200   0.086   7.202   1.448  0.3344 -0.1330  1.3150
 1387SOL    HW214201   0.210   7.279   1.377  1.0470 -1.2815  1.3016
 1388SOL     OW14202   4.623   2.321   2.136 -0.2724 -0.0172  0.5243
 1388SOL    HW114203   4.645   2.322   2.038  2.6564 -1.7255  1.0974
 1388SOL    HW214204   4.572   2.237   2.157 -0.4514  0.0966  0.5412
 1389SOL     OW14205   9.809   4.663   0.078 -0.4348  0.7621  0.1973
 1389SOL    HW114206   9.824   4.576   0.031 -1.9156  0.6111 -0.0187
 1389SOL    HW214207   9.802   4.737   0.010  0.9309  1.0782  0.3853
 1390SOL     OW14208   0.288   9.089   2.156 -0.1672 -0.2872  0.0245
 1390SOL    HW114209   0.242   9.003   2.133 -0.0062 -0.7877  1.5509
 1390SOL    HW214210   0.383   9.085   2.125 -0.6125  0.0085 -1.4178
 1391SOL     OW14211   4.295   1.653   2.070 -0.1894 -0.0531  0.0162
 1391SOL    HW114212   4.292   1.746   2.036 -0.9691 -0.8024 -2.0131
 1391SOL    HW214213   4.307   1.589   1.994 -0.8143 -1.6833  1.2514
 1392SOL     OW14214   1.756   5.186   0.503  0.0946 -0.1540 -0.3310
 1392SOL    HW114215   1.779   5.232   0.588  1.3331 -1.2267 -0.0651
 1392SOL    HW214216   1.683   5.120   0.520 -0.5920  0.5802 -0.3906
 1393SOL     OW14217   1.111   6.030   0.539  0.1869  0.1833  0.1533
 1393SOL    HW114218   1.186   6.067   0.483  1.2121  0.9786  1.9633
 1393SOL    HW214219   1.092   6.094   0.614 -1.9750 -0.2698  0.0122
 1394SOL     OW14220   1.302   4.862   2.444  0.1820  0.4186  0.1176
 1394SOL    HW114221   1.313   4.775   2.397 -0.7484  0.2975  0.1048
 1394SOL    HW214222   1.213   4.901   2.420 -0.5355  0.1139  2.1739
 1395SOL     OW14223   2.614   5.734   1.305  0.4021 -0.2332  0.3932
 1395SOL    HW114224   2.516   5.754   1.304  0.6174  0.9139  0.5603
 1395SOL    HW214225   2.629   5.636   1.299 -0.7187 -0.3271 -1.1086
 1396SOL     OW14226   1.253   2.323   0.450  0.1159 -0.0881 -0.2608
 1396SOL    HW114227   1.280   2.280   0.364  1.8934 -1.1847  0.7993
 1396SOL    HW214228   1.330   2.318   0.514 -1.7939 -1.0004  2.0123
 1397SOL     OW14229   9.530   4.001   1.260  0.0349 -0.5169 -0.0739
 1397SOL    HW114230   9.456   3.989   1.193  0.8716 -0.1441 -1.0875
 1397SOL    HW214231   9.512   4.082   1.315 -1.2737 -1.4971  0.9874
 1398SOL     OW14232   2.914   3.342   0.818  0.4463 -0.4010 -0.2045
 1398SOL    HW114233   2.899   3.407   0.743 -3.1939 -0.3332  0.4869
 1398SOL    HW214234   2.904   3.389   0.906  2.2534 -1.0071  0.3506
 1399SOL     OW14235   9.913   0.553   0.504  0.4421 -0.1017  0.2445
 1399SOL    HW114236   9.921   0.496   0.422 -0.7776 -1.7798  1.2716
 1399SOL    HW214237  10.000   0.551   0.553  0.8265  0.0216 -0.4172
 1400SOL     OW14238   2.042   2.330   2.048  0.3101 -0.3122  0.0009
 1400SOL    HW114239   2.049   2.380   1.962  0.1339 -0.2036  0.0479
 1400SOL    HW214240   2.087   2.382   2.121  0.9119 -0.6518 -0.1284
 1401SOL     OW14241   1.427   7.564   1.669  0.1533  0.3556 -0.1389
 1401SOL    HW114242   1.476   7.522   1.746 -0.6218  1.6173  1.0597
 1401SOL    HW214243   1.493   7.602   1.604  0.8046 -0.3303  0.1071
 1402SOL     OW14244   9.966   6.731   1.800  0.2259  0.0247  0.2831
 1402SOL    HW114245   9.871   6.738   1.769  0.1756  4.4338  1.0985
 1402SOL    HW214246   9.973   6.661   1.871 -2.2037 -1.0247 -0.4658
 1403SOL     OW14247   1.603   2.819   2.546  0.0470  0.0926  0.0338
 1403SOL    HW114248   1.629   2.865   2.631 -0.3754  1.0369 -0.3457
 1403SOL    HW214249   1.533   2.750   2.565  1.1374 -0.8486  0.7034
 1404SOL     OW14250   2.262   4.727   0.910 -0.1571  0.5453 -0.1643
 1404SOL    HW114251   2.307   4.694   0.826 -0.6481 -2.1893  0.5905
 1404SOL    HW214252   2.308   4.687   0.990 -1.4881  0.8482  0.7600
 1405SOL     OW14253   2.893   7.498   2.022 -0.0991 -0.2171 -0.2090
 1405SOL    HW114254   2.886   7.551   1.938  0.5616 -1.3865 -1.0142
 1405SOL    HW214255   2.919   7.404   2.000 -1.3797 -0.9194  1.1811
 1406SOL     OW14256   1.092   7.800   0.348 -0.2511  0.0935  0.4134
 1406SOL    HW114257   1.174   7.857   0.353  0.2202 -0.5873  0.6399
 1406SOL    HW214258   1.086   7.744   0.431 -0.9991  0.2119  0.4418
 1407SOL     OW14259   1.559   5.788   0.708 -0.8493  0.3930  0.4415
 1407SOL    HW114260   1.461   5.803   0.695 -1.3637 -1.0764  2.4055
 1407SOL    HW214261   1.578   5.690   0.712  0.6063  0.6718  0.6241
 1408SOL     OW14262   9.349   5.715   2.367 -0.3888  0.6676  0.3405
 1408SOL    HW114263   9.390   5.775   2.435  0.3128 -0.6145  1.0656
 1408SOL    HW214264   9.267   5.673   2.405  0.3698 -0.5596  0.6405
 1409SOL     OW14265   1.993   1.910   0.333  0.4856 -0.1226  0.1319
 1409SOL    HW114266   1.965   1.937   0.241  1.2498 -0.4047 -0.1890
 1409SOL    HW214267   1.916   1.919   0.395  0.2615  1.1175 -0.3165
 1410SOL     OW14268   9.088   2.731   0.568  0.8296  0.1994 -0.0347
 1410SOL    HW114269   9.088   2.662   0.495  3.1957  0.2511 -0.1118
 1410SOL    HW214270   9.132   2.695   0.649  1.4381  1.3851  0.1715
 1411SOL     OW14271   0.976   5.325   2.479  0.2304  0.0496  0.1562
 1411SOL    HW114272   0.914   5.401   2.499  0.0241 -0.3401  0.9959
 1411SOL    HW214273   0.988   5.317   2.380 -1.6784 -0.3819 -0.0469
 1412SOL     OW14274   0.078   1.190   1.271  0.3358 -0.5710 -0.1695
 1412SOL    HW114275   0.128   1.224   1.192 -0.6429 -0.3361 -0.7050
 1412SOL    HW214276   0.139   1.136   1.329  1.1127 -0.5698 -0.9729
 1413SOL     OW14277   2.103   2.140   0.603 -0.0013  0.0401  0.3894
 1413SOL    HW114278   2.007   2.145   0.632  0.1582 -0.3638  1.0044
 1413SOL    HW214279   2.108   2.138   0.503 -0.8825 -4.2365  0.3344
 1414SOL     OW14280   3.441  10.000   0.733  0.8020 -0.1790 -0.3225
 1414SOL    HW114281   3.418   9.927   0.798 -2.2571  0.2741 -0.8400
 1414SOL    HW214282   3.520  10.051   0.767 -1.2996  0.6558  3.5195
 1415SOL     OW14283   3.416   8.744   0.934  0.0295  0.6375 -0.0918
 1415SOL    HW114284   3.434   8.800   1.015 -1.4435  0.3976  0.4157
 1415SOL    HW214285   3.496   8.748   0.873  1.2620  0.5962  1.4757
 1416SOL     OW14286   1.396   2.092   1.996 -0.1823  0.4627 -0.8762
 1416SOL    HW114287   1.400   2.120   2.091 -0.1547 -0.8841 -0.4649
 1416SOL    HW214288   1.466   2.140   1.944  1.4707 -0.6595  0.2887
 1417SOL     OW14289   2.231   3.739   0.043 -0.1183 -0.8956 -0.1231
 1417SOL    HW114290   2.270   3.691   0.122 -0.9703 -0.7269  0.3999
 1417SOL    HW214291   2.173   3.676  -0.008  1.2798 -1.3191 -1.2431
 1418SOL     OW14292   1.280   6.769   0.226  0.1682 -0.2217  0.0409
 1418SOL    HW114293   1.286   6.723   0.315  2.2651 -0.3724 -0.1481
 1418SOL    HW214294   1.223   6.850   0.234  0.3726 -0.2133  1.5360
 1419SOL     OW14295   3.918   2.832   1.305  0.3989  0.3678  0.3135
 1419SOL    HW114296   3.998   2.822   1.365  1.0585 -1.4089 -0.8039
 1419SOL    HW214297   3.840   2.787   1.348  0.4798  0.4562  0.5558
 1420SOL     OW14298   3.511   0.809   2.115 -0.4544  0.3317 -0.6597
 1420SOL    HW114299   3.548   0.721   2.084  0.6864  0.2883  0.7764
 1420SOL    HW214300   3.585   0.867   2.149 -1.5297  0.7360  1.0939
 1421SOL     OW14301   1.079   7.519   2.405 -0.0185  0.4165  0.0566
 1421SOL    HW114302   1.151   7.580   2.438  0.9225  0.0564 -1.2768
 1421SOL    HW214303   1.058   7.451   2.476  2.6086 -0.9123 -0.3826
 1422SOL     OW14304   4.096   1.721   1.043  0.6359 -0.6230  0.7207
 1422SOL    HW114305   4.055   1.629   1.036  0.1262 -0.2672 -1.2724
 1422SOL    HW214306   4.172   1.728   0.979  2.6242 -0.6295  3.0315
 1423SOL     OW14307   0.095   2.552   2.491 -0.6543  0.5145  0.0596
 1423SOL    HW114308   0.086   2.644   2.529 -0.4488  0.8157 -0.6115
 1423SOL    HW214309   0.177   2.547   2.434 -0.8631  0.0220 -0.2030
 1424SOL     OW14310   8.914   4.116   0.891 -0.2226 -0.4738 -0.5594
 1424SOL    HW114311   8.867   4.135   0.977 -1.2832 -1.8278 -0.8256
 1424SOL    HW214312   9.013   4.107   0.908 -0.4464 -0.9036  0.5333
 1425SOL     OW14313   9.701   0.116   1.298 -0.5238 -0.2492 -0.4451
 1425SOL    HW114314   9.761   0.097   1.376 -1.8153 -0.1968  0.5892
 1425SOL    HW214315   9.638   0.190   1.323 -0.5655  0.1576 -1.7516
 1426SOL     OW14316   1.261   7.674   2.522  0.4782  0.0890 -0.7307
 1426SOL    HW114317   1.328   7.716   2.461  1.4443 -0.1086  0.1728
 1426SOL    HW214318   1.308   7.633   2.600 -0.7166  0.1264  0.0269
 1427SOL     OW14319   3.049   6.989   0.359 -0.0558 -0.3103 -0.1339
 1427SOL    HW114320   3.114   7.062   0.376 -0.5110 -0.1248  0.8303
 1427SOL    HW214321   3.035   6.978   0.260  1.0816 -0.0502 -0.3243
 1428SOL     OW14322   0.495   8.518   1.668 -0.5917  0.7811  0.1476
 1428SOL    HW114323   0.514   8.432   1.715 -2.4047  0.0385 -0.4520
 1428SOL    HW214324   0.549   8.522   1.583  0.7146  0.9764  0.9669
 1429SOL     OW14325   2.067   9.992   0.394 -0.5803 -0.9589  0.0264
 1429SOL    HW114326   1.979   9.973   0.439 -1.4407  1.3767 -0.5948
 1429SOL    HW214327   2.055  10.067   0.329  2.0113 -0.2421  0.3386
 1430SOL     OW14328   8.865   2.539   1.172 -0.2316  0.2484 -0.7323
 1430SOL    HW114329   8.884   2.446   1.203  1.5089  0.0287 -2.3563
 1430SOL    HW214330   8.820   2.536   1.083 -0.7259  0.9579 -0.5125
 1431SOL     OW14331   1.235   4.384   2.405 -0.2128  0.4028 -0.7949
 1431SOL    HW114332   1.176   4.439   2.465  1.3992  2.0520 -0.6633
 1431SOL    HW214333   1.231   4.288   2.433 -0.7597  0.9055  0.9248
 1432SOL     OW14334   1.881   3.000   2.282 -0.0388 -0.3937 -0.2579
 1432SOL    HW114335   1.853   3.003   2.378 -0.6727 -1.7675 -0.3800
 1432SOL    HW214336   1.975   3.032   2.274 -0.3883  0.9318  0.6424
 1433SOL     OW14337   3.007   3.570   1.035  0.0258  0.2492  0.0068
 1433SOL    HW114338   3.011   3.634   0.959  2.1827 -1.2222 -1.1825
 1433SOL    HW214339   3.095   3.568   1.082 -0.5715 -0.5495  1.1143
 1434SOL     OW14340   2.990   3.991   0.626  0.6957  0.1403  0.2951
 1434SOL    HW114341   2.944   3.962   0.542 -0.2330  4.0783 -0.6713
 1434SOL    HW214342   2.921   4.008   0.697  1.3408 -1.3651  1.3142
 1435SOL     OW14343   1.653   9.456   1.800 -0.0738 -0.2132  0.4113
 1435SOL    HW114344   1.612   9.381   1.748 -0.7005  1.9627 -2.2973
 1435SOL    HW214345   1.751   9.437   1.814  0.4036 -0.2711 -2.6660
 1436SOL     OW14346   0.773   4.356   1.907  0.0652  0.5164  0.0605
 1436SOL    HW114347   0.758   4.449   1.873  2.1265  0.4660 -1.0242
 1436SOL    HW214348   0.782   4.293   1.830  0.2068 -0.3505  0.7778
 1437SOL     OW14349   3.573   7.759   2.348  0.3213 -0.1494  0.3328
 1437SOL    HW114350   3.554   7.664   2.325  0.1065 -0.6497  2.5154
 1437SOL    HW214351   3.552   7.817   2.269 -0.7332 -1.7714 -0.5979
 1438SOL     OW14352   2.893   0.053   0.369  0.0405  0.2640 -0.5167
 1438SOL    HW114353   2.816   0.110   0.397 -0.2824 -0.2990 -0.2453
 1438SOL    HW214354   2.890  -0.033   0.419  0.2831 -0.1613 -1.2277
 1439SOL     OW14355   0.909   7.924   1.429 -0.2459 -0.0658  0.3441
 1439SOL    HW114356   0.919   7.910   1.331  3.7337  0.1650  0.6587
 1439SOL    HW214357   0.891   7.836   1.474  0.7096 -0.5914 -0.2999
 1440SOL     OW14358   1.705   5.259   0.063 -0.1206  0.6467  0.3831
 1440SOL    HW114359   1.700   5.323  -0.013  0.3387  0.0760 -0.1282
 1440SOL    HW214360   1.663   5.172   0.036  3.4137 -0.8396 -0.5228
 1441SOL     OW14361   9.609   4.557   0.692 -0.6991  0.0507 -0.0187
 1441SOL    HW114362   9.559   4.585   0.610  0.3191 -2.3812 -1.5615
 1441SOL    HW214363   9.586   4.462   0.714 -0.8315  0.6147  2.4629
 1442SOL     OW14364   2.084   4.303   1.365  0.2983  0.0005  0.7318
 1442SOL    HW114365   2.035   4.347   1.440  1.0291  1.4127  0.4024
 1442SOL    HW214366   2.024   4.296   1.285 -0.6046 -1.8563  1.5399
 1443SOL     OW14367   2.018   7.015   2.485  0.1543  0.4008 -0.1219
 1443SOL    HW114368   2.069   6.999   2.401 -1.3963  0.5931 -1.1288
 1443SOL    HW214369   2.038   6.942   2.551  0.8074 -0.1596 -0.9298
 1444SOL     OW14370   3.147   8.754   1.041  0.2628  0.4851 -0.2002
 1444SOL    HW114371   3.086   8.724   0.968 -0.2378  0.8037  0.0837
 1444SOL    HW214372   3.241   8.753   1.008  0.2071 -0.9166 -0.3466
 1445SOL     OW14373   9.231   4.341   0.302 -0.1215 -0.7207  0.4777
 1445SOL    HW114374   9.278   4.428   0.316 -0.7158  0.0372 -2.1302
 1445SOL    HW214375   9.133   4.354   0.308 -0.2458 -1.0519 -0.7648
 1446SOL     OW14376   9.939   6.127   2.028 -0.4342 -0.1895  0.8175
 1446SOL    HW114377   9.954   6.029   2.016 -0.5737  0.0615 -1.6061
 1446SOL    HW214378  10.027   6.174   2.031 -0.4097 -0.1404 -0.4208
 1447SOL     OW14379   1.890   9.658   0.042  0.3946 -0.2641 -0.1734
 1447SOL    HW114380   1.899   9.576  -0.016 -1.2612  0.3234 -1.3128
 1447SOL    HW214381   1.822   9.640   0.113 -0.2813  0.2480 -0.6834
 1448SOL     OW14382   3.451   9.568   1.569  0.2624  0.2349 -0.0559
 1448SOL    HW114383   3.443   9.656   1.615  1.2660  0.4925 -0.3643
 1448SOL    HW214384   3.448   9.581   1.470 -3.2495 -0.4426 -0.1090
 1449SOL     OW14385   1.069   9.489   1.869 -0.7254  0.4863  0.1255
 1449SOL    HW114386   1.019   9.440   1.797  0.7832  2.2942 -2.2391
 1449SOL    HW214387   1.163   9.453   1.874 -0.4895  1.1477  0.4363
 1450SOL     OW14388   0.649   7.672   2.543 -0.0056 -0.4427 -0.0035
 1450SOL    HW114389   0.670   7.667   2.445  2.1616  1.9760  0.2995
 1450SOL    HW214390   0.713   7.616   2.594 -0.1415 -0.4460  0.1642
 1451SOL     OW14391   9.346   3.691   1.566 -0.1086  0.2657 -0.1497
 1451SOL    HW114392   9.276   3.642   1.514  0.0875  1.4753 -1.5684
 1451SOL    HW214393   9.419   3.627   1.592 -1.2661 -0.7967  0.5362
 1452SOL     OW14394   3.032   2.881   1.139  0.4435 -0.5507 -0.7917
 1452SOL    HW114395   3.006   2.973   1.110  1.1488 -0.6681 -1.7886
 1452SOL    HW214396   3.131   2.872   1.138  0.4703 -0.7425  1.1237
 1453SOL     OW14397   1.424   6.918   0.045  0.0422 -0.0230  0.8225
 1453SOL    HW114398   1.360   6.861   0.097  0.1828 -0.4220  0.5575
 1453SOL    HW214399   1.372   6.990  -0.003 -0.4151 -1.3269 -0.6996
 1454SOL     OW14400   2.503   8.619   2.250  0.6650 -0.6182 -0.2832
 1454SOL    HW114401   2.574   8.552   2.228  0.0178 -0.7771 -1.9797
 1454SOL    HW214402   2.435   8.621   2.177 -1.4810 -0.9843  1.6350
 1455SOL     OW14403   0.533   0.296   1.550  0.1488 -0.1290  0.2089
 1455SOL    HW114404   0.556   0.329   1.459 -2.1251 -0.5835 -0.5558
 1455SOL    HW214405   0.609   0.241   1.586  0.9693 -0.1258 -1.4920
 1456SOL     OW14406   1.314   8.426   1.097 -0.7716  0.7517 -0.2797
 1456SOL    HW114407   1.395   8.404   1.152 -0.0156  2.0380 -0.8696
 1456SOL    HW214408   1.319   8.520   1.066 -1.9846  0.5180 -1.2298
 1457SOL     OW14409   0.008   1.725   1.303  0.1510 -0.1215  0.0572
 1457SOL    HW114410  -0.009   1.639   1.352 -0.9724 -0.1732 -0.4026
 1457SOL    HW214411   0.104   1.729   1.275  0.4995 -0.6608  1.1609
 1458SOL     OW14412   1.800   1.752   2.415 -0.2009  0.0498  0.0459
 1458SOL    HW114413   1.765   1.797   2.497 -0.0327 -1.9610  1.2520
 1458SOL    HW214414   1.728   1.748   2.346  0.3675  3.9746 -0.9043
 1459SOL     OW14415   0.116   0.499   2.436 -0.0279  0.2840  0.6142
 1459SOL    HW114416   0.100   0.592   2.470 -2.8500  0.7199 -1.6841
 1459SOL    HW214417   0.155   0.504   2.344 -2.3722 -0.7220 -0.4766
 1460SOL     OW14418   1.084   1.528   2.473  0.2453  0.0402  0.4390
 1460SOL    HW114419   1.057   1.548   2.567 -2.6490  2.3565 -0.8205
 1460SOL    HW214420   1.148   1.598   2.441  1.4682 -0.9158  0.7546
 1461SOL     OW14421   1.558   6.188   1.978 -0.1350 -0.5356 -0.1882
 1461SOL    HW114422   1.530   6.098   1.943  0.3047 -0.7953  0.1135
 1461SOL    HW214423   1.477   6.243   1.996 -0.4348 -1.0558  0.0863
 1462SOL     OW14424   9.242   1.352   1.944  0.0420  0.1041  0.1861
 1462SOL    HW114425   9.264   1.447   1.922  0.5875  0.2620  1.3992
 1462SOL    HW214426   9.321   1.294   1.925 -0.5361 -0.2336 -1.2723
 1463SOL     OW14427   0.668   0.880   0.519 -0.3175  0.0444 -0.1068
 1463SOL    HW114428   0.577   0.921   0.512  0.6722  1.9518 -2.1654
 1463SOL    HW214429   0.735   0.937   0.471  1.9263 -1.5135  1.0668
 1464SOL     OW14430   3.364   2.320   1.211 -0.0987  0.4513 -0.2927
 1464SOL    HW114431   3.325   2.284   1.295 -0.8287  2.3585  0.2321
 1464SOL    HW214432   3.377   2.246   1.145 -0.3318 -0.9198  1.1797
 1465SOL     OW14433   0.718   4.578   0.016 -0.1038  0.3035  0.6996
 1465SOL    HW114434   0.796   4.611   0.068  1.2042 -0.4810 -0.7128
 1465SOL    HW214435   0.729   4.481  -0.004 -1.2961  0.2486  0.2454
 1466SOL     OW14436   9.666   2.756   1.100  0.3767 -0.3008 -0.2204
 1466SOL    HW114437   9.664   2.656   1.091  1.6254 -0.4504  0.9443
 1466SOL    HW214438   9.754   2.784   1.138 -0.5281  1.1145  0.8924
 1467SOL     OW14439   3.044   7.945   0.051 -0.0917 -0.3654 -0.3174
 1467SOL    HW114440   3.101   8.008  -0.001  0.9089 -0.1249  1.0323
 1467SOL    HW214441   3.068   7.850   0.028 -0.9355 -0.2762 -1.6352
 1468SOL     OW14442   8.697   1.743   1.398 -0.3997 -0.0059  0.1887
 1468SOL    HW114443   8.796   1.733   1.404 -0.0652  2.6439 -0.3296
 1468SOL    HW214444   8.653   1.691   1.472  1.4624  0.2398  1.4861
 1469SOL     OW14445   0.355   0.102   0.891  0.1385  0.5504 -0.3483
 1469SOL    HW114446   0.309   0.057   0.967 -1.4177 -0.3549 -1.7930
 1469SOL    HW214447   0.288   0.149   0.834  1.4808  2.6440 -0.2450
 1470SOL     OW14448   0.903   9.561   1.417 -0.1545  0.4086  0.0068
 1470SOL    HW114449   0.942   9.493   1.355  0.3973  2.8135 -2.3420
 1470SOL    HW214450   0.974   9.627   1.442 -1.6220  2.3627 -0.8873
 1471SOL     OW14451   2.578   5.200   2.021  0.5947  0.5612  0.0450
 1471SOL    HW114452   2.534   5.269   1.965  0.0439  0.5357  0.4463
 1471SOL    HW214453   2.553   5.109   1.988 -0.4326  0.5414  0.8797
 1472SOL     OW14454   0.203   4.826   2.270  0.2561  0.3285 -0.3651
 1472SOL    HW114455   0.188   4.776   2.356  0.4003 -0.2219 -0.6587
 1472SOL    HW214456   0.289   4.878   2.277 -0.1331  0.9153  0.1134
 1473SOL     OW14457   8.929   3.436   1.434 -0.1439 -0.2258 -0.1115
 1473SOL    HW114458   8.928   3.535   1.421 -1.2261  0.0764  2.0227
 1473SOL    HW214459   9.017   3.399   1.402  1.3658  1.8116  1.5190
 1474SOL     OW14460   9.828   8.714   1.030 -0.2158  0.2217 -0.5806
 1474SOL    HW114461   9.835   8.772   0.949  0.8098  0.4209 -0.3634
 1474SOL    HW214462   9.813   8.771   1.111 -0.3730  0.0940 -0.5194
 1475SOL     OW14463   1.660   2.959   2.032 -0.1332  0.2119  0.5100
 1475SOL    HW114464   1.724   2.946   2.108  0.6329 -1.9647 -0.4592
 1475SOL    HW214465   1.570   2.923   2.057  1.3152 -5.1320 -1.2162
 1476SOL     OW14466   2.411   7.837   0.432  0.5146 -0.0465 -0.0878
 1476SOL    HW114467   2.340   7.839   0.503  0.9599  0.4434  0.3509
 1476SOL    HW214468   2.501   7.829   0.475  0.9377  2.2281 -0.4793
 1477SOL     OW14469   0.781   3.759   0.822 -0.2552  0.2306  0.1892
 1477SOL    HW114470   0.753   3.663   0.819 -1.3044  0.4863  1.1905
 1477SOL    HW214471   0.765   3.795   0.914 -2.4643  2.1237 -0.8924
 1478SOL     OW14472   9.651   1.598   2.183  0.1996 -0.5698 -0.2315
 1478SOL    HW114473   9.634   1.503   2.210  0.7629 -0.0286  2.1121
 1478SOL    HW214474   9.569   1.652   2.200  0.8241 -0.0596  1.2332
 1479SOL     OW14475   4.686   2.626   0.214 -0.1138 -0.5838  0.6634
 1479SOL    HW114476   4.717   2.582   0.299  0.8241 -2.4291 -0.6041
 1479SOL    HW214477   4.724   2.718   0.209  0.6170 -0.8133  1.7937
 1480SOL     OW14478   0.832   0.277   1.768  0.1919 -0.1566 -0.2051
 1480SOL    HW114479   0.793   0.218   1.839  0.2047  1.2481  0.9979
 1480SOL    HW214480   0.834   0.228   1.681 -0.6206 -1.6073  0.5764
 1481SOL     OW14481   9.328   3.472   0.194 -0.1553  0.1119  0.1675
 1481SOL    HW114482   9.232   3.489   0.169 -0.2185 -0.6184 -0.0843
 1481SOL    HW214483   9.333   3.397   0.259  0.5245 -2.3493 -2.6174
 1482SOL     OW14484   3.268   3.403   0.455  0.2500  0.2689  0.0197
 1482SOL    HW114485   3.310   3.371   0.370  2.9788  1.4524  0.8729
 1482SOL    HW214486   3.260   3.503   0.452 -3.1918  0.0649 -0.3731
 1483SOL     OW14487   0.118   4.480   1.969  0.4297 -0.6022  0.2175
 1483SOL    HW114488   0.097   4.434   1.883  1.8515 -0.9187  0.0198
 1483SOL    HW214489   0.064   4.440   2.043 -1.7151  0.4973 -0.7261
 1484SOL     OW14490   2.088   9.241   1.919 -0.4497  0.1022 -0.1346
 1484SOL    HW114491   2.162   9.205   1.862  0.4984  0.4733  0.8238
 1484SOL    HW214492   2.002   9.197   1.894  0.0398 -0.1354 -1.4628
 1485SOL     OW14493   0.803   5.547   2.181 -0.5293  0.4833 -0.4450
 1485SOL    HW114494   0.818   5.517   2.087  1.3538 -0.1666  0.0475
 1485SOL    HW214495   0.780   5.644   2.181  1.4213  0.9712 -1.4444
 1486SOL     OW14496   0.661   1.995   1.992  0.2166  0.0121 -0.0221
 1486SOL    HW114497   0.564   1.972   1.992 -0.2678  1.9177 -0.4904
 1486SOL    HW214498   0.709   1.939   1.924 -0.6982 -0.3697 -0.3670
 1487SOL     OW14499   2.181   4.196   0.193  0.2997  0.2302 -0.6137
 1487SOL    HW114500   2.147   4.290   0.192 -1.6445 -0.4495 -0.6549
 1487SOL    HW214501   2.164   4.155   0.282 -1.2697 -0.9245 -1.4269
 1488SOL     OW14502   1.702   1.399   2.539 -0.1773  0.9772  0.0586
 1488SOL    HW114503   1.785   1.346   2.525 -1.3845 -0.5969 -1.4219
 1488SOL    HW214504   1.660   1.374   2.626  0.8854  1.8029  0.8284
 1489SOL     OW14505   3.570   1.356   1.987 -0.2489 -0.6436 -0.4974
 1489SOL    HW114506   3.562   1.303   1.902 -1.7484 -0.8529 -0.2293
 1489SOL    HW214507   3.480   1.371   2.026  0.2569  1.2663 -0.0213
 1490SOL     OW14508   1.311   3.735   0.555  0.1054 -0.2725 -0.2104
 1490SOL    HW114509   1.287   3.795   0.478 -0.4684  1.7188  1.4924
 1490SOL    HW214510   1.228   3.689   0.587  0.1707 -0.3678 -0.1809
 1491SOL     OW14511   0.950   9.970   1.031  0.1768  0.3855 -0.3543
 1491SOL    HW114512   0.946   9.935   1.125 -2.9106  0.0436 -0.5677
 1491SOL    HW214513   0.891  10.050   1.023  1.0072  0.8724 -1.8418
 1492SOL     OW14514   2.365   2.552   0.653  0.5131 -0.5036 -0.3764
 1492SOL    HW114515   2.414   2.553   0.741  0.7551 -0.2323 -0.5121
 1492SOL    HW214516   2.326   2.461   0.638 -1.6232  0.1298  1.1556
 1493SOL     OW14517   3.059   0.149   1.325  0.0949  0.2011  0.6469
 1493SOL    HW114518   3.159   0.146   1.319  0.1182 -0.8398  1.4812
 1493SOL    HW214519   3.025   0.227   1.272  1.4342  1.3474  1.4371
 1494SOL     OW14520   1.386   9.883   2.012 -0.3642  0.0231  0.2928
 1494SOL    HW114521   1.443   9.804   1.992 -0.9424 -0.2492 -0.2977
 1494SOL    HW214522   1.308   9.855   2.068 -1.5210 -0.1762 -1.3543
 1495SOL     OW14523   2.400   2.531   0.374 -0.2786  0.0919 -0.1970
 1495SOL    HW114524   2.387   2.607   0.309  2.6082  0.3626 -0.5184
 1495SOL    HW214525   2.395   2.566   0.467 -0.6874  0.3821 -0.3272
 1496SOL     OW14526   3.797   2.606   2.049  0.0762 -0.8682  0.0626
 1496SOL    HW114527   3.760   2.681   1.995  2.7143 -1.3123 -2.4729
 1496SOL    HW214528   3.853   2.643   2.124 -1.6559 -0.2963  1.1046
 1497SOL     OW14529   3.599   4.326   1.897  0.8728  0.5103  0.2997
 1497SOL    HW114530   3.619   4.413   1.851  1.6650 -0.1494 -0.6411
 1497SOL    HW214531   3.505   4.327   1.930 -0.0606  0.6316 -2.2423
 1498SOL     OW14532   0.287   0.711   0.534  0.0962 -0.2308  0.1292
 1498SOL    HW114533   0.233   0.785   0.493 -0.1601  0.2671  1.3273
 1498SOL    HW214534   0.327   0.655   0.462  1.5128  1.9454 -0.8480
 1499SOL     OW14535   9.122   1.909   2.526  0.2814  0.5690  0.0749
 1499SOL    HW114536   9.174   1.905   2.612  1.1275 -0.1998 -0.4694
 1499SOL    HW214537   9.106   2.005   2.502  1.6359  0.8253  0.1419
 1500SOL     OW14538   2.278   5.090   0.149 -0.2994  0.1640 -0.0236
 1500SOL    HW114539   2.362   5.051   0.111 -0.6699  0.2118 -0.9070
 1500SOL    HW214540   2.296   5.124   0.241  1.1626  1.9770 -0.9398
 1501SOL     OW14541   4.464   1.569   0.610  0.4294 -0.0878  0.1218
 1501SOL    HW114542   4.489   1.666   0.613 -1.0201  0.2628  1.4799
 1501SOL    HW214543   4.451   1.541   0.515 -1.7740  1.7707 -0.1718
 1502SOL     OW14544   0.778   9.435   0.805 -0.4709 -0.1583 -0.6866
 1502SOL    HW114545   0.806   9.503   0.873  1.6575 -1.8963  0.2208
 1502SOL    HW214546   0.722   9.480   0.735 -0.5907  2.1631  0.8245
 1503SOL     OW14547   1.027   0.732   0.955  0.0978 -0.2885 -0.5587
 1503SOL    HW114548   1.001   0.651   1.007  0.2253  0.3419  0.4974
 1503SOL    HW214549   0.967   0.741   0.875 -0.5008 -0.9143 -0.1836
 1504SOL     OW14550   9.103   5.166   2.423 -0.0701  0.5963 -0.8238
 1504SOL    HW114551   9.083   5.199   2.516 -2.1272  1.4942 -1.5697
 1504SOL    HW214552   9.066   5.230   2.356 -0.8041 -1.3341 -2.2981
 1505SOL     OW14553   4.214   3.965   0.683  0.0283  0.2248  0.0237
 1505SOL    HW114554   4.210   3.868   0.706  0.3433 -0.5184 -2.9108
 1505SOL    HW214555   4.309   3.997   0.692  0.1019  0.0199 -0.0044
 1506SOL     OW14556   0.559   1.451   0.887 -0.7218 -0.1595 -0.5386
 1506SOL    HW114557   0.520   1.433   0.978 -0.0589 -1.6216 -0.5165
 1506SOL    HW214558   0.523   1.384   0.822  0.2575 -0.3021 -0.9388
 1507SOL     OW14559   8.808   2.982   1.520 -0.0854 -0.2758 -0.1745
 1507SOL    HW114560   8.716   2.995   1.556  0.1861 -1.1708  0.8792
 1507SOL    HW214561   8.804   2.966   1.422 -1.1832 -1.7665  0.0939
 1508SOL     OW14562   3.192   0.169   0.678 -0.8782  0.1743 -0.5995
 1508SOL    HW114563   3.278   0.121   0.695 -0.0724  2.1515  1.1390
 1508SOL    HW214564   3.124   0.104   0.644  0.5880 -1.9181  0.3349
 1509SOL     OW14565   1.842   9.467   1.352 -0.2277 -0.4173 -0.1776
 1509SOL    HW114566   1.812   9.545   1.297 -0.3951 -0.7992 -0.6360
 1509SOL    HW214567   1.898   9.500   1.428 -1.5273  0.2779  0.5087
 1510SOL     OW14568   0.601   5.751   1.965  0.1102  0.5440 -0.0259
 1510SOL    HW114569   0.525   5.814   1.978 -0.2715  0.1032 -0.1212
 1510SOL    HW214570   0.567   5.663   1.934  0.5411 -0.0862  1.2783
 1511SOL     OW14571   0.936   3.595   2.064 -0.7823 -0.0706 -0.0979
 1511SOL    HW114572   1.025   3.616   2.106 -0.6954 -0.2880 -0.1725
 1511SOL    HW214573   0.885   3.679   2.050 -0.3261  0.1150 -0.6429
 1512SOL     OW14574   0.244   1.065   1.520 -0.0538  0.7571 -0.8058
 1512SOL    HW114575   0.223   1.141   1.581 -0.2734  1.0549 -1.2531
 1512SOL    HW214576   0.295   0.995   1.571 -0.0779  1.0827 -0.3291
 1513SOL     OW14577   1.173   7.128   1.884  0.6703  0.2383  0.6751
 1513SOL    HW114578   1.099   7.079   1.930  1.1922 -1.0727  0.1103
 1513SOL    HW214579   1.136   7.212   1.843 -0.4046 -0.1649  0.7922
 1514SOL     OW14580   1.418   8.084   2.461  0.6183  0.2479  0.2838
 1514SOL    HW114581   1.496   8.147   2.468 -0.1078  1.1730  0.1915
 1514SOL    HW214582   1.447   8.000   2.415  1.7625  0.2466  0.9946
 1515SOL     OW14583   1.879   9.195   0.120  0.2520  0.3262 -0.0380
 1515SOL    HW114584   1.855   9.205   0.023 -0.1786  2.0033  0.2364
 1515SOL    HW214585   1.969   9.235   0.136 -0.6257  2.0486  0.6781
 1516SOL     OW14586   2.595   6.533   1.964 -0.1618  0.1169  0.2991
 1516SOL    HW114587   2.620   6.451   1.912 -0.5781 -0.5638  1.1455
 1516SOL    HW214588   2.546   6.505   2.047 -2.3653  1.3442 -0.5594
 1517SOL     OW14589   2.679   2.056   0.727  0.0746 -0.6676  0.0690
 1517SOL    HW114590   2.701   2.145   0.765 -0.9609 -0.0252 -0.8102
 1517SOL    HW214591   2.607   2.065   0.658 -0.1345 -2.1917  0.0547
 1518SOL     OW14592   0.941   7.597   1.767  0.2419  0.1505  0.1493
 1518SOL    HW114593   0.885   7.672   1.732 -0.0839 -0.0950  0.1389
 1518SOL    HW214594   0.972   7.619   1.859 -1.0736 -0.3320  0.7230
 1519SOL     OW14595   1.163   2.694   1.659  0.2371 -0.1783 -0.0614
 1519SOL    HW114596   1.197   2.675   1.567 -1.0685 -2.7439 -0.0429
 1519SOL    HW214597   1.238   2.731   1.714  1.2949  0.4042 -1.8339
 1520SOL     OW14598   0.378   7.612   0.463 -0.1658 -0.5058 -0.0478
 1520SOL    HW114599   0.462   7.660   0.489 -0.1152 -0.4722 -0.2730
 1520SOL    HW214600   0.377   7.598   0.364 -0.9720  0.5207 -0.1944
 1521SOL     OW14601   9.964   6.562   0.377 -0.4946 -0.4005  0.2841
 1521SOL    HW114602   9.872   6.591   0.402 -1.4540 -0.9214 -2.4745
 1521SOL    HW214603  10.015   6.640   0.339 -1.0444 -0.9003 -1.5349
 1522SOL     OW14604   3.570   3.412   2.432 -0.3221 -0.0029  0.2590
 1522SOL    HW114605   3.541   3.439   2.340 -2.1058  0.2715  0.8752
 1522SOL    HW214606   3.489   3.400   2.490  0.7459 -0.8571  1.6082
 1523SOL     OW14607   1.344   9.430   2.114  0.2626  0.2308  0.3017
 1523SOL    HW114608   1.269   9.496   2.120  0.2480  0.4761 -2.1509
 1523SOL    HW214609   1.369   9.400   2.206  0.9687  4.4491  1.6034
 1524SOL     OW14610   8.959   2.779   0.968  0.0327  0.1640  0.1551
 1524SOL    HW114611   8.956   2.723   0.886 -0.0005  2.6187 -1.5809
 1524SOL    HW214612   8.903   2.737   1.040 -0.5879 -1.5994 -1.3196
 1525SOL     OW14613   1.254   3.217   1.943 -0.0701 -0.8556 -0.4208
 1525SOL    HW114614   1.162   3.250   1.966 -0.6148 -0.5166 -2.9106
 1525SOL    HW214615   1.257   3.117   1.951 -1.2713 -1.0633 -2.2602
 1526SOL     OW14616   9.665   2.504   0.296 -0.2839  0.1061 -0.1606
 1526SOL    HW114617   9.742   2.468   0.243 -0.9734 -1.3140 -0.2300
 1526SOL    HW214618   9.588   2.440   0.291 -0.9421  0.7675  1.1625
 1527SOL     OW14619   3.815   2.830   1.036  0.0244  0.1093  0.1636
 1527SOL    HW114620   3.859   2.897   0.976  0.7737 -0.9365 -0.4758
 1527SOL    HW214621   3.864   2.826   1.123  0.8150 -0.5873 -0.3057
 1528SOL     OW14622   0.635   0.062   1.183 -0.0259 -0.1909 -0.1227
 1528SOL    HW114623   0.547   0.090   1.224  0.8271  0.7020  1.1612
 1528SOL    HW214624   0.652  -0.034   1.204 -0.3289 -0.1530  0.3204
 1529SOL     OW14625   0.576   7.717   0.963  0.0045  0.0431  0.3687
 1529SOL    HW114626   0.661   7.688   0.917 -0.1134  0.7004 -0.2649
 1529SOL    HW214627   0.575   7.816   0.971  0.1089 -0.0791  1.9822
 1530SOL     OW14628   1.589   4.994   0.282 -0.1893 -0.2712 -0.0270
 1530SOL    HW114629   1.685   4.974   0.264  0.5850  1.2839  2.1965
 1530SOL    HW214630   1.564   4.961   0.373 -1.7397 -0.5447 -0.5297
 1531SOL     OW14631   4.431   1.858   1.424  0.2921 -0.3799 -0.6033
 1531SOL    HW114632   4.412   1.764   1.452  0.2282  0.7859  3.5955
 1531SOL    HW214633   4.350   1.897   1.381  0.4021 -2.2847 -2.6366
 1532SOL     OW14634   0.288   3.352   1.487 -0.1869  0.6925 -0.6578
 1532SOL    HW114635   0.232   3.410   1.547  1.0112  2.8001 -1.5025
 1532SOL    HW214636   0.237   3.333   1.403 -1.0343 -0.4596  0.1084
 1533SOL     OW14637   3.977   3.561   2.340  0.1834  0.1311  0.5077
 1533SOL    HW114638   4.044   3.491   2.365 -0.1363 -0.3023  0.1548
 1533SOL    HW214639   3.989   3.586   2.244  0.7830  1.1046  0.8272
 1534SOL     OW14640   1.956   2.431   0.192 -0.0936 -0.3757  0.5768
 1534SOL    HW114641   1.911   2.385   0.116 -0.9141 -0.0987  0.8860
 1534SOL    HW214642   1.943   2.378   0.276  0.1192 -0.2734  0.6738
 1535SOL     OW14643   2.152   1.780   2.264 -0.2540  0.9614 -0.5894
 1535SOL    HW114644   2.097   1.700   2.240  0.2726  0.4023  0.0436
 1535SOL    HW214645   2.247   1.751   2.279 -0.5852  1.2321  2.3307
 1536SOL     OW14646   9.557   5.233   1.928  0.0918 -0.4137  0.6877
 1536SOL    HW114647   9.521   5.175   2.001  0.2836 -1.6970 -0.2160
 1536SOL    HW214648   9.512   5.210   1.842  0.6824  0.2814  0.1861
 1537SOL     OW14649   1.227   8.276   0.650 -0.6079 -0.4826  0.2388
 1537SOL    HW114650   1.223   8.206   0.578  0.7949 -0.9595  0.6136
 1537SOL    HW214651   1.231   8.367   0.608 -0.2992 -0.7302 -0.2771
 1538SOL     OW14652   1.941   5.175   1.834  0.4321  0.3573  0.5815
 1538SOL    HW114653   1.876   5.243   1.868  0.4329  0.7307 -0.1439
 1538SOL    HW214654   2.034   5.210   1.845  0.3959  0.8790 -0.6214
 1539SOL     OW14655   2.316   9.714   0.072  0.4009 -0.0209 -0.1093
 1539SOL    HW114656   2.246   9.648   0.099  0.0204  0.9653  1.3827
 1539SOL    HW214657   2.405   9.685   0.108  0.0265  0.8898  1.5789
 1540SOL     OW14658   0.532   6.930   1.111 -0.3046  0.2964 -0.7494
 1540SOL    HW114659   0.546   6.872   1.191 -0.1959  0.0721 -0.9294
 1540SOL    HW214660   0.493   6.875   1.037 -2.2084  0.9173 -0.2398
 1541SOL     OW14661   9.429   2.526   0.129  0.0615  0.4803  0.3397
 1541SOL    HW114662   9.351   2.582   0.158 -0.3304 -0.0231  0.2697
 1541SOL    HW214663   9.514   2.571   0.156 -0.2576  0.9138  0.6384
 1542SOL     OW14664   0.954   3.674   2.406 -0.0996 -0.4506  0.6187
 1542SOL    HW114665   1.002   3.686   2.319  1.3213 -1.0045  1.2983
 1542SOL    HW214666   0.856   3.670   2.390  0.0148  1.5373 -0.7268
 1543SOL     OW14667   0.303   0.141   1.479 -0.2596  0.3152 -0.0752
 1543SOL    HW114668   0.325   0.213   1.413  1.1495 -0.4857 -0.5035
 1543SOL    HW214669   0.362   0.149   1.558 -2.1797  1.4803  1.2903
 1544SOL     OW14670   0.401   9.686   0.059  0.3213 -0.3158 -0.0109
 1544SOL    HW114671   0.416   9.716  -0.035  1.4852  1.1783  0.6297
 1544SOL    HW214672   0.313   9.723   0.092  0.9401  0.9997  0.1992
 1545SOL     OW14673   3.253   1.317   1.630  0.7884 -0.0446  0.1695
 1545SOL    HW114674   3.270   1.415   1.615  1.2782 -0.0626  0.5920
 1545SOL    HW214675   3.213   1.277   1.547 -3.8400  1.4750  1.5390
 1546SOL     OW14676   8.701   4.714   1.439  0.1643 -0.4262  0.2229
 1546SOL    HW114677   8.616   4.692   1.391  0.1725 -0.8230  0.3897
 1546SOL    HW214678   8.758   4.774   1.381 -0.2800 -0.0570  0.1622
 1547SOL     OW14679   0.495   6.512   0.609  0.4487 -0.3483  0.2334
 1547SOL    HW114680   0.507   6.420   0.573 -0.3179 -0.5131  0.3887
 1547SOL    HW214681   0.573   6.536   0.667  1.9142  0.0971 -1.8547
 1548SOL     OW14682   0.067   5.718   1.646  0.0311 -0.2178 -0.2657
 1548SOL    HW114683   0.156   5.732   1.690 -0.3334 -2.1112  1.1226
 1548SOL    HW214684   0.012   5.655   1.700 -1.6513 -0.1516 -1.8318
 1549SOL     OW14685   2.551   9.675   0.227  0.0442 -0.2315 -0.2401
 1549SOL    HW114686   2.649   9.686   0.242 -0.2377 -0.1721  1.7713
 1549SOL    HW214687   2.507   9.654   0.315 -1.5000 -1.9586 -1.3975
 1550SOL     OW14688   3.039   9.388   1.593  0.0148  0.4490  0.2688
 1550SOL    HW114689   3.003   9.479   1.568 -1.6522 -0.2690 -0.0282
 1550SOL    HW214690   3.109   9.361   1.528  0.4980  1.5092  0.3370
 1551SOL     OW14691   2.001   7.748   2.458 -0.6313  0.2524 -0.0203
 1551SOL    HW114692   2.080   7.737   2.519 -0.7918  1.1843  0.3595
 1551SOL    HW214693   2.013   7.831   2.403 -0.0929 -1.0159 -1.8495
 1552SOL     OW14694   2.355   9.287   0.825  0.0237  0.0941  0.4242
 1552SOL    HW114695   2.377   9.380   0.796 -0.4255  0.2478  0.5682
 1552SOL    HW214696   2.256   9.273   0.821  0.2953 -1.4017 -2.7522
 1553SOL     OW14697   9.565   1.376   0.996 -0.0092 -0.5715 -0.5395
 1553SOL    HW114698   9.550   1.473   0.981  0.0502 -0.4863 -0.0392
 1553SOL    HW214699   9.498   1.341   1.062 -0.0583 -0.8773 -0.7501
 1554SOL     OW14700   0.372   6.555   1.069  0.2964 -0.9765  0.6873
 1554SOL    HW114701   0.315   6.488   1.020  0.7227 -0.6470 -0.2894
 1554SOL    HW214702   0.453   6.508   1.106 -0.3282 -1.3418  1.6099
 1555SOL     OW14703   1.415   4.543   1.285  0.1607  0.0847  0.1569
 1555SOL    HW114704   1.344   4.483   1.249  1.5521 -0.6054 -1.4930
 1555SOL    HW214705   1.381   4.589   1.367 -1.6633 -1.3394  0.2330
 1556SOL     OW14706   9.118   4.800   2.557 -0.1378  0.3843 -0.0547
 1556SOL    HW114707   9.065   4.775   2.476 -1.2571  1.1448  0.4369
 1556SOL    HW214708   9.159   4.890   2.544 -0.2973  0.4968  0.2188
 1557SOL     OW14709   8.876   3.812   2.325  0.6320  0.3121 -0.1841
 1557SOL    HW114710   8.865   3.715   2.305 -3.4570  0.5460  0.6652
 1557SOL    HW214711   8.865   3.865   2.240 -1.4709  0.2972  0.0660
 1558SOL     OW14712   9.427   1.774   2.222 -0.5200 -0.2624 -0.4048
 1558SOL    HW114713   9.467   1.865   2.233 -2.2891  0.5888 -0.7504
 1558SOL    HW214714   9.420   1.730   2.312 -0.7517  0.4456 -0.0664
 1559SOL     OW14715   8.771   3.237   1.553 -0.5191  0.1982  0.1004
 1559SOL    HW114716   8.799   3.142   1.543 -1.2984 -0.1511  1.1847
 1559SOL    HW214717   8.848   3.297   1.528 -0.3541 -0.6877 -1.5827
 1560SOL     OW14718   3.004   9.001   1.896 -0.5859 -0.5247 -0.5079
 1560SOL    HW114719   2.930   9.040   1.950 -0.1557  0.1196 -0.3797
 1560SOL    HW214720   3.063   9.074   1.862 -0.0957 -1.0217 -0.7418
 1561SOL     OW14721   3.301   2.953   1.108  0.4545 -0.1867 -0.6133
 1561SOL    HW114722   3.400   2.942   1.106  0.4922  0.3032 -2.0563
 1561SOL    HW214723   3.267   2.962   1.014 -1.3160 -3.5311 -0.3562
 1562SOL     OW14724   8.696   2.712   1.908 -0.0015  0.7434  0.2937
 1562SOL    HW114725   8.722   2.624   1.947 -0.3296  0.4798 -0.0780
 1562SOL    HW214726   8.769   2.778   1.925 -0.7011  0.9952  2.5105
 1563SOL     OW14727   8.966   5.046   1.638 -0.1347  0.4735  0.3574
 1563SOL    HW114728   8.950   4.948   1.653 -0.1320  0.6807  1.8755
 1563SOL    HW214729   8.993   5.061   1.543  1.0690 -1.1612  0.3962
 1564SOL     OW14730   0.484   6.376   2.147  0.1766  0.2824  0.5725
 1564SOL    HW114731   0.452   6.467   2.120 -2.0486 -0.7511 -0.3797
 1564SOL    HW214732   0.414   6.308   2.125  1.8534 -1.6874  1.1678
 1565SOL     OW14733   0.082   5.136   0.841  0.4612  0.3471  0.5413
 1565SOL    HW114734   0.151   5.085   0.892 -0.0741  0.6310  1.5688
 1565SOL    HW214735   0.056   5.218   0.893 -0.7359  0.1774  0.2265
 1566SOL     OW14736   3.608   7.965   1.839 -0.1753  0.0491  0.5168
 1566SOL    HW114737   3.705   7.956   1.819 -0.2266 -1.0966  0.7622
 1566SOL    HW214738   3.597   8.006   1.930  0.0756  0.1943  0.4831
 1567SOL     OW14739   2.756   3.743   1.742  0.1311  0.1525 -0.1111
 1567SOL    HW114740   2.809   3.658   1.744 -0.1072 -0.0190 -0.8245
 1567SOL    HW214741   2.691   3.740   1.666 -1.0186  0.3002  0.8635
 1568SOL     OW14742   1.730   7.922   0.966  0.0036  0.0187  0.2657
 1568SOL    HW114743   1.641   7.911   0.922  0.7182  0.7568 -1.4043
 1568SOL    HW214744   1.795   7.855   0.927  0.7913  1.0619 -0.2478
 1569SOL     OW14745   0.973   9.949   1.310 -0.0136  0.0914 -0.2771
 1569SOL    HW114746   0.938  10.032   1.354 -1.1224 -0.3525 -0.3060
 1569SOL    HW214747   1.039   9.905   1.370  0.9706  1.2604 -0.4732
 1570SOL     OW14748   2.200   8.609   0.039  0.1662 -0.0484 -0.7132
 1570SOL    HW114749   2.291   8.602   0.082 -0.6123 -2.0226  0.6824
 1570SOL    HW214750   2.174   8.705   0.034  1.3947  0.4062  0.9166
 1571SOL     OW14751   2.746   9.393   1.020  0.1536  0.3082 -0.0117
 1571SOL    HW114752   2.649   9.369   1.031  0.6079 -0.5692  2.6023
 1571SOL    HW214753   2.800   9.342   1.087  2.3799  1.1426 -1.1362
 1572SOL     OW14754   2.068   2.978   1.765 -0.4675 -0.1268  0.3324
 1572SOL    HW114755   2.138   2.912   1.791 -0.8404 -0.6255  0.1086
 1572SOL    HW214756   2.099   3.030   1.686 -0.4225 -0.4814  0.1133
 1573SOL     OW14757   8.848   2.552   0.839  0.0163 -0.4046 -0.3110
 1573SOL    HW114758   8.772   2.538   0.775 -1.9714 -2.4138  2.3472
 1573SOL    HW214759   8.917   2.482   0.825 -0.4564 -0.8916 -0.2100
 1574SOL     OW14760   2.780   0.694   1.455 -0.1291  0.2060 -0.0276
 1574SOL    HW114761   2.790   0.617   1.519 -0.4224  0.3087  0.1412
 1574SOL    HW214762   2.793   0.661   1.362 -0.2302 -0.0439  0.0460
 1575SOL     OW14763   0.461   2.226   2.215  0.2483 -0.3190 -0.5550
 1575SOL    HW114764   0.543   2.256   2.264  0.4841 -0.0955 -1.0923
 1575SOL    HW214765   0.413   2.157   2.270  1.6258 -1.6032 -0.9559
 1576SOL     OW14766   1.225   6.861   0.855  0.5833  0.2312 -0.0985
 1576SOL    HW114767   1.312   6.821   0.884  0.7791  0.3610 -0.4934
 1576SOL    HW214768   1.165   6.789   0.821  0.5339  0.1398  0.1836
 1577SOL     OW14769   2.757   7.162   2.125  0.3166 -0.1321 -0.1876
 1577SOL    HW114770   2.795   7.176   2.034  2.1256 -1.6089  0.3132
 1577SOL    HW214771   2.706   7.244   2.153  0.5506  0.6962 -2.1207
 1578SOL     OW14772   1.609   9.784   1.036  0.9498 -0.0792  0.2861
 1578SOL    HW114773   1.579   9.857   1.098  0.4483  1.8135 -2.1174
 1578SOL    HW214774   1.597   9.813   0.941  1.2882 -3.0959 -0.7446
 1579SOL     OW14775   1.240   1.608   0.564 -0.3858 -0.0844 -0.2003
 1579SOL    HW114776   1.157   1.561   0.533 -0.1099  0.2976 -1.5619
 1579SOL    HW214777   1.280   1.659   0.488  1.3893 -0.6753  0.3045
 1580SOL     OW14778   2.660   5.021   1.089  0.3272  0.1477 -0.3672
 1580SOL    HW114779   2.598   5.099   1.094  1.2989  0.8208  1.6411
 1580SOL    HW214780   2.627   4.948   1.149  1.3566  0.4252  0.5461
 1581SOL     OW14781   1.148   8.108   0.465  0.2502  0.3267  0.6290
 1581SOL    HW114782   1.068   8.124   0.407  0.8036  0.4279 -0.1148
 1581SOL    HW214783   1.194   8.024   0.436  1.1438  0.9482  0.2187
 1582SOL     OW14784   2.561   9.411   2.529 -0.2623  0.3846 -0.1140
 1582SOL    HW114785   2.501   9.467   2.471 -1.2838 -0.2036  0.3582
 1582SOL    HW214786   2.620   9.356   2.470  0.6773  1.8622 -0.5816
 1583SOL     OW14787   2.064   7.727   0.666  0.5941  0.2726 -0.0127
 1583SOL    HW114788   2.039   7.687   0.578  1.3782  0.7258 -0.4447
 1583SOL    HW214789   1.988   7.716   0.730  0.4619 -1.1312 -0.3860
 1584SOL     OW14790   1.985   9.197   0.977 -0.0670  0.2425  0.0747
 1584SOL    HW114791   2.033   9.262   0.918 -0.2107  0.0818 -0.2187
 1584SOL    HW214792   1.920   9.246   1.035  0.4314  0.4611  0.4563
 1585SOL     OW14793   4.191   3.400   2.352 -0.2101 -0.1175  0.1241
 1585SOL    HW114794   4.186   3.350   2.438  2.1577  0.5141  0.6628
 1585SOL    HW214795   4.240   3.345   2.284  2.0999  1.2231  0.6183
 1586SOL     OW14796   2.184   0.348   1.478  0.1688  0.6329  0.4640
 1586SOL    HW114797   2.109   0.392   1.429 -1.1024  0.7382  2.4569
 1586SOL    HW214798   2.218   0.270   1.425 -1.5229  0.4137 -0.3225
 1587SOL     OW14799   2.292   5.821   1.006 -0.1285 -0.1527 -0.0967
 1587SOL    HW114800   2.206   5.838   0.959 -0.0482  1.9744  0.4350
 1587SOL    HW214801   2.348   5.758   0.953 -2.2721 -2.0700 -0.1207
 1588SOL     OW14802   1.160   4.959   1.972 -0.5971 -0.2168  0.1776
 1588SOL    HW114803   1.130   5.016   2.049  1.8638 -1.8458  2.4059
 1588SOL    HW214804   1.110   4.872   1.973 -0.5956 -0.2237 -0.1358
 1589SOL     OW14805   9.744   0.330   1.668  0.6315  0.3261 -0.5184
 1589SOL    HW114806   9.799   0.374   1.597  0.5549  1.1490 -0.0632
 1589SOL    HW214807   9.673   0.393   1.699  0.6607 -0.0362  0.2921
 1590SOL     OW14808   1.725   4.953   2.106 -0.1021  0.3670  1.3110
 1590SOL    HW114809   1.642   4.932   2.158  0.0284  0.5881  1.6060
 1590SOL    HW214810   1.722   4.904   2.018  0.2998 -1.0339  2.0672
 1591SOL     OW14811   1.962   0.443   1.309  0.2274 -0.4157 -0.2117
 1591SOL    HW114812   1.962   0.517   1.242  1.2896  0.1935  0.4525
 1591SOL    HW214813   1.871   0.434   1.349  0.0030  0.2758 -0.5684
 1592SOL     OW14814   1.276   8.025   1.390  0.2253  0.0846  0.7041
 1592SOL    HW114815   1.335   7.997   1.466 -0.1435  0.8461  1.2802
 1592SOL    HW214816   1.203   8.084   1.424  0.6281  1.2454 -0.3842
 1593SOL     OW14817   9.676   9.245   0.204 -0.4138  0.2069  0.0148
 1593SOL    HW114818   9.698   9.157   0.160 -0.3244 -0.0479  0.5641
 1593SOL    HW214819   9.596   9.284   0.160 -0.3307 -0.0454 -0.3787
 1594SOL     OW14820   0.853   1.050   0.750  0.6808 -0.6470  0.3239
 1594SOL    HW114821   0.884   0.988   0.679  0.9162  0.0360 -0.1694
 1594SOL    HW214822   0.770   1.015   0.792  0.1212 -0.6573 -0.8089
 1595SOL     OW14823   0.830   3.092   0.915 -0.2147 -0.2376 -0.0986
 1595SOL    HW114824   0.858   3.095   0.819 -0.4024  1.0893 -0.1246
 1595SOL    HW214825   0.760   3.022   0.928 -0.6812  0.0485 -1.0607
 1596SOL     OW14826   5.121   3.320   2.425  0.5860  0.4611  0.3704
 1596SOL    HW114827   5.062   3.354   2.352  2.6478  0.6880 -1.2204
 1596SOL    HW214828   5.140   3.223   2.411 -0.4515  0.0587  1.6191
 1597SOL     OW14829   3.201   0.330   0.279 -0.2145  0.3244 -0.0540
 1597SOL    HW114830   3.132   0.388   0.323 -1.0872 -0.3686 -0.4927
 1597SOL    HW214831   3.271   0.306   0.345  0.1473  1.8588  0.1542
 1598SOL     OW14832   2.427   3.045   1.633  0.0011  0.1214 -0.1319
 1598SOL    HW114833   2.509   3.099   1.617  0.5371 -0.8351 -0.6640
 1598SOL    HW214834   2.424   3.014   1.728 -0.7198  1.7484  0.3900
 1599SOL     OW14835   0.691   3.910   1.052  0.0994 -0.0613  0.6625
 1599SOL    HW114836   0.597   3.895   1.083  0.1427 -2.3235 -0.2427
 1599SOL    HW214837   0.710   4.008   1.051 -2.1661  0.4123  1.0805
 1600SOL     OW14838   0.862   4.655   0.477 -0.2494 -0.1258 -0.0695
 1600SOL    HW114839   0.921   4.682   0.400 -0.3319  0.5159  0.0933
 1600SOL    HW214840   0.915   4.600   0.541 -0.4143 -1.4223 -1.0354
 1601SOL     OW14841   9.511   2.317   2.339  0.3344 -0.7508  0.7746
 1601SOL    HW114842   9.413   2.300   2.325  0.1035  1.2371 -0.1246
 1601SOL    HW214843   9.559   2.229   2.345 -1.3234 -1.7467 -0.0822
 1602SOL     OW14844   4.447   2.418   0.907 -0.3183  0.7179 -0.1530
 1602SOL    HW114845   4.370   2.481   0.913  0.0066  1.0657  0.4680
 1602SOL    HW214846   4.503   2.427   0.990 -0.7425 -1.0101  0.3403
 1603SOL     OW14847   4.534   3.748   0.412  0.0672 -0.2534  0.1068
 1603SOL    HW114848   4.469   3.786   0.347 -0.3255 -0.7014  0.2327
 1603SOL    HW214849   4.605   3.816   0.433 -0.7982  0.5086  0.5747
 1604SOL     OW14850   2.129   9.288   0.119 -0.8520  0.5197  0.3433
 1604SOL    HW114851   2.225   9.270   0.095 -0.7234 -0.9855  1.8367
 1604SOL    HW214852   2.116   9.386   0.132 -0.0519  0.9720 -2.0257
 1605SOL     OW14853   3.126   1.209   1.423  0.1301 -0.0165 -0.1329
 1605SOL    HW114854   3.115   1.114   1.395  0.1255 -0.1043  0.1636
 1605SOL    HW214855   3.123   1.268   1.343  0.1177 -0.2657 -0.3158
 1606SOL     OW14856   3.650   1.621   1.291 -0.5345  0.8799 -0.0140
 1606SOL    HW114857   3.719   1.668   1.346 -0.8975  0.4458  0.8212
 1606SOL    HW214858   3.650   1.659   1.198  1.3338  0.4029 -0.2440
 1607SOL     OW14859   8.158   2.310   0.992 -0.0172 -0.4130 -0.0110
 1607SOL    HW114860   8.218   2.242   0.949 -1.0068 -0.8707 -0.6862
 1607SOL    HW214861   8.064   2.278   0.988 -0.3581  0.4899  0.6835
 1608SOL     OW14862   2.886   1.400   2.040  0.0035 -0.1013  0.0773
 1608SOL    HW114863   2.922   1.314   2.006 -0.1776 -0.5432  0.9866
 1608SOL    HW214864   2.832   1.445   1.968  1.3494 -0.0104 -0.8890
 1609SOL     OW14865   9.950   9.773   1.322 -0.3782 -0.4717  0.1599
 1609SOL    HW114866   9.905   9.749   1.237 -1.0470  1.7582 -0.1641
 1609SOL    HW214867  10.013   9.700   1.349 -1.8283 -2.1963 -1.0375
 1610SOL     OW14868   0.433   4.470   0.535  0.4738 -0.0088  0.0299
 1610SOL    HW114869   0.512   4.485   0.476 -1.0870  1.1323 -1.8218
 1610SOL    HW214870   0.353   4.515   0.496 -1.2576 -1.6971  1.5343
 1611SOL     OW14871   1.148   6.681   1.791 -0.9598 -0.0918  0.3453
 1611SOL    HW114872   1.061   6.704   1.835 -0.5190 -0.0414  1.1994
 1611SOL    HW214873   1.223   6.722   1.842 -0.4670  0.3406 -0.7171
 1612SOL     OW14874   0.613   9.942   0.526  0.2120 -0.0733  0.0320
 1612SOL    HW114875   0.618  10.040   0.546  0.6616 -0.1972  0.5203
 1612SOL    HW214876   0.693   9.896   0.564  0.2934 -0.5452 -0.7076
 1613SOL     OW14877   2.416   8.923   0.640  0.1443  0.3493  0.1919
 1613SOL    HW114878   2.368   8.932   0.553  0.4448  1.1721  0.1052
 1613SOL    HW214879   2.490   8.991   0.645 -0.0982  0.5462  1.2358
 1614SOL     OW14880   0.927   1.507   0.525  0.2314 -0.1028  0.1793
 1614SOL    HW114881   0.900   1.598   0.557  0.2192 -0.3511  0.8794
 1614SOL    HW214882   0.875   1.438   0.574  0.1402 -0.4866 -0.4540
 1615SOL     OW14883   2.570   9.667   1.637 -0.0530 -0.0812  0.3629
 1615SOL    HW114884   2.543   9.597   1.571 -2.3321  0.0783  1.0775
 1615SOL    HW214885   2.582   9.625   1.727  0.3477  0.1429  0.4128
 1616SOL     OW14886   2.804   2.633   1.216  0.1805  0.1851  0.3537
 1616SOL    HW114887   2.773   2.728   1.214  0.1038  0.1466 -0.4725
 1616SOL    HW214888   2.887   2.625   1.270 -1.1416  0.3323  2.4371
 1617SOL     OW14889   0.570   7.176   1.362 -0.0989  0.3952  0.1852
 1617SOL    HW114890   0.487   7.188   1.308 -0.5132 -1.2213  0.4669
 1617SOL    HW214891   0.587   7.079   1.377  1.3576  0.7473  0.8861
 1618SOL     OW14892   3.598   3.497   0.610 -0.6194  0.3151 -0.8188
 1618SOL    HW114893   3.658   3.576   0.603  1.3797 -1.2038 -1.2643
 1618SOL    HW214894   3.518   3.510   0.551 -0.9613  2.5423  0.1224
 1619SOL     OW14895   0.726   3.214   1.172  0.2521 -0.5049 -0.1652
 1619SOL    HW114896   0.768   3.181   1.257 -3.2098 -1.3987  1.2940
 1619SOL    HW214897   0.764   3.164   1.095  1.3851 -1.7260  1.1526
 1620SOL     OW14898   3.960   0.361   1.139  0.0772 -0.2887  0.2380
 1620SOL    HW114899   3.969   0.319   1.229 -2.5164 -2.2679 -0.3385
 1620SOL    HW214900   3.927   0.455   1.150  1.3717  0.0558  1.3821
 1621SOL     OW14901   0.184   3.670   0.554 -0.1692 -0.0253 -0.1687
 1621SOL    HW114902   0.238   3.603   0.604  0.2187  0.6035  0.2574
 1621SOL    HW214903   0.244   3.731   0.503 -0.5448 -0.3970 -1.0798
 1622SOL     OW14904   2.776   2.017   2.337  0.6617  0.0394 -0.0789
 1622SOL    HW114905   2.862   2.050   2.378 -0.6564  0.1280  2.7565
 1622SOL    HW214906   2.724   2.094   2.302  1.5932  0.0135 -1.5633
 1623SOL     OW14907   2.558   3.700   1.569  0.2285 -0.2267  0.2081
 1623SOL    HW114908   2.470   3.738   1.539 -0.3261 -0.4772  1.5116
 1623SOL    HW214909   2.544   3.607   1.601  1.0493 -0.3972  0.0589
 1624SOL     OW14910   9.009   4.582   0.118 -0.8286 -0.2156  0.3023
 1624SOL    HW114911   9.054   4.671   0.109 -0.1642 -0.6279 -0.5453
 1624SOL    HW214912   8.993   4.563   0.215  0.2807  0.2194  0.5852
 1625SOL     OW14913   0.324   9.130   1.499  0.3312  0.4474 -0.2421
 1625SOL    HW114914   0.274   9.102   1.417 -0.7973 -0.3302  0.6997
 1625SOL    HW214915   0.414   9.085   1.500 -0.8517 -1.9568  0.4692
 1626SOL     OW14916   2.875   0.585   0.199  0.3739  0.3119  0.8144
 1626SOL    HW114917   2.840   0.678   0.190  0.2143  0.3870  2.1310
 1626SOL    HW214918   2.920   0.558   0.114 -2.1569  0.5171 -0.6574
 1627SOL     OW14919   2.184   9.541   0.240  0.2713  0.8418  0.2415
 1627SOL    HW114920   2.090   9.540   0.276 -0.3729  0.9584 -1.4306
 1627SOL    HW214921   2.241   9.482   0.297 -1.0437 -0.0409  0.6787
 1628SOL     OW14922   1.674   8.520   1.181 -0.5978 -0.1588 -0.4844
 1628SOL    HW114923   1.709   8.555   1.094 -0.6349 -1.0523 -0.8616
 1628SOL    HW214924   1.668   8.421   1.177  0.2386 -0.2750  0.8570
 1629SOL     OW14925   9.788   6.430   1.944 -0.5953 -0.0972 -0.0684
 1629SOL    HW114926   9.736   6.350   1.973 -0.3530 -0.0183  0.5977
 1629SOL    HW214927   9.864   6.445   2.008 -0.8677  0.8942  0.0391
 1630SOL     OW14928   9.989   9.250   1.017  0.1179 -0.1740  0.3356
 1630SOL    HW114929  10.065   9.203   0.972  0.1331  0.7352 -0.5844
 1630SOL    HW214930   9.996   9.235   1.116  0.5478 -1.4764  0.1230
 1631SOL     OW14931   1.723   4.011   1.282 -0.4317  0.3361 -0.1025
 1631SOL    HW114932   1.793   3.955   1.238  0.3351  1.1106  0.1042
 1631SOL    HW214933   1.674   4.063   1.212 -1.2685 -0.7263 -0.3099
 1632SOL     OW14934   9.238   1.470   0.469  0.0510 -0.8242  0.4400
 1632SOL    HW114935   9.215   1.375   0.451 -1.1513 -0.7303  1.4096
 1632SOL    HW214936   9.241   1.485   0.568 -0.2738  0.2625  0.2921
 1633SOL     OW14937   0.816   9.473   2.192  0.2845 -0.1660 -0.1896
 1633SOL    HW114938   0.851   9.409   2.123  0.7151  0.0445 -0.1684
 1633SOL    HW214939   0.777   9.553   2.146  0.2029 -0.2125 -0.2017
 1634SOL     OW14940   3.710   4.073   0.777  0.0083 -0.3643 -0.1896
 1634SOL    HW114941   3.669   3.994   0.822 -0.7405 -0.1941 -0.5593
 1634SOL    HW214942   3.657   4.155   0.799  1.8159  0.3488  1.6402
 1635SOL     OW14943   9.535   0.956   0.979 -0.1707 -0.8597 -0.4787
 1635SOL    HW114944   9.617   0.998   1.016 -1.1382  1.0666 -0.4632
 1635SOL    HW214945   9.557   0.864   0.946  1.2284 -1.6886  2.5850
 1636SOL     OW14946   0.708   0.447   0.828  1.0167 -0.2582  0.1166
 1636SOL    HW114947   0.733   0.541   0.805 -0.0487 -0.1764 -0.7032
 1636SOL    HW214948   0.615   0.428   0.799 -0.0504 -0.4704  3.4503
 1637SOL     OW14949   1.555   6.300   0.806  0.1648 -0.1374 -0.0774
 1637SOL    HW114950   1.639   6.278   0.855  0.0050  0.1566  0.3382
 1637SOL    HW214951   1.570   6.292   0.708  0.8166  0.3904 -0.0266
 1638SOL     OW14952   2.860   4.184   0.156 -0.2879 -0.0318 -0.1980
 1638SOL    HW114953   2.871   4.250   0.230 -1.3540 -0.6894  0.5453
 1638SOL    HW214954   2.948   4.140   0.138  0.1182  0.5949  0.2379
 1639SOL     OW14955   0.436   7.545   1.150 -0.2807 -0.1175 -0.4104
 1639SOL    HW114956   0.467   7.605   1.076  1.0623 -0.9367 -0.5286
 1639SOL    HW214957   0.501   7.470   1.161 -1.0962 -0.6507  0.8221
 1640SOL     OW14958   1.427   8.938   0.833  0.1956  0.6937 -0.3981
 1640SOL    HW114959   1.389   9.002   0.899  2.2241  1.8801 -0.3254
 1640SOL    HW214960   1.482   8.989   0.766  2.8016 -1.0680  0.3391
 1641SOL     OW14961   9.023   1.533   1.172  0.1747  0.2838  0.0167
 1641SOL    HW114962   9.047   1.514   1.076 -3.1738 -0.0199 -0.7985
 1641SOL    HW214963   9.073   1.470   1.231  2.3415  0.5152 -1.4996
 1642SOL     OW14964   1.417   8.149   1.187 -0.5510 -0.8706 -0.2005
 1642SOL    HW114965   1.365   8.099   1.256  0.1772  1.6861  2.3155
 1642SOL    HW214966   1.353   8.198   1.128 -1.1471  1.5768  2.3537
 1643SOL     OW14967   1.313   9.719   1.666 -0.5714 -0.1831  0.5499
 1643SOL    HW114968   1.388   9.725   1.600 -0.6596  1.0052  0.5456
 1643SOL    HW214969   1.341   9.662   1.743  0.1989 -0.0683  0.3608
 1644SOL     OW14970   0.568   4.616   0.742  0.3648 -0.6638  0.3312
 1644SOL    HW114971   0.505   4.556   0.692 -1.3249 -0.6246  2.3553
 1644SOL    HW214972   0.562   4.708   0.705 -0.0912 -0.8626 -0.1048
 1645SOL     OW14973   3.925   9.927   0.649 -0.2793  0.2345  0.0232
 1645SOL    HW114974   3.888   9.862   0.716 -0.6258  0.7115  0.2939
 1645SOL    HW214975   3.921   9.886   0.558 -0.1151 -0.2862  0.2480
 1646SOL     OW14976   1.219   0.435   0.030 -0.8840  0.3724 -0.3865
 1646SOL    HW114977   1.312   0.442   0.067 -0.5805  0.0675 -1.0627
 1646SOL    HW214978   1.186   0.341   0.040 -0.6379  0.1851 -1.2394
 1647SOL     OW14979   3.532   2.091   0.628  0.6779 -0.0099  0.0944
 1647SOL    HW114980   3.572   2.001   0.612  0.3867 -0.2771  0.8509
 1647SOL    HW214981   3.604   2.158   0.645  1.0081  0.2950 -2.3538
 1648SOL     OW14982   4.021   1.723   0.494 -0.2103  0.0405 -0.1224
 1648SOL    HW114983   4.098   1.773   0.534  0.9027 -2.4399  0.9812
 1648SOL    HW214984   4.010   1.748   0.398 -0.5669  3.3614  0.7412
 1649SOL     OW14985   1.901   2.238   0.373  0.0094  0.1082 -0.3579
 1649SOL    HW114986   1.860   2.166   0.429  0.0490  1.2419  1.1724
 1649SOL    HW214987   1.990   2.208   0.339 -0.3400 -0.8704 -0.4143
 1650SOL     OW14988   0.057   6.489   1.433  0.0027  0.6866 -0.1679
 1650SOL    HW114989   0.058   6.552   1.355  0.8232 -0.1559 -0.8483
 1650SOL    HW214990  -0.023   6.508   1.490 -0.0579  1.9736 -0.6674
 1651SOL     OW14991   0.526   3.618   1.307  0.1499  0.7573  0.0035
 1651SOL    HW114992   0.605   3.641   1.364 -0.0561 -0.0591  0.6380
 1651SOL    HW214993   0.485   3.533   1.341 -0.4014  0.6441 -0.9378
 1652SOL     OW14994   1.390   4.285   1.508 -0.3106 -0.1173  0.3341
 1652SOL    HW114995   1.361   4.204   1.558  1.0962 -0.2765  0.9091
 1652SOL    HW214996   1.470   4.263   1.452  0.6278  1.0951  1.1835
 1653SOL     OW14997   0.887   4.332   0.929  0.6725 -0.6047  0.1851
 1653SOL    HW114998   0.870   4.420   0.884 -0.6625 -1.5382 -1.2076
 1653SOL    HW214999   0.806   4.274   0.919  0.5789 -1.0832  3.2858
 1654SOL     OW15000   1.517   9.722   1.480  0.7154  0.0883 -0.1603
 1654SOL    HW115001   1.558   9.638   1.444 -0.1063 -1.2128  1.8874
 1654SOL    HW215002   1.463   9.766   1.408  0.6287 -1.4554 -1.0557
 1655SOL     OW15003   2.653   9.010   2.010  0.6583  0.8567 -0.3425
 1655SOL    HW115004   2.655   8.913   1.986  2.4410  0.1571  2.3442
 1655SOL    HW215005   2.568   9.051   1.978 -0.7301 -1.9244 -0.3297
 1656SOL     OW15006   1.140   9.740   1.448  0.8308 -0.3116 -0.3167
 1656SOL    HW115007   1.201   9.733   1.527  1.3528 -1.7372 -0.8385
 1656SOL    HW215008   1.194   9.748   1.364  0.2800  1.7331 -0.5055
 1657SOL     OW15009   9.730   3.088   0.122  0.0304 -0.1965  0.1306
 1657SOL    HW115010   9.638   3.106   0.088 -0.0444 -0.7211  0.0558
 1657SOL    HW215011   9.780   3.174   0.130  0.1320 -0.0870 -1.5630
 1658SOL     OW15012   8.087   2.291   2.190  0.4161  0.2818 -0.5372
 1658SOL    HW115013   8.111   2.194   2.186 -0.6365  0.0623 -2.0994
 1658SOL    HW215014   8.083   2.327   2.097 -1.8706  1.1501 -0.1207
 1659SOL     OW15015   2.016   9.049   0.429 -0.9133  0.0980  0.0905
 1659SOL    HW115016   2.013   8.980   0.501  0.4737 -1.3699 -1.2273
 1659SOL    HW215017   1.926   9.092   0.420 -1.8005 -1.5475  0.9190
 1660SOL     OW15018   1.039   0.020   0.758 -0.3216 -0.0619 -0.0259
 1660SOL    HW115019   0.979   0.076   0.701  0.1517 -0.3042 -0.7850
 1660SOL    HW215020   0.996   0.003   0.846 -0.0590  2.2740  0.5791
 1661SOL     OW15021   3.961   1.801   2.197  0.1348 -0.1279  0.4398
 1661SOL    HW115022   3.903   1.868   2.243  0.0298  0.3595 -0.4004
 1661SOL    HW215023   4.055   1.809   2.231  0.1914  0.6704  0.0985
 1662SOL     OW15024   9.375   5.616   1.505 -0.3352  0.1905 -0.1062
 1662SOL    HW115025   9.394   5.557   1.584  0.2068  0.4685 -0.0262
 1662SOL    HW215026   9.395   5.565   1.421 -1.2040 -0.2070 -0.0776
 1663SOL     OW15027   2.019   0.705   0.825 -0.4369 -0.0736  0.1282
 1663SOL    HW115028   2.057   0.795   0.806 -1.1055  0.1670 -0.1048
 1663SOL    HW215029   2.088   0.647   0.869  0.0538  0.4843  0.0911
 1664SOL     OW15030   2.083   6.108   0.398 -0.4414  0.2123  0.0397
 1664SOL    HW115031   1.994   6.138   0.364  0.2397  0.6594 -1.3820
 1664SOL    HW215032   2.126   6.047   0.331  1.2038  1.6321 -0.2642
 1665SOL     OW15033   0.086   0.765   2.506  0.1987 -0.6086  0.1866
 1665SOL    HW115034   0.048   0.793   2.594 -0.1954 -0.8885  0.1070
 1665SOL    HW215035   0.159   0.828   2.480 -1.3988  0.9939 -0.5170
 1666SOL     OW15036   3.899   3.322   0.079 -0.2053 -0.1128 -0.7316
 1666SOL    HW115037   3.999   3.323   0.077 -0.1884  1.3702  0.0472
 1666SOL    HW215038   3.865   3.397   0.023 -0.9103 -0.9011 -1.3782
 1667SOL     OW15039   1.773   6.146   1.574  0.5067  0.1213 -0.7140
 1667SOL    HW115040   1.828   6.202   1.636  0.5592 -1.1004  0.3750
 1667SOL    HW215041   1.680   6.183   1.569 -0.3713 -1.4840  2.5075
 1668SOL     OW15042   9.388   5.167   2.156  0.3404  0.0600  0.2966
 1668SOL    HW115043   9.352   5.234   2.091  2.2075  0.6246 -0.1901
 1668SOL    HW215044   9.442   5.215   2.225 -0.2579 -0.7169  1.3189
 1669SOL     OW15045   3.486   9.663   1.310 -0.0433  0.0596  0.4900
 1669SOL    HW115046   3.404   9.672   1.253  1.1248  0.9892 -1.0735
 1669SOL    HW215047   3.527   9.753   1.324  0.6960 -0.3955  1.3066
 1670SOL     OW15048   1.097   1.426   1.232  0.6398  0.2757  0.3994
 1670SOL    HW115049   1.003   1.445   1.206  0.4642 -0.4011  0.5193
 1670SOL    HW215050   1.155   1.428   1.151  0.2387 -0.9754  0.0692
 1671SOL     OW15051   0.732   7.475   0.890 -0.2238 -0.1853  0.0376
 1671SOL    HW115052   0.754   7.398   0.950  0.2561  0.7884  1.1362
 1671SOL    HW215053   0.774   7.558   0.926  0.1937  0.3958 -1.7327
 1672SOL     OW15054   0.989   1.938   2.375 -0.2102 -0.4217  0.1723
 1672SOL    HW115055   0.914   1.954   2.310  0.7203  1.5529 -0.4720
 1672SOL    HW215056   1.060   1.883   2.331  0.5898  1.2287 -0.6595
 1673SOL     OW15057   2.424   2.692   2.446 -0.4375 -0.3543 -0.1320
 1673SOL    HW115058   2.460   2.663   2.357  0.4738  0.4944 -0.0492
 1673SOL    HW215059   2.327   2.715   2.436 -0.5677 -1.1122 -0.7087
 1674SOL     OW15060   9.857   0.155   0.687  0.2763 -0.5892 -0.3527
 1674SOL    HW115061   9.893   0.065   0.713  1.4387 -0.3465 -1.0947
 1674SOL    HW215062   9.885   0.223   0.754  1.3434 -0.3757 -1.0015
 1675SOL     OW15063   2.218   6.840   0.250 -0.3993 -0.0511  0.6787
 1675SOL    HW115064   2.140   6.841   0.187 -0.9906  1.9614  1.4024
 1675SOL    HW215065   2.196   6.895   0.331  1.2162 -0.7145  1.5847
 1676SOL     OW15066   9.900   4.473   1.253 -0.1205 -0.1418 -0.1546
 1676SOL    HW115067   9.934   4.531   1.180 -0.5190  0.2088 -0.0661
 1676SOL    HW215068   9.899   4.377   1.223  0.3362 -0.0755 -0.3734
 1677SOL     OW15069   8.779   3.725   2.058 -0.3024  0.2721  0.3254
 1677SOL    HW115070   8.749   3.640   2.014 -1.2314  0.5172  0.4588
 1677SOL    HW215071   8.847   3.770   2.001 -1.2361  0.4036 -0.7082
 1678SOL     OW15072   0.181   6.974   1.228  0.0343 -0.9347  1.1523
 1678SOL    HW115073   0.214   6.995   1.136 -0.8628 -0.2555  0.9775
 1678SOL    HW215074   0.210   7.046   1.291  2.9775 -2.7687  1.9598
 1679SOL     OW15075   9.983   7.753   0.189 -0.4056 -0.4498 -0.1444
 1679SOL    HW115076   9.952   7.707   0.272 -3.3992  0.2559 -0.8236
 1679SOL    HW215077   9.968   7.693   0.110  2.3805 -1.0999 -0.2376
 1680SOL     OW15078   2.563   8.077   1.364 -0.1064 -0.0946  1.1428
 1680SOL    HW115079   2.487   8.143   1.368  0.1983  0.2225  1.7777
 1680SOL    HW215080   2.637   8.108   1.424  0.3413 -0.6395  0.8737
 1681SOL     OW15081   0.527   4.437   0.956  1.0325  0.0047  0.2860
 1681SOL    HW115082   0.509   4.508   1.024  2.2772  1.0313 -0.4615
 1681SOL    HW215083   0.571   4.476   0.876 -1.7810 -0.9093 -1.8148
 1682SOL     OW15084   0.994   0.925   1.138  0.6595  0.3267  0.3556
 1682SOL    HW115085   0.994   0.874   1.224 -2.1894 -0.5090 -0.1006
 1682SOL    HW215086   0.964   0.866   1.063  1.5372  1.4905 -0.9526
 1683SOL     OW15087   2.076   5.861   2.297 -0.1177 -0.3720 -0.0418
 1683SOL    HW115088   2.059   5.813   2.212 -0.3355 -0.1787 -0.1102
 1683SOL    HW215089   2.074   5.797   2.374 -0.9926 -0.3904 -0.0682
 1684SOL     OW15090   2.795   9.798   1.268  0.2968  0.2699  0.2958
 1684SOL    HW115091   2.780   9.704   1.297 -0.1987  0.3069  0.1580
 1684SOL    HW215092   2.892   9.820   1.276  0.5308 -0.4912 -0.4022
 1685SOL     OW15093   0.011   9.145   2.254  0.3060 -0.3458 -0.5604
 1685SOL    HW115094   0.062   9.180   2.333 -0.3443 -0.1824 -0.2120
 1685SOL    HW215095   0.017   9.210   2.179 -0.2595  0.1621 -0.1698
 1686SOL     OW15096   1.072   0.578   2.178 -0.9619 -1.0933  0.0396
 1686SOL    HW115097   1.062   0.667   2.223  1.2539 -1.5681  1.5598
 1686SOL    HW215098   1.116   0.589   2.090 -1.9042 -0.5496 -0.3678
 1687SOL     OW15099   1.988   3.026   0.786  0.3887 -0.7852  0.5728
 1687SOL    HW115100   2.057   3.085   0.829  0.4705 -0.8121  0.4800
 1687SOL    HW215101   1.999   2.933   0.819 -1.1770 -0.3364  2.4275
 1688SOL     OW15102   9.632   5.936   2.027  0.9701  0.4252 -0.0045
 1688SOL    HW115103   9.560   5.874   2.056  0.1788  1.2426 -0.1939
 1688SOL    HW215104   9.712   5.884   1.997 -0.1409 -0.5261 -1.3544
 1689SOL     OW15105   1.661   5.778   0.202  0.3307 -0.1068 -0.1905
 1689SOL    HW115106   1.748   5.767   0.249  0.6809  0.0286 -0.8027
 1689SOL    HW215107   1.587   5.745   0.261  0.7879 -0.1952  0.3410
 1690SOL     OW15108   8.553   1.657   1.164 -0.3053  0.0327 -0.4826
 1690SOL    HW115109   8.575   1.562   1.144 -0.7757 -0.3341  0.6960
 1690SOL    HW215110   8.573   1.676   1.260  0.4207  1.3082 -0.8781
 1691SOL     OW15111   8.395   1.747   0.939 -0.0482  0.5850 -0.3303
 1691SOL    HW115112   8.347   1.833   0.956 -1.0232 -0.2425  1.1651
 1691SOL    HW215113   8.456   1.727   1.015  0.2573 -0.0056 -0.7272
 1692SOL     OW15114   2.626   9.744   2.048  0.5966 -0.4077 -0.1273
 1692SOL    HW115115   2.671   9.809   2.110 -1.1219 -1.1960  2.0140
 1692SOL    HW215116   2.551   9.790   2.001  0.4478 -0.4057  0.1108
 1693SOL     OW15117   3.533   4.274   0.555 -0.2494 -1.1362  0.5719
 1693SOL    HW115118   3.471   4.231   0.621 -2.6954 -0.1566 -1.0296
 1693SOL    HW215119   3.555   4.367   0.587 -1.0121 -0.8549  0.3030
 1694SOL     OW15120   0.492   2.082   1.280 -0.1317  0.0423 -0.2488
 1694SOL    HW115121   0.531   2.108   1.369 -0.2323 -1.5047  0.2742
 1694SOL    HW215122   0.394   2.067   1.290  0.0428 -1.2309 -0.3563
 1695SOL     OW15123   1.383   0.120   2.462 -0.0324 -0.0022 -0.5102
 1695SOL    HW115124   1.436   0.048   2.416  0.6961 -0.8552  1.5690
 1695SOL    HW215125   1.443   0.169   2.526 -1.5778 -0.6247  1.4792
 1696SOL     OW15126   0.549   5.674   1.448  0.3778  0.1314 -0.1200
 1696SOL    HW115127   0.453   5.656   1.470  0.4503 -0.3346 -0.1740
 1696SOL    HW215128   0.606   5.656   1.529  0.7587 -2.5562 -0.9414
 1697SOL     OW15129   2.091   8.560   1.699  0.0166 -0.3396  0.3507
 1697SOL    HW115130   2.039   8.475   1.709 -0.9580  0.1415 -0.6002
 1697SOL    HW215131   2.089   8.589   1.603  0.0930  0.9313  0.7329
 1698SOL     OW15132   0.244   1.667   2.535  0.6997  0.1525  0.7550
 1698SOL    HW115133   0.269   1.760   2.562  1.4578 -0.2680  1.5333
 1698SOL    HW215134   0.154   1.644   2.572  0.1543  0.8520 -0.1113
 1699SOL     OW15135   2.132   0.936   0.785  0.0020 -0.0293  0.3582
 1699SOL    HW115136   2.124   0.981   0.696 -1.5707 -1.7128 -0.3797
 1699SOL    HW215137   2.227   0.908   0.799  0.0379 -0.8864 -1.3975
 1700SOL     OW15138   9.695   0.464   2.255 -0.4506 -0.3839  0.4038
 1700SOL    HW115139   9.743   0.380   2.233  0.9024  0.6271 -0.6048
 1700SOL    HW215140   9.760   0.530   2.294 -0.9462  1.0860 -1.1959
 1701SOL     OW15141   2.699   0.799   0.201  0.1237  0.6400  0.2222
 1701SOL    HW115142   2.668   0.794   0.106  2.4365 -2.7047 -0.4760
 1701SOL    HW215143   2.636   0.748   0.259  1.3180 -1.5453 -0.3455
 1702SOL     OW15144   9.918   0.421   0.277 -0.1941  0.6760  0.1069
 1702SOL    HW115145   9.835   0.431   0.222  1.2460  0.2310 -2.2178
 1702SOL    HW215146   9.930   0.325   0.303 -1.6706  1.1120  2.5471
 1703SOL     OW15147   1.024   1.532   1.458  0.1542 -0.3198 -0.4997
 1703SOL    HW115148   1.049   1.489   1.371  0.0749 -0.1215 -0.6199
 1703SOL    HW215149   0.939   1.491   1.491  1.1011 -1.6402  0.3620
 1704SOL     OW15150   2.279   4.768   1.599 -0.0976  0.1597 -0.1849
 1704SOL    HW115151   2.353   4.836   1.597 -0.4608  0.5489 -0.4400
 1704SOL    HW215152   2.202   4.805   1.651 -0.1760 -0.1814 -0.0604
 1705SOL     OW15153   1.999   9.888   1.273  0.5255  0.2995 -0.0802
 1705SOL    HW115154   1.948   9.943   1.338  0.3468 -1.4545  1.2909
 1705SOL    HW215155   2.096   9.912   1.277  0.5713 -0.0640  1.1170
 1706SOL     OW15156   2.790   7.951   1.204  0.2377 -0.0216 -0.3350
 1706SOL    HW115157   2.716   7.981   1.264  0.2933  0.2153 -0.3850
 1706SOL    HW215158   2.878   7.968   1.249  0.2230 -1.5970  0.3229
 1707SOL     OW15159   1.514   7.771   1.877  0.9724 -0.2078 -0.3431
 1707SOL    HW115160   1.597   7.745   1.827  0.7669 -2.2831  0.3483
 1707SOL    HW215161   1.499   7.869   1.866  2.8213 -0.0106 -1.5128
 1708SOL     OW15162   2.822   7.167   0.269  0.0931  0.7368  0.7172
 1708SOL    HW115163   2.799   7.070   0.262 -0.0153  0.8064  0.0763
 1708SOL    HW215164   2.853   7.187   0.362  2.0406 -0.3380  0.3362
 1709SOL     OW15165   0.847   1.514   2.366 -1.1023  0.3342  0.2090
 1709SOL    HW115166   0.942   1.525   2.393 -0.8475  1.1076 -0.9701
 1709SOL    HW215167   0.790   1.580   2.415 -0.7443  1.2564 -0.6105
 1710SOL     OW15168   0.226   0.776   2.129 -0.3746  0.3901  0.7309
 1710SOL    HW115169   0.157   0.828   2.179  0.2738  2.2557 -0.2823
 1710SOL    HW215170   0.311   0.774   2.182 -0.8241 -0.8676  1.4194
 1711SOL     OW15171   2.362   7.168   0.418 -0.2540  0.4436  0.0073
 1711SOL    HW115172   2.275   7.124   0.395  0.7911 -1.5471 -0.2918
 1711SOL    HW215173   2.402   7.209   0.336  1.3892 -2.8908 -0.9525
 1712SOL     OW15174   2.288   6.468   1.672 -0.1805  0.4862 -0.4905
 1712SOL    HW115175   2.260   6.372   1.676 -1.7442  1.0217  2.8125
 1712SOL    HW215176   2.226   6.518   1.612 -0.3860 -0.2332 -0.8876
 1713SOL     OW15177   1.411   4.756   1.480 -0.0953 -0.2301  0.5308
 1713SOL    HW115178   1.379   4.692   1.549  0.4920 -0.5846  0.4725
 1713SOL    HW215179   1.511   4.752   1.472 -0.0448  0.7123  0.5479
 1714SOL     OW15180   2.935   8.913   1.627  0.4422 -0.0751 -0.0606
 1714SOL    HW115181   2.993   8.875   1.556  0.4177  1.7022 -1.0649
 1714SOL    HW215182   2.985   8.917   1.714  1.4696  0.4453 -0.6742
 1715SOL     OW15183   9.055   3.416   0.210 -0.2152 -0.1343  0.1395
 1715SOL    HW115184   9.009   3.401   0.298  0.5232 -0.7969  0.4122
 1715SOL    HW215185   9.027   3.345   0.145  0.7540 -0.7878  0.4367
 1716SOL     OW15186   0.218   1.455   2.359 -0.0981 -0.1142 -0.4268
 1716SOL    HW115187   0.224   1.548   2.397 -0.6396 -0.2530  0.0094
 1716SOL    HW215188   0.162   1.398   2.419 -1.4276 -0.1917 -1.7115
 1717SOL     OW15189   9.475   5.663   1.155  0.3598  0.5913  0.1243
 1717SOL    HW115190   9.464   5.570   1.191  0.8509 -0.5000 -2.4308
 1717SOL    HW215191   9.389   5.713   1.168 -0.9786 -1.2599 -1.2800
 1718SOL     OW15192   3.031   0.071   1.589  0.5644  0.2894 -0.5578
 1718SOL    HW115193   3.034   0.102   1.494 -0.5334  0.1764 -0.6351
 1718SOL    HW215194   3.069   0.142   1.648  2.0464  0.0101 -1.1569
 1719SOL     OW15195   4.390   1.479   1.877 -0.6012  0.0138  1.1239
 1719SOL    HW115196   4.476   1.428   1.867 -0.9887 -0.2507 -1.0532
 1719SOL    HW215197   4.365   1.518   1.789 -1.4690  2.1353  2.2910
 1720SOL     OW15198   0.114   2.007   0.788  0.0354  0.2629  0.2571
 1720SOL    HW115199   0.069   2.015   0.699 -0.5375 -0.5033  0.4669
 1720SOL    HW215200   0.189   1.941   0.781 -0.8198 -0.7643  0.6433
 1721SOL     OW15201   2.387   8.064   0.634  0.3836  0.1213 -0.3191
 1721SOL    HW115202   2.437   8.091   0.553  1.5677  2.0036  1.0254
 1721SOL    HW215203   2.290   8.054   0.611  0.7260  0.4604 -1.9770
 1722SOL     OW15204   4.671   2.080   0.309  0.1461 -0.3097 -0.0263
 1722SOL    HW115205   4.592   2.022   0.292 -0.2519  0.1641  0.2152
 1722SOL    HW215206   4.651   2.174   0.280  0.0937  0.1298  1.3849
 1723SOL     OW15207   3.182   3.592   2.457 -0.7944 -0.1406  0.4897
 1723SOL    HW115208   3.236   3.541   2.523  0.8577  1.5825  0.5135
 1723SOL    HW215209   3.241   3.656   2.408 -2.7022  1.3864  0.1115
 1724SOL     OW15210   4.101   3.491   1.636  0.2468 -0.6710  0.2956
 1724SOL    HW115211   4.201   3.488   1.637  0.2879  0.4563 -0.1634
 1724SOL    HW215212   4.067   3.427   1.566  0.7562  1.2764 -1.7869
 1725SOL     OW15213   4.790   1.819   2.460  0.0716  0.1232  0.2822
 1725SOL    HW115214   4.811   1.827   2.557  1.0272  1.5151 -0.0305
 1725SOL    HW215215   4.733   1.738   2.445 -0.0522 -0.1224  1.9868
 1726SOL     OW15216   1.682   6.774   2.001 -0.5157  0.0601  0.3629
 1726SOL    HW115217   1.725   6.790   1.912 -0.5861 -0.7488  0.1812
 1726SOL    HW215218   1.640   6.859   2.033  2.7982  1.3863  1.4113
 1727SOL     OW15219   0.418   1.040   0.598 -0.7918  0.1838 -0.3034
 1727SOL    HW115220   0.322   1.013   0.582 -0.4097 -0.8698 -0.9002
 1727SOL    HW215221   0.452   0.993   0.679 -0.3378 -0.6205 -0.9458
 1728SOL     OW15222   9.554   3.777   0.959 -0.0006 -0.1736  0.2725
 1728SOL    HW115223   9.591   3.695   0.914 -0.8642 -1.7505  2.3684
 1728SOL    HW215224   9.530   3.844   0.889  1.2804 -1.4471 -1.4713
 1729SOL     OW15225   2.186   6.131   1.655 -0.0251 -0.2416 -0.6198
 1729SOL    HW115226   2.166   6.033   1.654 -1.8492  0.1056 -0.6830
 1729SOL    HW215227   2.251   6.152   1.582  2.1737 -1.7372  0.8487
 1730SOL     OW15228   9.555   0.709   0.883  0.2314  0.3740 -0.2249
 1730SOL    HW115229   9.510   0.620   0.890  0.0244  0.4377 -0.7401
 1730SOL    HW215230   9.623   0.707   0.810  0.0730  0.7036 -0.3866
 1731SOL     OW15231   0.708   9.304   1.363 -0.3091 -0.5978 -0.2139
 1731SOL    HW115232   0.675   9.242   1.435 -2.4965  2.6276  1.6996
 1731SOL    HW215233   0.805   9.324   1.378 -1.0185  0.9730  2.6446
 1732SOL     OW15234   3.000   2.788   2.480 -0.0132  0.2284 -0.4726
 1732SOL    HW115235   2.926   2.748   2.426  2.1104 -1.9133 -1.8660
 1732SOL    HW215236   3.045   2.716   2.534  0.3113  1.7021  1.2752
 1733SOL     OW15237   1.010   1.288   2.278  0.3530  0.3564  0.2544
 1733SOL    HW115238   0.969   1.318   2.365 -2.0488 -0.7434 -0.4397
 1733SOL    HW215239   0.997   1.359   2.209 -1.9817 -0.6343 -0.3989
 1734SOL     OW15240   2.832   2.979   1.678 -0.3682  0.3432 -0.4960
 1734SOL    HW115241   2.907   3.027   1.724  0.1304 -1.6862  0.8523
 1734SOL    HW215242   2.861   2.953   1.586  0.8513 -0.9907  0.2403
 1735SOL     OW15243   1.465   9.045   1.892  0.1561 -0.7706  0.1835
 1735SOL    HW115244   1.395   8.977   1.869 -0.4150 -0.7328  1.7969
 1735SOL    HW215245   1.425   9.115   1.950  1.7218 -1.1516  1.7577
 1736SOL     OW15246   1.171   5.528   1.387  0.1055 -0.0497 -0.5776
 1736SOL    HW115247   1.115   5.446   1.397 -1.4326  1.1471  1.0136
 1736SOL    HW215248   1.262   5.503   1.355 -0.9433 -2.1680 -1.9961
 1737SOL     OW15249   1.494   6.233   1.628 -0.9872 -0.2202 -0.0376
 1737SOL    HW115250   1.474   6.297   1.702 -1.5998 -0.1751 -0.2352
 1737SOL    HW215251   1.432   6.251   1.552 -0.3818 -0.2843 -0.5508
 1738SOL     OW15252   8.993   5.340   2.243 -0.0820 -0.5672  0.4628
 1738SOL    HW115253   8.933   5.277   2.194 -2.1153  1.4840  0.2144
 1738SOL    HW215254   9.015   5.417   2.183  3.7072 -1.7593  0.1809
 1739SOL     OW15255   0.618   9.940   2.188  0.3827  0.0289  0.0634
 1739SOL    HW115256   0.579   9.944   2.096 -0.7472 -0.0830  0.5260
 1739SOL    HW215257   0.549   9.969   2.254  0.4561 -1.9838  1.0593
 1740SOL     OW15258   1.754   7.985   2.044  0.4510  0.5697  0.4281
 1740SOL    HW115259   1.820   7.943   1.982 -0.0865  1.0715 -0.5042
 1740SOL    HW215260   1.671   8.009   1.993 -0.8113 -0.8610  1.7503
 1741SOL     OW15261   3.067   1.326   0.300  0.6317 -0.1141  0.5685
 1741SOL    HW115262   3.017   1.287   0.378  1.9818  1.7052  2.3772
 1741SOL    HW215263   3.051   1.269   0.219  0.7154 -3.0917  2.5802
 1742SOL     OW15264   3.140   7.670   0.321  0.1492  0.6373 -0.6939
 1742SOL    HW115265   3.051   7.700   0.356  0.1108 -0.0360 -0.2208
 1742SOL    HW215266   3.145   7.691   0.223  0.1971  2.3768 -0.3338
 1743SOL     OW15267   2.046   2.486   0.827 -0.0876 -0.8523  0.3576
 1743SOL    HW115268   2.129   2.434   0.807  1.3281  1.6118 -0.3485
 1743SOL    HW215269   1.996   2.503   0.742  0.3948  0.4716  0.3315
 1744SOL     OW15270   1.101   9.726   0.835  0.1095 -0.0306  0.1572
 1744SOL    HW115271   1.140   9.754   0.747  1.3090 -0.0816  0.6621
 1744SOL    HW215272   1.121   9.796   0.904  0.4642 -0.6932  0.7301
 1745SOL     OW15273   2.134   5.927   0.199  0.0130  0.5840  0.4633
 1745SOL    HW115274   2.230   5.909   0.181 -0.2698 -0.6683  0.1613
 1745SOL    HW215275   2.090   5.961   0.116  0.0921  0.7101  0.4734
 1746SOL     OW15276   2.639   6.748   1.698  0.4604 -0.6512 -0.2244
 1746SOL    HW115277   2.654   6.652   1.674 -2.5133 -1.3476  0.5850
 1746SOL    HW215278   2.652   6.760   1.796  1.9551  0.0334 -0.4909
 1747SOL     OW15279   3.881   4.047   0.391  0.2943  0.7967 -0.8129
 1747SOL    HW115280   3.792   4.040   0.436  0.6634 -1.1507 -0.3512
 1747SOL    HW215281   3.868   4.072   0.296 -0.7826  0.1720 -0.8380
 1748SOL     OW15282   1.887   5.714   1.246  0.2647 -0.0676  0.0920
 1748SOL    HW115283   1.901   5.705   1.147 -0.2820  0.9951 -0.0814
 1748SOL    HW215284   1.956   5.775   1.284 -0.6917  1.0626  0.0517
 1749SOL     OW15285   2.246   2.769   1.863 -0.0833 -0.5162  0.0788
 1749SOL    HW115286   2.284   2.679   1.844  1.6003  0.0786  0.5240
 1749SOL    HW215287   2.175   2.762   1.933  0.3044 -1.4328  0.3811
 1750SOL     OW15288   1.207   8.831   0.028  0.4695 -0.2387 -0.0418
 1750SOL    HW115289   1.129   8.877   0.070  1.0135  1.8311 -1.2519
 1750SOL    HW215290   1.175   8.768  -0.042 -0.2374 -1.0662  1.0182
 1751SOL     OW15291   3.154   7.553   2.446  0.3187 -0.3301  0.6452
 1751SOL    HW115292   3.125   7.460   2.469 -0.7264 -0.3405 -0.6347
 1751SOL    HW215293   3.110   7.581   2.361  1.8784  0.7437  0.1747
 1752SOL     OW15294   0.463   4.293   1.530  0.1863 -0.5619 -0.2011
 1752SOL    HW115295   0.381   4.342   1.498  0.3051 -0.0912  0.2024
 1752SOL    HW215296   0.464   4.201   1.491 -0.1637 -0.3249 -0.7846
 1753SOL     OW15297   0.985   4.932   2.422  0.2494 -0.4016 -0.0828
 1753SOL    HW115298   0.991   4.992   2.342  0.4599  0.6761  0.7474
 1753SOL    HW215299   0.891   4.929   2.455  0.5273  0.7013  0.8218
 1754SOL     OW15300   2.731   9.938   2.224 -0.1258  0.7417  0.2864
 1754SOL    HW115301   2.637   9.957   2.254 -0.0534  0.7893  0.4865
 1754SOL    HW215302   2.794   9.955   2.300  0.1957  2.1565 -0.2801
 1755SOL     OW15303   1.434   5.960   1.676 -0.4297  0.8078  0.1987
 1755SOL    HW115304   1.430   5.923   1.583  2.9620 -1.3896  0.8113
 1755SOL    HW215305   1.445   6.059   1.672 -2.4858  1.0113 -1.6463
 1756SOL     OW15306   2.015   1.639   1.649 -0.1139  0.1127 -0.3124
 1756SOL    HW115307   1.933   1.669   1.697  0.3000 -0.1680  0.5625
 1756SOL    HW215308   2.087   1.619   1.714  0.2127 -0.9871 -1.0017
 1757SOL     OW15309   0.478   9.757   0.364  0.0249  0.2046 -0.3221
 1757SOL    HW115310   0.524   9.787   0.448  2.5736  0.0499 -1.5955
 1757SOL    HW215311   0.454   9.838   0.310  2.9811  0.2172 -1.7411
 1758SOL     OW15312   2.460   4.267   0.064 -0.0798  0.3121  0.2513
 1758SOL    HW115313   2.370   4.254   0.105  0.5203  1.9692  2.1561
 1758SOL    HW215314   2.521   4.193   0.092 -0.2426  0.3598  0.7298
 1759SOL     OW15315   1.279   0.162   0.306  0.2309 -0.0718 -0.1340
 1759SOL    HW115316   1.370   0.165   0.348  0.2881 -2.1094 -0.0437
 1759SOL    HW215317   1.214   0.211   0.365  0.7210 -1.0995  1.3069
 1760SOL     OW15318   1.008   9.267   1.322 -0.4909  0.5637 -0.3669
 1760SOL    HW115319   1.021   9.174   1.288  1.0809  0.5639  0.2160
 1760SOL    HW215320   1.026   9.332   1.249 -0.1637  0.4577 -0.3820
 1761SOL     OW15321   3.072   1.581   1.358  0.3077 -0.0574 -0.2444
 1761SOL    HW115322   3.102   1.626   1.442 -0.4224 -1.0634  0.5698
 1761SOL    HW215323   2.986   1.533   1.375  0.5773 -0.9490 -1.3494
 1762SOL     OW15324   9.955   0.612   1.038  0.0849 -0.6024 -0.0647
 1762SOL    HW115325   9.882   0.651   1.095  0.6035  2.1138 -1.1572
 1762SOL    HW215326  10.044   0.642   1.074  0.4590  0.1632 -1.5784
 1763SOL     OW15327   0.756   7.779   2.095 -0.1950 -0.5366 -0.2099
 1763SOL    HW115328   0.683   7.735   2.041 -0.8304  0.8958 -0.5542
 1763SOL    HW215329   0.715   7.835   2.167  0.5289  0.8934 -0.8834
 1764SOL     OW15330   9.167   3.314   1.264  0.6305  0.5630  0.1979
 1764SOL    HW115331   9.131   3.248   1.198  1.5433  0.9060 -0.6596
 1764SOL    HW215332   9.175   3.403   1.220  0.4614  0.9845  1.0210
 1765SOL     OW15333   0.018   7.370   0.606  0.1574  0.4591 -0.3203
 1765SOL    HW115334  -0.071   7.379   0.561 -0.0880 -0.6524 -0.0811
 1765SOL    HW215335   0.064   7.459   0.608 -1.3650  1.2510  0.4284
 1766SOL     OW15336   2.615   2.255   1.762  0.2520 -0.1803 -0.0671
 1766SOL    HW115337   2.660   2.254   1.852  0.5712  0.3122 -0.2199
 1766SOL    HW215338   2.678   2.291   1.694 -0.7883  1.7797 -0.0556
 1767SOL     OW15339   3.052   1.657   2.188 -0.1791  0.6375 -0.6206
 1767SOL    HW115340   3.052   1.558   2.201 -1.5509  0.6588 -0.3855
 1767SOL    HW215341   2.958   1.692   2.193  0.2411  1.8912 -1.1559
 1768SOL     OW15342   2.104   9.317   0.498 -0.3521  0.4549 -0.3481
 1768SOL    HW115343   2.082   9.220   0.487  1.8680 -0.0715 -0.3808
 1768SOL    HW215344   2.200   9.332   0.476 -0.6584  2.6702 -0.2882
 1769SOL     OW15345   1.051   7.662   2.011  0.3757  0.6372 -0.2520
 1769SOL    HW115346   1.150   7.653   2.009  0.3533  0.2557  0.4770
 1769SOL    HW215347   1.027   7.758   2.030  0.5980  0.9529 -1.5228
 1770SOL     OW15348   0.730   6.676   1.221  0.0581  0.8201 -0.7451
 1770SOL    HW115349   0.790   6.714   1.150 -0.2547  1.5698 -0.6131
 1770SOL    HW215350   0.687   6.750   1.272  1.1986  0.2899  1.0246
 1771SOL     OW15351   0.243   0.862   1.877  0.3491 -0.2109 -0.1395
 1771SOL    HW115352   0.219   0.809   1.958 -0.8017  2.4750  1.3293
 1771SOL    HW215353   0.294   0.944   1.904 -1.5772  1.6446 -1.9055
 1772SOL     OW15354   2.803   9.873   0.069  0.0211 -0.5406  0.0853
 1772SOL    HW115355   2.721   9.923   0.041  1.7925  1.5354 -1.5933
 1772SOL    HW215356   2.796   9.849   0.166 -3.4692 -2.2866 -0.5173
 1773SOL     OW15357   3.070   4.878   1.748  0.4178  0.5155  0.4469
 1773SOL    HW115358   3.024   4.789   1.749  0.9324  0.2340 -0.3974
 1773SOL    HW215359   3.161   4.869   1.788  1.5437  0.0510 -2.1294
 1774SOL     OW15360   1.866   6.470   0.430  0.2599  0.1467 -0.0068
 1774SOL    HW115361   1.850   6.475   0.331  0.8004 -2.5761 -0.2717
 1774SOL    HW215362   1.961   6.444   0.446  0.3048  1.0745  1.2568
 1775SOL     OW15363   1.449   8.031   1.865  0.1455  0.2851 -0.1525
 1775SOL    HW115364   1.354   8.034   1.896 -0.1274 -0.0137 -0.9409
 1775SOL    HW215365   1.494   8.118   1.885  0.4614 -0.4759  2.5839
 1776SOL     OW15366   3.307   3.659   2.222  0.5894 -0.4608  0.3865
 1776SOL    HW115367   3.276   3.566   2.202  0.3444 -0.2766 -0.0871
 1776SOL    HW215368   3.261   3.724   2.161  3.3341 -0.3666 -1.6958
 1777SOL     OW15369   4.720   3.276   1.926  0.4856  0.1926  0.7195
 1777SOL    HW115370   4.699   3.348   1.992  0.0215 -0.0747  0.8630
 1777SOL    HW215371   4.638   3.222   1.907  0.1653  1.3385 -1.3803
 1778SOL     OW15372   9.695   4.121   0.696 -0.6624 -0.4022 -0.7054
 1778SOL    HW115373   9.691   4.214   0.733  1.3284 -0.5002 -0.1860
 1778SOL    HW215374   9.696   4.124   0.596 -2.0742  0.0382 -0.7260
 1779SOL     OW15375   3.120   4.185   0.947  0.0669 -0.0892 -0.4573
 1779SOL    HW115376   3.181   4.173   1.025 -1.9909  1.6512  1.4877
 1779SOL    HW215377   3.156   4.257   0.887  0.1261  0.6863  0.4979
 1780SOL     OW15378   1.094   4.160   0.905  0.1153 -0.3048 -0.1540
 1780SOL    HW115379   1.011   4.207   0.936 -1.0413 -1.7119 -1.0851
 1780SOL    HW215380   1.103   4.073   0.952 -0.7186 -1.6576 -2.3748
 1781SOL     OW15381   1.659   7.151   1.837 -0.2647 -0.3152 -0.5006
 1781SOL    HW115382   1.594   7.200   1.779  0.8507  1.1742 -0.4992
 1781SOL    HW215383   1.676   7.060   1.798 -2.6759 -0.9041 -0.2558
 1782SOL     OW15384   3.709   8.466   0.513 -0.2788  0.3080 -0.1512
 1782SOL    HW115385   3.761   8.534   0.565  1.4190 -0.8302 -0.3184
 1782SOL    HW215386   3.611   8.489   0.517 -0.0689  0.8988  2.5584
 1783SOL     OW15387   1.651   0.639   2.574  0.0349  0.2894  0.0190
 1783SOL    HW115388   1.588   0.694   2.519  0.2861 -0.2532 -0.8301
 1783SOL    HW215389   1.714   0.590   2.513  1.2623  0.8020  0.8530
 1784SOL     OW15390   1.401   3.377   0.308  0.3958  0.3484 -0.6712
 1784SOL    HW115391   1.467   3.310   0.274 -0.1635 -1.1128  1.0407
 1784SOL    HW215392   1.350   3.415   0.231  0.2481 -1.7054 -1.6342
 1785SOL     OW15393   1.556   2.646   0.287 -0.0017  0.0341 -0.1392
 1785SOL    HW115394   1.547   2.661   0.385  0.9941  0.3703 -0.0949
 1785SOL    HW215395   1.624   2.708   0.250 -0.6690  0.1960 -1.1195
 1786SOL     OW15396   1.513   3.319   2.019 -0.8263  0.4444  0.0817
 1786SOL    HW115397   1.421   3.301   1.985 -1.2364  0.4433  1.1503
 1786SOL    HW215398   1.557   3.388   1.961 -1.2462 -0.0477 -0.8288
 1787SOL     OW15399   8.833   4.839   0.122 -0.4779 -0.2834 -0.0704
 1787SOL    HW115400   8.923   4.815   0.083 -0.0053  2.2420 -0.6246
 1787SOL    HW215401   8.763   4.782   0.079  0.4906 -0.1439 -1.9218
 1788SOL     OW15402   3.100   3.873   1.003 -0.4489  0.2300  0.3427
 1788SOL    HW115403   3.075   3.884   1.099 -0.9966  2.0538 -0.0088
 1788SOL    HW215404   3.031   3.915   0.945  0.8687  0.8553 -0.7927
 1789SOL     OW15405   9.249   3.362   0.431 -0.1887 -0.2512  0.0337
 1789SOL    HW115406   9.222   3.454   0.457  1.6217 -0.0129  1.1965
 1789SOL    HW215407   9.249   3.303   0.513 -0.6705 -1.1115 -0.5750
 1790SOL     OW15408   0.902   3.739   1.073  0.0814 -0.4761  0.3518
 1790SOL    HW115409   0.972   3.810   1.068 -0.6549  0.2981  0.9207
 1790SOL    HW215410   0.813   3.781   1.087 -0.6058 -1.4210 -1.1398
 1791SOL     OW15411   2.664   4.419   1.550  0.6853  0.4345 -0.0001
 1791SOL    HW115412   2.724   4.433   1.470 -0.5339  0.7263 -0.8726
 1791SOL    HW215413   2.569   4.415   1.520  0.3040 -0.6911  1.3066
 1792SOL     OW15414   0.591   2.244   0.280 -0.4484 -0.2870 -0.4039
 1792SOL    HW115415   0.599   2.195   0.367  0.5837 -2.4299 -1.6679
 1792SOL    HW215416   0.680   2.282   0.254 -1.2717  2.4182  0.6278
 1793SOL     OW15417   9.844   3.834   1.725  0.5196  0.0540 -0.2210
 1793SOL    HW115418   9.804   3.875   1.643  0.5209  0.2834 -0.1053
 1793SOL    HW215419   9.882   3.745   1.701  0.2095 -0.0352 -0.3981
 1794SOL     OW15420   9.965   5.747   2.311  0.3031 -0.2049  0.4482
 1794SOL    HW115421   9.992   5.786   2.399 -0.7605  1.2507  0.1381
 1794SOL    HW215422   9.868   5.762   2.295  0.8748  1.3175 -1.8669
 1795SOL     OW15423   0.007   1.448   1.398  0.1531  0.2902 -0.6753
 1795SOL    HW115424   0.030   1.356   1.366  0.2978 -0.3590  1.2548
 1795SOL    HW215425  -0.037   1.442   1.487 -0.8744  2.0277 -1.0503
 1796SOL     OW15426   4.274   1.964   2.003 -0.1331 -0.1259  0.3073
 1796SOL    HW115427   4.330   2.008   1.933 -0.0158 -0.7269  0.0219
 1796SOL    HW215428   4.189   2.016   2.015 -0.2730 -0.1647 -0.4671
 1797SOL     OW15429   1.649   3.829   0.487  0.1935  0.2188 -0.8337
 1797SOL    HW115430   1.594   3.745   0.489  1.4309 -0.5812  1.8686
 1797SOL    HW215431   1.589   3.908   0.499 -0.6931 -0.4437 -0.8366
 1798SOL     OW15432   1.476   0.114   2.048 -0.3534  0.0141 -0.0398
 1798SOL    HW115433   1.536   0.124   1.968 -0.6089  2.7282  0.0619
 1798SOL    HW215434   1.437   0.022   2.049  1.2939 -0.7380 -1.8811
 1799SOL     OW15435   2.776   2.631   2.416 -0.0207 -0.2774 -0.2780
 1799SOL    HW115436   2.804   2.538   2.393 -2.7962 -0.6130 -2.5326
 1799SOL    HW215437   2.699   2.628   2.480 -1.8855  0.3860 -2.4538
 1800SOL     OW15438   2.509   3.959   1.745  0.0741 -0.0484 -0.3982
 1800SOL    HW115439   2.472   3.982   1.835  0.9632 -0.3562  0.0438
 1800SOL    HW215440   2.555   3.870   1.750 -1.7467 -1.1128 -1.6549
 1801SOL     OW15441   1.575   8.290   0.001  0.0415  0.4606  0.4010
 1801SOL    HW115442   1.590   8.214   0.065  0.2053 -0.2042 -0.4199
 1801SOL    HW215443   1.541   8.369   0.051  0.4832  0.0469  1.3665
 1802SOL     OW15444   1.700   6.028   0.627  0.0835 -0.5026 -0.1290
 1802SOL    HW115445   1.650   5.946   0.655 -0.8518  0.4397  1.0285
 1802SOL    HW215446   1.677   6.050   0.532 -1.2567 -0.4248  0.2019
 1803SOL     OW15447   3.156   4.000   2.413  0.0884 -0.4984  0.1721
 1803SOL    HW115448   3.173   4.064   2.338  1.2907 -0.7918  0.1940
 1803SOL    HW215449   3.082   3.938   2.387  0.2780 -0.3850 -0.6462
 1804SOL     OW15450   3.011   4.011   1.623 -0.1663  0.6452  0.7154
 1804SOL    HW115451   3.010   3.922   1.578 -1.7591  0.5375  0.9409
 1804SOL    HW215452   2.918   4.048   1.628  0.4076  2.1116  1.0457
 1805SOL     OW15453   1.532   4.868   0.002  0.3526  0.9164  0.0197
 1805SOL    HW115454   1.517   4.900   0.096 -2.4550 -2.8355  0.9485
 1805SOL    HW215455   1.446   4.875  -0.050  1.1823  0.3777 -1.4560
 1806SOL     OW15456   1.411   2.189   2.452 -0.1265  0.4770 -0.2297
 1806SOL    HW115457   1.389   2.276   2.496  1.3092 -0.1372  1.7864
 1806SOL    HW215458   1.495   2.198   2.400  0.1052  0.2616  0.1043
 1807SOL     OW15459   2.705   4.444   0.321 -0.0189 -0.4997 -0.0429
 1807SOL    HW115460   2.752   4.526   0.352  1.1883  0.1165 -3.2686
 1807SOL    HW215461   2.616   4.470   0.281 -0.1591 -0.8940  0.0072
 1808SOL     OW15462   0.810   4.751   1.054  0.3238  0.3598 -0.5592
 1808SOL    HW115463   0.900   4.787   1.081  0.8329 -1.0216 -0.3671
 1808SOL    HW215464   0.767   4.706   1.132 -0.0531  0.0597 -0.9385
 1809SOL     OW15465   9.917   1.981   0.995 -0.3891 -0.5838  0.9700
 1809SOL    HW115466   9.983   1.981   0.920 -1.2658  0.6164  0.1705
 1809SOL    HW215467   9.861   1.898   0.989  2.1692 -2.5220  2.7287
 1810SOL     OW15468   2.777   0.657   2.382 -0.0378 -0.2873  0.1599
 1810SOL    HW115469   2.754   0.567   2.421 -0.2465  0.0283  0.7746
 1810SOL    HW215470   2.876   0.664   2.373 -0.1153 -1.4253 -1.9517
 1811SOL     OW15471   0.275   7.810   1.092  0.0366  0.3512 -0.4339
 1811SOL    HW115472   0.307   7.816   1.187  0.9041  2.1205 -0.8032
 1811SOL    HW215473   0.184   7.851   1.085  0.0162  0.3139 -0.3818
 1812SOL     OW15474   4.190   4.644   1.182  0.0466 -0.3129 -0.3718
 1812SOL    HW115475   4.159   4.722   1.235 -0.8335 -0.2322 -0.9961
 1812SOL    HW215476   4.257   4.675   1.114 -0.1250 -0.1423 -0.4629
 1813SOL     OW15477   3.281   1.602   1.563  0.0618 -0.1193 -0.3180
 1813SOL    HW115478   3.318   1.565   1.478  1.6865 -1.4984  0.9586
 1813SOL    HW215479   3.339   1.678   1.594 -0.2005  0.0126 -0.1509
 1814SOL     OW15480   1.768   0.078   2.561 -0.0879 -0.2255 -0.0166
 1814SOL    HW115481   1.838   0.028   2.612  0.6986  0.4461 -0.4399
 1814SOL    HW215482   1.805   0.107   2.473 -1.2816 -0.9386 -0.7789
 1815SOL     OW15483   9.997   2.113   1.770  0.1419  0.5703 -0.2409
 1815SOL    HW115484   9.977   2.209   1.793 -1.1950  0.2504  0.0247
 1815SOL    HW215485   9.948   2.089   1.686 -1.0377 -0.3968  0.7075
 1816SOL     OW15486   8.772   2.055   0.553  0.2129  0.8037  0.1228
 1816SOL    HW115487   8.821   2.000   0.621 -0.5702 -0.6788 -0.4964
 1816SOL    HW215488   8.693   2.098   0.596  0.7654  1.3595  0.5856
 1817SOL     OW15489   0.452   8.709   1.990  0.0280 -0.3362  0.0705
 1817SOL    HW115490   0.405   8.681   1.907  1.8486 -1.5138 -0.5993
 1817SOL    HW215491   0.422   8.652   2.067 -0.3813 -0.4024 -0.1397
 1818SOL     OW15492   2.605   2.227   2.216  0.7502 -0.1604 -0.4513
 1818SOL    HW115493   2.612   2.273   2.305  2.0542  0.5333 -0.8986
 1818SOL    HW215494   2.522   2.256   2.170 -0.7874 -1.7564  1.2290
 1819SOL     OW15495   8.663   5.688   0.920  0.0141 -0.6624 -0.3849
 1819SOL    HW115496   8.759   5.667   0.936  0.1303  0.7353  0.8663
 1819SOL    HW215497   8.652   5.786   0.903 -1.4328 -0.3927  1.7782
 1820SOL     OW15498   2.647   8.143   2.277  0.2689 -0.2647  0.0082
 1820SOL    HW115499   2.706   8.195   2.339  0.1167 -0.0225 -0.0504
 1820SOL    HW215500   2.596   8.074   2.329  0.6097 -0.4787  0.0574
 1821SOL     OW15501   1.767   9.217   0.404 -0.1856  0.6679  0.1467
 1821SOL    HW115502   1.812   9.255   0.323  0.2979  1.7020  0.8931
 1821SOL    HW215503   1.686   9.271   0.425 -0.6247  0.0601  0.0365
 1822SOL     OW15504   8.709   4.249   2.515  0.2275  0.4260  0.7469
 1822SOL    HW115505   8.691   4.268   2.612  0.6694 -0.6304  1.0425
 1822SOL    HW215506   8.666   4.320   2.459  0.0677  1.1117  1.7203
 1823SOL     OW15507   1.608   1.838   0.375  0.8237 -0.2776  0.3576
 1823SOL    HW115508   1.509   1.824   0.379  0.8901 -0.5462  1.0194
 1823SOL    HW215509   1.653   1.753   0.348  0.9975 -0.5846  1.5915
 1824SOL     OW15510   2.839   9.548   1.350 -0.4856 -0.2459 -0.3704
 1824SOL    HW115511   2.828   9.449   1.349 -0.3699 -0.2888  1.1361
 1824SOL    HW215512   2.845   9.580   1.445 -1.9515  1.3451 -0.7748
 1825SOL     OW15513   4.439   3.042   1.616 -0.2808 -0.2573  0.0357
 1825SOL    HW115514   4.350   2.998   1.626  0.1595 -1.4145 -1.0555
 1825SOL    HW215515   4.509   2.973   1.598  0.5083  0.8355 -1.1925
 1826SOL     OW15516   0.578   7.079   0.740  0.2670 -0.1854  0.2147
 1826SOL    HW115517   0.666   7.117   0.713 -0.6947  1.0074 -1.3076
 1826SOL    HW215518   0.539   7.027   0.664 -0.1526 -1.0941  1.0307
 1827SOL     OW15519   9.691   0.682   0.629 -0.2400  0.0855  0.3601
 1827SOL    HW115520   9.753   0.635   0.567 -0.7823 -2.0279  1.3981
 1827SOL    HW215521   9.625   0.735   0.576 -0.8829 -1.9240 -0.8983
 1828SOL     OW15522   3.463   3.324   1.676  0.4343  0.2140 -0.1727
 1828SOL    HW115523   3.455   3.259   1.600 -2.1933 -0.0911  0.3038
 1828SOL    HW215524   3.410   3.406   1.655  0.6566  0.6137  0.8210
 1829SOL     OW15525   1.905   6.474   0.824 -0.0779  0.1271  0.5153
 1829SOL    HW115526   1.829   6.452   0.885 -0.9293  1.0432 -0.2035
 1829SOL    HW215527   1.872   6.481   0.730  1.1139 -0.6441  0.0267
 1830SOL     OW15528   0.805   1.839   0.361 -0.4279  0.6477  0.1160
 1830SOL    HW115529   0.810   1.875   0.454 -0.7578 -0.1763  0.4584
 1830SOL    HW215530   0.836   1.743   0.360  2.2759  1.4840 -1.1011
 1831SOL     OW15531   2.535   7.519   2.491  0.5354  0.2842 -0.1930
 1831SOL    HW115532   2.506   7.514   2.586 -0.9931  1.3025 -0.5991
 1831SOL    HW215533   2.576   7.432   2.464 -0.8635 -0.6990  0.8040
 1832SOL     OW15534   3.090   0.830   0.502  0.3392  0.2373 -0.3824
 1832SOL    HW115535   3.117   0.783   0.586  0.9758 -0.9160 -1.2209
 1832SOL    HW215536   2.999   0.869   0.513  0.3079 -0.1401  0.7478
 1833SOL     OW15537   1.244   2.022   1.190 -0.1955 -0.0420 -0.1426
 1833SOL    HW115538   1.238   2.011   1.091  1.0333  0.8940 -0.3358
 1833SOL    HW215539   1.170   1.972   1.234 -2.4224  1.8241 -1.6758
 1834SOL     OW15540   2.519   3.418   1.156 -0.6548 -0.1395 -0.2946
 1834SOL    HW115541   2.463   3.402   1.237 -2.1922  0.7355 -1.1394
 1834SOL    HW215542   2.483   3.498   1.107 -0.2521 -1.1375 -2.2555
 1835SOL     OW15543   2.891   2.009   1.570 -0.2263 -0.0358 -0.0816
 1835SOL    HW115544   2.867   2.035   1.664  2.0486  1.3682  0.1400
 1835SOL    HW215545   2.844   2.070   1.506 -0.6345 -0.0583  0.1941
 1836SOL     OW15546   1.389   7.177   2.332 -0.1867  0.1985  0.1227
 1836SOL    HW115547   1.456   7.201   2.403  0.3412 -0.2441 -0.2232
 1836SOL    HW215548   1.357   7.260   2.287 -0.9487  0.5318  1.2604
 1837SOL     OW15549   9.292   5.400   2.440  0.1403 -0.5304  0.0722
 1837SOL    HW115550   9.205   5.433   2.403  0.3338 -0.5059 -0.3576
 1837SOL    HW215551   9.277   5.361   2.531 -0.3426 -0.6679 -0.0691
 1838SOL     OW15552   3.569   4.205   1.203  0.1755  0.5161 -0.9211
 1838SOL    HW115553   3.620   4.254   1.133  1.0892 -0.5782 -1.0368
 1838SOL    HW215554   3.629   4.187   1.281  0.2699 -1.5974 -1.4340
 1839SOL     OW15555   9.038   3.910   0.721  0.0230 -0.2692 -0.3192
 1839SOL    HW115556   8.994   3.996   0.747 -0.1737 -1.2813  2.8566
 1839SOL    HW215557   8.971   3.850   0.677 -0.2888  0.4407 -0.8268
 1840SOL     OW15558   3.360   1.721   0.804 -0.0254 -0.1398 -0.0532
 1840SOL    HW115559   3.452   1.708   0.766  0.8196 -0.0910  1.8722
 1840SOL    HW215560   3.320   1.805   0.768  0.9583  0.1771 -0.4315
 1841SOL     OW15561   0.559   5.991   0.184  0.3127  0.6497 -0.7137
 1841SOL    HW115562   0.545   5.994   0.283 -0.5500 -0.1228 -0.8090
 1841SOL    HW215563   0.547   5.898   0.151 -0.1057  1.0288 -1.6440
 1842SOL     OW15564   0.428   2.018   0.629  0.4278  0.4228  0.0017
 1842SOL    HW115565   0.413   1.950   0.701 -1.9724  0.7488 -0.1376
 1842SOL    HW215566   0.406   1.978   0.540  0.4771  0.9233 -0.2401
 1843SOL     OW15567   9.552   6.149   1.386  0.4626 -0.1412  0.9971
 1843SOL    HW115568   9.627   6.182   1.443 -0.6686  1.8870  1.3467
 1843SOL    HW215569   9.496   6.084   1.437  0.7320 -0.0069  1.4614
 1844SOL     OW15570   2.567   1.567   0.690 -0.3896  0.2662  0.3501
 1844SOL    HW115571   2.599   1.660   0.673  0.5174  0.1414  1.2880
 1844SOL    HW215572   2.559   1.518   0.604  1.1195  0.5888  0.0066
 1845SOL     OW15573   2.896   1.374   1.546  0.2118 -0.6246 -0.0661
 1845SOL    HW115574   2.881   1.281   1.512  2.1018 -0.5636 -1.1830
 1845SOL    HW215575   2.984   1.377   1.595  0.4984  0.7216 -0.6451
 1846SOL     OW15576   3.871   2.024   0.788  0.3394 -0.2463 -0.0350
 1846SOL    HW115577   3.887   1.980   0.877  2.1386 -0.2989 -0.3654
 1846SOL    HW215578   3.820   2.108   0.801  0.0256 -0.5908  0.9918
 1847SOL     OW15579   0.988   8.654   0.680 -0.2000 -0.2470  0.1157
 1847SOL    HW115580   0.955   8.637   0.773 -1.0159 -2.8798 -0.6329
 1847SOL    HW215581   0.959   8.746   0.651 -1.2668 -0.0135  1.8627
 1848SOL     OW15582   1.649   8.904   0.249  0.7156 -0.4218 -0.6914
 1848SOL    HW115583   1.622   9.000   0.238 -0.7567 -0.7874 -0.4377
 1848SOL    HW215584   1.686   8.890   0.340  1.9508  0.1281 -1.1005
 1849SOL     OW15585   1.273   7.412   2.230  0.1343  0.2804  0.8955
 1849SOL    HW115586   1.312   7.490   2.180 -0.4052 -0.5941 -0.9636
 1849SOL    HW215587   1.194   7.442   2.283  0.2065  1.0946  0.5513
 1850SOL     OW15588   9.831   2.444   2.169 -0.2517 -0.0292  0.0704
 1850SOL    HW115589   9.862   2.519   2.227  0.8663 -1.5259  1.4655
 1850SOL    HW215590   9.878   2.448   2.081  0.4634  0.3847  0.4670
 1851SOL     OW15591   9.613   6.315   0.646  0.0234  0.0350  0.1218
 1851SOL    HW115592   9.527   6.286   0.688  0.0219  0.5071  0.4548
 1851SOL    HW215593   9.601   6.406   0.605  1.1029  1.3361  2.5756
 1852SOL     OW15594   0.582   9.090   2.126 -0.0462  0.1624 -0.1710
 1852SOL    HW115595   0.590   9.027   2.050  1.1148  2.0298 -1.6428
 1852SOL    HW215596   0.644   9.061   2.200  1.0059 -0.0261 -1.1126
 1853SOL     OW15597   1.532   8.641   2.236  0.9458  0.9732 -0.0498
 1853SOL    HW115598   1.523   8.545   2.263 -0.1916  0.6545 -1.4809
 1853SOL    HW215599   1.556   8.696   2.316 -0.3020 -0.2346  1.1907
 1854SOL     OW15600   1.485   2.831   1.010 -0.0525  0.1726 -0.4098
 1854SOL    HW115601   1.474   2.762   0.939 -0.5134  1.4449 -1.6114
 1854SOL    HW215602   1.535   2.910   0.972 -0.3581  0.8859  0.6542
 1855SOL     OW15603   4.930   3.013   0.008  0.3313  0.2493  0.1832
 1855SOL    HW115604   5.007   3.071  -0.018  0.1528  1.0722  1.4994
 1855SOL    HW215605   4.875   2.993  -0.074  0.3906  1.9230 -0.2845
 1856SOL     OW15606   0.302   0.957   2.414  0.4131  0.5918 -0.4456
 1856SOL    HW115607   0.397   0.943   2.384  0.0718 -1.1428 -0.7766
 1856SOL    HW215608   0.247   0.988   2.336  0.6845  1.4927 -0.2800
 1857SOL     OW15609   2.053   6.683   2.207  0.1874  0.2760 -0.3497
 1857SOL    HW115610   2.119   6.749   2.243  1.7525 -0.8378 -1.1180
 1857SOL    HW215611   2.010   6.722   2.125  0.9637  0.4301 -0.6942
 1858SOL     OW15612   0.209   0.180   2.461 -0.0171 -0.1294  0.6086
 1858SOL    HW115613   0.268   0.246   2.507  0.6058  0.2580 -0.7259
 1858SOL    HW215614   0.115   0.213   2.461 -0.2744 -0.7451  2.7428
 1859SOL     OW15615   0.909   7.969   0.058  0.2050  1.2228  0.0180
 1859SOL    HW115616   0.898   7.879   0.100 -1.3909  0.8619 -1.0955
 1859SOL    HW215617   0.998   7.974   0.013 -0.5508 -0.6664 -1.8226
 1860SOL     OW15618   3.373   1.404   1.095  0.0197 -0.2763  0.4094
 1860SOL    HW115619   3.274   1.392   1.109 -0.2964 -0.9177 -2.2210
 1860SOL    HW215620   3.390   1.496   1.060  0.2429 -0.5797 -0.2696
 1861SOL     OW15621   3.714   8.234   1.462 -0.1469  0.1359  0.3687
 1861SOL    HW115622   3.691   8.137   1.461 -0.9346  0.3108  1.0700
 1861SOL    HW215623   3.746   8.262   1.371  1.2664 -1.0454  0.4802
 1862SOL     OW15624   0.507   9.690   0.802 -0.2973 -0.2972  0.8550
 1862SOL    HW115625   0.561   9.639   0.734  0.4130 -1.2019  2.0781
 1862SOL    HW215626   0.539   9.785   0.804  0.5204 -0.5631  0.7866
 1863SOL     OW15627   3.910   0.794   2.361  0.3455 -0.1420 -0.2107
 1863SOL    HW115628   3.839   0.831   2.302  0.8020 -0.2103 -0.8111
 1863SOL    HW215629   3.989   0.856   2.360  0.7421 -0.6452 -0.4676
 1864SOL     OW15630   2.334   3.811   1.465 -0.0905 -1.0628 -0.1005
 1864SOL    HW115631   2.310   3.899   1.507  1.1227 -0.9251  0.3174
 1864SOL    HW215632   2.255   3.777   1.413 -1.3707 -0.8743  1.6665
 1865SOL     OW15633   0.684   6.905   1.381  0.7140  0.8129 -0.1421
 1865SOL    HW115634   0.765   6.930   1.328  1.6200 -1.8446 -0.1213
 1865SOL    HW215635   0.712   6.861   1.466 -0.7581  0.9812  0.4440
 1866SOL     OW15636   9.963   4.216   1.176 -0.1619  0.2043  0.1342
 1866SOL    HW115637   9.955   4.164   1.091  2.2398  0.1928 -0.1195
 1866SOL    HW215638  10.055   4.255   1.183 -1.0653  2.1638  1.6202
 1867SOL     OW15639   9.556   2.846   2.286  0.6163 -0.6382  0.3935
 1867SOL    HW115640   9.504   2.877   2.366 -0.9598 -1.4387 -0.2994
 1867SOL    HW215641   9.550   2.747   2.280 -0.2768 -0.4895 -1.3836
 1868SOL     OW15642   1.787   3.083   1.451 -0.5264 -0.3112 -0.2051
 1868SOL    HW115643   1.879   3.044   1.457 -0.2378  0.3158 -0.5035
 1868SOL    HW215644   1.765   3.129   1.538 -1.0105 -1.4453  0.2782
 1869SOL     OW15645   4.006   3.115   2.313  0.3446  0.0252  0.3850
 1869SOL    HW115646   4.061   3.073   2.386 -0.0861 -1.7914 -0.3034
 1869SOL    HW215647   3.923   3.153   2.353 -0.9248 -2.8365  0.6365
 1870SOL     OW15648   2.417   6.486   2.196 -0.4032  0.4314  0.5231
 1870SOL    HW115649   2.360   6.432   2.257 -1.7283  2.0656  0.7880
 1870SOL    HW215650   2.363   6.512   2.115  0.6515  0.1613 -0.2793
 1871SOL     OW15651   1.961   2.333   1.429  0.0009  0.3986  0.3380
 1871SOL    HW115652   1.952   2.271   1.351 -0.9080  0.5057  0.3461
 1871SOL    HW215653   2.050   2.321   1.472  0.6576  0.6013 -0.9476
 1872SOL     OW15654   4.477   2.854   1.082 -0.5193  0.3570  0.8543
 1872SOL    HW115655   4.418   2.798   1.141 -2.0222 -0.4218 -1.3382
 1872SOL    HW215656   4.429   2.938   1.057  0.0758  0.6326  0.6280
 1873SOL     OW15657   1.688   9.752   1.997  0.0146  0.4727 -0.6975
 1873SOL    HW115658   1.683   9.765   1.898  2.1605 -0.4803 -0.9526
 1873SOL    HW215659   1.744   9.672   2.018 -0.0127  0.9471  1.3122
 1874SOL     OW15660   1.368   8.682   1.533  0.3912 -0.6924 -0.2803
 1874SOL    HW115661   1.341   8.586   1.528  0.0356 -0.6880  1.2961
 1874SOL    HW215662   1.410   8.709   1.446 -2.8586 -1.2461 -2.1127
 1875SOL     OW15663   9.725   5.284   0.110 -0.2508 -0.0587  0.4010
 1875SOL    HW115664   9.818   5.318   0.126 -0.4556  0.7335 -0.0466
 1875SOL    HW215665   9.708   5.205   0.169  0.7913 -0.3712  0.3000
 1876SOL     OW15666   8.717   2.354   1.507  0.2273  0.6368  0.0212
 1876SOL    HW115667   8.791   2.339   1.573  0.7004  0.7257 -0.4849
 1876SOL    HW215668   8.684   2.447   1.515  0.6938  0.8331 -0.2711
 1877SOL     OW15669   9.927   9.516   1.138  0.1339  0.5289 -0.1564
 1877SOL    HW115670   9.850   9.502   1.077 -0.0296  0.6680  0.0131
 1877SOL    HW215671   9.931   9.442   1.205  0.0390  0.6112 -0.0569
 1878SOL     OW15672   2.750   0.399   1.980 -0.7331  0.7086  0.5486
 1878SOL    HW115673   2.763   0.496   1.999 -1.7244  0.8677  0.4627
 1878SOL    HW215674   2.696   0.388   1.896  1.4940  0.0449 -0.8557
 1879SOL     OW15675   3.455   2.976   0.688  0.0965 -0.1848  0.1769
 1879SOL    HW115676   3.519   3.051   0.674 -0.6741  0.1636 -1.4975
 1879SOL    HW215677   3.383   3.005   0.751 -1.4278  1.2365 -2.1645
 1880SOL     OW15678   3.735   0.097   0.722  0.2783 -0.0796  0.3944
 1880SOL    HW115679   3.729   0.177   0.663  1.4725 -1.1371 -1.1929
 1880SOL    HW215680   3.817   0.045   0.699 -0.3998 -1.6772  1.5249
 1881SOL     OW15681   1.283   3.203   0.525  0.0638  0.3932 -0.0228
 1881SOL    HW115682   1.322   3.119   0.489 -1.7036 -0.3709 -0.2017
 1881SOL    HW215683   1.286   3.275   0.455  1.0936  0.3216 -0.0466
 1882SOL     OW15684   3.121   9.216   1.820 -0.0908 -0.1894  0.2054
 1882SOL    HW115685   3.119   9.251   1.726  0.0824 -0.0936  0.2367
 1882SOL    HW215686   3.176   9.277   1.877 -1.9874  0.9596  0.8515
 1883SOL     OW15687   8.742   4.527   0.092 -0.4644 -0.4651 -0.0120
 1883SOL    HW115688   8.731   4.459   0.164  0.8161 -0.1745  0.4681
 1883SOL    HW215689   8.837   4.528   0.062 -0.2602  1.8348  0.6894
 1884SOL     OW15690   9.905   9.530   0.781  0.0561  0.2353  0.2407
 1884SOL    HW115691   9.915   9.481   0.695  0.3679 -0.3558  0.6151
 1884SOL    HW215692   9.978   9.504   0.844 -0.6219  0.0759  0.9704
 1885SOL     OW15693   8.981   1.425   2.479  0.4896  0.1610  0.3303
 1885SOL    HW115694   8.945   1.519   2.481  0.5418  0.2196 -0.7427
 1885SOL    HW215695   8.971   1.388   2.386  0.5626 -0.8620  0.7243
 1886SOL     OW15696   3.812   4.878   1.163 -0.5632 -0.1304 -0.0514
 1886SOL    HW115697   3.818   4.948   1.234  1.4929  1.4301 -1.7032
 1886SOL    HW215698   3.846   4.791   1.199  1.5063  0.9085  0.6006
 1887SOL     OW15699   3.224   4.511   1.038  0.4990  0.3824  0.1937
 1887SOL    HW115700   3.244   4.465   1.125 -0.0242 -0.8090 -0.2933
 1887SOL    HW215701   3.231   4.610   1.050 -0.5577  0.2843  1.8655
 1888SOL     OW15702   0.123   3.435   1.734  0.3591  0.4186  0.2795
 1888SOL    HW115703   0.114   3.500   1.809  2.7499 -0.4872  1.4104
 1888SOL    HW215704   0.070   3.353   1.755  0.6846  0.3358  0.7926
 1889SOL     OW15705   2.531   0.388   1.512 -0.0933  0.2479 -0.6056
 1889SOL    HW115706   2.489   0.304   1.477 -0.3703 -0.7156  1.9252
 1889SOL    HW215707   2.630   0.379   1.510 -0.1350 -0.8968  1.3382
 1890SOL     OW15708   0.722   0.483   1.105 -0.1218 -0.0841  0.0648
 1890SOL    HW115709   0.715   0.497   1.006  1.5369 -3.7420 -0.6497
 1890SOL    HW215710   0.814   0.511   1.136 -0.3051  0.1427  0.4073
 1891SOL     OW15711   3.182   0.087   2.514  0.3556 -0.1631  0.4004
 1891SOL    HW115712   3.129   0.140   2.579 -1.1749 -0.4727 -0.5823
 1891SOL    HW215713   3.262   0.140   2.486 -0.7882  1.3466 -0.0601
 1892SOL     OW15714   4.158   3.692   1.791 -0.9457 -0.8826 -0.0846
 1892SOL    HW115715   4.100   3.635   1.734 -1.9594  1.7704 -1.8204
 1892SOL    HW215716   4.249   3.699   1.750 -1.3463  0.1393 -0.8125
 1893SOL     OW15717   0.512   0.299   2.163 -0.2709 -0.0470  0.4399
 1893SOL    HW115718   0.453   0.357   2.107  0.5705 -0.6773 -1.1482
 1893SOL    HW215719   0.600   0.286   2.116  0.4502 -0.6173  1.9044
 1894SOL     OW15720   3.993   2.108   0.535 -0.1722  0.0285 -0.6044
 1894SOL    HW115721   4.057   2.031   0.528 -1.2416 -0.9920  0.7272
 1894SOL    HW215722   3.935   2.096   0.615 -0.2767  2.2917 -0.3158
 1895SOL     OW15723   0.891   8.373   1.192  0.4007  0.1414 -0.4825
 1895SOL    HW115724   0.949   8.388   1.272 -0.1926 -4.0160  0.8609
 1895SOL    HW215725   0.795   8.382   1.219  0.1826 -1.7691 -0.6076
 1896SOL     OW15726   1.878   1.896   1.262 -0.8876  0.2319 -0.2011
 1896SOL    HW115727   1.789   1.874   1.301 -0.9324  0.9604  0.1155
 1896SOL    HW215728   1.949   1.843   1.308 -1.1756 -0.4935 -0.5873
 1897SOL     OW15729   2.482   4.066   0.347 -0.2203 -0.3681 -0.3758
 1897SOL    HW115730   2.544   4.083   0.271  0.8441  2.7635  1.1185
 1897SOL    HW215731   2.534   4.039   0.428 -1.2088 -2.0530 -0.2711
 1898SOL     OW15732   0.216   1.788   1.659  0.1537 -0.6854  0.6750
 1898SOL    HW115733   0.117   1.775   1.651  0.3857 -2.3339  0.1191
 1898SOL    HW215734   0.235   1.872   1.709 -1.5374 -0.6606  1.3229
 1899SOL     OW15735   1.778   6.582   2.161 -0.6182 -0.1098  0.8194
 1899SOL    HW115736   1.729   6.653   2.109  1.0491  0.6648  0.2882
 1899SOL    HW215737   1.851   6.624   2.215  1.7833 -1.6445 -1.1496
 1900SOL     OW15738   2.039   9.650   1.405  0.4533 -0.1699  0.2770
 1900SOL    HW115739   2.021   9.739   1.362  0.1864  0.2829  1.3303
 1900SOL    HW215740   2.091   9.594   1.341  1.5322  1.1163  0.0015
 1901SOL     OW15741   1.024   2.802   2.053 -0.2457 -0.2294  0.0841
 1901SOL    HW115742   1.110   2.844   2.024 -0.0095 -0.7474  0.0319
 1901SOL    HW215743   0.953   2.824   1.986 -0.1097  0.0411  0.0267
 1902SOL     OW15744   0.912   8.142   0.297  0.0977  0.9712 -0.4168
 1902SOL    HW115745   0.925   8.240   0.305 -0.9792  1.1893 -1.1671
 1902SOL    HW215746   0.845   8.123   0.225 -0.1899 -0.2821  0.1655
 1903SOL     OW15747   1.114   6.405   1.986  0.1913 -0.3654  0.2108
 1903SOL    HW115748   1.128   6.377   1.891 -0.1733 -0.3759  0.1604
 1903SOL    HW215749   1.051   6.483   1.989  0.1481 -0.4092  0.4492
 1904SOL     OW15750   1.045   9.459   1.142 -0.0051 -0.1605  0.0268
 1904SOL    HW115751   1.141   9.483   1.156 -0.1650  0.3313  0.2839
 1904SOL    HW215752   1.033   9.427   1.048  0.5598 -0.9864  0.2219
 1905SOL     OW15753   3.363   9.989   0.454 -0.3425 -0.1427  0.4019
 1905SOL    HW115754   3.399   9.981   0.547  1.3824  1.0762 -0.1246
 1905SOL    HW215755   3.384  10.080   0.418  1.3777 -1.4940 -2.1394
 1906SOL     OW15756   2.664   1.560   1.498 -0.0339 -0.0436 -0.4329
 1906SOL    HW115757   2.584   1.523   1.451 -1.1925  0.9536  0.7370
 1906SOL    HW215758   2.728   1.485   1.519 -1.0327 -0.9561 -0.6282
 1907SOL     OW15759   1.972   7.187   1.086 -0.8081 -0.4979 -0.0597
 1907SOL    HW115760   1.989   7.141   0.999  0.1511 -1.1528  0.4619
 1907SOL    HW215761   1.881   7.162   1.119 -1.3038  0.0056 -1.0249
 1908SOL     OW15762   0.506   3.797   1.875  0.0752  0.0562  0.1872
 1908SOL    HW115763   0.417   3.829   1.909  0.0849  0.0149  0.2505
 1908SOL    HW215764   0.500   3.782   1.776 -0.2188 -0.7221  0.3190
 1909SOL     OW15765   2.117   1.662   1.043 -0.2920  0.0063  0.1792
 1909SOL    HW115766   2.127   1.762   1.048  0.1231  0.0950 -1.8336
 1909SOL    HW215767   2.022   1.639   1.022  0.0888  0.1105 -1.7687
 1910SOL     OW15768   2.072   8.686   0.943 -0.6598 -0.3691  0.3971
 1910SOL    HW115769   2.024   8.618   0.887 -1.8167  0.8183 -0.0688
 1910SOL    HW215770   2.156   8.713   0.897 -1.3344  0.1986 -0.5119
 1911SOL     OW15771   1.003   3.477   1.696 -0.3048  0.0494 -0.3053
 1911SOL    HW115772   1.058   3.539   1.752 -0.6167  1.1548 -1.1899
 1911SOL    HW215773   0.964   3.528   1.619 -0.0616 -1.3963 -1.4058
 1912SOL     OW15774   0.934   5.980   1.942 -0.3509  0.5330 -0.0578
 1912SOL    HW115775   1.000   6.049   1.972 -0.0118 -0.5241  1.7034
 1912SOL    HW215776   0.983   5.900   1.907 -0.6325 -0.8482  2.6077
 1913SOL     OW15777   9.281   4.770   1.945 -0.8156  0.4709 -0.1214
 1913SOL    HW115778   9.332   4.812   2.020 -1.0931  3.2001 -1.4164
 1913SOL    HW215779   9.184   4.765   1.970 -0.5732 -0.8222  0.6251
 1914SOL     OW15780   4.397   2.199   2.329  0.0748 -0.4329 -0.2697
 1914SOL    HW115781   4.444   2.286   2.345  0.9056 -0.9827  0.2696
 1914SOL    HW215782   4.448   2.145   2.263  0.1417 -0.9736  0.2204
 1915SOL     OW15783   0.977   2.194   0.848  0.1828  0.1660 -0.5330
 1915SOL    HW115784   0.976   2.222   0.752  1.5049  1.2916 -0.2201
 1915SOL    HW215785   1.018   2.265   0.904  0.2865 -0.8788  0.7519
 1916SOL     OW15786   2.156   3.968   1.291 -0.0303 -0.3436 -0.0729
 1916SOL    HW115787   2.086   3.923   1.237 -0.2678 -1.5818  1.2249
 1916SOL    HW215788   2.114   4.014   1.369  0.6982 -2.2451  1.4811
 1917SOL     OW15789   0.623   9.535   0.586  0.4416 -0.1322  0.0912
 1917SOL    HW115790   0.692   9.581   0.530  0.3746 -0.3293 -0.1517
 1917SOL    HW215791   0.545   9.510   0.529 -0.6515  1.7421  0.7013
 1918SOL     OW15792   0.337   9.299   1.117  0.1883 -0.4396  0.0064
 1918SOL    HW115793   0.378   9.373   1.063 -2.3967 -0.4899 -2.1296
 1918SOL    HW215794   0.284   9.239   1.057 -0.2586 -2.2867  2.1753
 1919SOL     OW15795   2.729   2.341   2.468  0.1500 -0.4048  1.0259
 1919SOL    HW115796   2.673   2.315   2.546  1.3839 -1.5096  1.5654
 1919SOL    HW215797   2.794   2.267   2.447  0.5433  0.3177 -0.3710
 1920SOL     OW15798   0.636   1.513   2.151 -0.5864 -0.3809 -0.4840
 1920SOL    HW115799   0.719   1.514   2.207 -1.3398  2.2351  0.6715
 1920SOL    HW215800   0.652   1.565   2.067 -1.1085  0.2665 -0.1822
 1921SOL     OW15801   0.990   7.450   1.072  0.0403 -0.5309  0.3252
 1921SOL    HW115802   0.952   7.387   1.005  1.9551 -0.5249 -0.8042
 1921SOL    HW215803   1.053   7.513   1.027  0.5089  0.1964  1.9442
 1922SOL     OW15804   1.223   4.722   0.141 -0.0287 -0.2816  0.4825
 1922SOL    HW115805   1.197   4.801   0.086 -0.7304 -0.1455  1.0122
 1922SOL    HW215806   1.304   4.679   0.101 -0.4905 -0.1423 -0.6162
 1923SOL     OW15807   0.031   3.639   2.406 -0.6281 -0.4053  0.4454
 1923SOL    HW115808   0.051   3.544   2.382 -3.2086 -0.5870 -1.1581
 1923SOL    HW215809  -0.054   3.643   2.459 -2.6849  1.3183 -2.8733
 1924SOL     OW15810   9.867   6.396   0.663 -0.1365 -0.4204 -0.2937
 1924SOL    HW115811   9.769   6.377   0.657 -0.1919 -0.2777  0.1768
 1924SOL    HW215812   9.883   6.494   0.661 -0.0083 -0.4397 -0.2678
 1925SOL     OW15813   2.335   1.082   1.688  0.2855 -0.4950  0.2254
 1925SOL    HW115814   2.286   0.999   1.660  0.2590 -0.2681 -0.4160
 1925SOL    HW215815   2.433   1.063   1.692  0.3617 -0.3315 -0.7615
 1926SOL     OW15816   4.297   3.891   2.141 -0.0232 -0.3097  0.0155
 1926SOL    HW115817   4.253   3.943   2.068  1.6386  0.1117 -0.6898
 1926SOL    HW215818   4.334   3.954   2.210 -1.8327 -0.7067  1.4017
 1927SOL     OW15819   9.732   5.358   0.902 -0.0448  0.4162 -0.3653
 1927SOL    HW115820   9.804   5.426   0.889 -1.2109  2.1634  1.8625
 1927SOL    HW215821   9.723   5.338   0.999 -1.6398 -0.7819 -0.7457
 1928SOL     OW15822   4.017   1.344   0.397  0.1353 -0.3505 -0.4414
 1928SOL    HW115823   4.038   1.247   0.394 -3.6176 -1.4009  2.7425
 1928SOL    HW215824   3.938   1.363   0.338  0.6913  0.7260 -0.8540
 1929SOL     OW15825   2.973   9.527   2.026  0.0402 -0.5095  0.0381
 1929SOL    HW115826   2.975   9.442   1.974 -3.0079 -0.8840  0.4208
 1929SOL    HW215827   3.005   9.510   2.119  1.8459 -0.6623 -0.5923
 1930SOL     OW15828   2.974   8.580   1.928  0.6479 -0.1072  0.0364
 1930SOL    HW115829   3.069   8.604   1.907  0.4478  1.3322  0.6988
 1930SOL    HW215830   2.937   8.522   1.855  1.7027  0.2118 -0.7539
 1931SOL     OW15831   2.489   3.273   0.920  0.4674 -0.4936 -0.1546
 1931SOL    HW115832   2.395   3.288   0.892  0.3084  0.0650  0.6437
 1931SOL    HW215833   2.508   3.326   1.003  1.6150 -0.2389 -0.5648
 1932SOL     OW15834   1.294   9.322   1.537  0.1877  0.2555  0.3663
 1932SOL    HW115835   1.200   9.354   1.551  0.2943  1.1084 -0.8492
 1932SOL    HW215836   1.320   9.334   1.442  1.5668  0.0780  0.7070
 1933SOL     OW15837   3.823   1.745   1.490  0.0431 -0.2828 -0.1893
 1933SOL    HW115838   3.857   1.714   1.579 -1.5929 -1.9359 -0.1040
 1933SOL    HW215839   3.760   1.822   1.503 -1.2806 -1.4040  0.2509
 1934SOL     OW15840   2.665   0.658   0.593 -0.0705 -0.1294  0.4367
 1934SOL    HW115841   2.714   0.584   0.546  1.4456  1.5217 -0.6763
 1934SOL    HW215842   2.614   0.711   0.526  1.3241  1.6693  0.7751
 1935SOL     OW15843   0.739   7.212   1.908  0.9657 -1.1943 -0.4880
 1935SOL    HW115844   0.654   7.218   1.856  0.8076  0.5322 -0.0768
 1935SOL    HW215845   0.817   7.217   1.845  0.7747  1.0518 -0.5802
 1936SOL     OW15846   2.507   9.275   1.052  0.5490  0.2561  0.2670
 1936SOL    HW115847   2.455   9.283   0.967  1.3938 -2.4393 -0.5689
 1936SOL    HW215848   2.446   9.247   1.126  0.1720  0.5302  0.0586
 1937SOL     OW15849   2.133   0.864   0.387 -0.5251  0.7290 -0.0977
 1937SOL    HW115850   2.137   0.779   0.439  1.3095  1.0353  0.3008
 1937SOL    HW215851   2.061   0.858   0.318 -0.5995 -1.0271  0.1168
 1938SOL     OW15852   4.889   3.240   0.526  0.1395 -0.4722  0.8180
 1938SOL    HW115853   4.829   3.213   0.601 -0.8427  1.1944  0.6530
 1938SOL    HW215854   4.883   3.339   0.513 -0.5651 -0.8600 -2.1678
 1939SOL     OW15855   2.308   3.279   1.655  0.2459  0.1266  0.0891
 1939SOL    HW115856   2.243   3.301   1.728  0.5572  1.7646 -0.1106
 1939SOL    HW215857   2.330   3.181   1.659 -0.3855  0.0248  1.6584
 1940SOL     OW15858   0.022   0.525   2.141  0.0466 -0.3110  0.4424
 1940SOL    HW115859  -0.004   0.545   2.047  2.7630  1.8724  0.0863
 1940SOL    HW215860  -0.032   0.581   2.204 -1.0283 -0.9976  0.1475
 1941SOL     OW15861   2.269   3.556   0.604  0.1508 -0.4731  0.2102
 1941SOL    HW115862   2.229   3.602   0.683  1.7655 -2.1403  2.0487
 1941SOL    HW215863   2.327   3.621   0.554 -2.4482  1.1314 -0.7816
 1942SOL     OW15864   1.044   3.561   1.438  0.0048  0.0608  0.2437
 1942SOL    HW115865   1.068   3.464   1.439 -0.4085 -0.0365  1.5266
 1942SOL    HW215866   1.125   3.616   1.456  0.0409 -0.0939  0.5511
 1943SOL     OW15867   1.250   4.348   1.203  0.0091 -0.3411  0.6180
 1943SOL    HW115868   1.285   4.255   1.217 -1.3085 -0.9345  0.0870
 1943SOL    HW215869   1.247   4.367   1.105 -0.3992 -0.0007  0.6981
 1944SOL     OW15870   1.822   2.367   1.659  0.5220 -0.2580 -0.0708
 1944SOL    HW115871   1.871   2.360   1.572 -1.1155 -1.3435 -0.9455
 1944SOL    HW215872   1.725   2.384   1.642 -0.2722 -2.8432  1.4175
 1945SOL     OW15873   1.435   5.966   0.138  0.2431 -0.6514 -0.2112
 1945SOL    HW115874   1.457   5.868   0.135  2.7168 -0.2540  2.3937
 1945SOL    HW215875   1.445   6.005   0.047  0.2766 -2.6000 -1.0860
 1946SOL     OW15876   1.739   3.108   0.680 -0.0432 -0.4051 -0.1578
 1946SOL    HW115877   1.822   3.066   0.716  0.1054  0.1494  0.1465
 1946SOL    HW215878   1.753   3.206   0.668 -0.2362 -0.5072 -1.3134
 1947SOL     OW15879   8.086   2.397   1.914 -0.4586 -0.9712 -0.6337
 1947SOL    HW115880   8.009   2.333   1.921 -0.3323 -1.2000 -1.3353
 1947SOL    HW215881   8.122   2.397   1.821 -1.6393  1.5089 -1.1374
 1948SOL     OW15882   9.921   5.023   1.879 -0.5220  0.2057  0.9443
 1948SOL    HW115883   9.872   4.967   1.812  0.3101 -0.6166  1.0083
 1948SOL    HW215884   9.905   4.987   1.970 -0.5197  0.4763  1.0514
 1949SOL     OW15885   0.267   5.771   0.103 -0.0509  0.4467  0.2834
 1949SOL    HW115886   0.264   5.868   0.127 -1.4668  0.1916  1.2137
 1949SOL    HW215887   0.359   5.734   0.120 -0.1818  1.0321  2.3027
 1950SOL     OW15888   2.979   9.933   0.885 -0.9779  0.3493 -0.2129
 1950SOL    HW115889   3.003   9.981   0.969 -1.5252 -0.4129  0.3830
 1950SOL    HW215890   3.057   9.879   0.854 -0.2000  1.9524 -1.1386
 1951SOL     OW15891   2.365   7.706   2.362 -0.2113 -0.2281 -0.0290
 1951SOL    HW115892   2.311   7.650   2.298 -0.1456 -1.8863  1.3225
 1951SOL    HW215893   2.437   7.650   2.402  0.9992  1.3381  0.0046
 1952SOL     OW15894   2.400   1.668   2.328 -0.2113 -0.2195 -0.0599
 1952SOL    HW115895   2.436   1.633   2.241  1.1510 -0.8180  0.7308
 1952SOL    HW215896   2.476   1.693   2.388 -1.1546  1.8732  0.2982
 1953SOL     OW15897   2.956   1.288   0.993  0.1460  0.2482  0.2695
 1953SOL    HW115898   2.881   1.276   1.058 -1.0308 -2.2314 -1.4611
 1953SOL    HW215899   2.923   1.340   0.914  0.5431  0.1015  0.0077
 1954SOL     OW15900   9.610   1.907   1.645  0.3456  0.2652  0.3279
 1954SOL    HW115901   9.594   1.850   1.726 -0.5383  1.8143  1.2792
 1954SOL    HW215902   9.525   1.955   1.622 -0.3826 -2.5946 -3.4956
 1955SOL     OW15903   3.731   8.905   0.776  0.3308 -0.5384 -0.0325
 1955SOL    HW115904   3.723   8.893   0.677 -0.8176 -0.1970  0.0215
 1955SOL    HW215905   3.722   9.002   0.799 -1.4330 -0.8490  0.6012
 1956SOL     OW15906   3.292   3.375   2.168  0.0355 -0.1924  0.1341
 1956SOL    HW115907   3.383   3.337   2.152 -0.1297 -0.7247  0.4404
 1956SOL    HW215908   3.233   3.305   2.210 -0.3364  0.3332  0.5024
 1957SOL     OW15909   1.304   0.863   0.966 -0.2937  0.5326 -0.2221
 1957SOL    HW115910   1.208   0.846   0.988 -0.1010 -1.1013 -0.5171
 1957SOL    HW215911   1.358   0.866   1.050 -0.2283 -1.1532 -0.1871
 1958SOL     OW15912   1.039   3.985   0.362 -0.0054  0.4082  0.8356
 1958SOL    HW115913   1.035   4.023   0.455 -0.9609  2.4143  0.0097
 1958SOL    HW215914   0.997   3.895   0.361  1.7390 -0.4769  2.7316
 1959SOL     OW15915   9.726   1.526   1.655 -0.1280 -0.0625 -0.3269
 1959SOL    HW115916   9.651   1.510   1.719  0.1229 -0.4807 -0.1352
 1959SOL    HW215917   9.693   1.579   1.577 -0.1185  1.7406  0.8534
 1960SOL     OW15918   9.068   4.579   0.992 -0.7619  0.3527 -0.0298
 1960SOL    HW115919   9.069   4.665   1.042 -0.9058  0.3012  0.0612
 1960SOL    HW215920   9.161   4.542   0.986 -0.6809  0.5812 -0.1849
 1961SOL     OW15921   0.370   0.371   0.003  0.0481  1.3841  0.5731
 1961SOL    HW115922   0.321   0.453   0.031 -2.7044 -0.7000  2.1940
 1961SOL    HW215923   0.433   0.343   0.076  0.8967  1.9458  0.0712
 1962SOL     OW15924   2.848   8.262   2.413  0.6759  0.6773 -0.1796
 1962SOL    HW115925   2.902   8.301   2.338  1.4513  0.1216  0.0894
 1962SOL    HW215926   2.835   8.332   2.483 -0.9159  1.5179 -1.2656
 1963SOL     OW15927   2.441   6.095   0.214 -0.2687 -0.5082 -0.2495
 1963SOL    HW115928   2.502   6.017   0.227 -0.4994 -0.6178  0.2149
 1963SOL    HW215929   2.410   6.098   0.119  1.0785  0.0097 -0.6764
 1964SOL     OW15930   2.183   8.295   2.421 -0.2859 -0.1441  0.4774
 1964SOL    HW115931   2.207   8.382   2.377  1.1701 -1.0064 -0.5008
 1964SOL    HW215932   2.086   8.295   2.445 -0.4333  1.5173 -0.0427
 1965SOL     OW15933   3.415   3.559   1.910 -0.3766 -1.0468  0.2521
 1965SOL    HW115934   3.444   3.592   1.820  0.3232 -0.2508  0.7621
 1965SOL    HW215935   3.315   3.557   1.914 -0.4339  0.3917 -0.0286
 1966SOL     OW15936   1.214   7.013   0.654 -1.3597 -0.4197 -0.4499
 1966SOL    HW115937   1.220   6.959   0.737 -0.1598 -2.3745 -1.7621
 1966SOL    HW215938   1.118   7.025   0.628 -1.7780  0.8173  1.5610
 1967SOL     OW15939   8.757   1.291   0.882 -0.5674  0.4051  0.1287
 1967SOL    HW115940   8.659   1.271   0.874  0.2659 -3.3658 -1.8870
 1967SOL    HW215941   8.806   1.248   0.806  2.6345  2.6465  0.8261
 1968SOL     OW15942   1.177   7.532   1.541  0.5876  0.6969  0.3351
 1968SOL    HW115943   1.097   7.546   1.600 -0.5129  0.4010 -1.0585
 1968SOL    HW215944   1.260   7.561   1.589 -0.5087  2.2496  1.3071
 1969SOL     OW15945   2.944   3.131   1.060  0.0597 -0.2421 -0.0065
 1969SOL    HW115946   2.848   3.118   1.035 -0.3888 -0.2195  1.6527
 1969SOL    HW215947   2.996   3.162   0.980 -1.7059  1.6781 -0.4336
 1970SOL     OW15948   3.367   3.436   0.032  0.2803  0.3125 -0.3792
 1970SOL    HW115949   3.334   3.361   0.089 -0.0193 -0.0329 -0.9943
 1970SOL    HW215950   3.435   3.489   0.082 -1.5193  1.3026  1.0725
 1971SOL     OW15951   4.088   0.762   0.047  0.3014 -0.6545  0.2639
 1971SOL    HW115952   3.995   0.730   0.066  0.0089  0.1294  0.1801
 1971SOL    HW215953   4.084   0.841  -0.014  1.0524 -0.9183 -0.1368
 1972SOL     OW15954   1.604   5.328   1.060 -0.1945 -0.0617  0.0658
 1972SOL    HW115955   1.533   5.387   1.022 -0.6444 -0.2257  0.6359
 1972SOL    HW215956   1.564   5.240   1.085  0.1661 -0.0890  0.5671
 1973SOL     OW15957   7.918   2.160   0.967 -0.0100  0.0255  0.2187
 1973SOL    HW115958   7.950   2.071   0.935  0.5246  0.2498  0.1293
 1973SOL    HW215959   7.863   2.204   0.896  1.7904  0.8505 -0.7099
 1974SOL     OW15960   0.125   7.957   0.336 -0.5511 -0.4457 -0.0001
 1974SOL    HW115961   0.072   7.888   0.286  1.6891 -0.7153 -2.1158
 1974SOL    HW215962   0.147   8.033   0.275  0.6062  0.1332  1.1222
 1975SOL     OW15963   0.568   0.161   0.695 -0.6138  0.2321  0.1428
 1975SOL    HW115964   0.547   0.250   0.656 -2.0959  0.2710  1.0134
 1975SOL    HW215965   0.502   0.139   0.767  0.8536 -0.7466  1.2220
 1976SOL     OW15966   3.726   1.283   2.510 -0.0747  0.2264  0.6078
 1976SOL    HW115967   3.784   1.338   2.570  1.5405 -0.7443 -0.0310
 1976SOL    HW215968   3.737   1.314   2.415 -0.3961 -0.1435  0.4476
 1977SOL     OW15969   1.185   7.964   2.535  1.0931  0.2128 -0.4014
 1977SOL    HW115970   1.279   7.999   2.545  1.8255 -1.7974 -0.0511
 1977SOL    HW215971   1.185   7.866   2.551 -1.2460  0.3407  0.5092
 1978SOL     OW15972   1.067   1.340   0.224  0.5471  0.1578  0.4458
 1978SOL    HW115973   1.034   1.270   0.161  0.8381  0.1039  0.3530
 1978SOL    HW215974   1.133   1.300   0.287  0.7139  0.3465  0.3914
 1979SOL     OW15975   2.975   1.264   0.555  0.1646 -0.1635  0.2918
 1979SOL    HW115976   2.900   1.202   0.581  0.2832 -0.7755 -0.8113
 1979SOL    HW215977   2.967   1.349   0.608  0.3149 -1.3134  2.2263
 1980SOL     OW15978   0.122   5.690   0.996 -0.2774 -0.4641  0.1533
 1980SOL    HW115979   0.194   5.651   1.053 -0.5712 -0.9586  0.1897
 1980SOL    HW215980   0.049   5.725   1.055  0.9055  2.0363  0.2257
 1981SOL     OW15981   1.397   4.914   1.892  0.1109  0.3236  0.2648
 1981SOL    HW115982   1.434   4.992   1.842 -0.2176  0.3024 -0.0178
 1981SOL    HW215983   1.310   4.940   1.934  0.2132  0.2365  0.5323
 1982SOL     OW15984   0.273   6.446   0.249  0.0626 -0.7210 -0.0990
 1982SOL    HW115985   0.255   6.528   0.303  1.0500 -0.5544 -0.0012
 1982SOL    HW215986   0.242   6.459   0.155  0.4603 -0.1298 -0.1496
 1983SOL     OW15987   1.551   4.477   0.857 -0.2238 -0.6734  0.2790
 1983SOL    HW115988   1.488   4.555   0.858  1.5109  0.8454 -2.3255
 1983SOL    HW215989   1.566   4.446   0.951 -2.1487  1.1208  1.2399
 1984SOL     OW15990   3.979   4.003   1.713 -0.1974  0.0757 -0.2191
 1984SOL    HW115991   4.033   4.030   1.633  1.3867  0.7117  1.0447
 1984SOL    HW215992   3.909   4.072   1.732 -0.5306 -0.0441 -1.0017
 1985SOL     OW15993   2.830   9.322   1.854 -0.6131 -0.3089  0.0654
 1985SOL    HW115994   2.745   9.370   1.834 -0.1626  0.5022  0.0481
 1985SOL    HW215995   2.890   9.326   1.774 -0.0127  0.3224  0.5406
 1986SOL     OW15996   2.062   5.408   2.123  0.0269  0.8033 -0.4311
 1986SOL    HW115997   2.106   5.340   2.063  0.6165 -1.9432  2.9902
 1986SOL    HW215998   1.966   5.385   2.134  0.6199 -0.6158  2.1632
 1987SOL     OW15999   1.019   1.855   1.824 -0.0468 -0.3451  0.0537
 1987SOL    HW116000   1.036   1.933   1.884  0.2321 -1.1066  0.9929
 1987SOL    HW216001   1.105   1.809   1.804 -0.4056 -1.4408  0.9571
 1988SOL     OW16002   0.073   6.272   2.289  0.5240  0.1029 -0.0387
 1988SOL    HW116003   0.116   6.195   2.240 -0.5378 -0.2882 -0.3713
 1988SOL    HW216004  -0.020   6.246   2.315  0.2258  1.2226  0.0041
 1989SOL     OW16005   2.405   3.760   0.485 -0.3055 -0.1091  0.3050
 1989SOL    HW116006   2.423   3.852   0.518 -0.5208  0.0490 -0.0119
 1989SOL    HW216007   2.488   3.722   0.445 -0.5656  0.4874 -0.8416
 1990SOL     OW16008   2.946   8.372   0.882 -0.1095  0.2509  0.2500
 1990SOL    HW116009   2.972   8.378   0.979 -0.8700  1.5432  0.3848
 1990SOL    HW216010   2.868   8.432   0.865  0.1244  0.1525 -1.2077
 1991SOL     OW16011   0.417   4.213   0.601  0.0580  0.5320 -0.0059
 1991SOL    HW116012   0.321   4.211   0.630  0.2156  0.8847  0.5566
 1991SOL    HW216013   0.445   4.308   0.589  0.7778  0.4909  1.3282
 1992SOL     OW16014   2.183   2.198   1.004  0.1469 -0.2122 -1.0515
 1992SOL    HW116015   2.222   2.107   0.990 -1.7631 -0.7821 -2.8255
 1992SOL    HW216016   2.149   2.206   1.098  2.8395 -0.3100 -0.0101
 1993SOL     OW16017   2.387   4.575   1.104  0.1677  0.4701 -0.2203
 1993SOL    HW116018   2.384   4.603   1.201  0.4047  0.8024 -0.3074
 1993SOL    HW216019   2.383   4.475   1.098  0.0432  0.4523  0.1287
 1994SOL     OW16020   2.677   8.034   2.019 -0.3579  0.0762  0.3098
 1994SOL    HW116021   2.604   8.056   1.955 -0.5760  1.7320  1.1159
 1994SOL    HW216022   2.649   8.058   2.112  0.7879 -0.3058  0.7632
 1995SOL     OW16023   4.140   3.937   1.919 -0.2605  0.1137 -0.0565
 1995SOL    HW116024   4.070   3.990   1.871 -0.0298 -0.6482 -1.2622
 1995SOL    HW216025   4.167   3.860   1.862  0.4169 -0.4980  1.0886
 1996SOL     OW16026   9.989   5.355   0.189  0.3374 -0.0058  0.0335
 1996SOL    HW116027  10.066   5.377   0.129  0.1568  2.1271  0.5375
 1996SOL    HW216028   9.980   5.427   0.258 -1.1033 -1.0757  0.9750
 1997SOL     OW16029   0.154   9.548   2.466 -0.0152  0.3058  0.0600
 1997SOL    HW116030   0.185   9.606   2.391  0.3664  0.8611  0.6390
 1997SOL    HW216031   0.219   9.554   2.542 -0.9118  0.5397  0.8224
 1998SOL     OW16032   2.566   8.365   2.118  0.3700 -0.8430 -0.3515
 1998SOL    HW116033   2.569   8.284   2.176 -0.4265 -0.9002 -0.3912
 1998SOL    HW216034   2.486   8.361   2.058 -0.6098  0.7634  0.7940
 1999SOL     OW16035   2.046   1.638   1.942 -0.4393 -0.2475 -0.3347
 1999SOL    HW116036   2.105   1.719   1.944  0.0316 -0.5509 -1.3559
 1999SOL    HW216037   1.977   1.645   2.014  0.0048  0.7532  0.0028
 2000SOL     OW16038   1.878   2.465   0.620 -0.1079 -0.2276  0.1212
 2000SOL    HW116039   1.805   2.490   0.684  0.5880 -0.0272  0.8402
 2000SOL    HW216040   1.840   2.461   0.528 -0.7926  1.0142  0.3242
 2001SOL     OW16041   4.230   0.365   1.065 -0.2697  0.3457 -0.3726
 2001SOL    HW116042   4.136   0.370   1.098 -0.5577  0.8217 -1.2705
 2001SOL    HW216043   4.234   0.304   0.986  0.0524  0.9020 -0.7835
 2002SOL     OW16044   0.213   8.844   1.862 -0.7881 -0.1275  0.0713
 2002SOL    HW116045   0.266   8.928   1.850 -2.1446  0.6994 -0.3204
 2002SOL    HW216046   0.180   8.839   1.957  1.2745 -1.4337  0.7430
 2003SOL     OW16047   2.129   5.402   2.402 -0.3699  0.2075  0.4306
 2003SOL    HW116048   2.114   5.384   2.304  3.9306  1.4618 -0.5695
 2003SOL    HW216049   2.127   5.315   2.452 -2.7611 -0.4429 -0.7202
 2004SOL     OW16050   0.460   4.206   1.083 -0.6983 -0.2304  0.0252
 2004SOL    HW116051   0.501   4.288   1.042 -0.2467  0.2505  1.4069
 2004SOL    HW216052   0.433   4.143   1.011 -0.1744  0.7241 -1.0238
 2005SOL     OW16053   8.891   2.776   2.263 -0.0593  0.0965 -0.3309
 2005SOL    HW116054   8.927   2.868   2.283 -0.0978 -0.0178  0.2784
 2005SOL    HW216055   8.967   2.713   2.249  0.0186 -0.3070  1.6913
 2006SOL     OW16056   9.965   0.876   1.783 -0.3797  0.1040 -0.1543
 2006SOL    HW116057  10.056   0.896   1.748  0.1934 -1.2289  0.5092
 2006SOL    HW216058   9.956   0.914   1.876 -1.1878  1.8919 -0.9422
 2007SOL     OW16059   1.194   3.433   1.177  0.3171 -0.2839 -0.0724
 2007SOL    HW116060   1.162   3.409   1.086  0.7542 -0.8041 -0.0912
 2007SOL    HW216061   1.141   3.383   1.246  0.3459 -0.3011 -0.0626
 2008SOL     OW16062   0.674   1.676   2.544  0.9263  0.0158  0.4151
 2008SOL    HW116063   0.679   1.763   2.594 -2.2230  0.7495 -0.4263
 2008SOL    HW216064   0.617   1.612   2.595  0.8481 -0.5547 -0.3823
 2009SOL     OW16065   9.985   9.385   0.550  0.8383 -0.5158  0.2570
 2009SOL    HW116066   9.951   9.377   0.456  1.3246  0.1764  0.0123
 2009SOL    HW216067  10.083   9.363   0.552  0.2659 -3.0979  1.0614
 2010SOL     OW16068   9.856   1.838   2.447  0.0710  0.1071 -0.0111
 2010SOL    HW116069   9.778   1.867   2.502 -0.4582  1.4178 -1.4107
 2010SOL    HW216070   9.940   1.879   2.484  0.0072 -0.6674  1.0183
 2011SOL     OW16071   8.402   1.598   2.296  0.0136  0.3831 -0.2317
 2011SOL    HW116072   8.329   1.529   2.296  2.5582 -2.4570  2.3060
 2011SOL    HW216073   8.369   1.682   2.339 -2.2976 -0.1717 -0.8436
 2012SOL     OW16074   0.644   0.927   1.127  0.2459 -0.7990 -0.3815
 2012SOL    HW116075   0.648   0.832   1.157 -2.0653 -1.0346 -0.7671
 2012SOL    HW216076   0.577   0.977   1.182  0.3573  0.2360 -1.1684
 2013SOL     OW16077   1.357   7.083   1.655 -0.6774  0.4981  0.3366
 2013SOL    HW116078   1.292   7.100   1.729 -2.1427 -0.6219 -0.6728
 2013SOL    HW216079   1.416   7.163   1.644 -0.7376  0.8603  2.3995
 2014SOL     OW16080   0.721   3.775   2.070  0.2280  0.3405 -0.5701
 2014SOL    HW116081   0.657   3.751   1.997 -0.0241 -0.4102 -0.1075
 2014SOL    HW216082   0.700   3.867   2.103 -1.2152 -0.2425  0.1988
 2015SOL     OW16083   9.636   6.004   2.551  0.3545  0.3243 -0.1771
 2015SOL    HW116084   9.576   5.925   2.549  0.2716  0.4156 -1.6014
 2015SOL    HW216085   9.647   6.035   2.646 -1.5782  0.1155  0.1265
 2016SOL     OW16086   9.193   3.614   0.502 -0.1380 -0.6524  0.1452
 2016SOL    HW116087   9.242   3.619   0.590 -1.0616  1.5119  0.5690
 2016SOL    HW216088   9.243   3.667   0.433 -1.7521  1.4596  0.5476
 2017SOL     OW16089   1.962   8.057   0.930  0.6046  0.1408  0.2081
 2017SOL    HW116090   1.954   8.118   0.851  2.8046  1.1262  0.6907
 2017SOL    HW216091   1.874   8.013   0.948  0.1339 -0.3101 -2.9488
 2018SOL     OW16092   1.894   0.676   1.751  0.1689 -0.6110 -0.2356
 2018SOL    HW116093   1.815   0.718   1.706  0.3763  0.0722  0.0292
 2018SOL    HW216094   1.978   0.712   1.710  0.3512 -2.2970 -1.4040
 2019SOL     OW16095   3.186   3.750   1.761  0.1385  0.0040 -0.2386
 2019SOL    HW116096   3.273   3.774   1.720  0.8486 -3.1040 -0.6710
 2019SOL    HW216097   3.133   3.695   1.697 -0.2197 -1.9338  1.6577
 2020SOL     OW16098   2.818   4.604   1.140  0.0468  0.4572 -0.2992
 2020SOL    HW116099   2.884   4.539   1.102  1.1558  0.8413  0.9063
 2020SOL    HW216100   2.749   4.627   1.071  1.6267  0.6485 -1.8458
 2021SOL     OW16101   0.787   9.674   0.399 -0.0652  0.1954  0.4861
 2021SOL    HW116102   0.784   9.770   0.371  1.5933 -0.3907 -1.7778
 2021SOL    HW216103   0.858   9.663   0.468  1.5245  0.1461 -1.1311
 2022SOL     OW16104   9.721   2.393   1.805  0.0430 -0.3569 -0.0330
 2022SOL    HW116105   9.706   2.481   1.850  3.7784  0.7010 -0.6444
 2022SOL    HW216106   9.693   2.400   1.709 -0.7412 -0.1886  0.2091
 2023SOL     OW16107   1.837   3.622   1.212 -0.0359  0.4684  0.1449
 2023SOL    HW116108   1.847   3.558   1.288  0.0538  0.2064 -0.0875
 2023SOL    HW216109   1.744   3.659   1.212 -0.8499 -1.5012 -1.1771
 2024SOL     OW16110   9.038   3.016   2.007 -0.6534  0.0309 -1.1436
 2024SOL    HW116111   8.996   2.946   1.949 -1.7175 -1.8049  1.7008
 2024SOL    HW216112   8.974   3.092   2.020 -0.3775  0.4864 -2.4063
 2025SOL     OW16113   0.099   3.727   2.170  0.1930 -0.0563 -0.2946
 2025SOL    HW116114   0.074   3.711   2.266  1.0062 -2.6288 -0.4892
 2025SOL    HW216115   0.185   3.779   2.167 -0.6757  1.4532  0.3536
 2026SOL     OW16116   2.735   4.871   0.844 -0.1751  0.0201 -0.0991
 2026SOL    HW116117   2.763   4.941   0.909  0.3140  0.1341 -0.4334
 2026SOL    HW216118   2.681   4.801   0.892  1.7747 -0.8954  0.8448
 2027SOL     OW16119   3.030   0.809   0.921  0.5111 -0.1804  0.2062
 2027SOL    HW116120   3.017   0.822   1.019  1.5978 -0.7253  0.4266
 2027SOL    HW216121   3.089   0.882   0.886 -2.8782  2.2393 -0.7742
 2028SOL     OW16122   2.172   0.311   2.051  0.2765  0.6164 -0.0668
 2028SOL    HW116123   2.168   0.299   1.952 -0.9340 -1.1729  0.1781
 2028SOL    HW216124   2.081   0.333   2.086  0.6156  0.7974  0.7236
 2029SOL     OW16125   8.660   4.942   0.786 -0.6328  1.0158 -0.1362
 2029SOL    HW116126   8.622   5.011   0.725 -0.1303 -0.0974 -1.7364
 2029SOL    HW216127   8.736   4.896   0.741 -1.8333 -1.5293  0.3945
 2030SOL     OW16128   8.795   4.635   1.007  0.4491 -0.3284 -0.5896
 2030SOL    HW116129   8.738   4.638   0.925  1.2447  0.1705 -1.1431
 2030SOL    HW216130   8.889   4.614   0.981  0.7646  0.1167  0.1575
 2031SOL     OW16131   0.320   3.273   1.014 -0.4995  0.4071 -0.0844
 2031SOL    HW116132   0.406   3.305   1.054  0.3821 -2.4117  0.3332
 2031SOL    HW216133   0.332   3.262   0.915 -0.7480  1.0858 -0.1984
 2032SOL     OW16134   1.742   9.296   2.458  0.0238  0.0704  0.5131
 2032SOL    HW116135   1.765   9.371   2.396  0.4159  1.6033  2.4835
 2032SOL    HW216136   1.672   9.238   2.415  0.4787  0.9450 -1.4542
 2033SOL     OW16137   0.479   5.741   2.410  0.0422 -0.1883  0.1126
 2033SOL    HW116138   0.434   5.725   2.322  0.5564  0.0422 -0.1963
 2033SOL    HW216139   0.573   5.773   2.394  0.4915 -1.1463  0.7444
 2034SOL     OW16140   2.312   9.176   1.774 -0.3851 -0.0539 -0.1032
 2034SOL    HW116141   2.377   9.199   1.846 -2.4014  2.1381  1.1089
 2034SOL    HW216142   2.310   9.250   1.707 -0.5586 -0.7950 -0.9205
 2035SOL     OW16143   0.583   8.005   0.931 -0.6802  0.1025  0.0462
 2035SOL    HW116144   0.521   8.007   0.853 -0.2954  1.7503 -0.2447
 2035SOL    HW216145   0.604   8.099   0.959  0.1007 -0.4612  1.3972
 2036SOL     OW16146   1.811   0.825   0.938  0.0942 -0.1788 -0.0585
 2036SOL    HW116147   1.889   0.778   0.896  0.2464  0.0188 -0.0004
 2036SOL    HW216148   1.753   0.759   0.985  0.1840 -0.3373 -0.1696
 2037SOL     OW16149   2.836   3.838   2.019 -0.9217 -0.2594 -0.1380
 2037SOL    HW116150   2.932   3.861   2.030 -0.5040 -2.2822  0.7589
 2037SOL    HW216151   2.820   3.803   1.927 -1.0570  1.2395 -0.6880
 2038SOL     OW16152   9.099   5.405   1.716  0.5848 -0.2638 -0.2917
 2038SOL    HW116153   9.058   5.484   1.669  0.4839 -0.6910 -0.9249
 2038SOL    HW216154   9.043   5.324   1.700  0.4069 -0.3519  0.8001
 2039SOL     OW16155   9.976   3.240   2.353  0.2188 -0.2567 -0.1549
 2039SOL    HW116156  10.037   3.161   2.348  0.3443 -0.0810 -1.3479
 2039SOL    HW216157   9.882   3.211   2.335  0.0649 -0.3699  0.7945
 2040SOL     OW16158   0.570   7.302   0.444 -0.5738 -0.0841  0.4447
 2040SOL    HW116159   0.621   7.219   0.470  1.3220  1.2274  1.0414
 2040SOL    HW216160   0.497   7.278   0.380  2.0875 -1.7770 -2.0706
 2041SOL     OW16161   1.188   9.303   0.104  0.1864  0.5750  0.0537
 2041SOL    HW116162   1.193   9.232   0.034 -1.7415  0.7140 -0.2570
 2041SOL    HW216163   1.280   9.337   0.124  0.9623 -0.8962 -0.9251
 2042SOL     OW16164   2.549   7.645   2.112 -0.0448 -0.3943 -0.2720
 2042SOL    HW116165   2.611   7.692   2.175  0.6852  0.8610 -1.8936
 2042SOL    HW216166   2.454   7.666   2.137  0.1861 -1.4763  1.5754
 2043SOL     OW16167   3.135   9.822   0.685 -0.2717 -0.5058 -0.2521
 2043SOL    HW116168   3.214   9.773   0.648 -1.1910 -3.9446  2.1188
 2043SOL    HW216169   3.069   9.839   0.612  0.1806 -2.6677 -1.2095
 2044SOL     OW16170   3.465   8.586   0.465 -0.0944 -0.7727 -0.1842
 2044SOL    HW116171   3.392   8.531   0.427 -0.7940 -0.8211  1.2006
 2044SOL    HW216172   3.428   8.650   0.533  1.1385 -0.8576  0.6034
 2045SOL     OW16173   9.843   9.783   1.060  0.5123  0.2530 -0.2206
 2045SOL    HW116174   9.771   9.745   1.002  1.1448 -0.7544 -0.3660
 2045SOL    HW216175   9.931   9.776   1.014  0.9859 -0.3314  0.7463
 2046SOL     OW16176   3.259   3.372   1.422 -0.0151 -0.4082  0.5062
 2046SOL    HW116177   3.349   3.382   1.379 -1.1496 -0.1588 -1.9076
 2046SOL    HW216178   3.205   3.304   1.372 -1.1988 -0.5397  1.9077
 2047SOL     OW16179   2.578   2.596   0.068 -0.1965  0.1087 -0.0796
 2047SOL    HW116180   2.520   2.546   0.133  1.0888 -1.0927  0.1796
 2047SOL    HW216181   2.522   2.628  -0.008 -1.5344  0.5937  1.0776
 2048SOL     OW16182   0.704   0.615   0.466  0.1920 -0.0501  0.3150
 2048SOL    HW116183   0.778   0.563   0.424  1.1530  1.0065  0.6531
 2048SOL    HW216184   0.733   0.710   0.478 -1.3225  0.4409  0.2088
 2049SOL     OW16185   0.434   0.073   2.322  0.6187  0.3062 -0.0723
 2049SOL    HW116186   0.459   0.151   2.265  1.7539  0.9475  1.2942
 2049SOL    HW216187   0.341   0.085   2.356  0.3641  0.4823 -0.8166
 2050SOL     OW16188   2.672   8.677   2.464 -0.3404  0.1921  0.6042
 2050SOL    HW116189   2.766   8.672   2.428 -0.5090  1.9356 -0.1494
 2050SOL    HW216190   2.608   8.657   2.390 -0.6240  1.6631  0.4280
 2051SOL     OW16191   3.639   9.501   1.190  0.5399 -0.3637 -0.2509
 2051SOL    HW116192   3.574   9.559   1.239  0.9813 -0.6234  0.6464
 2051SOL    HW216193   3.725   9.551   1.177  0.3593 -0.2245 -0.9392
 2052SOL     OW16194   0.707   8.879   0.315  0.1279  0.2752 -0.0312
 2052SOL    HW116195   0.743   8.972   0.316  0.0469  0.2977  1.9545
 2052SOL    HW216196   0.608   8.881   0.305  0.2198  0.3491 -1.0162
 2053SOL     OW16197   0.360   3.160   2.270 -0.3325  0.2526  0.0209
 2053SOL    HW116198   0.373   3.226   2.343 -2.8126  1.5358 -0.6416
 2053SOL    HW216199   0.408   3.191   2.188  1.0457 -0.3401  0.5867
 2054SOL     OW16200   8.983   5.257   1.223  0.1275  0.0440 -0.4789
 2054SOL    HW116201   8.985   5.357   1.230 -1.7491  0.0008  1.1433
 2054SOL    HW216202   8.894   5.224   1.253  1.1275 -2.2105  0.0855
 2055SOL     OW16203   0.474   7.933   0.657 -0.2580  0.4164 -0.5544
 2055SOL    HW116204   0.383   7.975   0.653  0.6704  2.4738 -0.9056
 2055SOL    HW216205   0.535   7.980   0.593  1.3049 -0.2706  0.4148
 2056SOL     OW16206   4.161   3.523   0.265 -0.1726 -0.0873  0.5526
 2056SOL    HW116207   4.149   3.494   0.360  0.4193 -3.7094 -0.4211
 2056SOL    HW216208   4.229   3.466   0.220  0.0552  2.0010 -1.9083
 2057SOL     OW16209   9.428   2.314   1.471  0.2372  0.8266 -0.5823
 2057SOL    HW116210   9.392   2.331   1.563  0.9014 -0.7768 -0.0097
 2057SOL    HW216211   9.520   2.352   1.464 -0.5502  2.6697 -1.2273
 2058SOL     OW16212   4.547   3.065   0.162 -0.1961  0.2697  0.0622
 2058SOL    HW116213   4.545   2.989   0.097 -0.9555  0.3764 -0.0395
 2058SOL    HW216214   4.623   3.052   0.226 -0.2729 -0.5411 -0.0076
 2059SOL     OW16215   3.918   4.193   2.079 -0.5066 -0.3854 -0.6515
 2059SOL    HW116216   3.880   4.175   1.989  2.9625 -3.1422 -1.7082
 2059SOL    HW216217   3.920   4.292   2.096 -2.7757  0.0765 -2.8267
 2060SOL     OW16218   0.727   7.254   1.056 -0.0043  0.0123  0.0230
 2060SOL    HW116219   0.630   7.251   1.079  0.1965  0.1064  0.8924
 2060SOL    HW216220   0.759   7.162   1.034 -0.0579 -0.1770  0.7232
 2061SOL     OW16221   3.286   1.973   0.705  0.3555 -0.3610 -0.6589
 2061SOL    HW116222   3.239   2.014   0.783  0.4274 -0.8231 -0.3679
 2061SOL    HW216223   3.371   2.024   0.687 -0.6452  0.9672 -1.6950
 2062SOL     OW16224   2.294   1.200   0.701 -0.0899  0.6409  0.2258
 2062SOL    HW116225   2.220   1.160   0.646  0.9435  0.3934 -1.0079
 2062SOL    HW216226   2.280   1.299   0.709 -0.7930  0.5313  0.3568
 2063SOL     OW16227   8.777   3.123   2.137 -0.4847  0.3244 -0.3401
 2063SOL    HW116228   8.840   3.179   2.191 -2.9394  1.6063  1.2845
 2063SOL    HW216229   8.725   3.063   2.197 -2.9876  1.4865 -1.2572
 2064SOL     OW16230   2.304   5.447   1.469  0.7285  0.3160 -0.3308
 2064SOL    HW116231   2.232   5.399   1.520  1.4998 -0.1939  0.2757
 2064SOL    HW216232   2.270   5.469   1.378  0.3295 -1.3098 -0.6001
 2065SOL     OW16233   1.381   4.982   0.454  0.5323  0.6715  0.1076
 2065SOL    HW116234   1.370   5.013   0.549 -3.2737 -1.4148  0.4514
 2065SOL    HW216235   1.338   5.049   0.393 -1.5346 -0.3928  0.3252
 2066SOL     OW16236   0.451   7.232   1.096 -1.2964  0.1946  0.2419
 2066SOL    HW116237   0.415   7.265   1.008 -2.8980 -0.4691  0.6513
 2066SOL    HW216238   0.451   7.132   1.097  0.0873  0.1778  0.4558
 2067SOL     OW16239   3.189   1.021   2.561  0.2131 -0.6934 -0.0437
 2067SOL    HW116240   3.281   0.990   2.539  0.9634  0.5821  1.2516
 2067SOL    HW216241   3.136   1.030   2.476  1.6091 -0.3855 -0.8940
 2068SOL     OW16242   3.155   0.456   0.641  0.5704  0.3232 -0.5952
 2068SOL    HW116243   3.163   0.359   0.664 -2.1841  0.1134 -0.3123
 2068SOL    HW216244   3.121   0.466   0.548 -1.6797  0.9198  0.2425
 2069SOL     OW16245   0.683   6.054   1.936  0.6465 -0.7274 -1.0826
 2069SOL    HW116246   0.777   6.026   1.918  0.2896 -2.0958 -0.8455
 2069SOL    HW216247   0.675   6.084   2.031  0.9327 -0.2030 -1.2204
 2070SOL     OW16248   0.575   9.180   1.172 -0.4877  0.0507 -0.0762
 2070SOL    HW116249   0.629   9.222   1.245 -0.9586 -0.4881  0.5889
 2070SOL    HW216250   0.484   9.222   1.169 -0.7477 -0.4841  0.1853
 2071SOL     OW16251   1.411   0.992   1.781  0.5057 -0.7418  0.9570
 2071SOL    HW116252   1.408   0.989   1.880  0.7015 -0.7720  0.9620
 2071SOL    HW216253   1.444   0.904   1.746  0.6111 -0.6690  0.8729
 2072SOL     OW16254   0.533   8.285   1.795 -0.3518 -0.2116 -0.3474
 2072SOL    HW116255   0.596   8.214   1.826  0.1718  0.1081 -0.6770
 2072SOL    HW216256   0.445   8.243   1.774 -0.0167 -0.7838 -0.6379
 2073SOL     OW16257   0.469   6.754   0.930  0.2758  0.2903  0.1412
 2073SOL    HW116258   0.528   6.707   0.864  1.0499  1.6638 -0.1761
 2073SOL    HW216259   0.412   6.688   0.978  0.6737 -0.8598 -0.9594
 2074SOL     OW16260   0.732   1.857   0.983  0.2302 -0.0718 -0.6449
 2074SOL    HW116261   0.730   1.947   1.026  0.7635  0.2361 -1.2528
 2074SOL    HW216262   0.823   1.840   0.945  0.6846 -1.6083  1.0259
 2075SOL     OW16263   3.962   0.799   0.714 -0.1175 -0.3327  0.1458
 2075SOL    HW116264   4.039   0.755   0.761 -0.5778 -1.3204  0.0063
 2075SOL    HW216265   3.986   0.893   0.691  0.6889 -0.3264  0.9661
 2076SOL     OW16266   9.666   5.835   1.005 -0.2323  0.6981  0.4131
 2076SOL    HW116267   9.598   5.783   1.056  1.6342 -1.6163  0.6475
 2076SOL    HW216268   9.670   5.929   1.039 -2.7794  0.6643  0.8442
 2077SOL     OW16269   3.508   0.117   1.029  0.0132 -0.0393  0.2547
 2077SOL    HW116270   3.598   0.161   1.024 -1.0638  2.4098  1.4718
 2077SOL    HW216271   3.437   0.187   1.029 -1.7765 -1.7939  2.0309
 2078SOL     OW16272   0.662   8.096   0.120  0.2736 -0.0503  0.2713
 2078SOL    HW116273   0.584   8.072   0.062  0.4343  0.5050 -0.1747
 2078SOL    HW216274   0.745   8.057   0.082  0.2565 -0.4293  0.6120
 2079SOL     OW16275   8.527   4.143   1.678  0.1713 -0.4224  0.1196
 2079SOL    HW116276   8.584   4.086   1.619  0.0499 -0.6036  0.1759
 2079SOL    HW216277   8.446   4.091   1.707 -1.0370  0.4939 -1.5555
 2080SOL     OW16278   3.120   2.562   0.003  0.0746  0.1261 -0.0780
 2080SOL    HW116279   3.167   2.477  -0.021 -0.2820 -0.1037  0.0268
 2080SOL    HW216280   3.123   2.575   0.102  1.6263  1.1222 -0.2438
 2081SOL     OW16281   0.664   4.809   2.189  0.4546 -0.4523 -0.7016
 2081SOL    HW116282   0.635   4.769   2.276  0.7695 -0.9190 -0.8086
 2081SOL    HW216283   0.674   4.908   2.199 -0.6302 -0.3539 -0.5140
 2082SOL     OW16284   1.779   4.814   1.008 -0.1502  0.8863  0.3047
 2082SOL    HW116285   1.852   4.745   1.014 -0.3547  0.3461 -2.4198
 2082SOL    HW216286   1.811   4.900   1.047  0.7885 -0.2108  2.0428
 2083SOL     OW16287   2.392   4.360   1.394  0.6385 -0.2104 -0.1005
 2083SOL    HW116288   2.310   4.333   1.343  0.3527 -0.0931  0.2940
 2083SOL    HW216289   2.426   4.282   1.446  1.2520 -0.4832 -0.8994
 2084SOL     OW16290   9.182   5.587   0.900 -0.5319  0.0152 -0.3039
 2084SOL    HW116291   9.169   5.638   0.815  1.9999  0.1386 -0.6633
 2084SOL    HW216292   9.274   5.604   0.935 -1.2540 -0.7121  2.0243
 2085SOL     OW16293   9.970   5.436   0.695 -0.2722  0.5724 -0.0014
 2085SOL    HW116294  10.055   5.388   0.716 -1.6468 -1.4178  1.2361
 2085SOL    HW216295   9.952   5.506   0.764  0.6507  1.3992 -0.5960
 2086SOL     OW16296   3.789   8.230   0.402 -0.7127 -0.1945  0.0456
 2086SOL    HW116297   3.742   8.211   0.315  0.4159 -0.7846 -0.4496
 2086SOL    HW216298   3.746   8.308   0.447 -1.7078 -0.2760 -0.7457
 2087SOL     OW16299   8.964   3.704   1.460  0.5822 -0.4833  0.0642
 2087SOL    HW116300   9.057   3.724   1.427  0.5688 -0.6581 -0.0806
 2087SOL    HW216301   8.906   3.784   1.445  1.1785  0.3394  1.9123
 2088SOL     OW16302   2.955   2.275   0.831  0.1575 -0.4920 -0.1303
 2088SOL    HW116303   2.867   2.318   0.814  0.1219  0.3605  2.0115
 2088SOL    HW216304   2.941   2.189   0.879  0.5681  0.7627  2.3010
 2089SOL     OW16305   3.345   9.465   0.820  1.0305  0.2694  0.0017
 2089SOL    HW116306   3.274   9.472   0.890  1.1444 -2.1377  0.3968
 2089SOL    HW216307   3.313   9.507   0.735 -0.8906 -0.8629  0.1424
 2090SOL     OW16308   8.987   4.523   2.218  0.1588 -0.3020  0.2564
 2090SOL    HW116309   8.922   4.450   2.239 -0.1931 -0.3519 -0.9945
 2090SOL    HW216310   9.078   4.484   2.205  0.2076 -0.3704  0.7782
 2091SOL     OW16311   1.429   3.523   1.338 -0.3313  0.2504  0.1001
 2091SOL    HW116312   1.341   3.513   1.292 -0.7781 -0.7755  1.1308
 2091SOL    HW216313   1.491   3.451   1.308  0.6407  1.7713 -1.6389
 2092SOL     OW16314   2.081   6.562   1.005  0.0529 -0.1555  0.1569
 2092SOL    HW116315   2.013   6.514   0.950  0.2580 -1.7778  1.3026
 2092SOL    HW216316   2.083   6.524   1.097  1.6291  0.7158  0.5032
 2093SOL     OW16317   9.511   0.474   0.445 -0.4005  0.1764 -0.1429
 2093SOL    HW116318   9.499   0.445   0.350  2.1592  0.5790 -0.6240
 2093SOL    HW216319   9.599   0.439   0.479 -0.8448  0.8773  1.7485
 2094SOL     OW16320   3.838   2.349   0.190  0.4082  0.3948 -0.8471
 2094SOL    HW116321   3.866   2.435   0.232 -0.1189  0.3257 -0.3437
 2094SOL    HW216322   3.902   2.276   0.217 -1.8416 -0.3767  2.6895
 2095SOL     OW16323   0.502   1.444   1.164 -0.0171  0.5164  0.0056
 2095SOL    HW116324   0.551   1.527   1.140 -2.6009  2.6496  1.8039
 2095SOL    HW216325   0.491   1.439   1.263 -0.8168 -1.4528 -0.1538
 2096SOL     OW16326   1.413   2.825   1.774  0.1507  0.0688  0.0936
 2096SOL    HW116327   1.490   2.775   1.812  0.3140  0.2615  0.0145
 2096SOL    HW216328   1.446   2.898   1.715 -0.1027 -0.1123 -0.2705
 2097SOL     OW16329   4.340   1.595   0.001  0.0372 -0.2290  0.3803
 2097SOL    HW116330   4.298   1.541   0.074 -0.2884  0.0610  0.4044
 2097SOL    HW216331   4.328   1.692   0.020  1.5871 -0.1286  0.9119
 2098SOL     OW16332   2.768   1.085   2.461 -0.2065  0.1525  0.4406
 2098SOL    HW116333   2.860   1.095   2.423  0.1016 -0.9851  0.8624
 2098SOL    HW216334   2.701   1.118   2.395  0.4465  0.1605 -0.2326
 2099SOL     OW16335   9.134   1.957   0.421  0.2156 -0.1462 -0.1480
 2099SOL    HW116336   9.215   1.974   0.477  0.0118 -0.9488  0.3971
 2099SOL    HW216337   9.086   2.043   0.403  0.3751  0.1287  0.7554
 2100SOL     OW16338   2.122   5.839   1.864  0.2816 -0.2441  0.3564
 2100SOL    HW116339   2.121   5.930   1.905  0.4064 -0.6964  1.3921
 2100SOL    HW216340   2.031   5.816   1.831 -0.1386 -0.3913  1.5792
 2101SOL     OW16341   1.062   2.603   0.836  0.1873  0.3585  0.0545
 2101SOL    HW116342   1.039   2.549   0.918 -1.7391  0.5253 -0.3544
 2101SOL    HW216343   0.982   2.654   0.807  1.0374  0.7582 -1.6096
 2102SOL     OW16344   0.688   8.294   1.558  0.1454 -0.0032  0.4842
 2102SOL    HW116345   0.658   8.201   1.576 -0.2574  0.0279 -0.0471
 2102SOL    HW216346   0.700   8.342   1.645  2.5535 -1.2395  0.8753
 2103SOL     OW16347   1.827   5.251   2.202 -0.0161  0.3296  0.4156
 2103SOL    HW116348   1.778   5.165   2.193  0.7910 -0.0589 -0.2987
 2103SOL    HW216349   1.810   5.308   2.121  1.2112 -0.0726 -0.1402
 2104SOL     OW16350   0.603   9.951   0.902  0.1717 -0.1148 -0.9113
 2104SOL    HW116351   0.514   9.969   0.944 -0.4296 -1.7052 -1.4454
 2104SOL    HW216352   0.661  10.032   0.910 -1.4584  1.0844 -0.9146
 2105SOL     OW16353   0.754   8.330   2.507 -0.6779  0.1169 -0.5163
 2105SOL    HW116354   0.747   8.400   2.578 -2.8611  1.9703 -2.4497
 2105SOL    HW216355   0.817   8.360   2.435 -0.4166 -0.6142 -0.6029
 2106SOL     OW16356   9.429   5.900   0.524  0.6339 -0.6543 -0.0644
 2106SOL    HW116357   9.502   5.941   0.578  1.8527 -2.2322 -0.4929
 2106SOL    HW216358   9.463   5.878   0.433 -0.9015  0.3122 -0.8998
 2107SOL     OW16359   3.544   0.957   1.851  0.2651 -0.1471  0.1549
 2107SOL    HW116360   3.488   1.038   1.835 -1.2524 -1.0690  0.7247
 2107SOL    HW216361   3.519   0.915   1.938  1.0375 -1.2179 -0.1286
 2108SOL     OW16362   3.775   0.225   0.961  0.3893  0.2807 -0.4837
 2108SOL    HW116363   3.742   0.166   0.887  0.0814 -0.1033 -0.0417
 2108SOL    HW216364   3.875   0.227   0.960  0.4953 -2.0367  0.8622
 2109SOL     OW16365   0.821   2.285   1.406  0.2005 -0.2929 -0.1821
 2109SOL    HW116366   0.820   2.384   1.422  1.4718 -0.2630 -0.1773
 2109SOL    HW216367   0.733   2.245   1.432 -0.7581  1.0210 -1.4138
 2110SOL     OW16368   2.028   2.477   1.790  0.3399  0.2546 -0.3313
 2110SOL    HW116369   1.961   2.406   1.767 -1.0600  0.2669  3.4248
 2110SOL    HW216370   1.980   2.558   1.822  2.1028  1.0314  0.3675
 2111SOL     OW16371   3.691   2.516   2.359 -0.2610 -0.0617  0.2653
 2111SOL    HW116372   3.606   2.475   2.325  0.5505 -1.6480  0.1330
 2111SOL    HW216373   3.742   2.554   2.282 -0.1148 -0.4893  0.1495
 2112SOL     OW16374   0.400   7.710   1.865  0.6819  0.6254 -0.1136
 2112SOL    HW116375   0.385   7.625   1.915  1.3838  0.2286 -0.5816
 2112SOL    HW216376   0.358   7.703   1.774 -0.3968  1.2630  0.3256
 2113SOL     OW16377   1.873   1.311   0.787  0.4882 -0.5050  0.3315
 2113SOL    HW116378   1.825   1.235   0.831 -0.7410  1.2459  2.1269
 2113SOL    HW216379   1.809   1.387   0.774  2.0780  0.8046  0.0301
 2114SOL     OW16380   0.232   9.114   0.908  0.5619  0.2275  0.2595
 2114SOL    HW116381   0.294   9.159   0.843  1.7997 -0.1898  1.1349
 2114SOL    HW216382   0.209   9.023   0.875  0.4408  0.3710 -0.0528
 2115SOL     OW16383   2.278   9.144   2.235 -0.2876 -0.0531  0.2885
 2115SOL    HW116384   2.317   9.094   2.312  0.5512 -0.1056 -0.1583
 2115SOL    HW216385   2.191   9.103   2.208 -0.1263 -0.6106  0.6132
 2116SOL     OW16386   2.439   3.087   1.285 -0.4643  0.0015 -0.6109
 2116SOL    HW116387   2.422   3.071   1.188 -1.6170 -1.9176 -0.1164
 2116SOL    HW216388   2.430   3.001   1.335 -0.2905  1.0470  1.2647
 2117SOL     OW16389   2.410   1.386   1.502 -0.2898  0.0631  0.0631
 2117SOL    HW116390   2.380   1.391   1.598 -0.9263 -0.0459 -0.1273
 2117SOL    HW216391   2.337   1.346   1.447  0.7827 -1.6098 -0.1675
 2118SOL     OW16392   2.822   2.250   2.018 -0.0660 -0.0709 -0.4379
 2118SOL    HW116393   2.750   2.238   2.086 -1.5717  1.0970 -1.7895
 2118SOL    HW216394   2.904   2.285   2.062 -0.9691  0.5123  0.8011
 2119SOL     OW16395   1.564   8.986   0.585  0.4666 -0.4411 -0.3946
 2119SOL    HW116396   1.641   8.937   0.544  0.6719 -0.5221  0.0810
 2119SOL    HW216397   1.479   8.950   0.547  0.5839 -1.6745  0.4536
 2120SOL     OW16398   0.697   5.280   2.197  0.2865  0.1364  0.3569
 2120SOL    HW116399   0.621   5.343   2.211 -1.3406 -1.7473  0.2844
 2120SOL    HW216400   0.753   5.311   2.121 -1.3035  0.7652 -0.5788
 2121SOL     OW16401   2.720   8.292   1.539  0.8746  0.0491 -0.1404
 2121SOL    HW116402   2.642   8.351   1.558  1.1079  0.1857  0.3989
 2121SOL    HW216403   2.796   8.315   1.600  1.2559 -0.2432 -0.4965
 2122SOL     OW16404   3.162   3.141   1.287  0.2693  0.0744  0.0879
 2122SOL    HW116405   3.080   3.158   1.233 -0.5388  1.0659  1.5720
 2122SOL    HW216406   3.234   3.104   1.229 -0.9382  0.0397 -1.4107
 2123SOL     OW16407   4.561   2.783   2.507 -0.2655  0.0145  0.2480
 2123SOL    HW116408   4.486   2.732   2.551  0.6296 -0.8606  0.7873
 2123SOL    HW216409   4.612   2.721   2.448 -1.1059  1.0547 -1.5936
 2124SOL     OW16410   3.864   2.124   1.586 -0.1089 -0.1838  0.3912
 2124SOL    HW116411   3.860   2.192   1.514  0.9021  0.9068  1.3435
 2124SOL    HW216412   3.832   2.036   1.550 -0.8060  0.6220 -1.0199
 2125SOL     OW16413   2.172   6.946   2.268  0.0686 -0.3480 -0.1206
 2125SOL    HW116414   2.260   6.900   2.256 -0.8954 -1.9833 -1.0358
 2125SOL    HW216415   2.172   7.032   2.217  1.2400 -0.1594  0.1686
 2126SOL     OW16416   3.850   1.139   1.905 -0.7373  0.6335 -0.9658
 2126SOL    HW116417   3.807   1.144   1.816  0.0984  3.2030 -1.2838
 2126SOL    HW216418   3.851   1.230   1.947 -1.4166 -0.5861  1.8090
 2127SOL     OW16419   2.310   2.183   2.099  0.4991  0.2034 -0.0268
 2127SOL    HW116420   2.230   2.235   2.068  1.8889  1.3715 -1.7856
 2127SOL    HW216421   2.286   2.087   2.109 -1.4080  0.7195  0.5435
 2128SOL     OW16422   1.059   9.537   0.127 -0.5177  0.2059  0.1714
 2128SOL    HW116423   1.118   9.457   0.118  0.4055  0.7507  1.2505
 2128SOL    HW216424   0.974   9.510   0.172 -1.2008 -0.6263 -1.5949
 2129SOL     OW16425   3.032   0.147   0.168 -0.3131 -0.3685  0.1645
 2129SOL    HW116426   2.988   0.098   0.243  1.3922 -3.2935 -0.6859
 2129SOL    HW216427   3.104   0.206   0.205 -2.2037  1.3636  1.1679
 2130SOL     OW16428   9.399   3.914   1.704  0.1474 -0.1402 -0.4558
 2130SOL    HW116429   9.378   3.828   1.657  0.5455 -0.9732  0.8695
 2130SOL    HW216430   9.351   3.989   1.659  0.0055 -1.0148 -1.7940
 2131SOL     OW16431   1.292   5.845   0.578  0.1511  0.1656  0.2234
 2131SOL    HW116432   1.206   5.896   0.581  0.6017  0.9356  0.1918
 2131SOL    HW216433   1.330   5.849   0.485  0.0205 -0.5116  0.1364
 2132SOL     OW16434   2.230   3.117   0.646 -0.0830  0.1378  0.4839
 2132SOL    HW116435   2.192   3.025   0.660  1.5463 -0.3026  2.2895
 2132SOL    HW216436   2.198   3.178   0.718 -1.7389  1.2066 -1.1214
 2133SOL     OW16437   9.181   1.948   0.846  0.6695  0.1349 -0.3823
 2133SOL    HW116438   9.203   1.852   0.861 -1.9445 -0.3579  0.5881
 2133SOL    HW216439   9.182   1.997   0.933 -1.9286  0.0767 -0.2739
 2134SOL     OW16440   1.001   4.994   1.245 -0.3850 -0.5857  0.1156
 2134SOL    HW116441   1.019   4.900   1.216 -1.2086 -1.5513  2.5934
 2134SOL    HW216442   0.972   5.048   1.166 -0.0467 -2.4426 -1.3161
 2135SOL     OW16443   1.540   0.179   0.091 -0.4171  0.1593 -0.4088
 2135SOL    HW116444   1.626   0.145   0.054 -0.4880 -0.0717 -0.3633
 2135SOL    HW216445   1.507   0.117   0.162  0.0625  0.9688  0.5338
 2136SOL     OW16446   2.521   5.834   0.155 -0.6740 -0.3727  0.1006
 2136SOL    HW116447   2.533   5.848   0.056  0.5114 -1.2601  0.1031
 2136SOL    HW216448   2.547   5.741   0.178 -1.9988 -0.4957  1.0974
 2137SOL     OW16449   1.285   0.609   0.815 -0.0077 -0.8462  0.7881
 2137SOL    HW116450   1.199   0.632   0.860  0.9410  0.9064  1.7608
 2137SOL    HW216451   1.304   0.675   0.743 -0.0205 -1.8828 -0.1700
 2138SOL     OW16452   1.815   5.465   1.701 -0.3102  0.0571  0.6557
 2138SOL    HW116453   1.836   5.504   1.611  1.3854 -0.7447  0.6800
 2138SOL    HW216454   1.722   5.429   1.700 -1.8647  3.8134  0.5589
 2139SOL     OW16455   0.309   7.431   2.399 -0.0504  0.2569  0.7035
 2139SOL    HW116456   0.342   7.483   2.320  0.0691 -1.8789 -0.7030
 2139SOL    HW216457   0.292   7.493   2.476  2.4031  2.0393 -0.1350
 2140SOL     OW16458   3.870   3.092   0.620 -0.1368 -0.1304  0.3552
 2140SOL    HW116459   3.779   3.065   0.587  0.2753  1.2352 -1.9781
 2140SOL    HW216460   3.940   3.039   0.573  0.3994  0.7493  0.1585
 2141SOL     OW16461   0.441   2.904   1.477  0.0079 -0.1267 -0.3093
 2141SOL    HW116462   0.423   2.979   1.414  0.7552 -0.6704 -1.1699
 2141SOL    HW216463   0.447   2.940   1.571 -3.3208  0.3783 -0.2478
 2142SOL     OW16464   9.081   1.008   0.859 -0.2366  0.4122  0.3047
 2142SOL    HW116465   9.078   1.096   0.810  1.3528  1.1273  1.4467
 2142SOL    HW216466   9.162   0.957   0.831 -2.1302 -1.6202 -1.7950
 2143SOL     OW16467   3.778   0.035   1.209  0.1861 -0.3906 -0.4821
 2143SOL    HW116468   3.804  -0.047   1.158 -1.7234 -0.2120 -1.7965
 2143SOL    HW216469   3.860   0.079   1.245  1.1884 -3.5215  1.2998
 2144SOL     OW16470   0.383   3.619   2.213  0.2439 -0.2340  0.2600
 2144SOL    HW116471   0.441   3.701   2.214  2.5727 -1.8144  0.9992
 2144SOL    HW216472   0.362   3.594   2.119  0.6581  0.4479 -0.0153
 2145SOL     OW16473   1.573   5.747   2.391  0.4120  0.2710  0.3735
 2145SOL    HW116474   1.663   5.740   2.434 -0.0354  2.0201  1.6247
 2145SOL    HW216475   1.562   5.838   2.350 -0.4627 -0.2402 -0.5556
 2146SOL     OW16476   1.844   7.922   1.704 -0.0292  0.4874 -0.3148
 2146SOL    HW116477   1.916   7.991   1.701  0.4043  0.0026 -1.0766
 2146SOL    HW216478   1.881   7.836   1.738 -0.4932  0.5283  0.3117
 2147SOL     OW16479   1.339   1.760   0.348 -0.5172  0.1579  0.1452
 2147SOL    HW116480   1.285   1.843   0.335  0.9472  0.9498 -1.1458
 2147SOL    HW216481   1.319   1.695   0.274  2.1573  1.5284 -1.8905
 2148SOL     OW16482   2.138   3.065   1.511  0.3095  0.2231 -0.0144
 2148SOL    HW116483   2.221   3.016   1.536 -1.1592 -2.4134 -0.0612
 2148SOL    HW216484   2.117   3.047   1.414 -0.2520  0.9209 -0.0252
 2149SOL     OW16485   1.752   1.729   1.654  1.0382  0.0012  0.2927
 2149SOL    HW116486   1.720   1.743   1.560  3.9962  0.7520 -0.6574
 2149SOL    HW216487   1.758   1.817   1.700 -1.6086 -0.4773  1.6616
 2150SOL     OW16488   1.781   2.293   2.064  0.0566 -0.4300 -0.3731
 2150SOL    HW116489   1.747   2.360   2.130  0.9506 -0.8797  0.5686
 2150SOL    HW216490   1.881   2.292   2.067  0.0765 -1.1114 -1.0831
 2151SOL     OW16491   2.606   4.670   0.940  0.9162  0.3432 -0.2119
 2151SOL    HW116492   2.586   4.591   0.881  2.3832 -1.5054  1.6958
 2151SOL    HW216493   2.522   4.699   0.985  0.0380  0.9386 -2.1565
 2152SOL     OW16494   2.416   4.528   2.102 -0.7563  0.6879  0.2045
 2152SOL    HW116495   2.352   4.484   2.040  0.9050  0.5427 -1.4295
 2152SOL    HW216496   2.439   4.619   2.067  0.4739  0.4553  0.4078
 2153SOL     OW16497   2.648   0.405   2.451 -0.0986 -0.2297  0.0249
 2153SOL    HW116498   2.688   0.327   2.500  1.5378  0.8345  0.4375
 2153SOL    HW216499   2.632   0.380   2.355 -1.2349 -1.6151  0.5632
 2154SOL     OW16500   0.245   5.807   1.430 -0.1004  0.3747  0.1932
 2154SOL    HW116501   0.208   5.780   1.519  2.6267  1.1196  1.6025
 2154SOL    HW216502   0.211   5.898   1.405  1.0284  1.2003  1.6333
 2155SOL     OW16503   8.997   5.532   1.216  0.1873  0.4166  0.2293
 2155SOL    HW116504   9.073   5.569   1.163 -0.4350  0.7506 -0.4346
 2155SOL    HW216505   8.995   5.575   1.306  1.2368 -0.1390  0.5359
 2156SOL     OW16506   3.633   0.598   1.942 -0.6061 -0.3932  0.1106
 2156SOL    HW116507   3.661   0.649   1.861  1.5732 -0.2169  0.9657
 2156SOL    HW216508   3.552   0.543   1.920  0.9690 -1.7015 -2.7125
 2157SOL     OW16509   1.382   3.309   1.719 -1.1158  0.2951  0.1120
 2157SOL    HW116510   1.323   3.353   1.652 -0.7682  0.0486 -0.3582
 2157SOL    HW216511   1.330   3.292   1.803 -1.8283 -0.2801 -0.4354
 2158SOL     OW16512   8.828   5.158   2.088 -0.0477 -0.1259  0.5140
 2158SOL    HW116513   8.781   5.071   2.102 -1.4906  0.7388  1.1989
 2158SOL    HW216514   8.761   5.232   2.090  1.1512  0.9908 -0.1983
 2159SOL     OW16515   8.569   4.009   0.604  0.0931 -0.4319  0.2196
 2159SOL    HW116516   8.502   4.001   0.531  1.2785 -0.5256 -0.8746
 2159SOL    HW216517   8.522   4.023   0.691 -1.2469  3.2613 -1.0142
 2160SOL     OW16518   1.863   7.534   0.764  0.7079  0.0331 -0.2043
 2160SOL    HW116519   1.853   7.587   0.848 -1.0350 -1.0115  0.2659
 2160SOL    HW216520   1.951   7.486   0.765  0.0285 -1.2408  1.7803
 2161SOL     OW16521   9.503   3.438   2.548 -0.4175 -0.0513  0.3756
 2161SOL    HW116522   9.438   3.451   2.623 -1.1264  0.6558 -0.3479
 2161SOL    HW216523   9.571   3.512   2.551 -0.3531 -0.1117  0.4104
 2162SOL     OW16524   2.436   2.265   0.338  0.0385 -0.3253 -0.1954
 2162SOL    HW116525   2.432   2.362   0.361  2.0572 -0.3336  0.2843
 2162SOL    HW216526   2.453   2.255   0.240 -0.9414 -0.2131 -0.3823
 2163SOL     OW16527   1.948   3.131   1.962 -0.4640  0.4043  0.4801
 2163SOL    HW116528   1.963   3.071   1.883 -2.0073 -0.5842  0.9015
 2163SOL    HW216529   1.997   3.095   2.041 -1.9588 -0.7363  0.9146
 2164SOL     OW16530   0.755   0.191   0.979 -0.6295 -0.2988  0.2882
 2164SOL    HW116531   0.696   0.171   1.057 -1.0551  0.3174  0.1296
 2164SOL    HW216532   0.731   0.280   0.941 -0.3417 -0.5416 -0.4758
 2165SOL     OW16533   1.396   2.408   1.820 -0.0090 -0.0111  0.2705
 2165SOL    HW116534   1.316   2.356   1.789 -1.5362  1.7324  1.2427
 2165SOL    HW216535   1.444   2.445   1.741 -1.4248  0.7732 -0.2441
 2166SOL     OW16536   1.186   7.126   2.529  0.8435 -0.3704  0.4761
 2166SOL    HW116537   1.257   7.164   2.470  0.9934  0.7990  1.3930
 2166SOL    HW216538   1.121   7.074   2.474  1.0660  0.5633 -0.6901
 2167SOL     OW16539   0.511   2.237   1.041 -0.2157 -0.0646 -0.1763
 2167SOL    HW116540   0.435   2.237   0.976  0.6598 -0.2571 -1.2189
 2167SOL    HW216541   0.496   2.167   1.111  0.1728 -1.7689 -1.7737
 2168SOL     OW16542   1.882   3.745   0.626 -0.2479 -0.2536  0.1171
 2168SOL    HW116543   1.953   3.721   0.560 -1.0240 -2.7070  0.0888
 2168SOL    HW216544   1.803   3.782   0.578 -0.1430 -0.4001 -0.1701
 2169SOL     OW16545   9.482   3.312   2.313 -0.0138 -0.4133 -0.0663
 2169SOL    HW116546   9.547   3.345   2.244 -1.1981  0.5016 -0.7734
 2169SOL    HW216547   9.493   3.364   2.397 -2.6197  2.6932 -1.5279
 2170SOL     OW16548   8.828   4.795   1.682  0.1139  0.0745  0.6444
 2170SOL    HW116549   8.789   4.769   1.594  2.0690  3.2884 -1.2518
 2170SOL    HW216550   8.889   4.722   1.714  1.3061 -0.0979 -1.9167
 2171SOL     OW16551   2.352   6.761   2.235 -0.3664 -0.1803  0.9752
 2171SOL    HW116552   2.358   6.661   2.230 -1.4236 -0.2105  0.1299
 2171SOL    HW216553   2.429   6.801   2.184 -0.3351 -0.5607  0.7155
 2172SOL     OW16554   0.289   8.613   2.433 -1.0265  0.0403 -0.0303
 2172SOL    HW116555   0.243   8.690   2.478 -0.8811 -0.5936  1.2104
 2172SOL    HW216556   0.387   8.630   2.430 -1.0004 -0.0705  0.1939
 2173SOL     OW16557   3.822   8.641   0.750  0.2361  0.6872 -0.4836
 2173SOL    HW116558   3.920   8.629   0.765 -0.4356 -1.8899  2.5383
 2173SOL    HW216559   3.792   8.728   0.789  0.9471  0.3687  0.8184
 2174SOL     OW16560   4.059   4.669   0.737  0.5097  0.4895 -0.6056
 2174SOL    HW116561   4.133   4.623   0.687  1.5426 -0.8270  2.0427
 2174SOL    HW216562   3.974   4.617   0.727  0.8893 -0.1755 -0.3745
 2175SOL     OW16563   0.514   8.023   1.250  0.0640  0.0775 -0.2643
 2175SOL    HW116564   0.418   8.008   1.272  0.2731  0.4215  0.8823
 2175SOL    HW216565   0.522   8.049   1.153 -1.0236  0.4376 -0.2599
 2176SOL     OW16566   9.883   9.487   2.578  0.5642  0.4035  0.2839
 2176SOL    HW116567   9.983   9.482   2.575  0.5211  0.2542 -2.6704
 2176SOL    HW216568   9.853   9.581   2.565  0.2985  0.2941  0.0826
 2177SOL     OW16569   9.903   2.446   0.152 -0.3663  0.1713 -0.4758
 2177SOL    HW116570   9.966   2.370   0.142 -0.6298 -0.0930 -0.1437
 2177SOL    HW216571   9.854   2.460   0.066  1.4483  1.5497 -1.3113
 2178SOL     OW16572   1.272   1.516   0.974 -0.2842 -1.0219  0.2205
 2178SOL    HW116573   1.245   1.608   0.946  0.1210 -0.6888  0.9182
 2178SOL    HW216574   1.199   1.452   0.952  0.1886 -0.8519 -2.0305
 2179SOL     OW16575   0.736   8.943   2.357  0.1511  0.3463 -0.3098
 2179SOL    HW116576   0.764   8.849   2.337  0.3649 -0.1219  2.0334
 2179SOL    HW216577   0.666   8.941   2.429 -2.0369  1.8148 -2.3168
 2180SOL     OW16578   2.244   0.606   0.923  0.5289 -0.0211 -0.2374
 2180SOL    HW116579   2.239   0.556   1.009 -1.3494  1.2394  0.4080
 2180SOL    HW216580   2.330   0.584   0.877  0.4835 -2.5405  0.8129
 2181SOL     OW16581   0.729   7.814   1.739 -0.6847  0.5827  0.2645
 2181SOL    HW116582   0.722   7.791   1.642 -0.2392 -0.1036  0.3915
 2181SOL    HW216583   0.648   7.781   1.787  0.4280 -1.6840  0.6287
 2182SOL     OW16584   1.212   9.049   0.513  0.1221 -0.2828  0.0388
 2182SOL    HW116585   1.252   8.958   0.524 -0.0017 -0.5084 -1.3387
 2182SOL    HW216586   1.182   9.082   0.602 -1.2496 -2.2381  0.3476
 2183SOL     OW16587   2.183   2.496   1.106 -0.0752 -0.4832 -0.0437
 2183SOL    HW116588   2.266   2.448   1.135 -0.0710 -0.1144  0.5691
 2183SOL    HW216589   2.103   2.444   1.135 -0.0590 -0.9943 -0.9046
 2184SOL     OW16590   2.198   3.065   0.989  0.3036  0.2226 -0.2197
 2184SOL    HW116591   2.193   3.140   1.056  1.2343 -0.5459  0.7244
 2184SOL    HW216592   2.261   2.995   1.021  0.8448 -0.1236 -1.9629
 2185SOL     OW16593   2.140   4.456   0.379  0.2739 -0.1775  0.3097
 2185SOL    HW116594   2.086   4.465   0.295  0.1918  0.5464  0.4423
 2185SOL    HW216595   2.081   4.426   0.454 -0.0602  1.1706  0.5896
 2186SOL     OW16596   9.322   4.293   1.034 -0.3678 -0.3607  0.1681
 2186SOL    HW116597   9.366   4.316   1.120  1.3222 -0.8262 -0.5654
 2186SOL    HW216598   9.349   4.359   0.964 -0.2811 -1.0535 -0.4540
 2187SOL     OW16599   0.323   8.164   1.728 -0.3388 -0.1975  0.0739
 2187SOL    HW116600   0.287   8.112   1.805  0.3450 -1.6982 -0.6000
 2187SOL    HW216601   0.350   8.102   1.654  4.0618  0.7285  0.7182
 2188SOL     OW16602   1.852   7.029   0.838 -0.5977  0.0203 -0.0681
 2188SOL    HW116603   1.813   7.081   0.762  1.9112 -1.3605 -2.3506
 2188SOL    HW216604   1.950   7.045   0.843  0.1253 -3.8212 -0.3341
 2189SOL     OW16605   9.829   0.920   1.544 -0.2276  0.5299  0.0485
 2189SOL    HW116606   9.871   0.913   1.634 -0.4869 -1.0484  0.0530
 2189SOL    HW216607   9.896   0.896   1.473 -1.0517 -1.9525  0.0547
 2190SOL     OW16608   1.958   4.357   1.112  0.3023 -0.3947 -0.0827
 2190SOL    HW116609   1.899   4.305   1.051  1.4161 -0.1452 -1.4041
 2190SOL    HW216610   1.977   4.447   1.071  0.6248 -0.0153  0.8846
 2191SOL     OW16611   3.113   4.817   0.839  0.1646 -0.0782 -1.0373
 2191SOL    HW116612   3.027   4.830   0.791 -1.2437 -1.7874  0.9558
 2191SOL    HW216613   3.116   4.876   0.919  0.9647  0.1348 -1.2175
 2192SOL     OW16614   1.275   3.892   2.017 -0.2019  0.1137 -0.1941
 2192SOL    HW116615   1.216   3.833   2.073 -0.6007  0.2910 -0.4245
 2192SOL    HW216616   1.370   3.877   2.042 -0.5337  2.0325  2.2957
 2193SOL     OW16617   2.358   9.386   0.416  0.6647 -0.2704  0.2962
 2193SOL    HW116618   2.419   9.311   0.390  0.3895 -0.7328  0.9801
 2193SOL    HW216619   2.412   9.459   0.460  0.9412 -0.0303 -0.4309
 2194SOL     OW16620   1.884   5.299   0.747 -0.4271 -0.1546  0.3640
 2194SOL    HW116621   1.916   5.340   0.832  1.6172  0.0873 -0.5022
 2194SOL    HW216622   1.855   5.371   0.684  0.8926 -0.1518 -0.2543
 2195SOL     OW16623   0.774   1.293   0.629  0.1735  0.2024 -0.2106
 2195SOL    HW116624   0.807   1.219   0.687  0.0783  1.8952  2.0943
 2195SOL    HW216625   0.674   1.294   0.631  0.1556 -0.0723 -0.8593
 2196SOL     OW16626   1.866   2.625   1.198 -0.0073  0.2648  0.0700
 2196SOL    HW116627   1.796   2.695   1.216  0.4591  1.0485 -1.1029
 2196SOL    HW216628   1.909   2.597   1.284  0.7157  2.3846  0.4129
 2197SOL     OW16629   9.466   5.420   1.292  0.1849 -0.5261 -0.0134
 2197SOL    HW116630   9.395   5.365   1.248 -0.2862  0.0992 -0.0326
 2197SOL    HW216631   9.552   5.370   1.290 -0.3186 -1.4166  0.2624
 2198SOL     OW16632   8.242   1.406   2.179 -0.2016  0.0517  0.2505
 2198SOL    HW116633   8.153   1.434   2.142 -0.1090  1.3302  0.9608
 2198SOL    HW216634   8.311   1.413   2.108 -0.5878 -0.5305 -0.1867
 2199SOL     OW16635   1.056   7.565   0.589 -0.4368  0.0680  0.1312
 2199SOL    HW116636   1.068   7.521   0.500  0.7786 -1.7278  1.1537
 2199SOL    HW216637   0.963   7.550   0.621  0.0130 -1.9914  0.5542
 2200SOL     OW16638   4.248   1.061   1.806  0.1097 -0.2976 -0.0417
 2200SOL    HW116639   4.215   1.008   1.728 -0.1633 -0.7127  0.3610
 2200SOL    HW216640   4.216   1.020   1.891  0.2447  0.2691  0.2858
 2201SOL     OW16641   9.678   6.191   2.079 -0.0620 -0.3008  0.7631
 2201SOL    HW116642   9.617   6.116   2.055 -0.2028  0.3023 -0.8464
 2201SOL    HW216643   9.773   6.164   2.064 -0.0493 -0.5202  1.2321
 2202SOL     OW16644   1.629   5.248   1.694 -0.1079  0.1074 -0.8324
 2202SOL    HW116645   1.673   5.159   1.706  0.8728  0.8433  1.2992
 2202SOL    HW216646   1.530   5.237   1.706  0.3632 -0.0432  3.9274
 2203SOL     OW16647   0.763   2.712   2.200  0.7140  0.7398  1.0369
 2203SOL    HW116648   0.765   2.712   2.100  1.3527  1.7220  1.0417
 2203SOL    HW216649   0.851   2.745   2.235  1.1009 -1.2008  1.9477
 2204SOL     OW16650   2.230   4.869   1.946 -0.0484 -0.5107  0.1375
 2204SOL    HW116651   2.203   4.925   2.025  1.3909 -0.4951  0.6272
 2204SOL    HW216652   2.321   4.833   1.961  0.2885 -0.4034 -1.5904
 2205SOL     OW16653   2.594   6.164   1.585  0.3798 -0.2206  0.1394
 2205SOL    HW116654   2.510   6.174   1.532  1.2657  1.5061 -1.0054
 2205SOL    HW216655   2.632   6.073   1.572 -0.7588 -0.6540 -0.1798
 2206SOL     OW16656   3.461   0.787   0.172  0.1941  0.0665  0.2563
 2206SOL    HW116657   3.374   0.823   0.206 -0.1066  0.7387 -1.1975
 2206SOL    HW216658   3.535   0.850   0.197 -0.1437  1.0150 -1.0595
 2207SOL     OW16659   1.738   4.420   0.664  0.1853 -0.1745 -0.2808
 2207SOL    HW116660   1.664   4.431   0.730 -0.7342 -0.4721 -1.2591
 2207SOL    HW216661   1.815   4.373   0.707  0.3197  1.2786  1.1123
 2208SOL     OW16662   1.751   1.249   2.205 -0.2221  0.2735  0.0448
 2208SOL    HW116663   1.725   1.240   2.301 -0.8046  0.1720 -0.1197
 2208SOL    HW216664   1.843   1.212   2.192 -0.9780 -1.7006  0.1469
 2209SOL     OW16665   0.291   5.988   2.411 -0.5590  0.3289  0.3291
 2209SOL    HW116666   0.254   5.991   2.504  0.1058 -1.3738  0.6714
 2209SOL    HW216667   0.352   5.909   2.402  0.3598  1.1933 -1.1984
 2210SOL     OW16668   1.735   1.086   0.885 -0.3900  0.6707 -0.1496
 2210SOL    HW116669   1.649   1.082   0.834  0.3646  1.5061 -1.5484
 2210SOL    HW216670   1.775   0.995   0.890 -0.4494  0.5825 -1.1260
 2211SOL     OW16671   0.859   7.313   1.289 -0.7681 -0.1721 -0.0990
 2211SOL    HW116672   0.926   7.375   1.248  0.1706 -0.6392  0.7048
 2211SOL    HW216673   0.808   7.266   1.217  2.4535 -2.7332 -0.8622
 2212SOL     OW16674   0.027   6.396   1.032 -0.4207 -0.1388  0.1870
 2212SOL    HW116675   0.106   6.355   0.986 -0.7697 -0.4750 -0.1226
 2212SOL    HW216676   0.008   6.485   0.990 -2.1201 -1.4277 -1.8821
 2213SOL     OW16677   1.187   7.990   1.956 -0.7560 -0.8704  0.1997
 2213SOL    HW116678   1.134   7.955   2.033 -2.1150 -1.6446 -1.0500
 2213SOL    HW216679   1.182   7.924   1.881  2.0619 -1.0017  0.0766
 2214SOL     OW16680   8.793   2.687   1.463  0.2847 -0.1562  0.2513
 2214SOL    HW116681   8.770   2.774   1.507 -0.6656 -0.3333  0.1241
 2214SOL    HW216682   8.767   2.691   1.367 -1.4451 -1.2127  0.6611
 2215SOL     OW16683   3.511   3.288   1.973  0.6198 -0.1942  0.0058
 2215SOL    HW116684   3.444   3.297   1.899  1.1530  2.0517 -0.2226
 2215SOL    HW216685   3.556   3.375   1.989  3.9133 -1.7858 -0.1726
 2216SOL     OW16686   0.323   3.181   0.746  0.1632 -0.0416  0.0234
 2216SOL    HW116687   0.383   3.101   0.751  0.0958 -0.1725 -1.1343
 2216SOL    HW216688   0.244   3.160   0.688  0.0686  0.8104 -0.1584
 2217SOL     OW16689   9.256   2.875   2.188 -0.5048  0.2219  0.3889
 2217SOL    HW116690   9.348   2.891   2.225 -0.7409  0.4382  0.8724
 2217SOL    HW216691   9.201   2.957   2.198 -0.5195  0.3438 -0.5986
 2218SOL     OW16692   1.648   4.050   0.790  0.0020  0.0626 -0.1526
 2218SOL    HW116693   1.687   4.054   0.698  1.4583 -1.3240  0.3842
 2218SOL    HW216694   1.548   4.051   0.783  0.0880  1.9464 -1.6365
 2219SOL     OW16695   2.130   3.364   1.892  0.1017  0.0169 -0.9308
 2219SOL    HW116696   2.065   3.299   1.931  0.8465 -0.7139 -0.9157
 2219SOL    HW216697   2.151   3.436   1.959  1.6469 -1.4210  0.1540
 2220SOL     OW16698   9.884   8.478   0.898 -0.0867  0.5801  0.2652
 2220SOL    HW116699   9.904   8.523   0.811 -0.6244  3.0012  1.3553
 2220SOL    HW216700   9.845   8.544   0.961  0.0233 -1.2264  2.2726
 2221SOL     OW16701   0.137   5.830   0.639 -0.4406 -0.2224  0.0167
 2221SOL    HW116702   0.181   5.916   0.612  0.8297 -0.3597  1.5569
 2221SOL    HW216703   0.076   5.847   0.716  0.9671 -0.9251  1.3214
 2222SOL     OW16704   1.586   1.567   0.581  0.1130  0.4148  0.4061
 2222SOL    HW116705   1.511   1.501   0.584 -0.1111  0.6506  0.0548
 2222SOL    HW216706   1.632   1.563   0.492  1.1669 -0.4339  0.9783
 2223SOL     OW16707   9.329   2.057   0.565 -0.0911  0.6063 -0.4100
 2223SOL    HW116708   9.266   2.122   0.607  1.1305  3.2331 -2.5056
 2223SOL    HW216709   9.415   2.056   0.616 -0.3029  0.1907 -0.0537
 2224SOL     OW16710   8.781   1.372   0.421 -0.3001  0.0054  0.5711
 2224SOL    HW116711   8.705   1.351   0.359 -0.2956 -1.4851  1.0489
 2224SOL    HW216712   8.866   1.376   0.369 -0.5526  0.6284  0.1986
 2225SOL     OW16713   1.479   0.671   1.377  0.0769 -0.2859  0.1147
 2225SOL    HW116714   1.545   0.658   1.303  1.1709  0.1328  1.0059
 2225SOL    HW216715   1.419   0.747   1.355  1.2711  0.7107  0.2489
 2226SOL     OW16716   2.026   7.032   1.351  0.0667 -0.0222  0.5133
 2226SOL    HW116717   1.929   7.048   1.329  0.8912  1.2618 -2.5045
 2226SOL    HW216718   2.074   7.119   1.353  1.5273 -0.8054  0.0551
 2227SOL     OW16719   0.671   7.406   2.085  0.2713  0.3851 -0.1898
 2227SOL    HW116720   0.742   7.465   2.123 -0.2056 -0.2573  1.7632
 2227SOL    HW216721   0.713   7.321   2.053  0.3417 -0.2065  1.4231
 2228SOL     OW16722   9.974   6.725   1.178 -0.1301  0.1174 -0.1260
 2228SOL    HW116723   9.984   6.724   1.079  1.4255  0.8862  0.0083
 2228SOL    HW216724   9.941   6.814   1.209  1.4179  0.5846  0.2151
 2229SOL     OW16725   1.169   2.228   1.766 -0.2765  0.3240 -0.5467
 2229SOL    HW116726   1.202   2.159   1.830 -0.2536  0.5316 -0.3314
 2229SOL    HW216727   1.120   2.299   1.817  2.1666  1.9786 -0.4086
 2230SOL     OW16728   9.786   3.344   0.182 -0.2412  0.4152 -0.8502
 2230SOL    HW116729   9.840   3.370   0.101  0.6273  0.4766 -0.2557
 2230SOL    HW216730   9.728   3.420   0.209  0.2797  0.7785 -0.7555
 2231SOL     OW16731   9.228   3.286   2.429  0.2591  0.4052 -0.5248
 2231SOL    HW116732   9.320   3.269   2.392  0.9521  1.1057  0.8161
 2231SOL    HW216733   9.220   3.383   2.453 -0.4697  0.1363  0.3371
 2232SOL     OW16734   1.944   7.110   1.642  0.5027  0.5434 -0.0397
 2232SOL    HW116735   1.913   7.039   1.705 -0.1270 -1.1900 -2.2476
 2232SOL    HW216736   2.034   7.086   1.607  0.6463  1.2608 -0.1759
 2233SOL     OW16737   4.404   3.400   0.237  0.8982 -0.5446  0.3446
 2233SOL    HW116738   4.454   3.364   0.316 -0.2881  1.4909  2.0713
 2233SOL    HW216739   4.462   3.464   0.187  0.4931  0.8505  1.6207
 2234SOL     OW16740   1.726   8.484   2.033 -0.2455 -0.3088 -0.5414
 2234SOL    HW116741   1.667   8.510   2.110 -0.5972  4.3130 -2.2227
 2234SOL    HW216742   1.819   8.469   2.066 -0.8978 -0.7620  1.1291
 2235SOL     OW16743   9.287   3.536   0.768  0.3803 -0.1951  0.3172
 2235SOL    HW116744   9.385   3.543   0.782  0.1269  0.4162  1.8327
 2235SOL    HW216745   9.267   3.453   0.715  1.8572  0.6794 -1.6836
 2236SOL     OW16746   4.305   1.239   2.133  0.0109 -0.0559  0.0554
 2236SOL    HW116747   4.255   1.207   2.053  1.9631 -0.0315 -1.1920
 2236SOL    HW216748   4.315   1.339   2.129  2.7201 -0.3371 -1.2559
 2237SOL     OW16749   1.927   6.194   0.189 -0.2469  0.0668  0.4544
 2237SOL    HW116750   1.978   6.280   0.187 -0.7762  0.3925  0.6502
 2237SOL    HW216751   1.947   6.141   0.106 -0.6338  0.8052 -0.1212
 2238SOL     OW16752   9.198   4.099   0.872  0.7446 -0.1912  0.8768
 2238SOL    HW116753   9.243   4.144   0.949  1.2221  0.6257  0.1364
 2238SOL    HW216754   9.264   4.086   0.797 -0.0993  0.5428 -0.0165
 2239SOL     OW16755   9.924   9.118   0.695 -0.2424  0.0176 -0.3761
 2239SOL    HW116756   9.979   9.143   0.774 -0.5642  0.9861 -0.4612
 2239SOL    HW216757   9.905   9.199   0.640  0.0146 -0.6566 -1.4704
 2240SOL     OW16758   1.267   2.188   2.225  0.1852 -0.2090  0.2157
 2240SOL    HW116759   1.211   2.271   2.220 -0.7779 -0.9206 -1.1697
 2240SOL    HW216760   1.305   2.179   2.317 -1.0231  0.9121  0.8442
 2241SOL     OW16761   0.212   8.166   0.175 -0.2005  0.1021 -0.2453
 2241SOL    HW116762   0.153   8.201   0.101  0.3488 -1.7870 -1.6151
 2241SOL    HW216763   0.301   8.210   0.169 -0.4573  0.6470 -0.1247
 2242SOL     OW16764   1.342   4.053   1.150 -0.5662 -0.4386  0.3091
 2242SOL    HW116765   1.438   4.054   1.122 -1.0149  0.0532 -1.2201
 2242SOL    HW216766   1.330   3.984   1.222  0.3700 -2.5079 -1.4707
 2243SOL     OW16767   3.703   1.310   0.790 -0.1504 -0.1953 -0.1289
 2243SOL    HW116768   3.636   1.316   0.716  0.2783  0.3210 -0.4880
 2243SOL    HW216769   3.684   1.231   0.847 -0.4378 -0.6507 -0.8522
 2244SOL     OW16770   1.852   9.922   1.520  0.5234  0.7139  0.1209
 2244SOL    HW116771   1.807  10.010   1.536 -1.5238 -0.1722 -0.6232
 2244SOL    HW216772   1.811   9.852   1.579 -0.3837 -0.5122 -1.9317
 2245SOL     OW16773   9.612   6.172   0.384 -0.2590  0.5412  0.3020
 2245SOL    HW116774   9.655   6.172   0.474  2.1457  0.0684 -0.8272
 2245SOL    HW216775   9.650   6.099   0.329 -1.3842  1.1271 -1.2875
 2246SOL     OW16776   9.494   1.442   1.789 -0.3125  0.5303  0.1428
 2246SOL    HW116777   9.449   1.512   1.846 -0.2684  1.0873 -0.5102
 2246SOL    HW216778   9.503   1.358   1.843 -1.6054  0.5925  0.4922
 2247SOL     OW16779   0.354   2.470   1.236  0.4448  0.3680 -0.3474
 2247SOL    HW116780   0.388   2.411   1.162 -0.4556  0.1899 -0.6274
 2247SOL    HW216781   0.399   2.559   1.230 -1.7494  1.3986 -2.9687
 2248SOL     OW16782   1.915   7.464   1.104  1.2322  0.3582 -0.0269
 2248SOL    HW116783   1.959   7.477   1.193  0.8141 -2.5945  0.6589
 2248SOL    HW216784   1.935   7.372   1.070 -0.7437  0.5503 -1.7850
 2249SOL     OW16785   1.047   3.127   0.409 -0.2268  0.1068 -0.1494
 2249SOL    HW116786   1.038   3.180   0.325  0.8452  2.0963  0.9383
 2249SOL    HW216787   1.128   3.157   0.459  1.4148 -3.7674 -0.2884
 2250SOL     OW16788   3.264   4.443   0.447  0.0359  0.5128 -0.0583
 2250SOL    HW116789   3.220   4.452   0.536 -0.5693  0.4932 -0.3545
 2250SOL    HW216790   3.361   4.469   0.455  0.2225 -0.4425  0.8092
 2251SOL     OW16791   8.701   2.313   0.893  0.1801 -0.0114 -0.2346
 2251SOL    HW116792   8.675   2.222   0.861  0.2532  0.0002 -0.3289
 2251SOL    HW216793   8.744   2.363   0.818 -0.9283  0.5283 -0.5139
 2252SOL     OW16794   2.840   0.234   2.561  0.0239  0.3685  0.4108
 2252SOL    HW116795   2.819   0.159   2.499 -0.2524  0.2220  0.6816
 2252SOL    HW216796   2.907   0.204   2.629  1.8798  1.1224 -1.0560
 2253SOL     OW16797   1.743   0.681   0.229  0.3392  0.0757  0.0297
 2253SOL    HW116798   1.721   0.645   0.138 -0.6602  0.3215  0.1741
 2253SOL    HW216799   1.720   0.613   0.298  1.9183 -0.4600  0.0508
 2254SOL     OW16800   0.467   7.867   2.577 -0.5460 -0.0066  0.2717
 2254SOL    HW116801   0.524   7.784   2.577  1.5489  1.4007  0.1742
 2254SOL    HW216802   0.390   7.854   2.514  2.2303 -0.2584 -3.2086
 2255SOL     OW16803   1.789   2.011   0.501  0.1443 -0.1304  0.3165
 2255SOL    HW116804   1.795   2.015   0.601 -1.1309 -0.7453  0.4350
 2255SOL    HW216805   1.725   1.939   0.475  2.5827 -1.8589 -1.0251
 2256SOL     OW16806   2.909   7.647   1.762  0.3221  0.4905  0.9832
 2256SOL    HW116807   2.810   7.648   1.770  0.3435 -0.1644  1.4091
 2256SOL    HW216808   2.938   7.706   1.687 -0.4078  0.4495  0.6710
 2257SOL     OW16809   3.387   9.801   2.397  0.2875 -0.4504  0.5292
 2257SOL    HW116810   3.444   9.741   2.341  0.1256 -1.6629  1.6321
 2257SOL    HW216811   3.423   9.894   2.393  1.3035 -0.8621 -0.1911
 2258SOL     OW16812   9.088   2.772   2.541 -0.0370 -0.3980 -0.7321
 2258SOL    HW116813   9.149   2.752   2.617 -0.4095 -1.5645 -0.7343
 2258SOL    HW216814   9.117   2.856   2.496  0.2508  0.2462  0.6293
 2259SOL     OW16815   3.452   3.871   1.702  0.2236  0.0592 -0.1742
 2259SOL    HW116816   3.393   3.951   1.714  0.2679 -0.1479  1.5545
 2259SOL    HW216817   3.520   3.869   1.776  0.5125 -1.3230 -0.4625
 2260SOL     OW16818   1.217   4.138   2.488 -0.1240 -0.4108  0.2349
 2260SOL    HW116819   1.301   4.089   2.511  0.9316  0.9011 -0.7403
 2260SOL    HW216820   1.141   4.074   2.487  0.9674 -1.7472  0.5104
 2261SOL     OW16821   1.038   2.222   2.434  0.3778  0.1066 -0.4132
 2261SOL    HW116822   1.029   2.136   2.382 -0.5027  0.5449 -1.0015
 2261SOL    HW216823   1.011   2.207   2.529  1.0049 -0.4593 -0.3216
 2262SOL     OW16824   9.396   3.128   2.119 -0.0989 -0.1870  0.2979
 2262SOL    HW116825   9.487   3.150   2.084 -0.0531 -0.5569  0.1742
 2262SOL    HW216826   9.348   3.212   2.143  0.4941 -0.0147  0.9125
 2263SOL     OW16827   3.009   1.775   0.748  0.1705  0.1455 -0.2290
 2263SOL    HW116828   2.998   1.745   0.842 -2.3457 -0.6286 -0.7365
 2263SOL    HW216829   3.075   1.850   0.744  0.4402  0.0499  2.0969
 2264SOL     OW16830   1.809   3.100   0.386 -0.4316 -0.3589 -0.0146
 2264SOL    HW116831   1.906   3.073   0.386  0.0804  1.4503  1.1943
 2264SOL    HW216832   1.774   3.098   0.480 -0.9333  1.2648 -0.1660
 2265SOL     OW16833   9.988   9.239   1.297  0.6619  0.3843 -0.0419
 2265SOL    HW116834   9.918   9.219   1.366 -0.2045  0.5995 -0.8375
 2265SOL    HW216835  10.065   9.177   1.309 -1.1479 -2.2198 -1.2602
 2266SOL     OW16836   3.793   2.350   2.100 -0.0255 -0.3150  0.2942
 2266SOL    HW116837   3.741   2.287   2.043 -0.0488 -1.3736  1.4780
 2266SOL    HW216838   3.774   2.444   2.072 -0.1943 -0.8196 -1.2929
 2267SOL     OW16839   0.936   1.512   1.797 -0.0512 -0.2861  0.1780
 2267SOL    HW116840   0.958   1.575   1.722  0.1600  0.8987  1.2106
 2267SOL    HW216841   0.999   1.435   1.794  0.8793  0.4661 -0.0261
 2268SOL     OW16842   2.674   6.918   2.197 -0.5149  0.4095  0.0791
 2268SOL    HW116843   2.728   6.897   2.279 -2.0319  0.7467  1.1815
 2268SOL    HW216844   2.702   7.006   2.160  0.4270  0.0896  0.0165
 2269SOL     OW16845   0.947   8.395   2.334 -0.3365 -0.1694 -0.0600
 2269SOL    HW116846   1.021   8.332   2.358 -0.6554 -0.9670 -1.0787
 2269SOL    HW216847   0.969   8.441   2.248 -0.7922 -0.0267 -0.1032
 2270SOL     OW16848   9.941   0.283   2.426  0.3940 -0.3558 -0.7454
 2270SOL    HW116849  10.001   0.361   2.444  0.7429 -0.1361 -2.7992
 2270SOL    HW216850   9.909   0.286   2.331 -1.4110 -1.4751 -0.1929
 2271SOL     OW16851   0.414   0.890   1.661 -0.1733  0.0859  0.0248
 2271SOL    HW116852   0.351   0.871   1.736 -1.3164 -0.3016 -1.0211
 2271SOL    HW216853   0.459   0.805   1.633 -1.4740 -0.1903 -1.2566
 2272SOL     OW16854   2.453   9.532   1.419 -0.2758  0.5219  0.0049
 2272SOL    HW116855   2.476   9.435   1.407  1.4885  1.0834 -1.2607
 2272SOL    HW216856   2.389   9.559   1.348 -1.0463  0.2043  0.5710
 2273SOL     OW16857   0.853   0.364   0.139  0.2322 -0.3432 -0.3342
 2273SOL    HW116858   0.754   0.371   0.153  0.3420 -0.5358  0.5795
 2273SOL    HW216859   0.871   0.322   0.050 -0.5303 -2.2560  0.3843
 2274SOL     OW16860   4.593   2.403   1.146 -0.6189  0.6433  0.6983
 2274SOL    HW116861   4.661   2.330   1.155 -0.9003  0.1719 -0.9036
 2274SOL    HW216862   4.591   2.456   1.231  1.4031  0.3705  0.9539
 2275SOL     OW16863   0.385   1.804   1.987 -0.2317  0.2239  0.1596
 2275SOL    HW116864   0.333   1.762   2.061  0.0136  0.8316  0.6751
 2275SOL    HW216865   0.323   1.856   1.928 -0.1600  1.2224  0.9613
 2276SOL     OW16866   9.619   1.632   0.875 -0.0795  0.3067 -0.7190
 2276SOL    HW116867   9.713   1.666   0.871  0.1520 -0.3537 -0.9965
 2276SOL    HW216868   9.561   1.698   0.922  1.1326 -0.6439  2.1802
 2277SOL     OW16869   3.939   3.362   0.684 -0.0186 -0.0463 -0.6054
 2277SOL    HW116870   3.932   3.271   0.644  0.4242  0.2936 -1.4729
 2277SOL    HW216871   3.986   3.423   0.620  1.1589  0.3750  0.6319
 2278SOL     OW16872   4.187   2.845   1.444  0.2333 -0.8547 -0.3530
 2278SOL    HW116873   4.182   2.777   1.517  0.3858 -0.0310  0.4311
 2278SOL    HW216874   4.151   2.933   1.477 -1.6318 -0.9921 -1.8892
 2279SOL     OW16875   0.668   3.017   0.235 -0.2827  0.2599  0.3262
 2279SOL    HW116876   0.682   2.981   0.143 -0.0736  1.9209 -0.3045
 2279SOL    HW216877   0.655   2.941   0.299  1.3195 -0.9754 -0.7814
 2280SOL     OW16878   1.694   7.878   1.461 -0.0547 -0.2177 -0.3445
 2280SOL    HW116879   1.763   7.902   1.528 -0.4668  1.1371 -0.3911
 2280SOL    HW216880   1.712   7.926   1.375  0.2461 -1.6365 -1.0955
 2281SOL     OW16881   4.023   1.470   0.947 -0.1185 -0.1571 -0.0040
 2281SOL    HW116882   3.934   1.474   0.901 -0.7269  0.4397  1.1970
 2281SOL    HW216883   4.094   1.447   0.881 -1.1955 -0.8217 -0.9370
 2282SOL     OW16884   2.947   3.056   2.546 -0.0826  0.6255  0.2372
 2282SOL    HW116885   2.849   3.073   2.552  0.2073  2.2774  0.5704
 2282SOL    HW216886   2.963   2.961   2.519 -1.7672  0.4623 -0.2323
 2283SOL     OW16887   3.564   4.111   1.569  0.2157 -0.6489  0.0971
 2283SOL    HW116888   3.628   4.097   1.494  0.4431 -1.3080  0.4091
 2283SOL    HW216889   3.530   4.022   1.601 -1.8086 -0.2623 -0.8842
 2284SOL     OW16890   0.813   2.403   2.220  0.1660  0.2234  0.3263
 2284SOL    HW116891   0.895   2.456   2.241  0.7866 -1.2554  1.7178
 2284SOL    HW216892   0.762   2.386   2.304 -0.6891 -0.3111 -0.2919
 2285SOL     OW16893   3.830   4.270   2.412  0.0421  0.5236  0.2121
 2285SOL    HW116894   3.744   4.266   2.462  0.8815 -0.2230  1.6160
 2285SOL    HW216895   3.872   4.179   2.411  0.5221  0.7457 -0.9851
 2286SOL     OW16896   2.224   2.782   0.668 -0.2810 -0.2441 -0.2525
 2286SOL    HW116897   2.297   2.716   0.649  2.2770  2.1906  0.6530
 2286SOL    HW216898   2.199   2.777   0.765 -0.0912  0.0794 -0.1846
 2287SOL     OW16899   9.763   6.331   0.047  0.3475 -0.4407 -0.1232
 2287SOL    HW116900   9.753   6.268  -0.030 -2.3573 -1.6769  1.1627
 2287SOL    HW216901   9.672   6.360   0.078  1.4564  1.7115  1.2660
 2288SOL     OW16902   1.033   1.476   2.061 -0.1162 -0.0707 -0.0959
 2288SOL    HW116903   0.994   1.500   1.972  0.8599 -0.5011 -0.6473
 2288SOL    HW216904   1.068   1.558   2.105  0.5601 -0.0426 -0.6812
 2289SOL     OW16905   0.937   8.550   0.979 -0.1399 -0.2364 -0.6561
 2289SOL    HW116906   0.859   8.611   0.990  0.3193  0.2890 -0.3083
 2289SOL    HW216907   0.934   8.479   1.048 -0.8990 -0.8544 -1.3153
 2290SOL     OW16908   2.442   5.165   1.508 -0.2674 -0.1024  0.2128
 2290SOL    HW116909   2.393   5.239   1.553 -0.2794  0.5977 -0.9304
 2290SOL    HW216910   2.534   5.196   1.484 -0.1409 -0.5842  0.0608
 2291SOL     OW16911   0.654   6.642   0.782 -0.1175 -0.9471  0.3339
 2291SOL    HW116912   0.694   6.703   0.714 -0.7538 -0.2982  0.5407
 2291SOL    HW216913   0.724   6.578   0.815  0.8526  0.4167  0.9710
 2292SOL     OW16914   0.156   8.210   0.805  0.3314 -0.0929 -0.1941
 2292SOL    HW116915   0.221   8.284   0.791 -0.2433  0.3847 -0.3889
 2292SOL    HW216916   0.174   8.137   0.739 -1.0861  1.2676 -2.1592
 2293SOL     OW16917   1.493   9.876   0.782 -0.0606 -0.1106 -0.0006
 2293SOL    HW116918   1.403   9.841   0.754 -1.4093  1.1276  2.6156
 2293SOL    HW216919   1.500   9.973   0.758  0.0987  0.1044  0.9089
 2294SOL     OW16920   0.297   2.885   0.918 -0.1214 -0.3650  0.3297
 2294SOL    HW116921   0.368   2.815   0.922  0.8647  0.6544  0.9481
 2294SOL    HW216922   0.246   2.875   0.833  3.0845  1.1151 -1.8709
 2295SOL     OW16923   3.169   2.608   0.517 -0.2080  0.4115  0.1781
 2295SOL    HW116924   3.140   2.592   0.611 -2.0242 -0.0136 -0.4445
 2295SOL    HW216925   3.230   2.687   0.513  1.3439 -0.6468  1.9564
 2296SOL     OW16926   9.153   2.175   2.488 -0.2019 -0.2786 -0.4172
 2296SOL    HW116927   9.214   2.212   2.558  0.0389 -2.1663  0.4312
 2296SOL    HW216928   9.071   2.231   2.482 -0.2756 -0.1407  1.4739
 2297SOL     OW16929   0.485   9.273   1.873 -0.9866  0.2136  0.5032
 2297SOL    HW116930   0.410   9.326   1.835  0.0052  0.4037 -1.2364
 2297SOL    HW216931   0.526   9.323   1.949 -2.0362  0.5090  0.8850
 2298SOL     OW16932   0.316   7.020   1.674  1.0339 -0.4845 -0.2978
 2298SOL    HW116933   0.218   7.005   1.664  0.9191 -0.9912  1.3402
 2298SOL    HW216934   0.366   6.964   1.609  0.2731 -1.2055 -0.2668
 2299SOL     OW16935   2.530   2.311   0.865 -0.5180  0.0427  0.2778
 2299SOL    HW116936   2.560   2.257   0.943 -0.1311  1.6231  1.2505
 2299SOL    HW216937   2.441   2.279   0.834 -0.7266 -0.5281  1.4457
 2300SOL     OW16938   0.630   3.802   2.542 -0.5762  0.1628 -0.4330
 2300SOL    HW116939   0.534   3.823   2.524 -0.0634  1.4007 -1.7480
 2300SOL    HW216940   0.663   3.735   2.476 -1.1099 -1.8979  1.3394
 2301SOL     OW16941   1.535   0.045   1.244  0.4108  0.2505 -0.0279
 2301SOL    HW116942   1.605   0.113   1.268  0.5880  0.1918 -0.3752
 2301SOL    HW216943   1.505  -0.003   1.327  2.6819 -1.5729 -0.2160
 2302SOL     OW16944   1.077   6.296   1.118 -0.0182  0.6161  0.1317
 2302SOL    HW116945   1.060   6.389   1.152  0.2913  1.2997 -1.5364
 2302SOL    HW216946   1.167   6.292   1.076 -0.5750 -0.0646 -1.0242
 2303SOL     OW16947   0.924   4.294   1.195  0.1343  0.1916 -0.1932
 2303SOL    HW116948   0.932   4.352   1.114  0.4041 -0.3791 -0.5782
 2303SOL    HW216949   0.843   4.236   1.186 -1.0025  1.5929  0.8914
 2304SOL     OW16950   9.686   1.884   0.743 -0.7054  0.4291 -0.6983
 2304SOL    HW116951   9.722   1.810   0.685  1.7412 -0.3262  1.6737
 2304SOL    HW216952   9.718   1.972   0.708  3.0043 -0.1756  0.8700
 2305SOL     OW16953   1.135   0.845   2.264  0.3852 -0.9816 -0.8038
 2305SOL    HW116954   1.141   0.872   2.360  1.2203 -3.1070 -0.2444
 2305SOL    HW216955   1.050   0.881   2.224  0.2329  0.2469  0.6043
 2306SOL     OW16956   1.522   4.744   2.155 -0.2888 -0.0054 -0.3147
 2306SOL    HW116957   1.497   4.776   2.064 -1.6962 -0.0522  0.0424
 2306SOL    HW216958   1.443   4.701   2.199  0.4940 -0.4006  0.7527
 2307SOL     OW16959   2.382   8.848   0.969 -0.0902  0.4822 -0.3617
 2307SOL    HW116960   2.475   8.859   0.933  0.7556  1.0533  1.9392
 2307SOL    HW216961   2.325   8.804   0.899  1.4765  1.5939 -2.4080
 2308SOL     OW16962   2.609   1.340   2.336 -0.7334  0.2937  0.9701
 2308SOL    HW116963   2.564   1.323   2.248 -0.0588 -1.1562  0.8789
 2308SOL    HW216964   2.541   1.352   2.407 -1.2863 -0.9923  0.6743
 2309SOL     OW16965   0.206   8.017   0.618  0.3329  0.2086  0.3829
 2309SOL    HW116966   0.166   7.945   0.673  1.9575 -1.2818 -0.3410
 2309SOL    HW216967   0.205   7.991   0.522  1.5158  0.8487  0.1835
 2310SOL     OW16968   1.737   7.096   2.443  0.3929  0.4472  0.0693
 2310SOL    HW116969   1.736   7.134   2.351 -0.6937  0.2051 -0.0299
 2310SOL    HW216970   1.831   7.085   2.474  0.7371  1.7865 -0.4854
 2311SOL     OW16971   2.744   4.765   1.460 -0.3426 -0.2110  0.1066
 2311SOL    HW116972   2.723   4.741   1.555 -1.8542  0.4756 -0.0542
 2311SOL    HW216973   2.798   4.691   1.419  1.9524  0.3065  2.0588
 2312SOL     OW16974   2.048   6.344   2.104 -0.4990 -0.3158 -0.1549
 2312SOL    HW116975   1.949   6.353   2.089 -0.2375 -0.5513 -2.0908
 2312SOL    HW216976   2.090   6.434   2.104 -0.7621 -0.1753  1.1760
 2313SOL     OW16977   9.413   4.606   2.288  0.6532 -0.3690 -0.2320
 2313SOL    HW116978   9.390   4.697   2.253  2.0868 -0.2516 -0.8913
 2313SOL    HW216979   9.511   4.601   2.307  0.4033 -1.4369  0.8452
 2314SOL     OW16980   0.805   7.546   0.648  0.2433  0.3034 -0.0100
 2314SOL    HW116981   0.755   7.632   0.646  1.3834  0.9733  0.1029
 2314SOL    HW216982   0.802   7.508   0.740  0.6087  0.7280  0.1739
 2315SOL     OW16983   0.459   4.389   2.296  0.2362 -0.5683  0.0253
 2315SOL    HW116984   0.394   4.331   2.247  0.1233 -0.3668 -0.0632
 2315SOL    HW216985   0.524   4.429   2.231 -0.3986  0.3286 -0.0628
 2316SOL     OW16986   8.878   5.542   0.439 -0.3332 -0.9103 -0.6761
 2316SOL    HW116987   8.879   5.546   0.339 -2.4582 -0.1870 -0.6953
 2316SOL    HW216988   8.813   5.472   0.469 -1.1645  0.1930  0.1795
 2317SOL     OW16989   0.399   5.410   0.122 -0.6084  0.4716  0.9729
 2317SOL    HW116990   0.399   5.315   0.152 -1.0594  0.4017  0.7510
 2317SOL    HW216991   0.414   5.470   0.200 -0.9426  0.2510  1.2049
 2318SOL     OW16992   0.505   6.972   0.491  0.8647  0.0182 -0.1465
 2318SOL    HW116993   0.560   6.980   0.408  0.7225  1.7890 -0.0869
 2318SOL    HW216994   0.408   6.981   0.468  0.8743  1.5430  0.3071
 2319SOL     OW16995   3.123   4.120   0.145 -0.0948  0.2712 -0.2907
 2319SOL    HW116996   3.204   4.133   0.202 -1.0016  2.5117  0.5428
 2319SOL    HW216997   3.151   4.092   0.053  1.4165 -2.7790  1.0482
 2320SOL     OW16998   1.067   4.769   1.117  0.1026  0.2871 -0.2091
 2320SOL    HW116999   1.145   4.763   1.054 -0.2773 -0.3260 -0.6277
 2320SOL    HW217000   1.092   4.726   1.204  0.5816  1.0079  0.0127
 2321SOL     OW17001   0.277   5.065   0.063 -0.4764 -0.8764 -0.3234
 2321SOL    HW117002   0.315   5.106   0.146 -0.1534 -1.9057  0.0405
 2321SOL    HW217003   0.184   5.035   0.080 -1.4282  1.4519 -1.1567
 2322SOL     OW17004   0.979   3.928   2.457  0.4654 -0.3900 -0.0107
 2322SOL    HW117005   0.932   3.950   2.543  0.5270  1.4202 -0.4342
 2322SOL    HW217006   0.988   3.829   2.450 -1.3539 -0.6788  1.1141
 2323SOL     OW17007   1.790   0.447   2.082  0.2698 -0.2305  0.0321
 2323SOL    HW117008   1.707   0.429   2.133 -1.3092  0.8245 -2.0541
 2323SOL    HW217009   1.820   0.541   2.099 -0.9318  0.5208 -1.8092
 2324SOL     OW17010   9.103   1.254   0.717 -0.2715  0.1800 -0.4371
 2324SOL    HW117011   9.182   1.279   0.661 -0.3280 -0.6301 -0.8795
 2324SOL    HW217012   9.020   1.290   0.674 -0.2749 -0.1057 -0.6735
 2325SOL     OW17013   2.166   3.053   0.161 -0.4400  0.2377  0.4905
 2325SOL    HW117014   2.222   3.049   0.079  3.9065 -1.9250  3.3700
 2325SOL    HW217015   2.202   3.124   0.223 -0.9156 -1.0990  2.3528
 2326SOL     OW17016   3.261   4.056   1.724  0.5485  0.2614 -0.0418
 2326SOL    HW117017   3.178   4.008   1.693  0.3208  0.0179  0.9107
 2326SOL    HW217018   3.258   4.151   1.695 -0.6234  0.5475  0.9616
 2327SOL     OW17019   9.817   0.094   1.550 -0.0408 -0.0063  0.4092
 2327SOL    HW117020   9.911   0.070   1.573  0.0541 -0.1889 -0.1494
 2327SOL    HW217021   9.788   0.173   1.604  0.9675  1.0205 -0.5207
 2328SOL     OW17022   1.970   6.724   1.687 -0.3766 -0.3479  0.2126
 2328SOL    HW117023   2.017   6.696   1.603 -2.5637  1.3925 -1.6848
 2328SOL    HW217024   1.912   6.649   1.719  0.8266 -1.1884  0.4400
 2329SOL     OW17025   0.564   3.402   1.090 -0.7578 -0.0175 -0.1489
 2329SOL    HW117026   0.638   3.335   1.094 -0.7219  0.1125  1.5960
 2329SOL    HW217027   0.591   3.486   1.138 -1.4232  0.6466 -0.9053
 2330SOL     OW17028   1.308   6.281   1.399 -0.0224  0.1357  0.6072
 2330SOL    HW117029   1.211   6.285   1.379  0.4151 -0.4274 -1.7543
 2330SOL    HW217030   1.353   6.217   1.337  2.0128  1.1127  1.0135
 2331SOL     OW17031   9.354   1.192   0.651  0.3654  0.0962 -0.0197
 2331SOL    HW117032   9.424   1.177   0.582 -0.3286 -0.3588 -0.6299
 2331SOL    HW217033   9.321   1.104   0.685 -0.2984  0.2948 -0.1412
 2332SOL     OW17034   0.817   1.357   0.945 -0.5865  0.1719  0.0103
 2332SOL    HW117035   0.726   1.372   0.906 -0.2870 -3.1091 -2.1126
 2332SOL    HW217036   0.812   1.286   1.016  0.1059  0.9262  0.8281
 2333SOL     OW17037   0.470   0.712   2.250  0.2264  0.3343  0.2232
 2333SOL    HW117038   0.494   0.630   2.302 -1.9208  0.0952  0.8791
 2333SOL    HW217039   0.516   0.791   2.289  0.9799 -0.3008  0.6358
 2334SOL     OW17040   2.177   5.255   1.924 -0.1528 -0.1642 -0.1897
 2334SOL    HW117041   2.210   5.178   1.979  1.5313 -0.0985 -1.0673
 2334SOL    HW217042   2.256   5.308   1.892 -1.2942  2.0779  0.6076
 2335SOL     OW17043   0.393   4.028   1.742  0.0610 -0.1225  0.2779
 2335SOL    HW117044   0.420   3.999   1.650 -0.0819  1.2652 -0.2117
 2335SOL    HW217045   0.435   4.116   1.763  0.9030 -0.9029  1.9449
 2336SOL     OW17046   2.042   5.641   0.681  0.1967 -0.1755  0.5879
 2336SOL    HW117047   2.100   5.592   0.616  0.9354  1.5731 -0.1148
 2336SOL    HW217048   1.947   5.609   0.671  0.7927 -2.0551  0.7768
 2337SOL     OW17049   1.564   3.166   0.268 -0.3186  0.0599  0.9156
 2337SOL    HW117050   1.658   3.167   0.301 -0.6651  1.2658  1.8746
 2337SOL    HW217051   1.563   3.160   0.168  0.8051  2.3806  0.7450
 2338SOL     OW17052   0.333   2.466   1.644 -0.3229  0.3239  0.1943
 2338SOL    HW117053   0.412   2.470   1.582 -1.1404  0.4367 -0.8422
 2338SOL    HW217054   0.262   2.527   1.611 -1.9101 -1.7689 -0.3459
 2339SOL     OW17055   4.125   1.092   0.311 -0.1774 -0.3001  0.0320
 2339SOL    HW117056   4.092   1.024   0.377  1.5562 -1.2969 -0.0889
 2339SOL    HW217057   4.224   1.081   0.298 -0.2911  0.6240 -1.8785
 2340SOL     OW17058   3.356   3.803   0.975 -0.5699  0.4267  0.8604
 2340SOL    HW117059   3.415   3.842   1.046 -2.2226 -0.0160  2.5305
 2340SOL    HW217060   3.266   3.848   0.978 -0.6742  0.3696 -0.9344
 2341SOL     OW17061   0.346   0.997   0.925  0.1225  0.0250 -0.0963
 2341SOL    HW117062   0.346   1.053   1.007  1.7912  0.5834 -0.4604
 2341SOL    HW217063   0.252   0.989   0.890 -0.2680  1.8304  0.4761
 2342SOL     OW17064   0.234   0.124   0.316  0.2589 -0.3007 -0.2574
 2342SOL    HW117065   0.282   0.058   0.374  1.3903 -1.0820 -2.0184
 2342SOL    HW217066   0.244   0.097   0.220 -0.3960  1.7069 -0.9170
 2343SOL     OW17067   0.444   7.947   1.604  0.3625  0.2043 -0.9987
 2343SOL    HW117068   0.458   7.851   1.629  0.2557  0.4140 -0.1016
 2343SOL    HW217069   0.528   7.983   1.563  0.7949  0.0475 -0.2677
 2344SOL     OW17070   1.854   5.111   2.446 -0.8237  0.4822  0.1362
 2344SOL    HW117071   1.837   5.186   2.382 -3.2053 -0.0565  0.0670
 2344SOL    HW217072   1.896   5.146   2.529 -1.4267  1.8224 -0.1118
 2345SOL     OW17073   0.024   3.466   0.715 -0.2136 -0.1331  0.2179
 2345SOL    HW117074  -0.026   3.544   0.754 -2.9153 -2.4883  1.6023
 2345SOL    HW217075   0.118   3.494   0.695 -0.5933  2.9664  2.3943
 2346SOL     OW17076   8.802   2.279   0.027  0.0915 -0.2610 -0.2634
 2346SOL    HW117077   8.740   2.342  -0.019 -1.1932 -2.6097 -1.8262
 2346SOL    HW217078   8.754   2.231   0.100  1.2755  1.0838  1.4551
 2347SOL     OW17079   8.943   5.741   2.098  0.5379 -0.5460  0.9132
 2347SOL    HW117080   8.949   5.803   2.019 -3.0516 -1.0156  0.1654
 2347SOL    HW217081   9.022   5.681   2.099  0.6689 -0.5320 -2.3740
 2348SOL     OW17082   1.793   6.336   2.028  0.2279  0.0304  0.1362
 2348SOL    HW117083   1.767   6.420   2.075  1.6223  0.5180  0.0465
 2348SOL    HW217084   1.710   6.287   1.998 -0.5888  1.1287  0.5864
 2349SOL     OW17085   3.843   4.128   0.113  0.3256  0.1370 -0.1016
 2349SOL    HW117086   3.777   4.202   0.123  0.1207 -0.1494  0.6711
 2349SOL    HW217087   3.823   4.076   0.030  0.3138  0.7839 -0.5081
 2350SOL     OW17088   1.408   3.046   1.610  0.1539  0.1705  0.2140
 2350SOL    HW117089   1.381   3.065   1.516  0.4090  1.3699  0.3793
 2350SOL    HW217090   1.382   3.123   1.669 -1.5717 -1.2964  1.4345
 2351SOL     OW17091   0.432   2.980   1.160 -0.4789  0.1977 -0.0486
 2351SOL    HW117092   0.396   3.007   1.071 -0.0556 -0.2484 -0.3536
 2351SOL    HW217093   0.457   3.062   1.212 -0.3167  0.4375 -0.5056
 2352SOL     OW17094   9.325   3.887   1.067  1.1056 -0.2080  0.4250
 2352SOL    HW117095   9.261   3.822   1.027 -0.1069  1.8679 -1.1076
 2352SOL    HW217096   9.404   3.898   1.007  1.0150  0.1884  0.3741
 2353SOL     OW17097   9.660   0.245   1.023 -0.2864 -0.3610 -0.3854
 2353SOL    HW117098   9.672   0.203   1.113 -0.7752 -1.2913 -0.7447
 2353SOL    HW217099   9.641   0.174   0.955 -1.1054  0.4341 -1.0122
 2354SOL     OW17100   1.966   4.932   2.224  0.3109 -0.0179 -0.0105
 2354SOL    HW117101   1.963   4.999   2.298  1.5226  0.0331  0.0045
 2354SOL    HW217102   1.877   4.927   2.179 -0.5387 -0.3234  1.6873
 2355SOL     OW17103   1.070   1.180   0.562  0.4393  0.3963 -0.1235
 2355SOL    HW117104   1.091   1.131   0.646 -3.0401  0.9816  1.1647
 2355SOL    HW217105   1.054   1.276   0.583  0.6224  0.7626 -1.6231
 2356SOL     OW17106   4.532   2.061   2.132 -0.4449  0.0447 -0.3812
 2356SOL    HW117107   4.611   2.010   2.165 -1.4195 -0.2663  1.5003
 2356SOL    HW217108   4.479   2.004   2.070 -0.2502 -0.4202 -0.1207
 2357SOL     OW17109   0.353   6.186   1.537  0.2309 -0.8307  0.3590
 2357SOL    HW117110   0.332   6.252   1.465 -1.3430 -2.5346 -0.7705
 2357SOL    HW217111   0.434   6.132   1.511 -0.8253 -2.0064 -0.5386
 2358SOL     OW17112   0.132   4.941   1.222  0.5039 -0.3822 -0.4537
 2358SOL    HW117113   0.119   4.912   1.127 -0.6703 -0.6425 -0.2184
 2358SOL    HW217114   0.157   5.037   1.225  1.5084 -0.6175 -1.0777
 2359SOL     OW17115   3.067   8.066   1.318 -0.6979  0.2344  0.6648
 2359SOL    HW117116   3.113   8.155   1.323  0.8838 -0.6448  2.4826
 2359SOL    HW217117   3.119   8.005   1.259 -0.7843 -0.0321  0.8618
 2360SOL     OW17118   9.681   2.945   0.618 -0.5418  0.3163 -0.0019
 2360SOL    HW117119   9.677   2.848   0.594  2.6916  1.0813 -4.2848
 2360SOL    HW217120   9.739   2.956   0.699  1.3971 -1.2075 -1.1106
 2361SOL     OW17121   9.607   0.100   0.811 -0.4630 -0.4919 -0.5816
 2361SOL    HW117122   9.686   0.085   0.752 -0.0693 -1.7366  0.2370
 2361SOL    HW217123   9.524   0.072   0.763 -0.6621  2.7416 -2.2111
 2362SOL     OW17124   8.578   2.592   1.591  0.0519  0.4892 -0.5027
 2362SOL    HW117125   8.547   2.668   1.648  2.8152  0.8405  0.6181
 2362SOL    HW217126   8.644   2.625   1.524  0.1941 -0.7034 -0.9582
 2363SOL     OW17127   0.348   8.455   0.378 -0.1207 -0.2724 -0.5844
 2363SOL    HW117128   0.414   8.407   0.436  0.2764  0.0201 -0.7914
 2363SOL    HW217129   0.375   8.445   0.283 -0.3745 -0.1482 -0.6680
 2364SOL     OW17130   2.502   8.258   1.081  0.2833  0.2995 -0.2889
 2364SOL    HW117131   2.460   8.195   1.147  1.3218  0.8177  0.8979
 2364SOL    HW217132   2.446   8.262   0.999 -1.3134  0.0369  0.7564
 2365SOL     OW17133   9.315   1.276   2.303  0.3200  0.4963  0.3237
 2365SOL    HW117134   9.228   1.300   2.260 -0.1385 -0.8234  0.4744
 2365SOL    HW217135   9.319   1.314   2.395 -0.1588  0.4519  0.3636
 2366SOL     OW17136   0.588   6.451   1.192 -0.1217 -0.0946  0.2414
 2366SOL    HW117137   0.652   6.389   1.147 -0.8319 -0.1152 -0.7582
 2366SOL    HW217138   0.629   6.542   1.198 -0.7917  0.4285 -2.3284
 2367SOL     OW17139   1.776   4.139   0.551 -0.1943  0.6176  0.2444
 2367SOL    HW117140   1.765   4.235   0.579 -0.0477  0.9386 -0.7945
 2367SOL    HW217141   1.728   4.123   0.465  1.4344  0.2706 -0.6351
 2368SOL     OW17142   4.408   2.096   1.575 -0.0400 -0.0756  0.9331
 2368SOL    HW117143   4.501   2.070   1.549  0.4823  0.2109  2.4445
 2368SOL    HW217144   4.351   2.014   1.583 -0.2193 -0.1581 -1.1050
 2369SOL     OW17145   0.692   2.236   1.876 -0.0536  0.7286  0.0954
 2369SOL    HW117146   0.739   2.242   1.788 -0.0010  1.0696  0.1440
 2369SOL    HW217147   0.715   2.149   1.921  0.2669  0.7482 -0.0310
 2370SOL     OW17148   2.603   6.794   1.970 -0.1930  0.0514  0.2338
 2370SOL    HW117149   2.645   6.829   2.053  1.1751  0.3141 -0.5629
 2370SOL    HW217150   2.600   6.694   1.973 -0.8465  0.0822  0.9228
 2371SOL     OW17151   1.874   0.195   2.060  0.1777 -0.1207  0.6912
 2371SOL    HW117152   1.890   0.174   1.964  0.5901  0.4098  0.6431
 2371SOL    HW217153   1.839   0.288   2.069 -0.3971 -0.3668  1.0102
 2372SOL     OW17154   0.568   2.150   2.571 -0.1447 -1.2746 -0.1912
 2372SOL    HW117155   0.555   2.169   2.668  1.2423 -1.7793  0.1132
 2372SOL    HW217156   0.643   2.084   2.560 -1.1690 -2.2514 -1.5284
 2373SOL     OW17157   9.491   0.347   0.204 -0.3406 -0.0603 -0.1375
 2373SOL    HW117158   9.584   0.354   0.169 -0.8460 -2.2750 -2.0801
 2373SOL    HW217159   9.457   0.254   0.190 -4.0362  1.5390 -2.6377
 2374SOL     OW17160   1.845   3.238   1.677 -0.2503 -0.4313  0.2570
 2374SOL    HW117161   1.759   3.285   1.692 -0.0569 -0.6514  2.2045
 2374SOL    HW217162   1.873   3.191   1.761  1.7729 -0.3418 -0.3316
 2375SOL     OW17163   8.483   2.357   1.736 -0.3213  0.3165 -0.3299
 2375SOL    HW117164   8.553   2.329   1.802  0.8663  0.7227 -1.3961
 2375SOL    HW217165   8.515   2.436   1.685 -1.7783  0.8120 -0.5041
 2376SOL     OW17166   3.931   4.207   1.294 -0.0678  0.3550 -0.3288
 2376SOL    HW117167   3.984   4.292   1.288  0.7392 -0.1464 -0.3621
 2376SOL    HW217168   3.876   4.197   1.211  1.2764 -0.0872 -1.1929
 2377SOL     OW17169   0.700   8.052   1.944  0.7399 -0.6321 -0.0459
 2377SOL    HW117170   0.611   8.032   1.986  0.5455  0.2801 -0.0062
 2377SOL    HW217171   0.713   7.992   1.865  0.9219 -2.0656  1.0344
 2378SOL     OW17172   2.487   3.084   0.712 -0.0877 -0.0533 -0.4260
 2378SOL    HW117173   2.404   3.108   0.661 -1.3833 -0.2550  1.4958
 2378SOL    HW217174   2.512   3.161   0.771 -0.9081 -1.1933  1.4889
 2379SOL     OW17175   3.315   9.011   0.710 -0.1807 -0.2602 -0.4504
 2379SOL    HW117176   3.374   9.011   0.791 -1.0766 -1.3287  0.2258
 2379SOL    HW217177   3.299   9.105   0.680  0.3920  0.1279  0.4549
 2380SOL     OW17178   1.805   5.501   0.514 -0.2697  0.0759 -0.5894
 2380SOL    HW117179   1.771   5.589   0.480  0.2372  0.3270 -0.4529
 2380SOL    HW217180   1.818   5.439   0.437  0.4897  0.5124 -0.8201
 2381SOL     OW17181   1.364   9.525   1.071 -0.3264 -0.0068 -0.1905
 2381SOL    HW117182   1.311   9.567   0.997  0.3326 -1.8276 -1.7246
 2381SOL    HW217183   1.434   9.466   1.032  1.0883  0.2771  1.8854
 2382SOL     OW17184   3.767   0.628   2.541 -0.5234  0.5625 -0.3514
 2382SOL    HW117185   3.682   0.593   2.503 -0.4487  0.4032 -0.3724
 2382SOL    HW217186   3.809   0.692   2.476 -0.9901  1.2023 -0.0347
 2383SOL     OW17187   9.418   2.711   2.013 -0.0863  0.5684 -0.1452
 2383SOL    HW117188   9.470   2.647   2.070  0.0140  1.1955  0.4686
 2383SOL    HW217189   9.350   2.758   2.069 -0.8281  0.2845 -0.8006
 2384SOL     OW17190   2.918   3.538   0.647 -0.0728  0.1325 -0.2162
 2384SOL    HW117191   2.881   3.629   0.625 -0.9461 -0.0707  0.4183
 2384SOL    HW217192   3.013   3.548   0.676 -0.4268  0.9404  0.6921
 2385SOL     OW17193   9.239   3.128   1.455 -0.6413 -0.3764  0.4291
 2385SOL    HW117194   9.243   3.191   1.377  1.1506  0.2810  1.0304
 2385SOL    HW217195   9.237   3.179   1.540 -1.0900 -1.1115  0.8639
 2386SOL     OW17196   2.370   5.560   0.329 -0.3092 -0.0157  0.2200
 2386SOL    HW117197   2.300   5.508   0.379 -1.4694  1.6432  0.3593
 2386SOL    HW217198   2.367   5.656   0.358  0.3944  0.5596 -1.5647
 2387SOL     OW17199   3.300   9.825   0.897 -0.1111  0.1194 -0.2248
 2387SOL    HW117200   3.236   9.831   0.821 -1.5888 -0.7488  0.9163
 2387SOL    HW217201   3.265   9.761   0.966  2.4417 -1.1209  0.0008
 2388SOL     OW17202   1.864   8.061   0.672  0.2431  0.0516 -0.4920
 2388SOL    HW117203   1.821   8.115   0.600  0.3383 -0.1368 -0.6890
 2388SOL    HW217204   1.797   8.042   0.744  0.0184 -0.1730 -0.7597
 2389SOL     OW17205   2.759   7.782   0.982 -0.1411  0.2495  0.5129
 2389SOL    HW117206   2.776   7.849   1.055  0.8930  0.3199  0.2203
 2389SOL    HW217207   2.776   7.824   0.893 -1.2579  0.1164  0.2396
 2390SOL     OW17208   3.437   1.919   2.341 -0.2679  0.2172 -0.7419
 2390SOL    HW117209   3.486   1.874   2.416 -0.8820 -1.5806 -1.4046
 2390SOL    HW217210   3.340   1.929   2.366 -0.3572  0.1399 -1.0539
 2391SOL     OW17211   4.192   2.265   1.470 -0.2357 -0.3400 -0.3592
 2391SOL    HW117212   4.282   2.222   1.463  0.1207  0.6139 -1.9263
 2391SOL    HW217213   4.166   2.274   1.566  0.8116 -1.7086  0.0570
 2392SOL     OW17214   0.642   5.063   1.092  0.1075 -0.2302 -0.0647
 2392SOL    HW117215   0.583   5.038   1.169  0.6169  0.0988  0.4373
 2392SOL    HW217216   0.654   4.984   1.032 -0.5881 -0.3850 -0.0022
 2393SOL     OW17217   2.926   8.345   1.736  0.1019 -0.4250  0.0715
 2393SOL    HW117218   2.972   8.258   1.720 -1.9227 -1.1004 -2.3451
 2393SOL    HW217219   2.869   8.338   1.818  1.0383 -0.8872  0.6949
 2394SOL     OW17220   9.936   5.209   1.255 -0.1661 -0.4973 -0.0467
 2394SOL    HW117221  10.025   5.206   1.208 -2.2682 -3.8467 -4.1344
 2394SOL    HW217222   9.930   5.130   1.317  0.0491  0.2430  0.9193
 2395SOL     OW17223   9.237   5.349   1.128 -0.6405 -0.2566  0.2958
 2395SOL    HW117224   9.146   5.312   1.143 -0.7352 -0.1129  0.0733
 2395SOL    HW217225   9.273   5.315   1.040 -0.6489  0.0274  0.1833
 2396SOL     OW17226   2.297   9.761   2.073  0.3644  0.0361  0.5903
 2396SOL    HW117227   2.344   9.848   2.064  0.1624  0.0168 -0.8732
 2396SOL    HW217228   2.231   9.765   2.148  0.1607  1.2276  0.3550
 2397SOL     OW17229   0.755   4.588   1.256  0.2356  0.2153 -0.2349
 2397SOL    HW117230   0.745   4.489   1.246 -1.1579  0.2955  0.1875
 2397SOL    HW217231   0.763   4.611   1.353  0.1122  0.5511 -0.3031
 2398SOL     OW17232   3.952   2.352   1.402  0.2268 -0.4494 -0.4989
 2398SOL    HW117233   4.039   2.302   1.401 -1.2579 -3.1121 -0.5934
 2398SOL    HW217234   3.915   2.356   1.309  0.9327  1.9682 -0.7047
 2399SOL     OW17235   0.356   5.706   2.193 -0.1028  0.0957 -0.3951
 2399SOL    HW117236   0.343   5.770   2.117 -0.3648  0.3084 -0.1754
 2399SOL    HW217237   0.271   5.655   2.209 -0.7813  1.6298  1.1719
 2400SOL     OW17238   2.009   9.409   2.119 -0.7142  0.2474  0.4273
 2400SOL    HW117239   2.064   9.390   2.200  0.6236  2.3888  0.0676
 2400SOL    HW217240   2.041   9.351   2.043 -2.4848 -2.3185  1.5895
 2401SOL     OW17241   9.920   2.921   1.552 -0.0000  0.4437  0.5681
 2401SOL    HW117242   9.847   2.989   1.559 -0.5937 -0.1524  0.2737
 2401SOL    HW217243   9.997   2.960   1.501 -0.8671  0.4764 -0.7685
 2402SOL     OW17244   1.949   6.969   2.031  0.0007 -0.7770  0.2965
 2402SOL    HW117245   1.917   6.923   2.113 -0.6567 -1.4252 -0.3168
 2402SOL    HW217246   1.900   7.056   2.021 -2.0279 -2.0237 -0.9409
 2403SOL     OW17247   2.656   9.224   2.361  0.6973  0.4013 -0.0123
 2403SOL    HW117248   2.641   9.125   2.356 -1.4614  0.6256  1.2382
 2403SOL    HW217249   2.668   9.260   2.269  1.0619 -0.9569 -0.5144
 2404SOL     OW17250   4.452   1.849   2.473 -0.0944 -0.0580  0.3439
 2404SOL    HW117251   4.507   1.933   2.476 -0.7562  0.3607  0.7793
 2404SOL    HW217252   4.508   1.771   2.502  0.2220  0.3892  0.9407
 2405SOL     OW17253   3.000   0.295   2.028 -0.3811 -0.2337  0.0989
 2405SOL    HW117254   3.029   0.245   1.946  0.6629 -0.5414  0.6526
 2405SOL    HW217255   2.903   0.318   2.020 -0.9672 -2.6089 -0.0256
 2406SOL     OW17256   9.082   1.671   0.144 -0.0174 -0.7723  0.3958
 2406SOL    HW117257   9.125   1.756   0.171 -1.5627 -0.2553  1.2630
 2406SOL    HW217258   9.014   1.689   0.072  0.2944 -1.3962 -0.0633
 2407SOL     OW17259   0.449   4.062   0.849 -0.2865  0.7102  0.0937
 2407SOL    HW117260   0.482   4.124   0.778  0.8473  0.1218  0.0879
 2407SOL    HW217261   0.431   3.972   0.809 -3.3240  1.3842 -0.1968
 2408SOL     OW17262   2.292   4.222   0.572 -0.3953 -0.7687 -0.1695
 2408SOL    HW117263   2.216   4.161   0.592 -0.4850 -0.4673  0.4135
 2408SOL    HW217264   2.363   4.172   0.523 -0.9307 -1.0739 -0.6357
 2409SOL     OW17265   3.798   9.714   0.774  0.5090 -0.7132 -0.5785
 2409SOL    HW117266   3.830   9.622   0.754 -1.0565 -1.4240  0.0515
 2409SOL    HW217267   3.714   9.731   0.722  0.4725  0.1437 -0.2367
 2410SOL     OW17268   1.973   4.317   0.742  0.3707 -0.3864  0.2519
 2410SOL    HW117269   2.004   4.244   0.682 -1.1388 -0.4375 -0.4691
 2410SOL    HW217270   2.034   4.396   0.732  0.2975 -0.4942 -1.1515
 2411SOL     OW17271   2.032   9.760   0.892  0.7830  0.1186  0.4234
 2411SOL    HW117272   2.046   9.749   0.793 -0.6119  3.3171 -0.1621
 2411SOL    HW217273   1.960   9.698   0.922 -1.1767  1.5093 -1.2386
 2412SOL     OW17274   2.588   0.342   2.217  0.1374 -0.1972  0.6260
 2412SOL    HW117275   2.651   0.305   2.149  0.7746  0.1343  1.0405
 2412SOL    HW217276   2.561   0.434   2.190 -0.8317 -0.6461  0.0116
 2413SOL     OW17277   2.685   8.421   1.202 -0.1591  0.4829  0.0526
 2413SOL    HW117278   2.617   8.360   1.162  0.5979 -0.8737  0.7920
 2413SOL    HW217279   2.685   8.411   1.302  1.2642  0.2958  0.0498
 2414SOL     OW17280   0.858   8.949   1.033 -0.3210  0.8418 -0.1633
 2414SOL    HW117281   0.829   8.920   0.941 -0.9111 -1.0100  0.5783
 2414SOL    HW217282   0.865   9.049   1.036 -0.9557  0.9676 -2.0200
 2415SOL     OW17283   3.108   0.982   2.228  0.0191 -0.4720  0.0151
 2415SOL    HW117284   3.156   0.899   2.199  0.0473  0.4013 -2.5686
 2415SOL    HW217285   3.011   0.973   2.210 -0.0487 -0.1254  0.2045
 2416SOL     OW17286   0.615   4.037   2.115  0.4940  0.3051  0.4681
 2416SOL    HW117287   0.681   4.072   2.182  0.3948  2.2641 -0.4207
 2416SOL    HW217288   0.655   4.043   2.024 -0.1827 -0.3308  0.1313
 2417SOL     OW17289   1.902   5.049   1.099  0.1031 -0.7374 -0.5944
 2417SOL    HW117290   1.961   5.111   1.047 -0.0776 -0.1030 -0.0455
 2417SOL    HW217291   1.864   5.097   1.178 -1.2287 -1.1049 -0.9942
 2418SOL     OW17292   1.109   1.067   0.814 -0.4098  0.0885  0.0989
 2418SOL    HW117293   1.159   0.983   0.836  1.4398  1.2908  0.5869
 2418SOL    HW217294   1.011   1.047   0.809  0.1837 -2.5172 -1.8846
 2419SOL     OW17295   1.993   6.811   0.077 -0.2200 -0.7748 -0.0357
 2419SOL    HW117296   1.895   6.827   0.091 -0.0029 -0.6083  1.3917
 2419SOL    HW217297   2.005   6.735   0.014 -1.2734 -0.4670 -0.6184
 2420SOL     OW17298   2.823   3.499   0.395  0.0836  0.1294 -0.5871
 2420SOL    HW117299   2.870   3.482   0.482 -1.8499 -1.4358  0.1871
 2420SOL    HW217300   2.861   3.440   0.324  0.2231 -0.1272 -0.2959
 2421SOL     OW17301   1.162   4.556   2.027  0.1850  0.2839  0.3567
 2421SOL    HW117302   1.101   4.621   1.981  0.2144 -0.4068 -0.6766
 2421SOL    HW217303   1.125   4.463   2.017  0.5235  0.0563  1.1948
 2422SOL     OW17304   4.182   3.276   0.046 -0.2140 -0.2441  0.1449
 2422SOL    HW117305   4.172   3.180   0.020  0.7112 -0.0358 -1.0251
 2422SOL    HW217306   4.255   3.285   0.113 -0.3818 -0.3738  0.3446
 2423SOL     OW17307   1.962   8.131   0.370  0.2423  0.1954  0.1738
 2423SOL    HW117308   2.025   8.118   0.294 -0.4622  0.0092 -0.3774
 2423SOL    HW217309   1.921   8.043   0.395 -0.0280  0.3686  0.3411
 2424SOL     OW17310   0.196   9.041   0.213 -0.3053  0.5566  0.0529
 2424SOL    HW117311   0.096   9.050   0.215 -0.1228  3.1703 -1.3088
 2424SOL    HW217312   0.237   9.125   0.177  2.4545 -0.1446  1.4275
 2425SOL     OW17313   2.351   4.110   0.894  0.4824 -0.5110 -0.4865
 2425SOL    HW117314   2.390   4.110   0.802 -0.1299  1.5402 -0.7881
 2425SOL    HW217315   2.265   4.061   0.894 -0.8580  1.7340 -1.6700
 2426SOL     OW17316   2.256   6.811   1.004 -0.3406  0.2736  0.3293
 2426SOL    HW117317   2.349   6.783   1.030  0.1233  1.5865  0.0924
 2426SOL    HW217318   2.206   6.731   0.969  0.6028 -0.4982  0.7161
 2427SOL     OW17319   4.133   3.946   0.402 -0.1361 -0.7652 -0.4359
 2427SOL    HW117320   4.039   3.978   0.415  0.0712 -0.5044  0.5126
 2427SOL    HW217321   4.182   3.955   0.489  0.6840 -1.1547 -0.8635
 2428SOL     OW17322   0.955   7.897   1.174  0.0045  0.1675 -1.1329
 2428SOL    HW117323   1.037   7.839   1.178 -0.2655 -0.0792  2.0999
 2428SOL    HW217324   0.983   7.993   1.180  0.0388  0.0267  2.0417
 2429SOL     OW17325   2.340   5.515   0.897 -0.4514  0.0742  0.2781
 2429SOL    HW117326   2.368   5.432   0.849  0.0980 -0.6306  1.7705
 2429SOL    HW217327   2.369   5.595   0.845  1.8878 -0.6604  0.3936
 2430SOL     OW17328   9.956   4.829   0.703 -0.1534 -0.2673 -0.0356
 2430SOL    HW117329  10.007   4.817   0.618  1.4593 -1.1603  1.0182
 2430SOL    HW217330   9.875   4.884   0.686  0.0912 -0.5196 -2.1688
 2431SOL     OW17331   1.432   5.945   1.952 -0.4013 -0.3391 -0.1364
 2431SOL    HW117332   1.428   5.940   1.852 -1.0506  0.4959 -0.1581
 2431SOL    HW217333   1.378   5.871   1.991  0.9314 -1.4649 -0.3935
 2432SOL     OW17334   0.020   4.956   0.074 -1.0473 -0.1682 -0.4477
 2432SOL    HW117335  -0.076   4.954   0.045 -1.3259 -1.0145  0.4895
 2432SOL    HW217336   0.044   4.868   0.116  0.1612  0.0140 -0.7393
 2433SOL     OW17337   0.317   9.971   0.534  0.9310  0.1525  0.1527
 2433SOL    HW117338   0.412   9.961   0.563  1.2025  2.1404  0.0453
 2433SOL    HW217339   0.261   9.995   0.613  0.6911 -0.0201  0.0355
 2434SOL     OW17340   2.810   9.414   0.440  0.0969 -0.1129 -0.2277
 2434SOL    HW117341   2.829   9.510   0.419  0.3732 -0.0676  0.2151
 2434SOL    HW217342   2.896   9.365   0.453 -0.0602 -0.1775  0.6060
 2435SOL     OW17343   9.867   4.580   0.751  0.1776  0.4154  0.3407
 2435SOL    HW117344   9.899   4.675   0.745 -0.2950  0.5089 -1.0156
 2435SOL    HW217345   9.774   4.574   0.715  0.8644 -0.8525 -1.3018
 2436SOL     OW17346   2.753   1.800   0.649 -0.2000  0.8901  0.0026
 2436SOL    HW117347   2.714   1.877   0.700 -1.8010 -1.1461  1.9858
 2436SOL    HW217348   2.852   1.797   0.663 -0.5197  0.7568  2.5184
 2437SOL     OW17349   1.289   5.539   0.682  0.0029  0.4578 -0.0442
 2437SOL    HW117350   1.278   5.637   0.662  1.3559  0.5088 -0.6250
 2437SOL    HW217351   1.215   5.488   0.639 -0.2974  1.1570 -0.3800
 2438SOL     OW17352   0.369   2.015   2.335  0.3282  0.4090  0.3745
 2438SOL    HW117353   0.432   1.939   2.319 -0.2840 -0.5437  2.3491
 2438SOL    HW217354   0.276   1.987   2.311  0.0689  0.4596  1.3315
 2439SOL     OW17355   2.784   2.759   2.173 -0.1004  0.4708 -0.1268
 2439SOL    HW117356   2.743   2.704   2.245  0.4598  1.0260  0.6218
 2439SOL    HW217357   2.791   2.704   2.089 -0.5241 -0.2490  0.3043
 2440SOL     OW17358   3.135   7.285   2.497  0.4364  0.1474 -0.1627
 2440SOL    HW117359   3.082   7.268   2.415 -1.3457  0.7613  0.8435
 2440SOL    HW217360   3.094   7.236   2.574 -0.1812  2.6578  1.1577
 2441SOL     OW17361   0.920   1.809   1.508  0.5491  0.1216  0.5621
 2441SOL    HW117362   0.902   1.834   1.604  0.5289 -1.5928  1.0288
 2441SOL    HW217363   0.985   1.733   1.505 -0.6785 -0.9078 -0.7153
 2442SOL     OW17364   4.219   2.006   0.910  0.0377 -0.4279  0.0147
 2442SOL    HW117365   4.171   2.024   0.996 -1.0231 -0.0204 -0.6694
 2442SOL    HW217366   4.176   1.929   0.863 -0.2766  0.2905 -0.8673
 2443SOL     OW17367   0.187   3.913   1.225 -0.0792 -0.7401  0.6057
 2443SOL    HW117368   0.121   3.958   1.285  0.3373 -0.5089  0.8999
 2443SOL    HW217369   0.151   3.908   1.132  0.4149  1.4250  0.2676
 2444SOL     OW17370   2.549   1.607   1.137  0.2205 -0.3259 -0.6518
 2444SOL    HW117371   2.509   1.648   1.054 -1.6012  0.0050  0.3500
 2444SOL    HW217372   2.480   1.606   1.209  1.7567 -0.7209  0.8326
 2445SOL     OW17373   1.108   7.249   1.438 -0.2334 -0.2374  0.2015
 2445SOL    HW117374   1.155   7.330   1.472  0.0870  0.4527 -1.7849
 2445SOL    HW217375   1.009   7.265   1.439 -0.1857  0.0629  0.1179
 2446SOL     OW17376   9.004   3.214   2.272 -0.2387  0.3374  0.0023
 2446SOL    HW117377   9.081   3.235   2.211 -0.1611  0.0864  0.0114
 2446SOL    HW217378   9.011   3.268   2.355 -0.1690  0.4472 -0.0753
 2447SOL     OW17379   9.289   5.982   0.947 -0.6392  0.0121  0.1831
 2447SOL    HW117380   9.384   6.006   0.929 -0.0823 -0.1988  2.7129
 2447SOL    HW217381   9.252   5.930   0.869  1.1524  0.5317 -1.0170
 2448SOL     OW17382   2.835   3.933   0.401  0.0868 -0.1240  0.2079
 2448SOL    HW117383   2.808   4.017   0.354  2.0114  0.6119  0.3770
 2448SOL    HW217384   2.793   3.854   0.356  2.2425  0.5091 -3.0524
 2449SOL     OW17385   1.889   8.368   2.509 -0.2167 -0.3663  0.0540
 2449SOL    HW117386   1.827   8.446   2.501 -1.4763 -1.3432  0.1535
 2449SOL    HW217387   1.956   8.387   2.581 -1.6709 -0.1324  1.4048
 2450SOL     OW17388   9.818   8.677   2.545 -0.2585  0.1743 -0.4208
 2450SOL    HW117389   9.805   8.759   2.489  2.4616  0.6765 -0.3950
 2450SOL    HW217390   9.868   8.608   2.493  0.6892 -0.0480  0.7642
 2451SOL     OW17391   8.771   4.241   0.695 -0.0533 -0.2231 -0.2435
 2451SOL    HW117392   8.679   4.266   0.727 -0.6201 -1.0606 -1.2032
 2451SOL    HW217393   8.822   4.199   0.770  0.8018  3.3838  1.3338
 2452SOL     OW17394   0.168   8.839   2.150  0.4758 -0.0992 -0.5910
 2452SOL    HW117395   0.231   8.761   2.144 -1.0435 -1.4136  0.0847
 2452SOL    HW217396   0.089   8.814   2.206 -0.1374  1.8793 -0.5288
 2453SOL     OW17397   0.440   7.628   0.200 -0.0485 -0.6871 -0.5226
 2453SOL    HW117398   0.527   7.581   0.188  0.7130  0.9124 -1.4734
 2453SOL    HW217399   0.456   7.713   0.251 -1.1380 -0.6452 -0.2489
 2454SOL     OW17400   9.605   1.887   2.523 -0.0344  0.0259  0.5321
 2454SOL    HW117401   9.548   1.952   2.573  0.4938 -0.3632  1.6661
 2454SOL    HW217402   9.600   1.798   2.568 -0.5946 -0.6787 -0.8888
 2455SOL     OW17403   9.226   2.691   0.186  0.1474 -0.3099 -0.2349
 2455SOL    HW117404   9.246   2.733   0.275 -1.5900  1.0274 -0.4540
 2455SOL    HW217405   9.133   2.655   0.187 -0.0707  0.2227 -1.7238
 2456SOL     OW17406   1.334   8.415   1.508  0.2043 -0.1046 -0.1587
 2456SOL    HW117407   1.365   8.321   1.526 -0.7657 -0.4549 -0.3340
 2456SOL    HW217408   1.237   8.415   1.486  0.2212  0.9372 -0.2557
 2457SOL     OW17409   9.403   2.724   1.244 -0.3224 -0.2557 -0.7685
 2457SOL    HW117410   9.484   2.721   1.185 -1.7554 -0.9699 -2.7976
 2457SOL    HW217411   9.396   2.814   1.287  2.0223 -0.4846  0.1659
 2458SOL     OW17412   4.114   2.666   1.913 -0.4017  0.7715 -0.1727
 2458SOL    HW117413   4.129   2.667   1.814  0.0585  2.2131 -0.1006
 2458SOL    HW217414   4.068   2.750   1.941  0.8957  1.0958  1.0551
 2459SOL     OW17415   0.286   1.801   0.773  0.2285  0.3387 -0.5016
 2459SOL    HW117416   0.227   1.723   0.794  0.7128  0.3708  1.0650
 2459SOL    HW217417   0.376   1.788   0.816  0.3230  1.7395 -0.2379
 2460SOL     OW17418   8.906   1.796   2.209  0.3423 -0.1911 -0.3708
 2460SOL    HW117419   8.810   1.821   2.215  0.5705  0.5053  0.5956
 2460SOL    HW217420   8.957   1.871   2.166  0.5719 -0.2150 -0.1442
 2461SOL     OW17421   1.758   8.716   1.792  0.1476 -0.6162  0.4502
 2461SOL    HW117422   1.845   8.760   1.811  0.0808 -0.5993  0.7191
 2461SOL    HW217423   1.724   8.670   1.874 -0.9515  0.8733  0.8564
 2462SOL     OW17424   2.896   4.537   1.376  0.2520 -0.5610 -0.0943
 2462SOL    HW117425   2.992   4.513   1.367  0.3919 -0.7776  1.7758
 2462SOL    HW217426   2.852   4.536   1.286  2.1842  0.3835 -1.0585
 2463SOL     OW17427   3.087   1.079   1.706  0.4402 -0.0699 -0.3062
 2463SOL    HW117428   3.113   1.141   1.632 -1.2471 -0.8450 -1.5646
 2463SOL    HW217429   3.152   1.003   1.711 -0.8840 -1.4121 -2.7192
 2464SOL     OW17430   1.209   3.271   2.310 -0.1711  0.6730 -0.7658
 2464SOL    HW117431   1.248   3.355   2.274 -2.6479  2.6428  0.9448
 2464SOL    HW217432   1.119   3.256   2.270 -0.4777 -0.2261  0.2407
 2465SOL     OW17433   0.047   0.958   2.236  0.2973  0.0478  0.0810
 2465SOL    HW117434   0.005   1.034   2.286  0.4181 -0.1067  0.4219
 2465SOL    HW217435  -0.009   0.936   2.157 -0.9741 -0.9943  1.2372
 2466SOL     OW17436   2.694   2.680   0.921 -0.1349 -0.0605  0.2823
 2466SOL    HW117437   2.775   2.637   0.881 -0.5696 -0.4936 -0.1413
 2466SOL    HW217438   2.666   2.631   1.004 -0.2840 -0.2475  0.1235
 2467SOL     OW17439   2.219   7.059   1.667 -0.0940 -0.0692 -0.4656
 2467SOL    HW117440   2.264   7.034   1.581 -0.3637 -0.3297 -0.5314
 2467SOL    HW217441   2.255   7.004   1.741  0.6930  0.6889 -0.2727
 2468SOL     OW17442   2.220   6.118   1.098  0.0243 -0.5622 -0.0449
 2468SOL    HW117443   2.279   6.140   1.020 -1.3201 -0.7250 -1.1218
 2468SOL    HW217444   2.207   6.019   1.102  0.5177 -0.6058  0.7242
 2469SOL     OW17445   2.080   3.478   1.031  0.2230 -0.2396 -0.2054
 2469SOL    HW117446   2.119   3.559   1.075  2.0481 -1.0319 -0.2924
 2469SOL    HW217447   1.995   3.502   0.985  0.4410  1.4943  0.2727
 2470SOL     OW17448   2.494   5.324   2.256 -0.3388 -0.2055  0.7206
 2470SOL    HW117449   2.518   5.272   2.174  0.7656 -1.1037  1.5856
 2470SOL    HW217450   2.430   5.397   2.232  1.8923  1.1597 -1.3791
 2471SOL     OW17451   0.462   0.541   0.341 -0.3810  0.8773 -0.1768
 2471SOL    HW117452   0.461   0.609   0.268 -0.7425  1.4243  0.3334
 2471SOL    HW217453   0.541   0.555   0.400  1.4531 -1.2564 -2.0191
 2472SOL     OW17454   4.143   1.424   1.316  0.2746  0.2240  0.0236
 2472SOL    HW117455   4.236   1.399   1.342  0.5546  1.0285 -0.2197
 2472SOL    HW217456   4.108   1.356   1.250  0.8438  0.1696 -0.2239
 2473SOL     OW17457   4.049   2.336   0.699  0.6457  0.2174 -0.7447
 2473SOL    HW117458   4.135   2.337   0.750  0.6794 -0.9960 -0.7703
 2473SOL    HW217459   4.042   2.251   0.648 -1.1907 -0.2616  0.2837
 2474SOL     OW17460   2.281   0.885   0.042  0.4556 -0.3726  0.0817
 2474SOL    HW117461   2.252   0.800   0.087  0.0628 -0.3255 -0.0808
 2474SOL    HW217462   2.341   0.936   0.104  0.9642 -0.9259  0.0508
 2475SOL     OW17463   1.374   5.055   1.483 -0.1609 -0.6640  0.0773
 2475SOL    HW117464   1.415   5.077   1.571  0.5895  0.7198 -0.6001
 2475SOL    HW217465   1.360   4.956   1.476 -1.0135 -0.7101  2.0746
 2476SOL     OW17466   0.810   9.799   0.681 -0.0265  0.4552 -0.1670
 2476SOL    HW117467   0.779   9.808   0.776 -1.5748 -0.2298 -0.5892
 2476SOL    HW217468   0.900   9.755   0.679  0.4370  1.3324  1.0231
 2477SOL     OW17469   1.810   0.431   1.798  0.1073  0.0169  0.4271
 2477SOL    HW117470   1.832   0.525   1.773 -1.1101  0.1412 -0.2278
 2477SOL    HW217471   1.784   0.427   1.894 -2.2700  0.8082 -0.1443
 2478SOL     OW17472   2.574   0.805   2.497  0.2362 -0.1124  0.0100
 2478SOL    HW117473   2.527   0.867   2.435 -0.9412 -1.6383 -0.6664
 2478SOL    HW217474   2.657   0.770   2.453 -0.8400 -1.5522 -0.9385
 2479SOL     OW17475   0.271   8.153   1.072  0.2251 -0.5840  0.3069
 2479SOL    HW117476   0.224   8.066   1.086 -0.2263 -0.2050  1.1393
 2479SOL    HW217477   0.253   8.186   0.980  0.4261 -1.3819 -0.0275
 2480SOL     OW17478   9.708   4.341   1.572 -0.2224  0.0460  0.3132
 2480SOL    HW117479   9.709   4.351   1.671  1.0592 -0.1730  0.3396
 2480SOL    HW217480   9.788   4.387   1.533 -0.4250 -0.3283 -0.5667
 2481SOL     OW17481   2.629   4.134   0.860  0.5385 -0.1671  0.4998
 2481SOL    HW117482   2.615   4.231   0.843  2.6232  0.1167  0.1923
 2481SOL    HW217483   2.587   4.108   0.946 -0.3755  0.9240  0.3859
 2482SOL     OW17484   3.386   0.311   2.261  0.0481 -0.0885 -0.0400
 2482SOL    HW117485   3.324   0.234   2.243 -1.0062  1.0780 -1.4767
 2482SOL    HW217486   3.458   0.313   2.192 -0.9272  1.2250 -1.0440
 2483SOL     OW17487   1.000   3.987   1.544  0.1800  0.2578 -0.0641
 2483SOL    HW117488   0.954   3.915   1.493  0.1590  0.3138 -0.1236
 2483SOL    HW217489   1.038   4.055   1.481  0.2821  0.2494 -0.0126
 2484SOL     OW17490   2.163   0.636   0.554  0.5658 -0.0400  0.1920
 2484SOL    HW117491   2.192   0.541   0.539  0.8379 -0.1758  1.5409
 2484SOL    HW217492   2.120   0.644   0.644 -2.1585  0.5055 -1.1258
 2485SOL     OW17493   9.289   5.411   1.936  0.3928 -0.6594 -0.1049
 2485SOL    HW117494   9.230   5.375   1.863  0.9578  0.0915 -0.9408
 2485SOL    HW217495   9.371   5.451   1.895  0.1572  0.8559  0.8667
 2486SOL     OW17496   1.306   4.535   1.592 -0.2683  0.0384 -0.1265
 2486SOL    HW117497   1.322   4.543   1.690 -0.8493  0.4234 -0.0654
 2486SOL    HW217498   1.356   4.455   1.557 -1.4868 -1.1398  0.7946
 2487SOL     OW17499   2.625   0.993   1.819 -0.3571 -0.3153 -0.5983
 2487SOL    HW117500   2.605   0.919   1.883 -0.9017 -0.0271 -0.4332
 2487SOL    HW217501   2.578   1.076   1.848 -1.4130 -0.4362 -1.9158
 2488SOL     OW17502   2.173   8.018   1.113 -0.1442 -0.1234 -0.1221
 2488SOL    HW117503   2.122   8.048   1.032  0.9471  0.2758 -0.6647
 2488SOL    HW217504   2.157   7.920   1.127  0.0185 -0.2926 -1.0812
 2489SOL     OW17505   0.417   7.930   0.247  0.2009 -0.3744 -0.2835
 2489SOL    HW117506   0.442   7.912   0.152 -0.3040  1.0717 -0.7017
 2489SOL    HW217507   0.328   7.975   0.251  0.5584  0.2707  0.8297
 2490SOL     OW17508   3.212   4.827   0.581  0.3313 -0.1621 -0.2977
 2490SOL    HW117509   3.226   4.858   0.675  2.4538 -4.3078  0.8495
 2490SOL    HW217510   3.121   4.787   0.572 -0.2986  1.2549 -0.3250
 2491SOL     OW17511   2.968   9.116   0.998 -0.2933 -1.0056  0.6151
 2491SOL    HW117512   2.942   9.020   1.003  1.9875 -1.6757  0.4043
 2491SOL    HW217513   3.057   9.129   1.043  0.3781  0.6159 -1.0985
 2492SOL     OW17514   1.629   2.700   1.885  0.7415  0.3283 -0.8326
 2492SOL    HW117515   1.692   2.738   1.953  0.5003 -1.1221  0.2280
 2492SOL    HW217516   1.671   2.620   1.841  1.0514  1.4802 -2.6952
 2493SOL     OW17517   1.332   5.501   0.075  0.1244  0.3435 -0.0922
 2493SOL    HW117518   1.286   5.495  -0.013 -0.9457  0.0558  0.4795
 2493SOL    HW217519   1.388   5.419   0.090 -0.4173 -0.0319 -0.1090
 2494SOL     OW17520   0.819   6.048   0.025 -0.2849  0.2500  0.3287
 2494SOL    HW117521   0.724   6.054   0.057 -1.2004 -0.0666 -2.1991
 2494SOL    HW217522   0.843   6.133  -0.022  0.5826  0.1921  0.6614
 2495SOL     OW17523   0.565   9.560   1.251 -0.0726  0.4038  0.3087
 2495SOL    HW117524   0.636   9.490   1.256 -0.1579  0.2671 -0.3786
 2495SOL    HW217525   0.602   9.648   1.282  0.3002  0.2620  0.2634
 2496SOL     OW17526   3.210   0.916   1.905  0.1138 -1.3157  0.5472
 2496SOL    HW117527   3.241   0.872   1.989 -0.2543  0.0783  1.4334
 2496SOL    HW217528   3.249   1.008   1.899 -2.6108 -0.0773  0.9560
 2497SOL     OW17529   2.485   6.913   0.225  0.3023  0.2548  0.4024
 2497SOL    HW117530   2.390   6.900   0.256 -0.3659  0.4961 -1.4835
 2497SOL    HW217531   2.507   7.010   0.227  0.3216  0.2514  0.2778
 2498SOL     OW17532   4.810   2.979   2.301 -0.4617 -0.1603 -0.1618
 2498SOL    HW117533   4.755   2.910   2.255  0.8629  0.2083 -2.3881
 2498SOL    HW217534   4.760   3.066   2.302 -1.3108 -0.6522  0.8813
 2499SOL     OW17535   2.511   7.569   0.192 -0.1191 -0.7000  0.1292
 2499SOL    HW117536   2.595   7.572   0.246 -0.1893 -0.2250  0.2204
 2499SOL    HW217537   2.434   7.546   0.252 -0.1332 -0.6018  0.1491
 2500SOL     OW17538   0.323   5.721   1.718  0.3529  0.1969  0.8702
 2500SOL    HW117539   0.404   5.763   1.676  0.6987 -0.5995  0.7237
 2500SOL    HW217540   0.352   5.643   1.774 -0.4352 -0.9628 -0.3115
 2501SOL     OW17541   0.300   8.766   1.221  0.3139 -0.0884  0.1429
 2501SOL    HW117542   0.276   8.744   1.126 -0.2246  0.5742  0.1238
 2501SOL    HW217543   0.303   8.682   1.275  2.6455 -0.7277 -0.9092
 2502SOL     OW17544   3.174   9.166   1.180  0.3453 -0.7021  0.1494
 2502SOL    HW117545   3.182   9.233   1.253 -0.0122 -2.2679  1.6665
 2502SOL    HW217546   3.171   9.074   1.219  0.8319 -1.6185 -1.8814
 2503SOL     OW17547   3.556   0.509   2.436  0.0131 -0.3397 -0.0201
 2503SOL    HW117548   3.540   0.439   2.367 -1.0600  2.1618 -2.4127
 2503SOL    HW217549   3.487   0.502   2.508 -0.6176 -1.1639 -0.6971
 2504SOL     OW17550   0.528   4.808   1.953  0.4776 -0.8380 -0.3164
 2504SOL    HW117551   0.437   4.843   1.977 -0.2849 -2.0356 -1.4006
 2504SOL    HW217552   0.583   4.798   2.036  0.1755  1.4063  0.1722
 2505SOL     OW17553   1.180   5.185   1.349  0.3586  0.2414  0.0274
 2505SOL    HW117554   1.255   5.144   1.400 -0.7783 -0.4148  1.2064
 2505SOL    HW217555   1.137   5.116   1.291 -0.0628  0.3169  0.2424
 2506SOL     OW17556   9.781   5.550   1.147  0.3288 -0.0699 -0.2851
 2506SOL    HW117557   9.746   5.456   1.144  0.5183 -0.3575  4.0192
 2506SOL    HW217558   9.730   5.603   1.214  2.5446  1.9235 -0.1052
 2507SOL     OW17559   1.977   0.314   1.052  0.0267 -0.2068 -0.0644
 2507SOL    HW117560   2.044   0.330   1.124  2.6445  1.9259 -2.8228
 2507SOL    HW217561   2.001   0.232   1.001  1.0084  0.9294 -1.4818
 2508SOL     OW17562   9.325   0.592   1.232 -0.7276  0.5172  0.4967
 2508SOL    HW117563   9.310   0.688   1.208 -0.2530  0.6038  0.5446
 2508SOL    HW217564   9.252   0.536   1.191  1.2177  0.3899 -3.0191
 2509SOL     OW17565   9.845   6.502   1.660  0.6485 -0.1931  0.6906
 2509SOL    HW117566   9.854   6.480   1.757 -0.2632 -0.2989  0.7531
 2509SOL    HW217567   9.804   6.592   1.650 -0.4960 -0.7402  0.3978
 2510SOL     OW17568   0.394   3.351   1.766  0.0574  0.4462 -0.5641
 2510SOL    HW117569   0.298   3.364   1.743  0.1506 -0.4339 -1.5058
 2510SOL    HW217570   0.451   3.383   1.691  0.4434 -0.5341 -0.6976
 2511SOL     OW17571   0.689   2.987   2.553 -0.2647  0.2903 -0.2637
 2511SOL    HW117572   0.682   3.086   2.560  0.9649  0.5480 -2.2514
 2511SOL    HW217573   0.626   2.953   2.482 -0.5425 -0.3274  0.2703
 2512SOL     OW17574   9.832   7.240   1.931 -0.4426 -0.2382  0.5080
 2512SOL    HW117575   9.775   7.321   1.939 -0.3810  0.0929 -2.0266
 2512SOL    HW217576   9.816   7.179   2.010 -2.6812  0.8287  0.8974
 2513SOL     OW17577   2.125   1.681   0.422  0.0522  0.2259 -0.4296
 2513SOL    HW117578   2.070   1.753   0.380  0.7907  0.5551 -0.8495
 2513SOL    HW217579   2.192   1.648   0.357  0.3125 -0.2128  0.0557
 2514SOL     OW17580   0.527   0.490   2.397  0.0383  0.1745  0.1854
 2514SOL    HW117581   0.465   0.452   2.466 -2.2567  1.0171 -1.3346
 2514SOL    HW217582   0.532   0.429   2.318  1.6290 -0.1569  0.5212
 2515SOL     OW17583   2.063   4.101   0.571 -0.0607 -0.1738 -0.3176
 2515SOL    HW117584   1.968   4.100   0.539 -0.1575  2.3165 -0.2432
 2515SOL    HW217585   2.120   4.050   0.506 -1.2853 -0.8827 -0.8702
 2516SOL     OW17586   1.009   6.990   2.076  0.0682 -0.0378 -0.1068
 2516SOL    HW117587   1.088   6.967   2.132 -0.9165 -0.3206  1.1857
 2516SOL    HW217588   0.948   7.051   2.127 -0.3058  0.5925 -1.2781
 2517SOL     OW17589   2.481   2.079   0.544  0.1598  0.1580 -0.2478
 2517SOL    HW117590   2.418   2.002   0.551 -0.7824  0.9721  0.2644
 2517SOL    HW217591   2.459   2.133   0.463  1.6516 -0.8315 -1.3509
 2518SOL     OW17592   3.049   2.371   2.105 -0.1382 -0.0789 -0.5158
 2518SOL    HW117593   3.134   2.330   2.073 -0.5588 -1.4159  0.0304
 2518SOL    HW217594   3.069   2.439   2.175  0.5354  0.2214 -0.9963
 2519SOL     OW17595   1.737   4.320   1.822 -0.2414 -0.4925 -0.3515
 2519SOL    HW117596   1.826   4.339   1.863  0.7622 -1.3814 -2.0699
 2519SOL    HW217597   1.706   4.401   1.772 -0.6481 -0.0123  0.6633
 2520SOL     OW17598   4.148   2.564   0.182 -0.3540 -0.8366  0.0227
 2520SOL    HW117599   4.115   2.501   0.112 -1.1411 -0.1654 -0.2254
 2520SOL    HW217600   4.076   2.580   0.249 -0.2603 -0.0051 -0.0613
 2521SOL     OW17601   2.648   1.460   0.173  0.3825 -0.4427  0.3773
 2521SOL    HW117602   2.734   1.415   0.146 -0.2698 -1.8422  0.5937
 2521SOL    HW217603   2.635   1.449   0.272 -0.7445 -1.4909  0.1308
 2522SOL     OW17604   1.022   5.346   2.194 -0.1899  0.4708 -0.1271
 2522SOL    HW117605   0.970   5.431   2.204  0.0103  0.5926 -0.1134
 2522SOL    HW217606   1.094   5.359   2.126  0.2496  0.5076  0.3429
 2523SOL     OW17607   0.793   6.275   1.097  0.0113 -0.2750  0.2335
 2523SOL    HW117608   0.732   6.200   1.072 -0.5836  0.0556  0.6877
 2523SOL    HW217609   0.888   6.243   1.094 -0.2189 -0.9595  0.1266
 2524SOL     OW17610   0.319   1.957   0.040 -0.5359 -0.5494 -0.5715
 2524SOL    HW117611   0.226   1.975   0.008 -0.1945  1.7424 -0.3599
 2524SOL    HW217612   0.384   2.007  -0.017  0.2921  0.9909  1.6520
 2525SOL     OW17613   2.767   0.419   0.512 -0.5172  0.4260  0.2801
 2525SOL    HW117614   2.748   0.349   0.581  1.4423 -0.7692 -0.3369
 2525SOL    HW217615   2.733   0.390   0.423 -0.3604  0.5883  0.1641
 2526SOL     OW17616   1.162   3.674   2.183  0.3415  0.6504  0.0455
 2526SOL    HW117617   1.225   3.597   2.173  0.3353  0.9209 -2.4142
 2526SOL    HW217618   1.191   3.732   2.259  0.8802 -1.2597  1.3305
 2527SOL     OW17619   1.786   1.572   0.771  0.5948 -0.2498  0.7842
 2527SOL    HW117620   1.705   1.575   0.711 -0.3219  0.8109  2.0343
 2527SOL    HW217621   1.857   1.631   0.733  0.5533 -0.6807  0.0124
 2528SOL     OW17622   3.498   1.280   0.330 -0.2943 -0.1012  0.4708
 2528SOL    HW117623   3.467   1.203   0.385  1.4475 -1.9195 -1.0602
 2528SOL    HW217624   3.421   1.316   0.277 -0.8985 -1.4287  0.4337
 2529SOL     OW17625   3.511   0.393   1.637  0.1407  0.1348  0.0928
 2529SOL    HW117626   3.553   0.471   1.591 -0.6174  1.3739  1.4557
 2529SOL    HW217627   3.461   0.425   1.717 -2.2370 -1.4630 -0.6977
 2530SOL     OW17628   0.161   7.840   0.814 -0.0335 -0.7032 -0.0463
 2530SOL    HW117629   0.235   7.815   0.877 -0.1322 -0.5550  0.1276
 2530SOL    HW217630   0.083   7.873   0.866 -0.6072 -1.8449 -0.1583
 2531SOL     OW17631   2.802   9.745   0.773 -0.0418 -0.1087  0.5721
 2531SOL    HW117632   2.849   9.813   0.829 -0.4852  0.6787 -0.0146
 2531SOL    HW217633   2.734   9.697   0.830  0.3300 -0.1322  1.0029
 2532SOL     OW17634   9.598   2.139   0.089 -0.5063  0.1349  0.2898
 2532SOL    HW117635   9.508   2.173   0.060 -0.3862 -0.2384 -0.5430
 2532SOL    HW217636   9.666   2.211   0.076 -0.1141 -0.6301 -2.2184
 2533SOL     OW17637   0.266   8.048   2.237  0.0252 -0.1407 -0.8135
 2533SOL    HW117638   0.181   8.092   2.265  0.8793  0.2240  1.3572
 2533SOL    HW217639   0.330   8.119   2.206 -0.2633 -0.3593 -1.9196
 2534SOL     OW17640   9.882   1.165   2.352 -0.2046  0.1103  0.2586
 2534SOL    HW117641   9.910   1.259   2.329 -1.3831  1.5097  4.1362
 2534SOL    HW217642   9.798   1.143   2.303 -1.0022  1.8337  0.8118
 2535SOL     OW17643   4.565   2.670   0.856  0.5323  0.1170 -0.2393
 2535SOL    HW117644   4.532   2.728   0.931 -1.1049  0.7583 -1.4382
 2535SOL    HW217645   4.543   2.574   0.876  2.5559 -0.0655  1.3786
 2536SOL     OW17646   1.391   5.469   0.941 -0.1332  0.2390 -0.1518
 2536SOL    HW117647   1.319   5.490   1.007 -0.0068 -0.0366  0.0744
 2536SOL    HW217648   1.355   5.478   0.848 -0.7030 -0.7563 -0.0289
 2537SOL     OW17649   9.070   2.807   1.780  0.4972  0.2656 -0.4432
 2537SOL    HW117650   9.062   2.805   1.680  1.0758 -0.9327 -0.4746
 2537SOL    HW217651   9.161   2.778   1.807 -0.4207 -1.8072  0.5213
 2538SOL     OW17652   0.908   2.174   1.671  0.6728  0.1247 -0.4228
 2538SOL    HW117653   0.896   2.188   1.573 -1.8855 -1.4857 -0.3771
 2538SOL    HW217654   0.999   2.135   1.687  2.0682  2.6468 -1.8812
 2539SOL     OW17655   2.849   9.283   1.361 -0.1655 -0.1066 -0.1397
 2539SOL    HW117656   2.841   9.224   1.441  1.6122  1.8949  1.5860
 2539SOL    HW217657   2.945   9.287   1.333 -0.3727  1.4036 -0.6534
 2540SOL     OW17658   0.891   6.309   0.376 -0.6898 -0.4701 -0.0826
 2540SOL    HW117659   0.803   6.308   0.329 -1.2562  1.2116  0.8833
 2540SOL    HW217660   0.877   6.296   0.475  0.0688  0.5371  0.1674
 2541SOL     OW17661   3.388   1.668   2.149  0.2491  0.3670  0.4253
 2541SOL    HW117662   3.419   1.747   2.202 -0.2335  1.0343 -0.2706
 2541SOL    HW217663   3.357   1.596   2.211  1.0947  0.5548  1.0757
 2542SOL     OW17664   0.989   4.732   1.888 -0.4271  0.0978  0.2615
 2542SOL    HW117665   0.892   4.713   1.871 -1.0396  3.0583  0.2454
 2542SOL    HW217666   1.037   4.742   1.801 -0.5013  0.5346  0.2711
 2543SOL     OW17667   9.517   5.091   0.664  0.5110 -0.3249 -0.0689
 2543SOL    HW117668   9.476   5.164   0.609  1.2151 -0.0676 -0.2511
 2543SOL    HW217669   9.610   5.116   0.688  0.3154 -0.5927  0.9608
 2544SOL     OW17670   2.477   6.187   0.497  0.3394  0.0598  0.2265
 2544SOL    HW117671   2.469   6.287   0.502 -1.5031  0.0944 -2.2854
 2544SOL    HW217672   2.478   6.159   0.401 -2.5051 -2.5769  0.8845
 2545SOL     OW17673   0.043   2.443   2.008 -0.4163 -0.3697 -0.0124
 2545SOL    HW117674   0.141   2.424   2.009 -0.7831 -2.6048 -1.4305
 2545SOL    HW217675   0.026   2.525   1.953  0.8071  1.2955  2.0116
 2546SOL     OW17676   2.207   3.290   1.146 -0.1583  0.1698  0.0053
 2546SOL    HW117677   2.154   3.358   1.096  1.9126  0.4848 -1.8694
 2546SOL    HW217678   2.225   3.323   1.239 -1.9428  0.6833  0.1964
 2547SOL     OW17679   9.264   4.336   0.029  0.2791  0.6128  0.5263
 2547SOL    HW117680   9.251   4.429  -0.004 -0.6640  0.5223  0.6118
 2547SOL    HW217681   9.247   4.333   0.128 -0.4873  0.2125  0.3910
 2548SOL     OW17682   2.702   8.707   1.189 -0.0366 -0.1441 -0.4805
 2548SOL    HW117683   2.649   8.741   1.266 -0.2606  0.5420 -0.9267
 2548SOL    HW217684   2.702   8.607   1.189  0.6672 -0.1511  0.8788
 2549SOL     OW17685   8.941   2.064   2.122  0.2017  0.0533  0.4444
 2549SOL    HW117686   8.909   2.145   2.171 -4.0291 -1.5574  0.5972
 2549SOL    HW217687   8.888   2.052   2.038  2.0155 -1.5354 -0.5255
 2550SOL     OW17688   9.903   9.762   2.506  0.0764 -0.4887 -0.0999
 2550SOL    HW117689   9.890   9.853   2.466  1.0776 -0.5309 -0.5168
 2550SOL    HW217690  10.000   9.739   2.507  0.1920 -0.1667  3.0458
 2551SOL     OW17691   3.762   1.321   1.108 -0.1816 -0.2247 -0.0492
 2551SOL    HW117692   3.729   1.415   1.116 -0.4211 -0.4024  1.0767
 2551SOL    HW217693   3.719   1.278   1.028  0.0859  0.6734 -0.6874
 2552SOL     OW17694   0.815   7.455   0.111  0.2640 -0.8262  0.0568
 2552SOL    HW117695   0.777   7.462   0.203 -1.8079 -0.9684 -0.7542
 2552SOL    HW217696   0.873   7.534   0.092 -2.3261  1.1296  0.1519
 2553SOL     OW17697   1.991   1.327   2.487 -0.7432  0.3235 -0.3856
 2553SOL    HW117698   2.050   1.408   2.483 -1.2517  0.7370  0.2585
 2553SOL    HW217699   2.035   1.257   2.543 -0.7197  0.5099 -0.1701
 2554SOL     OW17700   8.750   1.443   1.103  0.5555  0.1508 -0.7135
 2554SOL    HW117701   8.842   1.461   1.137 -0.1038 -1.3757  2.0027
 2554SOL    HW217702   8.755   1.373   1.031  1.4759 -0.1810 -0.3347
 2555SOL     OW17703   2.427   6.476   0.502 -0.2567  1.1215 -0.1841
 2555SOL    HW117704   2.335   6.474   0.462 -0.0950  0.2416 -0.5137
 2555SOL    HW217705   2.430   6.546   0.573 -1.3242  0.8439  0.1488
 2556SOL     OW17706   5.102   3.050   2.315  0.5075 -0.0084 -0.2557
 2556SOL    HW117707   5.144   2.995   2.243 -1.7524  0.7157 -2.2073
 2556SOL    HW217708   5.002   3.038   2.311  0.3150  0.3495  2.5336
 2557SOL     OW17709   2.342   5.563   2.134 -0.2503  0.1544 -0.1250
 2557SOL    HW117710   2.247   5.579   2.109 -0.0698  0.6220 -0.5197
 2557SOL    HW217711   2.376   5.640   2.188 -0.0328  0.0920 -0.1701
 2558SOL     OW17712   9.118   4.999   0.272  0.2008  0.5559 -0.1285
 2558SOL    HW117713   9.070   4.914   0.255  2.7393 -0.8077 -0.7771
 2558SOL    HW217714   9.090   5.038   0.360 -2.4098  0.1036 -0.7337
 2559SOL     OW17715   3.106   3.400   1.927  0.1436  0.0428 -0.0284
 2559SOL    HW117716   3.038   3.472   1.948 -0.7295 -1.0900  1.1091
 2559SOL    HW217717   3.171   3.394   2.002  1.1085  0.6520 -0.8098
 2560SOL     OW17718   2.225   5.091   2.428 -0.2615  0.4811 -0.2712
 2560SOL    HW117719   2.190   5.072   2.520 -0.3527  0.4173 -0.3188
 2560SOL    HW217720   2.325   5.099   2.431 -0.1914 -0.3761 -0.3161
 2561SOL     OW17721   2.769   0.268   1.259 -0.0439 -0.0739 -0.3447
 2561SOL    HW117722   2.799   0.341   1.198 -1.3534  0.3806 -0.4744
 2561SOL    HW217723   2.794   0.179   1.221  2.4495  0.3153  0.2959
 2562SOL     OW17724   1.743   7.090   1.228  0.0327 -0.4398  0.3053
 2562SOL    HW117725   1.689   7.130   1.154 -0.2953  1.2480  1.4248
 2562SOL    HW217726   1.739   6.990   1.222 -0.4864 -0.3293 -1.5774
 2563SOL     OW17727   2.472   2.862   0.130 -0.1761  0.2547  0.1970
 2563SOL    HW117728   2.542   2.915   0.179 -1.6374  1.6831  0.7677
 2563SOL    HW217729   2.479   2.883   0.032 -1.9098  2.9489  0.6042
 2564SOL     OW17730   2.667   1.639   2.416  0.1656  0.2794  0.0785
 2564SOL    HW117731   2.728   1.685   2.351 -2.0901 -0.0832 -2.3610
 2564SOL    HW217732   2.672   1.540   2.402  0.5963  0.1030  1.3504
 2565SOL     OW17733   2.152   5.688   1.563  0.2068 -0.3160 -0.0131
 2565SOL    HW117734   2.145   5.714   1.660 -2.2668 -1.2292  0.1045
 2565SOL    HW217735   2.188   5.595   1.556 -0.1346 -0.4553  0.0649
 2566SOL     OW17736   8.830   1.938   0.087 -0.2300  0.4142  0.4398
 2566SOL    HW117737   8.925   1.932   0.057 -0.6889  1.6587 -1.3548
 2566SOL    HW217738   8.797   1.847   0.110  1.0694 -0.1873  0.0141
 2567SOL     OW17739   2.758   8.440   0.456  0.1379  0.1660  0.5450
 2567SOL    HW117740   2.831   8.421   0.521 -1.3353 -1.3118  1.8229
 2567SOL    HW217741   2.756   8.368   0.387  0.4382  0.6774 -0.0036
 2568SOL     OW17742   2.265   6.397   2.419 -0.4870  0.0929  0.2247
 2568SOL    HW117743   2.174   6.355   2.420 -0.2836 -0.3767 -0.7860
 2568SOL    HW217744   2.289   6.427   2.511 -2.9164  2.8932  0.0474
 2569SOL     OW17745   1.917   3.903   1.966  0.3806 -0.2150  0.1966
 2569SOL    HW117746   1.936   3.952   2.051 -1.3481 -0.6489  0.8478
 2569SOL    HW217747   1.843   3.949   1.917  0.1316 -1.0098 -0.1817
 2570SOL     OW17748   0.206   2.222   0.942  0.5874 -0.0125  0.2084
 2570SOL    HW117749   0.156   2.186   1.021 -1.4003  0.3012 -0.8803
 2570SOL    HW217750   0.193   2.160   0.864 -1.0499  1.8775 -1.0656
 2571SOL     OW17751   9.475   4.747   1.312 -0.3310  0.1959  0.2998
 2571SOL    HW117752   9.400   4.809   1.335 -0.2590  0.0216  1.0153
 2571SOL    HW217753   9.539   4.743   1.388  0.2407  0.0904 -0.1806
 2572SOL     OW17754   9.057   1.112   1.906 -0.3202 -0.6802  0.2380
 2572SOL    HW117755   9.020   1.158   1.825  2.3049 -1.4549 -1.4783
 2572SOL    HW217756   9.087   1.180   1.973 -2.5975 -0.0320  0.6338
 2573SOL     OW17757   2.350   1.734   1.586  0.0305 -0.0609  0.4711
 2573SOL    HW117758   2.450   1.728   1.579 -0.1452 -1.4032 -1.2156
 2573SOL    HW217759   2.323   1.719   1.681  1.3509 -1.1349  0.6934
 2574SOL     OW17760   2.652   1.092   1.363 -0.2361 -0.0066  0.0026
 2574SOL    HW117761   2.655   1.154   1.441  0.0466 -0.7459  0.5805
 2574SOL    HW217762   2.607   1.007   1.389 -1.4366  0.2860 -1.0346
 2575SOL     OW17763   0.980   8.402   0.236  0.5250  0.0413  0.3036
 2575SOL    HW117764   0.923   8.458   0.296  2.7900  1.7923  0.8567
 2575SOL    HW217765   1.010   8.457   0.158  0.5349 -1.2185 -0.6007
 2576SOL     OW17766   0.141   1.165   0.145 -0.3225 -0.1594  0.2930
 2576SOL    HW117767   0.232   1.182   0.181 -0.3391  1.4097 -0.3704
 2576SOL    HW217768   0.110   1.244   0.092 -1.8267 -0.9043  0.0134
 2577SOL     OW17769   2.641   4.663   1.680  0.1249  0.5675  0.0306
 2577SOL    HW117770   2.656   4.564   1.677  0.7337  0.6718 -0.3864
 2577SOL    HW217771   2.547   4.682   1.709  0.4396 -0.1120  1.5663
 2578SOL     OW17772   2.716   3.861   1.109 -0.4101 -0.4895 -0.1077
 2578SOL    HW117773   2.801   3.896   1.069 -0.5353  2.2550  1.8054
 2578SOL    HW217774   2.733   3.773   1.152  0.8449 -1.1766 -1.9741
 2579SOL     OW17775   0.139   3.099   1.945  0.1472  0.5434 -0.1389
 2579SOL    HW117776   0.078   3.146   1.881  1.2296  2.5735  0.2809
 2579SOL    HW217777   0.146   3.152   2.029  2.1182  0.0665  0.0091
 2580SOL     OW17778   0.665   8.709   1.024 -0.0269 -0.4254  0.1779
 2580SOL    HW117779   0.617   8.783   1.070 -0.0792 -0.1688 -0.2816
 2580SOL    HW217780   0.687   8.738   0.930 -0.9062 -1.3492 -0.3209
 2581SOL     OW17781   4.928   3.218   2.055 -0.1388 -0.5251  0.1863
 2581SOL    HW117782   4.846   3.245   2.003  2.6271  1.8776 -3.1898
 2581SOL    HW217783   4.943   3.283   2.130 -0.3998  0.0552 -0.2553
 2582SOL     OW17784   3.339   4.160   0.339  0.1369  0.1792  0.6140
 2582SOL    HW117785   3.433   4.130   0.326 -0.0779  0.8271 -3.0731
 2582SOL    HW217786   3.338   4.249   0.386  1.4469  0.7596 -0.4181
 2583SOL     OW17787   1.555   5.033   1.275  0.3747 -0.1670  0.3340
 2583SOL    HW117788   1.546   4.940   1.240  0.4513 -0.7608  1.8164
 2583SOL    HW217789   1.475   5.055   1.331  0.1270  0.8472 -0.4105
 2584SOL     OW17790   9.560   2.794   0.125 -0.5002 -0.6404 -0.0030
 2584SOL    HW117791   9.488   2.823   0.187  0.2799  0.7731  0.2589
 2584SOL    HW217792   9.648   2.799   0.172  0.0019 -0.4084 -0.9575
 2585SOL     OW17793   4.766   2.186   1.170  0.7398  0.6227  0.8017
 2585SOL    HW117794   4.848   2.207   1.223  0.5892  0.9163  0.9221
 2585SOL    HW217795   4.791   2.135   1.088  0.9398 -0.0923  1.3017
 2586SOL     OW17796   1.344   9.348   1.283 -0.1080 -0.4665 -0.6464
 2586SOL    HW117797   1.326   9.405   1.203 -3.6540 -0.2552  0.2455
 2586SOL    HW217798   1.431   9.377   1.324  0.2762  1.4245 -2.6500
 2587SOL     OW17799   3.260   2.961   1.575 -0.2815 -0.2069  0.2204
 2587SOL    HW117800   3.331   2.951   1.505 -1.0034  0.8081 -0.6851
 2587SOL    HW217801   3.189   3.023   1.541 -0.5121  0.5123  1.9569
 2588SOL     OW17802   1.599   5.707   1.609 -0.3272 -0.3337  0.1351
 2588SOL    HW117803   1.537   5.777   1.575  0.3500 -0.4105 -1.3091
 2588SOL    HW217804   1.625   5.646   1.534  3.1226  0.9419  0.1862
 2589SOL     OW17805   2.106   5.885   0.786  0.3530  0.0823 -0.2384
 2589SOL    HW117806   2.181   5.930   0.736  1.8697 -0.8580  1.1557
 2589SOL    HW217807   2.083   5.800   0.740 -0.6274  0.9001 -1.2939
 2590SOL     OW17808   4.031   2.424   2.558 -0.2854 -0.1338  0.4571
 2590SOL    HW117809   4.069   2.367   2.485  1.1679 -1.7399  2.4236
 2590SOL    HW217810   3.960   2.374   2.607 -0.0916  0.3265  1.2151
 2591SOL     OW17811   1.880   5.706   1.828  0.0492 -0.5010 -0.3899
 2591SOL    HW117812   1.829   5.783   1.790 -1.6360 -2.0107 -1.2209
 2591SOL    HW217813   1.837   5.620   1.802  2.5166 -1.8009 -0.3617
 2592SOL     OW17814   1.245   6.473   0.850 -0.0404 -0.1685 -0.4697
 2592SOL    HW117815   1.299   6.478   0.934  1.3297 -0.2675 -1.3423
 2592SOL    HW217816   1.177   6.547   0.850  2.8085  2.5420 -1.2493
 2593SOL     OW17817   1.941   7.714   1.306 -0.0126 -0.2550 -0.4203
 2593SOL    HW117818   2.005   7.705   1.229  1.1677 -2.1966  0.7529
 2593SOL    HW217819   1.968   7.652   1.379 -0.6555  2.1290  1.9084
 2594SOL     OW17820   3.565   2.741   0.756 -0.3548  0.0974  0.4716
 2594SOL    HW117821   3.526   2.829   0.731 -1.0703 -0.1805  0.5776
 2594SOL    HW217822   3.494   2.685   0.800  0.5283  0.0698  1.8553
 2595SOL     OW17823   3.200   4.598   1.460 -0.1385  0.0467 -0.1613
 2595SOL    HW117824   3.200   4.515   1.403  1.3854  1.1463 -1.8028
 2595SOL    HW217825   3.230   4.574   1.552  1.5944 -1.0209 -0.9728
 2596SOL     OW17826   2.447   8.986   1.613 -0.4505 -0.0416 -0.0901
 2596SOL    HW117827   2.384   8.982   1.536  0.4912 -0.6132 -0.8297
 2596SOL    HW217828   2.412   9.051   1.681 -1.9885 -0.5786 -0.3483
 2597SOL     OW17829   1.677   8.207   0.345  0.4604 -0.2199 -0.3639
 2597SOL    HW117830   1.776   8.192   0.348  0.4640 -0.6796 -2.2070
 2597SOL    HW217831   1.656   8.298   0.381  1.4448 -0.5298  1.0254
 2598SOL     OW17832   9.123   2.637   2.214  0.3239  0.1015  0.2251
 2598SOL    HW117833   9.162   2.717   2.168  1.2676 -0.5039 -0.0516
 2598SOL    HW217834   9.192   2.596   2.274 -0.1319 -0.5477  0.3116
 2599SOL     OW17835   0.063   3.903   0.613  0.1226 -0.6252 -0.1516
 2599SOL    HW117836  -0.037   3.899   0.612  0.1408 -0.8873 -0.7399
 2599SOL    HW217837   0.100   3.811   0.628  0.2811 -0.5490 -0.0729
 2600SOL     OW17838   2.415   8.495   0.174  0.6049 -0.4075  0.2390
 2600SOL    HW117839   2.491   8.557   0.159 -0.4493  0.8527  0.0414
 2600SOL    HW217840   2.397   8.487   0.273 -1.2336  2.0638  0.1505
 2601SOL     OW17841   2.422   9.692   0.896 -0.3262 -0.2766  0.2233
 2601SOL    HW117842   2.368   9.768   0.932  0.6366  0.2012  0.6716
 2601SOL    HW217843   2.514   9.695   0.934  0.5847 -0.0369 -1.8961
 2602SOL     OW17844   2.991   0.532   1.649 -0.1807  0.1797 -0.0064
 2602SOL    HW117845   2.975   0.609   1.710 -0.0219  0.2942 -0.1081
 2602SOL    HW217846   2.924   0.460   1.667 -1.0563  0.8106 -0.7048
 2603SOL     OW17847   2.153   2.881   0.427  0.0125  0.2244 -0.2781
 2603SOL    HW117848   2.165   2.852   0.522 -1.5860  0.5968  0.0570
 2603SOL    HW217849   2.158   2.981   0.422 -0.3723  0.2328 -0.5094
 2604SOL     OW17850   9.182   3.193   0.981 -0.1521 -0.0797 -0.1471
 2604SOL    HW117851   9.267   3.232   0.947 -0.1532 -1.2651 -1.5730
 2604SOL    HW217852   9.105   3.232   0.930 -0.0529 -2.9235 -2.5983
 2605SOL     OW17853   0.981   2.411   1.020 -0.0821 -0.0146  0.1458
 2605SOL    HW117854   1.013   2.376   1.108  0.0720 -0.2334  0.0070
 2605SOL    HW217855   0.882   2.411   1.017 -0.0826 -1.7640 -0.3595
 2606SOL     OW17856   4.453   3.174   0.636  0.0073  0.1249 -0.5715
 2606SOL    HW117857   4.409   3.155   0.549 -0.0932  1.6292 -0.8682
 2606SOL    HW217858   4.384   3.177   0.709 -0.0704  0.0555 -0.6430
 2607SOL     OW17859   1.439   9.581   1.894 -0.2756 -0.1309  0.1149
 2607SOL    HW117860   1.421   9.528   1.977 -1.0345 -0.7744 -0.4540
 2607SOL    HW217861   1.510   9.535   1.840  0.2016  0.2741  0.3953
 2608SOL     OW17862   2.026   7.681   2.010  0.0749 -0.2801 -0.4578
 2608SOL    HW117863   2.053   7.776   2.028 -1.5840  0.1220  0.0573
 2608SOL    HW217864   2.011   7.669   1.912  1.7939 -0.4453 -0.7217
 2609SOL     OW17865   2.505   8.824   0.330  1.0962 -0.0592  0.1941
 2609SOL    HW117866   2.419   8.875   0.336  0.7415 -0.4796 -1.2368
 2609SOL    HW217867   2.581   8.884   0.354  0.3679  0.1570  2.0693
 2610SOL     OW17868   2.057   3.026   1.246  0.4499  0.3316 -0.5296
 2610SOL    HW117869   2.095   3.026   1.154 -0.6613  2.7377 -1.0398
 2610SOL    HW217870   1.957   3.024   1.241  0.3017  2.8326  0.5094
 2611SOL     OW17871   3.055   3.142   1.768  0.0039 -0.7617 -0.2863
 2611SOL    HW117872   3.044   3.200   1.687 -0.3944 -0.9921 -0.4009
 2611SOL    HW217873   3.082   3.198   1.846  0.4918 -0.5520 -0.6055
 2612SOL     OW17874   3.661   9.941   1.602  0.3872 -0.4367 -0.1355
 2612SOL    HW117875   3.690  10.033   1.630 -0.1819 -0.3361  0.1356
 2612SOL    HW217876   3.706   9.873   1.660  2.2865 -0.4449 -1.5609
 2613SOL     OW17877   0.573   5.951   0.668  0.0350 -1.2082  0.4630
 2613SOL    HW117878   0.623   5.988   0.590  0.7008 -0.7057  1.1266
 2613SOL    HW217879   0.489   6.004   0.683  0.7902 -0.2031  1.1703
 2614SOL     OW17880   8.959   1.717   1.375  0.4416 -0.4774  0.3462
 2614SOL    HW117881   8.956   1.651   1.300 -0.7666 -0.9719  0.8080
 2614SOL    HW217882   9.035   1.695   1.436 -0.4181 -1.9446  0.9256
 2615SOL     OW17883   0.261   4.423   0.947  0.8833  0.2386  0.6966
 2615SOL    HW117884   0.359   4.444   0.947  0.6053  1.5638  0.0976
 2615SOL    HW217885   0.218   4.465   0.867 -0.6763  2.1456  2.4693
 2616SOL     OW17886   0.356   2.717   0.443  0.5472 -0.1714  0.1568
 2616SOL    HW117887   0.293   2.657   0.492  0.8905 -1.0620 -0.4975
 2616SOL    HW217888   0.330   2.722   0.347  2.3194 -1.6728 -0.4184
 2617SOL     OW17889   9.945   9.096   0.163  0.6617 -0.4232  0.2778
 2617SOL    HW117890   9.919   9.000   0.175  2.4623 -1.2379 -1.7842
 2617SOL    HW217891   9.906   9.130   0.078  1.9552 -0.0734 -0.1870
 2618SOL     OW17892   3.153   2.554   2.271 -0.2973  0.1860 -0.5987
 2618SOL    HW117893   3.142   2.573   2.369 -0.4206 -0.3849 -0.5019
 2618SOL    HW217894   3.248   2.573   2.244 -0.5608  1.5358 -0.6411
 2619SOL     OW17895   1.285   2.046   0.900 -0.9149 -0.7109  0.2431
 2619SOL    HW117896   1.282   2.145   0.918  1.9817 -0.9270  2.2722
 2619SOL    HW217897   1.262   2.029   0.804 -0.7006  2.0176 -0.3336
 2620SOL     OW17898   9.461   5.729   2.122 -0.2782 -0.1175 -0.4742
 2620SOL    HW117899   9.555   5.716   2.153 -0.5181  0.5302  0.5669
 2620SOL    HW217900   9.400   5.731   2.202 -1.1036  0.0461 -1.1038
 2621SOL     OW17901   0.367   3.342   0.465 -0.1419  0.0698  0.0746
 2621SOL    HW117902   0.321   3.386   0.388  0.4196  1.0895  0.3298
 2621SOL    HW217903   0.312   3.263   0.494 -1.6422  1.1526  0.2447
 2622SOL     OW17904   9.619   1.653   0.098 -0.3335 -0.7861  0.1878
 2622SOL    HW117905   9.711   1.633   0.064 -0.0694 -1.0744  1.0590
 2622SOL    HW217906   9.621   1.662   0.197 -1.0515  0.3028  0.1111
 2623SOL     OW17907   1.541   4.391   2.041  0.2549  0.0522  0.0083
 2623SOL    HW117908   1.582   4.477   2.072  0.8850 -0.0816 -0.4436
 2623SOL    HW217909   1.586   4.361   1.957 -0.8050 -0.0771 -0.5166
 2624SOL     OW17910   4.679   3.505   0.377  0.0343 -0.4059 -0.1622
 2624SOL    HW117911   4.701   3.510   0.279 -0.2503 -0.7361 -0.2428
 2624SOL    HW217912   4.608   3.573   0.398  0.3515 -0.0893 -0.1153
 2625SOL     OW17913   4.134   2.910   2.091  0.1487  0.4875  0.8839
 2625SOL    HW117914   4.060   2.854   2.131 -0.5227 -1.1898 -2.4917
 2625SOL    HW217915   4.109   3.007   2.096 -0.9255  0.1408  2.4807
 2626SOL     OW17916   3.578   0.411   0.218 -0.5674  0.3055 -0.3812
 2626SOL    HW117917   3.660   0.407   0.274 -0.9936  2.1604  0.4130
 2626SOL    HW217918   3.574   0.498   0.169 -0.5655 -0.9997 -2.7599
 2627SOL     OW17919   9.076   1.392   2.176  0.4192  0.3024  0.1090
 2627SOL    HW117920   9.131   1.369   2.096  1.6505 -0.8438  1.2467
 2627SOL    HW217921   9.108   1.479   2.214  2.1675 -0.8458  1.3517
 2628SOL     OW17922   2.945   4.748   0.213  0.1772  0.2532 -0.0699
 2628SOL    HW117923   3.039   4.712   0.212  0.4434  0.9051  0.7938
 2628SOL    HW217924   2.948   4.848   0.214 -0.5567  0.4689 -5.0788
 2629SOL     OW17925   1.716   8.949   1.681  0.6322 -0.0185  0.0793
 2629SOL    HW117926   1.721   8.854   1.710 -2.1127 -0.3179 -0.3255
 2629SOL    HW217927   1.642   8.960   1.615 -0.7624  2.8517  2.0084
 2630SOL     OW17928   2.323   5.150   0.392 -0.4280 -0.0059  0.3224
 2630SOL    HW117929   2.250   5.155   0.460 -0.4904  2.3216  0.1467
 2630SOL    HW217930   2.395   5.216   0.416 -0.4106  0.7797 -1.8040
 2631SOL     OW17931   9.951   4.588   1.022 -0.1522  0.4022  0.4187
 2631SOL    HW117932  10.011   4.668   1.018 -0.5992  0.7090 -0.2263
 2631SOL    HW217933   9.918   4.565   0.930  0.4597 -0.9007  0.5104
 2632SOL     OW17934   3.596   2.173   0.231  0.2577 -0.0894  0.0275
 2632SOL    HW117935   3.688   2.211   0.227 -0.7128  2.4015  0.4734
 2632SOL    HW217936   3.554   2.196   0.319 -0.7056 -1.3715 -0.0877
 2633SOL     OW17937   3.669   3.782   0.832 -0.5548  0.0815 -0.4729
 2633SOL    HW117938   3.572   3.787   0.855 -0.2151  0.0595  0.9932
 2633SOL    HW217939   3.679   3.771   0.733 -2.0171  1.5110 -0.8010
 2634SOL     OW17940   2.107   3.119   2.182 -0.7200 -0.8947  0.0381
 2634SOL    HW117941   2.080   3.214   2.202 -1.9757 -1.1310 -0.4467
 2634SOL    HW217942   2.205   3.109   2.196 -0.5484  0.5152 -0.0069
 2635SOL     OW17943   2.285   8.977   0.398 -0.4577 -0.3372  0.0073
 2635SOL    HW117944   2.338   9.044   0.346  0.2102  0.7866  2.1052
 2635SOL    HW217945   2.188   8.998   0.390 -0.2915  0.5013  0.1330
 2636SOL     OW17946   1.112   5.023   0.890 -0.0034 -0.2439  0.1975
 2636SOL    HW117947   1.037   5.064   0.943 -0.3711  0.4207 -0.8296
 2636SOL    HW217948   1.075   4.978   0.810  0.4162 -2.4800  1.2258
 2637SOL     OW17949   2.550   5.456   1.080  0.6605 -0.1103  0.5023
 2637SOL    HW117950   2.490   5.476   1.002  1.7795  0.0530 -0.3360
 2637SOL    HW217951   2.568   5.357   1.083  1.0364 -0.0497  0.2419
 2638SOL     OW17952   4.620   2.353   0.184  0.3008 -0.0842  0.1619
 2638SOL    HW117953   4.534   2.376   0.229  2.0444  1.1574  2.9979
 2638SOL    HW217954   4.674   2.436   0.171  1.2507 -0.8981 -1.1982
 2639SOL     OW17955   0.952   2.885   0.323 -0.2542 -0.0793 -0.9729
 2639SOL    HW117956   0.925   2.894   0.228  0.8063 -0.8620 -1.3492
 2639SOL    HW217957   0.968   2.976   0.362 -1.8649  0.3072 -1.1826
 2640SOL     OW17958   9.925   4.581   1.503  0.5153  0.1512  0.0848
 2640SOL    HW117959  10.019   4.602   1.532  0.5499 -1.3990  1.1903
 2640SOL    HW217960   9.925   4.550   1.408  1.0820  0.4671 -0.0198
 2641SOL     OW17961   0.575   8.031   0.432  0.8993  0.4000  0.7055
 2641SOL    HW117962   0.669   8.017   0.402  0.9845  1.6267  0.3590
 2641SOL    HW217963   0.513   8.004   0.358  0.9529 -0.8336  1.0977
 2642SOL     OW17964   2.005   9.830   2.320 -0.0231  0.1689  0.6332
 2642SOL    HW117965   1.967   9.869   2.236  0.0667 -0.6707  0.1893
 2642SOL    HW217966   1.933   9.780   2.369  0.4339 -1.1928 -0.0694
 2643SOL     OW17967   1.259   3.838   2.390 -0.5128 -0.3464 -0.0148
 2643SOL    HW117968   1.255   3.936   2.407  0.2310 -0.7502  2.7231
 2643SOL    HW217969   1.344   3.801   2.426 -2.1763 -2.4941  1.8702
 2644SOL     OW17970   0.517   8.296   0.518  0.5110 -0.5987  0.3980
 2644SOL    HW117971   0.529   8.212   0.465  0.4296  0.1155 -0.7729
 2644SOL    HW217972   0.607   8.337   0.536  0.5180 -0.6578  0.4919
 2645SOL     OW17973   1.945   1.581   2.216 -0.2284  0.2929 -0.2993
 2645SOL    HW117974   1.890   1.625   2.288 -1.9142 -0.4240 -1.1099
 2645SOL    HW217975   1.886   1.520   2.163  1.8996 -2.4698  0.4141
 2646SOL     OW17976   0.633   3.399   1.507  0.1776 -0.4120 -0.3100
 2646SOL    HW117977   0.678   3.316   1.540  0.7736 -0.8689 -2.2160
 2646SOL    HW217978   0.688   3.439   1.434  0.6981  2.5230  1.5850
 2647SOL     OW17979   9.993   6.272   1.261 -0.7438  0.2181 -0.4587
 2647SOL    HW117980  10.016   6.328   1.182  1.5377  0.5648  0.4113
 2647SOL    HW217981   9.979   6.330   1.341  0.5670 -0.3401  0.2008
 2648SOL     OW17982   3.973   1.988   1.834  0.8322 -0.3643  0.2768
 2648SOL    HW117983   3.930   2.052   1.770  0.8090  0.4811  1.1424
 2648SOL    HW217984   3.978   2.029   1.925  0.9402 -1.5379  0.8089
 2649SOL     OW17985   9.681   9.668   0.857  0.1076 -0.3508  0.1515
 2649SOL    HW117986   9.619   9.594   0.883 -0.4668 -0.2449 -0.8867
 2649SOL    HW217987   9.749   9.634   0.793 -0.5119  0.1431 -0.7801
 2650SOL     OW17988   2.492   4.541   0.156 -0.3378 -0.2796  0.3636
 2650SOL    HW117989   2.553   4.601   0.104 -0.0389 -0.6590  0.2835
 2650SOL    HW217990   2.492   4.450   0.116 -0.0197 -0.6021  1.1070
 2651SOL     OW17991   2.492   4.816   2.002 -0.1465 -0.5916 -0.3133
 2651SOL    HW117992   2.568   4.804   2.067 -0.8140 -0.9269  0.4178
 2651SOL    HW217993   2.523   4.871   1.925  1.0364 -1.2802 -0.3517
 2652SOL     OW17994   8.303   1.960   1.124  0.1971  0.3977 -0.2848
 2652SOL    HW117995   8.361   1.904   1.182  0.9948  0.7463 -0.7384
 2652SOL    HW217996   8.252   2.025   1.180 -0.1564 -0.2557  0.1618
 2653SOL     OW17997   9.807   1.306   0.472 -0.2054 -0.6756  0.5141
 2653SOL    HW117998   9.842   1.395   0.443  0.3359 -1.8735 -2.6335
 2653SOL    HW217999   9.731   1.319   0.536 -1.1330  2.0480 -1.0964
 2654SOL     OW18000   8.917   1.279   1.738 -0.0563 -0.0582 -0.7159
 2654SOL    HW118001   8.853   1.337   1.788  0.1454  0.8666 -1.5208
 2654SOL    HW218002   8.872   1.241   1.657  0.8804  1.9080 -2.1783
 2655SOL     OW18003   1.663   8.238   1.166  0.2353 -0.3428 -0.5147
 2655SOL    HW118004   1.575   8.203   1.197  0.1054  0.2930 -0.1384
 2655SOL    HW218005   1.728   8.163   1.159 -0.1216 -0.7053 -0.0328
 2656SOL     OW18006   0.303   1.547   1.630 -0.0302 -0.0333  0.3351
 2656SOL    HW118007   0.266   1.640   1.628 -0.1418 -0.0718  0.6393
 2656SOL    HW218008   0.398   1.549   1.661  0.6655  0.2115 -1.7103
 2657SOL     OW18009   0.872   0.193   0.616  0.0248 -0.4717 -0.2119
 2657SOL    HW118010   0.907   0.284   0.638  0.0601 -0.5471  0.0593
 2657SOL    HW218011   0.776   0.186   0.643 -0.1508 -0.3191 -0.7999
 2658SOL     OW18012   0.845   5.643   1.902  0.0413 -0.7337  0.0116
 2658SOL    HW118013   0.925   5.702   1.888  0.4208 -1.4875 -1.0615
 2658SOL    HW218014   0.767   5.699   1.930  1.3108 -0.1524  2.5338
 2659SOL     OW18015   9.875   0.396   1.467 -0.5186 -0.3514  0.1518
 2659SOL    HW118016   9.850   0.476   1.413  0.8367  0.3849  0.5793
 2659SOL    HW218017   9.930   0.334   1.411  1.5216  0.7611  0.8257
 2660SOL     OW18018   0.829   8.273   2.095  0.1186 -0.1221 -0.2047
 2660SOL    HW118019   0.779   8.255   2.179 -1.9102  0.3978 -1.2759
 2660SOL    HW218020   0.820   8.195   2.033  1.8103 -0.6112  0.1316
 2661SOL     OW18021   2.078   8.377   0.132 -0.1218 -0.3053 -0.2043
 2661SOL    HW118022   1.999   8.402   0.187  0.0212  0.3369 -0.2874
 2661SOL    HW218023   2.119   8.459   0.092 -0.5016 -0.8014 -1.6473
 2662SOL     OW18024   2.763   1.459   1.789  0.1941 -0.2478  0.3278
 2662SOL    HW118025   2.797   1.403   1.714 -1.2349 -1.0024  0.2164
 2662SOL    HW218026   2.773   1.556   1.765  0.7924 -0.4741 -0.3573
 2663SOL     OW18027   1.038   4.528   0.643  0.5223 -0.0353  0.0364
 2663SOL    HW118028   0.986   4.542   0.727  1.0392 -0.9829  0.5237
 2663SOL    HW218029   1.136   4.539   0.662  0.6248 -0.0210 -0.4924
 2664SOL     OW18030   1.892   4.494   0.202 -0.6309  0.5299 -0.4346
 2664SOL    HW118031   1.958   4.498   0.127  1.3932 -0.6593  1.2665
 2664SOL    HW218032   1.851   4.584   0.216 -2.2550  0.4432 -4.0030
 2665SOL     OW18033   9.787   1.714   1.097  0.3621  0.1143  0.3818
 2665SOL    HW118034   9.787   1.625   1.052 -0.0404  0.9207 -1.2813
 2665SOL    HW218035   9.854   1.715   1.171  1.2326 -1.1778 -0.3795
 2666SOL     OW18036   3.128   1.868   2.366 -0.1021  0.2751 -0.5607
 2666SOL    HW118037   3.106   1.847   2.461  0.1727 -0.6670 -0.7030
 2666SOL    HW218038   3.121   1.785   2.310  1.0209  0.5368 -1.1190
 2667SOL     OW18039   3.086   8.797   2.055 -0.1755  0.1887 -0.2323
 2667SOL    HW118040   3.040   8.710   2.035 -0.0471  0.1141 -0.2055
 2667SOL    HW218041   3.047   8.869   1.999 -0.6720  0.2239  0.1560
 2668SOL     OW18042   3.817   1.140   0.455  0.5310 -0.1509  0.5511
 2668SOL    HW118043   3.799   1.204   0.381 -1.2962  0.5128  1.5385
 2668SOL    HW218044   3.872   1.186   0.526  0.3094 -0.0700  0.6707
 2669SOL     OW18045   2.166   7.725   1.114  0.1437  0.8051  0.4060
 2669SOL    HW118046   2.216   7.704   1.030  0.1394  1.3673  0.2582
 2669SOL    HW218047   2.218   7.692   1.193  0.4178  0.7771  0.2154
 2670SOL     OW18048   3.295   1.483   0.635 -0.4591 -0.6329  0.6763
 2670SOL    HW118049   3.309   1.539   0.717 -0.0144  0.3768 -0.0775
 2670SOL    HW218050   3.210   1.511   0.590  1.0832  1.2952 -1.1479
 2671SOL     OW18051   0.214   3.886   0.300 -0.3189 -0.1708 -0.1466
 2671SOL    HW118052   0.226   3.898   0.201 -0.5407 -1.9425 -0.4042
 2671SOL    HW218053   0.122   3.918   0.326 -0.7661 -0.9418 -0.7461
 2672SOL     OW18054   3.754   2.575   0.021 -0.2815 -0.1389 -0.1920
 2672SOL    HW118055   3.763   2.485   0.064  1.4102 -0.1969 -0.6579
 2672SOL    HW218056   3.719   2.563  -0.072 -0.0862 -0.3057 -0.2444
 2673SOL     OW18057   9.285   2.354   0.960  0.0113 -0.5363 -0.0554
 2673SOL    HW118058   9.282   2.421   1.035  0.4436  0.5681 -1.0099
 2673SOL    HW218059   9.293   2.262   0.998  2.9638  0.1985  1.2267
 2674SOL     OW18060   1.744   0.423   2.391 -0.0986  0.1572  1.0676
 2674SOL    HW118061   1.796   0.337   2.389 -0.3753 -0.0537  2.2821
 2674SOL    HW218062   1.653   0.407   2.354 -0.1284 -0.0557  1.2320
 2675SOL     OW18063   9.686   6.928   1.490  0.0913 -0.1878 -0.1826
 2675SOL    HW118064   9.774   6.912   1.446  0.0799 -0.6440 -0.0469
 2675SOL    HW218065   9.638   7.003   1.444  0.1281 -0.5845 -0.8700
 2676SOL     OW18066   0.385   2.917   2.144 -0.5867  0.5547 -0.4335
 2676SOL    HW118067   0.337   2.997   2.180 -1.7574  0.2543 -1.3056
 2676SOL    HW218068   0.351   2.896   2.053  1.1744  0.2930 -1.0398
 2677SOL     OW18069   1.745   6.153   2.438  0.3336 -0.9390  0.7338
 2677SOL    HW118070   1.701   6.091   2.373  1.2722 -1.2706  0.3979
 2677SOL    HW218071   1.676   6.197   2.495 -0.4646 -1.0316 -0.1539
 2678SOL     OW18072   1.291   4.645   2.281  0.1714  0.5627  0.2541
 2678SOL    HW118073   1.302   4.559   2.331 -1.9856  0.0962 -0.0420
 2678SOL    HW218074   1.262   4.625   2.187 -0.9119  1.6191  0.3504
 2679SOL     OW18075   3.767   3.380   0.324 -0.0598  0.2650  0.1122
 2679SOL    HW118076   3.820   3.436   0.388 -1.5960  1.4453  0.3836
 2679SOL    HW218077   3.822   3.360   0.243  1.1697  0.5394  0.8609
 2680SOL     OW18078   9.699   0.655   2.013  0.6060  0.2206 -0.2034
 2680SOL    HW118079   9.657   0.601   2.086 -1.4297 -0.5154 -1.8710
 2680SOL    HW218080   9.786   0.613   1.986 -0.1227 -1.2531 -0.3040
 2681SOL     OW18081   2.337   3.654   1.846 -0.0569  0.3270 -0.5890
 2681SOL    HW118082   2.379   3.607   1.768 -1.2008  0.5625 -1.3601
 2681SOL    HW218083   2.375   3.618   1.931 -1.3541 -2.4452 -1.1227
 2682SOL     OW18084   0.464   9.366   2.329  0.5676 -0.3080 -0.3215
 2682SOL    HW118085   0.543   9.314   2.362  1.6112  1.1946 -0.3633
 2682SOL    HW218086   0.381   9.336   2.376  0.9061 -2.9302 -1.3384
 2683SOL     OW18087   2.350   8.231   0.072  0.4397  0.1346  0.2440
 2683SOL    HW118088   2.396   8.319   0.084 -1.6051  1.3751 -0.8136
 2683SOL    HW218089   2.278   8.240   0.004  0.0080 -2.3054  0.3418
 2684SOL     OW18090   9.705   6.727   1.711 -0.3872 -0.1908  0.1147
 2684SOL    HW118091   9.661   6.710   1.799 -0.4665 -2.1065 -0.2790
 2684SOL    HW218092   9.656   6.800   1.663 -0.4330  0.7484  1.5823
 2685SOL     OW18093   2.739   2.636   1.887 -0.1670 -0.3657  0.2868
 2685SOL    HW118094   2.684   2.577   1.828 -1.2945  0.8657  0.0831
 2685SOL    HW218095   2.836   2.610   1.879 -0.0639  0.8928 -3.4256
 2686SOL     OW18096   2.708   3.225   0.048 -0.3585  0.1008  0.4822
 2686SOL    HW118097   2.705   3.308  -0.007  1.4121  0.0266  0.2409
 2686SOL    HW218098   2.667   3.150  -0.002  0.5431  0.2090 -0.4504
 2687SOL     OW18099   2.548   7.403   0.801  0.1659 -0.4333  0.3315
 2687SOL    HW118100   2.547   7.303   0.805  0.3857 -0.5280 -1.3607
 2687SOL    HW218101   2.619   7.433   0.737 -0.0465  0.7897  0.6634
 2688SOL     OW18102   8.532   2.239   2.346  0.1028 -0.0593 -0.7770
 2688SOL    HW118103   8.487   2.327   2.331 -1.7678 -0.7833  0.3953
 2688SOL    HW218104   8.494   2.171   2.283  0.5365 -0.3498 -0.7243
 2689SOL     OW18105   1.115   6.130   2.473  0.0801  0.0089  0.3351
 2689SOL    HW118106   1.143   6.130   2.568 -1.3145  0.0474  0.7635
 2689SOL    HW218107   1.100   6.224   2.442 -1.8187 -0.1145  0.8155
 2690SOL     OW18108   0.045   1.390   0.018 -0.4337 -0.5943  0.1540
 2690SOL    HW118109   0.082   1.449   0.089 -1.2655 -1.7138  1.5361
 2690SOL    HW218110  -0.029   1.437  -0.030  0.3560  0.2921 -0.2144
 2691SOL     OW18111   4.346   2.441   0.328  0.6257 -0.1449  0.2889
 2691SOL    HW118112   4.263   2.465   0.278  1.5421  0.2986 -1.0395
 2691SOL    HW218113   4.357   2.504   0.405  0.0102  0.1178  0.1679
 2692SOL     OW18114   8.907   2.432   1.693 -0.5301  0.5799 -0.4103
 2692SOL    HW118115   8.966   2.513   1.685 -0.3531  0.3673 -1.3178
 2692SOL    HW218116   8.821   2.457   1.737  0.6822  0.6680  2.0161
 2693SOL     OW18117   0.076   3.075   1.385 -0.4382  0.1823 -0.0947
 2693SOL    HW118118   0.123   2.991   1.358  0.6013  0.6792  0.1433
 2693SOL    HW218119   0.120   3.153   1.342 -0.3694  0.7427  0.9690
 2694SOL     OW18120   0.249   1.745   1.180  0.0270  0.7826 -0.0416
 2694SOL    HW118121   0.337   1.792   1.168  0.6107  0.1483  1.4792
 2694SOL    HW218122   0.239   1.674   1.111  1.6189 -0.4366  0.9548
 2695SOL     OW18123   2.921   8.667   2.303 -0.6852 -0.3159  0.3358
 2695SOL    HW118124   2.967   8.580   2.285 -3.0570 -1.2815 -1.3670
 2695SOL    HW218125   2.976   8.742   2.267  0.5613 -1.2282  0.2894
 2696SOL     OW18126   2.004   2.643   1.484 -0.0248 -0.1964 -0.7183
 2696SOL    HW118127   1.938   2.704   1.527 -0.5541 -0.7371 -0.7510
 2696SOL    HW218128   2.047   2.586   1.555 -0.0161 -0.2434 -0.7615
 2697SOL     OW18129   1.995   0.145   0.163 -0.3679  0.1780  0.0744
 2697SOL    HW118130   2.028   0.059   0.125 -1.3100 -0.4590  0.6813
 2697SOL    HW218131   1.989   0.214   0.091  0.8027 -0.1421 -0.3310
 2698SOL     OW18132   1.397   0.003   1.497  0.5015 -0.7374  0.4758
 2698SOL    HW118133   1.476   0.054   1.531 -0.5119  0.7537  0.6267
 2698SOL    HW218134   1.331  -0.011   1.572 -0.6080  0.3986 -0.2699
 2699SOL     OW18135   1.725   8.592   2.477 -0.4354 -0.2088  0.0636
 2699SOL    HW118136   1.626   8.583   2.492 -0.3674  0.5174  1.0344
 2699SOL    HW218137   1.759   8.671   2.529  0.3944  0.4784 -1.4894
 2700SOL     OW18138   1.348   7.310   1.968 -0.6929  0.0164  0.0102
 2700SOL    HW118139   1.315   7.345   2.056 -1.2337  0.8912 -0.5365
 2700SOL    HW218140   1.292   7.232   1.940 -2.3080  1.4647 -0.8880
 2701SOL     OW18141   0.044   6.943   1.649 -0.0758  0.2518  0.2778
 2701SOL    HW118142  -0.015   6.925   1.570 -0.0392 -1.2050  0.5616
 2701SOL    HW218143   0.035   6.867   1.714  0.7679  0.8868  1.1391
 2702SOL     OW18144   1.848   6.858   2.270  0.0514  0.1319 -0.3286
 2702SOL    HW118145   1.918   6.886   2.335  1.5069 -0.4608 -1.6059
 2702SOL    HW218146   1.758   6.858   2.315  0.7664  1.5282  1.1435
 2703SOL     OW18147   1.401   8.642   1.979 -0.6296 -0.1267  0.4719
 2703SOL    HW118148   1.355   8.553   1.974 -1.7243  0.3950  1.0528
 2703SOL    HW218149   1.455   8.646   2.063 -0.6591 -0.2171  0.4960
 2704SOL     OW18150   1.870   1.233   0.513  0.3702 -0.0469  0.0323
 2704SOL    HW118151   1.838   1.250   0.607 -0.2755 -1.4206  0.0806
 2704SOL    HW218152   1.911   1.316   0.476 -1.9219  1.3761  0.5252
 2705SOL     OW18153   9.657   5.719   1.385 -0.0750 -0.0675  0.3215
 2705SOL    HW118154   9.643   5.641   1.445 -0.6431 -0.2939 -0.0938
 2705SOL    HW218155   9.568   5.755   1.356  0.1885 -0.5135 -1.0873
 2706SOL     OW18156   3.141   7.471   1.009 -0.1389 -0.3779 -0.2591
 2706SOL    HW118157   3.049   7.509   1.014 -0.6302 -1.4501 -1.0236
 2706SOL    HW218158   3.160   7.420   1.093 -0.2192 -0.1324 -0.0897
 2707SOL     OW18159   0.421   7.326   0.822  0.0989 -0.0187  0.4994
 2707SOL    HW118160   0.497   7.296   0.764 -1.0945 -0.4335 -0.8841
 2707SOL    HW218161   0.407   7.424   0.812 -1.3976 -0.4044 -1.5260
 2708SOL     OW18162   3.840   3.190   1.880  0.2926 -0.0495 -0.1994
 2708SOL    HW118163   3.889   3.257   1.936  0.9555  0.4479 -1.3473
 2708SOL    HW218164   3.879   3.099   1.895  0.6243  0.1193 -0.0263
 2709SOL     OW18165   1.316   3.824   1.304  0.3933  0.2724 -0.7111
 2709SOL    HW118166   1.283   3.757   1.238  0.6496  1.6904 -2.3087
 2709SOL    HW218167   1.292   3.794   1.397 -0.5597 -1.3981 -1.4747
 2710SOL     OW18168   4.692   2.564   2.268  0.0693  0.4188  0.4546
 2710SOL    HW118169   4.655   2.483   2.222  0.0736 -0.3838  1.8356
 2710SOL    HW218170   4.689   2.642   2.205 -0.4884 -0.5061 -0.6954
 2711SOL     OW18171   1.090   2.027   1.997  0.1494 -0.0980  0.0297
 2711SOL    HW118172   1.182   2.066   2.000  0.0671  0.0751  0.3575
 2711SOL    HW218173   1.036   2.065   2.072 -0.3511  0.2031 -0.4887
 2712SOL     OW18174   2.490   0.322   1.782  0.3722 -0.3084 -0.0352
 2712SOL    HW118175   2.524   0.230   1.764 -0.9103 -0.6001 -1.0796
 2712SOL    HW218176   2.464   0.366   1.696 -0.3483  0.5029  0.5776
 2713SOL     OW18177   9.018   4.756   1.328  0.5026 -0.1316  0.3713
 2713SOL    HW118178   8.941   4.820   1.323  0.7304  0.1115 -0.0484
 2713SOL    HW218179   9.055   4.756   1.421  2.8579  3.1812 -0.4457
 2714SOL     OW18180   9.669   4.986   0.264 -0.6443  0.1694  0.1937
 2714SOL    HW118181   9.571   5.004   0.254 -0.7536  0.4316  1.7153
 2714SOL    HW218182   9.692   4.978   0.360  0.7450 -0.4652 -0.1804
 2715SOL     OW18183   3.998   0.173   1.373 -0.2948  0.2462  0.2775
 2715SOL    HW118184   4.012   0.154   1.470  0.4817  0.2050  0.1675
 2715SOL    HW218185   4.075   0.134   1.321 -0.4231  0.7523 -0.2915
 2716SOL     OW18186   9.877   6.698   0.679 -0.5815 -0.3534  0.5594
 2716SOL    HW118187   9.784   6.720   0.708 -0.7952  0.4986 -0.7433
 2716SOL    HW218188   9.906   6.761   0.607 -0.0174 -2.3569 -1.0016
 2717SOL     OW18189   4.611   2.330   0.649 -0.5313  0.3197  0.1918
 2717SOL    HW118190   4.522   2.369   0.673  0.1167  1.4044  0.9067
 2717SOL    HW218191   4.638   2.263   0.719 -1.8377 -1.7707 -1.2573
 2718SOL     OW18192   1.776   3.692   2.064  0.4468  0.7853  0.1812
 2718SOL    HW118193   1.681   3.720   2.052  0.2812 -0.3282 -1.3611
 2718SOL    HW218194   1.837   3.766   2.039 -0.0055  1.0797 -0.0422
 2719SOL     OW18195   3.926   3.276   1.502  0.1496  1.1352 -0.1921
 2719SOL    HW118196   3.896   3.322   1.419  1.0965  4.0836  1.0427
 2719SOL    HW218197   3.857   3.287   1.573  0.7069  1.2810  0.3289
 2720SOL     OW18198   1.230   9.920   1.028  0.0054  0.1570  0.6330
 2720SOL    HW118199   1.140   9.963   1.029  0.3092  0.9636 -2.4505
 2720SOL    HW218200   1.300   9.990   1.012  0.9622 -0.8044  0.6055
 2721SOL     OW18201   1.022   4.227   0.200 -0.2828  0.4497  0.1515
 2721SOL    HW118202   1.046   4.209   0.105 -0.4875  1.6045 -0.1292
 2721SOL    HW218203   1.014   4.140   0.250  0.7315 -0.1153 -0.6534
 2722SOL     OW18204   0.708   3.305   0.147  0.2638 -0.5077 -0.4666
 2722SOL    HW118205   0.691   3.223   0.201  0.2851 -0.2560 -0.0716
 2722SOL    HW218206   0.658   3.382   0.188  0.3617 -0.2936 -0.7485
 2723SOL     OW18207   2.578   4.031   0.598 -0.1336  0.4081  0.6750
 2723SOL    HW118208   2.655   4.080   0.558 -0.9592  1.0410 -0.1756
 2723SOL    HW218209   2.600   4.004   0.691  1.6797 -0.7193 -0.0522
 2724SOL     OW18210   1.586   8.434   0.439 -0.2882 -0.0969  0.1300
 2724SOL    HW118211   1.594   8.498   0.363  0.5216 -0.8827 -0.4629
 2724SOL    HW218212   1.599   8.483   0.526 -1.1872  0.7938 -0.2341
 2725SOL     OW18213   0.415   5.996   1.976  0.2257 -0.3877 -0.1288
 2725SOL    HW118214   0.510   6.013   1.950  0.4643 -1.0914  0.2711
 2725SOL    HW218215   0.356   6.014   1.897  0.8793 -1.8070 -0.9763
 2726SOL     OW18216   2.015   4.565   1.783  0.1196 -0.5234  0.0391
 2726SOL    HW118217   1.984   4.593   1.873  2.5560 -0.2086  0.8092
 2726SOL    HW218218   2.006   4.641   1.719  2.0323  0.4767  0.9427
 2727SOL     OW18219   0.617   3.427   2.175  0.4025 -0.0817 -0.3093
 2727SOL    HW118220   0.673   3.417   2.092  0.3389  0.0014 -0.3618
 2727SOL    HW218221   0.522   3.446   2.149  0.1791 -1.0718 -0.2413
 2728SOL     OW18222   4.299   3.920   2.564 -0.3393 -0.1804 -0.0286
 2728SOL    HW118223   4.347   3.988   2.507  0.6233 -0.5820  0.2960
 2728SOL    HW218224   4.253   3.854   2.505 -1.1782  0.6786 -0.3480
 2729SOL     OW18225   2.159   3.867   1.832  0.8224 -0.1200 -0.2131
 2729SOL    HW118226   2.196   3.774   1.830  1.2634  0.0621 -1.0429
 2729SOL    HW218227   2.078   3.870   1.890  2.2044 -0.5033  1.8037
 2730SOL     OW18228   0.168   3.143   0.513 -0.2781  0.2938 -0.4988
 2730SOL    HW118229   0.175   3.043   0.511 -1.4377  0.2070 -0.4288
 2730SOL    HW218230   0.099   3.173   0.447 -0.3051  1.0124 -0.1484
 2731SOL     OW18231   0.454   7.951   2.036 -0.1079  0.3363  0.6875
 2731SOL    HW118232   0.390   7.944   2.112  1.5134  1.0818  2.1426
 2731SOL    HW218233   0.427   7.887   1.964 -2.1477  0.2354  1.5023
 2732SOL     OW18234   1.574   6.861   2.395  0.2229  0.3603 -0.4133
 2732SOL    HW118235   1.530   6.853   2.485 -0.1379  0.7872 -0.5544
 2732SOL    HW218236   1.615   6.952   2.386 -1.6856  1.1192 -1.5705
 2733SOL     OW18237   1.920   7.805   0.144 -0.0806 -0.3982  0.0574
 2733SOL    HW118238   1.880   7.791   0.053  0.3967 -1.7419  0.0331
 2733SOL    HW218239   2.011   7.844   0.134 -1.3375  2.6430  0.1129
 2734SOL     OW18240   1.567   9.407   1.412  0.3371  0.7541  0.2638
 2734SOL    HW118241   1.561   9.352   1.495  0.4273  0.4573  0.0756
 2734SOL    HW218242   1.661   9.405   1.377  0.0078 -0.2461 -0.6025
 2735SOL     OW18243   2.331   7.244   1.936  0.1601  0.2983 -0.2062
 2735SOL    HW118244   2.352   7.155   1.896  2.0399 -0.1833  1.7799
 2735SOL    HW218245   2.278   7.232   2.019  0.8003  0.9958  0.3117
 2736SOL     OW18246   1.947   4.116   0.032  0.2625 -0.2740 -0.1132
 2736SOL    HW118247   2.005   4.142   0.109 -0.3921 -0.8761  0.5932
 2736SOL    HW218248   1.965   4.176  -0.046 -1.1491  2.2360  1.4518
 2737SOL     OW18249   1.384   4.102   0.840  0.1881  0.5385 -0.1577
 2737SOL    HW118250   1.338   4.020   0.807  0.7938 -0.4291  1.3496
 2737SOL    HW218251   1.345   4.129   0.928  0.9424  1.0421  0.0261
 2738SOL     OW18252   0.759   2.810   1.894 -0.0463  0.3903 -0.0439
 2738SOL    HW118253   0.727   2.755   1.817  0.2975  1.3973 -0.9332
 2738SOL    HW218254   0.696   2.887   1.907 -1.9174 -1.5189  2.7704
 2739SOL     OW18255   2.194   0.156   2.440  0.3921 -0.4314 -0.6117
 2739SOL    HW118256   2.241   0.118   2.519  0.6437  3.4252  1.2172
 2739SOL    HW218257   2.256   0.157   2.361  1.1264 -1.5359 -0.0557
 2740SOL     OW18258   3.055   8.602   0.302 -0.6022  0.0005  0.4098
 2740SOL    HW118259   3.067   8.604   0.401 -0.2807 -1.1933  0.3950
 2740SOL    HW218260   3.142   8.623   0.258 -0.7330  0.4792  0.3810
 2741SOL     OW18261   2.080   9.363   0.762 -0.1781  0.2630 -0.3224
 2741SOL    HW118262   2.051   9.342   0.669 -1.3970 -0.1878  0.1564
 2741SOL    HW218263   2.063   9.460   0.782  1.7920  0.8226 -1.1764
 2742SOL     OW18264   0.630   4.506   1.592 -0.2726  0.1660  0.2903
 2742SOL    HW118265   0.688   4.434   1.555 -0.8601 -1.4792  2.4498
 2742SOL    HW218266   0.534   4.481   1.581 -0.4710  0.2866  1.6354
 2743SOL     OW18267   2.235   1.915   0.762 -0.1037  0.1146 -1.0679
 2743SOL    HW118268   2.189   2.004   0.761 -0.1224  0.1332  0.2620
 2743SOL    HW218269   2.265   1.892   0.670 -0.3232  1.3794 -1.4667
 2744SOL     OW18270   9.405   0.920   1.713  0.7202  0.1452  0.2362
 2744SOL    HW118271   9.505   0.914   1.705  0.7640  0.6404  0.3956
 2744SOL    HW218272   9.363   0.891   1.627  0.9546 -1.3598  0.6201
 2745SOL     OW18273   0.317   0.758   1.281  0.2733 -0.3129 -0.3135
 2745SOL    HW118274   0.329   0.853   1.311  0.1983 -0.7939  1.2821
 2745SOL    HW218275   0.279   0.757   1.189  3.0486  1.2096 -1.5261
 2746SOL     OW18276   4.533   2.148   0.035 -0.5729 -0.1957  0.5611
 2746SOL    HW118277   4.582   2.230   0.066  0.2581  0.1361 -1.5617
 2746SOL    HW218278   4.501   2.162  -0.058 -0.6315 -2.2170  0.2670
 2747SOL     OW18279   8.904   1.925   0.771 -0.3549  0.2931 -0.4867
 2747SOL    HW118280   9.000   1.952   0.780 -0.7964  1.1124  2.4914
 2747SOL    HW218281   8.897   1.825   0.775  0.2709  0.2908  0.9607
 2748SOL     OW18282   1.711   7.900   2.539  1.0724 -0.0376 -0.2849
 2748SOL    HW118283   1.685   7.858   2.452 -0.3371 -0.4779  0.3456
 2748SOL    HW218284   1.782   7.969   2.522 -0.1101  0.8022 -1.9650
 2749SOL     OW18285   1.515   4.774   1.144  0.4441  0.2289 -0.1703
 2749SOL    HW118286   1.609   4.764   1.111  1.2081  0.5554  1.8663
 2749SOL    HW218287   1.488   4.692   1.194 -0.1169  0.4211 -0.1565
 2750SOL     OW18288   0.831   3.963   0.617  0.1362  0.1650 -0.3341
 2750SOL    HW118289   0.925   3.999   0.621  0.8579 -1.5851 -1.0588
 2750SOL    HW218290   0.819   3.894   0.688 -0.6964  0.5534 -0.0935
 2751SOL     OW18291   1.253   0.833   0.251 -0.0098 -0.7106  0.0860
 2751SOL    HW118292   1.348   0.827   0.281 -0.8754 -1.1409  2.8336
 2751SOL    HW218293   1.236   0.765   0.179  2.0123  0.1293 -1.2302
 2752SOL     OW18294   0.050   6.903   0.529  0.4622  0.2830  0.7819
 2752SOL    HW118295   0.019   6.953   0.610  0.6386  2.4581 -0.4493
 2752SOL    HW218296   0.133   6.852   0.552  1.2761  1.9395  1.6596
 2753SOL     OW18297   1.609   4.131   1.087  0.6628 -0.1600  0.2710
 2753SOL    HW118298   1.572   4.097   1.001  2.0713  0.6115 -0.6468
 2753SOL    HW218299   1.638   4.226   1.076  1.7957 -0.3749  1.3129
 2754SOL     OW18300   0.758   8.804   0.789 -0.3249 -0.1731  0.3229
 2754SOL    HW118301   0.688   8.869   0.817  3.0127  3.0476  1.5929
 2754SOL    HW218302   0.789   8.826   0.697 -0.8016 -1.4620 -0.1573
 2755SOL     OW18303   2.751   4.618   0.042  0.1261 -0.6064 -0.4760
 2755SOL    HW118304   2.823   4.675   0.080  0.8943 -0.6990 -1.7543
 2755SOL    HW218305   2.784   4.525   0.028 -0.1554 -0.5994 -1.2637
 2756SOL     OW18306   0.241   0.248   0.656  0.2772 -0.0400 -0.3089
 2756SOL    HW118307   0.161   0.304   0.677  0.2851  0.0618 -0.5564
 2756SOL    HW218308   0.247   0.234   0.557  0.4021 -0.2877 -0.2651
 2757SOL     OW18309   2.005   0.569   2.398 -0.0777 -0.1324  0.2466
 2757SOL    HW118310   2.076   0.508   2.433 -1.1177  0.3851  3.4275
 2757SOL    HW218311   1.923   0.516   2.377 -0.5040 -0.0785  1.6760
 2758SOL     OW18312   0.683   8.267   0.952 -0.3063  0.3667  0.2683
 2758SOL    HW118313   0.647   8.360   0.957 -0.6350  0.2903 -0.5703
 2758SOL    HW218314   0.781   8.268   0.968 -0.2859  0.8719  0.1036
 2759SOL     OW18315   0.660   8.171   2.281 -0.2968  0.0157  0.2374
 2759SOL    HW118316   0.668   8.231   2.360 -1.5479  0.4100  0.0744
 2759SOL    HW218317   0.575   8.190   2.233 -0.6302 -1.7871  0.0825
 2760SOL     OW18318   2.395   3.109   2.192  1.0796  0.4144 -0.0742
 2760SOL    HW118319   2.400   3.208   2.208  0.8883  0.5340 -0.7260
 2760SOL    HW218320   2.381   3.092   2.094 -0.3135 -0.2119  0.2176
 2761SOL     OW18321   1.557   0.702   0.990 -0.3770  0.3471 -0.2674
 2761SOL    HW118322   1.522   0.773   1.051 -1.8338 -2.7757  2.6343
 2761SOL    HW218323   1.494   0.690   0.913 -0.5075  1.5914 -0.3717
 2762SOL     OW18324   2.171   7.829   0.284 -0.3884 -0.0689 -0.1435
 2762SOL    HW118325   2.151   7.914   0.234 -0.0315  0.1212  0.0381
 2762SOL    HW218326   2.266   7.828   0.312 -1.1020  0.8372  2.4358
 2763SOL     OW18327   1.954   8.427   0.779 -0.1150  0.5345 -0.0662
 2763SOL    HW118328   1.880   8.381   0.828  1.9004 -1.1928  1.4479
 2763SOL    HW218329   1.944   8.411   0.681 -1.5308  0.0450  0.1418
 2764SOL     OW18330   8.908   2.164   1.030  0.5536 -0.4723  0.1543
 2764SOL    HW118331   8.907   2.197   1.124 -0.1417 -0.7149  0.2354
 2764SOL    HW218332   8.820   2.122   1.008 -0.1288  1.6387 -1.3302
 2765SOL     OW18333   2.287   7.682   0.856  0.0038  0.1142  0.1252
 2765SOL    HW118334   2.225   7.688   0.777 -0.4508  0.7652  0.5310
 2765SOL    HW218335   2.340   7.767   0.862  1.1749 -0.5742 -0.4172
 2766SOL     OW18336   2.136   7.984   0.624  0.6984  0.2096 -0.2061
 2766SOL    HW118337   2.120   7.896   0.669  1.0478  0.4153  0.3286
 2766SOL    HW218338   2.048   8.025   0.599  0.3617  0.9853  2.0463
 2767SOL     OW18339   1.675   0.429   1.440 -0.5689  0.2307  0.6060
 2767SOL    HW118340   1.589   0.396   1.401  0.4647 -1.5734 -0.1966
 2767SOL    HW218341   1.658   0.514   1.490 -3.1707 -1.0766  2.0885
 2768SOL     OW18342   1.940   2.731   0.259 -0.3258 -0.3848  0.1790
 2768SOL    HW118343   1.946   2.631   0.256  1.7102 -0.2685 -0.1715
 2768SOL    HW218344   1.985   2.765   0.341 -3.0052  0.1504  1.4934
 2769SOL     OW18345   9.332   1.017   1.959 -0.9159  0.4125 -0.1605
 2769SOL    HW118346   9.244   1.058   1.935 -0.3414  0.9024 -1.5364
 2769SOL    HW218347   9.360   0.953   1.887 -1.8998 -2.6318  2.0805
 2770SOL     OW18348   3.328   4.767   1.145  0.4725 -0.2123 -0.1169
 2770SOL    HW118349   3.289   4.770   1.237  0.7384 -0.7791  0.0167
 2770SOL    HW218350   3.427   4.778   1.150  0.2565  2.2809 -0.5394
 2771SOL     OW18351   1.319   0.425   1.076 -0.1080  0.2823 -0.5594
 2771SOL    HW118352   1.266   0.353   1.031 -0.9120  0.9814 -0.7421
 2771SOL    HW218353   1.339   0.498   1.011 -0.3787  0.8071 -0.0619
 2772SOL     OW18354   1.023   3.630   0.749 -0.3379  0.5820  0.9185
 2772SOL    HW118355   1.034   3.535   0.777 -2.0434  0.1997  0.3662
 2772SOL    HW218356   0.946   3.671   0.799  0.0408  1.5093  0.7580
 2773SOL     OW18357   0.077   9.171   1.606 -0.6678 -0.3041 -0.3855
 2773SOL    HW118358   0.173   9.183   1.580 -1.0557 -0.2217 -1.7997
 2773SOL    HW218359   0.054   9.238   1.676  0.2722 -0.2361 -0.1291
 2774SOL     OW18360   0.922   2.159   2.146  0.7454  0.1929 -0.3509
 2774SOL    HW118361   0.915   2.259   2.153  2.1871  0.1314  3.0724
 2774SOL    HW218362   0.849   2.117   2.201  1.5603 -0.6055  0.1341
 2775SOL     OW18363   8.660   2.561   2.511  0.1640 -0.4927 -0.2003
 2775SOL    HW118364   8.586   2.596   2.568 -0.3850 -0.1300 -1.1343
 2775SOL    HW218365   8.658   2.606   2.422  1.1502 -0.9029 -0.4381
 2776SOL     OW18366   9.582   5.513   1.886 -0.6293  0.0082  0.4782
 2776SOL    HW118367   9.561   5.422   1.921  0.8500 -0.2603  0.7295
 2776SOL    HW218368   9.588   5.578   1.962 -2.3834  0.4734  0.2339
 2777SOL     OW18369   2.594   0.007   1.229  0.7617  0.1235 -0.3333
 2777SOL    HW118370   2.651  -0.072   1.254 -0.7337 -1.7976 -2.7747
 2777SOL    HW218371   2.616   0.035   1.135 -0.2571  1.2426 -0.2383
 2778SOL     OW18372   2.095   9.292   1.431  0.0245 -0.6597  0.1185
 2778SOL    HW118373   2.094   9.334   1.522  1.3800  0.4403 -0.3557
 2778SOL    HW218374   2.049   9.203   1.435 -1.7471  0.2710  1.4183
 2779SOL     OW18375   1.962   6.287   1.739  0.3390 -0.0159 -0.4888
 2779SOL    HW118376   1.929   6.243   1.822  2.5516  1.0264  1.0032
 2779SOL    HW218377   2.054   6.254   1.717  0.9291  1.7969 -0.8842
 2780SOL     OW18378   2.849   2.029   0.951  0.9787 -0.6480  0.3242
 2780SOL    HW118379   2.771   2.021   0.889  1.7789  0.8910 -0.9431
 2780SOL    HW218380   2.822   2.001   1.043 -0.7965 -1.0549 -0.3023
 2781SOL     OW18381   0.748   5.043   1.991  0.4428 -0.0634 -0.5185
 2781SOL    HW118382   0.734   5.141   2.006  0.4092 -0.1689  0.1800
 2781SOL    HW218383   0.793   5.029   1.903  0.8016  0.6103 -0.4531
 2782SOL     OW18384   4.282   2.565   2.279 -0.7346 -0.0927  0.0329
 2782SOL    HW118385   4.203   2.513   2.247 -1.3634 -0.1909  1.7384
 2782SOL    HW218386   4.352   2.502   2.314  0.7043 -0.1039 -2.7213
 2783SOL     OW18387   9.446   2.055   0.820 -0.4830  0.3935  0.1602
 2783SOL    HW118388   9.354   2.014   0.821 -0.3188 -0.0026 -0.8150
 2783SOL    HW218389   9.514   1.985   0.840 -0.4833  0.9586  2.2564
 2784SOL     OW18390   9.933   5.921   0.271 -0.3853 -0.5606 -0.4076
 2784SOL    HW118391   9.951   6.013   0.304 -0.4638 -1.1943  1.4774
 2784SOL    HW218392   9.997   5.857   0.314 -2.1646 -1.7673  0.5199
 2785SOL     OW18393   4.251   2.458   1.256 -0.0948  0.3137  0.3382
 2785SOL    HW118394   4.284   2.398   1.184  1.0196  0.6247  0.5842
 2785SOL    HW218395   4.194   2.406   1.320 -2.5268  0.3784 -1.6802
 2786SOL     OW18396   1.308   8.328   2.083 -0.5188  0.7316 -0.2116
 2786SOL    HW118397   1.294   8.286   2.172  0.9078  0.2112 -0.2261
 2786SOL    HW218398   1.231   8.304   2.023 -0.6012 -0.3900  0.3228
 2787SOL     OW18399   1.863   2.846   1.647  0.2150  0.1718  0.0934
 2787SOL    HW118400   1.780   2.888   1.682 -0.6263 -1.0508 -0.3591
 2787SOL    HW218401   1.944   2.888   1.689 -0.5323  3.0188 -1.2483
 2788SOL     OW18402   1.147   1.715   2.161  0.0967  0.2467 -0.3925
 2788SOL    HW118403   1.228   1.713   2.221  0.5484 -1.6172 -1.0171
 2788SOL    HW218404   1.168   1.769   2.080 -0.0235  1.5668  0.4396
 2789SOL     OW18405   2.527   5.321   0.434  0.3480 -0.2879 -0.1093
 2789SOL    HW118406   2.624   5.308   0.416  0.1698  0.5166 -1.7166
 2789SOL    HW218407   2.503   5.417   0.418 -0.8893 -0.6693 -0.5471
 2790SOL     OW18408   2.381   1.949   1.301 -0.3537  0.3394 -0.4351
 2790SOL    HW118409   2.447   1.998   1.357 -1.0450  1.5536 -0.6759
 2790SOL    HW218410   2.381   1.852   1.326 -0.9621  0.9242  1.9625
 2791SOL     OW18411   0.894   8.889   0.075 -0.1601 -0.3210  0.0074
 2791SOL    HW118412   0.835   8.955   0.030 -0.2818 -1.0624 -0.9256
 2791SOL    HW218413   0.853   8.860   0.162 -1.2863 -1.0149 -0.7483
 2792SOL     OW18414   4.146   2.078   2.315 -0.2323  0.3426  0.7183
 2792SOL    HW118415   4.140   1.979   2.330 -0.3948  0.1048 -0.7993
 2792SOL    HW218416   4.234   2.112   2.347  0.5540 -0.6098 -0.4138
 2793SOL     OW18417   9.069   5.071   1.401 -0.0630 -0.1232  0.8125
 2793SOL    HW118418   9.161   5.051   1.367  0.6319  0.1186  2.5010
 2793SOL    HW218419   9.039   5.159   1.366  0.3537 -0.1975  0.2659
 2794SOL     OW18420   9.473   6.192   0.873  0.2607 -0.0725 -0.2693
 2794SOL    HW118421   9.515   6.201   0.963 -0.9646 -0.2813  0.3468
 2794SOL    HW218422   9.374   6.203   0.882 -0.2563 -3.3377 -1.0638
 2795SOL     OW18423   1.328   1.363   2.514  0.7615  0.4435  0.2553
 2795SOL    HW118424   1.234   1.397   2.511  0.1557 -1.2547 -0.1683
 2795SOL    HW218425   1.363   1.354   2.420  0.4900 -1.2571  0.3066
 2796SOL     OW18426   4.219   1.183   0.928 -0.1839 -0.2835  0.4085
 2796SOL    HW118427   4.167   1.208   1.010 -1.8756 -1.1494 -0.3924
 2796SOL    HW218428   4.242   1.266   0.877 -0.7954  0.1096  0.7642
 2797SOL     OW18429   0.800   2.341   0.166 -0.1726  0.4914  0.1926
 2797SOL    HW118430   0.882   2.284   0.162 -0.1294  0.6272 -0.9665
 2797SOL    HW218431   0.820   2.424   0.218 -0.0672 -0.2598  1.3667
 2798SOL     OW18432   0.314   0.412   1.648  0.4234 -0.3019  0.2542
 2798SOL    HW118433   0.400   0.377   1.611 -0.8099 -3.2142 -0.0790
 2798SOL    HW218434   0.278   0.483   1.587 -0.1959 -3.0825 -2.7784
 2799SOL     OW18435   1.577   6.309   0.508  0.4379  0.3969 -0.7101
 2799SOL    HW118436   1.648   6.240   0.492 -0.0447 -0.0708 -0.8253
 2799SOL    HW218437   1.551   6.352   0.422  0.5814  0.5740 -0.6670
 2800SOL     OW18438   2.122   8.999   1.736  0.0722 -0.5227 -0.7689
 2800SOL    HW118439   2.198   9.063   1.747 -0.9114  0.8183 -1.6791
 2800SOL    HW218440   2.062   9.030   1.663 -0.8684 -2.0633 -0.6814
 2801SOL     OW18441   1.012   9.403   0.550  0.5418  0.6909 -0.1618
 2801SOL    HW118442   0.984   9.351   0.630 -1.1742  1.1461 -0.4532
 2801SOL    HW218443   0.996   9.349   0.468 -0.0985  1.2153 -0.3785
 2802SOL     OW18444   0.344   8.831   0.681 -0.5950 -0.3868  0.2270
 2802SOL    HW118445   0.259   8.851   0.731 -1.3254  0.3777 -1.2628
 2802SOL    HW218446   0.421   8.831   0.744 -1.1462  3.0354  1.0422
 2803SOL     OW18447   4.120   3.094   1.554 -0.1690 -0.4630 -0.0545
 2803SOL    HW118448   4.136   3.085   1.653 -0.4551 -0.0049  0.0314
 2803SOL    HW218449   4.038   3.148   1.538 -0.2355 -0.7039 -0.5454
 2804SOL     OW18450   0.357   6.460   1.679  0.1063  0.0850  0.4803
 2804SOL    HW118451   0.455   6.450   1.693  0.1631 -1.6957 -0.9458
 2804SOL    HW218452   0.325   6.387   1.619 -1.6794  2.0273 -0.9925
 2805SOL     OW18453   2.214   2.543   2.139  0.1376  0.3893  0.0978
 2805SOL    HW118454   2.311   2.564   2.143  0.8221 -2.9102  2.2509
 2805SOL    HW218455   2.174   2.550   2.231 -0.7615 -2.1611 -0.0544
 2806SOL     OW18456   3.088   8.583   0.575 -0.6327  0.4336 -0.3054
 2806SOL    HW118457   3.171   8.638   0.585  0.7105 -1.9343  2.3273
 2806SOL    HW218458   3.011   8.630   0.617  0.1979  0.9722  0.6340
 2807SOL     OW18459   3.379   0.840   1.151 -0.1166  0.0160  0.1496
 2807SOL    HW118460   3.405   0.851   1.055 -2.4878 -0.5478 -0.5977
 2807SOL    HW218461   3.434   0.768   1.193  1.3955  0.7219 -0.6020
 2808SOL     OW18462   2.059   9.032   2.109  0.0388 -0.0155  0.4529
 2808SOL    HW118463   1.972   8.982   2.113 -0.2798  0.5673  0.9554
 2808SOL    HW218464   2.068   9.076   2.020  0.0109 -0.4119  0.2505
 2809SOL     OW18465   1.771   7.541   1.706  0.2563 -0.6370  0.1900
 2809SOL    HW118466   1.753   7.518   1.611  1.1528  0.7480 -0.3363
 2809SOL    HW218467   1.738   7.468   1.766 -0.0340 -1.6456 -1.1967
 2810SOL     OW18468   2.002   7.685   1.733  0.9905  0.6694  0.6454
 2810SOL    HW118469   1.919   7.629   1.727  0.8069  0.7008  2.5202
 2810SOL    HW218470   2.079   7.633   1.697  0.5558 -0.2389  0.9880
 2811SOL     OW18471   2.536   1.182   0.824  0.2809  0.5750  0.5492
 2811SOL    HW118472   2.441   1.178   0.792  0.2893  0.1916  0.5786
 2811SOL    HW218473   2.545   1.254   0.893  0.0317  0.6717  0.4802
 2812SOL     OW18474   2.957   3.594   2.092 -0.3263  0.2458  0.1875
 2812SOL    HW118475   2.906   3.679   2.105  0.1341  0.7877 -1.3663
 2812SOL    HW218476   2.930   3.528   2.162 -2.3260  0.9158  0.0953
 2813SOL     OW18477   4.449   2.583   0.075  0.4095  0.2695 -0.1187
 2813SOL    HW118478   4.377   2.577   0.144 -0.1849  0.4511 -0.7152
 2813SOL    HW218479   4.537   2.596   0.120 -0.1293  1.6783  0.5538
 2814SOL     OW18480   1.090   4.603   1.345  0.2976  0.0888  0.0545
 2814SOL    HW118481   1.000   4.616   1.387 -0.2355  0.3698 -1.1602
 2814SOL    HW218482   1.110   4.505   1.341  0.1881  0.0431  0.6335
 2815SOL     OW18483   1.459   5.671   0.323 -0.2774  0.2459  0.3024
 2815SOL    HW118484   1.424   5.622   0.243 -0.9758 -1.3482  1.5453
 2815SOL    HW218485   1.483   5.605   0.395  4.5047  1.3096 -0.1465
 2816SOL     OW18486   9.326   4.622   0.011  0.3383 -0.0722  0.4363
 2816SOL    HW118487   9.244   4.670  -0.019  1.0786  0.0007 -1.5572
 2816SOL    HW218488   9.400   4.638  -0.054  1.8879 -0.3112  2.0823
 2817SOL     OW18489   8.841   1.776   1.063  0.1244  0.4796  0.5353
 2817SOL    HW118490   8.918   1.755   1.002  1.7584  0.9805  2.3980
 2817SOL    HW218491   8.806   1.691   1.103 -0.8319  0.1690 -0.9237
 2818SOL     OW18492   0.715   5.827   0.857  0.0124  0.3095 -0.2616
 2818SOL    HW118493   0.670   5.878   0.783 -1.5583  1.3787  1.3896
 2818SOL    HW218494   0.647   5.773   0.906  0.9323  0.1019  0.7985
 2819SOL     OW18495   2.449   6.690   0.659 -0.5172  0.0597 -0.5102
 2819SOL    HW118496   2.470   6.697   0.757 -2.0566  0.5504 -0.2022
 2819SOL    HW218497   2.425   6.780   0.623 -1.4082 -0.3577 -0.9858
 2820SOL     OW18498   1.242   9.745   0.148  0.3136 -0.4279  0.3007
 2820SOL    HW118499   1.171   9.675   0.143 -0.7143  0.5907  0.5656
 2820SOL    HW218500   1.205   9.828   0.190  1.6305  0.1455  0.3603
 2821SOL     OW18501   0.373   1.217   1.876 -0.2445  0.3452  0.2956
 2821SOL    HW118502   0.367   1.284   1.950  0.9377 -0.0681  0.7756
 2821SOL    HW218503   0.292   1.225   1.818 -0.8118  1.2018  1.1776
 2822SOL     OW18504   3.095   8.273   0.341  0.8357 -0.5712  0.1252
 2822SOL    HW118505   3.014   8.331   0.334  0.3145 -1.1993  0.9562
 2822SOL    HW218506   3.084   8.193   0.282  1.6862  0.3111 -1.2597
 2823SOL     OW18507   1.681   4.113   0.307 -0.0352  0.1619  0.3743
 2823SOL    HW118508   1.584   4.119   0.282 -0.6446 -1.8678  2.0632
 2823SOL    HW218509   1.725   4.040   0.254  0.0836 -0.2343  1.0124
 2824SOL     OW18510   0.157   0.750   0.787 -0.2183  0.2141 -0.5868
 2824SOL    HW118511   0.213   0.749   0.705 -0.5673 -0.3901 -0.8162
 2824SOL    HW218512   0.107   0.837   0.792 -1.2163 -0.2873 -1.6984
 2825SOL     OW18513   2.028   7.213   0.108  0.5038  0.0582  0.2476
 2825SOL    HW118514   2.071   7.302   0.117  0.8961 -0.1325  0.2417
 2825SOL    HW218515   2.032   7.183   0.013 -2.7279  1.6051 -0.4701
 2826SOL     OW18516   0.181   7.050   0.024 -0.2660  0.3755 -0.1075
 2826SOL    HW118517   0.114   7.038   0.098  0.4056  1.0222  0.6159
 2826SOL    HW218518   0.150   7.122  -0.037 -0.7944 -0.1168 -0.4201
 2827SOL     OW18519   1.884   8.526   0.289  0.0574 -0.0225  0.1105
 2827SOL    HW118520   1.786   8.546   0.290  0.2016  0.7970 -1.5023
 2827SOL    HW218521   1.936   8.610   0.269  0.9990 -0.7417 -0.5446
 2828SOL     OW18522   2.664   9.656   0.994  0.3707  0.1198 -0.0054
 2828SOL    HW118523   2.709   9.707   1.067 -0.0313 -1.0047  1.0461
 2828SOL    HW218524   2.683   9.558   1.006  0.8902 -0.0239 -1.8167
 2829SOL     OW18525   2.337   9.549   0.692 -0.1160 -0.2079 -0.2890
 2829SOL    HW118526   2.359   9.614   0.765  1.6068 -0.1202 -0.8516
 2829SOL    HW218527   2.251   9.575   0.649 -0.4802  0.5068  0.8439
 2830SOL     OW18528   0.061   0.281   1.142  0.0150  0.2251  0.3180
 2830SOL    HW118529   0.035   0.189   1.173 -0.6035  0.4269  0.3998
 2830SOL    HW218530   0.010   0.305   1.060  0.7762  0.1758 -0.1784
 2831SOL     OW18531   1.927   8.633   2.286  1.1106  0.4784  0.2459
 2831SOL    HW118532   1.851   8.613   2.348  1.5674  0.1505  0.7109
 2831SOL    HW218533   2.006   8.576   2.311  1.3645  0.4895 -0.5149
 2832SOL     OW18534   1.767   4.408   2.441 -0.3610  0.2462  0.8224
 2832SOL    HW118535   1.766   4.483   2.375 -1.5318  0.2761  0.8651
 2832SOL    HW218536   1.742   4.443   2.531  1.7252  0.3030  1.4075
 2833SOL     OW18537   3.138   9.816   1.552  0.0211 -0.0245  0.0980
 2833SOL    HW118538   3.088   9.898   1.580  0.2568 -0.2640  1.2432
 2833SOL    HW218539   3.230   9.817   1.592 -1.0890 -2.4344  2.9305
 2834SOL     OW18540   9.764   3.819   1.148  0.3706  0.2206 -0.0574
 2834SOL    HW118541   9.701   3.878   1.198 -1.6919 -3.3347  1.7725
 2834SOL    HW218542   9.721   3.791   1.061  0.1131 -0.8146  0.3915
 2835SOL     OW18543   9.956   2.664   0.674 -0.3944  0.4544  0.2311
 2835SOL    HW118544   9.946   2.746   0.618  3.5565  0.2268 -0.9318
 2835SOL    HW218545  10.004   2.687   0.759  0.3124 -0.5286  0.1143
 2836SOL     OW18546   0.192   9.817   2.156  0.1989 -0.0382  0.5792
 2836SOL    HW118547   0.131   9.889   2.123  0.6558  0.4233  0.7472
 2836SOL    HW218548   0.198   9.745   2.087 -0.7058 -0.1929  0.6472
 2837SOL     OW18549   0.209   6.726   0.311  0.4935 -0.6449 -0.0202
 2837SOL    HW118550   0.232   6.718   0.408  0.7716 -1.4419 -0.1526
 2837SOL    HW218551   0.281   6.779   0.264 -1.1190  2.3658  0.7551
 2838SOL     OW18552   2.156   6.448   1.264  0.4655 -0.3168 -0.3244
 2838SOL    HW118553   2.095   6.369   1.251 -0.4566  0.4581 -0.7873
 2838SOL    HW218554   2.251   6.417   1.267  0.0342 -1.5829  0.7358
 2839SOL     OW18555   1.638   4.568   1.736 -0.2532  0.0565  0.6936
 2839SOL    HW118556   1.632   4.613   1.646  0.6097  0.6826  0.9506
 2839SOL    HW218557   1.551   4.580   1.784 -0.3197  0.7191  0.4158
 2840SOL     OW18558   1.258   4.052   1.635 -0.5244  0.2797 -0.3120
 2840SOL    HW118559   1.225   4.060   1.729  0.1620 -0.6201  0.0157
 2840SOL    HW218560   1.183   4.025   1.575 -0.8462  0.3277  0.0695
 2841SOL     OW18561   3.374   2.180   0.428  0.6531  0.2318  0.0896
 2841SOL    HW118562   3.293   2.122   0.423  0.2097  0.8247  0.3528
 2841SOL    HW218563   3.429   2.156   0.508 -0.1039  0.9143  0.8211
 2842SOL     OW18564   1.609   3.104   0.014 -0.5631  0.1068  0.0043
 2842SOL    HW118565   1.641   3.173  -0.051 -1.0269 -0.5450 -0.9219
 2842SOL    HW218566   1.628   3.013  -0.022  1.3022 -0.2575  1.8437
 2843SOL     OW18567   0.452   8.708   0.404 -0.3313  0.4117 -0.4014
 2843SOL    HW118568   0.378   8.642   0.402  0.0148  0.0071 -0.1136
 2843SOL    HW218569   0.458   8.749   0.495  0.3298 -0.1722 -0.1795
 2844SOL     OW18570   2.497   0.533   1.083 -0.1394  0.2378 -0.3168
 2844SOL    HW118571   2.572   0.539   1.150 -0.1895  1.1021 -0.3402
 2844SOL    HW218572   2.526   0.574   0.997 -1.3801  2.5091  0.3249
 2845SOL     OW18573   3.621   1.576   2.400  0.2299 -0.0011 -0.0429
 2845SOL    HW118574   3.687   1.543   2.332  0.0836  1.1973 -0.7836
 2845SOL    HW218575   3.528   1.550   2.372  0.0713  1.3977 -0.8659
 2846SOL     OW18576   9.363   2.267   0.129 -0.1670 -0.1564  0.2721
 2846SOL    HW118577   9.265   2.257   0.149 -0.4594  0.0711 -0.9659
 2846SOL    HW218578   9.389   2.363   0.137 -0.0070 -0.2395  0.7540
 2847SOL     OW18579   3.012   4.312   0.384 -0.3165  0.5931  0.0921
 2847SOL    HW118580   2.983   4.402   0.417 -2.3292  0.1938 -0.5438
 2847SOL    HW218581   3.112   4.310   0.375 -0.3639  3.2244 -1.2830
 2848SOL     OW18582   3.773   3.539   2.516  0.2224 -0.2553 -0.8523
 2848SOL    HW118583   3.698   3.490   2.473  0.1287 -0.2481 -0.6997
 2848SOL    HW218584   3.842   3.562   2.448 -0.1319  0.1446 -1.0726
 2849SOL     OW18585   3.634   1.025   0.648  0.5057 -0.2928 -0.1209
 2849SOL    HW118586   3.555   1.011   0.588 -0.8986  1.4287  1.2842
 2849SOL    HW218587   3.712   1.055   0.593 -0.5688  0.6181 -1.1879
 2850SOL     OW18588   2.203   3.369   0.801  0.3373  0.5699  0.3511
 2850SOL    HW118589   2.156   3.433   0.862  0.2817  0.7832  0.0841
 2850SOL    HW218590   2.219   3.413   0.712  0.0398  0.1197  0.0713
 2851SOL     OW18591   9.573   3.584   0.755 -0.5587  0.2583  0.2287
 2851SOL    HW118592   9.647   3.516   0.751 -1.0977 -0.3286  0.1068
 2851SOL    HW218593   9.566   3.629   0.666 -1.1913 -0.5965 -0.1606
 2852SOL     OW18594   1.869   3.805   0.319  0.2656 -0.3306  0.0345
 2852SOL    HW118595   1.861   3.849   0.230  0.6864  1.1534  0.7109
 2852SOL    HW218596   1.786   3.822   0.372  0.4150 -0.3868  0.2862
 2853SOL     OW18597   3.468   9.301   1.660 -0.4015  0.5520  0.3487
 2853SOL    HW118598   3.398   9.268   1.724 -1.0885  0.9385 -0.1886
 2853SOL    HW218599   3.457   9.400   1.648  0.3626  0.6414  0.4082
 2854SOL     OW18600   2.396   0.868   0.823  0.4539 -0.0995  0.1720
 2854SOL    HW118601   2.355   0.792   0.873 -0.2358 -0.2534 -0.6148
 2854SOL    HW218602   2.486   0.887   0.860  1.0285 -1.9249 -0.2432
 2855SOL     OW18603   0.834   7.935   0.491 -0.6763  0.0022 -0.3790
 2855SOL    HW118604   0.840   7.997   0.569 -1.5455 -0.9157  0.4269
 2855SOL    HW218605   0.891   7.970   0.417 -1.6202  2.0823 -0.1659
 2856SOL     OW18606   1.962   7.445   1.415 -0.1566  0.4684 -0.6951
 2856SOL    HW118607   1.882   7.388   1.432 -0.2763  0.7050 -0.4456
 2856SOL    HW218608   2.043   7.402   1.453  0.0529 -0.3992 -2.0956
 2857SOL     OW18609   3.962   2.615   0.904  0.9375 -0.1239  0.4154
 2857SOL    HW118610   3.902   2.680   0.951 -1.0778 -1.9586  0.4645
 2857SOL    HW218611   4.042   2.597   0.961 -0.2853 -0.4538  2.1050
 2858SOL     OW18612   9.822   1.975   0.207  0.2358  0.2720 -0.0825
 2858SOL    HW118613   9.873   2.057   0.233  1.9823 -0.4023 -1.2928
 2858SOL    HW218614   9.734   2.002   0.166  0.2852  1.4855  0.5739
 2859SOL     OW18615   3.162   3.803   2.039 -0.1734 -0.0993 -0.2035
 2859SOL    HW118616   3.101   3.730   2.068  0.0873 -0.5660 -0.8105
 2859SOL    HW218617   3.188   3.789   1.943  3.3414 -1.6371  0.8899
 2860SOL     OW18618   1.399   1.817   2.031  0.0641  0.2800 -0.3384
 2860SOL    HW118619   1.371   1.784   1.941 -1.9247 -0.8375  0.6278
 2860SOL    HW218620   1.400   1.917   2.031 -0.8383  0.3022 -1.3419
 2861SOL     OW18621   0.712   4.305   0.020  0.3375  0.0017 -0.3078
 2861SOL    HW118622   0.662   4.271   0.100 -0.3627 -0.0451 -0.7648
 2861SOL    HW218623   0.781   4.238  -0.006 -0.4816 -0.7039 -0.6955
 2862SOL     OW18624   0.453   4.996   1.284  0.1830  0.1761 -0.0505
 2862SOL    HW118625   0.394   5.057   1.338  1.5439  1.1730  0.3283
 2862SOL    HW218626   0.404   4.911   1.267 -1.9789  1.5653 -1.0700
 2863SOL     OW18627   0.111   9.395   1.829 -0.0721  0.4733  0.6484
 2863SOL    HW118628   0.187   9.460   1.834  0.8857 -0.3653 -2.1272
 2863SOL    HW218629   0.117   9.331   1.906  0.9577  1.5679  1.4957
 2864SOL     OW18630   1.471   1.299   0.923  0.1152 -0.1943 -0.0903
 2864SOL    HW118631   1.400   1.368   0.939  0.7487  0.3859  0.2260
 2864SOL    HW218632   1.519   1.280   1.009  0.7271 -0.1657 -0.4221
 2865SOL     OW18633   1.943   3.536   1.749  0.1590 -0.1181 -0.2127
 2865SOL    HW118634   1.953   3.462   1.682 -0.6318 -1.1491  0.7923
 2865SOL    HW218635   1.991   3.513   1.833  0.1846  0.6657 -0.0022
 2866SOL     OW18636   2.753   1.267   1.174 -0.2991 -0.5822  0.1376
 2866SOL    HW118637   2.729   1.193   1.237 -0.3320 -1.0178 -0.3786
 2866SOL    HW218638   2.673   1.292   1.120  0.2049 -1.5502 -1.0889
 2867SOL     OW18639   9.723   0.396   0.088 -0.3880  0.0100  0.7435
 2867SOL    HW118640   9.703   0.481   0.039  2.6070 -0.0058 -0.5824
 2867SOL    HW218641   9.773   0.334   0.027 -2.0695 -2.5183  1.8600
 2868SOL     OW18642   0.243   4.261   2.199 -0.2410 -1.0274  0.0758
 2868SOL    HW118643   0.159   4.311   2.178  0.8298 -0.1436 -2.2734
 2868SOL    HW218644   0.231   4.164   2.177 -0.5635 -0.8580 -0.4905
 2869SOL     OW18645   0.461   3.189   2.021  0.2788  0.1574 -0.1259
 2869SOL    HW118646   0.374   3.211   1.978  0.1152 -1.5394 -0.7243
 2869SOL    HW218647   0.533   3.191   1.952  0.5645  0.6111  0.1795
 2870SOL     OW18648   2.387   2.428   1.297  0.0157  0.3030 -0.6628
 2870SOL    HW118649   2.482   2.458   1.294  0.0194  0.2236 -2.0697
 2870SOL    HW218650   2.328   2.503   1.327  0.7250 -0.2385  2.1866
 2871SOL     OW18651   0.777   0.848   1.482  0.4270  0.1138 -0.3489
 2871SOL    HW118652   0.748   0.943   1.493  0.2044  0.0013  0.0361
 2871SOL    HW218653   0.723   0.789   1.542 -0.4575 -0.4361 -1.6607
 2872SOL     OW18654   1.761   6.588   1.063  0.6062  0.1376 -0.6345
 2872SOL    HW118655   1.734   6.663   1.004  0.9443  0.9506  0.2378
 2872SOL    HW218656   1.816   6.622   1.139  2.4612 -1.2422 -1.3172
 2873SOL     OW18657   1.532   3.756   1.973 -0.4624 -0.5903  0.1295
 2873SOL    HW118658   1.543   3.828   1.904  0.5881 -0.4704  0.4137
 2873SOL    HW218659   1.540   3.667   1.929  0.5796 -0.5131  0.1351
 2874SOL     OW18660   0.747   5.818   2.478 -1.0976 -0.0779 -0.1231
 2874SOL    HW118661   0.760   5.837   2.380  0.5518  0.0133  0.0963
 2874SOL    HW218662   0.798   5.885   2.532 -0.0725 -1.5299  0.7526
 2875SOL     OW18663   9.062   5.039   1.977  0.2521  0.2967  0.2946
 2875SOL    HW118664   9.058   5.017   1.879 -0.3478 -2.3372  0.8618
 2875SOL    HW218665   8.988   5.101   2.000 -0.7432 -0.5247 -0.6034
 2876SOL     OW18666   2.745   9.983   1.973  0.5001  0.8979  0.1162
 2876SOL    HW118667   2.747   9.970   2.072  0.5738 -1.6337 -0.1938
 2876SOL    HW218668   2.829   9.947   1.932 -1.1322 -1.5495 -1.2177
 2877SOL     OW18669   3.554   1.416   0.603  0.5004  0.4623 -0.8302
 2877SOL    HW118670   3.568   1.388   0.508 -0.6550 -1.7030 -0.4046
 2877SOL    HW218671   3.458   1.442   0.616 -0.1788 -2.5166  0.4888
 2878SOL     OW18672   0.983   3.199   0.127 -0.0841  0.1960 -0.3826
 2878SOL    HW118673   0.989   3.133   0.051  0.3210 -0.5481  0.2831
 2878SOL    HW218674   0.888   3.227   0.139 -0.3385 -0.6380 -0.3694
 2879SOL     OW18675   9.821   0.043   2.483 -0.1827  0.3871  0.3283
 2879SOL    HW118676   9.886   0.119   2.477 -0.9631  0.9078 -1.7882
 2879SOL    HW218677   9.728   0.077   2.468 -0.6063 -0.8920 -0.0381
 2880SOL     OW18678   2.741   1.074   0.163 -0.2671 -0.5883 -0.1830
 2880SOL    HW118679   2.749   0.975   0.180 -2.7688 -0.8682 -0.4039
 2880SOL    HW218680   2.737   1.091   0.065  1.0256 -0.1725 -0.1713
 2881SOL     OW18681   1.126   1.228   1.483  0.9253  0.2877 -0.2787
 2881SOL    HW118682   1.215   1.219   1.528  1.1061 -0.1492 -0.7113
 2881SOL    HW218683   1.138   1.277   1.397  0.4609  1.7878  0.5026
 2882SOL     OW18684   3.361   4.533   1.730  0.3594 -0.1764 -0.0197
 2882SOL    HW118685   3.458   4.547   1.749  0.4472 -0.5526 -0.1903
 2882SOL    HW218686   3.307   4.576   1.803  0.5637  2.6422 -1.4632
 2883SOL     OW18687   0.759   8.680   2.021 -0.3723 -0.3264  0.3299
 2883SOL    HW118688   0.810   8.757   1.982 -0.6832  0.4611  1.4760
 2883SOL    HW218689   0.662   8.703   2.023 -0.2669 -0.0050  2.3853
 2884SOL     OW18690   3.397   4.160   2.578 -0.0712 -0.2688  0.2715
 2884SOL    HW118691   3.364   4.137   2.486 -0.1574 -1.8835  0.6863
 2884SOL    HW218692   3.443   4.080   2.617  1.2661  0.8748  1.0593
 2885SOL     OW18693   9.704   3.413   0.576 -0.3523  0.3717 -0.3989
 2885SOL    HW118694   9.768   3.467   0.522 -0.0955  0.7389  0.2692
 2885SOL    HW218695   9.754   3.346   0.631 -0.3273  2.1482  1.8230
 2886SOL     OW18696   2.807   8.076   0.081  0.6609 -0.0504 -0.1602
 2886SOL    HW118697   2.900   8.041   0.089  0.6759  0.2532  1.3205
 2886SOL    HW218698   2.791   8.109  -0.012  1.5449 -1.4281 -0.8095
 2887SOL     OW18699   4.546   1.618   2.189 -0.8480  0.2782  0.3317
 2887SOL    HW118700   4.451   1.641   2.167 -0.7494  1.7584  1.3554
 2887SOL    HW218701   4.608   1.680   2.139 -0.5052  0.9854  1.6195
 2888SOL     OW18702   2.936   9.344   0.839 -0.2300  0.1889  0.3918
 2888SOL    HW118703   2.852   9.367   0.889 -1.0162 -1.7178  0.0110
 2888SOL    HW218704   2.973   9.258   0.874  1.1915  0.6635  0.0854
 2889SOL     OW18705   2.484   4.434   0.567  0.1029  0.3850  0.0038
 2889SOL    HW118706   2.528   4.423   0.478  0.8099 -0.9697  0.5008
 2889SOL    HW218707   2.405   4.373   0.574 -1.4024  2.2185 -0.5735
 2890SOL     OW18708   2.313   3.012   2.478  0.2372  0.0975  0.1663
 2890SOL    HW118709   2.275   2.926   2.444 -0.5466  0.0365  1.1396
 2890SOL    HW218710   2.258   3.089   2.445 -0.5198  0.0385  1.2293
 2891SOL     OW18711   1.731   1.889   1.016  0.1144 -0.0143  0.1174
 2891SOL    HW118712   1.656   1.823   1.024 -0.2621  0.0065 -2.8188
 2891SOL    HW218713   1.806   1.862   1.076 -0.7979 -2.0600  0.3607
 2892SOL     OW18714   0.633   4.958   1.453 -0.5114  0.5414 -0.4902
 2892SOL    HW118715   0.594   4.900   1.525  0.3801 -0.3596 -0.7132
 2892SOL    HW218716   0.565   4.972   1.381 -0.5947 -0.6320 -0.6550
 2893SOL     OW18717   4.196   1.905   1.684  0.0450  0.2149 -0.1202
 2893SOL    HW118718   4.132   1.944   1.750  1.5756  0.8627  1.0092
 2893SOL    HW218719   4.215   1.809   1.708  0.8300  0.5350  0.5955
 2894SOL     OW18720   0.530   5.270   1.879  0.0968  1.0047  0.9827
 2894SOL    HW118721   0.472   5.214   1.939 -2.0317  1.9934 -0.0696
 2894SOL    HW218722   0.552   5.218   1.797  0.3877  0.7550  1.2188
 2895SOL     OW18723   4.131   3.227   2.044 -0.4431  0.0192  0.5807
 2895SOL    HW118724   4.073   3.296   2.088  0.5243  2.0617 -1.2405
 2895SOL    HW218725   4.221   3.228   2.087 -0.7276 -0.7989  1.1968
 2896SOL     OW18726   2.264   0.378   1.159  0.1235 -0.5933  0.2831
 2896SOL    HW118727   2.357   0.402   1.134  0.2259 -0.4197  0.8153
 2896SOL    HW218728   2.233   0.438   1.233 -0.1246 -1.1706  0.6521
 2897SOL     OW18729   9.285   4.982   1.258 -0.0540 -0.1359  0.2444
 2897SOL    HW118730   9.210   4.922   1.228 -0.6807  0.2735  1.0006
 2897SOL    HW218731   9.315   5.038   1.181 -0.1066 -0.7461 -0.2232
 2898SOL     OW18732   1.748   8.808   0.492  0.4116 -0.4004 -0.0809
 2898SOL    HW118733   1.842   8.811   0.527 -0.2235 -1.4168  1.7929
 2898SOL    HW218734   1.695   8.743   0.547 -1.5813  0.7409 -0.6336
 2899SOL     OW18735   3.153   4.398   1.275  0.0503  0.0966  0.2896
 2899SOL    HW118736   3.072   4.396   1.216  0.2180  0.1923  0.0546
 2899SOL    HW218737   3.181   4.304   1.297  0.5614  0.0285 -0.5794
 2900SOL     OW18738   1.739   0.202   1.569 -0.6481 -0.7318 -0.0859
 2900SOL    HW118739   1.715   0.291   1.530  0.6906 -0.2039  0.2795
 2900SOL    HW218740   1.807   0.214   1.641 -2.0335 -1.8531  1.4466
 2901SOL     OW18741   9.529   5.725   0.764  0.3080 -0.4971 -0.5572
 2901SOL    HW118742   9.585   5.767   0.835  1.9706 -0.5915 -1.7934
 2901SOL    HW218743   9.451   5.785   0.743  1.4714  0.9512 -0.7897
 2902SOL     OW18744   9.110   5.227   0.113 -0.0021 -0.1837  0.3095
 2902SOL    HW118745   9.075   5.147   0.163 -0.5179 -1.1946 -1.6476
 2902SOL    HW218746   9.150   5.291   0.179 -0.7970 -1.4143  2.0528
 2903SOL     OW18747   0.880   4.168   1.719  0.0221 -0.0150 -0.4203
 2903SOL    HW118748   0.955   4.128   1.667  0.8930  1.3370 -0.2368
 2903SOL    HW218749   0.845   4.101   1.785  1.7528 -0.3256  0.2026
 2904SOL     OW18750   0.402   3.531   1.969  0.3874 -0.9099  0.2944
 2904SOL    HW118751   0.374   3.465   1.899  0.2817  0.2997 -0.8204
 2904SOL    HW218752   0.498   3.555   1.955  0.2647 -0.3942  0.3592
 2905SOL     OW18753   3.021   3.896   1.262  0.1340 -0.7763 -0.1999
 2905SOL    HW118754   2.925   3.892   1.290 -0.4260 -0.3967 -1.9870
 2905SOL    HW218755   3.055   3.990   1.272  0.7020 -1.1474  1.5806
 2906SOL     OW18756   9.509   0.487   1.732  0.0939 -0.4453 -0.2878
 2906SOL    HW118757   9.448   0.502   1.654  0.3413 -0.1076 -0.4188
 2906SOL    HW218758   9.488   0.553   1.804  0.2618 -0.3691 -0.3079
 2907SOL     OW18759   0.787   5.833   2.190 -0.3327 -0.1059 -0.2293
 2907SOL    HW118760   0.705   5.843   2.133  0.0397  3.9264 -0.1875
 2907SOL    HW218761   0.857   5.898   2.159  1.6282 -1.1244  1.9151
 2908SOL     OW18762   1.524   9.273   1.651 -0.1770 -0.2442  0.2021
 2908SOL    HW118763   1.521   9.193   1.710 -0.6240  0.9042  1.7731
 2908SOL    HW218764   1.432   9.292   1.616 -0.2619  0.1782  0.6524
 2909SOL     OW18765   3.097   8.137   1.696  0.9027  0.5375  0.4898
 2909SOL    HW118766   3.093   8.037   1.696  0.3911  0.5549 -0.0031
 2909SOL    HW218767   3.174   8.167   1.641  0.4532  0.4295 -0.2092
 2910SOL     OW18768   1.578   4.203   2.491  0.8328 -0.4609 -0.0741
 2910SOL    HW118769   1.540   4.236   2.404  0.9754  0.6540  0.2727
 2910SOL    HW218770   1.664   4.250   2.509 -0.1360  0.7183  1.5873
 2911SOL     OW18771   4.902   3.385   2.273  0.1996  0.0605 -0.1437
 2911SOL    HW118772   4.833   3.313   2.284 -1.3355  1.8395  2.3777
 2911SOL    HW218773   4.858   3.475   2.280  2.8637  1.2440  2.6597
 2912SOL     OW18774   0.460   3.317   2.482  0.3772  0.1692 -0.1377
 2912SOL    HW118775   0.532   3.316   2.413  0.1547  0.1559 -0.3722
 2912SOL    HW218776   0.477   3.245   2.549 -0.4559 -1.1365 -1.2742
 2913SOL     OW18777   1.706   6.833   1.267  0.2911  0.4212 -0.3519
 2913SOL    HW118778   1.621   6.779   1.267  0.7871 -0.3759  1.4888
 2913SOL    HW218779   1.783   6.774   1.245  0.5508  0.8679 -0.6511
 2914SOL     OW18780   2.480   7.209   0.162 -0.3942 -0.1247  0.1102
 2914SOL    HW118781   2.563   7.259   0.137 -1.1947  0.3225 -1.7538
 2914SOL    HW218782   2.409   7.225   0.094 -1.9962 -0.6057  1.6144
 2915SOL     OW18783   9.462   0.764   2.360 -0.0079 -0.3877  0.6514
 2915SOL    HW118784   9.517   0.718   2.291  1.3987 -0.0205  1.4990
 2915SOL    HW218785   9.414   0.842   2.320  1.0846  0.0404  0.1695
 2916SOL     OW18786   3.295   2.559   1.460 -0.2675 -0.4207 -0.4158
 2916SOL    HW118787   3.359   2.601   1.396 -0.0205 -1.1878 -0.6847
 2916SOL    HW218788   3.286   2.616   1.542  0.2827 -0.0000 -0.6495
 2917SOL     OW18789   1.113   8.632   2.386  0.4916  0.1913  0.2178
 2917SOL    HW118790   1.166   8.560   2.431  1.4617  0.3158 -0.7164
 2917SOL    HW218791   1.131   8.631   2.288 -0.5083  0.8572  0.0188
 2918SOL     OW18792   0.979   5.362   1.438  0.3509 -0.6614  0.0145
 2918SOL    HW118793   1.027   5.276   1.417 -0.1462 -1.1778  0.9417
 2918SOL    HW218794   0.990   5.383   1.535 -0.6326 -0.3628  0.0632
 2919SOL     OW18795   3.149   9.840   2.262 -0.7016  0.3869 -0.4613
 2919SOL    HW118796   3.059   9.857   2.302 -1.0778 -1.8277 -0.2906
 2919SOL    HW218797   3.218   9.839   2.335 -0.6635  1.1485 -0.4800
 2920SOL     OW18798   1.539   2.099   1.019  0.0504  0.6857 -0.4810
 2920SOL    HW118799   1.463   2.054   0.972 -0.6843  1.0114  0.3732
 2920SOL    HW218800   1.616   2.035   1.027 -0.6465 -0.1133 -0.1072
 2921SOL     OW18801   0.757   6.332   0.017  0.1829  0.0700 -0.4356
 2921SOL    HW118802   0.713   6.361  -0.068 -0.4354  0.7194  0.0936
 2921SOL    HW218803   0.793   6.412   0.065  0.3675 -0.2736  0.0062
 2922SOL     OW18804   1.126   7.891   1.693 -0.4447  0.5345  0.1300
 2922SOL    HW118805   1.198   7.847   1.639  1.1514  0.3085  2.4068
 2922SOL    HW218806   1.047   7.909   1.634  1.4519  0.7884 -2.4141
 2923SOL     OW18807   9.708   5.251   1.489 -0.3257 -0.0412  0.0548
 2923SOL    HW118808   9.717   5.157   1.455 -0.3883 -0.2522  0.6139
 2923SOL    HW218809   9.795   5.281   1.528 -0.1387  0.3455 -0.6445
 2924SOL     OW18810   3.706   0.349   0.551 -0.2428 -0.3149  0.2354
 2924SOL    HW118811   3.698   0.411   0.628  1.4230  0.6564 -0.3434
 2924SOL    HW218812   3.776   0.382   0.488 -0.3783 -1.9853 -0.8492
 2925SOL     OW18813   2.583   6.491   1.631  0.2816  0.3558 -0.2239
 2925SOL    HW118814   2.599   6.412   1.689  0.9163  0.7869  0.1988
 2925SOL    HW218815   2.487   6.520   1.638  0.6455  1.1472  1.5484
 2926SOL     OW18816   0.882   4.398   2.292  0.6369 -0.0170 -0.2666
 2926SOL    HW118817   0.883   4.456   2.210  0.1194 -1.1724 -1.1163
 2926SOL    HW218818   0.930   4.444   2.366  0.3668  1.4324 -0.9646
 2927SOL     OW18819   2.907   0.915   1.503  0.1673  0.0681 -0.0820
 2927SOL    HW118820   2.840   0.966   1.556  0.1738  1.0988 -1.0324
 2927SOL    HW218821   2.871   0.825   1.479  0.7135 -0.9701  2.8492
 2928SOL     OW18822   3.119   3.263   0.014  0.0252 -0.0609  0.2908
 2928SOL    HW118823   3.203   3.263  -0.041  1.0443  1.4793  1.7912
 2928SOL    HW218824   3.066   3.181  -0.007 -0.5633  1.3486 -4.3549
 2929SOL     OW18825   2.337   3.378   2.236  0.0925 -0.2331  0.6330
 2929SOL    HW118826   2.300   3.351   2.325 -0.1064 -2.7657 -0.1785
 2929SOL    HW218827   2.268   3.431   2.186 -0.4852 -0.3842  1.2655
 2930SOL     OW18828  -0.004   1.347   2.200 -0.3898  0.1124 -0.3938
 2930SOL    HW118829  -0.018   1.434   2.153 -0.0872  0.2538 -0.2266
 2930SOL    HW218830   0.077   1.302   2.162  0.4379  0.6857  0.6550
 2931SOL     OW18831   9.201   1.751   1.163  0.0500 -0.2448  0.0429
 2931SOL    HW118832   9.130   1.681   1.172  0.5522 -0.7037  0.5252
 2931SOL    HW218833   9.174   1.833   1.214 -0.1379 -0.4117  0.2124
 2932SOL     OW18834   0.857   4.674   1.511  1.1245 -0.1092  0.7032
 2932SOL    HW118835   0.883   4.755   1.563 -3.6458  1.8124  0.3409
 2932SOL    HW218836   0.808   4.610   1.571  1.7075 -1.0693  0.1595
 2933SOL     OW18837   1.344   8.807   0.530  0.1375 -0.1045 -0.2483
 2933SOL    HW118838   1.322   8.747   0.607 -2.3459  0.1385 -0.6994
 2933SOL    HW218839   1.325   8.758   0.444 -2.7631  1.5193 -0.6201
 2934SOL     OW18840   9.258   1.884   0.210 -0.0483 -0.0501 -0.3915
 2934SOL    HW118841   9.337   1.946   0.212 -0.7331  0.8100  1.1143
 2934SOL    HW218842   9.196   1.907   0.285 -1.3497 -1.2270 -1.0835
 2935SOL     OW18843   2.406   9.558   2.317 -0.6881 -0.2677  0.0661
 2935SOL    HW118844   2.387   9.654   2.338 -0.4384 -0.3227  0.5633
 2935SOL    HW218845   2.476   9.553   2.246  0.6280 -0.0772  1.3169
 2936SOL     OW18846   0.028   2.136   0.256  0.2299  0.5918  0.1608
 2936SOL    HW118847   0.094   2.187   0.313  1.3553  0.4510 -1.0045
 2936SOL    HW218848   0.068   2.117   0.167 -2.0374  2.0527 -1.2230
 2937SOL     OW18849   0.277   5.633   1.216 -0.4434  0.1325 -0.5810
 2937SOL    HW118850   0.287   5.545   1.263 -2.1690  0.3480  0.2454
 2937SOL    HW218851   0.271   5.706   1.284  0.9783  0.8989 -1.2637
 2938SOL     OW18852   9.904   3.278   1.455 -0.6618  0.4892 -0.0771
 2938SOL    HW118853   9.937   3.190   1.418 -0.8505  0.2485  0.3322
 2938SOL    HW218854   9.885   3.340   1.379  1.2314  0.8118 -0.3211
 2939SOL     OW18855   4.244   4.258   0.609 -0.1677  0.4328 -0.0402
 2939SOL    HW118856   4.316   4.243   0.677  1.5816 -1.5496 -2.2914
 2939SOL    HW218857   4.166   4.200   0.631  1.3742 -2.1032 -1.1002
 2940SOL     OW18858   3.802   3.595   1.616 -0.2183 -0.2597 -0.1955
 2940SOL    HW118859   3.801   3.497   1.636  0.8767 -0.7686 -2.4721
 2940SOL    HW218860   3.746   3.612   1.534  1.2560  0.7294 -1.0077
 2941SOL     OW18861   2.465   0.132   1.423 -0.0824  0.0426 -0.2046
 2941SOL    HW118862   2.504   0.091   1.341  0.3956  0.9586 -0.4401
 2941SOL    HW218863   2.476   0.069   1.500  0.9819 -0.1240 -0.4826
 2942SOL     OW18864   0.260   4.702   0.542 -0.3317 -0.1005 -0.4517
 2942SOL    HW118865   0.352   4.742   0.545  0.0855 -1.1149  0.6093
 2942SOL    HW218866   0.196   4.771   0.509  0.4379  1.3549  0.9814
 2943SOL     OW18867   1.181   8.240   0.121 -0.0066 -0.1446 -0.4790
 2943SOL    HW118868   1.163   8.142   0.110 -1.1448  0.1947 -1.7939
 2943SOL    HW218869   1.111   8.280   0.181  0.6481 -0.1925  0.3220
 2944SOL     OW18870   2.089   3.733   0.424  0.2011 -0.3618 -1.2411
 2944SOL    HW118871   2.007   3.757   0.372  1.1912  0.1031 -2.6122
 2944SOL    HW218872   2.153   3.683   0.365  1.5078  0.5088 -0.5970
 2945SOL     OW18873   9.188   0.753   0.392  0.5006  0.3764  0.2210
 2945SOL    HW118874   9.150   0.670   0.352  0.0531  0.5630  0.2547
 2945SOL    HW218875   9.249   0.729   0.467  0.2147  0.0854  0.3603
 2946SOL     OW18876   3.231   8.441   2.226  0.3098  0.0133  0.7191
 2946SOL    HW118877   3.291   8.431   2.146 -0.7264  1.0959 -0.2029
 2946SOL    HW218878   3.144   8.396   2.208  0.4129 -0.5681  1.6192
 2947SOL     OW18879   0.409   6.648   2.142  1.0662 -0.1359 -0.4446
 2947SOL    HW118880   0.454   6.694   2.065  0.2118 -0.1807 -0.9707
 2947SOL    HW218881   0.310   6.654   2.132  0.9355  0.8092  1.2193
 2948SOL     OW18882   1.216   2.762   1.062  0.2013  0.0309  0.2817
 2948SOL    HW118883   1.203   2.724   0.971 -0.0846  0.2585  0.2257
 2948SOL    HW218884   1.314   2.775   1.080  0.3806 -1.8979  0.7827
 2949SOL     OW18885   9.732   4.102   0.416  0.2628  0.1271  0.1886
 2949SOL    HW118886   9.678   4.028   0.377  1.4223 -0.3194 -0.5911
 2949SOL    HW218887   9.818   4.111   0.367  1.4435  0.0260  2.1717
 2950SOL     OW18888   3.144   2.301   0.625 -0.8209 -0.1562 -0.2675
 2950SOL    HW118889   3.085   2.269   0.699  0.6605 -1.3821  0.4211
 2950SOL    HW218890   3.123   2.250   0.541 -2.1221  0.8449 -0.5606
 2951SOL     OW18891   9.545   4.420   0.064 -0.0257  0.1547 -0.4531
 2951SOL    HW118892   9.459   4.464   0.037 -0.8531 -1.2337 -0.1791
 2951SOL    HW218893   9.587   4.378  -0.017  0.1273  0.3821 -0.4916
 2952SOL     OW18894   2.617   6.479   1.352 -0.4724 -0.2621  0.1868
 2952SOL    HW118895   2.711   6.489   1.317 -0.9005  0.0550 -0.8854
 2952SOL    HW218896   2.618   6.487   1.452  1.1049 -3.6538  0.4987
 2953SOL     OW18897   9.456   4.172   2.297  0.1311  0.2307 -0.1712
 2953SOL    HW118898   9.368   4.138   2.331  0.0299 -0.7411 -1.3583
 2953SOL    HW218899   9.493   4.106   2.231  1.4379  0.9547 -0.1626
 2954SOL     OW18900   1.635   3.497   1.842  0.2297 -0.7641 -0.1386
 2954SOL    HW118901   1.643   3.481   1.743  1.0922 -0.6084 -0.1014
 2954SOL    HW218902   1.712   3.554   1.872 -1.8276  2.0448  0.0207
 2955SOL     OW18903   2.270   9.016   1.134  0.1684  0.1656  0.1517
 2955SOL    HW118904   2.327   8.954   1.080  2.0984  1.5871  0.5107
 2955SOL    HW218905   2.284   9.110   1.103 -0.1904  0.7899  1.8233
 2956SOL     OW18906   0.855   6.153   1.419 -0.2907  0.1110  0.6715
 2956SOL    HW118907   0.858   6.176   1.516 -1.7234 -0.8738  0.9701
 2956SOL    HW218908   0.760   6.138   1.390  0.3362 -2.9782 -0.0292
 2957SOL     OW18909   3.585   9.734   0.587  0.1477  0.3390 -0.6226
 2957SOL    HW118910   3.516   9.665   0.609 -1.0075  1.8003  0.3723
 2957SOL    HW218911   3.565   9.776   0.499  0.2895  0.1302 -0.7570
 2958SOL     OW18912   8.094   2.074   1.834 -0.0246  0.2525 -0.2509
 2958SOL    HW118913   8.097   2.092   1.736 -0.4423  2.2659  0.0875
 2958SOL    HW218914   8.009   2.111   1.872 -0.0520 -0.8679  0.8125
 2959SOL     OW18915   3.181   0.882   1.523 -0.3230 -0.6830 -0.2704
 2959SOL    HW118916   3.215   0.920   1.437  0.6987 -0.6038  0.1625
 2959SOL    HW218917   3.081   0.894   1.527 -0.6710 -2.5717 -2.3548
 2960SOL     OW18918   0.431   8.891   0.204  0.1038 -0.3926 -0.2783
 2960SOL    HW118919   0.338   8.928   0.193  0.4551  1.1485  1.7402
 2960SOL    HW218920   0.431   8.819   0.273  0.6599  0.6424  0.8164
 2961SOL     OW18921   0.106   5.710   0.393 -0.2237 -0.1160 -0.1371
 2961SOL    HW118922   0.122   5.768   0.473  0.2096 -0.7851  0.2684
 2961SOL    HW218923   0.056   5.628   0.421 -0.5546 -0.0931 -0.6515
 2962SOL     OW18924   9.068   5.030   0.533  0.2980 -0.2174 -0.2251
 2962SOL    HW118925   8.988   4.996   0.583 -0.3592 -0.3862 -1.3689
 2962SOL    HW218926   9.151   4.992   0.572 -0.2314 -0.5736  0.5522
 2963SOL     OW18927   0.757   6.537   0.208 -0.0522 -0.7317  0.7413
 2963SOL    HW118928   0.793   6.609   0.267 -1.1946  0.0461  0.5145
 2963SOL    HW218929   0.661   6.556   0.187  0.2267 -1.1984 -1.0421
 2964SOL     OW18930   4.455   3.291   1.420 -0.2082 -0.1084 -0.8900
 2964SOL    HW118931   4.547   3.256   1.433  0.5589  2.2128  0.2537
 2964SOL    HW218932   4.439   3.307   1.322  2.2762  3.6413 -0.7888
 2965SOL     OW18933   2.003   8.831   0.615  0.2840  0.0050  0.0984
 2965SOL    HW118934   2.040   8.738   0.608  2.0012  0.7358 -0.7856
 2965SOL    HW218935   2.045   8.878   0.693  0.5482  0.5357 -0.3609
 2966SOL     OW18936   9.656   0.644   2.556 -0.3846  0.0004  0.1794
 2966SOL    HW118937   9.590   0.646   2.482 -0.9968 -1.1814  0.6795
 2966SOL    HW218938   9.675   0.738   2.587 -2.5186  0.2931  0.6471
 2967SOL     OW18939   9.606   6.066   1.792 -0.1156  0.0687  0.3766
 2967SOL    HW118940   9.659   5.999   1.845  2.2461  1.5888  0.0091
 2967SOL    HW218941   9.607   6.154   1.839 -0.7920  0.5787 -0.5462
 2968SOL     OW18942   1.216   8.212   2.311 -0.9610  0.4181 -0.3953
 2968SOL    HW118943   1.131   8.159   2.302 -0.8339 -0.3236  2.2868
 2968SOL    HW218944   1.283   8.159   2.363  1.1888  0.9929 -2.5036
 2969SOL     OW18945   0.312   6.403   1.375  0.5131 -0.4538 -0.1342
 2969SOL    HW118946   0.217   6.424   1.398  0.8065  0.0115  0.6606
 2969SOL    HW218947   0.347   6.472   1.312 -0.3334 -1.8052 -2.1175
 2970SOL     OW18948   0.385   4.442   1.943 -0.3202 -0.2093 -0.1545
 2970SOL    HW118949   0.456   4.456   2.011 -0.7159 -1.7127  0.6148
 2970SOL    HW218950   0.295   4.455   1.986 -0.5771 -1.3538 -0.3176
 2971SOL     OW18951   9.471   2.955   0.859  0.6584 -0.1312  0.4340
 2971SOL    HW118952   9.414   2.874   0.869  0.3515  0.0158 -0.0873
 2971SOL    HW218953   9.502   2.963   0.764 -2.3498  2.3403 -0.4496
 2972SOL     OW18954   1.427   1.233   0.386 -0.4405 -0.5194  0.1968
 2972SOL    HW118955   1.331   1.203   0.384 -0.1275 -1.5136 -0.1333
 2972SOL    HW218956   1.441   1.295   0.464 -2.1962  2.5172 -1.7856
 2973SOL     OW18957   3.955   3.937   2.147 -0.5317 -0.7541  0.2054
 2973SOL    HW118958   4.021   3.907   2.079 -0.7836 -0.6478 -0.0892
 2973SOL    HW218959   3.937   4.035   2.136 -0.2431 -0.6431  0.7076
 2974SOL     OW18960   3.764   1.377   0.262  0.5009  0.6424 -0.3330
 2974SOL    HW118961   3.768   1.433   0.179 -0.0990 -0.0699 -0.8480
 2974SOL    HW218962   3.670   1.348   0.279  0.8131 -0.2555 -0.1059
 2975SOL     OW18963   2.882   1.719   0.150  0.3556  0.6206  0.6568
 2975SOL    HW118964   2.856   1.633   0.104  0.0615  0.6791  0.7119
 2975SOL    HW218965   2.817   1.791   0.125  0.9446  0.9736  0.1504
 2976SOL     OW18966   1.163   3.262   0.915 -0.6616  0.1013  0.0589
 2976SOL    HW118967   1.238   3.239   0.853 -1.0095  1.1754 -0.7640
 2976SOL    HW218968   1.140   3.181   0.969  1.2310 -0.1907  0.4862
 2977SOL     OW18969   2.387   3.002   1.901  0.0026  0.3245  0.1658
 2977SOL    HW118970   2.341   2.913   1.899  0.5799 -0.0331  2.0997
 2977SOL    HW218971   2.485   2.987   1.914  0.1733  1.2281 -0.1096
 2978SOL     OW18972   2.459   3.769   1.212 -0.2852 -0.4233 -0.0220
 2978SOL    HW118973   2.543   3.820   1.190  1.1162 -2.5180  0.2706
 2978SOL    HW218974   2.434   3.787   1.307 -1.2969  1.7182 -0.6643
 2979SOL     OW18975   2.719   2.942   0.587  0.4010 -0.5061 -0.0529
 2979SOL    HW118976   2.792   2.998   0.628  0.2047 -1.1489  1.2215
 2979SOL    HW218977   2.631   2.974   0.621  0.3254 -1.9200  1.0910
 2980SOL     OW18978   2.779   3.735   1.393  0.1170 -0.3294  0.3133
 2980SOL    HW118979   2.698   3.715   1.448 -0.1045 -0.0604  0.0828
 2980SOL    HW218980   2.776   3.683   1.308 -0.3968  0.5736 -0.2307
 2981SOL     OW18981   4.508   3.665   0.673 -0.0802  0.0048 -0.0051
 2981SOL    HW118982   4.531   3.713   0.588  0.5935  0.9429  0.6945
 2981SOL    HW218983   4.581   3.600   0.694 -0.1331 -0.0584 -0.0155
 2982SOL     OW18984   2.664   8.962   2.326  0.2696  0.0276 -0.0780
 2982SOL    HW118985   2.695   8.965   2.231  1.0057  0.4779  0.1706
 2982SOL    HW218986   2.741   8.941   2.385  0.1186  1.2109  0.5591
 2983SOL     OW18987   2.006   4.704   2.542  0.4352 -0.4775  0.1466
 2983SOL    HW118988   1.920   4.746   2.514  0.8107 -0.2733 -0.7140
 2983SOL    HW218989   2.073   4.774   2.564  0.0512 -0.6407  1.8629
 2984SOL     OW18990   3.659   0.453   1.049 -0.5292 -0.6736 -0.5517
 2984SOL    HW118991   3.693   0.378   1.105  1.0704 -1.3539 -2.4092
 2984SOL    HW218992   3.702   0.450   0.958 -0.6739  2.2677 -0.7705
 2985SOL     OW18993   2.423   5.378   1.905  0.1914  0.0207 -0.3504
 2985SOL    HW118994   2.429   5.453   1.971 -1.1567 -1.1089  1.0958
 2985SOL    HW218995   2.465   5.406   1.819  3.1358  1.1056  1.3387
 2986SOL     OW18996   1.894   7.709   0.989  0.0961  0.0556 -0.1099
 2986SOL    HW118997   1.974   7.759   1.021  0.7215 -1.1015  0.1780
 2986SOL    HW218998   1.892   7.619   1.032 -1.0323 -0.1452 -0.5765
 2987SOL     OW18999   1.099   6.162   0.787  0.0386  1.0929 -0.3710
 2987SOL    HW119000   1.057   6.075   0.811  0.0928  0.8583 -1.1438
 2987SOL    HW219001   1.159   6.192   0.862  0.0736  0.4377 -0.1382
 2988SOL     OW19002   2.472   2.548   2.185 -0.1205 -0.2881 -0.0963
 2988SOL    HW119003   2.507   2.641   2.176  1.1576 -0.8498 -0.9550
 2988SOL    HW219004   2.502   2.492   2.108 -1.1639 -1.3360  0.2302
 2989SOL     OW19005   0.649   1.814   1.406  0.0904  0.3365 -0.0336
 2989SOL    HW119006   0.574   1.860   1.454  0.3485  0.9401 -0.2012
 2989SOL    HW219007   0.737   1.844   1.445  0.2687  0.1663 -0.3031
 2990SOL     OW19008   2.485   6.915   2.490  0.3968  0.0539 -0.4277
 2990SOL    HW119009   2.486   6.895   2.588  0.2619 -1.2291 -0.6785
 2990SOL    HW219010   2.432   6.845   2.443  2.5584 -0.7826 -1.7162
 2991SOL     OW19011   4.256   4.160   1.069  0.0678  0.2110 -0.5004
 2991SOL    HW119012   4.241   4.231   1.138  2.5010  0.6456 -0.3631
 2991SOL    HW219013   4.287   4.076   1.113 -3.4209 -1.2006 -0.6003
 2992SOL     OW19014   2.194   8.567   2.353  0.1870 -0.4007 -0.1006
 2992SOL    HW119015   2.223   8.587   2.447 -1.7271  1.1804  0.1889
 2992SOL    HW219016   2.245   8.626   2.290  1.8919 -1.8725 -0.1229
 2993SOL     OW19017   0.920   8.609   2.578 -0.0654  0.7827 -0.4038
 2993SOL    HW119018   0.883   8.700   2.599 -0.5137  0.7255 -0.9269
 2993SOL    HW219019   0.975   8.615   2.495  0.6995  0.7697  0.1028
 2994SOL     OW19020   3.743   3.217   2.346 -0.2561  0.4764  0.5475
 2994SOL    HW119021   3.694   3.303   2.364 -0.3074  0.1828  1.8645
 2994SOL    HW219022   3.713   3.179   2.259 -2.0958  0.5083  1.1458
 2995SOL     OW19023   9.808   5.142   0.744  0.1421 -0.1074  0.2884
 2995SOL    HW119024   9.908   5.136   0.742  0.1932  0.9314 -0.8865
 2995SOL    HW219025   9.781   5.231   0.780 -0.2649  1.5703 -3.8760
 2996SOL     OW19026   1.687   3.956   1.549 -0.0932 -0.2547 -0.0509
 2996SOL    HW119027   1.750   3.882   1.571 -0.6204 -0.4490  0.8403
 2996SOL    HW219028   1.681   3.966   1.450  1.0668 -0.4597 -0.1542
 2997SOL     OW19029   2.014   6.605   2.457  0.5029 -0.1925 -0.2103
 2997SOL    HW119030   2.041   6.641   2.368  1.9009 -0.9318 -0.0984
 2997SOL    HW219031   1.997   6.506   2.450  0.7844 -0.2879  0.3699
 2998SOL     OW19032   8.772   5.281   0.466  0.0500 -0.4145  0.0679
 2998SOL    HW119033   8.772   5.216   0.391 -0.5615 -0.3811  0.0353
 2998SOL    HW219034   8.820   5.242   0.544  0.2041 -0.6703 -0.1548
 2999SOL     OW19035   1.384   9.183   0.360  0.2180  0.0743  0.3411
 2999SOL    HW119036   1.327   9.128   0.421  0.8598 -0.8338  0.1298
 2999SOL    HW219037   1.429   9.124   0.294  1.1152  0.8188  0.2765
 3000SOL     OW19038   2.156   1.930   1.118  0.3653  0.3269 -0.2709
 3000SOL    HW119039   2.060   1.956   1.131  0.7393  0.8217  1.5691
 3000SOL    HW219040   2.211   1.965   1.194  1.8850 -0.6137 -0.9192
 3001SOL     OW19041   4.467   4.037   0.766  0.3534  0.8513 -0.1740
 3001SOL    HW119042   4.482   4.027   0.668  0.9131  4.5652 -0.5328
 3001SOL    HW219043   4.485   4.132   0.793 -1.0830  0.1992  3.2975
 3002SOL     OW19044   0.386   5.043   2.282  0.2295 -0.3842 -0.2691
 3002SOL    HW119045   0.465   5.073   2.335 -0.0720 -0.3094  0.1420
 3002SOL    HW219046   0.383   5.093   2.195  0.3231  0.0129 -0.0447
 3003SOL     OW19047   8.910   2.288   1.285 -0.1896  0.3563  0.0399
 3003SOL    HW119048   8.847   2.287   1.364 -2.1722 -0.5602 -1.4964
 3003SOL    HW219049   9.003   2.303   1.317 -0.9966  0.3127  2.5413
 3004SOL     OW19050   0.159   0.590   1.461 -0.0100  0.7495  0.1748
 3004SOL    HW119051   0.197   0.673   1.419  0.4307 -0.1075 -1.1236
 3004SOL    HW219052   0.062   0.604   1.480  0.4357  2.2022  1.6078
 3005SOL     OW19053   9.800   6.865   0.113 -0.3566 -0.3136 -0.1432
 3005SOL    HW119054   9.813   6.843   0.016  0.0296 -3.7378  0.5943
 3005SOL    HW219055   9.889   6.878   0.156 -0.4010 -1.3842  0.2780
 3006SOL     OW19056   3.783   9.805   1.039  0.0400  0.5077 -0.1535
 3006SOL    HW119057   3.684   9.803   1.053  0.0548 -0.3064 -0.1232
 3006SOL    HW219058   3.805   9.771   0.947  0.3455 -0.2900  0.2040
 3007SOL     OW19059   9.256   2.631   0.749  0.0787  0.1133  0.4293
 3007SOL    HW119060   9.323   2.558   0.745  0.9394  0.9413 -0.9805
 3007SOL    HW219061   9.242   2.660   0.843 -0.8847 -2.3980  1.0902
 3008SOL     OW19062   3.427   8.037   1.630 -0.1136  0.2152  0.2543
 3008SOL    HW119063   3.496   8.028   1.702 -1.0753 -0.4204  1.1160
 3008SOL    HW219064   3.352   7.973   1.648 -0.4006  0.1121 -1.2784
 3009SOL     OW19065   2.620   9.237   0.459  0.4524  0.0492  0.2917
 3009SOL    HW119066   2.700   9.296   0.466  1.3336 -1.2642  1.5610
 3009SOL    HW219067   2.592   9.207   0.550 -1.4180  0.3868 -0.1397
 3010SOL     OW19068   0.246   1.256   1.065 -0.0401 -0.4877  0.0907
 3010SOL    HW119069   0.256   1.252   0.966 -1.4360  1.3504 -0.1471
 3010SOL    HW219070   0.292   1.338   1.100  1.7699 -1.9148  1.1680
 3011SOL     OW19071   0.847   2.097   1.100  0.1499 -0.2913 -0.4786
 3011SOL    HW119072   0.902   2.119   1.019  1.1333  0.4904  0.3990
 3011SOL    HW219073   0.769   2.159   1.105  0.0892 -0.3362 -0.8135
 3012SOL     OW19074   3.921   1.386   2.017  0.0066  0.1285  0.5055
 3012SOL    HW119075   3.970   1.378   2.104 -0.9592 -0.8870  0.9729
 3012SOL    HW219076   3.878   1.476   2.011 -2.0419 -0.7132  2.2279
 3013SOL     OW19077   1.768   5.639  -0.001 -0.2298 -0.4124 -0.2958
 3013SOL    HW119078   1.831   5.588   0.058  2.0971  0.9949 -1.4879
 3013SOL    HW219079   1.712   5.700   0.055  1.2131  0.1490  0.5516
 3014SOL     OW19080   1.986   7.981   2.267  0.4720 -0.1248 -0.5808
 3014SOL    HW119081   1.981   7.961   2.169 -1.0712  1.3993 -0.8226
 3014SOL    HW219082   2.082   7.982   2.296  0.8267 -2.7800 -1.5979
 3015SOL     OW19083   9.504   6.384   0.260  0.2849  0.3009 -1.0512
 3015SOL    HW119084   9.426   6.341   0.213  2.0861 -0.7314 -3.1938
 3015SOL    HW219085   9.557   6.314   0.307  0.4305  0.8662 -0.3768
 3016SOL     OW19086   2.304   6.149   1.402 -0.2367 -0.1604 -0.0051
 3016SOL    HW119087   2.253   6.067   1.376 -0.9327  0.0854  0.5741
 3016SOL    HW219088   2.310   6.210   1.323 -1.7418  0.2761  0.1930
 3017SOL     OW19089   9.304   0.844   1.118 -1.0087 -0.3060  0.6182
 3017SOL    HW119090   9.372   0.871   1.050 -0.7377 -0.2806  0.8975
 3017SOL    HW219091   9.240   0.918   1.133 -0.3927  0.1143  1.2253
 3018SOL     OW19092   9.482   2.965   1.696 -0.4010  0.2080  0.9746
 3018SOL    HW119093   9.409   2.985   1.761 -0.2967  0.4007  1.0335
 3018SOL    HW219094   9.463   2.878   1.650 -0.8872  0.4717  0.6723
 3019SOL     OW19095   3.222   8.061   2.440  0.3113 -0.0808  0.1396
 3019SOL    HW119096   3.310   8.020   2.416  0.5385  0.4709  0.0382
 3019SOL    HW219097   3.166   8.071   2.358  0.6663  0.7906 -0.0027
 3020SOL     OW19098   1.787   3.277   1.041  0.1394  1.0636 -0.0169
 3020SOL    HW119099   1.747   3.329   1.116  3.2152  1.3638  1.5293
 3020SOL    HW219100   1.858   3.331   0.997  1.8720 -0.9608  0.1812
 3021SOL     OW19101   3.254   2.222   2.007  0.1673 -0.1680  0.1834
 3021SOL    HW119102   3.209   2.146   1.959  0.0603  1.3294 -2.1353
 3021SOL    HW219103   3.347   2.195   2.032 -0.1477 -1.3479  0.1249
 3022SOL     OW19104   9.094   2.279   0.198 -0.3328  0.2508  0.0935
 3022SOL    HW119105   9.025   2.324   0.142 -0.5803  1.8715  1.6635
 3022SOL    HW219106   9.057   2.261   0.289  1.3054  1.2525  0.9972
 3023SOL     OW19107   2.945   0.446   1.134 -0.0008 -0.4786  1.0975
 3023SOL    HW119108   3.013   0.501   1.182 -0.4165 -0.1973  1.3660
 3023SOL    HW219109   2.946   0.470   1.037  0.3438 -0.5396  1.0834
 3024SOL     OW19110   2.974   8.651   0.875  0.2821 -0.8232 -0.3790
 3024SOL    HW119111   3.013   8.573   0.827  0.2306  0.3756 -2.4195
 3024SOL    HW219112   2.877   8.658   0.854  0.1690 -0.5199  0.2351
 3025SOL     OW19113   4.639   2.800   2.119 -0.4490  0.2780  0.1371
 3025SOL    HW119114   4.543   2.809   2.146 -0.6255  1.1509 -0.7641
 3025SOL    HW219115   4.654   2.847   2.032  0.4551 -1.2060 -0.5245
 3026SOL     OW19116   8.740   2.807   0.666 -0.1307  0.0899  0.0301
 3026SOL    HW119117   8.816   2.849   0.717  0.1578 -0.8069  0.3582
 3026SOL    HW219118   8.726   2.856   0.581  0.9020  0.2059 -0.0875
 3027SOL     OW19119   9.162   2.492   0.429  0.5724 -0.7218 -0.0208
 3027SOL    HW119120   9.081   2.473   0.374 -0.1077 -1.4887  1.2205
 3027SOL    HW219121   9.168   2.426   0.504  1.5623  0.1995  0.7359
 3028SOL     OW19122   9.058   5.612   1.474 -0.2499 -0.0932 -0.5646
 3028SOL    HW119123   9.154   5.636   1.491 -0.3490 -0.9248  1.2909
 3028SOL    HW219124   8.999   5.666   1.534 -0.7769 -1.4510  0.1497
 3029SOL     OW19125   9.262   2.536   2.456  0.6322 -0.0013  0.1124
 3029SOL    HW119126   9.203   2.613   2.479 -0.5641 -0.8513 -0.0605
 3029SOL    HW219127   9.342   2.536   2.516  1.0455  1.8228 -0.4122
 3030SOL     OW19128   2.248   7.574   2.148 -0.2251 -0.0158  0.6354
 3030SOL    HW119129   2.272   7.532   2.060 -0.8596 -0.9421  0.8952
 3030SOL    HW219130   2.160   7.619   2.140  0.2305  0.8544  0.4935
 3031SOL     OW19131   0.270   7.061   0.419 -0.3310 -0.4463  0.3068
 3031SOL    HW119132   0.185   7.009   0.417  0.1162 -1.1613 -0.2193
 3031SOL    HW219133   0.262   7.136   0.485 -1.2434 -0.7156  0.5026
 3032SOL     OW19134   4.667   3.447   0.725 -0.6270 -0.2321 -0.0831
 3032SOL    HW119135   4.746   3.484   0.676 -2.3105  0.9440 -1.9822
 3032SOL    HW219136   4.650   3.353   0.696 -1.5008  0.3969 -1.6553
 3033SOL     OW19137   9.239   5.845   0.718 -0.1791  0.0624 -0.1811
 3033SOL    HW119138   9.165   5.785   0.686  0.1459  0.3423 -1.4719
 3033SOL    HW219139   9.281   5.891   0.640 -1.2355  2.9592  0.8645
 3034SOL     OW19140   0.365   5.658   0.764  0.2392  0.2963 -0.4690
 3034SOL    HW119141   0.287   5.710   0.731  1.0077  3.2115  2.0719
 3034SOL    HW219142   0.429   5.643   0.688 -0.9245  1.3193 -1.6840
 3035SOL     OW19143   1.449   4.613   0.027 -0.7514 -0.4076  0.6507
 3035SOL    HW119144   1.509   4.544   0.069  1.1822 -0.4978 -2.1247
 3035SOL    HW219145   1.500   4.699   0.017 -1.1238 -0.4276 -1.5767
 3036SOL     OW19146   1.355   7.266   0.163 -0.2811  0.5709 -0.6421
 3036SOL    HW119147   1.271   7.309   0.197 -0.0166  1.0648 -0.6133
 3036SOL    HW219148   1.417   7.250   0.240 -0.2760  0.3664 -0.6886
 3037SOL     OW19149   2.980   8.334   2.183 -0.1229 -0.1196  0.3237
 3037SOL    HW119150   2.911   8.335   2.110  0.0959  1.2385  0.1209
 3037SOL    HW219151   3.034   8.250   2.177 -0.7700 -0.4834 -0.4555
 3038SOL     OW19152   0.424   3.790   0.458 -0.4883 -0.7847 -0.2035
 3038SOL    HW119153   0.359   3.823   0.390  0.8128  0.3287 -0.9199
 3038SOL    HW219154   0.491   3.861   0.478  0.6580 -2.0042  0.3440
 3039SOL     OW19155   3.322   8.928   2.128 -0.3610  0.0278 -0.1645
 3039SOL    HW119156   3.256   8.856   2.110 -0.7758  0.3918 -0.1049
 3039SOL    HW219157   3.290   8.986   2.202  0.8537 -0.8359  1.0543
 3040SOL     OW19158   1.286   9.090   1.058 -0.2054  0.2430 -0.1248
 3040SOL    HW119159   1.378   9.107   1.094 -0.1474 -0.0216 -0.1438
 3040SOL    HW219160   1.226   9.060   1.133 -0.0166 -0.5646 -0.2937
 3041SOL     OW19161   2.195   9.381   2.336  0.3789 -0.1450  0.2995
 3041SOL    HW119162   2.261   9.455   2.328 -0.3868  0.4109 -0.9644
 3041SOL    HW219163   2.233   9.297   2.298  1.0632 -0.2878  1.2913
 3042SOL     OW19164   2.763   2.891   1.222 -0.3182 -0.1846 -0.3989
 3042SOL    HW119165   2.721   2.968   1.173  0.9404  0.2786 -0.7613
 3042SOL    HW219166   2.855   2.875   1.187  0.0116 -0.8660  0.7500
 3043SOL     OW19167   3.992   1.928   2.564  0.4921 -0.1730  0.0353
 3043SOL    HW119168   3.941   1.949   2.648  1.3443  0.0367  0.5053
 3043SOL    HW219169   3.942   1.963   2.485 -0.9752 -1.4967  0.3357
 3044SOL     OW19170   2.472   9.138   0.254  0.2874 -0.8168  0.5503
 3044SOL    HW119171   2.545   9.175   0.310 -0.9510  1.4035  0.7828
 3044SOL    HW219172   2.468   9.188   0.167 -0.4128 -1.4501  0.2109
 3045SOL     OW19173   0.655   8.045   1.467  0.2516  0.2365 -0.1726
 3045SOL    HW119174   0.753   8.037   1.454  0.0728 -0.4943 -1.1196
 3045SOL    HW219175   0.609   8.039   1.378 -0.8510 -2.3766  0.5371
 3046SOL     OW19176   4.079   2.652   2.450 -0.6087 -0.7564 -0.1435
 3046SOL    HW119177   4.061   2.568   2.501  1.1061 -0.5455  0.8595
 3046SOL    HW219178   4.167   2.644   2.404  0.4092  1.1282  1.3805
 3047SOL     OW19179   1.051   9.114   0.310 -0.2085  0.0023 -0.2396
 3047SOL    HW119180   1.114   9.105   0.387 -1.9542  0.1834  1.2421
 3047SOL    HW219181   1.088   9.181   0.245  1.4886 -0.4719  0.2002
 3048SOL     OW19182   2.881   1.583   0.373  0.4110  0.4764 -0.2606
 3048SOL    HW119183   2.884   1.624   0.281 -0.3161 -0.9704 -0.9541
 3048SOL    HW219184   2.894   1.484   0.366  1.6118  0.5094  1.3366
 3049SOL     OW19185   2.814   1.521   1.222  0.5067  0.1343 -0.4688
 3049SOL    HW119186   2.805   1.421   1.227  0.9374  0.0606 -1.1783
 3049SOL    HW219187   2.725   1.562   1.203  0.1641 -0.0532  0.6588
 3050SOL     OW19188   1.893   6.332   1.273 -0.8008  0.0027 -0.5771
 3050SOL    HW119189   1.836   6.380   1.206 -0.2124  1.5312 -0.0032
 3050SOL    HW219190   1.894   6.384   1.358 -2.7158 -2.6622  1.1145
 3051SOL     OW19191   0.697   1.290   2.395  0.5544 -0.1378  0.8276
 3051SOL    HW119192   0.756   1.366   2.368  1.3952 -0.7755  0.8318
 3051SOL    HW219193   0.662   1.244   2.314 -0.6706  0.7805  0.8160
 3052SOL     OW19194   0.769   5.728   0.310  0.2061  0.1395  0.3677
 3052SOL    HW119195   0.817   5.815   0.313 -0.3489  0.5093 -0.9358
 3052SOL    HW219196   0.835   5.653   0.312  0.6712  0.5757  1.8035
 3053SOL     OW19197   1.722   3.428   0.598  0.1863 -0.1429  0.6885
 3053SOL    HW119198   1.819   3.429   0.576 -0.3043 -0.0833 -1.6731
 3053SOL    HW219199   1.683   3.518   0.581 -0.5141 -0.4988  0.3468
 3054SOL     OW19200   8.836   4.256   2.235  0.3621 -0.0068  0.3295
 3054SOL    HW119201   8.797   4.289   2.321  0.0947 -0.9776  0.5859
 3054SOL    HW219202   8.804   4.163   2.218 -0.0035  0.3703 -1.0895
 3055SOL     OW19203   1.629   1.790   1.365 -0.3476  0.3728 -0.3192
 3055SOL    HW119204   1.541   1.817   1.403 -1.2762 -2.3539 -0.3632
 3055SOL    HW219205   1.620   1.700   1.322  2.6979 -0.4402  0.6273
 3056SOL     OW19206   1.054   8.369   1.914 -0.4843  0.2504 -0.0760
 3056SOL    HW119207   1.004   8.289   1.882 -0.6008  0.6506 -0.8931
 3056SOL    HW219208   1.037   8.447   1.853 -0.7474  1.0295  0.9755
 3057SOL     OW19209   1.422   5.818   1.435 -0.5107  0.2880 -0.2092
 3057SOL    HW119210   1.325   5.826   1.461 -0.0803 -0.7848  1.8028
 3057SOL    HW219211   1.432   5.744   1.367 -0.8619 -0.8609  0.9747
 3058SOL     OW19212   1.885   3.804   1.647  0.1536 -0.3213 -0.3621
 3058SOL    HW119213   1.973   3.815   1.602  0.7193  0.7395  0.9798
 3058SOL    HW219214   1.882   3.715   1.692  0.3589 -0.5502 -0.7968
 3059SOL     OW19215   1.638   0.486   1.146  0.3890 -0.1306  0.4068
 3059SOL    HW119216   1.590   0.399   1.132  2.2724 -1.1416  0.0465
 3059SOL    HW219217   1.614   0.549   1.073 -0.3692 -0.6273  0.2188
 3060SOL     OW19218   9.260   4.797   1.576  0.4076  0.1442 -0.0150
 3060SOL    HW119219   9.262   4.782   1.675  2.6175 -0.5127 -0.1216
 3060SOL    HW219220   9.316   4.877   1.554 -0.8945  0.8858 -0.6483
 3061SOL     OW19221   2.939   1.130   1.951 -0.7283 -0.2693 -0.5728
 3061SOL    HW119222   2.892   1.045   1.978  0.1681 -0.3466  0.7927
 3061SOL    HW219223   3.012   1.108   1.886 -0.7143 -0.5075 -0.4784
 3062SOL     OW19224   2.866   8.075   1.499 -0.2839 -0.3619 -0.2543
 3062SOL    HW119225   2.811   8.159   1.493 -0.1493 -0.3128 -0.7867
 3062SOL    HW219226   2.948   8.084   1.442 -0.2545 -0.8499 -0.2912
 3063SOL     OW19227   0.839   7.662   1.239  0.4984 -0.1393  0.0422
 3063SOL    HW119228   0.860   7.757   1.217  1.4901 -0.0785  1.1772
 3063SOL    HW219229   0.892   7.601   1.180  0.7342  0.0147  0.0947
 3064SOL     OW19230   4.087   3.801   2.422  0.0669 -1.1317 -0.0189
 3064SOL    HW119231   4.060   3.854   2.341  0.1746 -0.1305  0.5852
 3064SOL    HW219232   4.069   3.704   2.406  0.2664 -0.9669 -1.3187
 3065SOL     OW19233   4.673   2.252   1.804  0.5540  0.1839 -0.4438
 3065SOL    HW119234   4.729   2.172   1.822  0.0222  0.0073  0.4658
 3065SOL    HW219235   4.688   2.283   1.710  0.5933 -1.1099 -0.8738
 3066SOL     OW19236   1.604   5.423   2.443  0.5796  0.1613 -0.0729
 3066SOL    HW119237   1.522   5.422   2.385  0.1765 -1.2880  0.4918
 3066SOL    HW219238   1.629   5.517   2.464 -0.6707  0.6317 -0.6449
 3067SOL     OW19239   1.205   2.010   0.405  0.1682  0.0039 -0.3913
 3067SOL    HW119240   1.242   2.086   0.351  1.5513 -1.0694 -0.9929
 3067SOL    HW219241   1.248   2.010   0.496  2.4361 -1.8262 -1.4268
 3068SOL     OW19242   0.056   2.638   0.264  0.2502  0.0093 -0.3577
 3068SOL    HW119243   0.001   2.558   0.242  0.5265 -0.5206  0.8162
 3068SOL    HW219244   0.149   2.625   0.231 -1.0048  2.2381 -5.1967
 3069SOL     OW19245   2.667   3.711   0.328 -0.0341  0.3466 -0.0424
 3069SOL    HW119246   2.623   3.667   0.249  0.0542 -0.6644  0.4604
 3069SOL    HW219247   2.738   3.651   0.364  0.8406  1.3866 -0.0137
 3070SOL     OW19248   2.187   4.823   0.497 -0.7911  0.4411 -0.2373
 3070SOL    HW119249   2.224   4.790   0.583 -0.2305 -1.4952 -1.1908
 3070SOL    HW219250   2.241   4.786   0.421 -0.8672  2.6161 -1.4178
 3071SOL     OW19251   8.441   1.470   1.978 -0.1428  0.0358  0.1662
 3071SOL    HW119252   8.524   1.493   2.028  0.0227  1.9420 -0.9250
 3071SOL    HW219253   8.406   1.552   1.931 -0.6704 -1.5049 -2.2391
 3072SOL     OW19254   3.021   3.682   1.558 -0.1151 -0.0321  0.3323
 3072SOL    HW119255   2.934   3.721   1.526  0.3002 -0.4665 -1.3752
 3072SOL    HW219256   3.015   3.583   1.556 -0.7636 -0.1071  3.5606
 3073SOL     OW19257   9.710   0.914   0.016  0.1705  0.4445  0.3512
 3073SOL    HW119258   9.651   0.985   0.054 -0.2151  1.3416 -1.8313
 3073SOL    HW219259   9.802   0.950   0.002  0.0073  0.4801 -0.6479
 3074SOL     OW19260   1.789   3.920   0.084 -0.3964 -0.2060 -0.5013
 3074SOL    HW119261   1.851   3.996   0.068  1.2470 -0.9901  1.7474
 3074SOL    HW219262   1.731   3.905   0.004 -0.5582  3.1882 -1.0910
 3075SOL     OW19263   3.550   2.821   1.112  0.0627  0.8708 -0.0321
 3075SOL    HW119264   3.636   2.830   1.062  0.6402 -3.1028  0.0834
 3075SOL    HW219265   3.486   2.765   1.059 -1.0597  0.6238  1.5402
 3076SOL     OW19266   1.595   8.634   0.237 -0.1679  0.0901 -0.1142
 3076SOL    HW119267   1.549   8.634   0.148 -1.7862  2.6933  0.6603
 3076SOL    HW219268   1.614   8.728   0.265  1.0584 -0.7318  1.9368
 3077SOL     OW19269   3.737   1.133   1.557 -0.3170  0.1808  0.0839
 3077SOL    HW119270   3.668   1.092   1.617 -0.3200  0.3054  0.1663
 3077SOL    HW219271   3.691   1.189   1.488 -0.2217  1.4711  1.0592
 3078SOL     OW19272   2.251   9.863   1.010  0.0521  0.6910  0.2213
 3078SOL    HW119273   2.212   9.953   0.990 -0.1779  1.1584  2.6602
 3078SOL    HW219274   2.186   9.792   0.982 -0.1061  1.2889 -0.9655
 3079SOL     OW19275   9.653   4.979   1.372 -0.5942 -0.5469  0.3435
 3079SOL    HW119276   9.739   4.933   1.395 -0.9152 -1.8884 -1.0979
 3079SOL    HW219277   9.632   4.965   1.276 -1.8259  0.8037  0.4012
 3080SOL     OW19278   2.639   2.930   1.907 -0.4479  0.4596  0.3516
 3080SOL    HW119279   2.733   2.958   1.924 -0.0465 -1.1000  0.7849
 3080SOL    HW219280   2.639   2.846   1.852 -1.5834  0.3894  0.4583
 3081SOL     OW19281   1.754   3.294   2.125 -0.3755 -0.0829 -0.2456
 3081SOL    HW119282   1.664   3.297   2.080 -0.0234  1.3617 -0.8580
 3081SOL    HW219283   1.816   3.236   2.072 -0.8129 -0.7199 -0.0646
 3082SOL     OW19284   1.481   8.318   0.739 -0.3309  0.1309  0.1063
 3082SOL    HW119285   1.382   8.314   0.726 -0.0608 -2.3368 -1.5446
 3082SOL    HW219286   1.526   8.257   0.673  2.2796  0.9523  1.0509
 3083SOL     OW19287   9.121   4.366   0.786  0.0090  0.8095  0.0676
 3083SOL    HW119288   9.163   4.275   0.782  0.0866  0.9407 -2.3073
 3083SOL    HW219289   9.054   4.368   0.860 -0.9686 -1.6015 -0.7251
 3084SOL     OW19290   9.106   2.200   1.772 -0.2983  0.1411  0.1082
 3084SOL    HW119291   9.153   2.217   1.859  1.4096  1.1078 -0.9724
 3084SOL    HW219292   9.019   2.248   1.771  0.5207  1.6507  0.5604
 3085SOL     OW19293   2.239   2.656   1.346  0.0220  0.2624 -0.2881
 3085SOL    HW119294   2.146   2.625   1.365  0.3236 -0.5618 -0.0950
 3085SOL    HW219295   2.262   2.733   1.405  0.4053 -1.2753  1.6044
 3086SOL     OW19296   1.085   2.991   1.672  0.4565 -0.0024  0.1976
 3086SOL    HW119297   1.107   3.008   1.576 -3.0698  1.7733 -0.3874
 3086SOL    HW219298   1.087   2.893   1.690 -0.7251 -0.5151 -2.2140
 3087SOL     OW19299   3.493   2.358   0.906 -0.1051 -0.1708 -0.1479
 3087SOL    HW119300   3.445   2.376   0.820  0.2414 -1.7836 -0.7099
 3087SOL    HW219301   3.445   2.286   0.957  0.4659 -0.2167  0.3400
 3088SOL     OW19302   1.388   6.545   1.474 -0.1037 -0.0539  0.0436
 3088SOL    HW119303   1.354   6.454   1.448 -0.2959  0.3629 -1.2088
 3088SOL    HW219304   1.317   6.594   1.525 -0.3633 -0.2321 -0.1437
 3089SOL     OW19305   2.659   3.072   1.042  0.0462 -0.1933  0.2899
 3089SOL    HW119306   2.649   3.010   0.965  0.1589  1.4902 -1.1219
 3089SOL    HW219307   2.599   3.151   1.030 -0.5476 -0.3114  2.3488
 3090SOL     OW19308   4.333   3.189   2.237  0.2125 -0.3037  0.0384
 3090SOL    HW119309   4.299   3.111   2.288  0.9817  0.8869  2.4240
 3090SOL    HW219310   4.433   3.190   2.238  0.2394 -0.1582 -1.3383
 3091SOL     OW19311   8.539   1.760   0.382 -0.0653  0.3674  0.1995
 3091SOL    HW119312   8.603   1.755   0.305 -0.4102 -1.0007 -0.0064
 3091SOL    HW219313   8.578   1.712   0.461 -1.0017 -0.7812 -0.0384
 3092SOL     OW19314   1.737   4.621   2.266 -0.2206 -0.1758 -0.0215
 3092SOL    HW119315   1.779   4.692   2.323  1.6934  0.5727 -2.2566
 3092SOL    HW219316   1.652   4.656   2.227  0.7041  0.9326 -1.0939
 3093SOL     OW19317   2.169   4.418   1.997  0.1628 -0.1074 -0.2194
 3093SOL    HW119318   2.109   4.498   2.004  0.0464 -0.2894  0.9067
 3093SOL    HW219319   2.120   4.342   1.955  0.3544  0.4860 -1.5465
 3094SOL     OW19320   1.394   0.133   1.009  0.2162  0.6555 -0.1389
 3094SOL    HW119321   1.425   0.120   1.103 -0.8803  1.6458  0.3772
 3094SOL    HW219322   1.469   0.169   0.954  0.7155  0.5656  0.4777
 3095SOL     OW19323   2.517   0.687   0.346 -0.3944 -0.4331 -0.3274
 3095SOL    HW119324   2.465   0.609   0.312 -1.0194  0.3184 -1.1283
 3095SOL    HW219325   2.454   0.760   0.373  0.1804 -0.2138  0.4401
 3096SOL     OW19326   2.885   7.734   0.411  0.9243 -0.3373 -0.2980
 3096SOL    HW119327   2.883   7.735   0.511 -2.5997 -0.6652 -0.2846
 3096SOL    HW219328   2.860   7.825   0.377  2.5021 -0.1216 -0.8973
 3097SOL     OW19329   2.751   4.195   0.471 -0.1821 -0.4528  0.1516
 3097SOL    HW119330   2.699   4.265   0.421 -0.6710  1.2823  3.0137
 3097SOL    HW219331   2.849   4.209   0.456 -0.2400  1.4416  1.4427
 3098SOL     OW19332   9.709   3.122   2.337  0.2561 -0.3888 -0.0784
 3098SOL    HW119333   9.623   3.160   2.304 -0.0762 -2.6168 -1.8989
 3098SOL    HW219334   9.693   3.032   2.376  1.3644  0.3176  2.1091
 3099SOL     OW19335   2.231   7.700   0.008 -0.3794  0.5503 -0.0978
 3099SOL    HW119336   2.276   7.673  -0.077 -1.6767  0.5995 -0.8282
 3099SOL    HW219337   2.272   7.784   0.044  1.1140 -0.2526  0.0926
 3100SOL     OW19338   2.466   9.912   1.912 -0.0999  0.7568 -0.2034
 3100SOL    HW119339   2.432   9.937   1.821 -0.3923  3.2422  0.5525
 3100SOL    HW219340   2.542   9.971   1.936  0.2045 -0.1270  1.0358
 3101SOL     OW19341   1.054   5.110   0.061  0.4282  0.2703 -0.0642
 3101SOL    HW119342   1.040   5.200   0.018 -0.4978  0.2927  0.2644
 3101SOL    HW219343   1.030   5.038  -0.004  0.4274  0.2789 -0.0738
 3102SOL     OW19344   1.955   9.512   0.417 -0.0009 -0.1030 -0.2234
 3102SOL    HW119345   1.905   9.538   0.500 -1.1719 -0.1401 -0.9023
 3102SOL    HW219346   2.018   9.438   0.438 -0.8710 -0.6625  0.4638
 3103SOL     OW19347   0.741   1.806   0.672  0.2492  0.0258 -0.0429
 3103SOL    HW119348   0.667   1.778   0.734  1.8116 -0.6901  1.5426
 3103SOL    HW219349   0.808   1.859   0.724  1.1313  0.1974 -1.3577
 3104SOL     OW19350   9.635   4.063   1.765 -0.2302  0.4670 -0.2195
 3104SOL    HW119351   9.631   4.162   1.778  0.1168  0.5993 -1.1240
 3104SOL    HW219352   9.543   4.028   1.749 -0.4126  0.5738  0.5342
 3105SOL     OW19353   3.458   2.585   1.902  0.3096 -0.1934  0.3359
 3105SOL    HW119354   3.378   2.640   1.875  0.0230 -0.5230  0.5024
 3105SOL    HW219355   3.540   2.642   1.901  0.0064  0.2508  0.5603
 3106SOL     OW19356   1.784   5.211   1.261 -0.1238  0.2347  0.5993
 3106SOL    HW119357   1.738   5.281   1.206 -0.6398 -0.2198  0.4497
 3106SOL    HW219358   1.716   5.155   1.309  0.3443  1.4011  2.6878
 3107SOL     OW19359   1.689   0.955   2.109  0.3451  0.3072 -0.1254
 3107SOL    HW119360   1.671   1.048   2.144  0.6141 -0.0193  0.8998
 3107SOL    HW219361   1.604   0.903   2.110 -0.0150  0.8523 -1.6609
 3108SOL     OW19362   3.199   0.480   2.087 -0.2785 -0.0403  0.3670
 3108SOL    HW119363   3.137   0.405   2.063  0.0859 -0.2787  0.1693
 3108SOL    HW219364   3.248   0.457   2.171 -0.2558  0.0314  0.3733
 3109SOL     OW19365   0.400   2.433   0.330  0.6175  0.2744 -0.5605
 3109SOL    HW119366   0.359   2.403   0.416 -0.8588  2.3841 -0.5142
 3109SOL    HW219367   0.429   2.353   0.277  0.8241 -1.0595  1.5334
 3110SOL     OW19368   4.231   3.146   0.440 -0.1058 -0.4727  0.2422
 3110SOL    HW119369   4.308   3.082   0.445  1.2025  1.0761  0.2448
 3110SOL    HW219370   4.164   3.112   0.375 -0.2329 -2.6966  1.4791
 3111SOL     OW19371   1.401   2.564   2.283  0.2611  0.2102 -0.0546
 3111SOL    HW119372   1.335   2.598   2.350  0.3981 -1.2191  0.8216
 3111SOL    HW219373   1.361   2.570   2.192  0.4875  3.1968  0.0026
 3112SOL     OW19374   0.713   3.490   0.784 -0.3492  0.2092  0.5761
 3112SOL    HW119375   0.798   3.455   0.744  0.3668  1.5781  0.8729
 3112SOL    HW219376   0.635   3.451   0.735  0.4549 -0.6394 -0.0531
 3113SOL     OW19377   1.298   0.900   1.438  0.7101 -0.3735  0.1572
 3113SOL    HW119378   1.275   0.944   1.525  1.2384 -0.2914  0.2577
 3113SOL    HW219379   1.216   0.856   1.400  0.4482 -0.2976  0.6300
 3114SOL     OW19380   3.520   9.853   1.060 -0.3805  0.2022  0.4045
 3114SOL    HW119381   3.445   9.805   1.013 -1.3784  0.5376  1.6500
 3114SOL    HW219382   3.508   9.952   1.051 -1.0376  0.2822  2.0792
 3115SOL     OW19383   8.935   2.499   2.088  0.0868 -0.1963  0.3126
 3115SOL    HW119384   9.005   2.562   2.123  0.4768 -1.1036  1.2016
 3115SOL    HW219385   8.934   2.416   2.144  0.2601 -1.4099 -1.4633
 3116SOL     OW19386   3.413   8.838   1.839  0.0095  0.6164  0.1815
 3116SOL    HW119387   3.451   8.898   1.769 -0.3004 -0.1189 -0.6283
 3116SOL    HW219388   3.361   8.892   1.905  2.7667  1.7089  1.5460
 3117SOL     OW19389   1.829   9.990   0.562 -0.3896  0.2179  0.2168
 3117SOL    HW119390   1.836  10.048   0.643  0.7581 -0.5204  0.6511
 3117SOL    HW219391   1.749   9.930   0.572 -1.0969  1.1222  0.1375
 3118SOL     OW19392   0.932   6.985   0.654 -0.3067  0.6263 -0.0853
 3118SOL    HW119393   0.885   7.069   0.629  0.2074  0.5591 -1.2774
 3118SOL    HW219394   0.869   6.908   0.648 -0.4219  0.7373 -0.2727
 3119SOL     OW19395   9.572   4.566   1.982 -0.1030  0.7003  0.0695
 3119SOL    HW119396   9.491   4.541   2.035  0.3441 -0.8438  0.0210
 3119SOL    HW219397   9.546   4.581   1.887 -0.3197  0.1216  0.0348
 3120SOL     OW19398   1.931   0.862   1.980  0.1579  0.2758  0.4721
 3120SOL    HW119399   1.899   0.769   1.967  0.8065 -0.0225  1.0102
 3120SOL    HW219400   1.868   0.911   2.040 -0.3489  0.2849 -0.0572
 3121SOL     OW19401   8.870   5.221   0.703 -0.2609 -0.1878 -0.4442
 3121SOL    HW119402   8.918   5.134   0.718 -2.4521 -1.7062 -1.8605
 3121SOL    HW219403   8.862   5.270   0.789  0.2687 -1.7923  0.5400
 3122SOL     OW19404   2.571   3.525   0.138  0.1045  0.5042  0.0852
 3122SOL    HW119405   2.637   3.517   0.064  2.2254  3.4713  1.5341
 3122SOL    HW219406   2.604   3.476   0.219  0.5717  1.9893  0.8150
 3123SOL     OW19407   4.484   4.048   0.478 -0.2827  0.2659 -0.0203
 3123SOL    HW119408   4.580   4.025   0.461 -0.5123 -0.9766  0.2605
 3123SOL    HW219409   4.458   4.127   0.424  1.0621  0.9681  0.3413
 3124SOL     OW19410   9.946   1.725   1.655 -0.2235  0.0770 -0.2366
 3124SOL    HW119411   9.906   1.635   1.673  2.2385 -0.6223  1.9121
 3124SOL    HW219412   9.896   1.795   1.707  0.4240 -0.5841  1.2740
 3125SOL     OW19413   3.441   4.805   0.415  0.2464  0.4109 -0.1399
 3125SOL    HW119414   3.371   4.814   0.486  1.1830 -1.9330  1.1335
 3125SOL    HW219415   3.411   4.852   0.332 -1.9101  1.1858  1.0471
 3126SOL     OW19416   2.518   0.598   1.791 -0.0832 -0.3367  0.0818
 3126SOL    HW119417   2.509   0.499   1.789 -1.2759 -0.2359  0.0632
 3126SOL    HW219418   2.432   0.639   1.822  0.0253  0.7400 -0.9885
 3127SOL     OW19419   9.855   5.292   2.396 -0.0386 -0.1293  0.2407
 3127SOL    HW119420   9.922   5.223   2.368  0.7271  0.9172 -0.5658
 3127SOL    HW219421   9.828   5.276   2.491  1.6234 -0.3439  0.6814
 3128SOL     OW19422   2.076   5.717   0.378  0.3488  0.6197  0.6591
 3128SOL    HW119423   2.159   5.711   0.433 -0.0292  1.8755  1.3832
 3128SOL    HW219424   2.089   5.786   0.306 -0.4395  1.6272  1.4616
 3129SOL     OW19425   9.625   4.379   2.385 -0.4896  0.5778  0.3814
 3129SOL    HW119426   9.557   4.310   2.359  0.9778 -0.9251  0.4979
 3129SOL    HW219427   9.600   4.467   2.345 -1.5425 -0.3557 -1.0516
 3130SOL     OW19428   9.741   5.665   2.527 -0.1192 -0.1044  0.3985
 3130SOL    HW119429   9.836   5.672   2.556 -0.1507  1.2020  0.2031
 3130SOL    HW219430   9.694   5.752   2.543 -1.4862 -0.9655  1.2160
 3131SOL     OW19431   0.144   2.814   0.012  0.2788  0.3119  0.0637
 3131SOL    HW119432   0.195   2.884  -0.038  1.2626  0.6718  1.5453
 3131SOL    HW219433   0.208   2.754   0.060 -0.6673  0.5269  1.6303
 3132SOL     OW19434   2.092   5.682   2.523  0.1986  0.6878  0.0115
 3132SOL    HW119435   2.010   5.661   2.577 -1.4942 -1.2720 -3.2071
 3132SOL    HW219436   2.136   5.597   2.495  1.1365  1.6764 -1.5592
 3133SOL     OW19437   9.398   5.074   0.236  0.5325 -0.4638 -0.9889
 3133SOL    HW119438   9.301   5.056   0.251  0.3817  0.4059 -0.8760
 3133SOL    HW219439   9.423   5.159   0.283  1.6719 -1.4274  0.1657
 3134SOL     OW19440   3.806   1.441   1.720  0.0507  0.3485  0.1609
 3134SOL    HW119441   3.791   1.451   1.621  0.2455 -0.4452  0.0488
 3134SOL    HW219442   3.896   1.401   1.735 -0.4160 -0.5146  0.6337
 3135SOL     OW19443   1.528   9.351   0.966  0.4089  0.1357 -0.3319
 3135SOL    HW119444   1.497   9.323   0.875 -1.4486  1.9490 -0.3081
 3135SOL    HW219445   1.524   9.273   1.028  2.4783 -1.3288 -1.9650
 3136SOL     OW19446   4.205   1.493   0.234 -0.2753 -0.5497 -0.1943
 3136SOL    HW119447   4.159   1.582   0.231 -0.9891 -0.9206 -0.4039
 3136SOL    HW219448   4.152   1.430   0.291  1.7406 -0.0033  2.3883
 3137SOL     OW19449   0.150   5.352   2.010  0.4219 -0.5870 -0.1032
 3137SOL    HW119450   0.059   5.363   1.970  0.7886 -0.2043 -0.8416
 3137SOL    HW219451   0.153   5.396   2.099  0.2446  0.4816 -0.6170
 3138SOL     OW19452   2.188   7.184   2.168  0.3037  0.2364 -0.4773
 3138SOL    HW119453   2.108   7.227   2.126 -1.0270  0.0613  1.8015
 3138SOL    HW219454   2.229   7.248   2.234  1.8245  0.1719 -1.3332
 3139SOL     OW19455   9.856   1.708   0.286 -0.1217 -0.1858 -0.8126
 3139SOL    HW119456   9.802   1.693   0.369  1.6357 -1.1229  0.2049
 3139SOL    HW219457   9.869   1.806   0.272  2.0103 -0.0675  1.6867
 3140SOL     OW19458   0.248   0.379   1.304  0.5491 -0.2039 -0.1217
 3140SOL    HW119459   0.182   0.348   1.235  1.2186  0.2179 -0.9642
 3140SOL    HW219460   0.207   0.452   1.358 -1.1871 -2.7833  2.1637
 3141SOL     OW19461   2.715   9.087   1.559 -0.0857 -0.3667  0.0146
 3141SOL    HW119462   2.635   9.036   1.591  0.7540  0.9609  4.6132
 3141SOL    HW219463   2.798   9.041   1.591  0.7738  1.8548  1.0485
 3142SOL     OW19464   8.346   2.207   1.922  0.7709 -0.6062 -0.5181
 3142SOL    HW119465   8.266   2.153   1.899 -0.5857  1.6093 -1.1928
 3142SOL    HW219466   8.379   2.255   1.840  1.4883  0.1450  0.1953
 3143SOL     OW19467   3.176   4.115   1.411 -0.5015  0.4685  0.1106
 3143SOL    HW119468   3.248   4.168   1.455  0.1526 -0.8511  0.6606
 3143SOL    HW219469   3.103   4.095   1.477 -0.7371  0.6756 -0.0875
 3144SOL     OW19470   4.026   0.457   0.669 -0.6144  0.5730 -0.0460
 3144SOL    HW119471   4.068   0.483   0.583  1.8776 -1.8026  0.4016
 3144SOL    HW219472   4.077   0.496   0.745 -1.3423  0.6053  0.4391
 3145SOL     OW19473   9.853   5.293   1.927  0.1674  0.2880 -0.0274
 3145SOL    HW119474   9.896   5.203   1.919 -0.2489 -0.2713  3.2129
 3145SOL    HW219475   9.758   5.289   1.895  0.9529  0.2719 -2.4157
 3146SOL     OW19476   2.998   0.530   0.893 -0.2206  0.1299 -0.5480
 3146SOL    HW119477   2.976   0.626   0.877  2.5924  0.6363 -1.7698
 3146SOL    HW219478   3.054   0.495   0.818 -1.7224 -2.6888 -0.4515
 3147SOL     OW19479   1.616   2.886   1.410 -0.0396 -0.0079  0.0371
 3147SOL    HW119480   1.540   2.948   1.429  0.4000  0.3285  0.7248
 3147SOL    HW219481   1.702   2.932   1.430  0.2812 -0.9374  0.8502
 3148SOL     OW19482   0.199   9.654   1.424  0.5334 -0.0928 -0.0620
 3148SOL    HW119483   0.123   9.622   1.481 -0.2135 -1.1916 -1.6702
 3148SOL    HW219484   0.254   9.576   1.395 -0.4468  0.1800 -2.7732
 3149SOL     OW19485   0.431   5.398   2.186  0.1368  1.0042 -0.0871
 3149SOL    HW119486   0.407   5.313   2.139  2.5301  0.4895 -0.4044
 3149SOL    HW219487   0.358   5.422   2.250 -1.0377 -0.7171 -0.7496
 3150SOL     OW19488   8.594   1.940   1.781  0.4623 -0.1520  0.0667
 3150SOL    HW119489   8.505   1.899   1.802  0.8730 -0.2499  1.7343
 3150SOL    HW219490   8.650   1.873   1.732 -0.1127 -0.3598 -0.3169
 3151SOL     OW19491   1.415   3.705   0.836 -0.2573 -0.4461 -0.6671
 3151SOL    HW119492   1.501   3.658   0.853  1.8295  2.6350 -2.3766
 3151SOL    HW219493   1.391   3.698   0.740 -0.5095  1.0210 -0.7145
 3152SOL     OW19494   9.975   7.231   1.613  0.2123 -0.0030  0.0926
 3152SOL    HW119495   9.982   7.137   1.644  0.6771 -0.0614 -0.1854
 3152SOL    HW219496   9.950   7.290   1.690 -0.5725 -0.4199  0.1614
 3153SOL     OW19497   3.346   8.336   1.316  0.1335 -0.9998  0.1649
 3153SOL    HW119498   3.301   8.316   1.230  0.7722 -0.4125 -0.3169
 3153SOL    HW219499   3.423   8.399   1.300 -1.1285  0.9452  1.4514
 3154SOL     OW19500   4.139   2.411   1.997  0.1502  0.2654  0.3592
 3154SOL    HW119501   4.115   2.394   2.092  2.0523 -0.4785  0.7276
 3154SOL    HW219502   4.139   2.509   1.979 -1.4481  0.3430  0.7849
 3155SOL     OW19503   2.490   9.490   2.051 -0.3159  0.4080 -0.4995
 3155SOL    HW119504   2.576   9.541   2.057 -0.5713  0.8806 -0.8086
 3155SOL    HW219505   2.420   9.547   2.007 -1.7592  1.2753  2.7617
 3156SOL     OW19506   3.673   2.537   0.609 -0.0092 -0.3267 -0.1002
 3156SOL    HW119507   3.615   2.599   0.662  0.6874 -1.0439  1.5348
 3156SOL    HW219508   3.625   2.511   0.525 -1.7050 -0.2403  0.8085
 3157SOL     OW19509   1.754   5.006   1.761 -0.4986 -0.1918  0.7580
 3157SOL    HW119510   1.738   4.917   1.804 -0.8918  0.0971  1.2155
 3157SOL    HW219511   1.826   5.055   1.810  1.0939 -1.0472 -0.6554
 3158SOL     OW19512   0.305   9.056   2.433 -0.4636 -0.4166  0.0429
 3158SOL    HW119513   0.304   9.074   2.334 -1.7004 -1.0426 -0.0777
 3158SOL    HW219514   0.279   9.138   2.482  1.9341  0.4244 -0.0359
 3159SOL     OW19515   1.884   8.344   1.678 -0.8586  0.4000  0.1716
 3159SOL    HW119516   1.928   8.347   1.588 -0.4943  1.4333  0.3806
 3159SOL    HW219517   1.798   8.395   1.675 -0.2606  1.4409  0.7275
 3160SOL     OW19518   0.651   5.852   1.206  0.0756 -0.1541  0.1813
 3160SOL    HW119519   0.648   5.789   1.284  1.2113 -1.1930 -0.6022
 3160SOL    HW219520   0.632   5.802   1.122 -1.0971  0.9568 -0.2376
 3161SOL     OW19521   3.787   1.557   0.054 -0.6640  0.0598 -0.0488
 3161SOL    HW119522   3.876   1.598   0.036 -0.5868  0.0192  0.2281
 3161SOL    HW219523   3.737   1.546  -0.032  0.2059 -1.3181 -0.3892
 3162SOL     OW19524   9.945   3.726   0.851  0.2472  0.2094 -0.5342
 3162SOL    HW119525   9.885   3.758   0.777 -0.3738  0.9190  0.2662
 3162SOL    HW219526  10.013   3.797   0.871 -0.1047  0.3535  0.1374
 3163SOL     OW19527   1.907   3.067  -0.001 -0.0084 -0.1182  0.5664
 3163SOL    HW119528   1.969   3.089   0.075  0.7960  1.3870 -0.4980
 3163SOL    HW219529   1.824   3.121   0.007 -1.4640 -2.5260  2.2880
 3164SOL     OW19530   9.341   4.931   0.526 -0.2722 -0.1271 -0.6404
 3164SOL    HW119531   9.342   4.964   0.431  0.6576  1.5015 -0.0758
 3164SOL    HW219532   9.421   4.965   0.574  0.0824 -2.2360  0.3239
 3165SOL     OW19533   1.173   0.095   1.635 -0.8043  0.1456 -0.2875
 3165SOL    HW119534   1.152   0.055   1.724 -2.2419 -0.3653 -0.8457
 3165SOL    HW219535   1.226   0.179   1.648  1.5688 -1.4649  0.9231
 3166SOL     OW19536   1.202   0.930   2.501  0.2654 -0.1074  0.2976
 3166SOL    HW119537   1.242   0.999   2.561  0.5210 -0.0590  0.0702
 3166SOL    HW219538   1.169   0.853   2.556  0.9756 -0.3011  0.4544
 3167SOL     OW19539   0.760   8.429   0.643  0.3805  0.3655  0.7845
 3167SOL    HW119540   0.813   8.349   0.670  0.8693  0.2649 -0.4356
 3167SOL    HW219541   0.799   8.511   0.684  0.0106  0.0071  1.8568
 3168SOL     OW19542   2.084   1.084   0.552 -0.5148 -0.3893  0.0957
 3168SOL    HW119543   2.001   1.136   0.528  0.7485  1.3702 -0.5912
 3168SOL    HW219544   2.109   1.024   0.476  0.0604  0.6933 -0.5775
 3169SOL     OW19545   3.179   3.673   1.318 -0.2373 -0.3486  0.3638
 3169SOL    HW119546   3.118   3.741   1.277  0.1228 -0.5582 -0.5130
 3169SOL    HW219547   3.182   3.688   1.417  0.6761  1.5968  0.0596
 3170SOL     OW19548   0.515   1.917   1.649  0.1739  0.2322  0.3881
 3170SOL    HW119549   0.445   1.875   1.707 -1.1970 -1.6259 -2.5168
 3170SOL    HW219550   0.605   1.889   1.682 -0.5230 -0.0060  2.1837
 3171SOL     OW19551   1.523   1.433   2.177  0.3038 -0.1111 -0.1280
 3171SOL    HW119552   1.597   1.370   2.199  0.1200 -0.2407  0.1164
 3171SOL    HW219553   1.452   1.386   2.124 -0.1162 -0.2626  0.5680
 3172SOL     OW19554   0.989   3.271   2.068  0.0583 -0.6378  0.3221
 3172SOL    HW119555   0.924   3.205   2.106 -0.9633 -1.4144 -2.6146
 3172SOL    HW219556   0.945   3.360   2.061 -0.3179 -0.8843 -0.5475
 3173SOL     OW19557   7.759   2.293   1.674 -0.0516  0.0678 -0.0990
 3173SOL    HW119558   7.674   2.334   1.641 -0.4815 -1.1512 -0.5127
 3173SOL    HW219559   7.833   2.312   1.610  0.1612  1.7178  0.5992
 3174SOL     OW19560   4.740   3.208   1.437 -0.0833  0.4442  0.1172
 3174SOL    HW119561   4.818   3.198   1.376 -0.3257 -2.0234  0.1704
 3174SOL    HW219562   4.772   3.215   1.531  0.0854 -1.8081  0.2686
 3175SOL     OW19563   0.917   6.308   2.247 -0.8227  0.6687 -0.3484
 3175SOL    HW119564   0.958   6.335   2.160  1.7791 -0.3939  0.5076
 3175SOL    HW219565   0.900   6.389   2.303  1.0071  1.0661 -0.3452
 3176SOL     OW19566   0.283   5.104   1.479  0.0971  0.3018 -0.1465
 3176SOL    HW119567   0.214   5.045   1.520  2.1488 -2.3309 -0.3283
 3176SOL    HW219568   0.309   5.175   1.545  0.9642 -1.8578  1.9164
 3177SOL     OW19569   3.001   7.740   1.323  0.4170  0.5436  0.3412
 3177SOL    HW119570   2.995   7.670   1.252 -2.2309  0.1003  0.9673
 3177SOL    HW219571   3.089   7.787   1.315  0.5500 -0.0893 -2.6751
 3178SOL     OW19572   1.996   9.916   0.032  0.0213  0.1155  0.1699
 3178SOL    HW119573   1.979   9.821   0.059 -1.7180  0.0576 -1.0165
 3178SOL    HW219574   2.024   9.919  -0.064 -1.1117  0.8655 -0.1552
 3179SOL     OW19575   0.090   1.965   2.254 -0.1251 -0.3758 -0.1407
 3179SOL    HW119576   0.038   2.039   2.212  0.7910 -0.4949 -1.5322
 3179SOL    HW219577   0.093   1.886   2.192  3.0791  0.2286 -0.8876
 3180SOL     OW19578   8.446   2.074   2.148  0.6414  0.3585 -0.5967
 3180SOL    HW119579   8.398   1.987   2.134  0.2574  0.3141  0.8262
 3180SOL    HW219580   8.420   2.138   2.076 -2.2806  0.6157  0.6024
 3181SOL     OW19581   0.747   3.163   2.159 -1.0044  0.2936 -0.2597
 3181SOL    HW119582   0.667   3.107   2.181 -1.1709  1.4425  2.1866
 3181SOL    HW219583   0.729   3.258   2.184  0.7108  0.7689 -0.7691
 3182SOL     OW19584   3.676   2.143   1.360 -0.0232 -0.0837  0.5707
 3182SOL    HW119585   3.737   2.202   1.307  0.0146  0.9506  1.7351
 3182SOL    HW219586   3.581   2.169   1.343  0.0623  1.7421  2.6752
 3183SOL     OW19587   0.615   7.748   0.495  0.0545 -0.1251 -0.2469
 3183SOL    HW119588   0.552   7.805   0.549  1.4705  0.2083  1.0793
 3183SOL    HW219589   0.702   7.795   0.486  0.5921 -1.2333 -0.8334
 3184SOL     OW19590   0.870   8.887   1.823  0.0865 -0.1149 -0.1108
 3184SOL    HW119591   0.777   8.921   1.836 -0.0001 -0.9250  1.4057
 3184SOL    HW219592   0.887   8.875   1.725 -0.7762  1.7388 -0.5168
 3185SOL     OW19593   0.096   4.862   0.960  0.1792 -0.1107 -0.6141
 3185SOL    HW119594   0.171   4.808   0.923  0.0488  0.0206 -1.0736
 3185SOL    HW219595   0.019   4.861   0.896 -0.5119 -0.9091  0.2098
 3186SOL     OW19596   9.232   3.153   0.243  0.3440  0.6274  0.2244
 3186SOL    HW119597   9.292   3.079   0.275 -0.8864 -0.6236 -0.3209
 3186SOL    HW219598   9.232   3.227   0.310 -0.9449 -1.2700  2.3649
 3187SOL     OW19599   1.720   2.039   2.177 -0.3754 -0.5184  0.0455
 3187SOL    HW119600   1.720   1.939   2.180 -0.7991 -0.5291 -0.2775
 3187SOL    HW219601   1.758   2.071   2.090 -0.2385 -0.3974  0.1488
 3188SOL     OW19602   2.581   3.525   2.219 -0.0635 -0.1475 -0.8985
 3188SOL    HW119603   2.566   3.606   2.162 -0.5151  0.6602  0.3397
 3188SOL    HW219604   2.501   3.466   2.217 -1.0543  1.1018  0.8259
 3189SOL     OW19605   9.559   3.716   1.819 -0.3012  0.0289  0.1008
 3189SOL    HW119606   9.523   3.800   1.776 -0.0946  0.7759  1.3589
 3189SOL    HW219607   9.644   3.737   1.867 -0.1608 -0.9538  0.2895
 3190SOL     OW19608   0.116   4.467   0.643 -0.0809  0.4453  0.1869
 3190SOL    HW119609   0.042   4.469   0.710 -0.6635  2.1876 -0.4924
 3190SOL    HW219610   0.152   4.559   0.630 -0.3158  0.2268 -2.2671
 3191SOL     OW19611   2.855   9.184   2.099  0.2358 -0.1754  0.0495
 3191SOL    HW119612   2.792   9.106   2.095  2.0940 -1.6798 -0.7560
 3191SOL    HW219613   2.825   9.254   2.034 -2.7538  0.8426  2.4074
 3192SOL     OW19614   1.508   1.835   0.711  0.4350 -0.1405  0.3003
 3192SOL    HW119615   1.531   1.763   0.646 -0.5512 -1.5701  1.5115
 3192SOL    HW219616   1.569   1.829   0.790 -0.4171 -0.3772  0.9379
 3193SOL     OW19617   2.950   8.435   0.073 -0.0708  0.1713 -0.2657
 3193SOL    HW119618   3.038   8.418   0.028  0.5430  0.3061  0.8733
 3193SOL    HW219619   2.955   8.522   0.122 -0.2209 -0.7302  1.3493
 3194SOL     OW19620   1.258   2.819   0.324 -0.3472  1.2452 -0.2260
 3194SOL    HW119621   1.330   2.884   0.349  1.3025 -1.3117  1.9239
 3194SOL    HW219622   1.169   2.862   0.339  0.7029  2.9455  1.3890
 3195SOL     OW19623   3.358   8.349   1.968 -0.0036  0.2282  0.3031
 3195SOL    HW119624   3.449   8.389   1.980  0.3375 -0.5549  0.3752
 3195SOL    HW219625   3.314   8.391   1.889  0.8571 -0.1729 -0.3954
 3196SOL     OW19626   9.087   5.663   2.399  0.1840 -0.3581  0.4310
 3196SOL    HW119627   9.006   5.614   2.433 -0.6284 -0.1420 -1.1600
 3196SOL    HW219628   9.069   5.697   2.307  1.7647  0.5121  0.4303
 3197SOL     OW19629   0.288   8.575   2.164 -0.0724  0.2902 -0.6495
 3197SOL    HW119630   0.254   8.492   2.120  0.4031 -0.3220  0.1100
 3197SOL    HW219631   0.282   8.565   2.264 -0.2695  1.2814 -0.5531
 3198SOL     OW19632   0.500   8.933   1.087  0.2007  0.0594 -0.2049
 3198SOL    HW119633   0.418   8.905   1.137 -1.4555  2.4009 -1.5112
 3198SOL    HW219634   0.544   9.008   1.135 -0.6615  1.4335 -1.4991
 3199SOL     OW19635   0.311   4.641   1.750 -0.2260 -0.3781  0.4956
 3199SOL    HW119636   0.321   4.556   1.802 -1.5119 -0.5395  0.4940
 3199SOL    HW219637   0.230   4.690   1.782  0.7787  1.1088  0.8501
 3200SOL     OW19638   0.059   2.521   1.109  0.3914  0.3948 -0.4758
 3200SOL    HW119639   0.124   2.445   1.111 -0.0234  0.0565  0.4707
 3200SOL    HW219640   0.071   2.577   1.191  1.8234  2.3259 -1.9536
 3201SOL     OW19641   1.592   9.175   0.156  0.1421  0.1392  0.4669
 3201SOL    HW119642   1.691   9.169   0.148  0.3672  2.8173  0.6158
 3201SOL    HW219643   1.563   9.270   0.140 -2.5064 -0.8148 -0.8096
 3202SOL     OW19644   8.140   1.638   0.257  0.9020 -0.2558 -0.0471
 3202SOL    HW119645   8.178   1.588   0.179  1.1082 -0.0219 -0.0971
 3202SOL    HW219646   8.211   1.648   0.327  0.9947  0.3609 -0.2269
 3203SOL     OW19647   1.271   3.685   1.536  0.4429 -0.0311  0.6195
 3203SOL    HW119648   1.233   3.711   1.625  0.6151  0.1975  0.6256
 3203SOL    HW219649   1.351   3.627   1.550 -0.7398 -1.6937  0.5954
 3204SOL     OW19650   9.363   0.619   0.601  0.0703  0.0554 -0.0717
 3204SOL    HW119651   9.432   0.579   0.540  0.6658  0.4839  0.3200
 3204SOL    HW219652   9.368   0.575   0.690 -1.6929 -1.4968 -0.7106
 3205SOL     OW19653   2.332   9.415   1.644 -0.0398  0.3128 -0.2357
 3205SOL    HW119654   2.347   9.469   1.561  0.8251 -0.3441 -0.5139
 3205SOL    HW219655   2.317   9.477   1.721 -0.2974  0.9372 -0.7787
 3206SOL     OW19656   3.325   1.690   1.065 -0.1446  0.2661  0.2671
 3206SOL    HW119657   3.319   1.712   0.968  0.7574 -0.2634  0.0813
 3206SOL    HW219658   3.259   1.745   1.116  1.3295  2.6423 -0.3104
 3207SOL     OW19659   3.873   4.343   0.494 -0.1606 -0.1334  0.1579
 3207SOL    HW119660   3.903   4.363   0.400  0.1701 -0.1763  0.2521
 3207SOL    HW219661   3.882   4.245   0.510 -0.2827 -0.1346  0.2115
 3208SOL     OW19662   2.459   8.481   0.698  0.5294 -0.2289 -0.4175
 3208SOL    HW119663   2.445   8.504   0.601  3.5454  2.2890 -0.3328
 3208SOL    HW219664   2.425   8.556   0.755  1.0216 -0.5907  0.3539
 3209SOL     OW19665   0.982   0.332   2.251 -0.5027 -0.2854  0.0788
 3209SOL    HW119666   1.066   0.296   2.210 -1.3932 -0.8761 -1.2380
 3209SOL    HW219667   0.979   0.431   2.238  0.4179 -0.1358  0.9278
 3210SOL     OW19668   2.080   5.337   1.579 -0.3362  0.4804  0.3190
 3210SOL    HW119669   1.983   5.354   1.596 -0.0400  0.0063  2.5337
 3210SOL    HW219670   2.096   5.239   1.571  0.1904  0.4830  1.3680
 3211SOL     OW19671   0.935   8.213   0.667  0.0605  0.2945 -0.3753
 3211SOL    HW119672   1.027   8.230   0.632 -0.6917 -1.6329 -3.5529
 3211SOL    HW219673   0.940   8.157   0.749  1.7111 -0.6866 -1.1112
 3212SOL     OW19674   0.011   6.194   0.233 -0.0016 -0.0618  0.1726
 3212SOL    HW119675  -0.054   6.234   0.168  1.0542  1.4411  0.0261
 3212SOL    HW219676   0.017   6.252   0.314  0.2986 -0.8119  0.6913
 3213SOL     OW19677   2.412   8.310   1.434  0.0424  0.0702  0.0928
 3213SOL    HW119678   2.350   8.361   1.374  1.3006 -0.6019 -1.7967
 3213SOL    HW219679   2.460   8.374   1.494 -0.0299  0.8971 -0.7269
 3214SOL     OW19680   9.358   0.890   1.404  0.1524 -0.0278  0.3686
 3214SOL    HW119681   9.348   0.877   1.306  0.6284  1.0492  0.1640
 3214SOL    HW219682   9.452   0.917   1.424  0.7828 -2.8837  1.4264
 3215SOL     OW19683   9.195   1.688   1.531  0.1997  0.0609  0.5261
 3215SOL    HW119684   9.254   1.631   1.474 -1.3975  0.1914 -1.3266
 3215SOL    HW219685   9.239   1.776   1.548  0.1232  0.5976 -1.7885
 3216SOL     OW19686   0.763   1.825   1.803  0.1126 -0.2253 -0.3760
 3216SOL    HW119687   0.728   1.735   1.828 -1.4885  0.8894  1.6086
 3216SOL    HW219688   0.860   1.831   1.825 -0.1336 -0.9596  0.9636
 3217SOL     OW19689   4.032   2.131   2.067  0.1704  0.4240 -0.0760
 3217SOL    HW119690   3.982   2.218   2.074 -0.2002  0.2796 -0.8420
 3217SOL    HW219691   4.065   2.104   2.157  0.8150  1.6765  0.0762
 3218SOL     OW19692   8.605   2.803   1.117 -0.0199 -0.1748 -0.1695
 3218SOL    HW119693   8.615   2.778   1.020  0.1696 -0.9800  0.0513
 3218SOL    HW219694   8.572   2.724   1.168  1.3858 -0.2274  0.6981
 3219SOL     OW19695   0.295   2.490   2.295  0.2308 -0.4662 -0.4930
 3219SOL    HW119696   0.384   2.519   2.330 -0.5100 -0.4358  1.4429
 3219SOL    HW219697   0.307   2.409   2.237  1.6010  0.0886 -1.0198
 3220SOL     OW19698   0.495   8.490   0.982  0.4470 -0.4552 -0.1078
 3220SOL    HW119699   0.569   8.546   1.019 -0.6752  0.7872  0.2979
 3220SOL    HW219700   0.452   8.438   1.056  1.3600 -1.7328 -0.4530
 3221SOL     OW19701   0.960   8.080   2.333 -0.0590 -0.4497 -0.6456
 3221SOL    HW119702   0.879   8.136   2.320 -0.0767 -0.0109  1.2416
 3221SOL    HW219703   0.960   8.042   2.426  1.7745 -0.6353 -0.7054
 3222SOL     OW19704   3.278   7.822   1.323  0.3814  0.8460  0.2867
 3222SOL    HW119705   3.335   7.791   1.399  1.1234  0.5230 -0.4004
 3222SOL    HW219706   3.333   7.829   1.240 -0.8287 -0.5907 -0.6598
 3223SOL     OW19707   3.773   4.127   1.842  0.5827 -0.2985  0.2752
 3223SOL    HW119708   3.724   4.048   1.808  1.1278 -0.1995 -0.7568
 3223SOL    HW219709   3.709   4.192   1.883  0.1734 -1.3960  1.3874
 3224SOL     OW19710   1.133   2.879   1.376 -0.4462 -0.7603 -0.3507
 3224SOL    HW119711   1.165   2.815   1.306 -0.5599  0.1421 -1.2316
 3224SOL    HW219712   1.036   2.860   1.395 -0.8957  0.1055 -1.6964
 3225SOL     OW19713   3.176   3.011   2.011  0.4080  0.3074  0.5208
 3225SOL    HW119714   3.185   2.912   2.026  2.3236  0.3798 -0.0655
 3225SOL    HW219715   3.084   3.031   1.979  0.3643 -1.4504 -0.5300
 3226SOL     OW19716   1.913   8.877   1.390 -0.4925  0.0559  0.4667
 3226SOL    HW119717   1.866   8.793   1.418 -1.8784  0.5211 -0.4207
 3226SOL    HW219718   1.954   8.863   1.300 -0.2901  0.1719  0.5418
 3227SOL     OW19719   2.369   0.205   2.218 -0.2394 -0.4884  0.2863
 3227SOL    HW119720   2.313   0.239   2.142  1.0378 -0.8699 -0.8532
 3227SOL    HW219721   2.449   0.264   2.230  1.4962 -2.4768 -1.0893
 3228SOL     OW19722   3.729   0.165   2.031 -0.0184  0.4497  0.0848
 3228SOL    HW119723   3.827   0.144   2.037 -0.2789 -1.0038 -0.7141
 3228SOL    HW219724   3.702   0.171   1.935 -0.9843 -0.3960  0.3014
 3229SOL     OW19725   1.818   9.604   0.918  0.5741  0.0901 -0.5861
 3229SOL    HW119726   1.727   9.638   0.941  2.3453  2.7033  3.0497
 3229SOL    HW219727   1.830   9.513   0.958 -0.3440 -0.1793 -0.9049
 3230SOL     OW19728   1.526   7.254   2.541 -0.4597  0.7451  0.0193
 3230SOL    HW119729   1.465   7.249   2.620  0.2184  2.1856  0.6502
 3230SOL    HW219730   1.582   7.171   2.538 -1.6719 -0.0878  0.0647
 3231SOL     OW19731   0.832   8.593   0.374 -0.0642  0.2991  0.0939
 3231SOL    HW119732   0.840   8.547   0.462  0.8072  1.0998  0.4290
 3231SOL    HW219733   0.905   8.660   0.363 -0.7966  0.9842 -0.7754
 3232SOL     OW19734   0.544   8.993   2.537  0.5170 -1.1218  0.7724
 3232SOL    HW119735   0.527   8.956   2.629  2.9292  0.8566  2.0846
 3232SOL    HW219736   0.457   9.011   2.492 -0.7143 -2.4414  2.5399
 3233SOL     OW19737   1.964   5.108   1.457 -0.1813  0.3220  0.5578
 3233SOL    HW119738   1.887   5.069   1.509 -0.0793 -2.4918 -1.3210
 3233SOL    HW219739   1.928   5.159   1.379 -0.1521 -1.2708 -0.5077
 3234SOL     OW19740   1.192   1.116   0.326 -0.1416 -0.0885  0.0695
 3234SOL    HW119741   1.142   1.132   0.411 -0.4804 -0.6606 -0.0167
 3234SOL    HW219742   1.166   1.027   0.288  0.1403  0.0830 -0.5400
 3235SOL     OW19743   8.371   2.108   0.915  0.0076  0.0109  0.7754
 3235SOL    HW119744   8.452   2.078   0.865 -0.1489 -0.7892  0.9922
 3235SOL    HW219745   8.360   2.052   0.997 -0.3757  0.5745  1.1122
 3236SOL     OW19746   2.887   4.038   0.901  0.0730 -0.4976  0.3357
 3236SOL    HW119747   2.945   4.117   0.922 -1.9139  0.9127  0.7283
 3236SOL    HW219748   2.794   4.070   0.881 -0.2024 -2.5555 -1.8593
 3237SOL     OW19749   0.375   4.811   0.102  0.1452 -0.1024  0.2440
 3237SOL    HW119750   0.377   4.754   0.020  0.7019  0.1578  0.0695
 3237SOL    HW219751   0.315   4.889   0.087 -0.7430 -0.7167  0.5390
 3238SOL     OW19752   1.806   2.023   0.791 -0.3858 -0.1208 -0.1945
 3238SOL    HW119753   1.797   2.119   0.815 -1.7133 -0.2496 -0.1216
 3238SOL    HW219754   1.781   1.966   0.869  2.7592 -0.5506  0.5628
 3239SOL     OW19755   3.627   1.821   2.515  0.1272 -0.2725 -0.3345
 3239SOL    HW119756   3.675   1.828   2.603  0.7019  0.8934 -0.7299
 3239SOL    HW219757   3.627   1.725   2.485  0.1972 -0.6333  0.7784
 3240SOL     OW19758   3.265   3.498   1.119 -0.4798 -0.7296  0.6020
 3240SOL    HW119759   3.245   3.568   1.187  1.8978 -0.2262  0.8060
 3240SOL    HW219760   3.364   3.484   1.112 -0.8056 -2.5998 -0.9153
 3241SOL     OW19761   2.413   1.267   2.112  0.1138  0.5101 -0.0781
 3241SOL    HW119762   2.456   1.266   2.021  0.2243  0.5959 -0.0268
 3241SOL    HW219763   2.316   1.288   2.102 -0.1306 -0.6910 -0.2844
 3242SOL     OW19764   1.877   3.515   0.831 -0.0052  0.3450  0.5398
 3242SOL    HW119765   1.879   3.589   0.764  0.2692  0.2596  0.4539
 3242SOL    HW219766   1.822   3.439   0.796 -0.1447  0.4366  0.5563
 3243SOL     OW19767   9.979   6.513   2.543  0.1947  0.0802 -0.9049
 3243SOL    HW119768  10.068   6.469   2.534  0.1555 -0.1615 -0.1653
 3243SOL    HW219769   9.909   6.444   2.564  0.2158  0.5425  0.7371
 3244SOL     OW19770   3.710   1.579   1.926 -0.8772  0.2134 -0.2300
 3244SOL    HW119771   3.780   1.563   1.856 -0.2962 -1.7178  0.7509
 3244SOL    HW219772   3.668   1.492   1.952  0.7007  0.4586  3.6136
 3245SOL     OW19773   9.411   5.262   0.467  0.0016  0.9158 -0.0247
 3245SOL    HW119774   9.461   5.339   0.429 -0.4219  1.0396 -0.3399
 3245SOL    HW219775   9.324   5.294   0.505  0.3535  0.7716  0.9224
 3246SOL     OW19776   1.434   2.851   2.163  0.3400  0.3738  0.4671
 3246SOL    HW119777   1.405   2.909   2.239 -1.1339 -0.6615  0.7164
 3246SOL    HW219778   1.435   2.755   2.192  0.4289  0.0421 -0.6059
 3247SOL     OW19779   1.061   0.428   0.576  0.4221 -0.3297  0.0935
 3247SOL    HW119780   1.157   0.436   0.547  0.0332 -1.1065 -1.4256
 3247SOL    HW219781   1.055   0.445   0.675  2.0999 -0.1301  0.1790
 3248SOL     OW19782   3.484   2.160   2.572  0.1615  0.2776  0.1523
 3248SOL    HW119783   3.406   2.100   2.588 -0.2190  1.0471  1.2522
 3248SOL    HW219784   3.529   2.181   2.659  1.7650 -0.3834 -0.5048
 3249SOL     OW19785   0.715   4.884   2.494  0.1310  0.1379  0.3868
 3249SOL    HW119786   0.683   4.875   2.589  2.0876  0.5955  1.1278
 3249SOL    HW219787   0.688   4.974   2.459 -0.2246  0.1420  0.6641
 3250SOL     OW19788   1.408   0.405   1.351 -0.2989 -0.4890  0.0412
 3250SOL    HW119789   1.419   0.504   1.363 -0.0274 -0.6416  1.0762
 3250SOL    HW219790   1.362   0.387   1.264  1.0016  0.4927 -0.8879
 3251SOL     OW19791   0.842   3.107   1.382  0.1527 -0.1454 -0.5179
 3251SOL    HW119792   0.808   3.142   1.470  1.4345  2.4651 -1.0116
 3251SOL    HW219793   0.835   3.007   1.381 -0.9703 -0.1363  2.0801
 3252SOL     OW19794   0.023   1.149   0.382  0.3701  0.1229 -0.2281
 3252SOL    HW119795  -0.067   1.191   0.396  0.5683  0.2900  0.6052
 3252SOL    HW219796   0.060   1.177   0.293 -0.2969  0.2506 -0.4651
 3253SOL     OW19797   8.783   1.671   1.726  0.1712 -0.1471  0.1236
 3253SOL    HW119798   8.830   1.759   1.735 -2.4017  1.4162 -1.1148
 3253SOL    HW219799   8.806   1.613   1.804  3.7045  0.7229 -0.1713
 3254SOL     OW19800   3.020   0.442   0.418 -0.1161  0.5549  0.4941
 3254SOL    HW119801   2.932   0.413   0.456 -0.0557  0.6856  0.7312
 3254SOL    HW219802   3.006   0.521   0.358  0.0435  1.5236  1.7173
 3255SOL     OW19803   1.166   5.861   1.479  0.2655 -0.4308  0.3358
 3255SOL    HW119804   1.158   5.951   1.437  0.7236 -0.3507  0.4184
 3255SOL    HW219805   1.087   5.805   1.453 -0.3828  0.2231  0.8384
 3256SOL     OW19806   2.812   9.661   1.843  0.0685 -0.0472 -0.0208
 3256SOL    HW119807   2.741   9.717   1.885  0.1349 -1.0593  1.4795
 3256SOL    HW219808   2.872   9.624   1.914  1.3795 -0.1937 -1.1678
 3257SOL     OW19809   9.436   1.814   1.003 -0.1941 -0.0946 -0.6663
 3257SOL    HW119810   9.456   1.883   1.072  1.5712 -0.9446 -0.2822
 3257SOL    HW219811   9.344   1.778   1.016 -0.1858  0.3731  0.7055
 3258SOL     OW19812   2.085   8.053   0.138  0.4190 -0.2260  0.9161
 3258SOL    HW119813   2.130   8.142   0.131 -0.5281  0.3163  1.5761
 3258SOL    HW219814   1.996   8.056   0.092 -0.7501 -0.0439  3.0851
 3259SOL     OW19815   2.993   4.395   1.600  0.5178 -0.5102  0.2358
 3259SOL    HW119816   2.957   4.440   1.518 -0.2166  2.5532  2.1740
 3259SOL    HW219817   2.919   4.382   1.666  1.7417  0.1566  1.7658
 3260SOL     OW19818   0.877   7.727   0.912 -0.0619  0.0238  0.0817
 3260SOL    HW119819   0.970   7.689   0.917  0.6222  1.3549 -1.7338
 3260SOL    HW219820   0.882   7.821   0.876 -2.2546 -0.5763 -1.8902
 3261SOL     OW19821   2.045   0.823   2.278  0.5751  0.2440  0.1523
 3261SOL    HW119822   2.047   0.752   2.349  0.7604 -0.7379 -0.8185
 3261SOL    HW219823   1.971   0.804   2.214 -0.2732  1.7247  0.6786
 3262SOL     OW19824   4.492   2.435   2.433  0.3528  0.7201  0.4126
 3262SOL    HW119825   4.582   2.444   2.390 -0.1241  1.1219 -0.4984
 3262SOL    HW219826   4.489   2.493   2.515  0.3675  1.9727 -0.4601
 3263SOL     OW19827   9.477   3.357   1.020 -0.7486  0.4386 -0.3556
 3263SOL    HW119828   9.548   3.400   0.964 -0.3563  0.6120  0.2751
 3263SOL    HW219829   9.511   3.272   1.058 -0.5793  0.9647  0.6693
 3264SOL     OW19830   3.232   0.745   2.120 -0.1449  0.2127 -0.0614
 3264SOL    HW119831   3.332   0.750   2.117 -0.1695  0.2303 -0.8932
 3264SOL    HW219832   3.203   0.653   2.095 -0.2939 -0.1590  1.4106
 3265SOL     OW19833   8.376   1.666   1.578 -0.3778 -0.4513 -0.5196
 3265SOL    HW119834   8.455   1.609   1.599 -0.9533 -1.0172  0.1532
 3265SOL    HW219835   8.334   1.636   1.493 -1.3860 -1.8123  0.4443
 3266SOL     OW19836   0.345   3.560   0.107  0.7068 -0.3432  0.6850
 3266SOL    HW119837   0.443   3.567   0.125  1.4337 -1.7501 -2.3650
 3266SOL    HW219838   0.314   3.644   0.062  0.9436 -0.6760 -0.1082
 3267SOL     OW19839   9.360   1.959   1.476  0.2550 -1.0220  0.1066
 3267SOL    HW119840   9.393   1.914   1.393 -1.2045  0.7870 -1.4861
 3267SOL    HW219841   9.271   2.000   1.459  0.8692  1.1696  1.9611
 3268SOL     OW19842   0.428   7.574   2.210  0.2051  0.5131 -0.2005
 3268SOL    HW119843   0.491   7.508   2.170 -0.0468  0.5159 -0.6021
 3268SOL    HW219844   0.480   7.640   2.265  0.2539 -1.2652  1.9688
 3269SOL     OW19845   0.796   5.366   1.945 -0.0860 -0.1586  0.1306
 3269SOL    HW119846   0.704   5.346   1.913  0.4706 -3.2636  0.3572
 3269SOL    HW219847   0.847   5.413   1.873 -2.2528  3.0393  0.5452
 3270SOL     OW19848   0.981   1.124   0.015 -0.5031 -0.2263  0.1490
 3270SOL    HW119849   0.890   1.122  -0.027 -0.3823  0.4191 -0.1573
 3270SOL    HW219850   1.036   1.048  -0.020 -0.0276  0.9334 -1.7377
 3271SOL     OW19851   4.438   3.536   2.502  0.0346  0.4286  1.0191
 3271SOL    HW119852   4.345   3.516   2.471 -0.0081  0.7556  0.9352
 3271SOL    HW219853   4.496   3.554   2.424  0.0171  0.8709  1.1101
 3272SOL     OW19854   1.672   5.795   0.977  0.2568  0.2557 -0.0099
 3272SOL    HW119855   1.756   5.741   0.983 -0.0761 -0.0947  1.8503
 3272SOL    HW219856   1.626   5.775   0.890  1.1110 -1.0206 -0.1863
 3273SOL     OW19857   1.682   3.030   0.957  0.3710 -0.0554 -0.1455
 3273SOL    HW119858   1.760   2.997   0.904 -0.4603 -1.1839 -0.7137
 3273SOL    HW219859   1.695   3.125   0.981  2.1655 -0.3808  0.2123
 3274SOL     OW19860   3.263   8.768   0.559 -0.2247  0.3730 -0.5518
 3274SOL    HW119861   3.254   8.784   0.461  1.9295  1.6210 -0.5748
 3274SOL    HW219862   3.280   8.854   0.606 -1.0297 -0.2457  0.9097
 3275SOL     OW19863   1.213   1.749   0.796 -0.4634  0.2240 -0.0576
 3275SOL    HW119864   1.292   1.804   0.771 -0.7191 -0.2311 -1.9338
 3275SOL    HW219865   1.184   1.694   0.717 -2.7732  0.5552  0.5189
 3276SOL     OW19866   1.779   5.019   0.791  0.0711 -0.1003 -0.3510
 3276SOL    HW119867   1.845   5.088   0.820  1.1560  0.0033 -2.9091
 3276SOL    HW219868   1.777   4.945   0.857  1.3485  0.8099  0.7407
 3277SOL     OW19869   1.336   0.573   0.408  0.1247 -0.7300  0.4089
 3277SOL    HW119870   1.421   0.625   0.421 -0.9655  1.3086 -0.4410
 3277SOL    HW219871   1.341   0.522   0.322  0.7276 -1.0648  0.6445
 3278SOL     OW19872   3.207   8.675   2.402  0.0866  0.5231 -0.1439
 3278SOL    HW119873   3.247   8.595   2.358 -0.4515  0.7200 -1.0106
 3278SOL    HW219874   3.255   8.693   2.488  0.3975 -0.5524 -0.0784
 3279SOL     OW19875   4.457   1.475   0.340 -0.3621 -0.2176  0.1979
 3279SOL    HW119876   4.372   1.459   0.289  0.2707  0.7488 -1.1837
 3279SOL    HW219877   4.480   1.393   0.393 -1.0510 -1.2475 -1.0678
 3280SOL     OW19878   3.477   3.266   0.976  0.4787 -0.1470 -0.1854
 3280SOL    HW119879   3.396   3.241   0.924 -0.1864 -1.0767  1.2479
 3280SOL    HW219880   3.496   3.363   0.965 -1.7010  0.3834  0.6391
 3281SOL     OW19881   2.270   9.931   1.303  0.5363 -0.2684  0.3053
 3281SOL    HW119882   2.349   9.975   1.345 -0.0469  0.6869  0.4222
 3281SOL    HW219883   2.289   9.913   1.207  0.4677  1.0565  0.0335
 3282SOL     OW19884   4.006   3.627   2.033  0.3949 -0.2322 -0.2751
 3282SOL    HW119885   4.072   3.635   1.959  0.4472 -0.1477 -0.2196
 3282SOL    HW219886   3.929   3.688   2.015 -0.2464 -1.2228 -0.9520
 3283SOL     OW19887   0.139   4.656   2.479 -0.0796  0.1436 -0.3809
 3283SOL    HW119888   0.220   4.597   2.482 -1.4498 -1.7957 -0.4020
 3283SOL    HW219889   0.116   4.686   2.571  0.2127  0.0572 -0.2803
 3284SOL     OW19890   9.177   1.847   1.888  0.4175 -0.2919  0.3709
 3284SOL    HW119891   9.235   1.767   1.868  0.3732 -0.0373 -0.8074
 3284SOL    HW219892   9.211   1.925   1.836 -1.3031 -0.2640 -0.7258
 3285SOL     OW19893   3.382   0.555   1.025 -0.1146 -0.1391 -0.1369
 3285SOL    HW119894   3.413   0.544   1.120  1.1043 -0.0162 -0.5082
 3285SOL    HW219895   3.462   0.565   0.966 -0.7170 -3.2392 -1.5751
 3286SOL     OW19896   2.678   1.819   1.566  0.4813  0.2316  0.4430
 3286SOL    HW119897   2.745   1.862   1.506  1.5423  0.3418  1.6815
 3286SOL    HW219898   2.669   1.723   1.542  0.4794  0.4006 -0.2501
 3287SOL     OW19899   0.071   6.623   0.870  0.3655  0.6099 -0.2694
 3287SOL    HW119900   0.119   6.704   0.905  0.4858  0.9850 -1.2838
 3287SOL    HW219901   0.006   6.651   0.800  0.1618 -0.1361 -0.3779
 3288SOL     OW19902   9.768   4.937   0.008  0.2395  0.4327 -0.0594
 3288SOL    HW119903   9.723   4.937   0.097 -2.4264 -1.2220 -1.3566
 3288SOL    HW219904   9.723   5.002  -0.053 -0.6675 -1.4262 -1.4501
 3289SOL     OW19905   0.162   6.789   2.456 -0.2017 -0.3871 -0.1409
 3289SOL    HW119906   0.197   6.879   2.482  1.0458 -0.9115  0.0541
 3289SOL    HW219907   0.178   6.724   2.530  0.8193 -1.2413 -1.0844
 3290SOL     OW19908   3.287   9.405   1.948 -0.0280 -0.5940  0.0035
 3290SOL    HW119909   3.337   9.319   1.958 -1.5307 -1.5196 -0.3596
 3290SOL    HW219910   3.353   9.480   1.936  1.2962 -1.6549  0.4759
 3291SOL     OW19911   3.665   9.472   1.875  0.5359 -0.5851  0.3210
 3291SOL    HW119912   3.623   9.456   1.786  4.0739 -0.0769 -1.5152
 3291SOL    HW219913   3.646   9.394   1.935  0.2597 -2.1412 -1.7196
 3292SOL     OW19914   0.223   5.348   0.479  0.0833  0.3989 -0.0790
 3292SOL    HW119915   0.285   5.416   0.441  1.2775 -0.5867  0.0511
 3292SOL    HW219916   0.228   5.351   0.579 -0.4148  0.6193 -0.0608
 3293SOL     OW19917   1.760   0.234   1.222 -0.3874 -0.0172 -0.3923
 3293SOL    HW119918   1.816   0.294   1.165  0.6361 -1.6732 -1.1769
 3293SOL    HW219919   1.750   0.274   1.313  2.8493 -0.0905  0.0626
 3294SOL     OW19920   9.228   2.805   0.974  0.3793 -0.1693  0.0496
 3294SOL    HW119921   9.264   2.765   1.058 -0.4559 -1.0879 -0.0230
 3294SOL    HW219922   9.129   2.791   0.970  0.5334 -0.9557 -1.5097
 3295SOL     OW19923   9.260   3.253   1.710  0.0631 -0.3822  0.3458
 3295SOL    HW119924   9.330   3.321   1.734  1.2011 -0.7781 -1.6772
 3295SOL    HW219925   9.291   3.163   1.740  0.6558 -0.6163 -0.9037
 3296SOL     OW19926   1.510   0.803   0.361 -0.0158 -0.0759 -0.6088
 3296SOL    HW119927   1.537   0.861   0.438 -0.3179  0.3445 -0.8212
 3296SOL    HW219928   1.587   0.794   0.298 -0.2105  0.7423 -0.9748
 3297SOL     OW19929   0.913   3.235   1.782 -0.1097  0.0079  0.1976
 3297SOL    HW119930   0.957   3.310   1.734 -0.2059 -0.2894 -0.3554
 3297SOL    HW219931   0.979   3.162   1.800  0.2171  0.6222  1.5849
 3298SOL     OW19932   1.792   0.973   0.396  0.1170  0.5643  0.1367
 3298SOL    HW119933   1.780   0.915   0.477  2.6336  0.1520  0.2623
 3298SOL    HW219934   1.802   1.069   0.425 -1.3292  0.7249  0.1281
 3299SOL     OW19935   8.939   1.916   1.808  0.0413 -0.1285  1.1105
 3299SOL    HW119936   8.951   2.002   1.758 -2.4685  0.1164  0.8437
 3299SOL    HW219937   9.024   1.892   1.854  1.8220  0.7031 -1.5900
 3300SOL     OW19938   1.924   4.785   1.545  1.1534 -0.6822 -0.4996
 3300SOL    HW119939   1.970   4.866   1.582  2.2062 -1.4138 -0.1918
 3300SOL    HW219940   1.975   4.751   1.466 -0.0193 -0.2720 -1.4659
 3301SOL     OW19941   2.935   4.723   0.634  0.4175 -0.1573  0.4016
 3301SOL    HW119942   2.871   4.732   0.558  1.5289 -2.0156 -0.7826
 3301SOL    HW219943   2.892   4.672   0.709 -0.0893  0.1561  0.3235
 3302SOL     OW19944   4.559   3.782   2.201  0.3937  0.5295  0.4297
 3302SOL    HW119945   4.524   3.872   2.174 -1.8557 -0.1845  0.9162
 3302SOL    HW219946   4.483   3.720   2.217  1.9340 -1.6376 -0.4380
 3303SOL     OW19947   2.126   8.633   1.443  0.0905 -0.3277  0.0563
 3303SOL    HW119948   2.144   8.579   1.361  0.6545  0.5811 -0.4343
 3303SOL    HW219949   2.028   8.647   1.453 -0.1041 -1.9203  0.5165
 3304SOL     OW19950   1.837   6.521   1.771  0.0806 -0.3542  0.0228
 3304SOL    HW119951   1.738   6.510   1.777  0.1147  0.1430  2.0934
 3304SOL    HW219952   1.882   6.438   1.803  0.3153  0.2625  1.3360
 3305SOL     OW19953   1.465   0.429   0.785  0.0835  0.0018 -0.3319
 3305SOL    HW119954   1.386   0.489   0.797 -0.2549 -0.5202  0.0954
 3305SOL    HW219955   1.539   0.479   0.741  0.2803  1.1200  1.2287
 3306SOL     OW19956   2.049   3.519   2.512  0.5778  0.1473  0.2187
 3306SOL    HW119957   1.964   3.511   2.564 -0.7336 -1.1026 -2.0580
 3306SOL    HW219958   2.033   3.574   2.430  2.0864  0.2840  0.0024
 3307SOL     OW19959   2.261   0.952   2.352  0.1495 -0.2203  0.0066
 3307SOL    HW119960   2.176   0.910   2.320 -1.3942  1.9122  1.1376
 3307SOL    HW219961   2.265   0.948   2.452  1.4472 -0.4182 -0.0426
 3308SOL     OW19962   2.680   1.257   0.390  0.0620  0.0475  0.1591
 3308SOL    HW119963   2.704   1.230   0.483  0.7041  0.2362  0.0524
 3308SOL    HW219964   2.718   1.190   0.325  0.7978  0.6545 -0.0469
 3309SOL     OW19965   9.929   3.662   1.331 -0.2013 -0.5225  0.6189
 3309SOL    HW119966   9.866   3.735   1.304 -0.7218 -1.3305 -0.3860
 3309SOL    HW219967   9.932   3.655   1.430  1.6061  2.3988  0.8511
 3310SOL     OW19968   2.510   4.906   1.594 -0.5094 -0.0000  0.2855
 3310SOL    HW119969   2.494   5.001   1.568 -1.3162  0.3572  1.9732
 3310SOL    HW219970   2.585   4.869   1.541 -0.3228  1.5245 -0.5463
 3311SOL     OW19971   8.982   3.295   1.821  0.5064 -0.0317  0.2839
 3311SOL    HW119972   9.076   3.284   1.788  0.2171 -0.4552 -0.4222
 3311SOL    HW219973   8.934   3.360   1.763  0.0672 -0.5832  0.0199
 3312SOL     OW19974   0.991   3.590   0.076  0.8481 -0.1225 -0.6319
 3312SOL    HW119975   0.976   3.626  -0.017 -0.8264 -0.3406 -0.4587
 3312SOL    HW219976   1.022   3.496   0.070  1.1982  0.0156 -0.9897
 3313SOL     OW19977   9.192   3.745   0.881  0.3509 -0.1297 -0.1212
 3313SOL    HW119978   9.227   3.671   0.824  1.0590  0.1928 -0.1117
 3313SOL    HW219979   9.157   3.819   0.822  1.8126  0.5501 -0.1530
 3314SOL     OW19980   0.880   7.022   1.265 -0.0100  0.4191  0.0343
 3314SOL    HW119981   0.962   6.979   1.228  1.0179  0.6543  1.9469
 3314SOL    HW219982   0.907   7.097   1.326 -1.6698  1.1478 -0.1024
 3315SOL     OW19983   2.037   8.171   1.836  0.5187 -0.1933 -0.4816
 3315SOL    HW119984   2.110   8.172   1.768 -0.3995  0.3777 -1.4683
 3315SOL    HW219985   1.965   8.235   1.809  0.1037 -0.0134  0.9809
 3316SOL     OW19986   2.392   7.773   1.675  0.5362 -0.0570  0.0278
 3316SOL    HW119987   2.302   7.730   1.663 -0.6899  2.2592  0.5252
 3316SOL    HW219988   2.418   7.818   1.589  0.0469  1.3441  0.5858
 3317SOL     OW19989   0.920   5.980   0.341  0.1491 -0.2051  0.0219
 3317SOL    HW119990   0.981   5.980   0.421  0.4877  0.3439 -0.2300
 3317SOL    HW219991   0.966   6.024   0.264 -1.2200  1.9225  0.3511
 3318SOL     OW19992   8.730   2.391   1.941  0.3366  1.2780 -0.7617
 3318SOL    HW119993   8.779   2.444   2.010 -0.0919  1.6370 -0.7343
 3318SOL    HW219994   8.712   2.299   1.976  0.6736  1.2592 -0.6344
 3319SOL     OW19995   1.030   8.142   1.531 -0.8044  0.0172  0.1426
 3319SOL    HW119996   0.973   8.072   1.487 -0.4248 -0.7144  0.8090
 3319SOL    HW219997   1.018   8.138   1.630  1.9285 -1.5119  0.4578
 3320SOL     OW19998   8.770   2.960   1.253  0.2082 -0.9473 -0.1557
 3320SOL    HW119999   8.840   2.998   1.193 -0.4707 -0.6058 -0.7406
 3320SOL    HW220000   8.706   2.905   1.199  1.0970 -2.8253  0.6535
 3321SOL     OW20001   2.926   9.956   2.423 -0.1356  0.0321 -0.6668
 3321SOL    HW120002   2.876   9.935   2.507 -0.0158  1.8011 -0.1224
 3321SOL    HW220003   3.007  10.010   2.446  1.2910 -1.6692 -1.6812
 3322SOL     OW20004   1.867   2.775   2.144  0.2260  0.4488 -0.8619
 3322SOL    HW120005   1.858   2.686   2.190  0.0145  0.3221 -1.1410
 3322SOL    HW220006   1.884   2.846   2.211 -1.5807  0.4968 -0.4181
 3323SOL     OW20007   9.514   5.939   1.544  0.1574  0.4708  0.6549
 3323SOL    HW120008   9.565   5.986   1.617  1.1020 -1.2079  1.1130
 3323SOL    HW220009   9.468   5.859   1.582  0.1294 -0.0576 -0.4742
 3324SOL     OW20010   3.438   9.082   1.016  0.1604 -0.0677 -0.2043
 3324SOL    HW120011   3.448   9.020   1.094 -1.8612  0.5502  0.5842
 3324SOL    HW220012   3.374   9.154   1.040  0.5392  0.8770 -2.0066
 3325SOL     OW20013   1.127   3.926   1.018 -0.6581  0.1595 -0.2984
 3325SOL    HW120014   1.150   3.836   0.980 -1.7405 -0.4707  0.4795
 3325SOL    HW220015   1.201   3.957   1.078  0.3302  0.4256 -1.6429
 3326SOL     OW20016   3.625   4.834   2.536  0.0875  0.1485  0.0169
 3326SOL    HW120017   3.616   4.933   2.535  0.6804  0.2171  1.1131
 3326SOL    HW220018   3.705   4.808   2.589  0.6232 -0.8728 -1.2531
 3327SOL     OW20019   1.037   6.745   2.430 -0.1903  0.4411  0.2509
 3327SOL    HW120020   1.114   6.727   2.368 -1.5941 -0.3624 -1.3103
 3327SOL    HW220021   1.039   6.680   2.506  0.1342 -0.2032 -0.3031
 3328SOL     OW20022   0.081   2.004   2.523 -0.6389 -0.3526  0.0046
 3328SOL    HW120023   0.053   2.096   2.552 -1.3763 -0.4147 -0.4931
 3328SOL    HW220024   0.072   1.997   2.424  0.5428 -0.5849 -0.0885
 3329SOL     OW20025   0.872   6.611   2.247 -0.3028 -0.4617 -0.1666
 3329SOL    HW120026   0.774   6.629   2.260 -0.3687 -1.8922  1.4961
 3329SOL    HW220027   0.925   6.674   2.304 -0.2616 -0.1155 -0.5808
 3330SOL     OW20028   1.701   6.665   0.535  0.7507  0.1881 -0.3195
 3330SOL    HW120029   1.754   6.587   0.502 -1.2928  0.0112 -3.3162
 3330SOL    HW220030   1.624   6.632   0.589  1.3492  0.2639  0.5885
 3331SOL     OW20031   3.687   9.251   0.201 -0.2758  0.0951 -0.3751
 3331SOL    HW120032   3.648   9.190   0.132 -0.1606 -0.2907 -0.0965
 3331SOL    HW220033   3.738   9.198   0.269 -0.8965  0.4146  0.3455
 3332SOL     OW20034   2.555   8.784   1.415 -0.1955  0.0321 -0.1297
 3332SOL    HW120035   2.598   8.732   1.489 -0.1196  0.3787  0.0675
 3332SOL    HW220036   2.511   8.866   1.452  2.1711  1.6616 -0.8379
 3333SOL     OW20037   2.462   4.893   0.085  0.0875  0.1417 -0.3497
 3333SOL    HW120038   2.403   4.820   0.050 -0.3882  0.6215 -0.5477
 3333SOL    HW220039   2.494   4.949   0.008  1.1065 -0.3379 -0.2881
 3334SOL     OW20040   2.146   6.603   1.492  0.5230 -0.4847 -0.4754
 3334SOL    HW120041   2.186   6.681   1.446 -0.5035 -0.4202 -1.2747
 3334SOL    HW220042   2.132   6.529   1.426 -1.5375 -0.1634 -0.4167
 3335SOL     OW20043   2.786   8.768   0.525 -0.1829 -0.3620 -0.0470
 3335SOL    HW120044   2.798   8.767   0.426  0.5530 -0.9977  0.0439
 3335SOL    HW220045   2.804   8.860   0.561  1.6999 -0.6420 -0.2443
 3336SOL     OW20046   0.174   4.715   1.534 -0.3134  0.0523 -0.1335
 3336SOL    HW120047   0.137   4.804   1.560  0.7744  1.0021 -1.7263
 3336SOL    HW220048   0.234   4.681   1.607 -1.1720  0.3569  0.7174
 3337SOL     OW20049   8.642   1.856   2.237  0.7253  0.0485  0.1783
 3337SOL    HW120050   8.549   1.864   2.200  1.8365  1.4199 -2.4211
 3337SOL    HW220051   8.644   1.896   2.329 -1.2131  0.1141  0.2204
 3338SOL     OW20052   9.972   5.325   1.595 -0.0147 -0.0503  0.4357
 3338SOL    HW120053   9.973   5.394   1.668 -0.1913 -0.7589  1.1117
 3338SOL    HW220054   9.988   5.370   1.507  1.4506  0.6547  1.0433
 3339SOL     OW20055   0.607   5.661   0.545  0.3910  0.3891 -0.0873
 3339SOL    HW120056   0.656   5.663   0.458  0.3971  1.5146 -0.0647
 3339SOL    HW220057   0.616   5.749   0.590  0.1303 -0.0963  0.9164
 3340SOL     OW20058   1.832   4.220   0.934 -0.4458  0.6353 -0.4463
 3340SOL    HW120059   1.782   4.147   0.888  0.5321  0.5764 -1.4466
 3340SOL    HW220060   1.913   4.244   0.880  1.0174  0.2155  1.5114
 3341SOL     OW20061   2.525   7.201   1.590 -0.2297  0.2544 -0.4093
 3341SOL    HW120062   2.623   7.216   1.601 -0.3354  1.2049 -0.7508
 3341SOL    HW220063   2.474   7.266   1.646 -0.6699 -0.1565 -0.3289
 3342SOL     OW20064   1.745   4.755   1.917 -0.1782 -0.1857 -0.3233
 3342SOL    HW120065   1.709   4.684   1.857 -1.0396 -0.7785  0.8865
 3342SOL    HW220066   1.817   4.716   1.975  0.2191  0.2336 -0.5300
 3343SOL     OW20067   9.620   5.997   0.707  0.3813  0.1976 -0.4418
 3343SOL    HW120068   9.717   5.975   0.719  0.6768  1.0268 -1.2933
 3343SOL    HW220069   9.601   6.086   0.749 -0.8351 -1.6253  3.0970
 3344SOL     OW20070   9.866   2.135   2.128 -0.1279  0.4074 -0.5548
 3344SOL    HW120071   9.913   2.223   2.135 -0.3898  0.5831 -0.9616
 3344SOL    HW220072   9.837   2.120   2.033 -1.2603  0.4962 -0.2369
 3345SOL     OW20073   4.393   4.284   0.849 -0.2753  0.3945  0.2981
 3345SOL    HW120074   4.447   4.357   0.891  0.1189 -0.3669  1.1302
 3345SOL    HW220075   4.329   4.247   0.917 -0.3335 -0.1754 -0.0703
 3346SOL     OW20076   2.172   4.977   1.062  0.4981  0.3926 -0.5822
 3346SOL    HW120077   2.074   4.972   1.079  0.6006  1.6096  0.4520
 3346SOL    HW220078   2.220   4.912   1.120  0.3937  0.6942 -0.1486
 3347SOL     OW20079   3.414   2.103   1.057  0.0920  0.4020  0.2835
 3347SOL    HW120080   3.327   2.081   1.012  0.3726 -1.2469  0.5364
 3347SOL    HW220081   3.448   2.023   1.106  0.1594  1.9509  2.8663
 3348SOL     OW20082   8.991   1.652   0.828 -0.6573  0.4621 -0.1716
 3348SOL    HW120083   9.033   1.575   0.876 -1.1646 -1.0432 -2.0742
 3348SOL    HW220084   8.985   1.631   0.730 -1.2290  2.7405 -0.6468
 3349SOL     OW20085   0.929   2.055   0.553  0.3806 -0.2397  0.1238
 3349SOL    HW120086   0.983   2.016   0.628 -0.2839 -2.3690 -0.4902
 3349SOL    HW220087   0.976   2.040   0.466  0.3729  0.8285 -0.0776
 3350SOL     OW20088   2.620   7.553   1.019  0.1874  0.0024  0.3163
 3350SOL    HW120089   2.655   7.641   0.986  2.5650 -1.0748 -0.0838
 3350SOL    HW220090   2.591   7.497   0.941 -0.8968  0.2291  0.5438
 3351SOL     OW20091   8.705   5.443   1.173 -0.2485 -0.0946 -0.1279
 3351SOL    HW120092   8.798   5.474   1.192 -0.9024  0.6803  1.9227
 3351SOL    HW220093   8.651   5.520   1.138 -0.4489 -0.2410 -0.1394
 3352SOL     OW20094   3.273   0.326   1.473  0.2022 -0.0214  0.1301
 3352SOL    HW120095   3.346   0.342   1.539 -0.2549  2.0504  0.1796
 3352SOL    HW220096   3.239   0.414   1.439 -2.5347 -0.9160  0.4010
 3353SOL     OW20097   1.142   3.740   1.773  0.2990  0.2155  0.0747
 3353SOL    HW120098   1.186   3.792   1.846 -1.6000  0.6182  0.9312
 3353SOL    HW220099   1.047   3.769   1.762  0.4098 -0.1613 -2.2396
 3354SOL     OW20100   0.315   2.415   1.918 -0.7036  0.5783  0.1003
 3354SOL    HW120101   0.354   2.333   1.962 -0.1134  0.4363 -0.6653
 3354SOL    HW220102   0.329   2.409   1.819  0.5531  2.2285  0.1494
 3355SOL     OW20103   8.783   3.340   1.987 -0.2432  0.2378 -0.0505
 3355SOL    HW120104   8.847   3.319   1.913 -0.7637  2.4219 -1.1674
 3355SOL    HW220105   8.754   3.256   2.031  0.7323 -1.0506 -1.8090
 3356SOL     OW20106   2.131   4.000   1.597 -0.2477 -0.1626  0.2339
 3356SOL    HW120107   2.038   4.034   1.609 -0.2547 -0.3462  0.7074
 3356SOL    HW220108   2.165   3.963   1.684  1.0382  1.8153  0.6018
 3357SOL     OW20109   2.476   2.818   2.160 -0.6332 -0.0398  0.0601
 3357SOL    HW120110   2.461   2.900   2.215 -0.8370  0.0177 -0.0805
 3357SOL    HW220111   2.529   2.843   2.078  1.7680 -0.5474  1.4188
 3358SOL     OW20112   0.201   7.513   0.994 -0.1226  0.3135 -0.4738
 3358SOL    HW120113   0.262   7.552   1.063 -1.7719  1.3136  0.4326
 3358SOL    HW220114   0.242   7.526   0.903  1.6709 -0.2959  0.2183
 3359SOL     OW20115   1.368   3.456   2.219  0.0107 -0.3498 -0.3782
 3359SOL    HW120116   1.422   3.531   2.257 -0.4346 -0.0214 -0.3846
 3359SOL    HW220117   1.427   3.397   2.163  1.0315 -1.8048  2.1590
 3360SOL     OW20118   4.400   1.328   1.449 -0.0411 -0.1725  0.1032
 3360SOL    HW120119   4.362   1.237   1.468 -2.1209  0.8260  0.8390
 3360SOL    HW220120   4.498   1.327   1.468  0.2640 -2.6697 -1.3359
 3361SOL     OW20121   9.000   4.522   1.802  0.1081  0.7304  0.3742
 3361SOL    HW120122   8.918   4.465   1.798 -0.2648  1.3475 -0.9651
 3361SOL    HW220123   9.080   4.469   1.776  0.0469  0.3041  1.0420
 3362SOL     OW20124   2.154   8.375   0.990 -0.2526  0.1900  0.6409
 3362SOL    HW120125   2.221   8.312   0.951 -1.8848 -1.5460  0.5702
 3362SOL    HW220126   2.090   8.404   0.919 -0.0148  1.3051  0.8627
 3363SOL     OW20127   9.296   3.547   1.117 -0.0393 -0.2347 -0.4425
 3363SOL    HW120128   9.252   3.596   1.042  1.1793  1.9178  0.2140
 3363SOL    HW220129   9.369   3.489   1.081 -1.8097 -2.0020 -1.2735
 3364SOL     OW20130   1.006   2.386   1.927 -0.5063  0.0239 -0.0522
 3364SOL    HW120131   0.940   2.310   1.930  0.2840 -0.6356  3.6884
 3364SOL    HW220132   1.042   2.402   2.019  1.5342  3.0675 -1.3034
 3365SOL     OW20133   3.487   2.281   2.281  0.3763 -0.0617  0.1833
 3365SOL    HW120134   3.487   2.227   2.365 -2.2358 -0.7307 -0.1842
 3365SOL    HW220135   3.468   2.222   2.203  1.5810  0.7501 -0.7456
 3366SOL     OW20136   9.683   1.702   1.454  0.5520  0.6973  0.4296
 3366SOL    HW120137   9.679   1.791   1.500 -1.4464  1.6065 -1.4117
 3366SOL    HW220138   9.744   1.708   1.375 -1.0146  1.0076 -0.7916
 3367SOL     OW20139   2.771   1.133   1.632  0.1059  0.0174 -0.4489
 3367SOL    HW120140   2.714   1.078   1.693  0.5880 -0.9029 -0.8254
 3367SOL    HW220141   2.864   1.136   1.666  0.7368 -1.7662 -1.9152
 3368SOL     OW20142   1.659   0.474   0.421  0.5227  0.5858 -0.7689
 3368SOL    HW120143   1.749   0.430   0.417  0.2163 -0.7606  3.8108
 3368SOL    HW220144   1.588   0.407   0.397  0.5186  0.7052 -1.0940
 3369SOL     OW20145   4.218   2.649   1.648 -0.3048  0.0607 -0.1711
 3369SOL    HW120146   4.301   2.594   1.647 -0.1481  0.2912 -0.0177
 3369SOL    HW220147   4.139   2.592   1.624 -0.1635 -0.2565  0.1226
 3370SOL     OW20148   2.203   7.296   1.416 -0.2951 -0.1171 -0.0467
 3370SOL    HW120149   2.261   7.216   1.429  0.3150  0.1711 -1.0084
 3370SOL    HW220150   2.200   7.321   1.319 -0.0150  1.3682  0.3109
 3371SOL     OW20151   8.976   1.669   0.557  0.3647  0.2961  0.6707
 3371SOL    HW120152   8.925   1.752   0.531 -0.4529 -0.1340  0.8975
 3371SOL    HW220153   9.063   1.668   0.508  0.6827  1.6341  1.1798
 3372SOL     OW20154   0.132   9.817   1.766 -0.7358 -0.1229 -0.1235
 3372SOL    HW120155   0.212   9.761   1.790 -0.2277  0.4481 -0.4701
 3372SOL    HW220156   0.065   9.759   1.719 -0.4469 -0.5679  0.0048
 3373SOL     OW20157   1.566   3.362   0.806 -0.4715  0.2397 -0.3378
 3373SOL    HW120158   1.557   3.449   0.854  1.2514 -0.7114  1.7998
 3373SOL    HW220159   1.599   3.378   0.713  1.8015  1.7404  0.6959
 3374SOL     OW20160   1.152   5.417   1.056 -0.1931  0.0007 -0.0299
 3374SOL    HW120161   1.172   5.352   1.129 -1.3447  1.2508  1.4428
 3374SOL    HW220162   1.071   5.470   1.081 -0.6997  0.3343 -2.3073
 3375SOL     OW20163   3.019   2.559   0.755 -0.2584  0.1748  0.1356
 3375SOL    HW120164   2.997   2.467   0.721 -0.7466  0.5692 -0.6344
 3375SOL    HW220165   3.069   2.551   0.841  0.4400 -0.8280 -0.3506
 3376SOL     OW20166   2.130   4.722   2.243  0.1825  0.2170 -0.5385
 3376SOL    HW120167   2.062   4.796   2.234 -0.4028 -0.3476 -0.7790
 3376SOL    HW220168   2.191   4.742   2.320 -1.4664 -0.2388  0.9126
 3377SOL     OW20169   3.839   4.765   0.082  0.0979  0.2479 -0.1255
 3377SOL    HW120170   3.938   4.766   0.065  0.0720 -0.6849 -0.3525
 3377SOL    HW220171   3.820   4.719   0.168 -0.1445  0.3756 -0.1106
 3378SOL     OW20172   2.325   4.559   1.780  0.3770  0.0640 -0.1386
 3378SOL    HW120173   2.239   4.520   1.813 -0.0252  0.6220 -0.5023
 3378SOL    HW220174   2.305   4.635   1.718  1.1357 -0.1977 -0.7077
 3379SOL     OW20175   9.938   1.044   0.020  0.0170 -0.1855  0.0929
 3379SOL    HW120176  10.025   1.062   0.066 -0.1385 -0.9914  0.7046
 3379SOL    HW220177   9.919   1.118  -0.045  1.4642 -0.3147 -0.5010
 3380SOL     OW20178   1.346   2.028   0.632  0.2409 -0.2475  0.8189
 3380SOL    HW120179   1.406   2.098   0.594 -0.6576 -0.8877 -1.9151
 3380SOL    HW220180   1.400   1.962   0.684  1.6636  0.1012 -0.2047
 3381SOL     OW20181   3.752   2.259   0.712  0.4972 -0.2369  0.0579
 3381SOL    HW120182   3.681   2.328   0.694 -1.2293 -1.7154  0.9618
 3381SOL    HW220183   3.840   2.305   0.727  0.1729  1.5334 -2.9568
 3382SOL     OW20184   3.600   8.423   1.139  0.6263  0.0482 -0.1252
 3382SOL    HW120185   3.659   8.343   1.149  0.5196 -0.1262 -0.8766
 3382SOL    HW220186   3.592   8.469   1.227  1.6287 -0.1084  0.0526
 3383SOL     OW20187   1.570   7.476   1.880  0.2595  0.1178 -0.3227
 3383SOL    HW120188   1.484   7.428   1.897 -0.3906  1.9913  1.9403
 3383SOL    HW220189   1.576   7.555   1.940  3.0771  0.6575 -1.2525
 3384SOL     OW20190   0.530   4.251   1.795 -0.2575 -0.4328 -0.1647
 3384SOL    HW120191   0.475   4.298   1.864  1.1105 -0.0278  0.6667
 3384SOL    HW220192   0.509   4.288   1.704  0.3470  1.3877  0.4078
 3385SOL     OW20193   9.679   2.126   1.875 -0.2425  0.2707 -0.3129
 3385SOL    HW120194   9.704   2.215   1.836 -0.2943  0.4666  0.0992
 3385SOL    HW220195   9.589   2.133   1.918 -1.2187 -0.5335 -2.1520
 3386SOL     OW20196   8.818   4.946   1.282 -0.0459  0.2023 -0.2433
 3386SOL    HW120197   8.786   4.956   1.188  0.4796  1.6445 -0.2932
 3386SOL    HW220198   8.816   5.035   1.328  0.6721 -0.2923  0.7932
 3387SOL     OW20199   2.739   7.527   0.313  0.7426  0.1130 -0.1015
 3387SOL    HW120200   2.735   7.477   0.400 -1.1128  1.0645  0.3788
 3387SOL    HW220201   2.806   7.601   0.320  0.9493 -0.1156  0.3504
 3388SOL     OW20202   2.820   2.321   1.509  0.8450 -0.1396 -0.1972
 3388SOL    HW120203   2.906   2.352   1.550  0.8964  0.5964 -0.8535
 3388SOL    HW220204   2.779   2.395   1.457 -1.2468  0.1566  1.8024
 3389SOL     OW20205   0.984   5.074   2.179  0.4023 -0.7107  0.7140
 3389SOL    HW120206   1.009   5.170   2.191  0.9055 -0.8129  0.5092
 3389SOL    HW220207   0.901   5.068   2.123  1.2231 -0.4407 -0.5664
 3390SOL     OW20208   2.706   4.229   1.182  0.3541  0.2158  0.3940
 3390SOL    HW120209   2.706   4.133   1.210  0.8294  0.4008  1.0329
 3390SOL    HW220210   2.613   4.256   1.157  0.2942 -0.5293 -0.2035
 3391SOL     OW20211   9.913   3.600   1.600 -0.0219 -0.3506 -0.1380
 3391SOL    HW120212   9.821   3.563   1.605 -0.2152  0.2920  1.6251
 3391SOL    HW220213   9.979   3.527   1.621 -0.2153 -0.4497  0.1275
 3392SOL     OW20214   3.619   4.310   2.575  0.5739 -0.0162  0.6603
 3392SOL    HW120215   3.603   4.408   2.561 -1.6352 -0.5548 -0.7446
 3392SOL    HW220216   3.542   4.270   2.624  1.7353 -0.9669  1.7474
 3393SOL     OW20217   0.951   5.690   1.435 -0.1525 -0.0840 -0.2746
 3393SOL    HW120218   0.939   5.741   1.350  1.3581  0.8190  0.0424
 3393SOL    HW220219   1.025   5.623   1.423  0.2701  0.2592  0.4278
 3394SOL     OW20220   2.291   3.613   0.270  0.2324 -0.3585 -0.3766
 3394SOL    HW120221   2.317   3.529   0.317  0.2737 -0.7421 -1.0757
 3394SOL    HW220222   2.329   3.692   0.318  0.2686 -0.7466  0.2299
 3395SOL     OW20223   3.850   3.412   2.070  0.1016  0.1375 -0.3476
 3395SOL    HW120224   3.768   3.435   2.122  0.1424 -1.3685  0.4163
 3395SOL    HW220225   3.904   3.495   2.055 -1.8347  1.2218 -1.3684
 3396SOL     OW20226   0.420   2.294   0.598 -0.2444  0.6644  0.1874
 3396SOL    HW120227   0.384   2.201   0.607  0.4953  0.2042 -1.4467
 3396SOL    HW220228   0.514   2.290   0.563  0.3201  1.9692  1.5327
 3397SOL     OW20229   0.932   0.247   2.498 -0.0944  0.0483 -0.3126
 3397SOL    HW120230   0.952   0.273   2.404 -2.2215 -0.2016 -0.8715
 3397SOL    HW220231   0.999   0.180   2.530 -0.0605 -0.7813 -2.0676
 3398SOL     OW20232   1.665   7.678   0.153 -0.6617 -0.0366  0.2865
 3398SOL    HW120233   1.716   7.620   0.090 -3.0368 -0.4371 -1.3325
 3398SOL    HW220234   1.661   7.772   0.116 -2.3599 -0.3531 -0.3851
 3399SOL     OW20235   3.207   0.441   2.459 -0.5870 -0.4081 -0.6255
 3399SOL    HW120236   3.269   0.461   2.536 -0.8220 -1.7816 -0.0659
 3399SOL    HW220237   3.257   0.390   2.389 -0.9694 -1.1723 -0.3488
 3400SOL     OW20238   1.907   4.792   0.477 -0.1365 -0.7015 -0.4036
 3400SOL    HW120239   2.007   4.794   0.479 -0.1032 -0.2821 -1.7439
 3400SOL    HW220240   1.873   4.750   0.561  1.1445 -0.3328  0.3223
 3401SOL     OW20241   0.928   5.832   1.221 -0.1001  0.0843 -0.3739
 3401SOL    HW120242   0.840   5.875   1.202 -0.2806  0.4587  1.2200
 3401SOL    HW220243   0.999   5.903   1.223 -0.1430  0.1137  0.6351
 3402SOL     OW20244   3.612   3.536   2.127  0.2180 -0.0561 -0.3767
 3402SOL    HW120245   3.649   3.624   2.158 -0.2932  0.6570 -1.7707
 3402SOL    HW220246   3.524   3.550   2.082 -0.6393 -1.4742  0.7937
 3403SOL     OW20247   0.161   5.475   0.007 -0.1248 -0.4696  0.2257
 3403SOL    HW120248   0.134   5.569   0.025  1.5205 -0.2470  1.6726
 3403SOL    HW220249   0.254   5.459   0.041 -0.2211 -2.5077 -0.3453
 3404SOL     OW20250   9.560   3.968   0.266  0.1775  0.6933  0.2516
 3404SOL    HW120251   9.482   3.976   0.327 -0.4382 -0.1051 -0.4118
 3404SOL    HW220252   9.535   3.999   0.174  1.0977  1.8924  0.3918
 3405SOL     OW20253   1.180   0.143   1.386 -0.1356  0.2248  0.1509
 3405SOL    HW120254   1.169   0.120   1.483 -1.0215  0.2660  0.0633
 3405SOL    HW220255   1.263   0.100   1.351  0.9284  1.3557  1.2740
 3406SOL     OW20256   1.032   2.197   0.133  0.1779  0.0850 -0.5858
 3406SOL    HW120257   1.049   2.099   0.128 -0.4709 -0.0110 -0.9846
 3406SOL    HW220258   1.112   2.243   0.171  1.1514 -0.4133 -1.9990
 3407SOL     OW20259   9.631   2.092   2.289  0.0582  0.6565 -0.1850
 3407SOL    HW120260   9.720   2.117   2.252  0.4221 -0.7878 -0.2844
 3407SOL    HW220261   9.641   2.021   2.358 -1.1767 -0.8082 -1.4812
 3408SOL     OW20262   1.708   8.198   2.226  0.2104  0.3865  0.0649
 3408SOL    HW120263   1.695   8.135   2.150 -0.4229  1.2089 -0.5101
 3408SOL    HW220264   1.741   8.147   2.306  2.6608 -0.2096 -1.2709
 3409SOL     OW20265   1.720   6.840   0.099 -0.5711  0.4119  0.1136
 3409SOL    HW120266   1.678   6.915   0.049 -3.1587 -0.4633  0.8819
 3409SOL    HW220267   1.697   6.847   0.196  0.6692 -0.3877  0.4843
 3410SOL     OW20268   9.854   0.902   2.043 -0.2667  0.1585  0.0218
 3410SOL    HW120269   9.802   0.820   2.017  0.4670 -0.1645 -0.4632
 3410SOL    HW220270   9.792   0.971   2.078 -0.8097 -0.8956  1.1687
 3411SOL     OW20271   9.761   5.442   2.155 -1.2760  0.0296  0.0544
 3411SOL    HW120272   9.777   5.390   2.239 -0.9774  0.6971  0.4156
 3411SOL    HW220273   9.797   5.391   2.077 -1.9885 -0.8173  0.2755
 3412SOL     OW20274   1.090   9.008   1.245 -0.3026  0.1475 -0.0509
 3412SOL    HW120275   1.119   8.956   1.325  1.0101  0.6510 -0.1833
 3412SOL    HW220276   1.005   8.970   1.209 -0.7522 -0.2454  1.4181
 3413SOL     OW20277   3.981   3.760   0.240  0.0912 -0.0266  0.4777
 3413SOL    HW120278   4.030   3.847   0.242  1.8032 -0.9772  0.5747
 3413SOL    HW220279   4.046   3.685   0.228 -1.2014 -1.4199  1.9206
 3414SOL     OW20280   1.724   8.300   0.868  0.3255  0.4122 -0.1824
 3414SOL    HW120281   1.633   8.325   0.835  0.1142  0.2352  0.2583
 3414SOL    HW220282   1.716   8.258   0.958  1.0412  2.6997  1.0045
 3415SOL     OW20283   1.253   4.378   0.919 -0.1272  0.4569 -0.3503
 3415SOL    HW120284   1.238   4.428   0.834 -0.5613  0.1539 -0.4522
 3415SOL    HW220285   1.206   4.290   0.915  3.6029 -1.6189 -1.6479
 3416SOL     OW20286   0.264   8.535   1.382 -0.2707 -0.4063  0.1705
 3416SOL    HW120287   0.192   8.591   1.423  2.1820  2.0310  1.3417
 3416SOL    HW220288   0.291   8.463   1.446 -0.3242 -0.1132  0.5225
 3417SOL     OW20289   2.967   7.197   2.301  0.2801  0.5166 -0.1500
 3417SOL    HW120290   2.983   7.099   2.312  2.4592  0.8683  0.0318
 3417SOL    HW220291   2.895   7.211   2.233 -0.5539 -1.2153  0.3455
 3418SOL     OW20292   1.445   9.423   0.067  0.2113 -0.0383  0.0980
 3418SOL    HW120293   1.466   9.520   0.080 -2.9459  0.6771  0.3590
 3418SOL    HW220294   1.431   9.405  -0.030 -0.6561  0.0953  0.1978
 3419SOL     OW20295   2.863   8.878   1.067 -0.4330 -0.0117  0.2556
 3419SOL    HW120296   2.801   8.811   1.108 -1.1436 -0.4805 -1.5220
 3419SOL    HW220297   2.950   8.834   1.044 -0.5717 -0.1093 -0.0863
 3420SOL     OW20298   1.116   2.479   2.445 -0.3652 -0.1228  0.1849
 3420SOL    HW120299   1.083   2.386   2.463  0.1302 -0.5823 -1.2529
 3420SOL    HW220300   1.086   2.540   2.519 -2.0516 -1.0995  0.3202
 3421SOL     OW20301   0.102   6.054   1.142  0.0242  0.0955  0.4608
 3421SOL    HW120302   0.025   5.991   1.140  0.9701 -1.1400  1.5906
 3421SOL    HW220303   0.072   6.142   1.177 -1.3589  0.3614 -1.3601
 3422SOL     OW20304   1.444   1.056   0.794  0.3525  0.2712  0.0627
 3422SOL    HW120305   1.451   1.136   0.854  3.0568  0.0530  0.1105
 3422SOL    HW220306   1.397   0.982   0.842 -0.8564  1.3385  0.5492
 3423SOL     OW20307   1.134   7.445   0.352 -0.0663 -0.0351 -0.4083
 3423SOL    HW120308   1.221   7.494   0.353 -0.4312  0.6027  0.1858
 3423SOL    HW220309   1.091   7.454   0.262 -0.5715  1.5143 -0.0187
 3424SOL     OW20310   0.983   7.695   0.135 -0.2866 -0.0411 -0.2423
 3424SOL    HW120311   0.993   7.740   0.224 -2.6926 -0.5718  0.3434
 3424SOL    HW220312   1.073   7.682   0.094  0.8930  0.1260  2.1753
 3425SOL     OW20313   1.954   8.359   0.506 -0.1617  0.2472  0.3359
 3425SOL    HW120314   1.971   8.266   0.473 -0.4400  0.1540  0.4533
 3425SOL    HW220315   1.929   8.418   0.429 -0.4989  0.1024  0.3324
 3426SOL     OW20316   8.823   3.854   0.920  1.1495  0.5110 -0.0631
 3426SOL    HW120317   8.849   3.945   0.888  0.7713  0.3028 -0.9766
 3426SOL    HW220318   8.832   3.789   0.844  0.2357  0.0093  0.2533
 3427SOL     OW20319   0.981   0.448   0.858 -0.1261 -0.2553  0.4593
 3427SOL    HW120320   1.028   0.370   0.899 -0.2074 -0.3923  0.2914
 3427SOL    HW220321   0.882   0.434   0.863 -0.1694  0.3287  1.3984
 3428SOL     OW20322   3.190   0.147   2.216 -0.5160 -0.0054  0.2934
 3428SOL    HW120323   3.180   0.047   2.212 -0.6673 -0.0128  0.8283
 3428SOL    HW220324   3.111   0.190   2.172 -1.4598 -0.1002  1.8721
 3429SOL     OW20325   3.166   2.050   0.927 -0.1202  0.1010 -0.2847
 3429SOL    HW120326   3.151   2.112   1.005 -1.0869  0.2647 -0.5873
 3429SOL    HW220327   3.077   2.025   0.888  0.2914 -1.1577 -0.4222
 3430SOL     OW20328   0.864   8.052   0.866 -0.3145  0.1716 -0.0958
 3430SOL    HW120329   0.913   8.052   0.953  1.0478 -1.9068 -0.8259
 3430SOL    HW220330   0.766   8.058   0.883  0.0361  2.2568  1.4676
 3431SOL     OW20331   1.543   8.406   2.336  0.1278 -0.1453  0.2947
 3431SOL    HW120332   1.534   8.365   2.426  1.2100  1.9112  1.3809
 3431SOL    HW220333   1.596   8.346   2.276 -0.6857 -1.5638  0.9844
 3432SOL     OW20334   2.545   0.836   1.423  0.3183 -0.2236  0.5804
 3432SOL    HW120335   2.623   0.778   1.447 -0.5220 -2.4581 -1.8021
 3432SOL    HW220336   2.460   0.783   1.434 -0.5424  0.8799 -0.6550
 3433SOL     OW20337   9.642   6.081   1.124  0.3196  0.0989 -0.2604
 3433SOL    HW120338   9.608   6.093   1.217  1.6000 -0.2050  0.2660
 3433SOL    HW220339   9.711   6.151   1.105  0.8051 -0.4711 -0.6126
 3434SOL     OW20340   9.494   5.440   0.759 -0.1995  0.5685  0.3654
 3434SOL    HW120341   9.495   5.538   0.744 -0.0225  0.3964 -0.7506
 3434SOL    HW220342   9.585   5.409   0.786 -0.1567  0.6444  0.3043
 3435SOL     OW20343   1.449   4.198   0.182 -0.5541  0.5469  0.4591
 3435SOL    HW120344   1.374   4.249   0.225 -1.7395  0.4671 -1.4625
 3435SOL    HW220345   1.462   4.231   0.089  1.8573  0.5840  0.7884
 3436SOL     OW20346   1.933   4.586   2.046 -0.2384  0.0780 -0.6418
 3436SOL    HW120347   1.881   4.524   2.106 -0.5989 -0.1080 -1.1466
 3436SOL    HW220348   1.991   4.645   2.102  1.3490 -1.8135 -0.2044
 3437SOL     OW20349   3.407   1.521   1.336  0.5006 -0.0256  0.1691
 3437SOL    HW120350   3.386   1.482   1.246 -0.2435  0.7599 -0.0081
 3437SOL    HW220351   3.502   1.551   1.338 -0.2165  2.4462 -1.2992
 3438SOL     OW20352   1.126   4.164   1.371  0.8078 -0.5190 -0.1596
 3438SOL    HW120353   1.194   4.224   1.414 -1.8521  1.0912  2.0004
 3438SOL    HW220354   1.081   4.212   1.296  1.7161 -1.4053 -1.2771
 3439SOL     OW20355   9.816   3.747   0.591  0.3420  0.0635 -0.4213
 3439SOL    HW120356   9.855   3.658   0.566 -0.2690 -0.3841  0.2097
 3439SOL    HW220357   9.730   3.760   0.543 -0.5498 -0.5508  0.9844
 3440SOL     OW20358   1.721   2.866   0.199 -0.3442  0.0225  0.6055
 3440SOL    HW120359   1.721   2.935   0.271 -2.4068 -0.8113  1.4350
 3440SOL    HW220360   1.810   2.820   0.197  1.3441  3.2015 -0.4888
 3441SOL     OW20361   8.803   4.357   1.701 -0.3120 -0.1202  1.2661
 3441SOL    HW120362   8.806   4.413   1.618  2.2624 -0.6144  0.9734
 3441SOL    HW220363   8.721   4.300   1.700 -0.1992 -0.2915 -1.0526
 3442SOL     OW20364   4.084   1.057   0.717  0.1326  0.1313  0.2388
 3442SOL    HW120365   4.039   1.143   0.697  0.1795  0.1164  0.0736
 3442SOL    HW220366   4.150   1.070   0.791 -1.4134 -0.2172  1.7148
 3443SOL     OW20367   2.367   0.129   0.101  0.5414 -0.0043 -0.0617
 3443SOL    HW120368   2.319   0.056   0.150 -1.6137  0.9926 -0.6206
 3443SOL    HW220369   2.406   0.193   0.168 -0.4045  0.0951  0.4183
 3444SOL     OW20370   0.742   4.641   1.826 -0.1010  0.0620 -0.1229
 3444SOL    HW120371   0.694   4.606   1.746 -0.3243  1.1987 -0.4995
 3444SOL    HW220372   0.675   4.676   1.892  0.1798  1.2972 -0.4814
 3445SOL     OW20373   9.982   3.366   0.013  0.0956 -0.4989 -0.5961
 3445SOL    HW120374  10.017   3.460   0.006 -0.0819 -0.4999 -1.6001
 3445SOL    HW220375   9.992   3.321  -0.075 -3.7610 -0.0471 -1.3558
 3446SOL     OW20376   0.394   9.046   1.764 -0.3474 -0.4787  0.1859
 3446SOL    HW120377   0.346   9.067   1.679 -0.1752 -1.1336 -0.0734
 3446SOL    HW220378   0.430   9.131   1.803 -0.4398 -0.1731 -0.3844
 3447SOL     OW20379   1.532   6.808   1.573  0.0000  0.4230 -0.0145
 3447SOL    HW120380   1.449   6.861   1.556 -0.3682 -0.6753 -1.6882
 3447SOL    HW220381   1.521   6.715   1.539  2.5570  0.7436 -1.9282
 3448SOL     OW20382   1.861   7.336   1.995 -0.1252  0.1605 -0.2790
 3448SOL    HW120383   1.783   7.301   1.942  0.3511  0.6953 -1.3639
 3448SOL    HW220384   1.946   7.307   1.951  0.3020 -0.6251  1.0348
 3449SOL     OW20385   1.682   1.489   1.773 -0.0446  0.0446 -0.2437
 3449SOL    HW120386   1.739   1.565   1.741  0.1868 -0.2291 -0.4761
 3449SOL    HW220387   1.698   1.408   1.717 -1.9001  0.4370 -1.3592
 3450SOL     OW20388   9.514   1.735   0.340 -0.8403  0.6401 -0.3720
 3450SOL    HW120389   9.449   1.701   0.272  0.2848  0.1550 -1.2192
 3450SOL    HW220390   9.507   1.835   0.345 -0.8233  0.6950 -1.3118
 3451SOL     OW20391   1.032   9.315   1.607  0.4875  0.1946  0.3422
 3451SOL    HW120392   0.953   9.286   1.661  1.4998  0.5886  2.0732
 3451SOL    HW220393   1.024   9.279   1.514 -0.7887 -1.3811  1.0359
 3452SOL     OW20394   0.479   8.370   0.158  0.1310 -0.7349 -0.7597
 3452SOL    HW120395   0.525   8.283   0.139 -0.0841 -1.1891  0.7545
 3452SOL    HW220396   0.547   8.440   0.181  0.3304 -0.4010 -2.3297
 3453SOL     OW20397   4.682   3.608   2.346 -0.2461  0.3998  0.1614
 3453SOL    HW120398   4.644   3.679   2.287 -0.3558  1.5991  1.6437
 3453SOL    HW220399   4.734   3.651   2.419  1.3718 -1.1237 -0.0653
 3454SOL     OW20400   4.195   2.281   1.738 -0.3062 -0.1548  0.0324
 3454SOL    HW120401   4.212   2.330   1.823  0.2585  0.4218 -0.4087
 3454SOL    HW220402   4.230   2.188   1.745  2.1595  0.7079 -0.4966
 3455SOL     OW20403   0.371   5.555   0.356 -0.1456  0.1714 -0.1451
 3455SOL    HW120404   0.297   5.620   0.338 -1.0930 -0.7108  0.4649
 3455SOL    HW220405   0.444   5.601   0.407 -0.6235  0.8576 -0.0673
 3456SOL     OW20406   4.391   3.853   0.964  0.7352  0.8183 -0.5335
 3456SOL    HW120407   4.376   3.930   0.902 -1.2683  0.4994 -0.4830
 3456SOL    HW220408   4.456   3.789   0.923 -0.3867  0.7244 -2.2191
 3457SOL     OW20409   2.661   8.603   0.151 -0.4177 -0.4169  0.3437
 3457SOL    HW120410   2.748   8.627   0.194  0.0588 -2.0519  0.3370
 3457SOL    HW220411   2.674   8.596   0.052 -0.6696 -0.1581  0.2949
 3458SOL     OW20412   2.318   2.848   1.127  0.2659  0.0829  0.5434
 3458SOL    HW120413   2.311   2.774   1.194 -0.2082 -0.1197  0.2755
 3458SOL    HW220414   2.401   2.835   1.073  0.2626 -0.1704  0.5985
 3459SOL     OW20415   4.745   2.362   1.560  0.1636 -0.1654  0.7279
 3459SOL    HW120416   4.686   2.433   1.519  1.9484  1.8530  1.5439
 3459SOL    HW220417   4.820   2.341   1.498 -0.7839 -1.9596  0.1531
 3460SOL     OW20418   4.322   2.224   0.782  0.3480  0.0538  0.0298
 3460SOL    HW120419   4.276   2.151   0.832 -1.3235  0.0950 -1.4207
 3460SOL    HW220420   4.355   2.293   0.847 -2.1125  0.2870  1.0722
 3461SOL     OW20421   1.162   7.653   0.999 -0.4244  0.6792 -0.6293
 3461SOL    HW120422   1.240   7.591   0.988 -1.2788 -1.0008  2.1819
 3461SOL    HW220423   1.181   7.715   1.075 -1.1777  1.2980 -0.9509
 3462SOL     OW20424   1.935   1.527   0.127 -0.4463  0.6639  0.1453
 3462SOL    HW120425   1.901   1.477   0.047  1.1788  0.5550 -0.4991
 3462SOL    HW220426   1.985   1.607   0.097  2.0532 -0.5526  0.9512
 3463SOL     OW20427   2.669   2.421   1.279  0.1718  0.1908 -0.5765
 3463SOL    HW120428   2.718   2.508   1.268  0.8125 -0.1521 -0.4449
 3463SOL    HW220429   2.659   2.377   1.190  0.6504 -0.0381 -0.5148
 3464SOL     OW20430   9.702   6.209   2.388  0.2277  0.1680 -0.5591
 3464SOL    HW120431   9.668   6.123   2.425 -0.9714  0.8914  0.0416
 3464SOL    HW220432   9.674   6.217   2.292  0.0401  0.0587 -0.5135
 3465SOL     OW20433   4.175   1.527   2.300  0.2072  0.2361 -0.4294
 3465SOL    HW120434   4.238   1.552   2.373 -0.7052  0.8658  0.1571
 3465SOL    HW220435   4.202   1.573   2.215  1.8621 -1.2992 -0.7476
 3466SOL     OW20436   3.960   0.412   2.535  0.0148  0.9310 -0.5771
 3466SOL    HW120437   3.889   0.482   2.539 -0.9295 -0.0081 -0.5564
 3466SOL    HW220438   3.941   0.349   2.459  0.4189  0.2549 -0.1289
 3467SOL     OW20439   3.942   4.416   0.227  0.2920 -0.2836 -0.0900
 3467SOL    HW120440   3.976   4.509   0.237 -1.2645  0.2770 -0.0197
 3467SOL    HW220441   3.955   4.387   0.132  2.3255 -0.6359  0.2551
 3468SOL     OW20442   3.656   1.912   2.168 -0.1675 -0.7411  0.5646
 3468SOL    HW120443   3.602   1.914   2.252 -0.2854 -0.2978  0.4782
 3468SOL    HW220444   3.655   1.819   2.130  0.7766 -1.1935  1.6297
 3469SOL     OW20445   1.345   1.949   2.546  0.9318  0.0593 -0.7804
 3469SOL    HW120446   1.422   1.948   2.610  0.3756  2.7062 -0.0115
 3469SOL    HW220447   1.355   2.026   2.484 -0.7218 -0.0183 -1.1576
 3470SOL     OW20448   3.170   8.325   2.510 -0.1021 -1.0580  0.0844
 3470SOL    HW120449   3.153   8.227   2.521 -0.8456 -1.0527 -0.9545
 3470SOL    HW220450   3.207   8.343   2.419 -0.6847 -0.2877 -0.0044
 3471SOL     OW20451   9.757   3.033   1.816 -0.0967  0.0043 -0.1667
 3471SOL    HW120452   9.814   2.969   1.867  3.0775  0.7464 -2.6253
 3471SOL    HW220453   9.681   2.984   1.775 -0.0115 -1.4285  1.3311
 3472SOL     OW20454   9.669   5.867   0.288 -0.1852  0.4748  0.1589
 3472SOL    HW120455   9.767   5.886   0.289 -0.0810 -0.0900  1.6132
 3472SOL    HW220456   9.648   5.794   0.354 -1.3864 -0.3638 -1.1081
 3473SOL     OW20457   8.874   1.984   1.315 -0.2071  0.6797  0.1992
 3473SOL    HW120458   8.906   1.892   1.340  0.2485  0.9627  0.6738
 3473SOL    HW220459   8.801   1.976   1.247  0.4905  0.0040 -0.4805
 3474SOL     OW20460   0.633   0.730   1.985 -0.4629  0.0943 -0.4135
 3474SOL    HW120461   0.693   0.650   1.993  2.2362  2.0768 -0.3788
 3474SOL    HW220462   0.558   0.722   2.051 -1.0889 -3.0805 -1.4025
 3475SOL     OW20463   1.310   6.114   0.366  0.4054  0.1452  0.4850
 3475SOL    HW120464   1.353   6.069   0.287  0.1824  2.8939 -1.2979
 3475SOL    HW220465   1.379   6.129   0.437  1.0759 -0.6287  0.0116
 3476SOL     OW20466   0.239   1.774   0.396  0.6254 -0.1259 -0.4373
 3476SOL    HW120467   0.310   1.833   0.356  0.5932  0.0132 -0.2923
 3476SOL    HW220468   0.281   1.714   0.465  0.4420  0.6530  0.3707
 3477SOL     OW20469   2.478   0.238   0.320  0.4277 -0.0066 -0.1884
 3477SOL    HW120470   2.560   0.293   0.306  0.1023  0.2860 -0.9936
 3477SOL    HW220471   2.400   0.299   0.339  0.6512 -0.3451  1.8705
 3478SOL     OW20472   4.023   2.822   0.081  0.3724  0.0833 -0.0595
 3478SOL    HW120473   4.063   2.748   0.027 -1.7139 -0.8626 -0.3831
 3478SOL    HW220474   3.924   2.807   0.089  0.1583  2.0106  1.1984
 3479SOL     OW20475   9.691   5.479   1.624 -0.4326 -0.5286 -0.9130
 3479SOL    HW120476   9.657   5.404   1.568 -0.8396 -0.0489 -1.3135
 3479SOL    HW220477   9.634   5.487   1.706 -0.8360 -0.1982 -1.2226
 3480SOL     OW20478   3.070   0.820   1.184  0.0890 -0.6040  0.0471
 3480SOL    HW120479   3.126   0.902   1.168  0.5204 -0.9110 -0.0376
 3480SOL    HW220480   3.130   0.740   1.192 -0.2418 -0.7280  1.3623
 3481SOL     OW20481   0.258   5.393   0.758  0.1972 -0.5451  0.6354
 3481SOL    HW120482   0.286   5.489   0.757  0.2238 -0.4812 -3.3924
 3481SOL    HW220483   0.322   5.340   0.814  1.2373  1.5203  1.4507
 3482SOL     OW20484   1.200   0.252   2.103  0.0234  0.4588  0.0552
 3482SOL    HW120485   1.154   0.312   2.037  0.7750  0.6094 -0.3336
 3482SOL    HW220486   1.261   0.190   2.054  0.7240  0.6911  0.6304
 3483SOL     OW20487   1.644   3.641   0.152 -0.6450  0.1098 -0.0891
 3483SOL    HW120488   1.691   3.723   0.184 -2.4470  1.4308 -0.7855
 3483SOL    HW220489   1.591   3.602   0.227 -0.0591 -0.2491  0.1473
 3484SOL     OW20490   8.320   1.656   0.473  0.3261  0.5177 -0.1792
 3484SOL    HW120491   8.387   1.726   0.446 -0.5671  1.2579 -0.5300
 3484SOL    HW220492   8.261   1.693   0.545 -0.0452  0.0675 -0.2533
 3485SOL     OW20493   0.400   3.128   0.078 -0.4733 -0.1592  0.1373
 3485SOL    HW120494   0.440   3.075   0.152  0.2336  0.4872  0.2268
 3485SOL    HW220495   0.339   3.197   0.116  0.6747  0.8475  0.2019
 3486SOL     OW20496   2.366   0.481   0.238 -0.0245  0.2707  0.1026
 3486SOL    HW120497   2.272   0.513   0.226 -0.8327 -2.1842 -0.4627
 3486SOL    HW220498   2.413   0.479   0.149  0.2741  0.6684  0.2522
 3487SOL     OW20499   3.770   0.503   0.785 -0.1800  0.0191  0.1597
 3487SOL    HW120500   3.844   0.456   0.738  0.0745  0.8617 -0.2911
 3487SOL    HW220501   3.754   0.592   0.742 -3.1254 -1.1627 -1.3813
 3488SOL     OW20502   3.190   2.443   1.014  0.1275 -0.0998  0.1527
 3488SOL    HW120503   3.255   2.425   1.088 -1.6817  1.4068  2.1962
 3488SOL    HW220504   3.110   2.384   1.025  0.5151 -0.9798 -1.5540
 3489SOL     OW20505   0.803   0.519   2.015  0.3726 -0.2060 -0.1916
 3489SOL    HW120506   0.902   0.508   2.024  0.4446  0.3217 -0.3032
 3489SOL    HW220507   0.774   0.486   1.925  0.3855 -0.7413 -0.0036
 3490SOL     OW20508   1.556   0.349   2.192 -0.1111 -0.1649 -0.3837
 3490SOL    HW120509   1.541   0.257   2.157 -1.8061 -0.0705  0.0417
 3490SOL    HW220510   1.473   0.381   2.239  0.0949  1.9435 -1.3735
 3491SOL     OW20511   2.708   2.652   0.552 -0.1726  0.1694  0.2082
 3491SOL    HW120512   2.699   2.643   0.453  0.5737 -0.6835  0.2091
 3491SOL    HW220513   2.759   2.735   0.573 -2.9758  2.0120  0.0100
 3492SOL     OW20514   2.762   4.121   1.664  0.3216 -0.3321 -0.1443
 3492SOL    HW120515   2.670   4.082   1.672 -0.5553  1.1107 -2.5603
 3492SOL    HW220516   2.766   4.208   1.714  1.0469 -1.4347  1.7665
 3493SOL     OW20517   0.836   7.170   1.528  0.6053 -0.4354  0.0183
 3493SOL    HW120518   0.813   7.210   1.440  0.7224  1.9177  1.0196
 3493SOL    HW220519   0.820   7.071   1.525  0.1828 -0.3219 -2.4721
 3494SOL     OW20520   0.552   8.980   0.831 -0.3713 -0.2547 -0.4515
 3494SOL    HW120521   0.545   8.971   0.931  1.6828  0.5820 -0.1972
 3494SOL    HW220522   0.524   9.072   0.804 -1.8331 -0.7840 -0.7648
 3495SOL     OW20523   8.589   2.109   1.514  0.1675 -0.4541  0.2533
 3495SOL    HW120524   8.623   2.073   1.601 -0.4826 -0.9440  0.3076
 3495SOL    HW220525   8.627   2.200   1.499  1.1297 -0.7988  0.5390
 3496SOL     OW20526   4.563   3.738   0.085  0.0755  0.1560 -0.0334
 3496SOL    HW120527   4.496   3.742   0.159 -0.3931 -0.3314 -0.4318
 3496SOL    HW220528   4.542   3.661   0.025  0.6230  0.3817 -0.5169
 3497SOL     OW20529   1.524   7.712   0.982  0.2261  0.5905  0.3093
 3497SOL    HW120530   1.453   7.779   1.004  1.9753  2.3192  0.8526
 3497SOL    HW220531   1.540   7.653   1.061  1.2965  1.9836  1.1491
 3498SOL     OW20532   8.635   1.561   0.574  0.6037 -0.0602 -0.0923
 3498SOL    HW120533   8.583   1.496   0.630 -0.1369  0.0570 -0.6435
 3498SOL    HW220534   8.720   1.519   0.544  0.7209 -0.3395  0.6068
 3499SOL     OW20535   1.482   3.914   1.715 -0.3486  0.1240  0.2921
 3499SOL    HW120536   1.391   3.946   1.689 -0.8200 -1.8218 -0.5442
 3499SOL    HW220537   1.546   3.930   1.640 -0.5884 -0.9051 -0.1328
 3500SOL     OW20538   0.921   0.526   0.334  0.1216 -0.0266 -0.2774
 3500SOL    HW120539   0.957   0.477   0.413 -1.4975 -0.5518  0.1591
 3500SOL    HW220540   0.909   0.463   0.258 -3.1489 -0.6724  0.6700
 3501SOL     OW20541   8.679   2.000   1.058 -0.0600 -0.1923  0.0773
 3501SOL    HW120542   8.610   2.005   1.130  0.4411  1.6470  0.4674
 3501SOL    HW220543   8.727   1.913   1.062 -1.1183 -0.7446  0.9481
 3502SOL     OW20544   9.744   8.006   0.766 -0.4622  0.1553 -0.3688
 3502SOL    HW120545   9.703   8.057   0.690  0.1761 -0.1989 -0.9517
 3502SOL    HW220546   9.771   8.070   0.838 -1.4316  0.4549 -0.2683
 3503SOL     OW20547   9.861   1.563   2.462 -0.4206 -0.8642  0.3606
 3503SOL    HW120548   9.877   1.662   2.456  1.8650 -1.2158  0.1262
 3503SOL    HW220549   9.825   1.530   2.375  0.3452 -0.4747 -0.1117
 3504SOL     OW20550   1.274   0.802   0.606  0.0218  0.1200  0.2094
 3504SOL    HW120551   1.292   0.745   0.526 -1.6929 -0.7257  0.4066
 3504SOL    HW220552   1.322   0.889   0.596 -0.1557  0.0215 -1.7272
 3505SOL     OW20553   1.297   3.118   1.363 -0.0455  0.5384  0.1724
 3505SOL    HW120554   1.219   3.055   1.361 -0.4539  1.0573 -0.7359
 3505SOL    HW220555   1.353   3.104   1.281  0.6257  0.4107  0.6501
 3506SOL     OW20556   9.925   3.175   0.350 -0.9722  0.8027 -0.7155
 3506SOL    HW120557   9.897   3.222   0.267 -0.2112  1.4650 -0.6095
 3506SOL    HW220558   9.861   3.196   0.424 -0.6373  1.6838 -0.6699
 3507SOL     OW20559   0.925   0.904   2.102 -0.1870  0.0321 -0.2587
 3507SOL    HW120560   0.838   0.854   2.108 -0.6839  0.6587 -1.9352
 3507SOL    HW220561   0.964   0.892   2.011 -0.0813  2.2762 -0.5458
 3508SOL     OW20562   3.626   3.857   1.895  0.2473 -0.1510  0.3214
 3508SOL    HW120563   3.707   3.805   1.865  0.5307  1.3701 -1.5950
 3508SOL    HW220564   3.638   3.884   1.991  1.9436 -0.0602  0.0985
 3509SOL     OW20565   9.583   2.255   1.031 -0.4722  0.3612 -0.0849
 3509SOL    HW120566   9.509   2.253   1.098 -1.2668 -0.9003 -0.9628
 3509SOL    HW220567   9.557   2.200   0.952  0.7296  1.2689 -1.1336
 3510SOL     OW20568   9.922   6.179   0.856  0.1702  0.3654  0.2632
 3510SOL    HW120569   9.980   6.233   0.916  0.3841  0.1000  0.2991
 3510SOL    HW220570   9.893   6.235   0.779 -0.5697  0.8685  0.9091
 3511SOL     OW20571   0.613   5.048   0.361 -0.8820  0.0165  0.4708
 3511SOL    HW120572   0.613   4.955   0.324 -0.0226 -0.9237  2.7364
 3511SOL    HW220573   0.703   5.089   0.349 -0.9900  0.2131  0.3258
 3512SOL     OW20574   8.841   1.194   0.643  0.4923 -0.3399 -0.6737
 3512SOL    HW120575   8.821   1.096   0.634 -2.8994  0.2505 -0.3342
 3512SOL    HW220576   8.834   1.238   0.554 -0.3422 -0.0275 -0.4598
 3513SOL     OW20577   2.112   4.469   0.028  0.1770  0.0210 -0.0910
 3513SOL    HW120578   2.073   4.560   0.016  1.4442  0.5555 -0.3076
 3513SOL    HW220579   2.133   4.430  -0.062  0.5732 -0.0557  0.0322
 3514SOL     OW20580   4.283   1.874   0.221 -0.2925  0.4973 -0.7728
 3514SOL    HW120581   4.377   1.847   0.244 -0.3317 -0.8926 -2.1772
 3514SOL    HW220582   4.277   1.974   0.220  0.2372  0.6688  3.0389
 3515SOL     OW20583   2.309   8.693   0.764 -0.5593 -0.1431 -0.3917
 3515SOL    HW120584   2.354   8.766   0.712 -1.0222  1.1846  1.0225
 3515SOL    HW220585   2.253   8.638   0.702  2.0870 -1.1421 -1.9908
 3516SOL     OW20586   0.377   8.364   1.205  0.1232 -0.3794  0.3705
 3516SOL    HW120587   0.315   8.420   1.260  0.3711  0.1271  0.1343
 3516SOL    HW220588   0.341   8.271   1.199 -0.0971 -0.3464  1.0785
 3517SOL     OW20589   0.753   5.616   1.654 -0.5873  0.2099 -0.0863
 3517SOL    HW120590   0.792   5.610   1.746 -1.1924 -0.4721  0.1339
 3517SOL    HW220591   0.818   5.661   1.593  0.4128 -0.6417  0.3415
 3518SOL     OW20592   1.791   4.495   1.302 -0.5206  0.0624  0.1754
 3518SOL    HW120593   1.878   4.472   1.258  0.3842  1.4177  1.2098
 3518SOL    HW220594   1.760   4.417   1.356 -1.3971 -1.4487 -2.4023
 3519SOL     OW20595   0.222   0.670   1.029  0.3630 -0.9374  0.3410
 3519SOL    HW120596   0.279   0.588   1.021  0.8390 -0.5468 -0.2987
 3519SOL    HW220597   0.192   0.698   0.938 -1.2609 -1.4235  0.7178
 3520SOL     OW20598   2.210   0.944   1.993  0.1278 -0.0600 -0.5107
 3520SOL    HW120599   2.235   1.009   2.065  1.5102  0.1112 -1.1220
 3520SOL    HW220600   2.114   0.959   1.966 -1.1010 -1.5770  2.7609
 3521SOL     OW20601   2.354   3.998   1.953  0.1551  0.4761 -0.2516
 3521SOL    HW120602   2.325   4.063   2.024 -1.1058 -0.8428  0.4628
 3521SOL    HW220603   2.274   3.962   1.905  0.9136  0.2617 -1.3711
 3522SOL     OW20604   3.346   3.911   0.480  0.2040  0.0572 -0.0978
 3522SOL    HW120605   3.355   3.933   0.577 -0.9871 -1.9433  0.4914
 3522SOL    HW220606   3.314   3.992   0.430  1.9273  1.4372  0.9586
 3523SOL     OW20607   2.357   9.952   0.637 -0.5286 -0.5995 -0.7230
 3523SOL    HW120608   2.313   9.906   0.559 -0.3515 -1.8354 -0.1040
 3523SOL    HW220609   2.365   9.888   0.713  1.5807 -0.1403 -0.5319
 3524SOL     OW20610   2.291   8.123   1.687 -0.5032  0.4187 -0.1014
 3524SOL    HW120611   2.271   8.043   1.631 -0.0307 -0.5475  1.0882
 3524SOL    HW220612   2.341   8.191   1.633 -0.9360 -0.0717 -1.1202
 3525SOL     OW20613   4.011   1.033   2.103 -0.1526  0.7655 -0.0196
 3525SOL    HW120614   3.959   1.078   2.030  0.5056  0.9769 -0.3548
 3525SOL    HW220615   4.064   0.957   2.065 -1.0580 -0.1390  0.5034
 3526SOL     OW20616   0.123   8.230   2.401  0.0645 -0.0788  0.0414
 3526SOL    HW120617   0.199   8.263   2.457  0.7115 -0.9142 -0.3500
 3526SOL    HW220618   0.061   8.306   2.382  0.8275  0.6169  0.3126
 3527SOL     OW20619   0.539   1.727   0.849  0.0082  0.6168  0.3268
 3527SOL    HW120620   0.544   1.628   0.864  0.8773  0.2192 -2.2591
 3527SOL    HW220621   0.613   1.771   0.899  1.6695 -0.4417 -1.1077
 3528SOL     OW20622   2.220   3.724   1.090  0.5612  0.4281 -0.2712
 3528SOL    HW120623   2.309   3.750   1.130 -0.7308  1.4887  2.0514
 3528SOL    HW220624   2.148   3.782   1.129 -1.5331 -2.2260 -0.0344
 3529SOL     OW20625   1.633   1.293   0.214  0.3618  0.2269 -0.1560
 3529SOL    HW120626   1.650   1.201   0.179 -0.9200 -0.3999  0.8272
 3529SOL    HW220627   1.550   1.292   0.270  1.8577  1.3816  2.1630
 3530SOL     OW20628   0.596   4.167   0.238  0.1392  0.5656 -0.4478
 3530SOL    HW120629   0.498   4.165   0.217 -0.0168  2.0469  0.1009
 3530SOL    HW220630   0.613   4.114   0.321 -0.0757 -0.3087 -0.9475
 3531SOL     OW20631   3.704   4.608   1.034 -0.1221  0.2997 -0.4084
 3531SOL    HW120632   3.698   4.708   1.038  1.3181  0.3728  0.1747
 3531SOL    HW220633   3.800   4.580   1.040 -0.6523 -1.2120  1.2867
 3532SOL     OW20634   2.056   7.958   2.002 -0.0537  0.1095 -0.1113
 3532SOL    HW120635   2.034   8.042   1.952 -1.0730 -0.2402 -0.2642
 3532SOL    HW220636   2.141   7.971   2.054 -0.8706  1.6630  0.8623
 3533SOL     OW20637   1.573   8.256   1.967 -0.4658  0.1401  0.2693
 3533SOL    HW120638   1.635   8.334   1.955  2.1142 -1.4427  2.6462
 3533SOL    HW220639   1.496   8.284   2.025  1.2031  0.5713  2.3260
 3534SOL     OW20640   1.072   8.584   2.114  0.0248  0.2725 -0.3355
 3534SOL    HW120641   1.063   8.499   2.062  0.9325  1.0936 -1.8685
 3534SOL    HW220642   1.085   8.661   2.051  1.8868  1.1793  1.1024
 3535SOL     OW20643   2.323   7.444   0.962  0.3147  0.4780  0.2430
 3535SOL    HW120644   2.292   7.532   0.925  1.7476  0.7171 -0.4039
 3535SOL    HW220645   2.403   7.413   0.912  0.9081 -0.3156  1.6574
 3536SOL     OW20646   0.578   6.287   0.304 -0.0896  0.2307 -0.0402
 3536SOL    HW120647   0.630   6.308   0.221 -0.9979 -0.0136 -0.6783
 3536SOL    HW220648   0.482   6.307   0.289 -0.4890 -1.2440  0.4397
 3537SOL     OW20649   2.719   0.352   0.259  0.5176 -0.0371 -0.1604
 3537SOL    HW120650   2.739   0.291   0.182 -0.3432  0.5181 -0.8399
 3537SOL    HW220651   2.744   0.446   0.233  0.6007  0.0903  0.3881
 3538SOL     OW20652   2.537   8.497   1.604  0.1951 -0.2098 -0.0150
 3538SOL    HW120653   2.614   8.559   1.618  0.5677 -0.5580 -0.5144
 3538SOL    HW220654   2.453   8.551   1.592  0.6539  0.2299 -1.2855
 3539SOL     OW20655   9.148   1.631   2.164 -0.3921  0.0126  0.1152
 3539SOL    HW120656   9.068   1.691   2.173 -1.7431 -1.8308  0.8299
 3539SOL    HW220657   9.230   1.681   2.190 -1.6865  1.1088  2.2634
 3540SOL     OW20658   3.032   9.985   1.892 -0.3618  1.0149  0.3053
 3540SOL    HW120659   3.083   9.901   1.910 -0.2494  1.0359  0.0924
 3540SOL    HW220660   3.093  10.054   1.854 -0.6856  0.7972 -0.6386
 3541SOL     OW20661   0.486   5.314   0.915 -0.1635  0.0395 -0.1979
 3541SOL    HW120662   0.542   5.365   0.850  0.3042 -0.8687 -0.5081
 3541SOL    HW220663   0.518   5.331   1.008 -1.8785  2.6757 -0.0378
 3542SOL     OW20664   9.204   3.707   1.316 -0.9530  0.2480  0.4027
 3542SOL    HW120665   9.226   3.638   1.248 -1.7650  0.0026  0.3942
 3542SOL    HW220666   9.282   3.769   1.326 -0.4032 -0.3842  0.0749
 3543SOL     OW20667   1.675   4.677   1.460 -0.3459 -0.0900  0.4156
 3543SOL    HW120668   1.749   4.739   1.485 -0.9954  1.6273 -1.7682
 3543SOL    HW220669   1.709   4.608   1.397  0.3450 -1.9280  2.7399
 3544SOL     OW20670   3.138   8.474   1.613 -0.1432 -0.5095  0.5203
 3544SOL    HW120671   3.057   8.422   1.639 -1.5269  0.3902 -1.8358
 3544SOL    HW220672   3.208   8.412   1.578 -1.2478 -0.9551 -0.9605
 3545SOL     OW20673   3.953   1.714   1.932 -0.1189 -0.2470  0.3792
 3545SOL    HW120674   3.922   1.804   1.901 -0.3706 -0.7615 -0.8711
 3545SOL    HW220675   3.957   1.713   2.032 -0.1167  1.1497  0.3964
 3546SOL     OW20676   9.939   7.605   1.125  0.2040 -0.0439 -0.5067
 3546SOL    HW120677   9.904   7.665   1.053 -0.3433 -0.5369 -0.6552
 3546SOL    HW220678   9.997   7.534   1.085  0.9405  0.4414 -0.3190
 3547SOL     OW20679   9.803   1.242   1.265  0.0784  0.6419  0.2545
 3547SOL    HW120680   9.897   1.214   1.284  0.2840  0.6866 -0.6546
 3547SOL    HW220681   9.801   1.340   1.244 -0.4251  1.0022  1.9804
 3548SOL     OW20682   0.544   1.773   2.302 -0.2717 -0.3594  0.1093
 3548SOL    HW120683   0.566   1.714   2.225  2.3033  1.1916 -0.4280
 3548SOL    HW220684   0.592   1.740   2.384 -1.6021 -0.9946  0.6438
 3549SOL     OW20685   3.971   1.276   2.263  0.2051  0.1443  0.2837
 3549SOL    HW120686   4.029   1.306   2.339 -1.6621 -1.7965  2.5247
 3549SOL    HW220687   3.983   1.178   2.248 -0.6119  0.2128 -0.9293
 3550SOL     OW20688   2.271   2.699   0.205 -0.1606 -0.1457 -0.1100
 3550SOL    HW120689   2.213   2.754   0.264 -1.6719 -0.5776 -1.1431
 3550SOL    HW220690   2.332   2.758   0.153 -2.5013  0.7090 -1.9914
 3551SOL     OW20691   2.531   1.287   1.852  0.4558 -0.4575 -0.4835
 3551SOL    HW120692   2.450   1.331   1.814  0.9303  0.1513 -0.7925
 3551SOL    HW220693   2.610   1.346   1.840  1.0362 -1.2404 -0.6020
 3552SOL     OW20694   3.570   1.037   0.170 -0.7098  0.2865 -0.2118
 3552SOL    HW120695   3.548   1.022   0.074 -2.8933  1.4752  0.0600
 3552SOL    HW220696   3.494   1.085   0.214  1.2162  1.7488  1.5833
 3553SOL     OW20697   1.073   3.273   1.397 -0.0234  0.3389 -0.1361
 3553SOL    HW120698   1.156   3.220   1.381  0.5498  0.6859  1.5665
 3553SOL    HW220699   0.995   3.211   1.409  0.0260  0.0054 -1.4229
 3554SOL     OW20700   1.523   1.677   0.998  0.1001  0.0092  0.5445
 3554SOL    HW120701   1.465   1.705   1.074 -1.7293 -0.5529 -0.6108
 3554SOL    HW220702   1.481   1.599   0.951 -0.2997  2.1518 -2.8019
 3555SOL     OW20703   3.064   2.879   0.777 -0.5346  0.1470 -0.1705
 3555SOL    HW120704   3.048   2.784   0.752 -1.1604 -0.0872  1.0650
 3555SOL    HW220705   3.012   2.939   0.717  0.3238 -0.2521 -1.3368
 3556SOL     OW20706   4.611   3.420   2.138 -0.1850  0.4394  0.6221
 3556SOL    HW120707   4.521   3.429   2.095 -1.0280 -0.2205  2.2011
 3556SOL    HW220708   4.625   3.496   2.202  1.4879  1.9864 -1.5367
 3557SOL     OW20709   2.628   2.166   1.079  0.2524 -0.2308  0.9589
 3557SOL    HW120710   2.580   2.078   1.080  2.5745 -1.5170  0.8648
 3557SOL    HW220711   2.717   2.156   1.123  1.3758  1.5904 -0.8523
 3558SOL     OW20712   3.736   1.372   2.241 -0.2012 -0.0276  0.0069
 3558SOL    HW120713   3.683   1.359   2.157 -0.6747  0.6982  0.1832
 3558SOL    HW220714   3.826   1.330   2.231 -0.8059 -1.2719 -0.3002
 3559SOL     OW20715   9.936   6.968   1.334 -0.1308 -0.3491 -0.1757
 3559SOL    HW120716  10.033   6.964   1.311 -0.1342 -0.0837 -0.2431
 3559SOL    HW220717   9.905   7.063   1.329  0.1327 -0.1334  2.0438
 3560SOL     OW20718   7.871   2.213   1.919  0.4192 -0.0118 -0.0703
 3560SOL    HW120719   7.837   2.247   1.831 -2.7927  0.8266  1.4336
 3560SOL    HW220720   7.812   2.138   1.951 -0.3396  1.7374  2.8019
 3561SOL     OW20721   9.476   4.037   0.022 -0.0669  0.0701 -0.6162
 3561SOL    HW120722   9.519   4.065  -0.063 -0.6702 -0.1520 -0.9949
 3561SOL    HW220723   9.402   4.100   0.044  0.3451  0.3625 -0.0445
 3562SOL     OW20724   1.524   0.155   0.724  0.1481  0.1390 -0.5539
 3562SOL    HW120725   1.613   0.140   0.767 -0.9641 -1.5279  1.2464
 3562SOL    HW220726   1.496   0.250   0.736  1.2591  0.4414 -0.3177
 3563SOL     OW20727   8.996   2.200   0.483  0.1692  0.1547 -0.5239
 3563SOL    HW120728   8.934   2.131   0.520 -1.2680  2.4076  1.4716
 3563SOL    HW220729   9.048   2.242   0.558  0.8020  1.4208 -1.6354
 3564SOL     OW20730   9.394   1.762   0.682  0.1716 -0.0222  0.1223
 3564SOL    HW120731   9.484   1.798   0.705  0.3410 -0.6191  0.3806
 3564SOL    HW220732   9.357   1.813   0.604  0.0063  1.3673  1.0818
 3565SOL     OW20733   2.057   7.248   1.857  0.1026 -0.2999  0.5693
 3565SOL    HW120734   2.014   7.198   1.782 -0.6346 -0.9168  1.3918
 3565SOL    HW220735   2.155   7.259   1.838 -0.1835  0.0568 -0.7411
 3566SOL     OW20736   0.629   2.508   0.503 -0.2295  0.2592  0.3551
 3566SOL    HW120737   0.542   2.503   0.453 -0.4052 -1.4836  0.8012
 3566SOL    HW220738   0.704   2.520   0.438 -0.6562  0.1576 -0.1637
 3567SOL     OW20739   1.781   7.251   1.457 -0.2083 -0.4673 -0.2920
 3567SOL    HW120740   1.838   7.188   1.509  0.8374 -1.2238 -2.2891
 3567SOL    HW220741   1.745   7.204   1.376  0.3310  1.4066 -1.6438
 3568SOL     OW20742   0.679   9.703   2.062 -0.5018  0.2029 -0.7117
 3568SOL    HW120743   0.664   9.788   2.112  0.7944 -0.4167  0.7810
 3568SOL    HW220744   0.742   9.719   1.986 -0.7542  0.6995 -0.8144
 3569SOL     OW20745   9.978   3.193   1.721  0.1948  0.4759  0.3524
 3569SOL    HW120746   9.919   3.114   1.736 -1.2862  1.6347  0.8112
 3569SOL    HW220747   9.969   3.223   1.626  0.7588  0.0771  0.1773
 3570SOL     OW20748   2.926   4.467   0.822  0.1846  0.3962 -0.3087
 3570SOL    HW120749   2.942   4.476   0.920 -0.5935 -0.9532 -0.0596
 3570SOL    HW220750   3.014   4.474   0.773  0.9035 -1.5253  0.6725
 3571SOL     OW20751   8.587   4.790   0.501 -0.1038 -0.0422  0.2037
 3571SOL    HW120752   8.530   4.735   0.439 -0.3235 -0.1643  0.5121
 3571SOL    HW220753   8.557   4.885   0.497 -1.6137 -0.4348  1.8201
 3572SOL     OW20754   1.548   6.030   2.267  0.4039 -0.2088 -0.2421
 3572SOL    HW120755   1.453   5.999   2.261  0.1607  0.4020  0.4807
 3572SOL    HW220756   1.572   6.081   2.184 -0.0031 -0.0762 -0.2787
 3573SOL     OW20757   2.142   8.572   0.580  0.0810 -0.3728 -0.0397
 3573SOL    HW120758   2.125   8.476   0.559 -0.0514 -0.1499 -1.0131
 3573SOL    HW220759   2.215   8.606   0.520 -1.2476  0.6536 -1.0959
 3574SOL     OW20760   9.482   4.624   1.732  0.1487 -0.2347  0.3890
 3574SOL    HW120761   9.433   4.560   1.672  1.3053  0.8053 -1.7227
 3574SOL    HW220762   9.417   4.690   1.769 -0.4687 -0.3713 -0.4082
 3575SOL     OW20763   1.213   6.954   2.250 -0.0697 -0.4388  0.0288
 3575SOL    HW120764   1.271   7.030   2.279 -0.0090 -0.2078 -0.6825
 3575SOL    HW220765   1.267   6.870   2.247 -0.3631 -0.7000  1.7293
 3576SOL     OW20766   4.048   1.259   1.145 -0.2555  0.0708 -0.6298
 3576SOL    HW120767   4.003   1.321   1.081 -0.4597 -1.2588 -1.7849
 3576SOL    HW220768   3.979   1.203   1.191 -0.1129  1.0276  0.7923
 3577SOL     OW20769   1.642   2.412   0.393  0.2170 -0.1655  0.1130
 3577SOL    HW120770   1.582   2.476   0.345  0.8479 -1.0506 -1.9310
 3577SOL    HW220771   1.719   2.388   0.333  0.5843 -1.9607  1.2740
 3578SOL     OW20772   8.573   1.773   0.737  0.0003 -0.1691  0.4161
 3578SOL    HW120773   8.499   1.754   0.802 -1.3389  0.2351 -0.9508
 3578SOL    HW220774   8.594   1.691   0.685  0.8849 -0.4217  1.1653
 3579SOL     OW20775   9.737   2.522   0.725 -0.0467 -0.9951  0.0931
 3579SOL    HW120776   9.825   2.570   0.720 -1.1588  1.0152 -0.4655
 3579SOL    HW220777   9.712   2.510   0.821 -0.6088  1.1889  0.2536
 3580SOL     OW20778   1.112   0.818   1.853 -0.0168  0.0241 -0.0649
 3580SOL    HW120779   1.102   0.906   1.806  1.1835 -0.2522 -0.8507
 3580SOL    HW220780   1.111   0.744   1.786 -1.0138 -0.5673  0.5925
 3581SOL     OW20781   0.599   2.146   1.516  0.3857 -0.1719  0.6257
 3581SOL    HW120782   0.580   2.077   1.586  0.0102 -0.0341  0.6591
 3581SOL    HW220783   0.542   2.226   1.531 -0.7077 -0.6930 -0.6491
 3582SOL     OW20784   0.624   7.050   0.247 -0.5846 -0.8884 -0.5743
 3582SOL    HW120785   0.625   7.126   0.182 -1.8127 -0.2099  0.1704
 3582SOL    HW220786   0.717   7.014   0.258  0.5200  2.1715  0.9602
 3583SOL     OW20787   0.284   2.992   2.449 -0.0445 -0.3680  0.2163
 3583SOL    HW120788   0.307   3.046   2.529  1.0866 -3.2763  1.9029
 3583SOL    HW220789   0.303   3.045   2.366  3.0340  1.0307  1.7670
 3584SOL     OW20790   1.798   5.503   1.406 -0.2740 -0.5223  0.4512
 3584SOL    HW120791   1.849   5.434   1.354  0.3517 -0.3018  0.7607
 3584SOL    HW220792   1.820   5.594   1.371 -1.1238 -0.4825  0.0246
 3585SOL     OW20793   1.507   6.650   1.237 -0.8944  0.1189 -0.6921
 3585SOL    HW120794   1.557   6.594   1.171 -0.8263  0.0008 -0.5395
 3585SOL    HW220795   1.458   6.590   1.301  0.4294  0.2097  0.4401
 3586SOL     OW20796   0.367   9.790   2.377 -0.4238  0.5393 -0.4174
 3586SOL    HW120797   0.413   9.876   2.399 -0.8525  0.4782  0.7824
 3586SOL    HW220798   0.303   9.805   2.302  0.0593  1.0879 -0.7287
 3587SOL     OW20799   3.472   0.535   1.287  0.1304  0.2279 -0.4616
 3587SOL    HW120800   3.498   0.552   1.382 -1.6384  0.0035  0.0827
 3587SOL    HW220801   3.505   0.445   1.259  0.3557  0.1475  0.0445
 3588SOL     OW20802   1.340   7.917   0.387 -0.1045 -0.3553 -0.8817
 3588SOL    HW120803   1.400   7.925   0.308 -1.0504 -0.2539 -1.6039
 3588SOL    HW220804   1.394   7.895   0.469  1.2592  2.6599 -0.9307
 3589SOL     OW20805   0.247   7.628   0.014  0.1165  0.3174  0.2324
 3589SOL    HW120806   0.315   7.639   0.087 -0.0772  0.8888  0.3329
 3589SOL    HW220807   0.265   7.696  -0.057  0.2488 -0.1833 -0.2080
 3590SOL     OW20808   3.972   4.562   1.010  0.2948  0.6391 -0.0349
 3590SOL    HW120809   4.014   4.486   0.962  0.4913  0.2952  0.6740
 3590SOL    HW220810   4.025   4.646   0.995  0.4182  0.5077 -0.3211
 3591SOL     OW20811   2.798   3.722   2.555  0.1894 -0.5282  0.5625
 3591SOL    HW120812   2.781   3.632   2.516 -1.8136  0.0750 -0.0050
 3591SOL    HW220813   2.870   3.715   2.625  0.3411 -2.4735  0.2320
 3592SOL     OW20814   4.171   0.789   0.304  0.4701  0.1840  0.2311
 3592SOL    HW120815   4.144   0.771   0.209  1.6849 -2.3377  0.3163
 3592SOL    HW220816   4.258   0.838   0.305  0.6814 -0.1895  0.0559
 3593SOL     OW20817   0.603   8.917   1.883 -0.4302 -0.1158 -0.5107
 3593SOL    HW120818   0.551   8.989   1.838 -0.9505 -0.2689 -0.1590
 3593SOL    HW220819   0.544   8.839   1.902 -0.2914  0.0536  0.6693
 3594SOL     OW20820   2.341   8.257   0.838  0.1899  0.1077 -0.9857
 3594SOL    HW120821   2.361   8.340   0.787 -0.4009  0.2601 -0.9759
 3594SOL    HW220822   2.361   8.177   0.782 -0.4305  0.2743 -1.4364
 3595SOL     OW20823   1.314   5.121   0.688 -0.7820 -0.6068  0.2793
 3595SOL    HW120824   1.276   5.199   0.638 -0.4622  0.1648  1.2028
 3595SOL    HW220825   1.255   5.100   0.766 -0.5130 -0.8465  0.4189
 3596SOL     OW20826   2.378   4.663   0.669 -0.2440  0.2017 -0.0913
 3596SOL    HW120827   2.423   4.575   0.650 -1.3190 -0.1770 -0.9889
 3596SOL    HW220828   2.441   4.738   0.649 -0.1086 -0.3078 -1.6536
 3597SOL     OW20829   9.693   4.630   2.313  0.0612  0.2883  0.2026
 3597SOL    HW120830   9.781   4.592   2.340 -0.1506 -0.0197  0.4739
 3597SOL    HW220831   9.703   4.727   2.291  0.4089  0.3228  0.5185
 3598SOL     OW20832   1.978   2.152   1.199  0.4591  0.5722 -0.0764
 3598SOL    HW120833   1.923   2.077   1.236  0.6396  0.3409 -0.2780
 3598SOL    HW220834   1.937   2.185   1.114  1.5315 -0.6921 -1.1004
 3599SOL     OW20835   3.402   8.456   0.956 -0.4912  0.1536  0.6978
 3599SOL    HW120836   3.470   8.452   1.029 -0.9989  1.6229  1.2683
 3599SOL    HW220837   3.385   8.551   0.932 -1.6011 -0.2501 -0.1447
 3600SOL     OW20838   3.186   4.085   1.980 -0.5308  0.1211 -0.1884
 3600SOL    HW120839   3.158   3.994   2.007 -1.9840  0.9062  1.0134
 3600SOL    HW220840   3.216   4.084   1.885 -1.5356 -1.3880 -0.4986
 3601SOL     OW20841   0.035   6.562   2.011  0.1820 -0.0689 -0.1078
 3601SOL    HW120842   0.081   6.606   2.088  0.6002 -0.0067 -0.3877
 3601SOL    HW220843   0.089   6.483   1.981  0.2007  0.1084 -0.5518
 3602SOL     OW20844   0.679   5.346   0.075  0.3263  0.2966  0.4695
 3602SOL    HW120845   0.717   5.405   0.003  0.5743 -2.0072 -1.3402
 3602SOL    HW220846   0.591   5.383   0.104  0.4200  1.5043 -0.6891
 3603SOL     OW20847   0.336   9.856   1.305 -0.5376 -0.2303 -0.1742
 3603SOL    HW120848   0.299   9.785   1.365 -0.1030 -0.0559  0.2996
 3603SOL    HW220849   0.392   9.920   1.358 -1.5111  0.8940 -0.4572
 3604SOL     OW20850   0.307   3.516   0.732 -0.7608 -0.4838 -0.2295
 3604SOL    HW120851   0.348   3.428   0.707  0.0703  0.6090 -2.8437
 3604SOL    HW220852   0.349   3.549   0.817  1.5010 -0.9351 -1.1215
 3605SOL     OW20853   1.658   7.676   0.440  0.1323 -0.2864 -0.6729
 3605SOL    HW120854   1.676   7.579   0.454  1.0280 -0.4742 -2.7972
 3605SOL    HW220855   1.665   7.697   0.342 -0.5876  1.8116 -0.3084
 3606SOL     OW20856   0.895   6.742   0.335 -0.4394 -0.5916 -0.4502
 3606SOL    HW120857   0.904   6.828   0.285 -1.0443  0.3501  1.0492
 3606SOL    HW220858   0.986   6.710   0.362 -0.3292  0.4140  0.3858
 3607SOL     OW20859   9.888   5.605   0.877  0.1655  0.0364  0.1315
 3607SOL    HW120860   9.813   5.609   0.942  0.0771  1.2774 -0.0483
 3607SOL    HW220861   9.974   5.628   0.922  0.4943 -1.6268  0.3954
 3608SOL     OW20862   1.356   7.439   1.048  0.3917 -0.3365 -0.5091
 3608SOL    HW120863   1.456   7.446   1.055  0.1925  1.8536  0.7613
 3608SOL    HW220864   1.321   7.385   1.124  0.5319 -0.3966 -0.4872
 3609SOL     OW20865   0.381   8.392   0.733 -0.0507 -0.5172 -0.6495
 3609SOL    HW120866   0.418   8.376   0.642  0.0047 -1.7472 -0.4242
 3609SOL    HW220867   0.456   8.405   0.798 -0.0713 -0.4089 -0.6479
 3610SOL     OW20868   0.555   0.687   1.552  0.3841 -0.5281 -0.3833
 3610SOL    HW120869   0.539   0.627   1.474  1.5590 -0.0600 -1.0023
 3610SOL    HW220870   0.602   0.637   1.625 -1.8509 -1.3091  0.5528
 3611SOL     OW20871   1.372   1.201   1.614  0.1672 -0.1448  0.1002
 3611SOL    HW120872   1.387   1.283   1.670 -1.1176  0.8076 -0.9172
 3611SOL    HW220873   1.385   1.120   1.670  3.2123  0.6984  0.7157
 3612SOL     OW20874   3.830   3.424   1.277 -0.2428 -0.0465  0.0706
 3612SOL    HW120875   3.920   3.410   1.235 -0.2162 -2.2635  0.8033
 3612SOL    HW220876   3.766   3.357   1.240 -0.3950 -1.6041  3.0059
 3613SOL     OW20877   1.899   5.654   0.977  0.6686 -0.4639 -0.0382
 3613SOL    HW120878   1.956   5.699   0.908  0.1947  0.1105 -0.0595
 3613SOL    HW220879   1.909   5.555   0.969  1.2960 -0.3760 -0.3535
 3614SOL     OW20880   3.330   0.125   1.302 -0.1802  0.4584 -0.7325
 3614SOL    HW120881   3.334   0.199   1.369 -0.4476  0.7962 -1.0827
 3614SOL    HW220882   3.405   0.061   1.318 -1.8919 -1.0290  1.7035
 3615SOL     OW20883   9.814   2.942   0.869  0.7233 -0.1928 -0.1935
 3615SOL    HW120884   9.796   3.020   0.930 -1.4833  0.0058 -1.0321
 3615SOL    HW220885   9.755   2.866   0.896  0.1851 -0.3143 -1.6678
 3616SOL     OW20886   0.812   5.180   0.232 -0.2673 -0.1343  0.4936
 3616SOL    HW120887   0.902   5.184   0.187  0.0802  0.6205  1.2433
 3616SOL    HW220888   0.746   5.232   0.177 -0.5552 -1.7274 -0.7183
 3617SOL     OW20889   0.764   2.420   0.743  0.0443 -0.2733 -0.3771
 3617SOL    HW120890   0.849   2.384   0.705 -0.4769 -2.1295  0.1544
 3617SOL    HW220891   0.710   2.463   0.671  0.9193 -0.0888 -0.9266
 3618SOL     OW20892   0.788   8.473   1.845  0.4598  0.2632 -0.3029
 3618SOL    HW120893   0.773   8.402   1.914  0.0902  0.3272 -0.3204
 3618SOL    HW220894   0.783   8.563   1.888 -2.0432  0.3871 -0.8299
 3619SOL     OW20895   8.596   1.484   1.589 -0.1731  0.3860  0.5470
 3619SOL    HW120896   8.682   1.519   1.625  0.2788 -1.0301  0.8709
 3619SOL    HW220897   8.572   1.399   1.635  0.5402 -1.6144 -2.6134
 3620SOL     OW20898   2.391   4.087   1.270 -0.0675 -0.5791  0.6536
 3620SOL    HW120899   2.295   4.062   1.254 -0.2806  0.0259  0.9641
 3620SOL    HW220900   2.405   4.103   1.367  0.1018  0.3274  0.4857
 3621SOL     OW20901   1.546   9.390   0.406 -0.3410 -0.9439 -0.0003
 3621SOL    HW120902   1.496   9.415   0.489 -0.0841 -1.5059  0.3195
 3621SOL    HW220903   1.497   9.318   0.358 -0.4360 -0.6905 -0.2876
 3622SOL     OW20904   2.242   8.431   1.250 -0.3537 -0.3900  0.2899
 3622SOL    HW120905   2.296   8.513   1.232  0.6465 -1.1968 -0.5002
 3622SOL    HW220906   2.209   8.393   1.163  0.0753 -1.4091  0.5650
 3623SOL     OW20907   2.967   1.667   1.000 -0.4481  0.7096  0.2831
 3623SOL    HW120908   2.941   1.583   1.049  0.2176  0.8267  0.8507
 3623SOL    HW220909   3.013   1.729   1.064  1.5378  0.3534 -0.7789
 3624SOL     OW20910   8.945   1.714   2.461 -0.4014  0.1041  0.1216
 3624SOL    HW120911   9.011   1.788   2.473  2.6796 -2.1607 -1.9330
 3624SOL    HW220912   8.903   1.722   2.370 -1.3140  0.2628  0.5535
 3625SOL     OW20913   1.105   1.282   1.799 -0.0834 -0.0676  0.0044
 3625SOL    HW120914   1.164   1.276   1.879  0.1839 -1.5183 -0.2889
 3625SOL    HW220915   1.101   1.193   1.753 -2.5087 -0.0280  0.0433
 3626SOL     OW20916   1.531   1.113   2.340 -0.4093 -0.3039 -0.2960
 3626SOL    HW120917   1.438   1.151   2.336 -0.2538  0.0565 -0.5082
 3626SOL    HW220918   1.544   1.066   2.427 -1.1861 -1.3881 -0.7600
 3627SOL     OW20919   9.514   3.737   0.518  0.2668  0.3834 -0.0627
 3627SOL    HW120920   9.453   3.754   0.441  0.9638 -1.0766 -0.9548
 3627SOL    HW220921   9.493   3.801   0.592 -1.2096  0.9962 -0.9951
 3628SOL     OW20922   1.173   7.036   0.236  1.2560 -0.1404  0.4753
 3628SOL    HW120923   1.163   7.092   0.318 -0.3943 -0.7405  0.6973
 3628SOL    HW220924   1.202   7.094   0.160 -0.2716  1.0056  0.7332
 3629SOL     OW20925   2.207   5.474   0.578  0.0535  0.1784  0.3125
 3629SOL    HW120926   2.137   5.416   0.537  1.5155 -1.3531 -0.0636
 3629SOL    HW220927   2.264   5.419   0.639  0.5954  1.5202  1.0236
 3630SOL     OW20928   0.728   4.981   0.647 -0.0687  0.1129 -0.6444
 3630SOL    HW120929   0.823   4.967   0.621  0.0285 -1.6873  0.6003
 3630SOL    HW220930   0.704   5.078   0.637  1.8061  0.5303 -1.1993
 3631SOL     OW20931   2.116   6.265   0.795 -0.2590  0.0788  0.0316
 3631SOL    HW120932   2.054   6.188   0.806  1.2296 -0.8383  2.2260
 3631SOL    HW220933   2.069   6.349   0.822 -0.6383 -0.5622  1.3745
 3632SOL     OW20934   0.586   7.280   0.076  0.4989 -0.3706  0.3712
 3632SOL    HW120935   0.619   7.373   0.056  0.0107 -0.5234 -1.1931
 3632SOL    HW220936   0.499   7.286   0.126 -0.0601  0.0116 -0.6460
 3633SOL     OW20937   3.642   2.781   1.855 -0.0521  0.3238  1.1511
 3633SOL    HW120938   3.727   2.796   1.805 -0.8524  0.1068 -0.3014
 3633SOL    HW220939   3.572   2.844   1.822 -0.8724 -0.4823  1.3245
 3634SOL     OW20940   3.349   2.813   0.476 -0.4801  0.2914 -0.4950
 3634SOL    HW120941   3.378   2.844   0.386  0.4972 -1.0910 -0.6734
 3634SOL    HW220942   3.403   2.858   0.547  0.0774 -0.0543 -0.6957
 3635SOL     OW20943   2.332   7.386   0.606  0.1906  0.0159 -0.0621
 3635SOL    HW120944   2.364   7.299   0.567 -0.4346  0.0224 -0.5994
 3635SOL    HW220945   2.401   7.421   0.669  0.6168 -0.6835 -0.1268
 3636SOL     OW20946   1.387   3.046   2.350  0.3382  0.1639 -0.8618
 3636SOL    HW120947   1.339   3.130   2.324  0.2422  0.2468 -0.4260
 3636SOL    HW220948   1.465   3.068   2.408  0.6489 -0.0071 -1.2104
 3637SOL     OW20949   9.737   3.983   1.472 -0.5308  0.1513  0.1272
 3637SOL    HW120950   9.665   3.968   1.404  0.0193 -0.1103 -0.4042
 3637SOL    HW220951   9.715   4.064   1.527 -1.3175 -0.0346  0.0890
 3638SOL     OW20952   0.239   2.009   1.837 -0.5528 -0.1144  0.0746
 3638SOL    HW120953   0.291   2.077   1.888  0.2129 -0.1191 -0.6718
 3638SOL    HW220954   0.149   2.045   1.814 -1.0620 -0.2868  1.8129
 3639SOL     OW20955   8.786   5.044   0.296  0.5043  0.2768  0.1179
 3639SOL    HW120956   8.811   4.971   0.233  2.1064  1.7211 -0.9480
 3639SOL    HW220957   8.703   5.018   0.346  1.2130 -2.3839 -0.0189
 3640SOL     OW20958   3.464   1.318   2.519 -0.0934 -0.3378 -0.0126
 3640SOL    HW120959   3.561   1.296   2.526  0.4212  1.2240 -1.7177
 3640SOL    HW220960   3.425   1.326   2.610  1.7598  0.5414  0.7409
 3641SOL     OW20961   0.093   5.023   1.643  0.0340  0.1404 -0.6362
 3641SOL    HW120962   0.053   5.113   1.628  1.9249  1.0481 -0.4457
 3641SOL    HW220963   0.081   4.997   1.740 -0.5521  0.1502 -0.7033
 3642SOL     OW20964   2.503   4.519   2.358 -0.1119 -0.8330 -0.1070
 3642SOL    HW120965   2.600   4.503   2.374  0.0988  1.1570  0.7745
 3642SOL    HW220966   2.485   4.523   2.259  0.5159 -2.1523 -0.2859
 3643SOL     OW20967   3.128   4.353   2.072  0.1637  0.2821 -0.0699
 3643SOL    HW120968   3.133   4.411   1.990  0.2573  1.1797  0.5562
 3643SOL    HW220969   3.153   4.259   2.048  0.7064  0.6440 -0.9719
 3644SOL     OW20970   4.070   1.726   0.186  0.7015  0.4832 -0.1385
 3644SOL    HW120971   4.153   1.776   0.208  1.9042 -1.1064 -1.0110
 3644SOL    HW220972   4.048   1.738   0.089  0.2872  0.3626 -0.0604
 3645SOL     OW20973   9.878   1.937   1.311 -0.3666  0.7283  1.1968
 3645SOL    HW120974   9.937   1.857   1.325 -0.0279  1.0517  1.6176
 3645SOL    HW220975   9.907   1.987   1.230 -1.1299 -0.0648  0.4094
 3646SOL     OW20976   2.170   5.296   1.018  0.1274 -0.3038 -0.3334
 3646SOL    HW120977   2.222   5.376   0.991 -0.0627  0.7240  2.1872
 3646SOL    HW220978   2.203   5.216   0.969  2.1901  0.8286 -0.8325
 3647SOL     OW20979   3.433   3.603   1.605  0.0779 -0.6856 -0.1349
 3647SOL    HW120980   3.471   3.575   1.517 -0.9436 -0.2058 -0.7445
 3647SOL    HW220981   3.453   3.700   1.620 -0.8477 -0.4362 -0.4467
 3648SOL     OW20982   1.988   3.379   1.515  0.0709  0.3916  0.1970
 3648SOL    HW120983   1.919   3.324   1.561  0.4882  0.4844  0.9344
 3648SOL    HW220984   2.071   3.326   1.503  0.2304  0.6284  0.2559
 3649SOL     OW20985   1.699   8.873   1.197 -0.3423 -0.2151 -0.3107
 3649SOL    HW120986   1.715   8.828   1.110  0.0212 -0.7359  0.0181
 3649SOL    HW220987   1.786   8.879   1.247 -0.6089 -0.2234  0.1538
 3650SOL     OW20988   9.095   4.971   2.239 -0.0896 -0.3427 -0.6342
 3650SOL    HW120989   9.081   4.987   2.142 -0.3497  0.1977 -0.5125
 3650SOL    HW220990   9.095   5.059   2.288 -1.1097 -0.6816 -0.0042
 3651SOL     OW20991   1.067   3.064   1.067  0.4649  0.0873  0.3589
 3651SOL    HW120992   0.977   3.064   1.023  0.4220  0.7508  0.4482
 3651SOL    HW220993   1.113   2.977   1.049  0.4505  0.3520 -1.0131
 3652SOL     OW20994   0.970   7.316   1.769 -0.6021 -0.4025 -0.1762
 3652SOL    HW120995   0.933   7.261   1.694 -1.2096 -0.7665  0.3833
 3652SOL    HW220996   0.942   7.411   1.758 -2.5389 -0.8435  0.7524
 3653SOL     OW20997   0.211   6.360   1.899  0.1958 -0.4668  0.0919
 3653SOL    HW120998   0.222   6.411   1.813  0.2364 -1.8780 -0.7460
 3653SOL    HW220999   0.211   6.262   1.880  1.7916 -0.8431  1.8978
 3654SOL     OW21000   1.052   1.001   1.644  0.6179  0.3277  0.3327
 3654SOL    HW121001   0.956   0.985   1.665  0.9512 -1.0722  0.8590
 3654SOL    HW221002   1.059   1.058   1.562 -0.6565 -0.9227 -0.6741
 3655SOL     OW21003   0.369   7.156   2.320  0.0818  0.0677 -0.0372
 3655SOL    HW121004   0.463   7.123   2.331  0.5574  1.3722 -0.0846
 3655SOL    HW221005   0.361   7.247   2.360 -0.8359  0.4925 -1.1651
 3656SOL     OW21006   8.925   4.421   0.386  0.2384  0.4684 -0.1849
 3656SOL    HW121007   8.854   4.363   0.426 -0.9875  1.8787 -0.2718
 3656SOL    HW221008   8.964   4.480   0.457 -0.0324  1.0457 -0.5052
 3657SOL     OW21009   0.774   0.715   0.818 -0.2337  0.2068 -0.2560
 3657SOL    HW121010   0.705   0.781   0.848 -0.1283  0.7785 -1.2576
 3657SOL    HW221011   0.815   0.747   0.732  0.3657 -0.7727 -0.3314
 3658SOL     OW21012   1.128   9.914   1.852 -0.5304  0.0480 -0.0940
 3658SOL    HW121013   1.199   9.857   1.811 -2.2549 -2.1601 -0.0975
 3658SOL    HW221014   1.132   9.905   1.952 -1.7942 -1.3462 -0.1535
 3659SOL     OW21015   0.079   2.337   0.425 -0.5149 -0.4039 -0.0902
 3659SOL    HW121016  -0.018   2.353   0.444 -0.3950 -0.8676  0.9053
 3659SOL    HW221017   0.135   2.399   0.480 -0.2706  0.6097 -1.4577
 3660SOL     OW21018   0.099   4.883   0.449 -0.6537  0.1960  0.3164
 3660SOL    HW121019   0.019   4.839   0.410 -0.9858  0.6763  0.4542
 3660SOL    HW221020   0.107   4.976   0.413  0.2397 -0.0906 -0.2412
 3661SOL     OW21021   3.517   3.370   1.356 -0.0342 -0.3216 -0.1032
 3661SOL    HW121022   3.556   3.345   1.268 -0.1932 -0.0401 -0.2514
 3661SOL    HW221023   3.573   3.330   1.429  0.8660  0.5488 -0.3037
 3662SOL     OW21024   1.532   8.007   0.183  0.1829 -1.1720 -0.0421
 3662SOL    HW121025   1.578   7.992   0.096 -0.0673 -0.2206 -0.3445
 3662SOL    HW221026   1.584   8.073   0.238 -0.7971 -0.1074 -0.3804
 3663SOL     OW21027   9.913   8.951   1.179 -0.5654 -0.2915 -0.2331
 3663SOL    HW121028   9.916   8.967   1.080 -0.4257  0.9714 -0.0233
 3663SOL    HW221029   9.876   9.032   1.225 -1.7288 -1.3010  0.6531
 3664SOL     OW21030   3.835   4.200   1.026  0.6248  0.7111  0.3790
 3664SOL    HW121031   3.868   4.105   1.024 -1.2009  0.0668 -0.3645
 3664SOL    HW221032   3.825   4.234   0.933 -2.1443  0.3682  0.4905
 3665SOL     OW21033   8.541   1.942   1.305  0.0237  0.3744 -0.4658
 3665SOL    HW121034   8.541   2.003   1.384 -2.0323 -0.1322 -0.0379
 3665SOL    HW221035   8.589   1.857   1.329 -0.6525  0.1938  0.2804
 3666SOL     OW21036   2.618   7.623   1.831  0.2177  0.0803 -0.4280
 3666SOL    HW121037   2.548   7.685   1.795 -0.4984 -0.2786  0.3245
 3666SOL    HW221038   2.622   7.632   1.931  0.5675 -0.6075 -0.3782
 3667SOL     OW21039   0.313   6.071   0.656  0.5951 -0.1046 -0.7123
 3667SOL    HW121040   0.258   6.042   0.734 -1.0272 -0.0004 -1.8017
 3667SOL    HW221041   0.294   6.167   0.636  3.2660  0.7700  0.6198
 3668SOL     OW21042   1.335   3.936   0.304  0.2182 -0.1708  0.4883
 3668SOL    HW121043   1.279   3.866   0.260  1.4399  0.3589 -2.0007
 3668SOL    HW221044   1.281   4.020   0.314 -0.2795 -0.5013  0.6110
 3669SOL     OW21045   9.348   4.496   1.524 -0.7054  0.2534  0.2168
 3669SOL    HW121046   9.412   4.471   1.451  0.4330  0.0904  1.2550
 3669SOL    HW221047   9.289   4.571   1.492  0.8277  1.2570 -0.3324
 3670SOL     OW21048   0.592   0.937   2.354  0.0374  0.6527 -0.2586
 3670SOL    HW121049   0.656   0.946   2.431  0.4635 -1.1322 -0.3721
 3670SOL    HW221050   0.594   1.020   2.299  1.4021  1.0717  0.3981
 3671SOL     OW21051   1.540   2.540   0.981  0.3852 -0.0884 -0.4975
 3671SOL    HW121052   1.567   2.582   1.068  0.4628 -0.1475 -0.4926
 3671SOL    HW221053   1.495   2.452   0.999 -0.8544  0.5495 -0.4503
 3672SOL     OW21054   1.365   7.576   0.391 -0.2317 -0.5179  0.1264
 3672SOL    HW121055   1.401   7.574   0.298 -1.3294 -0.2174 -0.3170
 3672SOL    HW221056   1.372   7.668   0.428  0.5125 -0.7089  0.4720
 3673SOL     OW21057   4.094   1.306   1.721  0.0727  0.2215 -0.8742
 3673SOL    HW121058   4.193   1.318   1.710  0.3398  1.9378  2.6975
 3673SOL    HW221059   4.070   1.315   1.817 -3.4676 -1.2700 -1.5492
 3674SOL     OW21060   2.711   5.206   1.425 -0.6696  0.3009 -0.1071
 3674SOL    HW121061   2.747   5.291   1.386 -1.1654  0.0767 -1.0502
 3674SOL    HW221062   2.786   5.141   1.436 -0.2758  0.8676  0.6722
 3675SOL     OW21063   2.762   8.298   0.215  0.1109  0.0303 -0.2520
 3675SOL    HW121064   2.780   8.207   0.177 -0.3517 -0.5277  0.8302
 3675SOL    HW221065   2.829   8.363   0.179  1.0404 -0.9346 -0.3069
 3676SOL     OW21066   2.142   2.731   0.927 -0.1802 -0.2242  0.8473
 3676SOL    HW121067   2.158   2.746   1.024 -0.0917 -1.3494  1.0096
 3676SOL    HW221068   2.112   2.637   0.912 -1.1725  0.2277 -0.0962
 3677SOL     OW21069   2.293   2.521   1.797  0.2865 -0.0978  0.1222
 3677SOL    HW121070   2.197   2.493   1.803  0.2031 -0.0333 -0.7632
 3677SOL    HW221071   2.344   2.485   1.875 -0.8354  1.4062  1.5798
 3678SOL     OW21072   1.675   9.814   1.722 -0.1303  0.3040  0.2627
 3678SOL    HW121073   1.604   9.761   1.675 -1.8859  0.6093  2.4984
 3678SOL    HW221074   1.761   9.763   1.721 -0.8203 -0.8736 -0.9284
 3679SOL     OW21075   2.526   1.638   2.081  0.3829  0.6870 -0.1833
 3679SOL    HW121076   2.490   1.704   2.014  0.6267  0.6210 -0.3805
 3679SOL    HW221077   2.621   1.617   2.059  1.1390  2.2593  1.3933
 3680SOL     OW21078   3.368   0.537   0.078  0.1374 -0.4763  0.0969
 3680SOL    HW121079   3.354   0.632   0.107  0.7212 -0.8122  1.5471
 3680SOL    HW221080   3.335   0.476   0.150  0.7124 -1.3577 -0.3905
 3681SOL     OW21081   1.023   4.328   2.028 -0.4752 -0.4632  0.4540
 3681SOL    HW121082   0.995   4.333   2.123 -0.6670 -1.0847  0.4310
 3681SOL    HW221083   0.946   4.349   1.968 -0.0910  0.9845  0.4524
 3682SOL     OW21084   0.093   8.820  -0.002 -0.0245  0.0417 -0.1026
 3682SOL    HW121085   0.174   8.877   0.010  0.8627 -1.1178 -0.5453
 3682SOL    HW221086   0.029   8.836   0.074  0.2344  1.5745 -0.2035
 3683SOL     OW21087   1.071   5.786   1.815  0.1080 -0.6647 -0.1422
 3683SOL    HW121088   1.077   5.804   1.717 -0.8446  1.4416  0.1515
 3683SOL    HW221089   1.163   5.775   1.852  0.6279  0.9757 -0.8733
 3684SOL     OW21090   1.056   6.673   0.791 -0.0923 -0.0533 -0.0397
 3684SOL    HW121091   1.013   6.717   0.712  0.0556 -1.6759 -1.0245
 3684SOL    HW221092   0.991   6.612   0.835  0.7480 -1.4235 -0.6815
 3685SOL     OW21093   2.156   7.922   1.551 -0.4990  0.2745 -0.3485
 3685SOL    HW121094   2.099   7.851   1.592 -0.0218 -0.6465 -1.2548
 3685SOL    HW221095   2.106   7.967   1.477 -0.7715  0.8210  0.1710
 3686SOL     OW21096   2.520   9.619   0.493  0.4682  0.0776 -0.6778
 3686SOL    HW121097   2.440   9.619   0.552  0.0296  2.9441 -1.2019
 3686SOL    HW221098   2.592   9.674   0.535  1.0145  0.1514 -1.7065
 3687SOL     OW21099   1.736   5.933   1.753  0.1572 -0.6201  0.0732
 3687SOL    HW121100   1.667   5.870   1.717 -0.4935  0.5368 -0.7355
 3687SOL    HW221101   1.749   6.009   1.689  2.0307 -0.6988  0.3244
 3688SOL     OW21102   9.041   2.315   0.848 -0.1076 -0.0728 -0.1805
 3688SOL    HW121103   8.980   2.254   0.899  0.7720 -1.4280 -0.7399
 3688SOL    HW221104   9.119   2.340   0.906  1.2165 -2.1153 -1.0335
 3689SOL     OW21105   0.018   6.893   0.261  0.2332 -0.4527 -0.1858
 3689SOL    HW121106  -0.031   6.911   0.347 -0.4535  0.8741 -0.8343
 3689SOL    HW221107   0.087   6.823   0.276 -0.0045 -0.3626  1.4172
 3690SOL     OW21108   9.907   0.366   0.902  0.1276 -0.6316  0.0120
 3690SOL    HW121109   9.814   0.343   0.929 -0.4954 -0.7878 -2.2311
 3690SOL    HW221110   9.929   0.459   0.933 -0.5876 -0.7667  0.9478
 3691SOL     OW21111   2.360   9.849   1.633 -0.5416 -0.0140 -0.0483
 3691SOL    HW121112   2.445   9.797   1.625  0.1232  1.0237  0.1293
 3691SOL    HW221113   2.312   9.848   1.545 -1.1291 -1.9060  0.2760
 3692SOL     OW21114   9.925   4.519   2.371 -0.3625  0.2898  0.0976
 3692SOL    HW121115   9.939   4.438   2.429  1.8181 -1.0490 -2.1932
 3692SOL    HW221116   9.991   4.590   2.397  0.5854 -0.2936 -0.6682
 3693SOL     OW21117   0.040   6.329   0.466  0.1969  0.2344  0.0152
 3693SOL    HW121118   0.037   6.414   0.413 -2.3796 -0.0277 -0.2887
 3693SOL    HW221119  -0.019   6.337   0.546 -0.3340 -1.3869 -0.1914
 3694SOL     OW21120   1.642   3.571   0.976  0.0015  0.0022  0.0377
 3694SOL    HW121121   1.741   3.574   0.965  0.1259 -0.2546  1.0350
 3694SOL    HW221122   1.616   3.622   1.058 -0.5960 -0.7444  0.3165
 3695SOL     OW21123   3.850   1.419   1.432  0.0595 -0.5244 -0.0940
 3695SOL    HW121124   3.789   1.396   1.356  0.3803  1.1996 -0.8964
 3695SOL    HW221125   3.945   1.416   1.400  0.1685  0.6447  0.1231
 3696SOL     OW21126   1.630   4.439   0.138  0.4185  0.0164  0.2063
 3696SOL    HW121127   1.589   4.355   0.174  1.7558 -1.0657 -0.7637
 3696SOL    HW221128   1.697   4.475   0.202 -0.2167  0.4101  0.6605
 3697SOL     OW21129   0.714   3.170   1.621  0.2615 -0.1294  0.0973
 3697SOL    HW121130   0.791   3.170   1.685  1.3793 -0.2545 -1.2299
 3697SOL    HW221131   0.650   3.097   1.647  1.3766 -1.0714  0.2836
 3698SOL     OW21132   9.329   3.742   0.314 -0.0881  0.7242 -0.3601
 3698SOL    HW121133   9.358   3.662   0.262  1.0024  1.6169 -1.1591
 3698SOL    HW221134   9.274   3.801   0.255 -0.3738  0.8554  0.0395
 3699SOL     OW21135   2.404   6.394   0.148 -0.0360  0.0227  0.0594
 3699SOL    HW121136   2.418   6.310   0.200  0.7594 -0.6433 -1.2107
 3699SOL    HW221137   2.475   6.461   0.173  1.4930 -0.9787 -1.5408
 3700SOL     OW21138   3.547   9.006   1.653 -0.2531  0.1004 -0.2529
 3700SOL    HW121139   3.632   9.013   1.706 -0.3622 -0.8756  0.0537
 3700SOL    HW221140   3.522   9.096   1.618  0.7949  0.4337 -0.1553
 3701SOL     OW21141   3.390   2.400   0.650 -0.1315 -0.3328 -0.5559
 3701SOL    HW121142   3.302   2.355   0.637  0.0445 -0.3713 -1.6566
 3701SOL    HW221143   3.388   2.491   0.609  0.1523 -0.0966 -0.0587
 3702SOL     OW21144   1.706   6.096   0.355 -0.4906 -0.2234  0.6389
 3702SOL    HW121145   1.707   6.005   0.313  1.1322 -0.7716  1.8083
 3702SOL    HW221146   1.767   6.156   0.304  1.3123 -0.8307  1.9992
 3703SOL     OW21147   2.070   0.365   0.605  0.4246 -0.0436  0.3061
 3703SOL    HW121148   2.092   0.271   0.634 -2.2123 -0.7621  0.1114
 3703SOL    HW221149   2.010   0.407   0.673 -3.2548 -0.6264 -2.4221
 3704SOL     OW21150   1.703   3.267   2.412  0.1487 -0.0171 -0.2172
 3704SOL    HW121151   1.659   3.355   2.434  0.1345  0.4022 -1.8759
 3704SOL    HW221152   1.733   3.268   2.317  1.7110 -1.1787  0.2599
 3705SOL     OW21153   1.417   5.303   0.295 -0.1712  0.6983  0.2296
 3705SOL    HW121154   1.431   5.361   0.375 -1.5340 -0.0294  1.0189
 3705SOL    HW221155   1.489   5.234   0.289 -1.2559 -0.6458  2.1023
 3706SOL     OW21156   3.552   9.926   1.358  0.4891 -0.6170 -0.2681
 3706SOL    HW121157   3.605   9.969   1.285 -2.1665  1.7281 -0.8968
 3706SOL    HW221158   3.599   9.940   1.445  1.6866  0.0332 -0.9984
 3707SOL     OW21159   4.036   2.862   0.515  0.0430 -0.2927  0.0838
 3707SOL    HW121160   3.963   2.798   0.539 -0.1858  0.3729  1.1619
 3707SOL    HW221161   4.028   2.885   0.418 -1.5537  0.2405  0.3252
 3708SOL     OW21162   0.176   9.336   2.105  0.9438  0.0475 -0.0519
 3708SOL    HW121163   0.233   9.259   2.133  0.4335 -0.2127  0.2893
 3708SOL    HW221164   0.232   9.418   2.093  1.6809 -0.6773 -1.6420
 3709SOL     OW21165   2.262   5.561   1.230 -0.3346  0.3151  0.3151
 3709SOL    HW121166   2.293   5.652   1.258 -2.8089  1.1941  0.3111
 3709SOL    HW221167   2.336   5.514   1.181  0.4692  2.9255 -1.0390
 3710SOL     OW21168   1.459   4.236   2.241 -0.0260  0.3787 -0.2375
 3710SOL    HW121169   1.489   4.307   2.177  1.1841  0.1249  0.0350
 3710SOL    HW221170   1.362   4.249   2.262 -0.3390  0.6939 -1.8196
 3711SOL     OW21171   9.806   7.101   2.174 -0.0587 -0.1884 -0.6238
 3711SOL    HW121172   9.758   7.023   2.213 -0.7852 -0.1759 -1.4841
 3711SOL    HW221173   9.826   7.167   2.247  0.0737 -0.9190  0.0066
 3712SOL     OW21174   2.215   4.437   2.325 -0.1472  0.3971  0.1208
 3712SOL    HW121175   2.202   4.527   2.283  0.8675 -0.5333 -2.2108
 3712SOL    HW221176   2.310   4.425   2.352 -0.5255  0.4720  1.5896
 3713SOL     OW21177   0.824   1.159   1.194 -0.0220  0.2326 -0.9020
 3713SOL    HW121178   0.914   1.117   1.196 -1.0791 -2.0472  1.6163
 3713SOL    HW221179   0.761   1.103   1.140 -0.9428 -0.4059  0.7963
 3714SOL     OW21180   8.643   4.463   2.374 -0.0654  0.1150  0.1972
 3714SOL    HW121181   8.623   4.506   2.285  1.0311 -0.8139 -0.5067
 3714SOL    HW221182   8.607   4.521   2.447 -1.9888  0.3539 -0.8864
 3715SOL     OW21183   9.443   1.576   1.520  0.0359  0.1826 -0.3930
 3715SOL    HW121184   9.528   1.614   1.484  0.5821 -1.0808 -0.4517
 3715SOL    HW221185   9.461   1.490   1.567 -0.9502  0.8275  1.2443
 3716SOL     OW21186   3.788   0.812   1.804  0.4479  0.0050 -0.0876
 3716SOL    HW121187   3.722   0.869   1.852  0.3258 -0.8558  0.7896
 3716SOL    HW221188   3.881   0.839   1.831  0.4012  0.0974 -0.0201
 3717SOL     OW21189   0.373   6.675   1.527 -0.2700 -0.0593 -0.1885
 3717SOL    HW121190   0.322   6.671   1.441  1.0523  0.4754 -0.9981
 3717SOL    HW221191   0.363   6.588   1.575  1.6810 -1.5822 -2.4460
 3718SOL     OW21192   1.889   0.431   0.830 -0.4733  0.0166  0.2071
 3718SOL    HW121193   1.843   0.519   0.822  2.6860  1.5954 -1.7854
 3718SOL    HW221194   1.933   0.424   0.920  1.3639  1.6284 -0.5198
 3719SOL     OW21195   1.929   0.165   2.361  0.1544 -0.5560  0.2862
 3719SOL    HW121196   1.938   0.133   2.267  0.3145 -0.9741  0.4422
 3719SOL    HW221197   2.019   0.164   2.405  0.4778  1.7392 -0.2229
 3720SOL     OW21198   1.254   6.010   2.272 -0.2726  0.1580 -0.3409
 3720SOL    HW121199   1.199   6.041   2.350  0.5594 -0.1455  0.3726
 3720SOL    HW221200   1.208   6.036   2.187 -0.6632  1.4322  0.2417
 3721SOL     OW21201   3.631   9.156   0.850  0.6436 -0.0699 -0.0714
 3721SOL    HW121202   3.565   9.118   0.916  0.4687 -1.0642 -0.8065
 3721SOL    HW221203   3.647   9.252   0.871 -2.0108  0.5406 -0.6369
 3722SOL     OW21204   1.762   6.867   1.742 -0.2670  0.5276 -0.0985
 3722SOL    HW121205   1.842   6.819   1.707  0.0560  0.1099  1.1786
 3722SOL    HW221206   1.682   6.842   1.688  0.5858  1.5782 -1.8992
 3723SOL     OW21207   9.035   3.676   0.098 -0.1483 -0.5951 -0.4335
 3723SOL    HW121208   9.081   3.657   0.011 -1.3432 -1.4442 -0.8830
 3723SOL    HW221209   9.037   3.594   0.155  1.7766  0.3282  0.8956
 3724SOL     OW21210   9.744   2.382   2.480 -0.3128  0.0119  0.2245
 3724SOL    HW121211   9.785   2.469   2.453  2.0942 -0.8267  0.9894
 3724SOL    HW221212   9.656   2.370   2.434  0.8104  1.4074 -2.3843
 3725SOL     OW21213   9.686   4.196   1.076 -0.0402 -0.0579 -0.4129
 3725SOL    HW121214   9.637   4.137   1.141  0.0474  0.2789 -0.0404
 3725SOL    HW221215   9.773   4.153   1.051 -0.3258 -0.4456 -0.7272
 3726SOL     OW21216   2.321   4.684   2.502 -0.3954  0.2692  1.0307
 3726SOL    HW121217   2.272   4.606   2.541  1.1600 -0.6589  1.1751
 3726SOL    HW221218   2.394   4.651   2.442 -1.9060  1.6707 -1.6723
  10.00000  10.00000   2.58117
